/*--------------------------------*- C++ -*----------------------------------*\
| =========                 |                                                 |
| \\      /  F ield         | OpenFOAM: The Open Source CFD Toolbox           |
|  \\    /   O peration     | Version:  v1912                                 |
|   \\  /    A nd           | Website:  www.openfoam.com                      |
|    \\/     M anipulation  |                                                 |
\*---------------------------------------------------------------------------*/
FoamFile
{
    version     2.0;
    format      ascii;
    class       volVectorField;
    location    "120";
    object      U;
}
// * * * * * * * * * * * * * * * * * * * * * * * * * * * * * * * * * * * * * //

dimensions      [0 1 -1 0 0 0 0];


internalField   nonuniform List<vector> 
3753
(
(0.0504823 0.0212386 0)
(0.152802 0.0629694 -4.04388e-24)
(0.0499632 0.0210255 1.77503e-24)
(0.254869 0.10296 0)
(0.151258 0.0623378 2.00152e-24)
(0.049465 0.0208137 -1.78559e-24)
(0.352933 0.139734 1.70663e-21)
(0.252335 0.101938 1.72851e-24)
(0.149768 0.0617222 2.06144e-21)
(0.0489884 0.0206076 -1.71086e-24)
(0.441235 0.171215 -1.50484e-21)
(0.349439 0.138343 1.66618e-21)
(0.249855 0.100933 -1.69051e-21)
(0.148297 0.0611161 -1.87023e-24)
(0.0485169 0.0204066 1.74145e-21)
(0.512657 0.194921 1.41169e-24)
(0.436831 0.169483 -1.47133e-21)
(0.346003 0.136981 0)
(0.247419 0.0999567 -1.65236e-24)
(0.146852 0.0605213 1.87471e-24)
(0.0480641 0.0202134 0)
(0.559988 0.208549 -1.74926e-26)
(0.507439 0.192896 -1.45084e-21)
(0.432498 0.167799 -1.42679e-24)
(0.342633 0.135656 1.598e-21)
(0.245009 0.0989858 1.65498e-24)
(0.145452 0.0599441 0)
(0.0476085 0.0200221 0)
(0.577527 0.210571 1.33315e-24)
(0.554078 0.206284 1.36868e-21)
(0.502317 0.190939 0)
(0.428254 0.166158 -1.40831e-21)
(0.339295 0.134338 0)
(0.242641 0.0980313 0)
(0.144067 0.0593754 0)
(0.047151 0.0198308 1.63106e-21)
(0.562591 0.200715 0)
(0.571071 0.208125 -1.35119e-21)
(0.548287 0.204105 0)
(0.497292 0.189028 -2.65749e-24)
(0.424047 0.164532 4.12001e-24)
(0.335992 0.133036 0)
(0.240305 0.0970932 0)
(0.142686 0.0588079 0)
(0.0467036 0.019643 -1.53663e-24)
(0.516289 0.180128 -1.32862e-24)
(0.555728 0.198142 1.37342e-21)
(0.564744 0.205785 0)
(0.542602 0.201985 -1.35276e-21)
(0.492316 0.187142 2.66014e-24)
(0.419883 0.162924 -5.87986e-26)
(0.332734 0.131754 0)
(0.237993 0.0961609 0)
(0.141318 0.0582467 0)
(0.0462683 0.0194635 1.54398e-24)
(0.443212 0.151127 -6.74271e-25)
(0.509115 0.17746 6.65049e-25)
(0.549008 0.195709 -1.35254e-21)
(0.558572 0.203531 1.32653e-21)
(0.53701 0.199903 -1.31953e-21)
(0.487397 0.185277 0)
(0.415771 0.161334 -2.67072e-24)
(0.329503 0.130479 0)
(0.235708 0.0952432 0)
(0.139987 0.0576996 1.75866e-21)
(0.0458301 0.0192836 0)
(0.350271 0.116676 6.62736e-22)
(0.435741 0.148364 -5.00316e-24)
(0.502131 0.175001 1.4369e-21)
(0.542546 0.193403 -5.34284e-24)
(0.552554 0.201332 1.28938e-21)
(0.531498 0.197853 0)
(0.482538 0.183432 0)
(0.41169 0.159756 1.27511e-24)
(0.326322 0.129224 0)
(0.233453 0.0943293 -1.43316e-21)
(0.138656 0.0571568 -1.71303e-21)
(0.0454017 0.019103 0)
(0.245334 0.0798111 -9.20719e-22)
(0.342273 0.113765 6.91546e-25)
(0.428551 0.145917 -1.9049e-25)
(0.495587 0.172722 0)
(0.536338 0.191175 0)
(0.546667 0.199183 5.03966e-24)
(0.526067 0.195831 -1.26138e-21)
(0.477725 0.181608 0)
(0.407665 0.158196 -1.27643e-24)
(0.323157 0.12797 0)
(0.231223 0.0934341 1.39444e-21)
(0.137358 0.0566234 -7.71187e-25)
(0.0449802 0.0189229 0)
(0.235669 0.0764753 3.27621e-22)
(0.160239 0.0512723 -2.66377e-22)
(0.164355 0.0527671 3.05939e-22)
(0.334812 0.111304 0)
(0.422168 0.143748 -1.47458e-21)
(0.489474 0.17057 1.34532e-21)
(0.530354 0.189034 0)
(0.540903 0.19708 1.23654e-21)
(0.520714 0.193841 -2.36733e-24)
(0.472981 0.179806 -1.25004e-21)
(0.403681 0.156654 0)
(0.320059 0.126746 0)
(0.229037 0.0925486 1.85384e-26)
(0.136072 0.0560932 7.72454e-25)
(0.0445675 0.0187458 0)
(0.227479 0.0738098 -1.95876e-22)
(0.147392 0.0472729 -3.03852e-22)
(0.153949 0.048857 -2.59446e-22)
(0.105431 0.0334687 2.40013e-22)
(0.109113 0.0345999 -6.29806e-23)
(0.328861 0.10929 1.71545e-21)
(0.416486 0.141785 -1.49325e-21)
(0.483717 0.168549 5.17576e-24)
(0.52456 0.186962 0)
(0.535262 0.195024 2.41037e-24)
(0.515449 0.191881 1.18515e-21)
(0.468311 0.178032 0)
(0.399769 0.155133 -5.93804e-25)
(0.317005 0.12553 -6.21093e-25)
(0.226892 0.0916799 6.84322e-25)
(0.134811 0.0555689 0)
(0.044182 0.0185825 0)
(0.222497 0.0720081 -4.44555e-22)
(0.140241 0.0447373 7.06359e-22)
(0.142773 0.045654 0)
(0.0886584 0.0282702 6.72955e-23)
(0.0978608 0.0304605 0)
(0.0635668 0.0200298 -7.65965e-24)
(0.0658138 0.0208634 -8.38185e-23)
(0.0671765 0.0211473 8.74043e-23)
(0.324034 0.107648 -6.40593e-24)
(0.411332 0.140013 1.49504e-25)
(0.47824 0.166636 -1.29692e-25)
(0.518943 0.184959 0)
(0.529737 0.19301 0)
(0.510274 0.189954 0)
(0.463715 0.176279 0)
(0.395917 0.15363 5.94485e-25)
(0.31402 0.124343 -1.29306e-21)
(0.224792 0.0908236 6.4732e-25)
(0.133612 0.0550686 -1.54159e-21)
(0.0437832 0.0184166 0)
(0.219123 0.0708894 4.24259e-22)
(0.137357 0.0436678 -6.7979e-22)
(0.138431 0.0440283 1.37157e-21)
(0.082619 0.0259633 -3.79816e-22)
(0.0843125 0.0266544 7.23118e-23)
(0.0424645 0.0136096 -8.6678e-23)
(0.0458788 0.0145554 -2.93262e-24)
(0.0596863 0.0187069 2.59857e-24)
(0.0528993 0.015648 -4.70572e-24)
(0.0367863 0.0116071 7.77786e-23)
(0.0384827 0.0121168 -1.23659e-24)
(0.0392947 0.0122965 -1.18301e-24)
(0.319867 0.106261 0)
(0.406544 0.138382 1.36086e-21)
(0.473005 0.164809 -5.07722e-24)
(0.513479 0.183009 0)
(0.524328 0.191037 -1.12291e-24)
(0.505196 0.188056 -1.1493e-21)
(0.459189 0.174551 1.15929e-21)
(0.39215 0.152159 -5.87294e-23)
(0.311098 0.123174 0)
(0.222756 0.0899889 1.25285e-21)
(0.132421 0.0545746 -1.49139e-21)
(0.0434025 0.0182578 0)
(0.216388 0.0700548 -4.01103e-22)
(0.135579 0.043147 -6.95685e-22)
(0.136302 0.0433496 -6.62397e-22)
(0.0810917 0.0254415 6.10401e-22)
(0.0816765 0.0256435 -7.44544e-22)
(0.0393083 0.0122496 -7.41817e-25)
(0.0395112 0.012327 2.79983e-22)
(0.0406488 0.012788 -1.03705e-22)
(0.039831 0.0124924 4.49167e-24)
(0.0140625 0.00457763 6.35248e-23)
(0.0155996 0.00513313 0)
(0.0340912 0.0103169 9.95445e-23)
(0.0233099 0.00559846 3.45971e-24)
(0.0117989 0.00377951 -5.11934e-23)
(0.0124572 0.00388524 0)
(0.012701 0.00394543 0)
(0.316114 0.105024 -1.56825e-21)
(0.402018 0.136842 -1.32019e-21)
(0.467949 0.16305 -2.41782e-24)
(0.508161 0.181113 -1.16684e-21)
(0.51903 0.189099 1.13138e-21)
(0.500199 0.186189 -1.09887e-21)
(0.454769 0.172858 1.09358e-21)
(0.38847 0.150716 -1.16341e-21)
(0.308255 0.122031 0)
(0.220774 0.0891788 1.2119e-21)
(0.131274 0.0540965 0)
(0.0430298 0.0181027 0)
(0.213959 0.0693077 -3.91561e-22)
(0.134112 0.0427229 2.80404e-23)
(0.134702 0.0428998 0)
(0.0801882 0.0251874 1.43676e-22)
(0.0806128 0.0253119 5.9622e-22)
(0.0388797 0.0121089 -7.47818e-25)
(0.0389098 0.012127 1.49127e-24)
(0.0391229 0.0121939 1.92333e-22)
(0.0390277 0.0121702 -7.43944e-25)
(0.0125773 0.00389482 1.20943e-22)
(0.0126381 0.00392296 -1.19674e-24)
(0.0130842 0.00411751 6.66085e-23)
(0.0127451 0.00397356 0)
(0.0110561 0.00357942 -6.63954e-23)
(0.00647379 0.00150068 -1.50663e-24)
(0.312606 0.103873 2.96455e-21)
(0.397707 0.135385 -2.63437e-24)
(0.463059 0.161345 1.24389e-21)
(0.502963 0.179255 1.13629e-21)
(0.513834 0.1872 -5.33182e-25)
(0.495316 0.184355 5.37271e-25)
(0.45044 0.171194 2.1615e-21)
(0.384882 0.149302 1.13169e-21)
(0.305492 0.120918 0)
(0.218846 0.0883845 0)
(0.130157 0.0536345 6.44674e-25)
(0.0426562 0.0179448 -1.27708e-21)
(0.211687 0.068599 -2.40352e-21)
(0.132733 0.0423054 -6.22836e-25)
(0.13331 0.0424895 6.5864e-22)
(0.0793867 0.0249564 5.84584e-22)
(0.0797701 0.0250802 -1.44976e-26)
(0.0385401 0.0120189 1.86809e-22)
(0.0385859 0.0120302 -1.89844e-22)
(0.0387497 0.0120744 0)
(0.0386766 0.0120622 1.88535e-22)
(0.0124685 0.00386051 -1.24562e-22)
(0.0124675 0.00386774 1.24121e-22)
(0.0125283 0.0038843 1.22765e-22)
(0.0124987 0.00387707 1.23255e-22)
(0.309303 0.102788 2.87783e-24)
(0.393548 0.133969 0)
(0.458289 0.159683 -1.20902e-21)
(0.497881 0.17744 1.10867e-21)
(0.508746 0.185331 5.33682e-25)
(0.490529 0.182554 -1.04119e-21)
(0.446221 0.169565 -1.03235e-21)
(0.381384 0.147918 -5.16959e-25)
(0.3028 0.119829 0)
(0.216982 0.0876204 0)
(0.129055 0.0531754 1.23916e-21)
(0.0423205 0.0177971 -6.10198e-23)
(0.209524 0.0679056 7.4222e-22)
(0.131393 0.0418922 6.40397e-22)
(0.131955 0.0420718 6.43059e-22)
(0.0785979 0.0247205 -5.39011e-25)
(0.0789891 0.0248497 -5.53941e-25)
(0.0381821 0.0119116 0)
(0.0382506 0.0119312 1.82697e-22)
(0.0384122 0.0119857 0)
(0.0383543 0.0119664 -7.22916e-25)
(0.0123579 0.00383165 -1.57896e-24)
(0.0123831 0.00383708 -1.22708e-22)
(0.0124305 0.0038497 1.22922e-22)
(0.0123987 0.00384412 -1.25204e-22)
(0.306094 0.101728 -1.36521e-21)
(0.389503 0.132599 -6.09844e-25)
(0.453641 0.158061 -1.17914e-21)
(0.492891 0.175649 0)
(0.503753 0.183495 0)
(0.485852 0.180788 0)
(0.442108 0.16797 -9.98923e-25)
(0.377995 0.146571 -1.06394e-21)
(0.300209 0.118778 0)
(0.215169 0.0868715 5.572e-25)
(0.12799 0.0527261 2.53151e-21)
(0.041973 0.017656 0)
(0.207396 0.0672261 1.56556e-21)
(0.1301 0.0414771 -6.24835e-22)
(0.130649 0.0416589 -6.26912e-22)
(0.0778227 0.0244843 1.3269e-22)
(0.0782069 0.0246061 5.3952e-25)
(0.0378221 0.0118029 0)
(0.0378875 0.0118242 0)
(0.0380485 0.0118741 1.80187e-22)
(0.0379929 0.0118585 0)
(0.0122438 0.00379619 1.2122e-22)
(0.0122764 0.00380341 -2.41799e-22)
(0.0123372 0.00382648 4.81278e-25)
(0.0123153 0.00381755 1.21789e-22)
(0.303002 0.10071 0)
(0.385569 0.131259 6.10861e-25)
(0.449075 0.156463 -5.60502e-25)
(0.487996 0.173889 -1.04775e-21)
(0.498859 0.181688 0)
(0.481283 0.179054 -9.97013e-22)
(0.438107 0.16641 9.71691e-22)
(0.37472 0.145261 0)
(0.297695 0.117753 -5.07147e-25)
(0.213394 0.0861369 -1.0749e-21)
(0.126958 0.0523003 -6.07689e-25)
(0.0416202 0.017511 2.14234e-24)
(0.205364 0.0665679 -3.5264e-22)
(0.128824 0.0410773 2.83788e-23)
(0.129373 0.0412558 -6.12715e-22)
(0.0770604 0.0242412 5.13403e-25)
(0.0774278 0.0243639 1.30541e-22)
(0.0374555 0.011689 0)
(0.0375119 0.0117077 -1.76941e-22)
(0.0376995 0.0117668 0)
(0.0376357 0.0117411 0)
(0.0121388 0.00376374 1.17846e-22)
(0.0121673 0.00377145 -1.17835e-22)
(0.0122168 0.00378792 -1.20583e-22)
(0.0121899 0.00378062 1.19477e-22)
(0.299981 0.0997047 0)
(0.381705 0.129941 1.16395e-21)
(0.444576 0.154884 1.11585e-21)
(0.483175 0.172153 1.46892e-24)
(0.49406 0.179907 3.48347e-24)
(0.476825 0.177351 0)
(0.434237 0.164887 9.71113e-22)
(0.371546 0.143985 0)
(0.295242 0.116752 9.99884e-25)
(0.211666 0.0854271 0)
(0.125929 0.0518754 -1.24863e-21)
(0.0412904 0.0173744 -2.23136e-21)
(0.203362 0.0659199 3.42093e-22)
(0.127599 0.0406787 5.91932e-22)
(0.128119 0.0408548 5.71309e-22)
(0.0763226 0.0240141 5.26939e-22)
(0.0766961 0.0241327 -5.1401e-25)
(0.0370954 0.0115724 0)
(0.0371564 0.0115974 -6.6973e-25)
(0.0373176 0.0116489 -1.7396e-22)
(0.0372447 0.0116299 6.69172e-25)
(0.0120145 0.00372487 1.15489e-22)
(0.0120344 0.00373051 -1.15237e-22)
(0.0121099 0.00375492 1.17016e-22)
(0.0120755 0.00374098 1.15649e-22)
(0.297006 0.0987166 -1.34614e-21)
(0.377885 0.128635 0)
(0.440143 0.153326 0)
(0.478421 0.170431 1.00045e-21)
(0.489353 0.17815 -1.88971e-24)
(0.472488 0.175677 -9.18366e-22)
(0.430476 0.163399 -4.61327e-25)
(0.368456 0.142741 0)
(0.292855 0.115781 -4.92664e-25)
(0.209975 0.0847348 1.00864e-21)
(0.124925 0.0514621 -1.17552e-22)
(0.0409586 0.0172361 -1.11512e-21)
(0.201386 0.0652809 0)
(0.126378 0.0402947 -2.53915e-23)
(0.126907 0.0404697 0)
(0.0755967 0.0237811 2.45292e-22)
(0.0759529 0.023896 -3.95342e-22)
(0.0367421 0.011467 1.64519e-22)
(0.0367946 0.0114833 -6.46476e-25)
(0.0369507 0.0115336 0)
(0.0368951 0.0115144 0)
(0.0118978 0.003687 1.12224e-22)
(0.0119336 0.00369948 -1.12744e-22)
(0.0119838 0.00371578 0)
(0.0119532 0.00370843 1.13755e-22)
(0.294067 0.0977377 0)
(0.374111 0.127339 2.17472e-24)
(0.435738 0.151771 0)
(0.473721 0.168719 0)
(0.48473 0.176405 0)
(0.468253 0.174031 -4.59471e-25)
(0.42682 0.161947 9.09833e-22)
(0.365452 0.141532 0)
(0.290516 0.114834 -9.96491e-22)
(0.208316 0.0840573 9.86586e-22)
(0.123932 0.0510489 -1.14495e-22)
(0.0406154 0.0170945 1.98858e-24)
(0.199441 0.0646491 3.23861e-22)
(0.125188 0.039913 -5.32334e-22)
(0.125696 0.0400847 0)
(0.0748795 0.0235584 -5.02062e-22)
(0.0752333 0.0236714 1.92173e-24)
(0.0363904 0.0113542 -1.62522e-22)
(0.0364586 0.0113841 -1.64554e-22)
(0.0366179 0.0114289 -1.65197e-22)
(0.0365477 0.0114053 6.34438e-25)
(0.011782 0.00365371 -1.10264e-24)
(0.0118117 0.00366034 -1.09643e-22)
(0.011856 0.00367666 1.11603e-22)
(0.0118363 0.00366875 1.10991e-22)
(0.291156 0.0967617 2.36651e-24)
(0.370344 0.126044 -2.1768e-24)
(0.43134 0.150212 3.80004e-24)
(0.469051 0.167001 -1.76117e-24)
(0.480187 0.174675 -1.68895e-24)
(0.464129 0.172414 -8.61697e-22)
(0.423258 0.160531 0)
(0.36251 0.140355 -4.57513e-23)
(0.288228 0.113909 0)
(0.206667 0.0833796 9.56085e-22)
(0.122933 0.0506346 -1.15088e-21)
(0.0402716 0.016951 -1.06928e-21)
(0.197516 0.0640199 3.11781e-22)
(0.124018 0.0395395 -5.40244e-22)
(0.124525 0.0397125 0)
(0.0741747 0.0233371 4.86314e-22)
(0.0745378 0.0234534 0)
(0.0360537 0.0112507 1.54599e-22)
(0.0361134 0.0112728 0)
(0.0362526 0.0113138 0)
(0.0362098 0.0112971 0)
(0.0116758 0.00361965 2.08302e-25)
(0.0117049 0.00363176 1.08497e-22)
(0.0117617 0.00364602 1.08856e-22)
(0.011732 0.00363515 0)
(0.28824 0.0957834 -1.14985e-21)
(0.366535 0.124731 -4.0346e-24)
(0.426901 0.148625 -9.30908e-22)
(0.464401 0.16527 -8.63634e-22)
(0.475713 0.172947 1.6862e-24)
(0.460089 0.170828 -8.17102e-25)
(0.419769 0.159151 8.38766e-22)
(0.359628 0.139206 0)
(0.285948 0.112987 0)
(0.205014 0.0827006 9.3352e-22)
(0.121928 0.0502161 2.13837e-21)
(0.0399364 0.0168082 -9.81787e-22)
(0.195602 0.0633928 1.01823e-21)
(0.122853 0.0391659 -1.02135e-21)
(0.123356 0.0393336 -2.01112e-24)
(0.0734966 0.0231242 1.11057e-22)
(0.0738435 0.0232362 1.81662e-24)
(0.0357153 0.0111442 1.48978e-22)
(0.0357825 0.0111738 5.94606e-25)
(0.0359382 0.0112135 0)
(0.0358841 0.0111998 0)
(0.011568 0.003586 -5.76593e-25)
(0.0115895 0.0035935 1.05087e-22)
(0.0116357 0.00360698 1.06242e-22)
(0.0116175 0.00359908 -1.05646e-22)
(0.285283 0.0947903 -2.29125e-24)
(0.362633 0.12338 1.0375e-21)
(0.422393 0.146993 9.1905e-22)
(0.459737 0.163502 -8.21738e-22)
(0.471295 0.171233 3.99657e-25)
(0.456122 0.169279 8.15827e-25)
(0.416345 0.157806 -1.6102e-24)
(0.356765 0.138067 3.28456e-24)
(0.283671 0.112065 0)
(0.20336 0.0820185 7.94812e-23)
(0.120919 0.0497913 -4.02579e-24)
(0.0395882 0.0166617 -9.70897e-22)
(0.193668 0.0627568 -2.96269e-22)
(0.121718 0.0388 5.04481e-22)
(0.122218 0.038971 4.92424e-22)
(0.0728107 0.0229055 4.58268e-22)
(0.0731607 0.0230168 0)
(0.0353912 0.0110448 0)
(0.0354524 0.0110707 -1.49028e-22)
(0.0355933 0.0111062 -1.48408e-22)
(0.0355485 0.0110957 -5.82318e-25)
(0.0114656 0.00355281 -1.09631e-24)
(0.0114933 0.00356691 1.0317e-22)
(0.011545 0.00357644 -1.03688e-22)
(0.0115141 0.00357036 1.03435e-22)
(0.282205 0.0937557 4.21386e-24)
(0.358553 0.121951 9.32482e-22)
(0.417738 0.145271 8.76148e-22)
(0.455047 0.161704 7.90708e-22)
(0.466925 0.169546 -3.9901e-25)
(0.452224 0.167773 0)
(0.412958 0.156483 4.73461e-24)
(0.353905 0.136928 -3.28361e-24)
(0.281391 0.111139 -8.38826e-22)
(0.201707 0.081333 3.58339e-24)
(0.119894 0.0493588 9.96061e-26)
(0.0392373 0.0165165 3.7299e-24)
(0.191661 0.0620955 -2.7903e-22)
(0.120577 0.0384295 9.19539e-25)
(0.121084 0.0386051 4.94165e-22)
(0.0721579 0.022701 -1.28823e-24)
(0.0724989 0.02281 -4.49685e-22)
(0.0350692 0.0109421 0)
(0.0351211 0.0109612 2.81202e-25)
(0.0352878 0.0110102 5.66355e-25)
(0.0352316 0.0109954 -8.48114e-25)
(0.0113633 0.00352216 9.91976e-23)
(0.0113817 0.0035321 0)
(0.0114237 0.0035388 1.01875e-22)
(0.0114002 0.00353561 1.0113e-22)
(0.278866 0.0926314 -6.81487e-23)
(0.354168 0.120389 0)
(0.412908 0.143443 -1.62358e-21)
(0.450343 0.159905 0)
(0.462619 0.167914 -3.0984e-24)
(0.448381 0.166303 0)
(0.409589 0.155167 -6.15751e-24)
(0.351053 0.135789 0)
(0.279118 0.11021 8.75953e-22)
(0.200028 0.0806324 -3.58508e-24)
(0.118871 0.0489272 7.76777e-24)
(0.0388749 0.016365 -9.21289e-22)
(0.189433 0.0613712 -1.4464e-21)
(0.119417 0.0380514 4.65292e-22)
(0.119961 0.0382407 4.55818e-22)
(0.0715037 0.0224912 -6.03487e-25)
(0.0718316 0.0225999 -1.04511e-22)
(0.0347619 0.0108449 -2.69497e-25)
(0.0348192 0.0108707 2.69315e-25)
(0.0349675 0.010915 0)
(0.0349102 0.0108953 0)
(0.011249 0.00348569 -9.60981e-23)
(0.0112821 0.00349744 9.65119e-23)
(0.0113331 0.0035101 -1.91958e-25)
(0.0113073 0.00350569 9.81044e-23)
(0.275106 0.091355 0)
(0.349343 0.118602 1.66044e-21)
(0.407906 0.14154 -3.95843e-25)
(0.445683 0.158178 -3.13503e-24)
(0.458401 0.166338 8.47842e-26)
(0.444588 0.164851 0)
(0.406237 0.153852 7.78627e-22)
(0.348206 0.134644 -7.62646e-22)
(0.276824 0.109267 -3.25369e-24)
(0.198347 0.0799271 3.40899e-24)
(0.117828 0.0484857 1.01447e-21)
(0.0385083 0.0162077 1.75348e-24)
(0.18678 0.0605093 0)
(0.118102 0.0376285 -4.20359e-22)
(0.118745 0.0378478 4.56256e-22)
(0.0708439 0.0222826 0)
(0.0711911 0.0223926 -3.20984e-22)
(0.0344545 0.0107502 -3.76649e-24)
(0.0345155 0.0107725 1.34168e-22)
(0.0346512 0.0108157 1.37713e-22)
(0.0346106 0.0108031 2.61961e-25)
(0.0111634 0.00345775 -9.26119e-23)
(0.0111828 0.00346834 9.43131e-23)
(0.0112267 0.00348109 9.56894e-23)
(0.0112027 0.00347429 9.47712e-23)
(0.270517 0.0897388 -4.89976e-22)
(0.344025 0.116573 7.42443e-22)
(0.402903 0.139734 0)
(0.441178 0.156543 7.68602e-26)
(0.454288 0.1648 5.91721e-24)
(0.440833 0.163407 -7.31692e-22)
(0.402893 0.152532 -2.94155e-24)
(0.345352 0.133492 -7.7326e-22)
(0.274516 0.108312 0)
(0.196649 0.0792139 -8.25037e-22)
(0.116766 0.0480321 -9.9561e-22)
(0.038149 0.0160529 -5.20898e-24)
(0.183047 0.0592946 -6.17671e-22)
(0.116376 0.037086 3.1541e-24)
(0.117316 0.0373957 -4.16403e-22)
(0.0701387 0.0220587 4.82719e-22)
(0.0705106 0.0221756 -3.01137e-24)
(0.0341543 0.010653 0)
(0.0342168 0.0106817 0)
(0.0343511 0.010721 2.56782e-25)
(0.0342994 0.0107023 -1.31511e-22)
(0.0110536 0.00342493 -9.02703e-23)
(0.0110876 0.00343635 9.02966e-23)
(0.011129 0.00345068 0)
(0.011114 0.00344756 0)
(0.264735 0.0875442 -8.61327e-22)
(0.338601 0.114674 6.93074e-24)
(0.398181 0.13808 8.28834e-22)
(0.436875 0.154973 3.06445e-24)
(0.450269 0.163287 7.18898e-22)
(0.437113 0.16197 2.73514e-24)
(0.399553 0.15121 7.04694e-22)
(0.342477 0.132325 2.83891e-24)
(0.272204 0.107353 -7.97728e-22)
(0.194939 0.0784897 8.02959e-22)
(0.115716 0.047579 9.80719e-22)
(0.0377717 0.0158905 3.45941e-24)
(0.176309 0.0568646 -3.29932e-24)
(0.113183 0.036086 -8.56803e-24)
(0.115039 0.0367502 3.98553e-22)
(0.0692246 0.0217777 9.68936e-25)
(0.0697562 0.0219288 3.81181e-22)
(0.0338647 0.0105628 -3.16729e-24)
(0.0339092 0.0105843 -2.39725e-25)
(0.0340431 0.0106248 0)
(0.0339977 0.0106089 2.39723e-25)
(0.0109679 0.00339607 0)
(0.0109953 0.0034099 8.78615e-23)
(0.0110325 0.00342073 8.8916e-23)
(0.0110104 0.00341448 8.83209e-23)
(0.258564 0.0854824 -3.37878e-24)
(0.333724 0.113035 -9.2478e-22)
(0.393859 0.136544 -6.4001e-24)
(0.432763 0.153459 -7.4106e-22)
(0.446333 0.161801 0)
(0.433427 0.160542 -2.73701e-24)
(0.396223 0.149886 -6.95395e-22)
(0.339616 0.131156 6.96937e-22)
(0.269884 0.106382 2.91846e-24)
(0.193234 0.0777588 5.84494e-23)
(0.114647 0.04711 -9.59358e-22)
(0.0373805 0.0157229 0)
(0.168168 0.0543599 1.13959e-22)
(0.104263 0.0328784 2.24048e-24)
(0.109799 0.0350157 5.54106e-24)
(0.0673818 0.0212556 -1.08262e-23)
(0.0685137 0.0215849 -9.53979e-23)
(0.0335321 0.0104609 -1.13961e-22)
(0.0336141 0.0104902 2.30191e-22)
(0.033773 0.0105349 -2.32601e-25)
(0.0337085 0.0105087 0)
(0.0108762 0.00336906 -1.64559e-22)
(0.0108988 0.00337955 8.35666e-23)
(0.0109278 0.0033882 8.54909e-23)
(0.0109123 0.00338486 8.48717e-23)
(0.253603 0.0838329 -9.86449e-22)
(0.329578 0.111591 0)
(0.389859 0.135101 0)
(0.428809 0.152001 -5.36047e-24)
(0.442476 0.160341 0)
(0.429783 0.159124 1.31812e-21)
(0.392918 0.148561 0)
(0.336761 0.129981 -7.00165e-22)
(0.267569 0.105401 -7.19276e-22)
(0.191509 0.0770108 7.73665e-22)
(0.113547 0.0466282 9.41078e-22)
(0.036986 0.015556 1.69805e-24)
(0.163378 0.0526121 1.01047e-21)
(0.0943461 0.0301357 -2.04963e-22)
(0.09792 0.0311737 -1.89215e-22)
(0.0578785 0.0178706 0)
(0.0651315 0.0205141 5.4607e-23)
(0.0327564 0.0102528 0)
(0.0330803 0.010338 -8.46979e-25)
(0.0333923 0.010427 -3.37486e-24)
(0.0332539 0.0103836 8.491e-25)
(0.0107811 0.00334042 7.71326e-23)
(0.0108082 0.00334929 -8.00658e-23)
(0.0108572 0.00336387 8.12141e-23)
(0.0108307 0.00335416 7.96219e-23)
(0.249942 0.0825544 7.70994e-24)
(0.325959 0.11031 0)
(0.386117 0.133754 0)
(0.424995 0.150593 5.36981e-24)
(0.438698 0.158903 -6.48008e-22)
(0.426181 0.157711 -1.08679e-25)
(0.389637 0.147235 -4.29135e-24)
(0.333914 0.128794 0)
(0.26525 0.10441 -7.26236e-22)
(0.189767 0.0762523 -1.57027e-21)
(0.112448 0.0461455 0)
(0.0365741 0.0153805 -2.55885e-24)
(0.160786 0.0516471 -2.26125e-22)
(0.0916235 0.0289438 3.13523e-24)
(0.0925485 0.0293137 2.06505e-22)
(0.045684 0.0144249 2.98151e-22)
(0.0487556 0.0157309 -6.48853e-23)
(0.0192602 0.00452356 0)
(0.0283454 0.00843395 0)
(0.032187 0.0101582 -3.59164e-24)
(0.030973 0.00960453 -5.397e-23)
(0.0105539 0.00327562 7.1036e-23)
(0.0106678 0.00330395 -7.30401e-23)
(0.0107466 0.00333189 -1.01621e-24)
(0.010707 0.00331912 7.382e-23)
(0.247012 0.0815412 -8.40601e-22)
(0.322686 0.10916 0)
(0.382583 0.132482 -2.60051e-24)
(0.421302 0.149221 0)
(0.434996 0.157486 0)
(0.422629 0.156305 6.06666e-22)
(0.386373 0.145903 6.13161e-22)
(0.33108 0.127603 6.39342e-22)
(0.262924 0.103406 6.82839e-22)
(0.18803 0.0754853 -8.01447e-22)
(0.111327 0.0456446 9.27335e-22)
(0.0361488 0.0152036 -8.8369e-22)
(0.158978 0.0510817 1.21812e-21)
(0.0904952 0.02857 4.08519e-22)
(0.0909114 0.0286964 -3.13356e-24)
(0.0444663 0.0138531 8.27826e-23)
(0.0448774 0.0140116 0)
(0.0105384 0.00330849 -8.93648e-23)
(0.0108079 0.00341395 4.37224e-23)
(0.0129334 0.00406496 5.86987e-23)
(0.011511 0.00381977 0)
(0.00532102 0.00120052 0)
(0.00920799 0.00295394 -4.24702e-23)
(0.0103609 0.00324911 -7.30337e-23)
(0.00988882 0.00316148 -3.70412e-23)
(0.244483 0.0806886 0)
(0.319673 0.108108 -6.92297e-22)
(0.379211 0.131265 5.05448e-24)
(0.417722 0.147886 5.85073e-22)
(0.431369 0.156085 5.6788e-22)
(0.419119 0.154904 -5.78911e-22)
(0.383153 0.144572 -2.27135e-24)
(0.32826 0.1264 0)
(0.260613 0.10239 6.72659e-22)
(0.186276 0.0746995 -7.48384e-22)
(0.110175 0.0451313 1.75418e-24)
(0.0357102 0.0150178 0)
(0.157444 0.0506311 -2.12342e-22)
(0.0896908 0.0283615 -3.76774e-22)
(0.0900062 0.0284517 -2.93929e-24)
(0.0440301 0.0137236 0)
(0.0442187 0.0137852 -8.12887e-23)
(0.0104206 0.00322998 -8.37671e-25)
(0.0104272 0.00323086 8.11605e-23)
(0.0104976 0.00326433 -8.10013e-23)
(0.0104571 0.00324298 0)
(0.242214 0.0799316 8.10909e-22)
(0.316846 0.10712 0)
(0.37598 0.130092 -6.30529e-22)
(0.41424 0.146575 -5.81902e-22)
(0.427811 0.154698 -5.31751e-22)
(0.415667 0.153507 -4.27854e-24)
(0.379955 0.143232 2.27104e-24)
(0.325458 0.125186 -6.05391e-22)
(0.25829 0.101357 -6.78218e-22)
(0.184489 0.0738947 7.64634e-25)
(0.109007 0.0446056 9.49186e-22)
(0.0352612 0.0148264 0)
(0.156081 0.0502107 2.01264e-22)
(0.0889562 0.0281575 3.52691e-22)
(0.0892603 0.0282525 0)
(0.0437093 0.0136351 -3.07643e-25)
(0.0438681 0.013691 8.0307e-23)
(0.0103705 0.00321246 8.10933e-23)
(0.0103749 0.00321564 8.09441e-23)
(0.0104044 0.0032254 8.2422e-23)
(0.0103991 0.00322405 8.20804e-23)
(0.240109 0.0792243 5.68734e-24)
(0.314158 0.106176 0)
(0.372859 0.128953 2.12248e-24)
(0.410847 0.145288 5.4273e-22)
(0.424326 0.153321 0)
(0.412259 0.152109 4.04295e-24)
(0.376793 0.141886 1.08202e-21)
(0.322667 0.123959 5.96702e-22)
(0.255963 0.100308 0)
(0.182686 0.0730723 -7.64948e-22)
(0.107807 0.0440597 0)
(0.0347897 0.0146278 0)
(0.154802 0.0498029 1.82432e-22)
(0.0882677 0.0279417 0)
(0.0885376 0.0280394 -6.52558e-22)
(0.043379 0.0135473 -5.94124e-25)
(0.0435567 0.0136032 9.00765e-25)
(0.0103145 0.00319271 1.48639e-25)
(0.0103252 0.00319886 7.62568e-23)
(0.0103492 0.00320977 -1.56674e-25)
(0.0103512 0.00320766 -8.29715e-25)
(0.238113 0.0785515 -2.73825e-24)
(0.311581 0.105266 5.51528e-22)
(0.369838 0.12784 -1.7937e-25)
(0.407541 0.144017 -4.6357e-22)
(0.420906 0.151951 0)
(0.408907 0.15071 -5.04547e-22)
(0.373665 0.14053 0)
(0.319889 0.122715 -1.15411e-24)
(0.253627 0.0992375 0)
(0.18086 0.0722277 0)
(0.106577 0.0434962 1.00827e-21)
(0.0342937 0.0144215 0)
(0.153567 0.0494043 3.38038e-22)
(0.0875706 0.0277199 -3.03171e-22)
(0.0878565 0.0278218 1.1583e-24)
(0.0430494 0.0134429 -1.10366e-24)
(0.0432133 0.0135022 2.95574e-22)
(0.0102411 0.00317464 7.05032e-23)
(0.0102539 0.00318066 7.18047e-23)
(0.0102899 0.0031906 7.44232e-23)
(0.010288 0.00318899 0)
(0.23621 0.0779052 -6.52704e-23)
(0.309108 0.104387 5.05682e-22)
(0.366904 0.126747 4.95813e-22)
(0.404319 0.142762 4.22844e-22)
(0.417557 0.150585 8.18879e-25)
(0.405599 0.149303 8.67777e-25)
(0.37056 0.139159 0)
(0.317113 0.121449 0)
(0.251272 0.0981404 3.3644e-25)
(0.178997 0.0713556 -8.11279e-22)
(0.105303 0.0429117 1.05663e-21)
(0.0337801 0.014206 -5.77158e-25)
(0.152385 0.0490161 -5.37438e-22)
(0.0869151 0.0275131 -2.7575e-22)
(0.0871827 0.0276099 -5.52032e-22)
(0.0427162 0.0133346 -6.08149e-23)
(0.0428866 0.0133959 0)
(0.0101614 0.00314898 6.55899e-23)
(0.0101725 0.00315459 -1.28331e-25)
(0.010212 0.00316821 6.91945e-23)
(0.010208 0.00316434 6.80398e-23)
(0.234387 0.0772803 -6.39003e-23)
(0.306706 0.103524 4.48733e-22)
(0.364066 0.125676 -4.50807e-22)
(0.401174 0.141513 -8.22744e-25)
(0.414272 0.149218 -8.18838e-25)
(0.402343 0.147889 -8.67821e-25)
(0.367483 0.137771 0)
(0.314344 0.120161 0)
(0.248893 0.0970144 -3.36686e-25)
(0.177105 0.0704593 -1.711e-21)
(0.103986 0.0423021 0)
(0.0332433 0.0139833 1.23176e-21)
(0.151254 0.0486403 -6.28949e-22)
(0.0862707 0.0273055 -2.48888e-22)
(0.0865367 0.0274028 -2.52075e-25)
(0.04241 0.0132444 0)
(0.0425594 0.0132932 2.49311e-22)
(0.0100934 0.00312349 6.01282e-23)
(0.0101039 0.00313176 1.1997e-25)
(0.0101332 0.00314295 6.35945e-23)
(0.010128 0.00313926 6.18719e-23)
(0.232616 0.0766711 -5.26882e-22)
(0.304392 0.102685 0)
(0.361311 0.124617 3.43585e-22)
(0.398108 0.140268 0)
(0.411052 0.147847 0)
(0.39913 0.146462 0)
(0.364427 0.136363 4.37922e-22)
(0.311572 0.118846 -5.44842e-22)
(0.246498 0.095858 7.23992e-22)
(0.175157 0.069526 -9.0228e-22)
(0.102628 0.0416723 -6.02887e-25)
(0.0326758 0.0137518 6.3016e-25)
(0.15015 0.0482786 1.17815e-22)
(0.0856629 0.0271036 -2.2142e-22)
(0.0859109 0.0272009 4.45292e-22)
(0.0420954 0.0131456 0)
(0.0422534 0.0131981 0)
(0.0100235 0.00310533 0)
(0.0100261 0.00310993 5.50451e-23)
(0.0100552 0.00311696 5.79476e-23)
(0.0100527 0.00311575 5.68376e-23)
(0.230915 0.0760839 -4.0321e-22)
(0.302153 0.101859 -3.85214e-22)
(0.358633 0.123562 5.534e-25)
(0.395113 0.139021 5.47435e-25)
(0.407892 0.146468 0)
(0.39596 0.145019 -4.14633e-22)
(0.361397 0.13493 9.18138e-22)
(0.308787 0.117493 0)
(0.244063 0.0946628 7.58353e-22)
(0.173161 0.0685591 0)
(0.101204 0.0410166 1.26101e-24)
(0.0320901 0.0135171 3.0345e-24)
(0.149089 0.047933 5.75081e-22)
(0.0850484 0.0269121 -1.91979e-22)
(0.0853001 0.0270039 -7.39263e-25)
(0.0418069 0.0130484 0)
(0.0419589 0.0131046 -2.00783e-22)
(0.00994465 0.00308149 1.87428e-25)
(0.00994946 0.00308578 4.92155e-23)
(0.00998808 0.00309716 5.2075e-23)
(0.00997572 0.00309238 5.09615e-23)
(0.229272 0.0755153 0)
(0.299997 0.101045 0)
(0.356038 0.122508 -4.43813e-25)
(0.392196 0.137774 2.18411e-22)
(0.404794 0.145081 0)
(0.392835 0.143556 -3.99706e-22)
(0.358375 0.133465 0)
(0.305987 0.116103 2.99865e-25)
(0.241578 0.0934243 0)
(0.171105 0.0675561 1.02751e-21)
(0.0997142 0.0403432 -6.58546e-25)
(0.0314927 0.0132689 1.62828e-21)
(0.148058 0.0476132 -8.06484e-23)
(0.0844644 0.0267284 -1.63897e-22)
(0.0847035 0.0268168 0)
(0.0415127 0.0129608 -6.33128e-25)
(0.041665 0.0130114 6.32248e-25)
(0.00987885 0.00305867 1.65488e-25)
(0.0098881 0.00306409 4.27552e-23)
(0.00991766 0.00307604 4.63496e-23)
(0.00991577 0.00307217 4.51477e-23)
(0.227703 0.0749623 2.5087e-22)
(0.297925 0.100225 0)
(0.353517 0.121452 -2.34957e-22)
(0.389351 0.136524 0)
(0.401757 0.143679 0)
(0.389746 0.142068 2.82255e-22)
(0.355362 0.131963 2.2677e-25)
(0.303173 0.114673 -2.9999e-25)
(0.239053 0.0921428 -1.6617e-21)
(0.168964 0.0665094 -1.11167e-21)
(0.098151 0.0396729 0)
(0.0310175 0.0129275 -1.82194e-21)
(0.147062 0.0473334 -2.96479e-22)
(0.0838639 0.0265686 1.32983e-22)
(0.0841143 0.0266426 1.42458e-25)
(0.0412281 0.012872 0)
(0.0413735 0.0129212 0)
(0.0098057 0.00303835 3.58425e-23)
(0.00981672 0.00304361 3.68147e-23)
(0.00985029 0.00305419 0)
(0.00984885 0.00305138 3.90915e-23)
(0.226227 0.0743934 -6.43624e-26)
(0.295916 0.0993991 0)
(0.351082 0.120407 9.96026e-23)
(0.386581 0.135268 0)
(0.398781 0.14226 -2.78018e-22)
(0.386693 0.140548 1.55061e-25)
(0.352362 0.130422 -2.26833e-25)
(0.300329 0.113191 1.04832e-22)
(0.236455 0.0908105 9.31696e-22)
(0.16677 0.065441 0)
(0.0964713 0.0389243 0)
(0.0312738 0.0126051 0)
(0.146249 0.0469202 1.03602e-25)
(0.0832906 0.0265171 -3.86256e-25)
(0.0835143 0.0265208 1.02528e-22)
(0.0409312 0.012786 0)
(0.041081 0.0128331 0)
(0.00974193 0.00301705 2.90334e-23)
(0.00975243 0.00302441 3.0759e-23)
(0.00978102 0.00303339 0)
(0.00977626 0.00302949 3.24798e-23)
(0.224782 0.0738105 6.42999e-26)
(0.293987 0.09859 -1.11574e-22)
(0.348721 0.119359 0)
(0.38389 0.134002 0)
(0.395866 0.140816 1.25588e-22)
(0.383674 0.13899 -1.55007e-25)
(0.349359 0.128831 9.42307e-22)
(0.297437 0.111657 -3.32676e-25)
(0.233838 0.0894308 0)
(0.164248 0.0642949 0)
(0.0963642 0.0380721 0)
(0.0269692 0.010164 0)
(0.145338 0.0465814 0)
(0.0829833 0.0261419 0)
(0.083049 0.0265464 -7.66238e-23)
(0.0405276 0.0127441 0)
(0.0407546 0.0127619 -9.54598e-23)
(0.00967925 0.00299489 0)
(0.00968367 0.00300129 2.3749e-23)
(0.00970993 0.003011 2.74779e-23)
(0.00970648 0.00300715 -5.19113e-26)
(0.223401 0.0732416 0)
(0.292134 0.0977904 0)
(0.346453 0.118312 0)
(0.381275 0.132718 -1.24089e-22)
(0.393008 0.139341 1.43763e-25)
(0.380686 0.13739 -3.80585e-22)
(0.346339 0.127189 0)