/*--------------------------------*- C++ -*----------------------------------*\
| =========                 |                                                 |
| \\      /  F ield         | OpenFOAM: The Open Source CFD Toolbox           |
|  \\    /   O peration     | Version:  v1912                                 |
|   \\  /    A nd           | Website:  www.openfoam.com                      |
|    \\/     M anipulation  |                                                 |
\*---------------------------------------------------------------------------*/
FoamFile
{
    version     2.0;
    format      ascii;
    class       surfaceScalarField;
    location    "210";
    object      phi;
}
// * * * * * * * * * * * * * * * * * * * * * * * * * * * * * * * * * * * * * //

dimensions      [0 3 -1 0 0 0 0];
oriented        oriented;


internalField   nonuniform List<scalar> 
7354
(
-3.40051e-05
0.00993343
-0.000159307
0.0100949
0.000770621
0.00916989
-0.00036445
0.0102384
0.00121669
0.00964887
0.00287318
0.00313604
0.00317798
-0.000600246
0.0102814
0.00134582
0.0101092
0.00467393
0.00358657
0.00426155
0.00196696
0.000584762
0.00059761
0.00397249
0.000604998
0.000567446
-0.000865337
0.0102956
0.00133947
0.0102878
0.00537457
0.00460314
0.00480536
0.00559515
0.00123067
0.000733221
0.00641003
0.00177805
0.00166862
-0.000602404
0.00118716
-0.0017546
0.00235959
-0.00116541
0.0103132
0.001203
0.0104321
0.00534441
0.0103179
0.00710073
0.00203571
0.00187672
0.00714932
0.00475677
-0.00309281
0.00432348
-0.00432339
0.00474151
0.00135993
0.00166871
-0.00149805
0.0103348
0.000935543
0.0105806
0.00480681
0.0109696
-0.00981774
0.0160791
0.00532586
0.00587994
-0.00516328
0.0052589
0.00194009
0.00145495
-0.00426157
0.00231312
0.00214639
-0.00166871
0.00302865
-0.00185676
0.0103561
0.000551187
0.0107191
0.00404164
0.0113457
0.0139707
0.0130779
0.00599474
-0.00313592
0.00419158
-0.00172458
0.00621939
0.00565526
-0.0044836
0.00216213
-0.00265258
0.00182975
-0.00216213
0.00165593
-0.00223531
0.0103754
7.37274e-05
0.0108335
0.00320498
0.0115557
0.011434
0.0138824
-0.00319189
0.00989156
0.0125975
0.00218697
0.0029215
-0.000371317
-0.000545644
-0.00112969
0.00123485
0.00465033
0.000526233
-0.00262965
0.0103925
-0.000472233
0.0109213
0.00234276
0.0116957
0.00898275
0.0140068
0.00897015
0.0148038
-0.00161565
0.00448262
0.0110292
-0.00129876
0.000861961
-0.000110826
0.00224401
-7.36925e-05
-0.000932032
0.000668778
-0.000108076
-0.000242838
0.00389663
0.000283395
-0.00303461
0.0104055
-0.00106558
0.0109858
0.00146254
0.0118015
0.00677424
0.0139041
0.00746464
0.0155123
0.00475096
0.0145354
0.00163239
0.00989527
-9.71101e-05
-0.000401334
-0.00063808
0.00323592
0.000576984
-1.90366e-05
0.00177576
-8.15193e-05
-8.83392e-05
0.000516157
-1.28719e-05
0.000175319
-0.00344896
0.0104172
-0.0016919
0.0110318
0.000566985
0.0118813
0.00481933
0.0137563
0.00582449
0.0155442
0.00420477
0.0160585
0.00226241
0.0139054
0.000309296
0.00919073
0.00023881
0.000156397
-0.00299554
0.00290705
-8.64536e-06
-0.000160957
0.000156282
0.00164405
-2.28768e-05
-6.36576e-06
-0.000448051
0.00038915
-2.26281e-05
-2.02419e-05
0.000143409
-0.0038712
0.0104272
-0.00234114
0.0110664
-0.000340313
0.011939
0.00307317
0.0136274
0.00422035
0.0153604
0.00329505
0.0164539
0.00223229
0.0160886
0.000968528
0.0132461
-1.60948e-05
0.00886157
0.000112603
0.000232621
-0.00288309
0.00287058
0.000251297
0.000180355
0.00163671
4.00226e-06
-5.31985e-06
0.000368166
-1.89213e-06
0.000362827
-1.02583e-06
-0.000123168
0.000100539
-0.00429818
0.0104339
-0.00300713
0.0110931
-0.00125487
0.0119809
0.00148338
0.0135287
0.00269432
0.0151534
0.00226622
0.0163892
0.00176648
0.0169197
0.00118427
0.0158728
0.000433833
0.0127962
8.20095e-05
0.00875883
-2.91354e-05
4.98419e-05
-0.00286844
0.00288162
9.94171e-05
0.000234757
-0.0017181
0.00175043
0.000113324
0.000105637
2.90683e-05
6.98868e-05
-0.000357908
0.000362487
-5.82945e-07
-4.04297e-07
9.86469e-05
9.76209e-05
-0.00473197
0.0104417
-0.00368985
0.0111165
-0.00217447
0.0120126
5.88133e-06
0.0134583
0.0012416
0.0149814
0.00121561
0.016204
0.00109517
0.0170605
0.000986839
0.0171172
0.000663766
0.0156429
0.000311154
0.012567
0.00010271
-6.86335e-05
0.00872473
-0.00289093
0.00272285
0.000138938
4.05285e-05
-0.00180089
0.00185692
8.28264e-06
3.51021e-05
0.000124696
5.95997e-05
-0.000455362
0.00048312
8.55625e-05
-0.000420443
7.07125e-05
0.000380823
1.07312e-05
3.02643e-05
-9.72166e-05
9.66334e-05
-0.0051683
0.0104472
-0.0043839
0.0111357
-0.00309813
0.0120401
-0.00139396
0.0134124
-0.000154647
0.0148546
0.000170471
0.0160265
0.000350227
0.016949
0.000548381
0.0174989
0.000584836
0.0171961
0.00046985
0.0154842
0.000261523
0.0124082
-0.00204858
0.00473998
-1.09122e-05
-2.62853e-05
4.80467e-06
0.000130148
0.00858975
-0.00189212
-1.23877e-05
-5.13407e-06
7.45558e-06
-2.13939e-06
-0.000570328
0.000575314
3.2928e-06
-0.000550329
1.51008e-05
0.000526254
8.15595e-05
3.55235e-05
-0.000208341
0.000237404
5.64966e-05
-0.000137629
0.000107364
-0.00560913
0.0104538
-0.00509306
0.0111563
-0.00402872
0.0120662
-0.00274938
0.0133954
-0.00151462
0.0147723
-0.000866336
0.0158914
-0.000416769
0.0167935
-4.45429e-07
0.0174978
0.000279348
0.0178044
0.000423116
0.0172428
0.00039192
0.0153538
0.000198139
0.0122149
0.00475018
0.000108074
1.18682e-05
-0.000876196
0.000867679
-1.48428e-06
-9.13643e-07
-0.00052968
-2.58652e-07
-1.20924e-06
-0.000371336
-2.61703e-05
0.000247296
0.00836857
-0.000574427
3.2357e-05
-0.000579319
-2.43625e-07
0.000580911
1.85697e-06
-5.49185e-07
-0.000330572
0.000333882
-1.93984e-08
-0.000317827
2.35432e-06
0.000290921
2.80409e-05
8.61533e-06
5.64966e-05
-0.00605615
0.0104609
-0.00581541
0.0111761
-0.00496302
0.0120906
-0.00409046
0.0134072
-0.00285456
0.0147354
-0.00189928
0.0158052
-0.00118746
0.0166621
-0.000588091
0.0173811
-0.000140911
0.0179181
0.000190676
0.0180368
0.000373189
0.0172616
0.000346183
0.0152057
0.000194887
0.0119938
0.00464907
0.000167401
0.000180986
-0.00087962
0.000960175
2.2461e-05
5.05613e-06
1.1613e-06
-1.2363e-06
-8.90664e-05
8.7582e-05
-8.99801e-05
-9.02388e-05
-9.14482e-05
-0.000335868
-3.11329e-06
6.09083e-05
4.26688e-05
0.00826491
-0.000335373
-7.39763e-07
0.000335476
2.61133e-07
-4.47015e-07
-9.5507e-05
9.54874e-05
-9.31527e-05
8.45374e-05
-0.00650816
0.010467
-0.00654875
0.0111942
-0.00590555
0.0121186
-0.00545358
0.0134536
-0.00419479
0.0147474
-0.0029306
0.0157668
-0.00195736
0.0165751
-0.0011869
0.0172609
-0.000608509
0.0178486
-0.000155857
0.0182646
0.00018801
0.018222
0.000355772
0.017252
0.000343903
0.0150566
0.000212494
0.0118422
0.00466309
-2.065e-05
4.9273e-05
-0.00101247
0.0010811
2.53838e-05
7.3372e-05
7.07972e-05
5.78968e-05
-9.25629e-05
0.000115024
-8.75069e-05
-8.63456e-05
-9.45616e-05
0.000137019
-7.91738e-05
0.00820699
-9.53014e-05
9.57484e-05
-0.00696861
0.0104763
-0.0072956
0.0112139
-0.00686063
0.0121492
-0.00686746
0.0135324
-0.00555162
0.0148105
-0.00396602
0.0157827
-0.00272614
0.0165356
-0.00178667
0.0171748
-0.00109139
0.0177438
-0.000549771
0.0182425
-0.000106625
0.0185592
0.00020991
0.0183678
0.000361292
0.0172346
0.000329322
0.0149397
0.000229048
0.0117502
0.00463247
-3.00822e-05
-1.84896e-05
-0.00112224
0.00111297
-7.69234e-06
-3.70038e-06
-1.43466e-06
9.56455e-06
-0.000247094
0.000265461
7.01385e-06
-0.000197333
2.36082e-05
-0.000172921
4.63847e-05
0.00012393
-7.16066e-05
0.0081546
-0.00743627
0.0104846
-0.0080482
0.0112288
-0.00783121
0.0121844
-0.00836796
0.0136495
-0.0069411
0.0149218
-0.00500488
0.0158493
-0.00349111
0.0165476
-0.00238455
0.0171334
-0.00157545
0.0176588
-0.000959491
0.0181535
-0.000455603
0.0185914
-4.94706e-05
0.0188186
0.000234005
0.018495
0.000341787
0.0172221
0.000305451
0.0148633
0.000200151
0.0116739
0.00459787
-1.65232e-05
-2.0514e-05
-0.00110059
0.00108105
-6.07484e-06
-4.48348e-06
-3.22824e-06
-2.87247e-06
-0.00027068
0.00026511
-2.12626e-06
-0.000272763
-1.62022e-06
-0.000273426
-7.72894e-07
1.59837e-06
-6.99929e-05
7.70066e-05
-4.63847e-05
1.92569e-05
4.09234e-05
0.00809437
-0.00791142
0.010494
-0.00880141
0.0112379
-0.00882889
0.0122264
-0.0100007
0.0138171
-0.00838834
0.0150968
-0.00605559
0.0159724
-0.00425632
0.0166146
-0.00297769
0.0171407
-0.00205445
0.0176124
-0.00136952
0.0180688
-0.000821653
0.0185196
-0.000367205
0.0189091
-2.77412e-06
0.0190554
0.000228332
0.0186084
0.000305333
0.0172222
0.000261938
0.0148015
0.00011544
0.0115778
0.0046148
3.10664e-05
-7.09463e-06
-0.00106491
0.0010561
-4.17913e-06
-3.55273e-06
-1.85556e-06
-2.52336e-06
-0.000256908
0.000252579
-1.74957e-06
-0.00025999
-1.40463e-06
-0.000262396
-8.21933e-07
-1.59679e-07
-7.62117e-05
7.40852e-05
-7.7832e-05
-7.86049e-05
-8.72822e-05
0.000206373
0.00797523
-0.00839267
0.0105012
-0.00954636
0.0112388
-0.00987044
0.0122794
-0.0118204
0.014046
-0.00991317
0.0153418
-0.00712174
0.016163
-0.00502233
0.0167383
-0.003567
0.0172039
-0.00253254
0.0176187
-0.00177823
0.0180211
-0.00118924
0.0184363
-0.000705872
0.0188583
-0.000302342
0.0192086
8.04419e-06
0.0192757
0.000196656
0.0187171
0.000257778
0.0172264
0.000190207
0.0147267
4.04242e-05
0.01145
0.00457701
0.000152027
9.21159e-05
-0.0010512
0.00107925
4.35076e-06
-1.34296e-06
-1.12694e-08
-2.18298e-06
-0.000246148
0.000243334
-1.36988e-06
-0.000248594
-1.11147e-06
-0.000249959
-4.9285e-07
9.40179e-08
-7.16989e-05
6.99489e-05
-7.31035e-05
-7.39255e-05
-9.71797e-05
0.00019389
0.00787843
-0.0088728
0.0105039
-0.0102707
0.0112256
-0.0109888
0.012357
-0.0138961
0.0143551
-0.0115387
0.0156715
-0.0082102
0.0164301
-0.00579051
0.0169312
-0.0041531
0.0173243
-0.00300546
0.0176768
-0.00218062
0.0180211
-0.00155586
0.0183878
-0.0010522
0.0187826
-0.000628563
0.0191845
-0.000276205
0.0194928
-9.73942e-06
0.0194821
0.000152537
0.0188223
0.000192123
0.0172244
0.000126628
0.0146404
1.06287e-05
0.0113422
0.00455413
5.81626e-05
0.000158578
-0.00111739
0.00114061
6.90851e-05
5.97161e-05
3.87169e-05
1.52608e-05
-0.00024059
0.00024476
1.77851e-07
-0.000241226
-7.09777e-07
-0.000240982
-2.56696e-07
1.67688e-07
-6.84382e-05
6.70679e-05
-6.95499e-05
-7.00429e-05
-1.52309e-05
3.68896e-05
0.00785666
-0.00934677
0.010505
-0.0109693
0.0112023
-0.0122274
0.0124642
-0.0162957
0.0147564
-0.0132724
0.0160887
-0.00931693
0.0167783
-0.0065559
0.0171954
-0.00473161
0.0175097
-0.00347239
0.0177912
-0.00258019
0.0180763
-0.00191881
0.0183839
-0.00139497
0.0187305
-0.000960636
0.0191146
-0.000590321
0.0194986
-0.000282689
0.0197657
-4.51776e-05
0.0196798
9.70051e-05
0.0189174
0.000132041
0.017219
7.98675e-05
0.0145711
3.04482e-05
0.0112965
0.00458321
-1.64957e-05
2.42508e-05
-0.00118096
0.00121244
3.86472e-06
2.28098e-05
4.02864e-05
7.79326e-05
-0.000293894
0.000309764
5.3212e-05
-0.000274997
4.08163e-05
-0.000254008
1.77265e-05
6.0121e-06
-6.62689e-05
6.64464e-05
-6.69788e-05
-6.72356e-05
4.25606e-05
-3.73638e-05
0.00785136
-0.00980919
0.0105052
-0.011636
0.0111719
-0.0136283
0.012603
-0.0190632
0.0152317
-0.01507
0.0165541
-0.0103946
0.0171663
-0.00728831
0.0175107
-0.00528885
0.0177526
-0.00392744
0.0179647
-0.00297527
0.0181862
-0.0022796
0.0184371
-0.00173771
0.0187266
-0.00129458
0.0190645
-0.000916261
0.0194405
-0.000588372
0.0198043
-0.000307503
0.020028
-9.1759e-05
0.0198685
3.99701e-05
0.0190094
7.60058e-05
0.0172229
5.80261e-05
0.0145435
5.01938e-05
0.0112888
0.00457829
-2.30717e-05
-9.40432e-06
-0.00123188
0.00122654
-7.60774e-06
-3.55888e-06
-1.23055e-06
6.02649e-06
-0.000366812
0.000369115
1.55714e-06
-0.000353156
9.15124e-06
-0.000336512
2.36386e-05
5.11828e-05
-0.000131001
0.000149365
3.48456e-05
-9.01849e-05
-7.24585e-05
4.58672e-05
-4.64191e-05
0.00785187
-0.0102573
0.0105082
-0.0122623
0.0111312
-0.015192
0.0127355
-0.0221506
0.0156903
-0.01678
0.0169416
-0.0113189
0.0174785
-0.00790472
0.0177826
-0.0057725
0.0179943
-0.00434533
0.0181704
-0.00335504
0.0183445
-0.00263463
0.0185412
-0.00207857
0.018778
-0.0016265
0.0190585
-0.00124242
0.0193906
-0.000907052
0.0197591
-0.000608216
0.020105
-0.000349393
0.0202856
-0.000145632
0.0200541
-2.18869e-05
0.0191072
2.75966e-05
0.0172533
4.11955e-05
0.0145525
3.6358e-05
0.0112983
0.00456496
-1.85556e-05
-1.45521e-05
-0.00122058
0.00120899
-9.3186e-06
-2.18202e-06
-1.944e-06
-1.50743e-06
-0.000371211
0.000367472
-3.87541e-06
-0.000372051
-2.72192e-06
-0.000372654
-6.31698e-07
2.48478e-06
-0.000208679
0.000210651
-4.18285e-07
-0.000200921
1.39184e-06
-0.000183133
5.84802e-06
1.74136e-05
3.48455e-05
-9.14868e-07
-1.23858e-05
0.00786515
-0.0106959
0.0105064
-0.0128319
0.0110778
-0.0168251
0.0127641
-0.0253524
0.0159373
-0.0180836
0.016994
-0.0118406
0.0174632
-0.00823316
0.0178069
-0.00607539
0.0180854
-0.00465916
0.0183082
-0.00368135
0.0184966
-0.00296534
0.0186752
-0.00240964
0.0188722
-0.00195599
0.0191074
-0.00157039
0.0193864
-0.0012332
0.0197168
-0.000925962
0.0200768
-0.000644773
0.0204003
-0.000398356
0.0205383
-0.000205581
0.0202378
-8.19297e-05
0.0192167
-1.49022e-05
0.0173094
5.44641e-06
0.0145834
-1.77058e-05
0.0113151
0.00457219
-5.71938e-06
-1.39114e-05
-0.00120462
0.00119587
-9.82299e-06
-1.01852e-05
-0.000361511
0.000332871
1.93136e-05
-0.000364505
8.05005e-07
-0.000365835
-6.19295e-07
1.24649e-07
-0.000210271
0.000207697
-1.30534e-06
-0.000212221
-7.74358e-07
-0.000212575
-2.80041e-07
5.58711e-07
-5.94986e-05
5.90799e-05
-5.8107e-05
-5.22591e-05
-9.28795e-05
7.46573e-05
0.0078833
-0.011105
0.0104512
-0.0133002
0.0109743
-0.0182719
0.0125246
-0.0282701
0.0156817
-0.0184293
0.0162829
-0.0115579
0.0167112
-0.00800255
0.0172326
-0.00601452
0.0177461
-0.00475295
0.0181791
-0.003883
0.0185098
-0.00323208
0.0187633
-0.00271115
0.0189767
-0.00227326
0.0191894
-0.00189458
0.0194316
-0.00155803
0.0197112
-0.00124945
0.0200402
-0.000961971
0.020394
-0.000695171
0.0206971
-0.000458955
0.0207916
-0.000271071
0.0204269
-0.000138873
0.0193407
-6.58749e-05
0.0173807
-5.10928e-05
0.0146167
-9.96507e-05
0.0113218
0.00461778
2.93765e-05
-3.54078e-07
-0.00118618
0.00118622
-5.76294e-06
-4.22747e-06
-0.000551343
0.000542878
-7.32973e-07
-6.327e-07
-0.000229004
2.08282e-07
1.33074e-07
-0.000207724
-1.97226e-06
-0.000207057
1.32468e-07
-0.000207521
-1.58654e-07
2.96865e-07
-5.85838e-05
5.72778e-05
-5.93584e-05
-5.96386e-05
-0.000198297
0.000216972
0.00786453
-0.0114069
0.0102586
-0.0136556
0.0108068
-0.0192044
0.0119066
-0.0301318
0.0143861
-0.0169782
0.0142307
-0.00998243
0.0147074
-0.00690356
0.0156122
-0.00538195
0.0165999
-0.00447682
0.0174699
-0.00384964
0.0181457
-0.00335599
0.0186337
-0.00293113
0.0189832
-0.00254943
0.0192529
-0.00220166
0.0194964
-0.00187756
0.0197511
-0.00157406
0.0200358
-0.00128631
0.0203646
-0.00101041
0.0207092
-0.000752216
0.0209904
-0.000522623
0.0210431
-0.000335045
0.0206231
-0.000198976
0.0194737
-0.00012595
0.0174555
-0.000123774
0.0146408
-0.000177378
0.0113009
0.00464164
0.000130016
6.30393e-05
-0.00118492
0.00120697
7.31239e-06
9.31016e-07
-0.000538871
0.000534268
-5.87803e-07
-5.77445e-07
-1.47272e-07
-7.4228e-08
-5.52826e-05
5.45493e-05
-5.59155e-05
5.57825e-05
-5.55749e-05
-5.75478e-05
-5.74157e-05
-5.75747e-05
-0.000226498
0.0002581
0.00783282
-0.0115672
0.0100204
-0.01366
0.00521168
0.0050508
-0.00883104
0.00569655
0.00535471
-0.0106179
-0.0154733
0.00630388
-0.0143229
0.00526717
-0.00852063
0.0102931
-0.00436459
-0.0068028
0.011051
-0.00479875
0.0126025
-0.00406571
0.014296
-0.00371334
0.0158364
-0.00347073
0.017091
-0.00324389
0.0180335
-0.00299928
0.0187018
-0.00273594
0.0191697
-0.00246036
0.0195116
-0.00217621
0.019795
-0.00189239
0.0200695
-0.00161165
0.0203611
-0.00133615
0.0206903
-0.00106928
0.0210262
-0.000817318
0.021285
-0.000589769
0.0212978
-0.000397635
0.0208217
-0.000260405
0.0196081
-0.000191995
0.0175237
-0.000186235
0.0146496
-0.000203196
0.0112775
0.00463553
0.000113684
0.000150488
-0.00123157
0.00126315
9.84085e-05
3.84145e-05
-0.000535247
0.000543282
-1.7581e-07
-5.59914e-07
-1.36356e-07
8.37184e-08
-5.37502e-05
5.3162e-05
-5.43277e-05
5.44019e-05
-0.000157867
0.000137532
0.00785305
-0.0116074
0.00985495
-0.0132359
0.00493211
0.00466444
-0.00854666
0.00492719
-0.008267
0.00477128
-0.0158611
0.00608431
-0.0157252
0.0024623
0.00275657
-0.00996526
0.0042746
-0.00702895
0.00481226
-0.00785361
0.00219912
0.00258766
-0.00517183
-0.0030196
-0.00141318
0.001127
0.00154404
-0.00144224
0.00593277
-0.00100028
-0.00124051
0.00258642
-0.000898327
-0.00208852
0.0083407
-0.00227123
0.0108079
-0.00252437
0.013107
-0.00272004
0.0150856
-0.00282492
0.016672
-0.00283463
0.0178688
-0.00276145
0.0187273
-0.00261584
0.0193251
-0.00241551
0.0197508
-0.00218104
0.0200836
-0.00192618
0.020384
-0.00166341
0.0206883
-0.00139724
0.0210182
-0.0011356
0.0213444
-0.000883997
0.0215793
-0.000652816
0.021553
-0.000459863
0.0210212
-0.000323764
0.0197399
-0.000247873
0.0175853
-0.000212875
0.0146593
-0.000169774
0.0112894
0.00469299
1.25941e-05
6.7423e-05
-0.00128383
0.00131789
7.96106e-05
0.000129795
-0.000576817
0.000627815
3.44598e-05
1.2933e-05
6.05272e-07
4.26439e-06
-5.25489e-05
5.2372e-05
-5.31091e-05
5.30253e-05
-7.1052e-05
3.44735e-05
0.00788951
-0.011632
0.00988873
-0.0123718
0.00453659
0.0044538
-0.0080347
0.00469964
-0.00749663
0.00412655
-0.00968825
0.00233681
0.0021573
-0.0065911
0.00105584
0.00171364
-0.007629
0.00736463
-0.0078066
0.00290425
0.00226758
-0.00258766
0.00176719
-0.00290425
0.000354013
0.000783319
-0.000229852
0.000573429
0.00108684
0.00157594
-0.000431765
-2.08883e-05
0.00383434
3.07353e-05
0.000925103
-0.000349477
-0.000394657
0.00058313
-0.000652667
0.00672206
-0.00124438
0.00952788
-0.00174261
0.0121295
-0.00213155
0.0143922
-0.00240761
0.016245
-0.00256379
0.0176711
-0.00260465
0.0187161
-0.00254367
0.0194532
-0.00240281
0.0199726
-0.00220574
0.0203631
-0.00197476
0.0206953
-0.00172286
0.0210138
-0.00146154
0.0213441
-0.00120119
0.0216616
-0.000948535
0.021875
-0.000715146
0.0218082
-0.00052038
0.0212177
-0.000374245
0.0198662
-0.000277716
0.0176501
-0.000203636
0.0146931
-0.00011039
0.0113287
0.00473
-1.21308e-05
9.53544e-06
-0.00135196
0.00136018
4.35147e-06
3.33348e-05
-0.000666199
0.000719374
5.26284e-06
2.11594e-05
4.92121e-05
4.21924e-05
-7.01734e-05
0.000104632
-5.72411e-05
5.29767e-05
-1.09953e-05
-1.52003e-05
0.00791557
-0.011684
0.00999374
-0.0114934
0.00444367
0.0045668
-0.00692642
0.00396617
-0.00625132
0.00377878
-0.00929646
0.00231814
0.00198981
-0.00817399
0.00139288
0.00161105
0.00621886
-0.00593494
0.00205288
0.00178506
0.00609296
-0.00503712
-0.00675841
0.00091444
0.00012416
0.000289019
-0.000110278
0.000426178
-5.30452e-06
1.95067e-05
0.000770868
0.000133315
1.59113e-05
0.00316567
0.000682006
0.000119562
0.000156659
-5.42329e-05
-2.57521e-05
-0.000360094
0.00583772
-0.000847706
0.00863289
-0.00133599
0.0113339
-0.00178372
0.0137682
-0.00214216
0.0158233
-0.00238682
0.0174532
-0.00250428
0.0186767
-0.00250501
0.0195554
-0.00241077
0.0201776
-0.00224411
0.0206324
-0.00202859
0.021001
-0.00178722
0.0213395
-0.00152972
0.0216727
-0.00126739
0.0219804
-0.00101023
0.02217
-0.000772675
0.0220605
-0.000568436
0.0214119
-0.000408029
0.0199965
-0.000284769
0.0177312
-0.00017232
0.014755
-5.89981e-05
0.0113766
0.00473557
-1.52435e-05
-5.59466e-06
-0.00136834
0.00136362
-7.43279e-06
1.35925e-06
-0.000747948
0.00075474
-2.33262e-06
-1.25125e-07
4.80017e-06
-4.6721e-08
-0.000169405
0.000173801
8.61834e-07
-0.000152968
4.71875e-06
0.000125407
2.84352e-05
1.46287e-05
1.96182e-05
-3.56012e-05
0.00793145
-0.011712
0.0100063
-0.0106216
0.00912172
-0.00559242
0.00378468
-0.00487587
0.00385037
-0.00681056
0.00131798
0.00128491
-0.00549317
0.00121581
0.00124561
-0.00584053
0.00222372
-0.00551355
0.0016628
0.00491209
-0.00427305
0.000753847
0.00100958
-0.00631015
0.00160464
-0.00412268
1.38816e-05
8.57709e-06
2.8082e-05
0.000221318
2.41476e-05
4.44909e-05
-0.000313319
2.76355e-05
0.00095155
3.19712e-05
-4.84435e-05
0.00285393
2.63092e-06
2.49109e-05
-8.4527e-06
-2.45995e-05
-2.11874e-05
-6.13273e-06
-0.000294591
0.00528454
-0.000672565
0.0079694
-0.00112461
0.0106748
-0.0015791
0.0132051
-0.00197599
0.0154125
-0.00226893
0.0172178
-0.00243925
0.018611
-0.00248785
0.0196324
-0.0024293
0.0203628
-0.00228917
0.020893
-0.00208982
0.0213036
-0.00185207
0.0216618
-0.00159569
0.0220009
-0.00132949
0.0222996
-0.00106621
0.0224635
-0.000821802
0.0223138
-0.000606441
0.0216103
-0.000427558
0.0201393
-0.00027368
0.0178325
-0.000136491
0.0148324
-2.83107e-05
0.0114245
0.00472626
-1.52592e-05
-1.10717e-05
-0.00136147
0.0013548
-8.59788e-06
-3.4717e-06
-0.000756707
0.000752661
-2.17252e-06
-1.23193e-06
3.27873e-07
-9.43822e-07
-0.000177857
0.000176338
-8.18434e-07
-0.000177792
-1.95657e-07
0.00017781
7.88122e-07
-3.12268e-08
-4.77822e-05
4.86434e-05
-4.30638e-05
2.8435e-05
2.72216e-05
-4.04583e-05
0.00794464
-0.0117485
0.0100283
-0.00983776
0.00922256
0.00293155
-0.00502169
0.00303739
0.00329837
-0.00403884
0.00115889
0.00117154
0.00145349
0.00128959
-0.00365182
0.000696758
-0.00303363
0.000666698
0.00241976
-0.00180164
0.000597717
0.000631741
-0.00660447
0.00251804
-0.0049417
0.00393212
-0.00317827
-0.00251804
-1.1434e-05
1.09765e-05
2.29054e-05
1.0144e-05
7.03352e-05
-3.76612e-05
-1.08785e-05
2.55528e-06
3.26389e-06
1.513e-05
0.000904403
-1.64838e-05
9.6278e-05
2.15737e-06
3.84728e-06
-6.81146e-05
0.00262738
-3.83922e-05
3.35441e-06
9.41695e-06
6.13273e-06
-2.73207e-05
-0.000264219
0.00487613
-0.000596693
0.00744138
-0.00101675
0.0101124
-0.00146287
0.0126919
-0.00186965
0.0150132
-0.00219136
0.0169698
-0.00239786
0.0185209
-0.00248182
0.0196848
-0.00245473
0.0205283
-0.00233379
0.0211369
-0.00214646
0.0215979
-0.00191518
0.0219812
-0.00165461
0.022326
-0.00138453
0.0226179
-0.00111644
0.0227581
-0.000860707
0.022568
-0.000631484
0.0218142
-0.00042979
0.0202953
-0.000254439
0.0179504
-0.000110995
0.0149151
-1.90038e-05
0.0114707
0.00471402
-1.40375e-05
-1.41928e-05
-0.00134855
0.00134221
-8.93874e-06
-4.84113e-06
-0.000749838
0.000744316
-1.84835e-06
-1.24907e-06
-7.45429e-09
-6.51603e-07
-0.000174793
0.000173388
-7.72454e-07
-0.000175748
-2.81999e-07
0.000176492
1.69915e-07
-2.02649e-07
-4.92038e-05
4.83844e-05
-4.93999e-05
4.94311e-05
1.27582e-05
-3.08751e-05
0.00796265
-0.0118088
0.0100615
-0.00924131
0.0094316
-0.00357438
0.00777541
0.00336738
-0.000463806
-0.00152031
0.000892838
0.000761505
0.00409757
0.00256818
-0.00120384
0.000561125
-0.000587576
0.000555297
4.95608e-05
0.000940149
0.000751575
-0.0024815
-0.00181482
0.00118307
-0.000585341
-1.63447e-05
-6.20146e-06
-4.85815e-06
-2.6713e-06
-1.76405e-06
4.31864e-06
1.49917e-06
0.000106028
5.0435e-06
3.18619e-07
4.18478e-06
0.000855237
-2.31866e-05
0.000103308
-5.2413e-06
-8.53976e-06
3.65546e-06
8.07394e-06
-5.77725e-07
-7.72997e-05
0.00244037
-1.64715e-06
-0.000265649
0.00454501
-0.000572908
0.00699746
-0.000967137
0.00961661
-0.00139298
0.0122152
-0.00180038
0.0146222
-0.00213767
0.0167096
-0.00237023
0.0184093
-0.00248418
0.0197142
-0.00248038
0.0206749
-0.00237893
0.0213693
-0.00220153
0.0218843
-0.00197041
0.022297
-0.00170975
0.0226512
-0.00143244
0.0229339
-0.00115369
0.0230511
-0.00088917
0.0228257
-0.00064242
0.0220268
-0.000423226
0.0204641
-0.000238256
0.0180777
-0.00010284
0.0149989
-3.20279e-05
0.0115154
0.00470918
-1.0471e-05
-1.56182e-05
-0.00133375
0.00132869
-8.98308e-06
-5.73124e-06
-0.000740218
0.000734339
-1.75188e-06
-1.3201e-06
-1.63035e-07
-5.88517e-07
-0.000171671
0.000170503
-6.87188e-07
-0.000172686
-2.40004e-07
0.0001732
1.74725e-07
-1.41874e-07
-4.80688e-05
4.72953e-05
-4.83513e-05
4.85539e-05
-2.49903e-05
8.04025e-07
0.00798674
-0.0118993
0.0100984
-0.0088222
0.00964255
-0.00299935
0.00885628
-0.00336479
0.00814044
0.00317842
0.00391923
-0.00128274
0.000702637
-0.00146415
0.00235699
-0.000702637
0.000907802
0.000652584
-2.41701e-05
0.000531168
1.64715e-06
1.18122e-05
1.29891e-06
1.26196e-05
-4.92875e-07
0.000102167
5.3264e-06
-1.65221e-08
-1.9409e-06
0.000805521
-2.57036e-05
0.000102958
-2.40005e-05
1.02751e-05
-2.90201e-06
7.75644e-06
-6.02797e-06
-5.77941e-07
-0.000104576
0.00227918
-0.000287433
0.00425948
-0.000575587
0.00660586
-0.000940814
0.00916442
-0.0013517
0.0117664
-0.00175451
0.014239
-0.00209983
0.0164391
-0.00235029
0.0182754
-0.00248612
0.0197199
-0.0025047
0.0208006
-0.00241784
0.0215856
-0.00224887
0.0221627
-0.00202097
0.0226082
-0.00175595
0.0229747
-0.00147271
0.0232528
-0.0011849
0.0233468
-0.000905085
0.0230883
-0.000645343
0.0222489
-0.000414099
0.0206399
-0.000229845
0.0182046
-0.000109839
0.0150767
-6.32733e-05
0.0115536
0.00472334
1.84048e-07
-1.36057e-05
-0.00131914
0.00131689
-8.24489e-06
-6.07914e-06
-0.000729554
0.000723676
-1.69671e-06
-1.41134e-06
-3.29515e-07
-6.14557e-07
-0.000168654
0.00016756
-6.60823e-07
-0.000169734
-2.44438e-07
0.000170186
1.50266e-07
-1.40591e-07
-4.7087e-05
4.63986e-05
-4.73276e-05
4.74695e-05
-8.85148e-05
7.04574e-05
0.00800466
-0.0120171
0.010131
-0.00855507
0.00983109
-0.00284373
0.00948704
0.00725828
0.00973848
0.00185077
-0.000538112
0.00226571
-0.00039998
0.00221503
0.00355493
-0.00038741
0.00075709
0.000265173
7.20793e-07
2.27665e-07
8.45695e-06
4.62095e-06
8.02783e-06
4.0716e-07
9.89441e-05
2.04976e-06
-1.43335e-05
0.000750618
-3.54068e-05
9.44926e-05
-2.1279e-05
7.76908e-07
-1.17382e-05
-3.20017e-06
-1.82455e-06
-2.67482e-06
-8.70332e-06
-0.000141016
0.00213267
-0.000318087
0.00400193
-0.00058319
0.00624817
-0.000932204
0.00874489
-0.00132538
0.0113372
-0.00171978
0.0138589
-0.00206898
0.0161577
-0.00233308
0.0181224
-0.00248585
0.019701
-0.00252137
0.0209041
-0.00245041
0.0217871
-0.00228804
0.0224298
-0.00206173
0.0229139
-0.0017924
0.0232944
-0.00150095
0.0235689
-0.00120405
0.0236457
-0.0009128
0.0233558
-0.000640741
0.0224755
-0.000406615
0.0208167
-0.00023019
0.0183249
-0.000128401
0.0151418
-0.000107223
0.0115723
0.00475828
3.44903e-05
9.62495e-07
-0.00130839
0.00131323
-4.68782e-06
-5.1231e-06
-0.000718701
0.000713536
-1.60175e-06
-1.497e-06
-4.8821e-07
-6.24938e-07
-0.00016551
0.000164461
-6.4885e-07
-0.000166663
-2.57804e-07
0.000167118
1.13414e-07
-1.58184e-07
-4.61628e-05
4.55016e-05
-4.64078e-05
4.65483e-05
-0.000151824
0.000172572
0.00798384
-0.0121629
0.0101617
-0.00840833
0.00998445
-0.0028863
0.00987342
0.00588909
0.0108565
-0.0016071
0.00476497
0.00879558
0.0010321
0.001658
-0.000179734
-0.000244696
-0.000140572
0.000497671
0.00297992
0.000124601
-2.40782e-06
-1.67766e-06
-1.22718e-06
-6.9264e-06
-2.15085e-06
-6.24351e-07
8.79377e-05
-7.80449e-06
-2.4857e-05
0.00069784
-6.34374e-05
7.95552e-05
-2.70596e-05
-1.60559e-05
-6.65667e-06
-5.50991e-06
4.72977e-06
-7.93072e-06
2.90499e-06
-0.00017778
0.0019923
-0.000338427
0.00375712
-0.000597796
0.00591368
-0.000929298
0.00834877
-0.0013077
0.0109251
-0.0016935
0.0134834
-0.00204214
0.0158667
-0.00231503
0.0179515
-0.00248234
0.019662
-0.00253289
0.0209866
-0.00247188
0.0219709
-0.00231659
0.0226846
-0.00209147
0.023213
-0.00182011
0.0236135
-0.00152099
0.0238858
-0.00121234
0.0239452
-0.000910273
0.0236253
-0.000631855
0.0227007
-0.000399047
0.0209855
-0.000233707
0.0184302
-0.000148494
0.0151831
-0.000135574
0.011556
0.00476178
0.000111061
5.79535e-05
-0.00131221
0.00133381
1.28558e-05
1.95619e-06
-0.000709604
0.000707762
-1.27787e-06
-1.58824e-06
-6.58264e-07
-5.40703e-07
-0.000162212
0.000161241
-6.37225e-07
-0.000163441
-2.73361e-07
0.000163891
7.84486e-08
-1.78502e-07
-4.51993e-05
4.45501e-05
-4.54569e-05
4.56151e-05
-0.00014705
0.000191043
0.00793972
-0.0123294
0.0101846
-0.00835214
0.0101054
-0.00303284
0.0101311
0.00449517
0.0112674
0.0047304
0.010891
-0.000937907
0.00282703
0.00750561
-0.00059948
0.000461903
-5.38818e-05
0.00126613
-1.62735e-05
-0.000377572
0.000197836
-0.000124601
0.00250391
-1.67781e-06
-1.00822e-05
-7.81883e-06
-2.89125e-06
-2.0214e-05
-6.58222e-07
-3.00374e-06
6.79711e-05
-1.32962e-05
-0.000118656
0.00063865
4.04501e-05
-3.59495e-05
-2.89044e-05
-9.59699e-06
-8.78626e-06
1.08308e-05
-1.50926e-05
-2.40108e-06
-2.50267e-06
-0.000192473
0.00184627
-0.00036427
0.00352353
-0.000610458
0.00559476
-0.000929266
0.0079703
-0.00129354
0.010525
-0.00166838
0.0131096
-0.0020159
0.0155676
-0.00229182
0.017761
-0.00247015
0.0195992
-0.00253361
0.0210483
-0.00248357
0.0221379
-0.00233633
0.0229294
-0.00211242
0.0235052
-0.00183621
0.0239287
-0.00152979
0.0242032
-0.0012113
0.0242462
-0.000900726
0.0238941
-0.000619332
0.0229209
-0.000390777
0.0211426
-0.000233048
0.0185147
-0.000149734
0.0151972
-0.000113011
0.0115219
0.00473395
9.4615e-05
0.000124197
-0.00134872
0.00136983
8.99272e-05
4.30266e-05
-0.000710273
0.000723099
1.18771e-06
-1.18394e-06
-7.27595e-07
1.56604e-07
-0.000158879
0.000158196
-6.02802e-07
-0.000160185
-2.86446e-07
0.000160538
4.10515e-08
-1.90155e-07
-4.41756e-05
4.35373e-05
-4.44495e-05
4.4628e-05
-5.62364e-05
7.62403e-05
0.00791968
-0.0125131
0.0102017
-0.00835684
0.0101895
-0.00323344
0.0103058
0.00324152
0.011385
0.00418297
0.0118148
0.00338998
0.0103278
0.00161422
0.00640965
-0.000228669
-0.00028973
-0.000242398
0.00214677
0.000143953
0.001044
-8.62191e-06
-1.16756e-05
0.000127679
-2.89144e-06
-1.60262e-05
2.70726e-07
-1.68562e-05
-2.17982e-06
-3.17245e-05
-4.27574e-06
-6.21627e-06
3.68502e-05
-1.29175e-05
-7.64703e-05
-2.57184e-05
-0.000111199
0.000557312
-3.08479e-05
1.94966e-05
-2.2564e-05
-6.53756e-06
-6.15311e-06
5.39411e-06
-7.79571e-06
-0.000217892
0.0016998
-0.00038153
0.00329453
-0.000623446
0.00528886
-0.000928076
0.0076048
-0.00127839
0.010135
-0.00164409
0.0127378
-0.00198518
0.0152609
-0.00226509
0.0175559
-0.00245178
0.0195173
-0.00252625
0.0210909
-0.00248673
0.0222882
-0.00234441
0.0231614
-0.00212067
0.0237897
-0.00184057
0.0242395
-0.00152645
0.0245184
-0.00120044
0.0245459
-0.000884846
0.0241597
-0.000601443
0.0231316
-0.000372913
0.0212824
-0.000213225
0.0185782
-0.000112651
0.0151968
-3.28401e-05
0.0114984
0.00474536
6.61012e-06
5.81874e-05
-0.00138029
0.001398
7.6866e-05
0.000113714
-0.000751071
0.000780243
3.94919e-05
2.12439e-05
3.19406e-06
1.18528e-05
-0.000156739
0.000158171
-2.53775e-07
-0.000157716
-2.144e-07
0.000157437
2.38265e-08
-1.28072e-07
-4.31008e-05
4.24965e-05
-4.33877e-05
4.35779e-05
6.07501e-05
-4.05442e-05
0.00789936
-0.0127055
0.0102106
-0.00839451
0.0102393
-0.00345448
0.0104106
0.00216945
0.0113779
0.00345855
0.0121093
0.00334423
0.0118603
0.0024215
0.00952039
0.00115523
0.00583256
-0.00030409