/*--------------------------------*- C++ -*----------------------------------*\
| =========                 |                                                 |
| \\      /  F ield         | OpenFOAM: The Open Source CFD Toolbox           |
|  \\    /   O peration     | Version:  v1912                                 |
|   \\  /    A nd           | Website:  www.openfoam.com                      |
|    \\/     M anipulation  |                                                 |
\*---------------------------------------------------------------------------*/
FoamFile
{
    version     2.0;
    format      ascii;
    class       surfaceScalarField;
    location    "170";
    object      phi;
}
// * * * * * * * * * * * * * * * * * * * * * * * * * * * * * * * * * * * * * //

dimensions      [0 3 -1 0 0 0 0];
oriented        oriented;


internalField   nonuniform List<scalar> 
7196
(
0.00510654
0.00490046
0.00623041
0.00888414
0.00245931
0.00244115
0.00618678
0.0100506
0.00447168
0.00687176
0.000926301
0.00151485
0.00596278
0.010233
0.0052254
0.00929691
0.00258578
0.00521228
0.000294583
0.00122027
0.00577482
0.010197
0.00527313
0.0101853
0.00374041
0.00814228
0.00128743
0.00421944
7.81439e-05
0.00114212
0.00563036
0.0101555
0.00511162
0.0103585
0.0041963
0.00972938
0.00233142
0.00709828
0.000565451
0.00373213
6.79157e-07
0.00114145
0.00550578
0.0101356
0.00494455
0.0103225
0.00423518
0.0103196
0.00296869
0.00909211
0.00128482
0.00637891
0.000194808
0.00353801
-2.90772e-05
0.00117052
0.00539043
0.0101274
0.00481212
0.010268
0.004128
0.0104297
0.00319229
0.010096
0.00186992
0.00850701
0.000601372
0.00597235
1.34121e-05
0.00349552
-3.83177e-05
0.00120884
0.00528217
0.0101203
0.00471109
0.0102284
0.00400665
0.0103894
0.00318184
0.0104402
0.00216085
0.00980506
0.00101846
0.00808993
0.000193406
0.00579236
-6.76025e-05
0.0035248
-3.64239e-05
0.00124527
0.00517808
0.0101141
0.00463107
0.0102003
0.00390866
0.0103264
0.0030883
0.0104829
0.00220774
0.0103933
0.00126721
0.00955631
0.00043051
0.00785282
-2.30891e-05
0.00574784
-9.23891e-05
0.00358077
-2.99006e-05
0.00127517
0.0050807
0.0101054
0.00457188
0.0101733
0.00384093
0.010268
0.00298696
0.0104277
0.00212704
0.0105636
0.00131487
0.0103456
0.000586505
0.00940031
7.40558e-05
0.00775568
-0.000118801
0.00577425
-9.08368e-05
0.0036417
-2.33632e-05
0.00129853
0.00499119
0.0100935
0.00453527
0.010142
0.00380509
0.0102091
0.00290772
0.0103472
0.00200301
0.0105517
0.00121934
0.0106591
0.000593531
0.0103386
0.000136398
0.00933797
-0.000109059
0.00774594
-0.000146825
0.00583024
-7.86846e-05
0.00369703
-1.7164e-05
0.00131569
0.00490817
0.010082
0.00452064
0.0101081
0.00380318
0.0101439
0.00286136
0.0102555
0.00187803
0.0104722
0.00104719
0.0107239
0.000460547
0.0107921
9.31168e-05
0.0103819
-0.000113915
0.00934283
-0.000185171
0.00778428
-0.000144352
0.00589591
-6.39833e-05
0.00374384
-1.14929e-05
0.00132719
0.00483147
0.0100697
0.00453042
0.0100722
0.00384381
0.0100675
0.00285972
0.0101455
0.00177261
0.0103609
0.000840386
0.010679
0.000229152
0.0109553
-6.89874e-05
0.0109542
-0.000187851
0.0104558
-0.000229895
0.00938755
-0.000205527
0.00784546
-0.00012794
0.00595987
-4.90628e-05
0.00378141
-7.21182e-06
0.0013344
0.0047591
0.0100574
0.00456414
0.010036
0.00393133
0.00998472
0.00291465
0.0100126
0.0017048
0.0102133
0.000623477
0.0105778
-7.14491e-05
0.0109796
-0.000335307
0.0112216
-0.000356852
0.0111232
-0.000322486
0.0105484
-0.0002742
0.00945623
-0.000198241
0.00791576
-0.000107269
0.00601807
-3.54958e-05
0.0038097
-3.57567e-06
0.00133798
0.00468817
0.0100499
0.00461662
0.0100049
0.00407154
0.00989577
0.00304605
0.00985331
0.00169955
0.0100178
0.000414125
0.0104227
-0.000428591
0.010935
-0.000689434
0.0113337
-0.000613271
0.011478
-0.000484258
0.011285
-0.000379037
0.0106532
-0.000280678
0.00953866
-0.000178261
0.00798675
-8.49305e-05
0.00606751
-2.45338e-05
0.00383066
-1.39064e-06
0.00133937
0.00461517
0.010046
0.00468335
0.0099832
0.00426249
0.00981395
0.00326918
0.00967264
0.00178827
0.0097646
0.000232006
0.0102
-0.000844151
0.0108382
-0.00113166
0.0113772
-0.000944952
0.0116654
-0.000716296
0.0117101
-0.000537922
0.0114439
-0.000391667
0.0107642
-0.000264377
0.00962478
-0.000152686
0.0080545
-6.63e-05
0.00610927
-1.57378e-05
0.003845
5.92725e-07
0.00133877
0.00453634
0.0100498
0.00475068
0.00997867
0.00449541
0.00975028
0.00360104
0.00948209
0.00201483
0.00944607
0.000114833
0.00988177
-0.00132327
0.0106791
-0.00167651
0.0113831
-0.00134828
0.0117805
-0.00100404
0.0119532
-0.000749032
0.0119212
-0.000546288
0.0115985
-0.000378425
0.0108783
-0.000239144
0.00971124
-0.000127784
0.00811599
-4.97379e-05
0.00614328
-8.96426e-06
0.00385456
1.76792e-06
0.00133701
0.0044473
0.010061
0.00480673
0.00999379
0.00475208
0.009722
0.00404251
0.00930881
0.00243562
0.0090613
0.00012692
0.00943398
-0.00187365
0.0104322
-0.00235715
0.0113597
-0.00182353
0.0118583
-0.00133555
0.012112
-0.00100477
0.0122089
-0.00074568
0.0121206
-0.000528835
0.0117489
-0.000351025
0.0109902
-0.000211291
0.00979475
-0.000105803
0.00817205
-3.69997e-05
0.00617131
-4.55116e-06
0.00386088
2.41766e-06
0.00133459
0.00434468
0.0100786
0.0048373
0.0100305
0.00500151
0.00974436
0.00456748
0.00919703
0.00310642
0.00863801
0.000389427
0.0087988
-0.00248476
0.0100451
-0.00321082
0.0112858
-0.00237423
0.0119104
-0.00170471
0.0122275
-0.00128807
0.0123953
-0.00097574
0.012439
-0.000716085
0.0123078
-0.000497347
0.0118952
-0.000322164
0.011101
-0.000185401
0.00987434
-8.74873e-05
0.00822254
-2.70095e-05
0.00619377
-5.55194e-07
0.00386385
3.16494e-06
0.00133142
0.00422661
0.0101011
0.00482765
0.0100883
0.005213
0.00981897
0.00512167
0.00919018
0.0040198
0.00828365
0.00114964
0.0078778
-0.003058
0.00937203
-0.00424114
0.0110754
-0.00296848
0.0118801
-0.00208123
0.0122869
-0.00157556
0.012515
-0.00122085
0.0126404
-0.000928654
0.0126515
-0.00067592
0.0124864
-0.000463364
0.0120364
-0.000291462
0.0112071
-0.00016115
0.00994801
-7.13227e-05
0.00826685
-1.87607e-05
0.00621197
1.90971e-06
0.00386511
3.43568e-06
0.00132799
0.00409477
0.0101228
0.00477083
0.0101579
0.00535278
0.0099485
0.00563484
0.0093058
0.0050702
0.00813977
0.00270821
0.00672508
-0.00318475
0.00800455
-0.00530626
0.0104372
-0.00343119
0.0115381
-0.00237016
0.012169
-0.00181355
0.0125249
-0.00144493
0.0127391
-0.00114483
0.0128566
-0.000877034
0.0128526
-0.000634503
0.0126575
-0.000427619
0.0121726
-0.000261917
0.0113079
-0.000140608
0.0100173
-5.81616e-05
0.00830626
-1.3018e-05
0.0062269
3.1972e-06
0.00386535
3.55866e-06
0.00132443
0.00394998
0.0101418
0.00466698
0.0102267
0.00539616
0.0101145
0.00602569
0.00955765
0.00613744
0.00823856
0.00463488
0.00317738
0.00303572
-0.000203842
0.00287931
-0.00140841
0.00227327
-0.00324205
0.00448837
-0.00235579
0.00380775
-0.00189487
0.0102912
-0.00139033
-0.00233458
0.0115025
-0.00187369
0.0122291
-0.00157563
0.0126556
-0.00132297
0.0129172
-0.00107285
0.0130524
-0.000823324
0.0130415
-0.000591028
0.0128209
-0.000393399
0.0123041
-0.000236922
0.0114042
-0.000123198
0.0100823
-4.86877e-05
0.00834193
-8.77826e-06
0.00623888
4.57277e-06
0.00386433
3.32221e-06
0.00132111
0.00379657
0.0101554
0.00452397
0.0102848
0.00534325
0.0102796
0.00622957
0.00991062
0.00701053
0.00868456
0.00682761
0.00299369
0.00305214
0.000605292
0.00236824
0.0015565
0.00208451
-0.00321359
0.00285085
-0.000691393
0.000871799
0.000779432
-0.00127175
-0.00113037
0.000569768
0.000892033
-0.00175308
0.00434659
-0.0009913
0.00127692
0.000886229
-0.000676785
-0.000646047
0.00322587
-0.000525154
-0.000919645
0.00956276
-0.000686541
-0.000995717
0.00395198
-0.00155259
0.0111814
-0.00148447
0.012138
-0.00138613
0.0127188
-0.00122395
0.0130683
-0.00100456
0.0132337
-0.000766362
0.0132168
-0.000546311
0.0129739
-0.000359822
0.012427
-0.000214937
0.0114959
-0.000108243
0.0101419
-4.11272e-05
0.00837427
-6.46165e-06
0.00624991
4.58744e-06
0.00386307
3.3666e-06
0.00131774
0.00363781
0.0101638
0.00435003
0.0103293
0.00520772
0.0104203
0.00624381
0.0102654
0.00748517
0.00943598
0.00867738
0.00327543
0.00355937
0.00262811
0.00192208
0.00358433
0.00105865
0.00103727
0.000461331
0.000397996
0.000533791
-0.00109002
0.000690071
-0.000858605
0.000548015
-0.000934878
0.000494579
0.00106435
-0.000494579
0.00096508
-0.000491182
0.00112205
0.000683342
-0.000288295
0.000288295
-0.000171687
0.00266689
-0.000265049
-0.000323101
0.000919999
0.00356388
-0.000531551
-0.000427683
0.00876774
-0.000329877
0.00322824
-0.000350902
-0.00105858
0.0107556
-0.00122839
0.0119802
-0.00125392
0.0127487
-0.00113496
0.0131987
-0.000929571
0.0133969
-0.000707012
0.0133775
-0.000502335
0.0131164
-0.000329131
0.0125412
-0.000194463
0.0115821
-9.7183e-05
0.0101979
-3.61304e-05
0.00840394
-4.52927e-06
0.00625903
4.727e-06
0.00386171
2.93425e-06
0.00131481
0.00347566
0.0101692
0.00415377
0.01036
0.00501143
0.0105256
0.00610955
0.0105546
0.00757749
0.010173
0.00958719
0.00407945
0.00444671
0.00465776
0.002202
0.00546573
0.00275139
0.00105229
0.000269948
0.000251695
0.000809482
-0.00143701
0.00177599
0.000719667
0.000652549
0.000711678
-0.000313682
0.000386864
-0.000386864
0.000360241
-0.000771127
0.000653275
-5.38356e-05
0.00227406
-8.12562e-05
-5.74662e-05
-0.000116177
0.00301419
-0.000213628
-0.00021537
0.00810989
-0.000185363
0.00284056
-0.00015625
0.00200461
-3.79794e-05
-4.34673e-05
-0.000809691
0.0103369
-0.00108933
0.0118157
-0.00115938
0.0127732
-0.00103779
0.0133069
-0.00084915
0.013539
-0.000648165
0.0135233
-0.000460948
0.0132482
-0.000303598
0.0126503
-0.000179067
0.011664
-8.97005e-05
0.0102515
-3.21543e-05
0.00843157
-4.11732e-06
0.00626787
4.42898e-06
0.00386021
2.80156e-06
0.001312
0.00331063
0.010173
0.00394095
0.010382
0.0047715
0.0105999
0.00586941
0.0107658
0.00739239
0.0107397
0.00970743
0.0100528
0.00607332
0.00347187
0.00649
0.00403003
0.00496184
-0.00162756
0.000303673
0.000340036
0.00629853
0.000881201
0.000533503
-4.37344e-05
0.000207961
0.00119267
0.000269363
0.000284774
0.000244065
0.000591428
-1.94092e-05
0.000190229
0.000547098
-1.31363e-05
0.001841
-2.68322e-05
-2.31864e-05
0.00272433
-9.91414e-05
-0.00013814
0.00758314
-0.000144797
0.0026192
-8.0226e-05
0.00172212
-1.80455e-05
-1.93288e-05
-0.000512547
0.000484023
-9.4559e-06
-8.91589e-06
-0.000723626
0.00997115
-0.00102893
0.0116852
-0.00104498
0.0127804
-0.000930658
0.0133885
-0.000766349
0.0136572
-0.000591247
0.0136536
-0.000426191
0.0133708
-0.000282682
0.0127539
-0.000167285
0.0117416
-8.35072e-05
0.0103029
-3.04822e-05
0.00845793
-4.02838e-06
0.00627633
3.79321e-06
0.00385922
2.25971e-06
0.00130974
0.00314292
0.0101757
0.00371811
0.0103959
0.00450222
0.0106513
0.00555772
0.0109116
0.00703865
0.0111195
0.00928998
0.0111572
-0.007597
0.0140912
0.0047014
0.0053472
0.00710776
0.00126924
0.00139339
0.00189771
0.00164309
0.00106577
-0.000762098
0.00140581
-0.00193931
0.00282051
0.000477324
0.00017082
0.000157683
0.000462884
-5.69264e-06
0.000444971
-5.2737e-06
0.00164526
-1.1721e-05
-1.05564e-05
0.00254106
-6.00046e-05
-0.000121675
0.00713922
-0.000158031
0.00245592
-5.96575e-05
0.00158277
-8.78847e-06
-8.95571e-06
-0.00042979
0.000416284
-4.53944e-06
-4.14767e-06
-0.000148768
0.000139312
-0.00074932
0.00969153
-0.000933788
0.011574
-0.00091467
0.0127644
-0.000819001
0.0134411
-0.000686248
0.0137522
-0.00054054
0.013768
-0.000396482
0.0134846
-0.000266244
0.0128529
-0.000158456
0.0118165
-7.95249e-05
0.0103519
-2.89935e-05
0.0084829
-4.2313e-06
0.00628436
3.01552e-06
0.00385847
2.09225e-06
0.00130765
0.00297538
0.0101755
0.0034895
0.0104043
0.00421263
0.0106855
0.00520207
0.0110069
0.00659182
0.0113585
0.0086357
0.0117738
0.0128792
0.0123692
0.00879674
-0.00418307
-0.00338142
0.00196198
0.00150717
0.00885363
0.00529031
0.00301069
0.00107906
0.00345845
0.000945637
-0.00392456
0.0016392
0.00117698
0.000133619
0.000128345
0.000407047
-2.48368e-06
0.000398768
-2.27805e-06
0.00153533
-6.1179e-06
-6.44045e-06
0.00238881
-5.4566e-05
-0.000162808
0.00679542
-0.000242714
0.00229769
-6.69098e-05
0.00148799
-6.52963e-06
-5.79094e-06
-0.00039166
0.000384913
-2.0422e-06
-1.8471e-06
-0.000124198
0.000119658
-0.000747277
0.00950502
-0.00078602
0.0114454
-0.000770333
0.0127157
-0.000713982
0.0134688
-0.000619162
0.0138308
-0.000501438
0.0138729
-0.000375161
0.0135935
-0.000254745
0.0129492
-0.000152752
0.0118898
-7.62009e-05
0.0103991
-2.82864e-05
0.00850695
-4.69959e-06
0.00629207
2.44001e-06
0.00385812
1.74882e-06
0.0013059
0.00280763
0.0101767
0.00325625
0.0104088
0.00391212
0.0107048
0.00482209
0.0110654
0.00609352
0.0115052
0.00792108
0.0120731
0.011272
0.0133809
-0.0068384
0.0160075
0.00547334
0.00658039
-0.00320167
0.00145946
-0.00296663
0.00313483
0.00179378
-0.00145946
-0.00179378
0.0018282
0.00155232
0.00107906
0.00202469
0.000117175
0.000114896
0.000380155
-1.35964e-06
0.000374854
-1.13882e-06
0.00144392
-4.64161e-06
-5.84987e-06
0.00221901
-8.41263e-05
-0.000292167
0.00661883
-0.000278523
0.00211377
-0.00013748
0.00138895
-7.25884e-06
-4.68455e-06
-0.000370312
0.000365256
-1.47338e-06
-1.2494e-06
-0.000113049
0.000111007
-0.000576977
0.00929598
-0.000614295
0.0112893
-0.000643508
0.0126452
-0.00062862
0.0134783
-0.000568772
0.0138982
-0.000473687
0.0139715
-0.000359489
0.0136982
-0.000244849
0.0130413
-0.000146292
0.0119599
-7.26329e-05
0.0104435
-2.75377e-05
0.00852979
-5.7034e-06
0.00630021
1.56219e-06
0.0038583
1.60585e-06
0.0013043
0.00264012
0.0101765
0.00302264
0.0104104
0.00360468
0.0107162
0.00442683
0.0111001
0.0055713
0.0115877
0.00719475
0.0122315
0.00976333
0.0135818
0.0143749
0.0150135
0.00504596
-0.00201719
-0.00136332
0.00198025
0.00182764
0.00589842
0.00572794
-0.00155232
0.00136332
0.000109648
0.000108509
0.000361674
-1.0603e-06
0.000356867
-1.04228e-06
0.00132014
-4.89468e-06
-1.04198e-05
0.00204072
-0.000219112
-0.000212407
0.00637259
-0.000118323
0.00198422
-0.000222028
0.0012194
-2.64713e-05
-1.02678e-05
-0.000353168
0.000347282
-1.37274e-06
-9.85757e-07
-0.000107259
0.000105786
-0.000380113
0.0090618
-0.000478773
0.0111246
-0.000547697
0.0125643
-0.000567538
0.0134771
-0.000535101
0.0139596
-0.000456424
0.0140684
-0.000349862
0.0138032
-0.000237659
0.0131326
-0.000141329
0.0120286
-7.11447e-05
0.0104871
-2.77556e-05
0.00855184
-5.84114e-06
0.00630762
1.01073e-06
0.0038589
1.11981e-06
0.00130318
0.00247216
0.010177
0.00278823
0.0104109
0.0032955
0.0107195
0.00402821
0.0111148
0.00504579
0.0116256
0.00647192
0.0123105
0.00849002
0.0135048
0.0121581
0.0157986
-0.0041355
0.0118618
0.0131856
-0.00108108
0.00147784
0.00158348
0.000746563
-0.000984284
0.00405457
0.000104726
0.000103683
0.000343544
-1.15702e-06
0.000334731
-1.60649e-06
0.00112359
-4.07383e-05
-8.25707e-05
0.00189571
-0.000123894
-8.2361e-05
0.00611953
-4.46895e-05
0.0018324
-5.50138e-05
0.00104678
-6.53737e-05
-7.98371e-05
-0.000326763
0.000305501
-5.20923e-06
-2.30032e-06
-0.000102698
0.000101325
-0.000264209
0.00884723
-0.000389276
0.0109662
-0.000485783
0.0124825
-0.000532354
0.0134743
-0.000517747
0.0140209
-0.000444645
0.0141632
-0.00033793
0.0139035
-0.000228276
0.0132196
-0.000135216
0.0120926
-6.85623e-05
0.0105279
-2.69077e-05
0.00857291
-6.96425e-06
0.00631559
1.73005e-07
0.00385985
8.48331e-07
0.00130233
0.00230596
0.0101772
0.00255613
0.0104091
0.00298831
0.0107181
0.00363079
0.011117
0.00452679
0.0116338
0.00576823
0.0123293
0.00742029
0.0133802
0.0101327
0.0155302
0.0114106
0.0162499
-0.00200718
0.00704526
0.009553
-0.00140547
-0.000428346
0.00102754
0.000318218
0.00273934
-0.000390645
-0.000301303
0.000100168
9.85613e-05
0.000277164
-1.24013e-05
0.000222158
-2.75639e-05
0.000954095
-2.44876e-05
-6.72365e-06
0.00177802
-2.79808e-05
-4.3415e-05
0.00592801
-2.92743e-05
0.00174971
-1.63798e-05
0.000902487
-6.36536e-07
-2.76917e-06
-0.000193407
0.000128033
-5.10866e-05
-9.6261e-05
9.10518e-05
-0.000205028
0.00866299
-0.000337548
0.0108179
-0.000455483
0.0124057
-0.000521784
0.0134784
-0.000511081
0.0140873
-0.000433239
0.0142585
-0.000323809
0.013999
-0.000217123
0.0133015
-0.000127908
0.012152
-6.51097e-05
0.0105661
-2.75093e-05
0.00859346
-7.84776e-06
0.00632361
-9.26458e-07
0.00386162
7.79846e-07
0.00130155
0.00213973
0.0101772
0.00232509
0.0104082
0.00268178
0.0107156
0.0032358
0.0111131
0.00401813
0.0116256
0.00509424
0.0123078
0.00648394
0.0132656
0.00849414
0.0150188
0.010045
0.0168958
0.00847924
0.0148159
0.00349472
0.00675765
-0.000266493
-0.00043287
0.00167235
-0.000160876
-0.000177607
-0.000122941
0.00075984
0.000195277
0.000534763
-7.62266e-05
7.86505e-05
5.10866e-05
0.000103546
9.68221e-05
0.000875966
-1.03328e-06
-4.25989e-07
0.00171945
-1.31511e-05
-3.19022e-05
0.00578228
-2.73971e-05
0.00170074
-1.05664e-05
0.000860641
-3.51704e-07
-7.03845e-07
-9.40529e-05
9.34164e-05
-0.000172059
0.0084975
-0.000316868
0.0106793
-0.000454783
0.0123387
-0.00052668
0.013494
-0.000502368
0.0141565
-0.000414819
0.0143495
-0.000305924
0.0140878
-0.000204073
0.0133777
-0.000121865
0.0122087
-6.32516e-05
0.0106018
-2.77196e-05
0.00861333
-8.78558e-06
0.00633147
-1.33661e-06
0.00386374
1.62189e-07
0.00130139
0.00197565
0.0101771
0.00209674
0.0104056
0.00238106
0.010709
0.00284804
0.0111034
0.00352449
0.0116067
0.00445324
0.0122666
0.0056362
0.0131556
0.00719105
0.0145687
0.00857167
0.0164921
0.00835555
0.0170195
0.00558281
0.0127278
0.00148576
0.00516138
4.82891e-05
6.22121e-05
-0.00129973
0.00106933
-9.41891e-06
-2.66711e-05
-2.47783e-05
-3.54694e-05
-0.000396377
0.000274481
-3.89804e-05
-3.92211e-05
0.00011905
9.23831e-05
9.19571e-05
0.000848438
-5.65354e-07
-3.82053e-07
0.00167959
-1.07557e-05
-2.49108e-05
0.00565578
-2.06485e-05
0.00166389
-1.16926e-05
0.000838707
-3.45735e-07
-4.90027e-07
-9.12533e-05
9.09016e-05
-0.000160585
0.00834121
-0.000330231
0.0105548
-0.000481839
0.0122938
-0.000532966
0.0135246
-0.000482716
0.0142244
-0.000388662
0.0144322
-0.000286559
0.0141703
-0.000190911
0.0134467
-0.000115621
0.0122611
-6.25952e-05
0.0106367
-2.80984e-05
0.00863264
-1.06232e-05
0.00634076
-2.69674e-06
0.0038666
1.52491e-07
0.00130124
0.00181197
0.0101767
0.00187162
0.0104022
0.00208276
0.0107039
0.00246614
0.0110909
0.00304476
0.0115831
0.00384371
0.0122163
0.00485868
0.0130441
0.00611535
0.0142313
0.00727506
0.0158653
0.00754965
0.017298
0.00635257
0.0162497
0.00343678
0.0107768
0.000709278
0.00448912
-3.9058e-05
2.04637e-06
-0.00102034
0.000999082
2.19421e-05
4.76097e-05
6.13916e-05
4.98045e-05
-0.000194817
0.000186757
-1.35915e-06
-0.000214971
-6.517e-06
-0.000235706
-4.04279e-06
3.30574e-06
-7.98289e-05
4.08485e-05
9.03362e-05
8.99542e-05
0.000828878
-4.72764e-07
-4.54271e-07
0.00164868
-9.69985e-06
-1.77554e-05
0.00553327
-2.03246e-05
0.00163316
1.7108e-06
-6.84458e-06
0.000818169
-4.83579e-07
-4.99559e-07
-8.94641e-05
8.91184e-05
-0.000177074
0.00818806
-0.000379105
0.010452
-0.000517604
0.0122785
-0.000514848
0.0135567
-0.000448559
0.0142843
-0.000357293
0.014503
-0.000262555
0.014242
-0.00017833
0.0135094
-0.000111135
0.0123096
-6.17751e-05
0.0106704
-3.06653e-05
0.00865268
-1.26255e-05
0.00635069
-3.32436e-06
0.00387007
-4.19019e-07
0.00130166
0.00165096
0.010175
0.00165037
0.0103979
0.00179057
0.0106944
0.00209223
0.0110778
0.00257652
0.0115591
0.00326226
0.0121645
0.0041381
0.0129369
0.00518788
0.0139716
0.00618006
0.0153263
0.00660049
0.0168145
0.00619261
0.017458
0.00461295
0.0150736
0.00207985
0.0094062
0.000312631
0.00415086
3.49064e-05
-9.27513e-06
-0.000986426
0.000978106
-3.07377e-05
-1.88291e-06
1.65858e-05
-0.000243028
0.0002514
1.35702e-05
-0.000224168
2.87497e-05
-0.000203211
4.04342e-05
3.33507e-05
-3.35945e-05
3.22353e-05
-4.01115e-05
-4.41543e-05
8.86456e-05
8.81914e-05
0.000474073
-2.71671e-07
-2.46949e-07
0.000334914
0.00162214
-4.21201e-06
-2.51776e-06
-1.55875e-05
0.00539893
-2.71448e-05
0.00160645
-2.01891e-06
-2.61857e-06
0.00050459
-2.88059e-05
0.000506164
-8.41814e-06
-8.76918e-05
8.72082e-05
-0.000236525
0.00804548
-0.000462245
0.0103967
-0.000509661
0.0122733
-0.000471243
0.0135794
-0.000403225
0.0143302
-0.000322505
0.0145629
-0.000242475
0.0143061
-0.000168849
0.0135671
-0.000109336
0.0123572
-6.37944e-05
0.0107035
-3.28719e-05
0.00867293
-1.42182e-05
0.00636158
-4.25456e-06
0.00387391
-4.88535e-07
0.00130214
0.00149102
0.0101749
0.00143282
0.0103926
0.00150313
0.0106854
0.00172312
0.0110635
0.00211907
0.0115352
0.00270359
0.0121178
0.0034634
0.0128392
0.00436302
0.0137617
0.00523281
0.0149189
0.00570519
0.0162216
0.005627
0.0173801
0.00490831
0.0171626
0.00324891
0.0139045
0.00123309
0.00848574
0.000101119
0.00394484
4.21195e-05
6.27816e-05
-0.000959538
0.000948472
4.59724e-05
9.29271e-06
-0.000234264
0.000355463
-1.48612e-06
-0.000149483
-9.66817e-07
-0.000254832
1.86853e-05
1.31537e-05
-0.000110092
0.00012082
2.84196e-06
-8.901e-05
7.66779e-06
-6.5586e-05
1.70102e-05
8.69365e-05
8.66896e-05
0.00030432
1.78794e-06
0.000504738
-2.78603e-06
0.000503606
-1.38597e-06
0.00159573
-1.83634e-06
-3.03719e-06
-2.26215e-05
0.00523618
-5.11584e-05
0.00157507
-2.34045e-06
-4.13548e-06
0.000502549
-9.61979e-07
0.000500527
-5.96118e-07
0.000297962
-2.05996e-06
-0.000360758
0.00794399
-0.000481448
0.0103685
-0.000456523
0.0122586
-0.000409527
0.0135857
-0.000354635
0.0143623
-0.000292312
0.0146128
-0.000225647
0.0143629
-0.000164376
0.0136222
-0.000109289
0.0124027
-6.65341e-05
0.0107372
-3.56767e-05
0.00869439
-1.59628e-05
0.00637329
-5.35327e-06
0.00387877
-9.38059e-07
0.00130308
0.00133265
0.0101734
0.00122208
0.0103857
0.00122249
0.0106732
0.00136192
0.0110466
0.00167043
0.0115121
0.00216211
0.0120767
0.0028237
0.0127575
0.00360958
0.0135927
0.00439015
0.0146044
0.00489483
0.0157292
0.00497297
0.0168756
0.00467116
0.0176173
0.00378964
0.0166219
0.00223672
0.0129009
0.000723798
0.00786306
2.74004e-05
0.00386573
2.43172e-05
2.73879e-05
-0.000939748
0.000946804
3.50641e-05
7.15055e-05
-0.000362999
0.00038535
1.78902e-05
5.73174e-06
-6.97713e-08
1.82609e-06
-2.9729e-05
2.82428e-05
-0.000130219
-5.78907e-07
-3.06958e-05
3.75471e-06
-2.4678e-05
2.752e-05
-1.70102e-05
8.84775e-05
0.000296134
-9.57884e-07
0.000295034
-2.85706e-07
0.000499396
-7.06106e-07
0.000497595
-1.23613e-06
0.00155915
-2.02004e-06
-4.68251e-06
-6.48262e-05
0.00507966
-0.000139403
0.00152018
-3.66162e-06
-8.5332e-06
0.000496511
-1.25642e-06
0.000493427
-1.05121e-06
0.000294259
-1.87153e-07
0.000293731
-6.78622e-08
8.64176e-05
-0.000446864
0.00790941
-0.000406135
0.0103181
-0.000371898
0.0122209
-0.000345842
0.0135769
-0.000311306
0.0143813
-0.000267316
0.0146544
-0.000216244
0.0144148
-0.000162657
0.0136755
-0.00011316
0.0124493
-7.07458e-05
0.0107722
-3.88046e-05
0.00871723
-1.76412e-05
0.00638558
-6.253e-06
0.00388409
-9.08841e-07
0.00130399
0.00117901
0.0101691
0.00101765
0.0103778
0.000949167
0.010659
0.00100807
0.011027
0.00122887
0.0114881
0.0016313
0.012043
0.00220873
0.0126917
0.00290774
0.0134593
0.00362292
0.0143599
0.0041496
0.0153496
0.00433549
0.0163667
0.00422423
0.0173226
0.00379776
0.0176091
0.00286439
0.0159942
0.00153331
0.0120914
0.00042828
0.00746219
-5.58747e-05
0.00379973
7.07928e-05
5.1083e-05
-0.000956414
0.000967771
1.29601e-05
1.77776e-05
-0.000409811
0.000434398
1.04508e-06
9.43204e-06
2.58709e-05
2.11737e-05
-3.57309e-05
5.36212e-05
-2.99992e-05
2.81731e-05
-3.12747e-05
8.54597e-05
8.5174e-05
0.000293189
-1.65039e-07
0.000292149
-1.96127e-07
0.000492448
-1.04125e-06
0.000489445
-1.6789e-06
0.00147919
-6.80816e-06
-1.70233e-05
-0.000202109
0.00503709
-0.000202188
0.00140325
-2.03736e-05
-4.30908e-05
0.000487644
-1.86078e-06
0.000481595
-2.48424e-06
0.00029113
-2.36652e-07
0.000290326
-2.47463e-07
8.49868e-05
8.4919e-05
-0.000324151
0.00782742
-0.000292349
0.0102385
-0.000293655
0.0121687
-0.000291787
0.0135574
-0.000279491
0.0143935
-0.000252509
0.0146907
-0.000213665
0.0144658
-0.000167082
0.0137295
-0.000117469
0.012496
-7.40673e-05
0.0108075
-3.99965e-05
0.00873958
-1.83734e-05
0.0063977
-6.44761e-06
0.00388963
-1.27941e-06
0.00130527
0.00102819
0.0101653
0.000821506
0.0103653
0.000687448
0.0106395
0.000661719
0.0110054
0.00079197
0.0114639
0.00110823
0.0120112
0.00160887
0.0126428
0.00224171
0.0133577
0.0029121
0.0141701
0.00345298
0.0150565
0.00372722
0.0159579
0.0037344
0.0168565
0.00353075
0.0175896
0.00303897
0.0174346
0.00214713
0.0153804
0.00105125
0.0114684
0.000233218
0.00717309
-8.57908e-05
0.00376524
4.75407e-05
7.27437e-05
-0.000975996
0.000982133
6.46562e-05
4.28577e-05
-0.000450383
0.000463508
7.75294e-07
-9.39833e-07
1.88849e-06
-9.58181e-08
-8.86914e-05
8.99078e-05
-1.71246e-07
-8.10913e-05
1.83187e-06
6.62979e-05
1.31942e-05
6.3804e-06
8.47539e-05
8.45578e-05
0.000289467
-1.82741e-07
0.000288103
-3.143e-07
0.0004782
-3.41303e-06
0.000467694
-6.51803e-06
0.00135646
-5.79374e-05
-9.73855e-05
-0.000133939
0.00490127
-5.43932e-05
0.00131507
-8.7335e-05
-7.3459e-05
0.000457615
-1.02944e-05
0.00043421
-1.96861e-05
0.000286568
-3.26413e-07
0.000284488
-4.03983e-07
8.43211e-05
8.40737e-05
-0.000175018
0.00771009
-0.000204964
0.0101498
-0.000234557
0.0121115
-0.000255398
0.0135333
-0.000260897
0.0144019
-0.000249466
0.0147265
-0.000217903
0.0145166
-0.000172408
0.0137844
-0.000121725
0.0125437
-7.66957e-05
0.0108442
-4.25612e-05
0.00876377
-1.98241e-05
0.00641108
-7.05695e-06
0.00389541
-1.06507e-06
0.00130634
0.000882421
0.0101581
0.00063754
0.0103493
0.000437503
0.0106152
0.000326234
0.010975
0.000360437
0.0114369
0.000586066
0.0119861
0.00101394
0.0126061
0.00159549
0.013289
0.00223588
0.0140339
0.00279279
0.0148303
0.00314136
0.0156424
0.00324978
0.0164425
0.00316765
0.0172196
0.00291246
0.0177161
0.00240887
0.0171728
0.00160433
0.0148273
0.000718039
0.0109836
0.000120339
0.00696696
-7.86544e-05
0.00379268
1.60557e-05
3.51556e-05
-0.000990509
0.001003
3.50502e-05
6.4368e-05
-0.000486161
0.000501454
2.66332e-05
2.27302e-05
6.02201e-06
1.41819e-05
-9.06914e-05
9.17275e-05
-2.60745e-07
-9.13219e-05
-3.09346e-07
9.11852e-05
6.11081e-07
-2.32512e-07
-2.14064e-05
2.12352e-05
-1.95746e-05
1.31942e-05
8.38909e-05
8.35766e-05
0.000281621
-5.45517e-07
0.000276128
-1.02514e-06
0.000412762
-3.64889e-05
0.000378493
-6.31166e-05
0.00124601
-4.51711e-05
-1.97079e-05
-3.22631e-05
0.00476696
-8.45042e-06
0.00120584
-1.10084e-05
-3.21459e-06
0.000356329
-6.5171e-05
0.000333358
-5.0488e-05
0.000267674
-1.84039e-06
0.000251976
-3.98842e-06
8.32502e-05
8.28463e-05
-0.000101181
0.00760631
-0.000152449
0.0100677
-0.000197361
0.0120535
-0.000235187
0.0135076
-0.000255614
0.014408
-0.000253108
0.0147617
-0.000225838
0.0145701
-0.000178661
0.0138413
-0.00012669
0.0125937
-7.84161e-05
0.01088
-4.32392e-05
0.00878719
-1.96353e-05
0.00642365
-6.73109e-06
0.00390107
-1.16028e-06
0.0013075
0.000742657
0.0101484
0.00046781
0.0103278
0.000205714
0.0105811
4.18529e-06
0.0109373
-6.61032e-05
0.0114015
6.28245e-05
0.0119601
0.000417139
0.0125829
0.000955781
0.0132459
0.00158296
0.013942
0.00216225
0.0146645
0.00257173
0.0153999
0.00277101
0.0161212
0.00278239
0.0168277
0.00265534
0.0174767
0.00238473
0.0177402
0.00190171
0.0168754
0.00119966
0.0143457
0.00049431
0.0106096
5.38697e-05
0.00683444
-0.000104136
8.84299e-05
0.00380839
-0.00100893
0.000959108
6.58784e-05
2.9225e-05
-0.000520887
0.0005421
3.92604e-06
9.91088e-06
2.87572e-05
1.6178e-05
-0.000112409
0.000120617
1.84251e-05
-0.000104224
1.45453e-05
9.55784e-05
2.17119e-06
5.53592e-06
-2.13044e-05
2.10437e-05
-2.16138e-05
2.18463e-05
8.23007e-05
8.12756e-05
0.000225789
-1.03016e-05
0.000185223
-2.25505e-05
0.000308883
-2.06959e-05
0.000296134
-6.95909e-06
0.00117761
-3.35686e-06
-6.70639e-07
-1.22924e-05
0.00468197
-3.89101e-06
0.00116994
-9.66695e-07
1.86855e-07
0.000287532
-2.407e-06
0.000285015
-6.96714e-07
0.000162647
-4.25947e-05
0.000112159
7.94352e-05
7.54468e-05
-6.85941e-05
0.00752245
-0.000122479
0.00999284
-0.000178781
0.0119971
-0.000229478
0.0134814
-0.000264218
0.0144191
-0.00026765
0.0148035
-0.000237542
0.0146289
-0.000185277
0.0138999
-0.000128366
0.0126436
-7.87689e-05
0.0109156
-4.20083e-05
0.00880956
-1.93962e-05
0.00643632
-6.39662e-06
0.00390631
-1.0486e-06
0.00130854
0.000610169
0.0101357
0.000316402
0.0102998
-3.16702e-06
0.0105367
-0.000298979
0.0108842
-0.000483535
0.0113547
-0.000467328
0.0119317
-0.000192618
0.0125699
0.000309153
0.0132295
0.000938066
0.0138907
0.00154819
0.014556
0.00201685
0.0152194
0.00229726
0.0158737
0.0023958
0.0165077
0.00235507
0.017128
0.00220845
0.017653
0.00194596
0.017696
0.00150077
0.0165743
0.000900875
0.0139391
0.000340905
0.0103226
-2.8062e-06
0.00673311
-0.000638862
0.00161876
4.83823e-05
1.92591e-05
-0.000127107
0.000128037
0.00380746
-0.000563618
-9.36571e-06
6.34713e-06
1.36026e-06
-0.000144642
0.000146827
1.74087e-06
-0.000138888
4.15673e-06
0.000131763
1.76112e-05
9.054e-06
-4.32961e-05
5.13833e-05
1.0338e-05
-2.87508e-05
2.32149e-05
6.51451e-05
4.25947e-05
9.14627e-05
8.45036e-05
0.000282056
-3.98409e-07
0.000281621
-2.35518e-07
0.00115912
-1.10043e-06
-3.79655e-07
-8.13991e-06
0.00462529
-3.77487e-06
0.001156
-6.36065e-07
-1.31971e-07
0.0002808
-1.46186e-07
0.00028086
1.27618e-07
8.20966e-05
8.13999e-05
-5.33756e-05
0.00745335
-0.000107981
0.00992204
-0.000174533
0.0119421
-0.000240642
0.0134578
-0.000282495
0.014434
-0.00028355
0.0148495
-0.000245966
0.0146896
-0.00018695
0.0139585
-0.000126399
0.0126913
-7.67328e-05
0.0109503
-4.1496e-05
0.00883166
-1.87685e-05
0.00644869
-6.23691e-06
0.0039115
-9.12414e-07
0.00130946
0.00048632
0.01012
0.000187576
0.0102645
-0.000181684
0.0104783
-0.000573662
0.0108114
-0.000888181
0.0112889
-0.00100472
0.0118921
-0.000821877
0.012561
-0.000357338
0.0132364
0.000289869
0.0138777
0.000943806
0.0144951
0.00147214
0.0151007
0.00182673
0.0156899
0.00200594
0.0162636
0.00204415
0.0168187
0.00197605
0.0173604
0.00183267
0.0177663
0.00158647
0.0176103
0.00118686
0.0162884
0.000681483
0.0135985
0.000226519
0.0100932
-4.34775e-05
0.00664948
0.00165392
3.40651e-05
5.88108e-05
-0.000237977
0.000267637
1.36889e-05
5.03379e-06
-0.000220796
1.71941e-06
3.58176e-07
-0.000115124
8.37332e-05
0.00383885
-0.000138854
-2.52103e-07
-2.96875e-07
-9.07589e-05
0.000148557
4.61665e-06
1.10641e-05
-7.41833e-05
7.58021e-05
1.22079e-07
-7.0699e-05
6.72443e-07
6.36308e-05
5.36363e-06
1.98586e-06
1.0338e-05
8.10015e-05
8.0766e-05
0.000279809
-4.93217e-08
0.000279611
-1.81609e-07
0.00114914
-8.21984e-07
-4.53344e-07
-5.93835e-06