/*--------------------------------*- C++ -*----------------------------------*\
| =========                 |                                                 |
| \\      /  F ield         | OpenFOAM: The Open Source CFD Toolbox           |
|  \\    /   O peration     | Version:  v1912                                 |
|   \\  /    A nd           | Website:  www.openfoam.com                      |
|    \\/     M anipulation  |                                                 |
\*---------------------------------------------------------------------------*/
FoamFile
{
    version     2.0;
    format      ascii;
    class       volVectorField;
    location    "170";
    object      U;
}
// * * * * * * * * * * * * * * * * * * * * * * * * * * * * * * * * * * * * * //

dimensions      [0 1 -1 0 0 0 0];


internalField   nonuniform List<vector> 
3673
(
(0.648227 -0.0255821 -1.63166e-21)
(0.974706 -0.0152936 -5.22634e-20)
(0.298304 -0.0525309 -3.7399e-24)
(1.01656 -0.010404 2.43721e-20)
(0.766026 -0.0574793 -2.2829e-24)
(0.175417 -0.0543302 1.94168e-20)
(1.00676 -0.0138541 -1.9032e-37)
(0.961606 -0.0540399 1.52448e-24)
(0.568923 -0.0966307 -1.7758e-20)
(0.124709 -0.0462182 2.39487e-20)
(0.999517 -0.0164387 -2.62694e-41)
(1.00908 -0.0522184 0)
(0.843947 -0.103886 -2.34418e-20)
(0.436358 -0.110503 -2.36897e-20)
(0.108215 -0.0400071 2.80289e-20)
(0.997599 -0.0170201 -4.0634e-24)
(1.00893 -0.0520156 -6.95e-24)
(0.969485 -0.100518 4.76838e-20)
(0.720539 -0.138242 2.50007e-20)
(0.365167 -0.110905 0)
(0.104893 -0.0374658 -3.08503e-20)
(0.997518 -0.0166404 -3.731e-51)
(1.00224 -0.0521051 1.79093e-20)
(1.00431 -0.0966526 -2.56038e-20)
(0.898711 -0.14483 -2.19661e-20)
(0.626139 -0.15656 2.80077e-20)
(0.332884 -0.109298 3.3551e-20)
(0.105593 -0.0367988 0)
(0.997717 -0.0157883 0)
(0.998116 -0.0514596 1.78141e-21)
(1.00469 -0.0940765 0)
(0.976606 -0.14342 6.97331e-24)
(0.824886 -0.177906 3.77761e-21)
(0.567334 -0.16564 0)
(0.320315 -0.108521 0)
(0.107662 -0.0368643 0)
(0.997871 -0.0146016 2.27112e-20)
(0.996111 -0.0497256 -1.99818e-20)
(0.998312 -0.0918141 0)
(0.997001 -0.140199 1.72697e-20)
(0.936349 -0.184602 -2.59109e-20)
(0.766385 -0.200268 0)
(0.53559 -0.170108 -7.3152e-24)
(0.317047 -0.108454 0)
(0.109865 -0.0371312 0)
(0.997983 -0.0131069 -2.28319e-20)
(0.994822 -0.046943 0)
(0.992892 -0.0889309 2.01603e-23)
(0.995366 -0.136918 -1.73124e-20)
(0.980721 -0.184779 0)
(0.897174 -0.217232 1.33982e-23)
(0.727371 -0.214263 6.66619e-24)
(0.520565 -0.172085 -3.06668e-20)
(0.317683 -0.108548 3.37875e-20)
(0.111544 -0.037375 -6.78343e-24)
(0.998093 -0.0112886 0)
(0.993596 -0.0431559 0)
(0.988696 -0.0849562 -2.24685e-23)
(0.988661 -0.133452 -4.12456e-23)
(0.989809 -0.182975 -3.58507e-23)
(0.962154 -0.223804 0)
(0.866778 -0.24074 -1.40319e-23)
(0.704427 -0.221928 2.70312e-20)
(0.514578 -0.172549 5.43812e-22)
(0.319344 -0.108537 -3.20132e-20)
(0.112555 -0.0375217 1.31649e-23)
(0.998225 -0.00913249 -2.52116e-23)
(0.992284 -0.0383248 0)
(0.984785 -0.0795963 0)
(0.98162 -0.129203 2.33979e-23)
(0.98553 -0.18076 2.11594e-23)
(0.984328 -0.225989 1.81128e-23)
(0.946801 -0.254659 0)
(0.846614 -0.255556 0)
(0.692126 -0.225083 7.94913e-22)
(0.512672 -0.172159 -4.10523e-22)
(0.320736 -0.108372 0)
(0.112973 -0.0375463 -6.38097e-24)
(0.998389 -0.00664678 0)
(0.990923 -0.0323851 -2.77715e-20)
(0.980637 -0.0725699 0)
(0.974378 -0.123533 0)
(0.977266 -0.178108 0)
(0.985809 -0.227076 -2.20378e-20)
(0.981817 -0.262173 0)
(0.936851 -0.275906 1.27966e-23)
(0.834419 -0.263146 1.12003e-21)
(0.685759 -0.225573 2.44076e-20)
(0.51219 -0.171375 -2.58702e-20)
(0.32143 -0.108014 0)
(0.112868 -0.0374468 0)
(0.998592 -0.00387163 2.74887e-20)
(0.98961 -0.0253065 2.78499e-20)
(0.97617 -0.0635923 1.99055e-24)
(0.966306 -0.115805 0)
(0.96717 -0.174383 2.90388e-20)
(0.978961 -0.228127 2.22991e-20)
(0.991416 -0.267797 3.92865e-23)
(0.983235 -0.288434 -1.35486e-23)
(0.931225 -0.288003 -3.69112e-20)
(0.827085 -0.265988 0)
(0.682325 -0.224808 4.59876e-20)
(0.511899 -0.170355 0)
(0.321296 -0.107449 0)
(0.112343 -0.0372451 1.0013e-23)
(0.998842 -0.000887545 -5.52839e-20)
(0.988484 -0.0171423 -2.83558e-23)
(0.97156 -0.0524209 3.13558e-20)
(0.957099 -0.105346 3.29187e-20)
(0.954912 -0.168709 -2.93724e-20)
(0.967945 -0.228992 0)
(0.989144 -0.273855 0)
(1.00217 -0.298171 1.70667e-20)
(0.986774 -0.304044 1.23318e-20)
(0.927779 -0.293655 1.13477e-20)
(0.822494 -0.266352 -2.11066e-20)
(0.680206 -0.223447 5.00507e-24)
(0.511228 -0.16914 -2.21843e-20)
(0.320361 -0.106706 -2.36981e-20)
(0.111494 -0.0369656 -8.82502e-25)
(0.999138 0.00218277 2.7815e-20)
(0.987717 -0.00806775 2.98779e-20)
(0.96717 -0.0389235 -3.12527e-20)
(0.946879 -0.0914456 -6.81951e-20)
(0.939863 -0.160001 -6.67137e-23)
(0.952909 -0.228956 5.81364e-23)
(0.980775 -0.281171 0)
(1.00736 -0.308396 -1.67483e-20)
(1.01455 -0.31612 1.36252e-20)
(0.989902 -0.311925 -1.08928e-20)
(0.925423 -0.295766 0)
(0.819506 -0.26545 -1.97489e-20)
(0.678484 -0.22175 1.95483e-20)
(0.509902 -0.167781 2.00987e-20)
(0.318734 -0.105841 1.00615e-23)
(0.110434 -0.0366299 -9.25423e-24)
(0.999477 0.00517977 5.46409e-23)
(0.987498 0.0015887 -2.97189e-20)
(0.963536 -0.0231817 1.34074e-22)
(0.936182 -0.0734208 -2.05859e-21)
(0.921729 -0.146903 0)
(0.932727 -0.226917 -3.86068e-20)
(0.967119 -0.289876 -5.70961e-23)
(1.00593 -0.32085 3.3064e-23)
(1.02776 -0.32777 -1.33851e-20)
(1.02444 -0.325147 0)
(0.992071 -0.315583 0)
(0.923905 -0.295933 9.12095e-21)
(0.8173 -0.263834 -1.81306e-20)
(0.676592 -0.219896 1.30811e-23)
(0.507892 -0.166355 0)
(0.316575 -0.104883 -1.00919e-23)
(0.109227 -0.036255 0)
(0.999843 0.00792404 0)
(0.987981 0.0113426 -5.66835e-23)
(0.961333 -0.00561192 -3.29784e-20)
(0.92605 -0.0507666 7.51744e-20)
(0.900716 -0.127674 -9.33952e-24)
(0.90605 -0.221276 3.95382e-20)
(0.946751 -0.29987 0)
(1 -0.336613 0)
(1.03452 -0.340976 -3.21465e-23)
(1.04364 -0.336782 0)
(1.03145 -0.329611 -9.14394e-24)
(0.993884 -0.316841 8.92243e-21)
(0.922854 -0.294929 1.69342e-20)
(0.815257 -0.261889 8.45625e-24)
(0.6743 -0.21802 -8.47298e-24)
(0.505272 -0.164889 0)
(0.314017 -0.103863 -8.41572e-24)
(0.107924 -0.0358544 -1.53717e-20)
(1.00021 0.0102432 0)
(0.989232 0.0205928 -1.17664e-22)
(0.961254 0.0129322 3.28246e-20)
(0.918143 -0.0234868 -7.61208e-20)
(0.877765 -0.100122 -4.69399e-20)
(0.871641 -0.20962 1.85501e-22)
(0.917193 -0.310988 0)
(0.989209 -0.356775 -2.38001e-20)
(1.0383 -0.356777 2.543e-23)
(1.05585 -0.348815 0)
(1.05465 -0.341132 0)
(1.03698 -0.331482 9.04957e-25)
(0.995455 -0.31657 8.3426e-24)
(0.921825 -0.293327 -7.77008e-21)
(0.813064 -0.259868 -7.1119e-24)
(0.671554 -0.216171 0)
(0.502145 -0.163403 -7.27065e-24)
(0.311181 -0.102805 1.62655e-20)
(0.106576 -0.0354388 6.46574e-24)
(1.00055 0.0120019 2.44948e-20)
(0.991186 0.0287028 -2.72836e-20)
(0.963784 0.0311997 1.18297e-22)
(0.914621 0.00744461 7.53941e-20)
(0.855276 -0.0621033 4.54924e-20)
(0.828837 -0.187519 0)
(0.874692 -0.323112 0)
(0.971943 -0.382709 2.31869e-20)
(1.03991 -0.375621 2.50499e-23)
(1.06495 -0.362064 -4.68603e-24)
(1.06981 -0.352062 0)
(1.0632 -0.34289 0)
(1.04154 -0.331622 7.73695e-25)
(0.996552 -0.315467 1.58959e-23)
(0.920601 -0.291515 0)
(0.810606 -0.257884 1.39577e-20)
(0.668381 -0.214369 -6.49137e-24)
(0.498635 -0.161908 1.39265e-23)
(0.308161 -0.101721 -7.02314e-24)
(0.105201 -0.0350155 -1.24211e-23)
(1.00084 0.0131273 -4.79334e-20)
(0.993644 0.035122 1.30282e-21)
(0.968966 0.0477216 2.91332e-20)
(0.917272 0.0397838 -3.68952e-20)
(0.83864 -0.0134808 -8.2802e-22)
(0.778907 -0.146049 -6.51694e-20)
(0.811753 -0.334269 5.21932e-20)
(0.9433 -0.415456 -7.81318e-23)
(1.03722 -0.39659 -4.7828e-23)
(1.07086 -0.375984 -1.05713e-20)
(1.08042 -0.362849 -2.0227e-23)
(1.08016 -0.352798 0)
(1.07008 -0.34284 -7.66368e-21)
(1.04502 -0.3308 7.16289e-21)
(0.997132 -0.314014 -6.90668e-24)
(0.919117 -0.289675 -1.29826e-20)
(0.807837 -0.255972 5.94813e-24)
(0.664827 -0.212608 6.49591e-24)
(0.494829 -0.160409 -6.65543e-24)
(0.305018 -0.100628 7.04603e-24)
(0.103823 -0.034591 -1.17943e-20)
(1.00105 0.0136183 2.34492e-20)
(0.996313 0.0394997 2.60085e-20)
(0.976281 0.0611168 -2.89545e-20)
(0.926797 0.0702383 1.25727e-22)
(0.835794 0.0420428 4.48353e-20)
(0.729869 -0.0745726 6.65681e-20)
(0.712456 -0.32883 -5.45646e-20)
(0.885412 -0.449463 -3.15568e-20)
(1.01768 -0.41429 7.76575e-23)
(1.06619 -0.386413 1.05274e-20)
(1.08402 -0.371608 -1.96413e-23)
(1.09034 -0.361066 0)
(1.08788 -0.351682 7.5211e-21)
(1.07521 -0.341775 6.56782e-25)
(1.04754 -0.329533 6.46008e-21)
(0.997239 -0.31244 0)
(0.917325 -0.28788 0)
(0.804752 -0.254136 1.16563e-20)
(0.660947 -0.210883 0)
(0.490808 -0.158916 0)
(0.301817 -0.0995384 1.23732e-20)
(0.102457 -0.0341692 5.44571e-24)
(1.00118 0.013537 0)
(0.998885 0.0417573 -2.29481e-20)
(0.984724 0.0704217 -4.96738e-23)
(0.942494 0.0953548 -2.96484e-20)
(0.849726 0.0977508 -8.31143e-20)
(0.701272 0.0253309 -6.24959e-20)
(0.560581 -0.265011 -4.1991e-20)
(0.75092 -0.453921 3.83353e-20)
(0.939016 -0.406256 0)
(1.02332 -0.380816 3.44373e-23)
(1.06635 -0.37077 8.6403e-21)
(1.08821 -0.364319 0)
(1.09598 -0.357339 7.16533e-21)
(1.09289 -0.349505 -6.25419e-24)
(1.07881 -0.340199 -6.31161e-21)
(1.04924 -0.328065 0)
(0.996886 -0.310861 5.63447e-21)
(0.915213 -0.286154 -5.39605e-21)
(0.801365 -0.252366 5.4311e-24)
(0.656813 -0.209194 -1.06641e-20)
(0.486654 -0.157438 -5.06017e-24)
(0.298592 -0.0984597 -5.23487e-25)
(0.101124 -0.0337568 -4.53794e-24)
(1.00123 0.0129824 0)
(1.00112 0.0420655 2.31505e-20)
(0.993113 0.0753331 -9.23286e-23)
(0.962 0.112518 2.90202e-20)
(0.880252 0.145383 7.1334e-20)
(0.708553 0.132793 5.72476e-20)
(0.5305 -0.0878118 3.70386e-20)
(0.497353 -0.00380923 9.33157e-22)
(0.537665 -0.464901 0)
(0.35557 -0.207504 7.3924e-20)
(0.383423 -0.382829 -3.67305e-22)
(0.807939 -0.384783 0)
(0.503146 -0.31211 -1.24029e-20)
(0.636046 -0.294709 0)
(0.875739 -0.328153 0)
(0.735808 -0.289281 0)
(0.989662 -0.342816 -9.09063e-21)
(1.05391 -0.352906 7.66111e-21)
(1.08577 -0.355192 -7.17597e-21)
(1.09746 -0.352528 3.03255e-24)
(1.0956 -0.346724 6.02136e-21)
(1.08115 -0.338338 1.65854e-23)
(1.0502 -0.326539 -5.4243e-21)
(0.996088 -0.309312 -5.15719e-21)
(0.912788 -0.284488 -4.96463e-21)
(0.797706 -0.250647 9.62744e-21)
(0.652481 -0.207536 0)
(0.482418 -0.155984 4.46225e-25)
(0.295394 -0.0974018 -5.37358e-24)
(0.0998239 -0.0333543 -9.06217e-21)
(1.00123 0.0120643 -3.78806e-23)
(1.00291 0.0407481 0)
(1.00055 0.0762108 0)
(0.981982 0.121027 -1.96526e-22)
(0.920775 0.177214 -3.25989e-20)
(0.761723 0.228561 -3.97567e-22)
(0.490102 0.102502 0)
(0.515326 0.202238 -2.44938e-20)
(0.278674 -0.0770007 -3.71933e-20)
(0.288505 -0.320733 3.21546e-22)
(0.201825 -0.25288 -1.15176e-20)
(0.197666 -0.235626 8.65151e-21)
(0.168351 -0.154941 4.13036e-21)
(0.301581 -0.250281 -1.99557e-22)
(0.459626 -0.215064 3.65144e-23)
(0.256572 -0.107147 0)
(0.165243 -0.114158 -5.68303e-22)
(0.508453 -0.187911 -6.24605e-22)
(0.359355 -0.146068 -1.01167e-21)
(0.654102 -0.23258 0)
(0.791636 -0.261887 0)
(0.587311 -0.193856 -1.23841e-23)
(0.947857 -0.309626 -8.21544e-21)
(1.03425 -0.335069 0)
(1.07781 -0.34541 0)
(1.09566 -0.347066 -1.52782e-22)
(1.09642 -0.343558 0)
(1.08236 -0.336374 -1.06989e-23)
(1.05048 -0.324992 -1.01201e-23)
(0.994859 -0.30778 9.41478e-21)
(0.910049 -0.282865 4.53519e-21)
(0.793812 -0.248974 0)
(0.648013 -0.205917 0)
(0.478151 -0.154554 4.63358e-24)
(0.292233 -0.0963704 9.42867e-21)
(0.0985672 -0.0329638 8.31495e-21)
(1.00118 0.0108839 -3.57528e-23)
(1.00423 0.038174 3.82801e-23)
(1.0066 0.0738339 0)
(0.999565 0.121923 0)
(0.961599 0.190826 1.87881e-22)
(0.849225 0.286568 7.03808e-22)
(0.558636 0.297073 2.33881e-20)
(0.622307 0.371935 -7.26231e-23)
(0.237014 0.0631018 0)
(0.344815 0.255599 8.24401e-23)
(0.318254 0.187583 0)
(0.0647726 -0.0945107 6.70371e-22)
(0.106787 -0.166573 7.83994e-21)
(0.116054 -0.157552 -3.80173e-21)
(0.0776742 -0.0978788 0)
(0.147963 -0.0587473 8.13275e-22)
(0.0848535 -0.0374712 -2.54532e-21)
(0.243865 -0.0760979 6.70688e-22)
(0.420931 -0.130942 0)
(0.288174 -0.0993353 9.52386e-22)
(0.540588 -0.166633 3.25409e-21)
(0.725414 -0.219487 -1.92157e-21)
(0.506609 -0.149 0)
(0.367188 -0.108462 -1.09948e-23)
(0.905993 -0.283374 7.16131e-21)
(1.01024 -0.31853 -1.19234e-23)
(1.06618 -0.335408 -5.90734e-21)
(1.09134 -0.341212 4.63742e-24)
(1.09563 -0.340293 0)
(1.08258 -0.334346 8.9835e-24)
(1.05013 -0.323402 -4.53588e-21)
(0.993202 -0.306258 -4.29811e-21)
(0.907014 -0.281282 4.14473e-21)
(0.789732 -0.247347 3.78085e-24)
(0.643448 -0.204332 8.14577e-21)
(0.473891 -0.153162 0)
(0.289136 -0.0953678 -8.62532e-21)
(0.097355 -0.0325867 -3.49625e-24)
(1.00111 0.009525 0)
(1.00516 0.0346887 -1.79901e-20)
(1.01117 0.0690753 0)
(1.01336 0.117065 -1.82613e-20)
(0.997625 0.189032 -1.88566e-20)
(0.938589 0.303926 2.08017e-20)
(0.699564 0.433156 0)
(0.783452 0.461569 -7.12833e-22)
(0.318541 0.353592 2.2099e-20)
(0.425206 0.466585 -2.01202e-20)
(0.0417877 -0.0443699 0)
(0.0312253 0.010118 0)
(0.171067 0.15516 -1.16746e-20)
(0.193305 0.240921 1.1474e-20)
(0.0390971 -0.0782435 -1.46375e-20)
(0.105112 -0.031404 5.3599e-22)
(0.214745 -0.0602925 1.37541e-23)
(0.0816097 -0.0223405 -4.00165e-23)
(0.199494 -0.0544667 8.82899e-22)
(0.332265 -0.0929515 -3.6964e-21)
(0.480309 -0.135901 -3.35642e-21)
(0.674957 -0.194948 -7.93975e-21)
(0.460757 -0.127235 2.029e-22)
(0.307715 -0.0843393 0)
(0.175121 -0.0472601 7.32524e-24)
(0.184966 -0.0498261 -1.46136e-23)
(0.865919 -0.262553 -6.70479e-21)
(0.984323 -0.303282 1.27753e-23)
(1.05216 -0.325423 -1.0115e-23)
(1.08509 -0.33549 -7.98261e-25)
(1.09357 -0.336978 8.76768e-24)
(1.08194 -0.332219 -1.71827e-23)
(1.04917 -0.32177 4.11963e-21)
(0.991136 -0.304744 -3.92836e-21)
(0.903721 -0.279734 7.40309e-24)
(0.785494 -0.245759 -1.47738e-20)
(0.63883 -0.202787 7.45185e-21)
(0.469666 -0.151807 0)
(0.286113 -0.0943984 -3.75888e-24)
(0.0961946 -0.0322239 3.51502e-24)
(1.00102 0.00805321 0)
(1.00577 0.0305817 1.09781e-21)
(1.01441 0.0626851 0)
(1.02341 0.108359 1.85248e-20)
(1.02511 0.177316 3.48063e-20)
(1.00747 0.291223 -4.81314e-21)
(0.899661 0.546743 -5.31458e-21)
(0.561438 0.556957 0)
(0.694734 0.61144 1.00879e-20)
(0.0646332 0.193572 2.66374e-21)
(0.100833 0.251002 0)
(0.208108 0.350651 -1.24658e-21)
(0.149775 0.303947 -8.80857e-22)
(0.0310311 0.0713033 -3.71096e-22)
(0.0414069 0.13224 0)
(0.0696528 -0.0176482 0)
(0.0645863 -0.0161826 -5.68247e-22)
(0.165004 -0.0433095 9.9871e-22)
(0.158939 -0.041593 -7.59539e-24)
(0.290566 -0.0770174 3.78187e-21)
(0.44319 -0.120878 -3.29946e-24)
(0.633566 -0.17883 5.60053e-21)
(0.429063 -0.115847 -3.24862e-21)
(0.277956 -0.0729217 2.27503e-21)
(0.1474 -0.0383741 0)
(0.152056 -0.0395263 -9.69395e-22)
(0.0566458 -0.0142442 -2.75541e-25)
(0.0601192 -0.0149776 2.74819e-25)
(0.827976 -0.245059 6.24375e-21)
(0.957704 -0.288947 -7.00452e-25)
(1.03674 -0.316364 -8.69378e-24)
(1.07768 -0.329939 -4.59507e-21)
(1.09051 -0.333567 -1.681e-23)
(1.08048 -0.330005 -4.02427e-21)
(1.04764 -0.320105 3.86428e-24)
(0.988696 -0.303237 3.67231e-24)
(0.900196 -0.278216 1.03346e-20)
(0.781137 -0.24421 1.15853e-22)
(0.634193 -0.201284 2.93766e-25)
(0.465496 -0.150493 3.24515e-24)
(0.283183 -0.0934619 3.24528e-25)
(0.0950825 -0.0318749 0)
(1.00093 0.00651787 0)
(1.00614 0.0260808 2.54561e-20)
(1.01657 0.0552374 0)
(1.03034 0.0973463 0)
(1.04376 0.160524 -2.47302e-21)
(1.0531 0.261517 -1.52798e-20)
(1.05194 0.494429 6.85732e-21)
(0.770996 0.694455 -1.54582e-22)
(0.964247 0.747505 2.85404e-21)
(0.279249 0.47421 -3.5766e-21)
(0.435305 0.586266 7.25163e-21)
(0.657873 0.685708 0)
(0.551931 0.636396 -2.86756e-21)
(0.053302 -0.0132366 0)
(0.0513087 -0.0127668 5.89709e-25)
(0.142424 -0.0363379 -2.33053e-23)
(0.139638 -0.0355415 -1.00723e-21)
(0.267885 -0.0694421 -7.51644e-22)
(0.414972 -0.111691 4.94769e-23)
(0.595801 -0.16567 -6.95058e-21)
(0.402482 -0.107521 0)
(0.259257 -0.067107 2.93619e-21)
(0.133952 -0.0339923 1.01903e-21)
(0.136214 -0.0346006 3.9685e-24)
(0.0474659 -0.0118523 2.42615e-24)
(0.0491744 -0.0122061 6.17892e-22)
(0.790941 -0.228747 -1.20716e-23)
(0.931577 -0.277006 -1.97479e-23)
(1.02128 -0.308089 4.75172e-21)
(1.06955 -0.324478 0)
(1.08656 -0.330101 8.04472e-24)
(1.07828 -0.327735 3.44679e-24)
(1.04557 -0.318413 0)
(0.985912 -0.301736 -3.27737e-21)
(0.896469 -0.276725 -3.10607e-21)
(0.776686 -0.2427 -6.23616e-21)
(0.62956 -0.199823 2.66748e-25)
(0.461403 -0.149217 -6.22607e-24)
(0.280343 -0.0925579 6.88303e-21)
(0.094015 -0.0315382 -2.70457e-24)
(1.00083 0.00495562 0)
(1.00631 0.021357 -8.27592e-21)
(1.01789 0.0471574 0)
(1.03483 0.0850751 1.37504e-20)
(1.05559 0.141483 -1.39252e-20)
(1.0814 0.227589 0)
(1.12367 0.407326 -1.14149e-20)
(1.18088 0.631472 -1.6357e-21)
(0.460642 0.474538 0)
(0.599276 0.478533 -5.89754e-21)
(0.382241 0.325604 4.55782e-21)
(0.809624 0.498533 -3.41535e-23)
(0.100269 0.201897 0)
(0.254606 0.349131 0)
(0.346214 0.372767 0)
(0.0458462 -0.0113316 -1.27219e-21)
(0.04496 -0.0111136 5.33099e-24)
(0.13112 -0.0330818 1.01361e-21)
(0.129528 -0.032575 1.02079e-21)
(0.251392 -0.0647505 2.14983e-21)
(0.388623 -0.103938 0)
(0.554038 -0.151047 1.52942e-21)
(0.373973 -0.0991332 0)
(0.243809 -0.0627853 -6.56018e-22)
(0.125647 -0.0316316 -9.95933e-22)
(0.127217 -0.0321275 2.00231e-21)
(0.0431643 -0.0106714 0)
(0.0439576 -0.0108601 -3.12263e-25)
(0.756797 -0.216137 -4.37969e-23)
(0.907999 -0.266787 2.008e-23)
(1.00627 -0.300376 0)
(1.06087 -0.319173 -3.68159e-24)
(1.08184 -0.326634 -3.59288e-21)
(1.07543 -0.325431 -3.44067e-24)
(1.04303 -0.3167 3.163e-21)
(0.982818 -0.300239 -3.00158e-21)
(0.89256 -0.275262 5.75112e-21)
(0.772159 -0.241228 -2.8956e-24)
(0.624944 -0.1984 2.89734e-24)
(0.457396 -0.14798 -5.72926e-21)
(0.277596 -0.0916812 2.89855e-24)
(0.0929862 -0.0312132 5.4301e-21)
(1.00073 0.00339236 0)
(1.00636 0.0165333 1.46914e-23)
(1.01859 0.0387553 -1.21608e-23)
(1.03747 0.0722103 -1.3963e-20)
(1.06263 0.121637 0)
(1.09814 0.195062 0)
(1.15188 0.324686 6.83408e-21)
(1.32147 0.542936 3.08043e-24)
(0.825987 0.263756 0)
(1.17055 0.395137 6.59919e-23)
(0.187487 0.214636 2.07979e-22)
(0.209345 0.139551 0)
(0.612209 0.280879 5.58657e-23)
(0.237233 0.120874 5.69923e-21)
(0.0423081 -0.0104297 -6.46027e-22)
(0.0418127 -0.0102867 0)
(0.12347 -0.0310844 -9.62691e-25)
(0.122171 -0.0306147 1.06123e-23)
(0.235863 -0.0606294 -1.32364e-21)
(0.354007 -0.093839 -2.78796e-21)
(0.515653 -0.139757 0)
(0.328876 -0.0849236 -2.69912e-21)
(0.22621 -0.0582264 1.02813e-23)
(0.118871 -0.02982 5.51283e-24)
(0.120256 -0.0303143 3.68456e-24)
(0.0405984 -0.0100007 0)
(0.0411639 -0.0101538 -6.3696e-22)
(0.72915 -0.205965 4.48596e-23)
(0.887001 -0.25779 1.72557e-23)
(0.991691 -0.293248 3.7728e-24)
(1.05177 -0.314067 3.65639e-21)
(1.0765 -0.323194 0)
(1.07201 -0.3231 -3.09937e-21)
(1.04006 -0.314967 0)
(0.979433 -0.298752 2.81533e-24)
(0.888484 -0.27383 2.71062e-24)
(0.767583 -0.239793 5.25419e-21)
(0.620379 -0.197014 -2.43522e-24)
(0.45348 -0.146771 0)
(0.274931 -0.0908321 -5.57205e-21)
(0.0920008 -0.0309002 4.88544e-21)
(1.00063 0.00184662 0)
(1.00631 0.0116972 0)
(1.01886 0.0302462 -1.4363e-23)
(1.03877 0.0591737 2.61651e-23)
(1.06635 0.101855 4.87376e-21)
(1.10671 0.164402 0)
(1.16368 0.259571 -2.59512e-21)
(1.33711 0.432154 0)
(1.35137 0.350146 -5.14404e-20)
(0.196924 0.0520324 4.87577e-21)
(0.659835 0.167381 0)
(0.313148 0.0780754 0)
(0.901902 0.16684 3.51468e-20)
(0.0399557 -0.00984175 -6.22047e-22)
(0.0395267 -0.0097087 6.16141e-22)
(0.116915 -0.0294221 4.71125e-24)
(0.115414 -0.028891 1.81213e-21)
(0.210776 -0.0543329 2.12748e-21)
(0.305734 -0.0799214 0)
(0.491096 -0.13155 0)
(0.294207 -0.0765888 0)
(0.176281 -0.0438096 0)
(0.110497 -0.0277857 1.73731e-21)
(0.113251 -0.0286105 -3.72586e-24)
(0.0385034 -0.00946497 5.97747e-22)
(0.0389916 -0.00960999 -5.861e-25)
(0.706567 -0.197665 1.9374e-23)
(0.867937 -0.249868 -1.7497e-23)
(0.977531 -0.286654 -3.80293e-24)
(1.04237 -0.309164 3.31879e-21)
(1.07064 -0.319789 0)
(1.06807 -0.320747 -2.66324e-24)
(1.03669 -0.313225 0)
(0.975782 -0.297284 -4.75611e-24)
(0.884271 -0.272429 -4.83137e-21)
(0.762982 -0.238383 -1.9975e-25)
(0.615856 -0.195648 2.01634e-25)
(0.449653 -0.145592 4.98834e-21)
(0.272355 -0.090009 0)
(0.09106 -0.0306004 -2.0972e-24)
(1.00055 0.000331706 0)
(1.0062 0.00690898 -7.49231e-21)
(1.01883 0.0217731 0)
(1.03913 0.0462329 1.03087e-23)
(1.06783 0.0826445 -4.96185e-21)
(1.10973 0.13547 -2.8161e-21)
(1.16839 0.208723 -5.71365e-22)
(1.30919 0.333093 -3.10286e-23)
(1.48649 0.34091 3.66823e-20)
(1.03906 0.0993676 2.72599e-20)
(0.461469 0.0515856 4.71083e-22)
(0.179372 0.0101704 -1.07443e-20)
(0.606075 0.0139958 2.60267e-20)
(0.0379416 -0.00934156 3.33395e-24)
(0.0374548 -0.00919485 -1.15429e-21)
(0.105371 -0.0270065 -8.41497e-22)
(0.0969867 -0.0232574 4.20439e-22)
(0.151628 -0.0386683 6.0077e-22)
(0.286087 -0.0740767 0)
(0.473492 -0.125997 -1.45904e-21)
(0.280676 -0.0720975 0)
(0.144944 -0.0364824 -5.55441e-22)
(0.0431248 -0.0116884 -1.80031e-22)
(0.0651446 -0.0121005 -2.64242e-22)
(0.035982 -0.0088681 -5.55372e-22)
(0.0368425 -0.00909742 -5.67939e-22)
(0.68717 -0.190729 -4.82094e-21)
(0.850371 -0.24279 0)
(0.963713 -0.28052 -3.48871e-21)
(1.03271 -0.304442 0)
(1.06431 -0.316406 0)
(1.06368 -0.318387 2.658e-24)
(1.03295 -0.311497 0)
(0.971893 -0.295842 9.11866e-24)
(0.879943 -0.271041 0)
(0.758358 -0.236985 -2.23394e-24)
(0.611394 -0.194304 -4.31455e-21)
(0.445922 -0.144441 2.30234e-24)
(0.269875 -0.0892139 0)
(0.0901466 -0.0303093 2.10669e-24)
(1.00046 -0.0011417 0)
(1.00604 0.00221091 1.5112e-20)
(1.01858 0.0134253 -6.7727e-21)
(1.03889 0.0335419 0)
(1.06784 0.0642153 -1.67621e-23)
(1.10941 0.108449 2.87868e-21)
(1.16806 0.167001 5.9955e-22)
(1.27833 0.255106 6.72542e-21)
(1.47514 0.290821 3.34671e-23)
(1.41901 0.163783 -9.50523e-20)
(0.674956 -0.0334155 -9.42758e-20)
(0.370453 -0.017845 3.9819e-20)
(0.317758 -0.0143464 0)
(0.0974163 -0.0164165 1.01056e-20)
(0.231798 -0.0240322 1.46268e-20)
(0.0340218 -0.00867771 9.63485e-24)
(0.0315179 -0.00826255 0)
(0.0375825 -0.00956817 -4.91913e-22)
(0.0350235 -0.00888947 -6.09665e-22)
(0.141298 -0.0353958 -6.04154e-22)
(0.275177 -0.0709552 2.49691e-21)
(0.45898 -0.121759 5.45969e-21)
(0.27125 -0.0695944 0)
(0.138509 -0.034611 5.58982e-22)
(0.0339349 -0.00831496 0)
(0.0342931 -0.00854624 5.78119e-22)
(0.0181447 -0.00320476 9.74351e-23)
(0.670057 -0.184637 0)
(0.83385 -0.236363 -7.00361e-24)
(0.950101 -0.274762 0)
(1.02281 -0.29984 0)
(1.05755 -0.313048 0)
(1.05885 -0.316054 2.40226e-21)
(1.02888 -0.309804 2.26647e-21)
(0.967797 -0.294407 -4.3644e-24)
(0.875511 -0.26965 0)
(0.753724 -0.23559 1.88468e-24)
(0.606994 -0.192979 4.0867e-21)
(0.44229 -0.143315 0)
(0.267464 -0.0884421 -2.05967e-24)
(0.0892746 -0.0300304 1.77187e-24)
(1.00039 -0.00256379 7.8365e-21)
(1.00584 -0.00236577 -7.62418e-21)
(1.01818 0.00525788 6.88432e-21)
(1.03825 0.0211783 -5.66217e-21)
(1.06692 0.046602 0)
(1.10731 0.0833993 6.53313e-24)
(1.16404 0.131201 0)
(1.25476 0.195474 -1.03217e-20)
(1.41829 0.233671 -1.26061e-23)
(1.53228 0.173707 8.02933e-21)
(1.20383 0.0311644 5.48789e-20)
(0.481955 -0.0738382 -8.02674e-20)
(0.193305 -0.0282548 5.04096e-20)
(0.234599 -0.0473884 -2.06054e-20)
(0.117579 -0.00990357 0)
(0.158976 -0.0225388 1.47685e-23)
(0.0613294 -0.0134514 3.95599e-23)
(0.033507 -0.00828228 5.50473e-22)
(0.0333207 -0.0081555 -5.41338e-22)
(0.136069 -0.0340531 5.3706e-22)
(0.266629 -0.0687764 -2.3024e-21)
(0.446825 -0.117631 1.21337e-21)
(0.263159 -0.0676975 -1.68293e-23)
(0.133996 -0.033493 5.34675e-22)
(0.0327987 -0.00801828 -5.2363e-22)
(0.0329236 -0.0081271 -2.05991e-24)
(0.654284 -0.179227 -4.18436e-21)
(0.817925 -0.230431 7.05989e-24)
(0.936531 -0.269223 -2.7743e-24)
(1.01264 -0.295304 0)
(1.05041 -0.309764 -2.40371e-21)
(1.05367 -0.313807 -2.22573e-21)
(1.02455 -0.308132 -3.91129e-24)
(0.96352 -0.292956 -3.69302e-24)
(0.870987 -0.268244 1.77137e-24)
(0.749097 -0.2342 -3.64541e-21)
(0.60266 -0.19167 -3.75575e-21)
(0.438751 -0.14222 1.78366e-24)
(0.265142 -0.0876973 1.71408e-25)
(0.0884374 -0.0297609 -3.40823e-24)
(1.00032 -0.00392404 -7.90098e-21)
(1.00561 -0.00679349 0)
(1.01768 -0.00269389 7.84178e-25)
(1.03737 0.00917227 3.62979e-23)
(1.06548 0.0297566 3.1851e-24)
(1.10434 0.0601625 0)
(1.15799 0.0995677 1.5939e-24)
(1.23657 0.148639 3.06933e-22)
(1.36374 0.182196 7.47907e-21)
(1.51231 0.156015 5.90634e-20)
(1.46778 0.0667293 0)
(0.997661 -0.0438545 5.80326e-20)
(0.40057 -0.0725679 -2.07153e-20)
(0.182656 -0.036945 -2.71932e-22)
(0.170546 -0.0457333 4.79282e-21)
(0.0628572 -0.00902965 -1.99142e-22)
(0.0668687 -0.0146079 -1.24593e-20)
(0.0776867 -0.0152926 1.3086e-20)
(0.0822852 -0.0233306 1.3361e-20)
(0.0228071 -0.00481752 0)
(0.0371506 -0.00980665 -9.51657e-21)
(0.0324089 -0.00800367 -5.13054e-22)
(0.0322932 -0.00790301 -5.04333e-22)
(0.131878 -0.0330471 1.52401e-21)
(0.259569 -0.0672816 -2.1776e-21)
(0.43535 -0.114223 5.91743e-21)
(0.257539 -0.065673 -1.84456e-21)
(0.129754 -0.0325835 0)
(0.0318317 -0.00778248 1.92016e-24)
(0.0319371 -0.00788639 -9.92048e-22)
(0.639167 -0.17424 -3.94263e-21)
(0.802171 -0.224743 -3.19509e-21)
(0.922794 -0.263728 2.78198e-24)
(1.00221 -0.290893 -4.61794e-24)
(1.043 -0.306675 -3.19767e-25)
(1.04824 -0.311625 2.05874e-21)
(1.01999 -0.30644 3.90625e-24)
(0.959073 -0.291474 3.68827e-24)
(0.86639 -0.266824 1.75172e-21)
(0.744479 -0.232813 3.34742e-21)
(0.598407 -0.190385 0)
(0.435318 -0.141153 -1.78561e-24)
(0.262896 -0.0869751 1.89605e-24)
(0.0876333 -0.029503 -3.2857e-21)
(1.00025 -0.00520889 0)
(1.00533 -0.0110433 2.00295e-24)
(1.01706 -0.0104027 0)
(1.03632 -0.00247618 5.82234e-21)
(1.06377 0.0135963 4.22479e-21)
(1.10106 0.0384643 -4.16822e-24)
(1.1513 0.0711007 0)
(1.22108 0.110054 3.1916e-21)
(1.32275 0.138924 -1.45601e-20)
(1.45388 0.128293 -2.76012e-20)
(1.53152 0.0739254 6.56283e-23)
(1.35052 -0.0113089 0)
(0.846385 -0.0818323 -1.22274e-22)
(0.356108 -0.0666103 -8.15798e-20)
(0.170163 -0.0310113 -5.67057e-22)
(0.175006 -0.0402401 3.27494e-20)
(0.0912082 -0.0192373 -1.57744e-22)
(0.087014 -0.0209076 0)
(0.0752709 -0.0175675 -5.72954e-21)
(0.0617083 -0.0204559 0)
(0.0110808 -0.00226197 8.18091e-21)
(0.0134898 -0.00392496 0)
(0.0169297 -0.00432076 -6.48282e-23)
(0.0145306 -0.00638444 -8.32086e-21)
(0.031465 -0.00777558 4.7576e-22)
(0.0313508 -0.00767538 -4.69335e-22)
(0.127849 -0.0323296 2.29567e-21)
(0.252892 -0.0644387 -4.48192e-22)
(0.424549 -0.111158 5.4994e-21)
(0.250246 -0.0635226 -2.19649e-21)
(0.157834 -0.041959 0)
(0.158028 -0.0408235 5.62542e-22)
(0.030833 -0.0075699 -1.75999e-24)
(0.0309736 -0.0076568 -4.59211e-22)
(0.623978 -0.169386 3.67621e-21)
(0.785955 -0.218953 0)
(0.908862 -0.258287 0)
(0.991715 -0.286861 4.62874e-24)
(1.03551 -0.303751 -2.07824e-21)
(1.04264 -0.309449 1.90513e-21)
(1.01521 -0.304715 0)
(0.954473 -0.289964 -1.64959e-21)
(0.861739 -0.265395 0)
(0.739898 -0.231435 0)
(0.594247 -0.189122 0)
(0.431983 -0.140116 -3.28319e-21)
(0.260727 -0.0862781 3.32549e-21)
(0.0868586 -0.0292551 -2.87896e-24)
(1.00019 -0.00640142 0)
(1.005 -0.0150792 -3.96586e-24)
(1.01633 -0.0178384 3.37734e-24)
(1.03513 -0.0137778 0)
(1.06194 -0.00198472 -8.71447e-21)
(1.0978 0.018002 2.35031e-21)
(1.14485 0.0450892 1.0451e-24)
(1.20744 0.0769274 0)
(1.29249 0.102283 6.99164e-21)
(1.39927 0.0998366 -1.17594e-23)
(1.50207 0.065556 0)
(1.49857 0.00611688 -1.37877e-22)
(1.22906 -0.0649307 -4.32994e-20)
(0.743089 -0.0970403 6.21665e-20)
(0.335273 -0.0644015 -9.67078e-20)
(0.157129 -0.0295381 3.401e-20)
(0.157921 -0.0353022 -1.33035e-22)
(0.0620668 -0.0132698 -6.96775e-21)
(0.089937 -0.0207321 -1.03449e-20)
(0.0898077 -0.022721 1.01708e-20)
(0.0435367 -0.0101583 -1.36389e-22)
(0.0413833 -0.00931747 0)
(0.0251065 -0.00338046 3.9213e-21)
(0.0120297 -0.0040954 -8.66449e-21)
(0.0305112 -0.00754438 -4.49232e-22)
(0.0302881 -0.00756467 -4.39143e-22)
(0.0936226 -0.0252171 -6.0728e-22)
(0.1569 -0.0397706 5.7117e-22)
(0.156376 -0.0392572 0)
(0.247126 -0.0630495 3.34828e-24)
(0.41344 -0.108033 -9.74207e-22)
(0.244571 -0.0621622 -1.63562e-21)
(0.155536 -0.0390365 5.54374e-22)
(0.154877 -0.0387779 5.50177e-22)
(0.0937753 -0.0241263 -1.0094e-21)
(0.607463 -0.164218 0)
(0.76906 -0.212743 0)
(0.895116 -0.253504 0)
(0.981544 -0.283154 8.03594e-24)
(1.02805 -0.300898 -1.91496e-21)
(1.03685 -0.307265 0)
(1.01024 -0.302964 0)
(0.949757 -0.288434 0)
(0.857058 -0.263955 0)
(0.735366 -0.230066 0)
(0.590176 -0.187884 5.75486e-21)
(0.428739 -0.139106 -1.38842e-24)
(0.25863 -0.0856073 -3.21825e-21)
(0.0861175 -0.0290163 2.78623e-21)
(1.00013 -0.00747898 4.41498e-24)
(1.00459 -0.0188529 8.37356e-24)
(1.01544 -0.0249592 3.96572e-24)
(1.03377 -0.0247383 -3.35296e-24)
(1.06002 -0.0170919 9.16533e-21)
(1.09473 -0.00152569 -4.93629e-21)
(1.13907 0.0209307 0)
(1.19572 0.0475818 0)
(1.269 0.070283 -5.61417e-21)
(1.35746 0.0732995 0)
(1.45057 0.0510932 -1.24407e-20)
(1.51468 0.0100198 0)
(1.44005 -0.0469959 3.85553e-20)
(1.12218 -0.097491 -8.78937e-23)
(0.674746 -0.101714 6.19105e-20)
(0.320583 -0.0630186 -3.71445e-20)
(0.161687 -0.0319799 -7.23897e-22)
(0.157747 -0.0351432 6.35225e-20)
(0.0584441 -0.0133647 -2.94781e-20)
(0.056988 -0.0135969 7.19683e-21)
(0.0112674 -0.00240517 6.55739e-21)
(0.0450604 -0.0113558 -1.64763e-22)
(0.0114058 -0.00353992 0)
(0.0447942 -0.0116115 -8.59687e-21)
(0.01067 -0.00303298 -6.14012e-21)
(0.0107862 -0.00306689 -6.07224e-21)
(0.00642499 -0.000865308 4.67559e-21)
(0.0305709 -0.00794148 4.25272e-22)
(0.0921318 -0.0231658 1.96215e-24)
(0.0915573 -0.0227814 -5.01732e-22)
(0.153943 -0.0386997 5.36745e-22)
(0.153278 -0.0384863 5.25966e-22)
(0.241411 -0.0615814 0)
(0.39993 -0.10438 -1.01699e-21)
(0.238342 -0.0605055 1.51535e-21)
(0.152359 -0.0383277 4.99962e-25)
(0.151621 -0.0380371 -5.00713e-25)
(0.0911177 -0.0226332 -9.84082e-22)
(0.0907314 -0.0225103 -4.90601e-22)
(0.0305404 -0.00767778 3.74463e-22)
(0.588087 -0.157545 0)
(0.752518 -0.207593 0)
(0.882386 -0.249252 8.54396e-24)
(0.971815 -0.279617 1.96703e-21)
(1.02058 -0.2981 0)
(1.03091 -0.305084 3.0322e-24)
(1.00512 -0.301193 0)
(0.94495 -0.286881 1.42168e-21)
(0.852373 -0.262511 -1.36966e-21)
(0.730896 -0.228714 -2.60674e-21)
(0.586202 -0.186675 2.70231e-21)
(0.42559 -0.138127 2.65901e-21)
(0.256608 -0.0849586 -2.80224e-21)
(0.0853997 -0.0287846 -2.32178e-24)
(1.00007 -0.0084119 0)
(1.00409 -0.0222995 4.25464e-24)