/*--------------------------------*- C++ -*----------------------------------*\
| =========                 |                                                 |
| \\      /  F ield         | OpenFOAM: The Open Source CFD Toolbox           |
|  \\    /   O peration     | Version:  v1912                                 |
|   \\  /    A nd           | Website:  www.openfoam.com                      |
|    \\/     M anipulation  |                                                 |
\*---------------------------------------------------------------------------*/
FoamFile
{
    version     2.0;
    format      ascii;
    class       surfaceScalarField;
    location    "200";
    object      phi;
}
// * * * * * * * * * * * * * * * * * * * * * * * * * * * * * * * * * * * * * //

dimensions      [0 3 -1 0 0 0 0];
oriented        oriented;


internalField   nonuniform List<scalar> 
7200
(
-8.42708e-05
0.0100461
-0.000172425
0.0100534
2.48538e-05
0.0100211
-0.000267691
0.0100665
3.74047e-05
0.0100408
0.000173329
0.00984746
-0.000372058
0.0100837
2.67259e-05
0.0100771
0.000318193
0.00989598
0.000406917
0.00944016
-0.000486336
0.0101023
-1.35027e-05
0.0101239
0.000412285
0.00998305
0.000751022
0.00955187
0.000832606
0.00860706
-0.000610286
0.0101201
-8.54779e-05
0.0101743
0.000443792
0.0100924
0.000989009
0.00974506
0.00150342
0.00888106
0.00167995
0.00342061
0.00350585
-0.000742674
0.0101356
-0.000187504
0.0102222
0.000411463
0.0102066
0.00110107
0.00998033
0.00193819
0.00931029
0.00287168
0.00374343
0.00394591
0.000813879
0.00260642
0.00152939
0.00279034
-0.000882439
0.0101484
-0.000316536
0.0102646
0.000320968
0.0103127
0.00109383
0.0102138
0.00211439
0.00980414
0.00360065
0.00858131
0.00215866
0.00311416
0.00265893
0.00344563
0.00123695
0.000675065
0.000694148
0.00232524
0.000921846
0.000780208
-0.00102821
0.0101581
-0.000467847
0.0102997
0.000181738
0.0104038
0.000988621
0.0104179
0.00207748
0.0102507
0.00373008
0.00967471
-0.0036408
0.00705795
0.00363484
0.00418825
0.00307342
0.00113755
0.00122843
0.00287825
0.000396986
0.000278077
0.000791522
0.000299611
-0.00119563
0.00151015
0.000607325
0.0003761
-0.00117903
0.0101653
-0.000637581
0.0103278
3.11158e-06
0.0104783
0.00080862
0.0105838
0.00189333
0.010602
0.00350454
0.0104763
0.00651518
0.0102175
0.00573676
-0.00518484
0.00169724
0.00138569
0.0055979
0.00432711
0.00183293
0.000814775
0.00208853
0.000972825
-0.00210288
0.00104639
0.000838434
0.000278136
0.000577747
-0.000953847
0.00156117
-0.00133267
0.0101691
-0.000821549
0.0103493
-0.000205784
0.0105367
0.000573587
0.0107133
0.0016124
0.0108648
0.00310526
0.0110013
0.00558465
0.0114068
-0.00535124
0.00994463
0.00527742
0.00594458
-0.00260762
0.00278134
0.00152351
-0.00218777
0.000965839
-0.00210114
0.00211457
0.00174378
0.00174028
0.000635666
0.000610223
-0.00208432
0.000942945
-0.00124589
-0.00149104
0.0101734
-0.00101769
0.0103653
-0.000437573
0.0105811
0.000298896
0.0108114
0.00126937
0.0110564
0.00261756
0.0113525
0.0046246
0.0119613
0.00807098
0.0132804
0.00441077
-0.00198724
0.00438749
-0.0015336
0.00444344
0.00591191
-0.00190878
0.00133116
-0.000942945
-0.00166004
0.00178738
-0.00133116
0.00141489
0.000635666
-0.00165098
0.0101749
-0.00122213
0.0103778
-0.000687521
0.0106152
-4.28649e-06
0.0108843
0.000888057
0.0111927
0.00208905
0.0115849
0.00374056
0.0122365
0.00629336
0.013739
-0.00314643
0.00720865
0.0136617
0.00247751
0.00315561
-0.000540798
-0.000704831
-0.000977883
0.00123166
0.00524298
0.000437003
-0.00181198
0.010175
-0.00143286
0.0103857
-0.000949241
0.0106395
-0.000326343
0.0109373
0.000483393
0.0112889
0.00154623
0.0117355
0.00293137
0.0123941
0.00482921
0.0137007
0.00600502
0.0149426
-0.00187927
0.00440239
0.0123624
-0.00122383
0.00111089
-0.000140897
0.00226381
-7.81864e-05
-0.000963831
0.000423033
-0.000437003
0.0044746
-0.00197567
0.0101767
-0.00165041
0.0103925
-0.00122257
0.010659
-0.000661832
0.010975
6.59469e-05
0.0113547
0.00100452
0.0118306
0.00218237
0.0124845
0.00365265
0.0135706
0.0047453
0.0149604
0.00435882
0.0149862
0.00231284
0.0107524
-0.000239114
-0.000463694
-0.000505087
0.00375585
0.000282136
0.00179495
-1.01552e-05
-2.60797e-05
0.000203949
-0.00213974
0.0101771
-0.00187165
0.0103979
-0.0015032
0.0106732
-0.00100818
0.0110053
-0.000360601
0.0114016
0.000467108
0.0118922
0.00148249
0.0125305
0.00267395
0.0134632
0.0036369
0.014679
0.00373793
0.0155813
0.00289361
0.0144054
0.00121886
0.00966766
-0.000105158
-2.90084e-05
-0.00333752
0.00302172
7.66833e-05
-4.53594e-05
0.00164993
2.32594e-05
7.64033e-05
-0.00017787
0.000167715
-0.00230596
0.0101772
-0.00209676
0.0104022
-0.00179063
0.0106854
-0.00136203
0.011027
-0.000792137
0.0114369
-6.30587e-05
0.0119317
0.000821572
0.0125531
0.00182388
0.0133806
0.00268329
0.0144168
0.0029887
0.0154283
0.0027461
0.0157288
0.001914
0.0137103
0.000758498
0.00906095
-0.000100043
-5.1737e-05
-0.00292991
0.00283629
-1.15339e-05
6.28011e-05
0.00155391
7.44692e-05
9.82402e-05
0.000190974
0.000267377
-0.00247216
0.0101772
-0.00232511
0.0104056
-0.00208281
0.0106944
-0.00172322
0.0110465
-0.00122903
0.0114639
-0.000586307
0.0119601
0.00019229
0.012561
0.00106204
0.0133149
0.00184444
0.0142194
0.0022576
0.0151479
0.00229339
0.015881
0.00201361
0.0156292
0.00132282
0.0131459
0.000539461
0.00866804
-8.21791e-05
-6.43758e-05
-0.00279276
0.00272148
-2.87614e-05
-8.20909e-06
-0.00157796
0.00157311
-8.07215e-06
1.38166e-06
3.6342e-05
2.4076e-06
-0.000299463
0.00034585
2.80826e-05
6.61545e-05
-0.00264012
0.010177
-0.00255614
0.0104082
-0.0023811
0.0107039
-0.00209232
0.0110635
-0.00167059
0.0114881
-0.00110847
0.0119861
-0.000417479
0.0125699
0.000356891
0.0132662
0.00108406
0.0140753
0.00156443
0.0149126
0.00175785
0.0156835
0.00175547
0.0161391
0.0015006
0.0154514
0.000973882
0.0127115
0.000409525
0.00838748
-6.55416e-05
-6.34208e-05
-0.00267741
0.00262349
-2.82637e-05
-2.03064e-05
-0.00156635
0.00154404
-4.39121e-06
-2.05369e-06
9.95009e-07
-2.44358e-06
-0.000376659
0.000370622
-2.03544e-06
-0.000375175
-1.01922e-07
0.000373323
8.86846e-06
5.55199e-07
-6.61545e-05
9.42371e-05
-0.00280762
0.0101765
-0.00278822
0.010409
-0.0026818
0.0107089
-0.00246622
0.0110778
-0.00211921
0.0115121
-0.00163153
0.0120112
-0.00101428
0.0125829
-0.00030962
0.0132364
0.000379208
0.013971
0.000907292
0.0147324
0.00121428
0.0154562
0.00135857
0.0160804
0.00135752
0.0162822
0.00115937
0.0152659
0.000751095
0.01237
0.00031751
0.00818237
-5.20906e-05
-6.03095e-05
-0.00258273
0.00254278
-2.55886e-05
-2.2665e-05
-0.0015272
0.00150503
-3.45487e-06
-2.63894e-06
-1.19101e-06
-2.27765e-06
-0.000366663
0.000363282
-1.0096e-06
-0.000368451
-2.65854e-07
0.000370892
7.25117e-07
-2.61733e-09
-0.000103559
0.000101523
-0.000103661
0.000103106
-0.00297536
0.0101767
-0.00302262
0.0104109
-0.00298831
0.0107156
-0.00284809
0.0110908
-0.00257664
0.0115352
-0.00216233
0.0120429
-0.00160921
0.0126061
-0.000956258
0.0132295
-0.000290496
0.0139061
0.000274862
0.0146034
0.000670636
0.0152761
0.000920728
0.015894
0.00105942
0.0163785
0.00107926
0.0163623
0.000929341
0.0150877
0.000588437
0.012099
0.000230115
0.00803972
-3.26871e-05
-5.47788e-05
-0.0025054
0.00247665
-2.33377e-05
-2.29298e-05
-0.0014867
0.00146691
-3.00228e-06
-2.79227e-06
-2.00983e-06
-2.32906e-06
-0.000357749
0.000355135
-8.41275e-07
-0.000359955
-4.32938e-07
0.00036201
8.01445e-08
-2.22169e-07
-0.00010198
0.00010097
-0.000102246
0.000102248
-0.00314289
0.0101755
-0.00325621
0.0104103
-0.00329548
0.0107181
-0.00323582
0.0111033
-0.00304485
0.011559
-0.00270379
0.0120766
-0.00220905
0.0126427
-0.00159597
0.0132458
-0.000938709
0.0138777
-0.000338123
0.0145191
0.000133522
0.0151405
0.000472068
0.0157247
0.000703104
0.0162503
0.000846727
0.016611
0.000890355
0.0164013
0.000758943
0.0149172
0.000449293
0.0118798
0.000111903
0.00794517
1.65519e-05
-3.39131e-05
-0.00244335
0.00242841
-1.77498e-05
-2.14794e-05
-0.00144895
0.00143151
-2.82152e-06
-3.07277e-06
-2.53627e-06
-2.43679e-06
-0.000349085
0.000346849
-7.66394e-07
-0.000351386
-4.9141e-07
0.000353348
-2.22973e-07
-3.66765e-07
-0.000100395
9.95541e-05
-0.000100828
0.000101051
-0.0033106
0.0101757
-0.00348944
0.0104088
-0.00360463
0.0107195
-0.00363078
0.011113
-0.00352455
0.011583
-0.00326242
0.0121176
-0.002824
0.0126916
-0.00224218
0.0132889
-0.00158361
0.0138907
-0.00094465
0.0144843
-0.000402245
0.0150549
1.72339e-05
0.0155954
0.000330273
0.0160976
0.000552983
0.0165441
0.000706391
0.016795
0.000754924
0.0164053
0.000618215
0.0147482
0.000311114
0.0116806
-5.05952e-05
0.00781954
0.000134528
4.16975e-05
-0.00240631
0.00241732
5.54033e-06
-1.18137e-05
-0.00141544
0.00140339
-2.36866e-06
-3.32817e-06
-2.99901e-06
-2.41112e-06
-0.000340287
0.000338229
-7.63615e-07
-0.000342776
-5.84247e-07
0.000344737
-4.24441e-07
-4.74998e-07
-9.8473e-05
9.77066e-05
-9.89644e-05
9.93312e-05
-0.00347561
0.010173
-0.00371803
0.0104043
-0.00391204
0.0107162
-0.00402816
0.0111169
-0.00401815
0.0116066
-0.00384384
0.0121644
-0.00346368
0.0127573
-0.00290819
0.0133576
-0.00223653
0.0139419
-0.00154905
0.0144951
-0.000936086
0.0150181
-0.0004389
0.015511
-5.2155e-05
0.0159778
0.000237301
0.0164132
0.000461055
0.0167894
0.000616518
0.0169334
0.000649775
0.0163737
0.000495624
0.0145637
0.000181542
0.0114485
-0.000136538
0.00761007
0.000173509
0.000172498
-0.00241992
0.00244312
0.000111335
3.90984e-05
-0.00139633
0.00140451
4.28807e-07
-3.06391e-06
-3.25537e-06
-1.5038e-06
-0.000331263
0.00032964
-7.45242e-07
-0.000333942
-6.49464e-07
0.000335799
-5.68841e-07
-5.54067e-07
-9.62229e-05
9.54593e-05
-9.68071e-05
9.72821e-05
-0.00363776
0.0101691
-0.00394085
0.0103958
-0.00421252
0.0107048
-0.00442673
0.0111147
-0.00452675
0.0116255
-0.00445331
0.0122161
-0.00413833
0.012839
-0.00361001
0.0134591
-0.00291274
0.0140338
-0.00216312
0.0145559
-0.00147324
0.0150323
-0.000899469
0.0154787
-0.000440464
0.0158993
-8.5807e-05
0.0163009
0.000193551
0.0166807
0.00041062
0.0169953
0.000554902
0.0170282
0.000566458
0.0163029
0.000399988
0.0143453
0.000126605
0.0111854
-2.21814e-05
0.00749717
2.22066e-05
0.000112879
-0.00243368
0.00243122
0.000175966
0.000181932
-0.00143425
0.00148092
4.71197e-05
1.7552e-05
-1.9489e-07
9.54711e-06
-0.000323563
0.000324374
-3.81658e-07
-0.000326029
-5.98554e-07
0.000327021
-6.37061e-07
-5.11256e-07
-9.36869e-05
9.29416e-05
-9.43364e-05
9.48904e-05
-0.00379651
0.0101637
-0.00415364
0.0103819
-0.00450206
0.0106854
-0.00482193
0.0111
-0.00504569
0.0116337
-0.00509425
0.0122664
-0.00485885
0.0129366
-0.0043634
0.0135924
-0.00362354
0.0141699
-0.00279366
0.0146643
-0.00201798
0.0151007
-0.00136225
0.0154951
-0.000830128
0.0158683
-0.000413
0.0162265
-8.3343e-05
0.0165778
0.000179717
0.0169116
0.00038814
0.0171621
0.000514996
0.0170797
0.0005091
0.0161938
0.000361678
0.0141102
0.000183501
0.0109797
0.000133066
0.007418
-5.01961e-05
-3.70631e-06
-0.00245397
0.00245197
2.42109e-05
9.01345e-05
-0.00149414
0.00152047
5.36137e-05
9.60177e-05
7.385e-05
9.48614e-05
-0.000342344
0.00036729
2.21738e-05
-0.000331759
6.96735e-06
0.000324107
7.20129e-08
1.8949e-06
-9.11948e-05
9.08131e-05
-9.17933e-05
9.23046e-05
-0.00394991
0.0101554
-0.00434988
0.01036
-0.0047713
0.0106512
-0.00520187
0.0110653
-0.00557113
0.0116254
-0.00576817
0.0123076
-0.0056363
0.0130439
-0.00518821
0.0137614
-0.00439073
0.0143596
-0.00345384
0.0148301
-0.00257286
0.0152192
-0.00182815
0.0155666
-0.00122251
0.0158874
-0.000742886
0.0161982
-0.000362152
0.0165053
-5.61254e-05
0.0168137
0.000191373
0.0171084
0.000383481
0.0172936
0.00049537
0.0170934
0.000491931
0.0160635
0.000388392
0.0139053
0.000288223
0.0108245
0.000225466
0.00730694
-6.65627e-05
-4.78404e-05
-0.00245415
0.00242946
-2.55057e-05
-5.89046e-06
-0.00156524
0.00158538
-3.61902e-06
7.69231e-06
3.54258e-05
9.93732e-06
-0.000443894
0.000463806
3.37018e-05
-0.000412612
6.47351e-05
0.000389836
5.13032e-05
7.2086e-05
-9.97473e-05
0.000121921
-9.278e-05
9.08851e-05
-0.00409468
0.0101418
-0.00452379
0.0103293
-0.00501118
0.0105999
-0.00555745
0.0110068
-0.00609328
0.0115875
-0.00647177
0.012329
-0.00648396
0.0131553
-0.0061156
0.0139713
-0.00523335
0.014604
-0.00415045
0.0150563
-0.00314251
0.0153997
-0.0022987
0.0156898
-0.00161644
0.0159605
-0.00107306
0.0162176
-0.000642407
0.0164785
-0.000297034
0.0167462
-1.4927e-05
0.01702
0.000217429
0.0172745
0.000395601
0.0173934
0.000501214
0.0170841
0.000512432
0.0159395
0.000453606
0.0137399
0.00037406
0.0106759
0.000265144
0.00716406
-6.29658e-05
-5.93024e-05
-0.00241131
0.00237937
-3.46201e-05
-2.96958e-05
-0.00158743
0.00157502
-8.06977e-06
-5.0219e-06
-1.19208e-06
-6.74914e-06
-0.000493575
0.000491332
-1.37579e-06
-0.000487774
1.89054e-06
0.000483489
1.57424e-05
5.65301e-06
-0.000240932
0.000265778
8.85582e-06
-0.000199512
2.33147e-05
0.000173224
4.57984e-05
-0.00422652
0.0101228
-0.00466677
0.0102848
-0.00520742
0.0105255
-0.00586907
0.0109115
-0.00659149
0.011505
-0.00719449
0.0123102
-0.0074202
0.0132653
-0.00719123
0.0142309
-0.00618054
0.0149185
-0.00489565
0.0153492
-0.00372837
0.0156421
-0.00277247
0.0158735
-0.0020077
0.016081
-0.00140134
0.0162888
-0.000920424
0.0164956
-0.000533977
0.0167154
-0.000220808
0.0169521
3.84751e-05
0.0171989
0.00025365
0.0174164
0.000423702
0.0174709
0.000529912
0.0170667
0.000558589
0.0158345
0.000519472
0.0135945
0.000422833
0.0105182
0.00028364
0.00701945
-8.1552e-05
-5.74772e-05
-0.00235211
0.00231857
-2.94264e-05
-3.20389e-05
-0.00155865
0.00153809
-7.51863e-06
-6.54279e-06
-5.81141e-06
-7.52023e-06
-0.000485374
0.000480871
-3.56625e-06
-0.000487667
-2.72961e-06
0.000491786
-1.64546e-06
-2.63029e-06
-0.000285478
0.000284642
-5.39677e-07
-0.000283535
-5.18224e-08
0.000278592
2.92885e-06
7.09151e-07
-6.91132e-05
7.7969e-05
-4.57984e-05
-0.00434458
0.0101011
-0.0047706
0.0102267
-0.00534292
0.0104203
-0.00610914
0.0107656
-0.00703823
0.0113582
-0.00792071
0.0122312
-0.00848981
0.0133798
-0.00849421
0.0145682
-0.00727548
0.0153258
-0.00570598
0.0157288
-0.00433664
0.0159575
-0.00325126
0.0161209
-0.0023976
0.0162634
-0.00172678
0.0164065
-0.00119516
0.0165635
-0.000770176
0.0167318
-0.000427362
0.016922
-0.000143869
0.0171344
9.54698e-05
0.0173571
0.000298572
0.0175415
0.000463821
0.017537
0.000573748
0.0170515
0.000611338
0.0157427
0.000564818
0.0134525
0.000444064
0.0103578
0.000277156
-0.000141463
0.00688376
-0.00227911
0.00213891
5.86439e-05
-1.80192e-05
-0.00151845
0.00149902
-4.51366e-06
-5.48054e-06
-6.0452e-06
-6.35055e-06
-0.000470024
0.000465914
-3.40925e-06
-0.000473593
-2.97363e-06
0.000478008
-2.94838e-06
-3.10536e-06
-0.000279558
0.000276876
-8.83613e-07
-0.000281548
-7.40126e-07
0.000283463
-4.66606e-07
-7.15279e-07
-8.15551e-05
8.10155e-05
-8.1607e-05
8.08978e-05
-0.00444719
0.0100786
-0.00482739
0.0101579
-0.00539579
0.0102795
-0.00624334
0.0105544
-0.00739187
0.0111193
-0.00863518
0.0120727
-0.00976296
0.0135043
-0.0101327
0.0150182
-0.00857201
0.0158648
-0.00660126
0.0162211
-0.00497412
0.0163663
-0.00373591
0.0164422
-0.00278423
0.0165075
-0.00204631
0.0165829
-0.00146415
0.0166755
-0.00100204
0.0167954
-0.000629642
0.0169341
-0.00032317
0.0171013
-6.47157e-05
0.0172946
0.000157088
0.0174986
0.000350687
0.0176547
0.000511276
0.0175994
0.000620362
0.0170425
0.000650982
0.0156565
0.000586669
0.0133099
0.000439852
0.0101951
-0.00158035
0.00359803
-9.13783e-06
-1.1089e-05
0.000261407
-0.000127149
0.0067495
-0.00149241
-2.92977e-05
-2.26712e-06
-9.14804e-06
-0.000455398
0.000452219
-1.33422e-06
-0.000458851
-2.02757e-06
0.000462627
-2.75729e-06
-2.57555e-06
-0.000269958
0.000267371
-8.21624e-07
-0.000272206
-7.2533e-07
0.000274548
-6.21042e-07
-7.63587e-07
-7.90934e-05
7.82098e-05
-7.98336e-05
8.05488e-05
-0.00453622
0.010061
-0.00483703
0.0100883
-0.00535237
0.0101144
-0.00622904
0.0102652
-0.00757686
0.0107394
-0.00928931
0.0117734
-0.0112715
0.0135812
-0.0121578
0.0155295
-0.0100452
0.0164914
-0.00755036
0.0168139
-0.00562815
0.0168751
-0.00422576
0.0168561
-0.00316954
0.0168275
-0.00235728
0.0168185
-0.00172451
0.0168433
-0.00122804
0.0169015
-0.000827322
0.0169931
-0.000500588
0.0171115
-0.00022714
0.0172637
9.30762e-06
0.0174424
0.000219339
0.0176299
0.000405977
0.01776
0.000560035
0.0176598
0.00066197
0.0170315
0.000674674
0.0155685
0.000584456
0.0131653
0.000414843
0.0100417
0.00349413
-1.07776e-05
-1.24707e-05
-0.000666272
0.000657868
-4.04278e-07
-3.29787e-07
-0.000676084
-4.62569e-07
-8.14289e-07
0.000218834
-0.000104137
0.0066348
-0.000417522
-8.53849e-07
-8.38115e-07
-0.000286168
0.000446897
3.0553e-06
2.02266e-05
-0.000261644
0.000260634
-3.25188e-07
-0.00026321
-4.60967e-07
0.000265162
-5.48515e-07
-6.23931e-07
-7.60999e-05
7.52782e-05
-7.68252e-05
7.75888e-05
-0.00461505
0.0100498
-0.00480644
0.0100304
-0.00521257
0.00994845
-0.00602511
0.00991051
-0.00748446
0.0101728
-0.0097066
0.0111567
-0.0128784
0.0133803
-0.0143744
0.0157978
-0.0114106
0.0168949
-0.00835614
0.0172972
-0.0061937
0.0173794
-0.00467268
0.017322
-0.00353266
0.0172192
-0.00265759
0.0171278
-0.00197866
0.0170726
-0.00144658
0.0170618
-0.0010205
0.0170947
-0.000673523
0.017166
-0.000384508
0.0172689
-0.000136256
0.0174093
8.09047e-05
0.0175808
0.000278824
0.0177571
0.000457005
0.017863
0.00060529
0.0177164
0.000689897
0.0170163
0.000678962
0.015474
0.000560394
0.0130198
0.00036455
0.00989596
0.00341456
-1.04416e-05
-1.41265e-05
-0.000646344
0.000636811
-6.39406e-07
-6.04969e-07
-4.14629e-07
-5.32763e-07
-6.77689e-05
6.73646e-05
-6.80987e-05
-6.85613e-05
-6.93756e-05
0.000140244
-4.73323e-05
0.00654189
-7.02295e-05
-7.10676e-05
-0.000263143
-2.79836e-06
5.46345e-07
-7.36448e-05
7.33196e-05
-7.41058e-05
7.47297e-05
-0.00468805
0.010046
-0.00475039
0.00999378
-0.00500106
0.00981894
-0.00563423
0.00955757
-0.00700974
0.0094358
-0.00958619
0.0100524
-0.0140902
0.0123686
-0.0160068
0.0150127
-0.0118616
0.0162488
-0.0084796
0.0170184
-0.00635348
0.017457
-0.00490974
0.0176165
-0.00379964
0.017589
-0.00291471
0.0174764
-0.00221111
0.0173602
-0.00165341
0.0172795
-0.0012052
0.0172466
-0.000840894
0.017262
-0.000538725
0.0173202
-0.000281121
0.0174137
-5.58288e-05
0.017546
0.00014883
0.0177108
0.000335192
0.0178789
0.000504732
0.0179636
0.000639699
0.0177666
0.000702823
0.0169924
0.000663465
0.0153709
0.000515347
0.012869
0.00028923
0.00974697
0.00338203
-1.96871e-06
-1.28332e-05
-0.000623962
0.000614938
-6.93486e-07
-7.25229e-07
-5.72176e-07
-7.04953e-07
-6.58122e-05
6.51728e-05
-6.64172e-05
-6.68318e-05
2.74364e-05
8.43869e-05
0.00643007
-7.3866e-05
-0.00475898
0.0100499
-0.00468306
0.00997867
-0.00475164
0.00974435
-0.00512106
0.00930577
-0.00613662
0.00868445
-0.00867629
0.00444657
0.00407933
-0.00648943
0.00534693
0.00470116
-0.00759644
-0.00885314
0.00657999
-0.00683805
0.00547298
-0.00589815
0.0131845
-0.00413533
-0.00704532
0.0148145
-0.0055834
0.0162483
-0.00461412
0.0171613
-0.00379134
0.0176082
-0.00304113
0.0177154
-0.00238738
0.0176526
-0.00183572
0.0175425
-0.00137841
0.0174527
-0.0010015
0.0174072
-0.000688124
0.0174114
-0.000421902
0.017461
-0.000188967
0.0175469
1.87428e-05
0.0176761
0.000209092
0.0178369
0.000386978
0.0179966
0.000546086
0.0180572
0.000661801
0.0178077
0.000701036
0.0169548
0.000630984
0.0152553
0.00045512
0.0127031
0.000205795
0.00956862
0.00339231
6.48776e-05
9.22988e-06
-0.000603433
0.000602661
-4.65873e-07
-7.30825e-07
-5.45341e-07
-7.82335e-07
-6.31704e-05
6.24769e-05
-6.38956e-05
-6.44678e-05
-3.65374e-05
0.000196723
0.00626989
-0.00483136
0.0100574
-0.00461634
0.0099832
-0.00449497
0.009722
-0.00456687
0.00919016
-0.00506937
0.00823852
-0.00682649
0.00355928
0.00327537
-0.00607274
0.00402987
-0.00546514
0.00347173
-0.00879624
0.00529002
-0.00418281
-0.00338122
0.00150709
0.00196187
-0.00710719
0.00189762
0.001643
-0.00504568
0.00572752
-0.00313465
0.00182808
0.00155221
-0.00179367
-0.00201706
-0.00136323
0.0018275
0.00198009
-0.0020071
0.00955173
-0.00140542
-0.00147775
0.00405417
-0.000984224
-0.00349493
0.0127261
-0.00343752
0.0150717
-0.00325018
0.0166202
-0.00286769
0.0174347
-0.0024114
0.0177395
-0.00194898
0.0177659
-0.00152361
0.0176877
-0.00115077
0.0176019
-0.000830942
0.01755
-0.000556837
0.0175464
-0.000319896
0.0175919
-0.000109738
0.0176754
8.35351e-05
0.0178016
0.000263349
0.0179606
0.00043145
0.0181113
0.000575612
0.0181434
0.000671609
0.0178371
0.000686039
0.0168998
0.000591251
0.0151191
0.000397474
0.0125114
0.000168232
0.00936385
0.00334324
0.000115934
0.000129859
-0.000611634
0.00065922
1.40589e-05
3.2336e-06
8.15107e-07
-5.58083e-07
-6.04184e-05
5.99526e-05
-6.11492e-05
-6.16946e-05
3.98465e-05
5.87685e-05
0.00617127
-0.00490805
0.0100697
-0.00456386
0.0100049
-0.00426206
0.00975029
-0.00404192
0.00919705
-0.004019
0.00813979
-0.00463378
0.00305211
0.00299369
-0.00465716
0.0027513
-0.00358374
0.00220195
-0.00629794
0.00126916
0.00139332
0.00163912
-0.00392431
-0.00320147
0.00145936
0.00296645
-0.00145936
0.00179367
-0.00345822
0.00117691
-0.00155221
0.00136323
0.001081
0.000746493
0.00158334
0.00273897
-0.000390621
-0.000301283
-0.000432878
0.0067562
-0.00026652
0.00167202
-0.0001776
-0.000160868
-0.000428314
0.00102743
-0.00148609
0.0107746
-0.00208168
0.0139032
-0.00223948
0.015992
-0.00214795
0.0171713
-0.00190452
0.017695
-0.00158987
0.0178322
-0.00126382
0.0178008
-0.000959687
0.0177307
-0.000686559
0.0176797
-0.000446743
0.0176732
-0.000232201
0.0177144
-3.81539e-05
0.0177971
0.000140782
0.0179242
0.000310594
0.0180814
0.000466066
0.0182208
0.000597481
0.0182175
0.000674878
0.0178483
0.000665466
0.0168256
0.000555417
0.0149612
0.000373276
0.0123064
0.000207038
0.00919666
0.00335477
-1.64405e-06
4.88806e-05
-0.000704739
0.000750378
2.14955e-05
4.88002e-05
4.88378e-05
3.55022e-05
-6.34433e-05
7.75023e-05
-6.02096e-05
-5.93945e-05
0.000140629
-5.68462e-05
0.00608749
-0.00499108
0.010082
-0.00453016
0.010036
-0.00407113
0.00981398
-0.00360048
0.00930885
-0.00310567
0.00828372
-0.00270717
0.00303575
0.00317744
-0.00262752
0.00103726
0.00105863
-0.00155592
0.0019221
-0.00496127
0.000881148
0.000533479
-0.00177571
-0.00162731
0.000303668
0.000340026
0.00301048
-0.00282029
0.00107897
0.000945579
-0.00202455
0.000318179
0.00075974
-0.000122931
0.000534677
-7.62209e-05
0.0012994
-3.54705e-05
-2.47791e-05
6.21256e-05
0.00515979
4.81967e-05
0.00106898
-2.66761e-05
-9.42915e-06
0.000396297
-3.92197e-05
0.000274407
-3.89782e-05
-0.000709799
0.00940274
-0.00123314
0.0128969
-0.00153378
0.0153778
-0.00160673
0.0168735
-0.00150391
0.017609
-0.00129905
0.0178674
-0.00105209
0.0178932
-0.000800911
0.017845
-0.000566833
0.0177998
-0.000352208
0.0177932
-0.000158267
0.0178345
2.15925e-05
0.0179162
0.000191208
0.0180436
0.000349888
0.0181976
0.000495113
0.0183232
0.000610492
0.0182819
0.000670026
0.0178437
0.000647334
0.0167336
0.000540813
0.0147937
0.000392632
0.0121208
0.000279234
0.00905805
0.00332494
-2.00505e-05
-6.96371e-06
-0.000788054
0.000789734
-3.10941e-06
-2.14287e-07
8.91621e-07
1.03131e-05
-0.000165029
0.000180382
6.14248e-06
-0.000132385
1.61561e-05
-0.000113004
2.94578e-05
0.000206452
-0.000103682
0.00598472
-0.00508059
0.0100935
-0.00452039
0.0100723
-0.00393094
0.0098958
-0.00326865
0.00948215
-0.00243493
0.00863811
-0.00114872
0.00672527
-0.000604731
0.00208456
0.000204385
0.00236832
0.00143673
-0.00105202
0.000652544
0.000719653
-0.000460806
0.000809235
0.000269956
0.000251691
-0.00193914
-0.00140566
-0.00119242
0.000284769
0.00106564
-0.000761969
0.00107897
0.000195248
0.000119027
0.000235631
3.30536e-06
0.000214895
-4.04307e-06
0.00101996
4.97798e-05
6.13642e-05
1.92814e-06
0.00448723
-3.91698e-05
0.000998663
4.75776e-05
2.19179e-05
0.000194738
-6.51875e-06
0.000186672
-1.36382e-06
7.98073e-05
4.0829e-05
-0.0003132
0.0084828
-0.000724897
0.012088
-0.00105324
0.0148243
-0.00120233
0.0165719
-0.0011903
0.0175003
-0.00106484
0.0178801
-0.000876889
0.0179692
-0.000668952
0.0179472
-0.000465143
0.0179127
-0.000273349
0.0179083
-9.36164e-05
0.0179497
7.33503e-05
0.0180341
0.000232826
0.0181607
0.000383015
0.0183097
0.000517488
0.0184162
0.000620115
0.0183318
0.000667692
0.0178233
0.000642008
0.0166325
0.000550887
0.0146354
0.000440004
0.01196
0.000340985
0.00892352
0.00325466
-1.91634e-05
-1.4236e-05
-0.000786863
0.000772594
-3.22357e-06
-2.55749e-06
-2.65089e-06
-1.44149e-06
-0.000190075
0.00018776
-7.9506e-07
-0.000189774
-5.15322e-07
-0.000188913
3.10939e-08
1.78242e-06
-4.56138e-05
5.17563e-05
-2.94578e-05
0.000238784
-0.000119198
0.00586514
-0.00517798
0.0101054
-0.00453503
0.0101082
-0.00384345
0.00998476
-0.00304556
0.00967271
-0.0020142
0.00906143
-0.000388625
0.00787801
-0.00140889
0.00318569
0.0022734
0.00287945
0.000691897
0.000398024
0.000533833
0.000871848
0.000779482
0.000269357
-4.38476e-05
0.000313804
0.000207844
-0.0004772
4.41344e-05
4.00913e-05
0.000203117
3.33357e-05
0.000224065
4.04155e-05
0.000985939
1.65567e-05
-1.90517e-06
-9.39408e-06
0.00414866
3.47636e-05
0.000977549
-3.07796e-05
0.000242913
2.87301e-05
0.000251274
1.35564e-05
3.35725e-05
3.22087e-05
-0.000101808
0.00785971
-0.000429593
0.0114643
-0.000719958
0.0143419
-0.000905032
0.0162867
-0.00094708
0.0173825
-0.000874813
0.0178781
-0.000734253
0.0180345
-0.000561784
0.0180438
-0.000382299
0.0180217
-0.000206529
0.0180212
-4.07885e-05
0.0180638
0.000118122
0.0181488
0.000267656
0.018276
0.000409055
0.0184181
0.000533441
0.0185029
0.000627775
0.0183717
0.000671552
0.0177938
0.00065135
0.016532
0.000580873
0.0144945
0.000487831
0.0118131
0.000379738
0.00878257
0.00316903
-1.81195e-05
-1.54413e-05
-0.000762267
0.000748056
-2.64123e-06
-2.31027e-06
-2.13947e-06
-1.76997e-06
-0.000182821
0.000180409
-8.10816e-07
-0.000184599
-7.79633e-07
-0.000186637
-6.13146e-07
-3.17851e-07
-5.30546e-05
5.22596e-05
-5.35699e-05
-5.35388e-05
0.000251427
-0.00012365
0.00573736
-0.00528208
0.0101141
-0.00457165
0.010142
-0.00380285
0.0100676
-0.0029142
0.0098534
-0.0017877
0.0094462
-0.000126222
0.00879902
0.00305881
0.00800489
0.0032139
-0.00127191
-0.00113047
0.00089208
0.000569797
0.00324237
0.00285099
0.000711827
0.00085875
0.00038691
-0.00109018
0.000690114
0.000548057
6.55444e-05
8.89607e-05
1.69991e-05
0.000254692
1.31385e-05
0.000234123
1.86639e-05
0.000958914
9.24061e-06
6.26136e-05
0.00394228
4.19542e-05
0.000947791
4.58872e-05
-0.00014938
0.00035518
-1.48753e-06
-9.68664e-07
0.00011003
7.66122e-06
0.000120748
2.83836e-06
-2.82066e-05
0.00745833
-0.000234806
0.0109792
-0.000496641
0.0139336
-0.000683519
0.0160231
-0.000755067
0.0172628
-0.000721555
0.0178654
-0.000615372
0.0180881
-0.000469807
0.0181313
-0.000310073
0.0181252
-0.000149856
0.0181303
5.58968e-06
0.0181764
0.000155462
0.018261
0.000297625
0.0183874
0.000432372
0.0185192
0.000551001
0.0185796
0.000638766
0.0184045
0.00068222
0.0177629
0.000672777
0.0164401
0.000616431
0.0143659
0.00052345
0.0116694
0.000398066
0.00863593
0.00307881
-1.73953e-05
-1.60369e-05
-0.000736313
0.000722876
-2.4325e-06
-2.24852e-06
-1.94361e-06
-1.75477e-06
-0.000175539
0.000173563
-6.6553e-07
-0.000177194
-6.55286e-07
-0.000178878
-4.55284e-07
-2.38743e-07
-5.0549e-05
4.97382e-05
-5.13286e-05
-5.19417e-05
0.000252966
-0.000123054
0.00560745
-0.00539034
0.0101203
-0.00463087
0.0101733
-0.00380477
0.0101439
-0.00285931
0.0100127
-0.00169904
0.00976474
-0.000114223
0.00943421
0.00248545
0.00937238
-0.00235594
0.00530676
0.0038079
0.00448854
-0.000934967
0.000494611
-0.00106441
0.000991362
0.000965127
-0.000494611
-0.00067682
0.00127697
0.000886263
0.00038691
1.69991e-05
0.000130135
3.75123e-06
-5.80806e-07
0.000362669
-7.16478e-08
1.82245e-06
0.000939005
7.13995e-05
2.72112e-05
0.00386273
2.41353e-05
0.000945989
3.49698e-05
0.000384969
1.78658e-05
5.72138e-06
-2.97004e-05
2.82129e-05
-3.06691e-05
2.46603e-05
2.74987e-05
5.49317e-05
0.00716859
-0.000121871
0.0106044
-0.000343445
0.0135935
-0.000517601
0.0157856
-0.00060634
0.0171476
-0.00059854
0.0178485
-0.00051667
0.0181349
-0.000393921
0.0182152
-0.000250225
0.0182256
-0.000102927
0.0182388
4.39464e-05
0.0182879
0.000186159
0.0183725
0.00032324
0.0184966
0.000451953
0.0186182
0.000565586
0.0186528
0.000652957
0.0184338
0.000700969
0.0177347
0.000697849
0.0163587
0.000645096
0.0142443
0.000542984
0.0115245
0.0004018
0.00848709
0.00298843
-1.6567e-05
-1.61099e-05
-0.000710526
0.000697674
-2.3205e-06
-2.22204e-06
-1.88711e-06
-1.80011e-06
-0.000168877
0.000167072
-6.27929e-07
-0.000170499
-6.25957e-07
-0.000172028
-4.14411e-07
-2.19563e-07
-4.8389e-05
4.77235e-05
-4.90442e-05
-4.94995e-05
0.000247179
-0.000119621
0.00547989
-0.0055057
0.0101274
-0.0047109
0.0102003
-0.00384064
0.0102092
-0.00286099
0.0101456
-0.00170435
0.010018
-0.000231473
0.00988199
0.00187423
0.0100454
0.00424162
0.0104375
0.00175318
-0.00064608
0.00322597
-0.000525179
0.00189499
0.00434673
0.000288307
-0.000491205
0.00112209
-0.000288307
0.000683365
3.12499e-05
2.81412e-05
2.99637e-05
0.000409384
2.58397e-05
2.11454e-05
0.000955508
1.7692e-05
5.08595e-05
0.00379625
7.05516e-05
0.000966775
1.28682e-05
0.000433907
1.03471e-06
9.41194e-06
-3.56851e-05
5.35508e-05
8.47382e-05
0.00696198
-5.57316e-05
0.0103167
-0.000229365
0.0133052
-0.000392977
0.0155723
-0.000487453
0.0170365
-0.000498203
0.0178301
-0.000437774
0.0181788
-0.000330653
0.0182956
-0.000199957
0.0183226
-6.21569e-05
0.0183449
7.7905e-05
0.0183961
0.000213538
0.0184822
0.000346275
0.0186023
0.000469435
0.0187144
0.000583106
0.0187227
0.000671813
0.0184629
0.000721209
0.0177114
0.000721499
0.0162823
0.000662408
0.0141249
0.000547951
0.0113784
0.000394388
0.00833988
0.00290037
-1.56544e-05
-1.59054e-05
-0.000685183
0.000672978
-2.20231e-06
-2.15907e-06
-1.82121e-06
-1.79759e-06
-0.000162414
0.000160699
-6.05873e-07
-0.00016402
-6.15791e-07
-0.000165497
-4.09699e-07
-2.2449e-07
-4.64637e-05
4.58358e-05
-4.70896e-05
-4.75039e-05
0.00023544
-0.000114009
0.00535846
-0.00563029
0.0101356
-0.00481194
0.0102284
-0.0039084
0.0102681
-0.00290738
0.0102556
-0.0017722
0.0102135
-0.000413658
0.0102002
0.00132377
0.0104325
0.00321125
0.0110758
-0.0013904
0.00343144
0.0102915
0.000995766
0.00266696
-0.000171695
-0.000265058
-0.000323115
0.000920025
0.00395209
0.000360251
6.62152e-05
1.31753e-05
8.09906e-05
6.36997e-06
0.000449823
1.87866e-06
-1.03188e-07
0.000974905
4.27299e-05
7.24575e-05
0.00376125
4.72822e-05
0.000980964
6.44922e-05
0.000462877
7.63592e-07
-9.48958e-07
-8.85758e-05
8.97842e-05