/*--------------------------------*- C++ -*----------------------------------*\
| =========                 |                                                 |
| \\      /  F ield         | OpenFOAM: The Open Source CFD Toolbox           |
|  \\    /   O peration     | Version:  v1912                                 |
|   \\  /    A nd           | Website:  www.openfoam.com                      |
|    \\/     M anipulation  |                                                 |
\*---------------------------------------------------------------------------*/
FoamFile
{
    version     2.0;
    format      ascii;
    class       surfaceScalarField;
    location    "140";
    object      phi;
}
// * * * * * * * * * * * * * * * * * * * * * * * * * * * * * * * * * * * * * //

dimensions      [0 3 -1 0 0 0 0];
oriented        oriented;


internalField   nonuniform List<scalar> 
7191
(
-2.02526e-06
0.00132313
-9.31659e-06
0.00397164
-2.17893e-06
0.0013253
-2.46233e-05
0.00657819
-9.7052e-06
0.00397916
-2.18171e-06
0.00132749
-4.54461e-05
0.00905562
-2.44945e-05
0.00659298
-9.70864e-06
0.00398669
-2.06096e-06
0.00132955
-7.5797e-05
0.0112923
-4.87162e-05
0.00907984
-2.4017e-05
0.00660729
-9.58074e-06
0.00399421
-2.10156e-06
0.00133165
-0.00011649
0.013152
-7.98266e-05
0.0113234
-4.60084e-05
0.00910183
-2.46311e-05
0.00662234
-9.96268e-06
0.00400207
-1.78447e-06
0.00133344
-0.000162691
0.0145081
-0.000120151
0.0131923
-7.97164e-05
0.0113571
-4.69908e-05
0.0091242
-2.22092e-05
0.00663459
-8.31861e-06
0.00400861
-1.66031e-06
0.0013351
-0.000206828
0.0152486
-0.000165601
0.0145535
-0.000118495
0.0132311
-7.40379e-05
0.0113842
-4.20654e-05
0.00914405
-2.00108e-05
0.00664628
-7.498e-06
0.00401445
-1.55664e-06
0.00133665
-0.000249536
0.0153081
-0.000215644
0.0152986
-0.000162935
0.014598
-0.000113199
0.0132702
-7.14371e-05
0.0114135
-3.84244e-05
0.00916247
-1.86727e-05
0.00665745
-6.87519e-06
0.00401976
-1.23074e-06
0.00133789
-0.00027963
0.0146476
-0.000258433
0.0153509
-0.000211745
0.0153474
-0.000156433
0.0146412
-0.000101691
0.0133005
-6.24722e-05
0.0114376
-3.41947e-05
0.00917799
-1.59798e-05
0.00666656
-4.80401e-06
0.00402334
-1.2451e-06
0.00133913
-0.000292167
0.0133049
-0.000300479
0.0146896
-0.000258348
0.0153975
-0.000198096
0.0153891
-0.000137597
0.0146771
-9.28057e-05
0.0133308
-5.50552e-05
0.0114584
-3.05809e-05
0.00919259
-1.46275e-05
0.00667638
-5.43227e-06
0.00402753
-9.1255e-07
0.00134004
-0.000285407
0.011364
-0.000331428
0.0133358
-0.000297266
0.0147285
-0.00023732
0.0154368
-0.000174658
0.0154262
-0.000123128
0.0147074
-7.92056e-05
0.013355
-4.83013e-05
0.0114762
-2.63124e-05
0.00920428
-1.13497e-05
0.0066823
-4.81221e-06
0.00403143
-8.18511e-07
0.00134086
-0.000245645
0.00895651
-0.000351829
0.0113844
-0.000326588
0.0133651
-0.000263484
0.0147547
-0.000201078
0.0154632
-0.000148766
0.0154518
-0.000103001
0.0147312
-6.65346e-05
0.0133732
-4.02488e-05
0.0114901
-2.21058e-05
0.00921503
-1.18341e-05
0.00668932
-4.40828e-06
0.00403502
-8.55355e-07
0.00134172
0.00623395
-0.000110005
-5.02746e-05
-0.000356961
0.00896164
-0.000343226
0.0114011
-0.000276722
0.0133784
-0.000216463
0.0147701
-0.000166674
0.0154811
-0.000119947
0.0154687
-8.48057e-05
0.0147495
-5.87309e-05
0.0133917
-3.71205e-05
0.0115051
-2.13094e-05
0.00922451
-1.07061e-05
0.00669562
-4.24941e-06
0.00403841
-8.40774e-07
0.00134256
0.00621981
-0.000200937
-0.000141891
-0.0021162
0.00206977
-6.35764e-05
-3.26438e-05
-0.00213383
-0.000349157
0.00896758
-0.000268694
0.0113931
-0.000210561
0.0133725
-0.000166797
0.0147702
-0.000129591
0.0154907
-0.000101559
0.0154855
-7.42219e-05
0.014765
-4.85592e-05
0.0134031
-3.10561e-05
0.0115149
-1.80952e-05
0.0092319
-9.15606e-06
0.00670053
-4.12948e-06
0.0040417
-9.09506e-07
0.00134347
0.00620602
-0.000139888
-0.000195481
-0.00203914
0.00201201
-0.000173806
-0.000111255
-0.00139528
0.0013521
-1.54978e-05
-4.89848e-06
-9.06004e-07
-0.00142037
-6.64305e-06
-2.00569e-05
-0.00022793
0.00892681
-0.00018338
0.0113659
-0.000153756
0.0133594
-0.000128539
0.0147692
-0.000105309
0.0154945
-8.10404e-05
0.0154923
-5.8111e-05
0.0147745
-4.31227e-05
0.0134152
-2.85204e-05
0.0115253
-1.94862e-05
0.00924223
-1.06972e-05
0.0067071
-3.67537e-06
0.00404447
-1.1527e-06
0.00134462
0.00612007
-4.18545e-05
-0.00010012
-0.00198803
0.00195734
-0.000109204
-0.0001715
-0.00129746
0.0012635
-8.68919e-05
-5.29514e-05
-1.69721e-05
-3.96459e-05
-0.00043849
0.000428478
-5.48606e-06
-0.000440751
-2.63819e-06
0.00044564
-0.000445781
-7.65309e-07
-3.59953e-06
-5.45354e-08
-1.75391e-06
-0.000124972
0.00886841
-0.000116806
0.0113289
-0.000107258
0.0133382
-9.59152e-05
0.0147598
-8.01539e-05
0.0154936
-6.42363e-05
0.0154984
-5.27392e-05
0.0147841
-3.92171e-05
0.0134259
-2.79078e-05
0.0115337
-1.7847e-05
0.00924938
-1.12402e-05
0.00671466
-5.23656e-06
0.00404855
-1.21428e-06
0.00134584
0.00603979
-8.21299e-06
-3.64747e-05
-0.00191164
0.00189407
-2.4293e-05
-5.44132e-05
-0.00123548
0.00118368
-1.70067e-05
-4.03996e-05
-7.99523e-05
-6.35274e-05
-0.000379525
0.00035254
-5.99064e-05
-0.000399299
-3.31771e-05
0.000420689
-9.18254e-06
-1.82564e-05
-0.000257311
0.000252586
-7.61095e-07
-0.000259536
-4.12877e-07
-0.000448321
-1.05955e-06
0.000261015
-0.000261719
-6.16318e-08
-1.62894e-08
-2.74992e-07
-6.68821e-05
0.00881848
-7.44356e-05
0.0112961
-7.59255e-05
0.0133182
-7.23414e-05
0.014752
-6.50541e-05
0.0154944
-5.83563e-05
0.0155041
-4.74292e-05
0.0147924
-3.75383e-05
0.0134355
-2.99602e-05
0.0115458
-2.12403e-05
0.00925938
-1.10891e-05
0.00672051
-5.56287e-06
0.0040529
-1.28221e-06
0.00134712
0.00598878
-6.02665e-07
-1.52765e-05
-0.00187013
0.00186734
-5.42278e-06
-1.25277e-05
-0.00114223
0.00112125
-1.75307e-07
-3.13476e-06
-1.03948e-05
-2.57033e-06
-0.000289197
0.0002785
-6.31045e-06
-0.000310934
-1.86625e-05
0.000330975
-5.83874e-05
-4.34865e-05
-0.000207195
0.00016857
-2.12814e-05
-0.000230649
-9.72272e-06
0.000245127
-1.7236e-06
-3.77862e-06
-7.49114e-05
7.41503e-05
-7.53243e-05
-0.000262665
-1.13299e-07
7.55993e-05
-7.56609e-05
-4.43387e-08
-3.70951e-05
0.00878114
-4.86981e-05
0.0112689
-5.40328e-05
0.0132999
-5.45274e-05
0.0147414
-5.42498e-05
0.0154903
-4.93994e-05
0.015506
-4.37957e-05
0.0147986
-3.87917e-05
0.0134444
-3.03393e-05
0.0115549
-2.10494e-05
0.00926934
-1.41109e-05
0.00672906
-6.41223e-06
0.00405803
-1.60699e-06
0.00134873
0.00595855
9.81137e-07
-7.84473e-06
-0.00185558
0.00185597
-9.91306e-07
-3.52095e-06
-0.0011097
0.00110437
5.50171e-07
-6.35841e-07
-1.1989e-06
2.17181e-07
-0.000265724
0.000265641
-9.27739e-08
-0.000268484
-3.74578e-07
0.000270383
-2.2772e-06
-6.71136e-07
-8.56779e-05
7.93675e-05
-0.00010434
0.000147827
-3.7644e-05
-5.89254e-05
3.7644e-05
-6.86481e-05
7.24267e-05
-7.57743e-05
-2.18626e-05
0.00875431
-3.32472e-05
0.0112481
-4.0378e-05
0.0132857
-4.66079e-05
0.0147338
-4.77367e-05
0.0154886
-4.70998e-05
0.0155093
-4.6529e-05
0.0148064
-4.14325e-05
0.0134554
-3.34064e-05
0.0115673
-2.58026e-05
0.00928103
-1.56075e-05
0.00673826
-7.18254e-06
0.0040636
-1.64569e-06
0.00135037
0.00593997
1.67825e-06
-4.95547e-06
-0.00184953
0.00185112
-6.11074e-07
-1.39873e-06
-0.00110095
0.00109988
4.04064e-07
-3.2043e-07
-3.31927e-07
2.25122e-07
-0.000264115
0.000264606
5.95159e-08
-0.000264807
5.69198e-08
0.000264615
-1.72713e-07
2.48314e-08
-7.60445e-05
7.59518e-05
-7.64191e-05
7.70903e-05
-1.38582e-05
0.00873492
-2.46759e-05
0.0112324
-3.17872e-05
0.0132709
-3.76793e-05
0.0147237
-4.45411e-05
0.0154861
-4.80794e-05
0.0155109
-4.9941e-05
0.0148149
-4.61435e-05
0.0134682
-4.01837e-05
0.0115817
-2.92327e-05
0.00929466
-1.75019e-05
0.00674858
-8.03153e-06
0.00406999
-2.00933e-06
0.00135238
0.00592822
9.95229e-07
-3.10275e-06
-0.0018468
0.00184849
-1.3831e-08
-6.38305e-07
-0.00109851
0.0010978
2.64856e-07
-1.58519e-07
-1.8566e-07
1.52948e-07
-0.000264128
0.000264498
3.33172e-08
-0.000264529
8.10726e-08
0.00026436
-8.58553e-08
5.59069e-08
-7.58609e-05
7.59205e-05
-7.5804e-05
7.57791e-05
-9.99736e-06
0.00872024
-1.70294e-05
0.0112176
-2.7235e-05
0.0132605
-3.54367e-05
0.0147146
-4.3895e-05
0.0154819
-5.3794e-05
0.0155147
-5.63701e-05
0.0148251
-5.50171e-05
0.013483
-4.60332e-05
0.0115985
-3.47164e-05
0.00931187
-2.09252e-05
0.00676147
-9.60163e-06
0.00407758
-2.10999e-06
0.00135449
0.00591927
7.7157e-07
-1.81843e-06
-0.00184592
0.00184667
2.41658e-07
-5.25884e-07
-0.00109726
0.00109708
2.54401e-07
-9.25607e-08
-1.49047e-07
4.84383e-08
-0.000264276
0.00026453
1.10473e-08
-0.000264501
6.62867e-08
0.000264381
-6.79691e-08
3.30377e-08
-7.59717e-05
7.60051e-05
-7.58906e-05
7.58347e-05
-6.90195e-06
0.00871011
-1.40585e-05
0.0112045
-2.47611e-05
0.0132498
-3.62348e-05
0.014707
-4.93133e-05
0.0154774
-5.9466e-05
0.0155178
-6.64648e-05
0.0148365
-6.42824e-05
0.0135013
-5.42009e-05
0.0116179
-3.6606e-05
0.00932755
-2.1261e-05
0.00677313
-9.1434e-06
0.00408462
-1.92148e-06
0.00135641
0.00591261
1.19425e-06
-1.43534e-06
-0.00184522
0.00184579
1.98535e-07
-3.69377e-07
-0.0010966
0.00109679
1.65934e-07
-1.04834e-07
-8.4713e-08
3.63534e-08
-0.000264327
0.000264572
8.75467e-09
-0.000264491
7.16574e-08
0.00026446
-7.89104e-08
1.7254e-08
-7.60364e-05
7.60475e-05
-7.59701e-05
7.59371e-05
-5.75694e-06
0.00870181
-1.27797e-05
0.0111925
-2.37702e-05
0.0132373
-4.19932e-05
0.0146997
-6.09754e-05
0.0154789
-7.59871e-05
0.0155273
-8.01219e-05
0.0148524
-7.39556e-05
0.013521
-5.95186e-05
0.0116409
-4.18267e-05
0.00934812
-2.34116e-05
0.0067874
-9.04952e-06
0.00409174
-1.99087e-06
0.0013584
0.00590698
1.00496e-06
-1.1319e-06
-0.00184455
0.0018455
2.44124e-07
-1.91032e-07
-0.00109648
0.00109655
1.64387e-07
-3.98963e-08
-1.68531e-08
-4.26358e-08
-0.000264415
0.000264579
2.64482e-09
-0.000264589
6.90031e-08
0.000264567
-7.97277e-08
1.4551e-08
-7.60575e-05
7.60663e-05
-7.59859e-05
7.59686e-05
-3.93983e-06
0.00869297
-1.25012e-05
0.0111812
-2.82387e-05
0.0132236
-4.72016e-05
0.0146859
-7.09276e-05
0.0154739
-8.98208e-05
0.015537
-9.79824e-05
0.0148764
-8.76719e-05
0.0135492
-6.7254e-05
0.0116663
-4.41252e-05
0.00936883
-2.29111e-05
0.00680126
-9.74767e-06
0.0040995
-2.57095e-06
0.00136098
0.00590278
8.59433e-07
-5.99224e-07
-0.00184453
0.00184528
2.5337e-07
-1.63152e-07
-0.00109641
0.00109651
1.68181e-07
-2.79797e-08
-1.52898e-08
-3.66516e-08
-0.000264452
0.00026461
6.07352e-09
-0.00026459
9.77896e-08
0.000264641
-7.93636e-08
9.05652e-09
-7.60701e-05
7.60728e-05
-7.60011e-05
7.59866e-05
-4.5043e-06
0.00868497
-1.48807e-05
0.0111678
-3.46685e-05
0.013211
-6.48158e-05
0.0146798
-9.42292e-05
0.0154783
-0.0001133
0.0155524
-0.000113768
0.0149025
-9.80754e-05
0.01358
-7.22442e-05
0.0116944
-4.53512e-05
0.00939127
-2.32524e-05
0.00681476
-7.98742e-06
0.00410492
-7.92206e-07
0.00136177
0.00589809
4.76898e-07
-2.93456e-07
-0.00184465
0.00184522
2.88282e-07
3.30769e-08
-0.00109641
0.00109651
1.66917e-07
-1.87602e-08
-8.01689e-09
-4.67981e-08
-0.00026453
0.000264692
6.65631e-09
-0.000264624
6.61336e-08
0.000264678
-8.27951e-08
1.6805e-08
-7.61003e-05
7.61063e-05
-7.60025e-05
7.59934e-05
-4.55686e-06
0.00867465
-2.01062e-05
0.0111533
-4.71948e-05
0.0131934
-8.4561e-05
0.0146701
-0.000118656
0.0154836
-0.000137014
0.0155756
-0.00013062
0.014935
-0.000107528
0.0136153
-7.58826e-05
0.0117249
-4.27508e-05
0.00941077
-2.18377e-05
0.00682861
-6.96084e-06
0.00411109
-7.20892e-07
0.00136249
0.00589402
-7.12358e-07
2.2797e-07
-0.00184485
0.00184517
1.56985e-07
8.04252e-08
-0.00109658
0.00109671
1.70705e-07
-1.28858e-08
-3.28955e-09
-3.66374e-08
-0.000264609
0.000264781
-5.89155e-09
-0.000264615
-1.26638e-08
0.000264771
-8.72304e-08
1.0911e-07
-7.61065e-05
7.61131e-05
-7.60403e-05
7.60235e-05
-7.37349e-06
0.00866192
-2.75316e-05
0.0111336
-6.46391e-05
0.0131735
-0.0001135
0.0146649
-0.000151369
0.015498
-0.000163827
0.0156088
-0.000145498
0.014973
-0.000111803
0.0136512
-7.30898e-05
0.0117553
-4.18231e-05
0.00943075
-1.79256e-05
0.00683958
-6.44885e-06
0.00411681
-4.68023e-07
0.00136296
0.00588654
-1.00458e-06
1.10379e-06
-0.00184528
0.0018444
1.64864e-07
1.19484e-07
-0.00109682
0.00109681
1.72593e-07
-9.37586e-09
6.89011e-09
-3.0695e-08
-0.000264673
0.000264848
-4.85847e-09
-0.000264675
-1.07671e-08
0.000264824
-4.57482e-08
1.12478e-07
-7.61223e-05
7.61164e-05
-7.6135e-05
7.60259e-05
-1.10205e-05
0.0086454
-4.03614e-05
0.0111093
-9.50028e-05
0.013155
-0.000151486
0.0146651
-0.000189014
0.0155232
-0.00018602
0.0156493
-0.000155561
0.0150168
-0.000111115
0.0136892
-6.90189e-05
0.0117825
-3.71076e-05
0.00944994
-1.64551e-05
0.00684959
-3.23091e-06
0.00411958
-2.44631e-07
0.0013632
0.00587605
-1.96864e-06
1.43869e-06
-0.00184531
0.00184448
-1.70719e-07
1.92729e-07
-0.00109695
0.00109696
1.67617e-07
-1.64689e-08
7.20128e-09
-2.16149e-08
-0.000264789
0.000264966
-4.75977e-09
-0.000264789
-9.31014e-09
0.000264933
-7.81625e-08
1.1328e-07
-7.61724e-05
7.61675e-05
-7.61831e-05
7.60707e-05
-1.81471e-05
0.00862319
-6.43939e-05
0.0110787
-0.000135254
0.0131387
-0.00019925
0.0146753
-0.000222586
0.0155597
-0.000197825
0.0156916
-0.000154226
0.0150599
-0.000103361
0.0137236
-6.18403e-05
0.0118072
-3.16619e-05
0.00946514
-1.11598e-05
0.00685751
-2.96728e-06
0.0041223
1.31765e-07
0.00136307
0.00586037
-3.41408e-06
9.53223e-07
-0.00184543
0.00184385
-3.91621e-07
4.86017e-07
-0.00109718
0.00109682
1.81234e-07
6.43244e-09
3.00488e-09
-2.78574e-08
-0.000264875
0.00026505
-7.6956e-09
-0.000264915
2.29318e-08
0.000265017
-4.28804e-08
8.03541e-08
-7.61933e-05
7.61885e-05
-7.62026e-05
7.60893e-05
-3.06861e-05
0.00858948
-0.00010063
0.0110441
-0.00019153
0.013131
-0.000248748
0.0147015
-0.000241254
0.0156032
-0.000200321
0.0157377
-0.000143289
0.0150998
-9.3539e-05
0.0137553
-5.26562e-05
0.0118282
-2.3543e-05
0.00947753
-6.94436e-06
0.00686149
5.41913e-07
0.00412189
1.69201e-06
0.00136138
0.00583386
-5.86032e-06
1.67618e-06
-0.00184424
0.00184145
-6.23036e-07
5.63867e-07
-0.00109729
0.00109678
1.10514e-07
1.05893e-08
2.16439e-08
-9.96114e-09
-0.000265013
0.000265191
3.16008e-09
-0.000265017
1.02035e-08
0.000265137
-8.32185e-08
9.18784e-08
-7.62489e-05
7.62412e-05
-7.6226e-05
7.61456e-05
-5.52666e-05
0.00854412
-0.000161036
0.0110136
-0.000259755
0.013142
-0.000281013
0.0147412
-0.000244861
0.0156477
-0.000185668
0.0157801
-0.000127174
0.0151334
-7.79907e-05
0.0137806
-4.20954e-05
0.0118467
-1.63581e-05
0.00948694
-3.47807e-06
0.00686551
1.45746e-06
0.00412213
2.02895e-06
0.00135935
0.00579077
-1.20252e-05
-1.46799e-07
-0.00184315
0.00183822
-9.30481e-07
-2.07221e-08
-0.00109731
0.00109655
5.23331e-08
8.44178e-08
9.71834e-08
-6.13832e-08
-0.00026518
0.000265292
-1.01573e-09
-0.000265182
1.26207e-08
0.00026529
-7.69897e-08
9.71903e-08
-7.62601e-05
7.62632e-05
-7.62499e-05
7.6158e-05
-0.000104237
0.00848732
-0.000242963
0.0109968
-0.00031048
0.0131715
-0.00028765
0.014784
-0.000224995
0.015687
-0.000159119
0.015812
-0.000104369
0.0151598
-6.23547e-05
0.0138009
-2.94858e-05
0.0118599
-9.98614e-06
0.00949345
6.03321e-07
0.00686637
5.08728e-06
0.00411907
2.43109e-06
0.00135692
0.00571945
-2.7741e-05
-5.17645e-06
-0.00183886
0.0018297
-2.86257e-06
-7.88871e-07
-0.00109647
0.00109544
1.68598e-09
1.0254e-07
1.80717e-07
-1.24372e-07
-0.000265341
0.000265387
6.19977e-09
-0.000265303
4.62921e-08
0.000265434
-4.45438e-08
6.96147e-08
-7.6296e-05
7.6295e-05
-7.62834e-05
7.61862e-05
-0.000192244
0.0084366
-0.000328989
0.0110153
-0.000322263
0.0132061
-0.000255328
0.0148143
-0.000188713
0.0157166
-0.000131057
0.0158387
-8.29563e-05
0.0151804
-4.45355e-05
0.0138159
-1.92011e-05
0.0118691
-2.9475e-06
0.009497
3.29599e-06
0.00686816
7.15343e-06
0.00411435
2.81598e-06
0.00135411
0.00562429
-7.16244e-05
-2.54661e-05
-0.0018278
0.00180879
-8.73876e-06
-3.27709e-06
-0.00109462
0.00109197
-3.11368e-07
1.01269e-07
1.95897e-07
-1.68811e-07
-0.000265498
0.000265529
-2.92471e-08
-0.000265412
1.60411e-08
0.000265639
-7.20184e-08
1.0318e-07
-7.63663e-05
7.63725e-05
-7.632e-05
7.62504e-05
-0.000323258
0.00843087
-0.000348917
0.011042
-0.000275348
0.0132261
-0.000206905
0.0148325
-0.000147413
0.015733
-9.93033e-05
0.0158551
-5.93286e-05
0.0151952
-2.99868e-05
0.0138267
-9.26011e-06
0.0118754
3.43548e-06
0.00949687
1.04884e-05
0.00686483
7.49302e-06
0.00410967
3.29509e-06
0.00135081
0.00557165
-0.000175062
-9.55537e-05
-0.00179738
0.00175681
-3.10502e-05
-1.40561e-05
-0.00108873
0.00108063
-8.04513e-07
1.61844e-07
4.49808e-07
-4.89379e-07
-0.000265553
0.000265276
-3.3759e-08
-0.000265505
5.24192e-08
0.000265752
-2.70289e-08
7.83701e-08
-7.64197e-05
7.63904e-05
-7.64036e-05
7.63005e-05
-0.000362676
0.00844462
-0.000275158
0.0110418
-0.000205934
0.0132252
-0.000153929
0.014839
-0.000108522
0.0157422
-7.06614e-05
0.0158664
-3.99647e-05
0.0152052
-1.45491e-05
0.013832
2.17782e-06
0.0118767
1.09818e-05
0.00949637
1.16575e-05
0.00686067
9.07173e-06
0.00410389
3.83815e-06
0.00134697
0.00556552
-0.000160804
-0.000195743
-0.00172069
0.00167209
-0.000126464
-5.9433e-05
-0.00106787
0.00104067
-3.59301e-06
-2.52248e-07
1.42595e-07
-1.43747e-06
-0.00026534
0.000264611
-7.62447e-08
-0.000265204
2.56323e-08
0.000265772
-4.64594e-08
7.84469e-08
-7.64941e-05
7.64602e-05
-7.64417e-05
7.63633e-05
-0.000239491
0.00840896
-0.000178834
0.0110147
-0.000139044
0.0132103
-0.000103604
0.0148341
-7.42158e-05
0.0157458
-4.71599e-05
0.0158736
-2.12287e-05
0.0152119
-4.30709e-06
0.0138385
1.02043e-05
0.0118774
1.48996e-05
0.00949313
1.92251e-05
0.00685051
1.06281e-05
0.0040971
4.5738e-06
0.0013424
0.0054754
-4.26834e-05
-0.00010669
-0.00164484
0.00161112
-0.000127082
-0.000168496
-0.000993895
0.000918799
-3.70665e-05
-1.43019e-05
-2.0997e-06
-1.05623e-05
-0.00026326
0.00026019
-5.23406e-07
-0.000263443
-6.92047e-08
0.000264855
-1.00704e-07
-2.61156e-08
-7.65178e-05
7.64414e-05
-7.64922e-05
7.64137e-05
-0.000121081
0.00835121
-0.000106372
0.010982
-8.94037e-05
0.0131961
-6.9372e-05
0.0148293
-4.86451e-05
0.0157472
-2.51881e-05
0.0158776
-6.56961e-06
0.0152141
7.69735e-06
0.013841
1.75387e-05
0.0118748
2.1173e-05
0.00949118
1.72546e-05
0.00684388
1.50965e-05
0.00408658
6.29978e-06
0.0013361
0.00539132
-5.2921e-06
-3.17035e-05
-0.00155925
0.00153665
-2.00868e-05
-5.48175e-05
-0.000873387
0.000809889
-1.86511e-05
-4.49329e-05
-5.94645e-05
-6.36199e-05
-0.00023938
0.000212282
-9.9685e-06
-0.000249833
-3.84933e-06
0.000258695
-6.04336e-07
-1.70073e-06
-7.62453e-05
7.57218e-05
-7.63146e-05
7.63407e-05
-5.68262e-05
0.00830167
-5.92821e-05
0.0109519
-5.29423e-05
0.0131797
-4.09742e-05
0.0148216
-2.33517e-05
0.0157454
-7.44717e-06
0.0158784
5.52625e-06
0.0152163
2.0054e-05
0.0138385
2.52487e-05
0.0118707
2.78925e-05
0.00948054
2.53495e-05
0.00683363
1.527e-05
0.00407761
5.76338e-06
0.00133033
0.00534374
1.77497e-06
-1.1018e-05
-0.00151342
0.00151072
-2.5941e-06
-8.47238e-06
-0.000762675
0.000743369
9.76309e-08
-8.77784e-07
-6.35968e-06
-1.24466e-06
-0.000103864
8.52126e-05
-0.000148797
0.000174889
-2.20718e-05
-3.7527e-05
-6.95674e-05
5.95988e-05
-7.34167e-05
7.51175e-05
-2.6868e-05
0.00826925
-3.22169e-05
0.0109312
-2.81892e-05
0.0131669
-1.9227e-05
0.0148175
-9.00346e-06
0.015747
4.12604e-06
0.0158798
1.66068e-05
0.0152198
2.68643e-05
0.0138369
3.10987e-05
0.0118675
3.24624e-05
0.00947343
2.78029e-05
0.0068211
1.90675e-05
0.00406431
6.59245e-06
0.00132374
0.00531869
3.16323e-06
-4.9772e-06
-0.00150106
0.00150273
1.05472e-07
-1.35885e-06
-0.000734945
0.00073229
1.4551e-07
-8.33051e-08
-1.94072e-07
1.44799e-07
-7.67303e-05
7.68279e-05
-7.76082e-05
7.88528e-05
3.7527e-05
-1.11775e-05
0.00824822
-1.3643e-05
0.0109166
-1.19557e-05
0.0131596
-3.88731e-06
0.0148124
6.72692e-06
0.0157444
1.81081e-05
0.0158783
2.88897e-05
0.0152177
3.49631e-05
0.013833
3.94062e-05
0.0118606
4.09558e-05
0.00946028
3.17093e-05
0.00680845
2.14862e-05
0.00404941
8.52502e-06
0.00131522
0.00530737
2.91553e-06
-2.77847e-06
-0.00149788
0.00150061
4.34451e-07
-1.25661e-07
-0.000730824
0.000730865
9.49984e-08
-2.96602e-08
-1.77326e-08
1.25017e-07
-7.66953e-05
7.68409e-05
-7.67786e-05
7.66338e-05
-3.22077e-06
0.00823779
-3.0096e-06
0.0109077
1.27633e-06
0.0131544
8.88712e-06
0.0148102
1.92823e-05
0.0157432
2.83147e-05
0.0158789
3.82091e-05
0.0152145
4.37031e-05
0.0138287
4.81623e-05
0.0118534
4.33509e-05
0.00944864
3.71838e-05
0.00679276
2.15848e-05
0.00403635
8.09319e-06
0.00130712
0.00530257
2.74619e-06
-1.16034e-06
-0.00149771
0.00150009
5.35274e-07
1.2299e-07
-0.00073068
0.00073107
6.35827e-08
-1.86319e-08
-2.97075e-08
8.97121e-08
-7.69187e-05
7.70138e-05
-7.69483e-05
7.68232e-05
2.01053e-06
0.00823278
4.07588e-06
0.0109049
9.75398e-06
0.0131536
1.70505e-05
0.0148125
2.69135e-05
0.0157446
3.83875e-05
0.0158787
4.54481e-05
0.0152127
5.37519e-05
0.0138231
5.53152e-05
0.0118414
4.95145e-05
0.0094363
4.0779e-05
0.00677356
2.44224e-05
0.00402002
9.01559e-06
0.00129811
0.00530171
3.09349e-06
-2.28542e-07
-0.00149859
0.00150074
5.94852e-07
3.40254e-07
-0.000731114
0.000731623
5.27899e-08
-2.65188e-08
-3.15923e-09
8.25069e-08
-7.70553e-05
7.7119e-05
-7.70739e-05
7.69842e-05
4.47235e-06
0.00823238
9.378e-06
0.0109053
1.72644e-05
0.0131534
2.65843e-05
0.0148128
3.6373e-05
0.0157466
4.69769e-05
0.0158772
5.61465e-05
0.0152104
6.06405e-05
0.0138178
5.75147e-05
0.0118334
5.50108e-05
0.00942207
4.25391e-05
0.00675545
2.9998e-05
0.00399904
9.45058e-06
0.00128866
0.00530326
2.98996e-06
-6.30598e-08
-0.00150008
0.00150256
6.09321e-07
4.38028e-07
-0.000731885
0.000732368
3.31898e-08
7.88945e-08
2.94608e-08
4.94103e-08
-7.71719e-05
7.72246e-05
-7.71984e-05
7.71159e-05
7.69314e-06
0.00823406
1.47028e-05
0.0109078
2.29286e-05
0.013157
3.4261e-05
0.0148149
4.63688e-05
0.0157472
5.56236e-05
0.0158777
6.35999e-05
0.0152074
6.9173e-05
0.0138061
7.19905e-05
0.0118164
6.28347e-05
0.00940178
5.29698e-05
0.00673247
3.0701e-05
0.00397779
1.0073e-05
0.00127859
0.00530755
2.53942e-06
8.59892e-07
-0.00150205
0.0015044
6.3775e-07
4.51732e-07
-0.000732718
0.000733306
2.05925e-08
3.92542e-10
3.25337e-08
5.50468e-08
-7.73823e-05
7.74154e-05
-7.73034e-05
7.7254e-05
9.21061e-06
0.00823956
1.74332e-05
0.0109133
2.7921e-05
0.0131634
4.12948e-05
0.01482
5.25497e-05
0.0157503
6.51107e-05
0.0158762
7.5337e-05
0.0152012
7.91959e-05
0.0137989
8.15799e-05
0.0117977
7.25483e-05
0.0093822
5.46503e-05
0.00670853
3.45781e-05
0.00395329
1.362e-05
0.00126497
0.005313
2.6157e-06
1.14466e-06
-0.00150463
0.00150648
6.87147e-07
6.31418e-07
-0.000733706
0.000734289
2.46359e-08
3.07152e-08
8.58604e-09
4.29901e-08
-7.75033e-05
7.75238e-05
-7.75029e-05
7.74479e-05
1.06766e-05
0.00824631
2.14441e-05
0.0109198
3.40483e-05
0.0131706
4.72493e-05
0.0148253
6.14222e-05
0.015754
7.47681e-05
0.0158768
8.3352e-05
0.0151971
8.76677e-05
0.0137928
8.4863e-05
0.0117854
8.03875e-05
0.00935646
6.17207e-05
0.00668138
3.81518e-05
0.00392875
2.79682e-05
0.001237
0.00531999
2.37194e-06
1.3148e-06
-0.00150695
0.00150861
9.56197e-07
6.79131e-07
-0.000734828
0.00073548
2.82151e-08
6.59282e-09
3.47297e-08
5.78431e-08
-7.7606e-05
7.76305e-05
-7.75753e-05
7.75323e-05
1.18401e-05
0.00825592
2.54123e-05
0.0109284
4.19289e-05
0.0131759
5.61276e-05
0.0148306
7.2351e-05
0.0157564
8.27851e-05
0.0158773
9.31211e-05
0.0151916
9.80874e-05
0.0137796
9.65218e-05
0.0117692
8.64001e-05
0.00933178
6.85422e-05
0.00665099
5.88536e-05
0.00389787
5.49949e-05
0.00532895
1.67817e-06
1.20657e-06
-0.00150915
0.00151095
5.71079e-07
7.75116e-07
-0.000736064
0.000736906
1.06074e-07
7.58809e-09
3.62525e-08
5.92676e-08
-7.77296e-05
7.77577e-05
-7.77231e-05
7.76652e-05
1.34181e-05
0.00826791
2.85351e-05
0.0109418
4.5725e-05
0.0131863
6.39853e-05
0.0148389
7.9796e-05
0.0157594
9.45141e-05
0.015876
0.000103448
0.0151863
0.000106965
0.0137692
0.000104403
0.0117512
9.20012e-05
0.00930832
8.85165e-05
0.00662132
0.000100321
0.00534025
1.24897e-06
8.63547e-07
-0.00151182
0.00151368
-1.73692e-07
3.2858e-07
-0.000737576
0.000738087
3.16429e-08
2.84114e-08
7.34626e-08
3.19001e-08
-7.78608e-05
7.79668e-05
-7.78532e-05
7.7794e-05
1.75948e-05
0.00827885
3.44616e-05
0.0109531
5.19343e-05
0.0131984
7.03239e-05
0.0148484
8.76525e-05
0.0157662
0.000103525
0.0158759
0.000113067
0.0151802
0.000120334
0.0137532
0.000117427
0.0117258
0.00011488
0.00928196
0.000130527
0.00535099
5.24519e-06
1.6117e-06
-0.00151584
0.00151897
-1.88197e-06
-1.2962e-06
-0.000738348
0.000738222
1.68101e-10
-4.76892e-08
1.77754e-08
4.97277e-08
-7.81005e-05
7.8132e-05
-7.80721e-05
7.80402e-05
2.12482e-05
0.00829207
3.76075e-05
0.0109674
5.87853e-05
0.0132099
7.94043e-05
0.0148567
9.91368e-05
0.0157706
0.000111762
0.0158772
0.00012377
0.0151767
0.000129047
0.0137416
0.00013474
0.0117059
0.000152184
0.00536147
5.33021e-06
5.43978e-06
-0.00151704
0.0015214
1.25857e-06
-3.73232e-07
-1.70205e-06
5.23993e-06
-0.000736876
0.000435872
0.000299339
-2.17217e-07
-2.75198e-10
2.60753e-08
2.39563e-08
-7.81518e-05
7.81518e-05
-7.81995e-05
7.81498e-05
2.2821e-05
0.00830685
4.30542e-05
0.0109832
6.40625e-05
0.0132253
8.77976e-05
0.014868
0.000105641
0.0157768
0.000122352
0.0158786
0.000131166
0.0151746
0.000144039
0.0137323
0.000160859
0.00537498
4.58549e-06
4.72351e-06
-0.00152373
0.00152626
1.53041e-06
1.26507e-06
1.84759e-06
1.26807e-06
-0.000464588
0.000466757
-9.0985e-07
-0.00046191
-3.05215e-06
-0.000456818
-6.79366e-06
-1.57063e-05
0.00028079
2.84292e-06
-7.82015e-05
7.79842e-05
-7.82018e-05
7.81778e-05
2.47355e-05
0.00832517
4.74093e-05
0.0109998
7.23437e-05
0.0132407
9.57083e-05
0.0148779
0.00011483
0.0157843
0.000131124
0.0158786
0.000147232
0.0151714
0.000165596
0.00539014
4.63202e-06
4.95082e-06
-0.00152863
0.00153133
1.09865e-06
7.90462e-07
1.30783e-06
1.04416e-06
-0.000469626
0.000470331
8.25291e-07
-0.000469016
6.5522e-07
-0.000467707
5.38801e-07
3.17711e-07
-0.000272871
0.000272472
-5.11082e-07
-0.00027488
-1.04265e-06
-8.84178e-07
8.0827e-05
2.81703e-05
0.00834441
5.22264e-05
0.0110199
8.02119e-05
0.0132562
0.000102091
0.0148907
0.000121864
0.0157935
0.000140038
0.0158858
0.000159103
0.00540793
5.06437e-06
5.31575e-06
-0.00153446
0.00153717
8.42121e-07
1.07946e-06
1.02264e-06
8.02481e-07
-0.000472012
0.000472532
5.77994e-07
-0.000471644
4.23309e-07
-0.000470767
4.30087e-07
6.08301e-07
-0.000273708
0.000274384
1.49386e-07
-0.000273217
1.64237e-07
-0.000272786
1.08227e-07
3.38579e-09
-7.89002e-05
7.83891e-05
-7.99429e-05
3.1037e-05
0.0083656
5.88282e-05
0.0110413
8.55514e-05
0.0132727
0.00010809
0.0149044
0.000128612
0.015805
0.000142569
0.00542747
5.48353e-06
6.01058e-06
-0.00154059
0.00154369
8.15218e-07
1.14286e-06
8.26939e-07
1.0671e-06
-0.00047415
0.00047461
3.82314e-07
-0.000473458
3.86865e-07
-0.000472908
4.72391e-07
4.26923e-07
-0.00027542
0.000275896
1.01801e-07
-0.000275097
1.00407e-07
-0.000274804
1.37114e-07
1.87725e-07
-7.86649e-05
7.88143e-05
-7.85007e-05
-7.83925e-05
3.56196e-05
0.0083888
6.56118e-05
0.0110612
9.15177e-05
0.0132893
0.000111685
0.0149214
0.000119071
0.00545001
6.31912e-06
6.76412e-06
-0.00154753
0.00155086
9.06936e-07
1.24282e-06
9.21903e-07
1.25509e-06
-0.00047632
0.000476722
4.13053e-07
-0.000475521
3.43807e-07
-0.000475087
3.92392e-07
5.90597e-07
-0.000276898
0.000277185
9.47953e-08
-0.00027657
5.88192e-08
-0.000276227
1.29215e-07
9.64672e-08
-7.92396e-05
7.93413e-05
-7.91392e-05
-7.9002e-05
4.12482e-05
0.00841317
7.25663e-05
0.0110802
9.25087e-05
0.0133085
9.31407e-05
0.00547583
7.24097e-06
8.17765e-06
-0.00155493
0.00155878
1.31205e-06
1.15364e-06
1.30977e-06
1.39081e-06
-0.000478702
0.000478984
6.24484e-07
-0.000477842
3.82204e-07
-0.000477345
4.2514e-07
6.32415e-07
-0.00027819
0.0002785
1.03226e-07
-0.000277946
9.91149e-08
-0.000277649
9.52307e-08
1.27374e-07
-7.96258e-05
7.97205e-05
-7.9567e-05
-7.94378e-05
5.00706e-05
0.00843566
7.38164e-05
0.0110989
6.65059e-05
0.00550484
1.04117e-05
1.06566e-05
-0.00156412
0.00156839
1.52241e-06
1.45267e-06
1.49717e-06
1.33646e-06
-0.000481324
0.000481942
6.93887e-07
-0.000480672
5.01169e-07
-0.000479848
4.85742e-07
5.2715e-07
-0.000279547
0.000280057
1.14195e-07
-0.000279249
8.47587e-08
-0.000279034
2.0994e-07
9.81934e-08
-8.00422e-05
8.01454e-05
-7.99431e-05
-7.98479e-05
5.4942e-05
0.00845453
4.36833e-05
0.00552891
1.60631e-05
1.4802e-05
-0.00157529
0.00158109
2.40357e-06
2.20501e-06
1.99176e-06
1.76509e-06
-0.000484526
0.000485194
8.54859e-07
-0.000483604
5.30085e-07
-0.00048268
5.73736e-07
5.98429e-07
-0.000281185
0.000281798
8.15702e-08
-0.000280804
1.20162e-07
-0.000280438
1.18899e-07
1.46415e-07
-8.05382e-05
8.06524e-05
-8.04535e-05
-8.02436e-05
2.93203e-05
1.27438e-05
3.14858e-05
-0.00158965
0.00159679
5.04201e-06
3.88672e-06
3.42096e-06
2.82036e-06
-0.000488686
0.000489753
1.33618e-06
-0.000487455
9.73999e-07
-0.000486223
7.59826e-07
7.35512e-07
-0.000283065
0.000283773
1.46718e-07
-0.000282677
1.41135e-07
-0.000282241
1.37641e-07
1.55419e-07
-8.10378e-05
8.11193e-05
-8.09177e-05
-8.07988e-05
-0.0016092
7.99599e-06
1.62593e-05
1.09058e-05
8.161e-06
-0.000494984
0.000497161
2.86536e-06
-0.000492936
1.83771e-06
-0.000491144
1.62887e-06
1.42989e-06
-0.000285653
0.000286693
2.95563e-07
-0.0002849
2.21102e-07
-0.000284319
1.78942e-07
1.90011e-07
-8.15535e-05
8.17001e-05
-8.14124e-05
-8.12747e-05
-0.000508109
1.13934e-05
-0.000503675
1.18251e-05
-0.000500344
7.57498e-06
4.97764e-06
-0.000290353
0.000292479
7.38975e-07
-0.000289006
4.90468e-07
-0.000287767
3.90175e-07
3.55824e-07
-8.22901e-05
8.25856e-05
-8.2069e-05
-8.18901e-05
-0.000304443
1.54193e-05
-0.000300124
7.50626e-06
-0.000295962
3.41264e-06
1.49464e-06
-8.38219e-05
8.45608e-05
-8.33315e-05
-8.29414e-05
-9.69742e-05
-8.9468e-05
-8.60554e-05
6.9776e-07
-6.97821e-07
2.23386e-06
-4.68879e-07
-1.06766e-06
4.5187e-07
-1.14974e-06
1.88095e-06
3.52644e-07
-3.24768e-06
-1.67052e-06
4.44884e-06
-2.1251e-07
-4.03513e-07
3.23154e-07
-1.47298e-06
3.59109e-07
1.52176e-06
-2.1933e-06
-7.0213e-07
1.40629e-06
-4.28508e-05
-8.24259e-06
4.80137e-05
5.64248e-06
2.8997e-07
-3.70549e-07
2.42344e-07
-1.71537e-06
-8.25204e-08
-1.75212e-06
1.5469e-07
1.36693e-06
-5.54421e-06
-3.80923e-05
4.40922e-06
-0.00039925
-2.50776e-05
0.000411671
5.66611e-07
5.20588e-05
-2.03366e-07
6.49894e-06
4.44674e-07
-5.73075e-07
8.30794e-08
-1.79851e-06
4.33235e-08
-1.64102e-06
2.40623e-08
1.34272e-06
9.0123e-07
-0.000387703
-1.8e-05
-2.08033e-07
-3.69405e-05
-0.00126114
-2.9623e-05
0.00126568
2.82489e-07
-4.50224e-06
0.000419058
-3.17513e-06
5.33753e-05
-3.1417e-07
-7.20752e-07
6.74019e-06