/*--------------------------------*- C++ -*----------------------------------*\
| =========                 |                                                 |
| \\      /  F ield         | OpenFOAM: The Open Source CFD Toolbox           |
|  \\    /   O peration     | Version:  v1912                                 |
|   \\  /    A nd           | Website:  www.openfoam.com                      |
|    \\/     M anipulation  |                                                 |
\*---------------------------------------------------------------------------*/
FoamFile
{
    version     2.0;
    format      ascii;
    class       volVectorField;
    location    "140";
    object      U;
}
// * * * * * * * * * * * * * * * * * * * * * * * * * * * * * * * * * * * * * //

dimensions      [0 1 -1 0 0 0 0];


internalField   nonuniform List<vector> 
3673
(
(0.0770301 0.0260432 -8.17557e-22)
(0.23116 0.0766344 8.416e-25)
(0.0765187 0.0258724 0)
(0.382815 0.124469 0)
(0.229719 0.076163 -8.41963e-25)
(0.0760336 0.0257088 0)
(0.526954 0.168116 0)
(0.380529 0.123735 0)
(0.228309 0.0756978 0)
(0.0755502 0.0255487 -6.33936e-22)
(0.656909 0.205733 0)
(0.52395 0.16716 0)
(0.378275 0.123008 0)
(0.226915 0.0752431 0)
(0.0750791 0.0253912 6.2868e-22)
(0.765083 0.235268 0)
(0.653246 0.204572 6.316e-25)
(0.520953 0.16621 0)
(0.376062 0.1223 0)
(0.225559 0.0747966 -6.0673e-22)
(0.0746102 0.0252342 0)
(0.844084 0.25486 0)
(0.760839 0.23392 3.28099e-22)
(0.649627 0.203432 -6.31009e-25)
(0.518004 0.165276 0)
(0.373859 0.121588 0)
(0.224196 0.0743439 0)
(0.0741391 0.0250783 0)
(0.887714 0.263112 -3.25731e-22)
(0.839276 0.253324 -3.0771e-22)
(0.756639 0.232597 0)
(0.646014 0.202297 3.02504e-22)
(0.515064 0.164342 0)
(0.37167 0.12088 -5.28764e-25)
(0.222832 0.0738954 0)
(0.0736753 0.0249243 -9.30216e-22)
(0.891786 0.259315 5.41946e-24)
(0.882285 0.26137 5.87905e-25)
(0.834498 0.251816 0)
(0.752456 0.231289 1.58886e-23)
(0.642429 0.201173 0)
(0.512115 0.163407 0)
(0.369476 0.120172 5.28695e-25)
(0.221482 0.0734493 4.67509e-22)
(0.0732076 0.0247683 0)
(0.854807 0.243632 3.28102e-22)
(0.885653 0.257348 3.03404e-22)
(0.876885 0.259665 -2.94057e-22)
(0.829747 0.250334 -2.72824e-22)
(0.748262 0.229982 -5.05294e-25)
(0.638818 0.200041 0)
(0.509162 0.162469 0)
(0.367285 0.119461 -4.55785e-25)
(0.22011 0.0729967 0)
(0.0727443 0.0246131 0)
(0.778499 0.217227 6.66796e-25)
(0.847899 0.24143 -3.10228e-22)
(0.879537 0.255426 2.92992e-22)
(0.871518 0.257997 2.78432e-22)
(0.82499 0.248858 0)
(0.744068 0.228676 5.04977e-25)
(0.635188 0.198901 0)
(0.506202 0.161527 0)
(0.365093 0.118752 1.30174e-24)
(0.218761 0.07255 0)
(0.072285 0.0244572 0)
(0.667824 0.182202 -4.06639e-24)
(0.770791 0.214795 -2.97514e-22)
(0.840981 0.239283 -2.90086e-22)
(0.873488 0.253567 -2.37784e-24)
(0.866185 0.256355 1.05485e-24)
(0.820233 0.247384 -2.51015e-22)
(0.739841 0.22736 0)
(0.631549 0.197756 0)
(0.503242 0.160582 0)
(0.362878 0.118031 -1.23884e-24)
(0.217419 0.0721047 0)
(0.0718273 0.0243008 0)
(0.530444 0.141332 3.0396e-24)
(0.659332 0.179563 3.3326e-23)
(0.762975 0.21242 3.09717e-22)
(0.834199 0.237248 -5.72417e-22)
(0.867554 0.251763 2.13042e-24)
(0.860885 0.254721 2.42793e-22)
(0.815463 0.245906 0)
(0.735587 0.226032 0)
(0.627884 0.196602 -4.38822e-22)
(0.500261 0.159629 0)
(0.360698 0.117323 4.16935e-22)
(0.216088 0.0716587 4.0258e-22)
(0.0713797 0.0241532 0)
(0.375749 0.0975944 0)
(0.521146 0.138554 3.38097e-22)
(0.65049 0.17694 2.98036e-22)
(0.755443 0.210242 3.0533e-22)
(0.827681 0.235306 -2.71794e-22)
(0.861736 0.249988 -1.87912e-24)
(0.855607 0.253096 0)
(0.810672 0.244423 -8.27486e-25)
(0.731328 0.224705 3.99849e-22)
(0.624227 0.19545 0)
(0.497303 0.158681 -3.53856e-22)
(0.358537 0.116613 -3.27818e-22)
(0.214767 0.0712182 0)
(0.0709258 0.0240035 0)
(0.365506 0.0948162 -7.14881e-23)
(0.250446 0.0639333 -2.49263e-24)
(0.253684 0.0648265 -1.61583e-22)
(0.510843 0.135603 -3.49905e-22)
(0.642206 0.174658 2.50263e-24)
(0.748475 0.208224 2.85257e-22)
(0.821452 0.233434 -1.91446e-24)
(0.856024 0.248246 1.88126e-24)
(0.85035 0.25148 1.64866e-24)
(0.805885 0.242942 1.60559e-24)
(0.727052 0.223372 -1.15492e-24)
(0.620562 0.19429 0)
(0.49435 0.15773 0)
(0.356376 0.115904 3.60551e-22)
(0.21346 0.0707823 0)
(0.0704814 0.0238539 0)
(0.351873 0.0912025 7.86147e-23)
(0.238098 0.0606497 1.1847e-22)
(0.245469 0.0628021 0)
(0.167102 0.042148 2.7789e-24)
(0.169335 0.0426417 1.16228e-22)
(0.256043 0.0653051 0)
(0.501782 0.133185 -3.92296e-26)
(0.635021 0.172641 4.53385e-24)
(0.742037 0.206322 2.58226e-22)
(0.815447 0.231627 3.7074e-24)
(0.8504 0.246534 2.14814e-22)
(0.845123 0.249876 -2.06715e-22)
(0.801093 0.24146 -1.14437e-24)
(0.722788 0.222037 3.69211e-25)
(0.616916 0.193134 3.63067e-22)
(0.491438 0.156792 -3.06506e-22)
(0.354256 0.115208 -3.36295e-22)
(0.212154 0.0703468 -3.17102e-22)
(0.0700474 0.0237083 0)
(0.341792 0.0884256 5.56347e-24)
(0.21985 0.056175 -2.84547e-22)
(0.228085 0.0578478 9.85111e-23)
(0.155383 0.0391727 0)
(0.163353 0.0412516 2.77401e-23)
(0.103541 0.0258975 -4.48115e-23)
(0.104358 0.0260802 9.22263e-23)
(0.10532 0.0262783 3.77897e-25)
(0.170757 0.0429703 0)
(0.104922 0.02617 4.72036e-23)
(0.494816 0.131234 3.25628e-22)
(0.62877 0.170826 -2.88662e-22)
(0.736028 0.204546 2.35085e-22)
(0.809647 0.229889 -2.2549e-22)
(0.844867 0.244855 4.31624e-24)
(0.839926 0.248284 0)
(0.796322 0.239983 3.6583e-25)
(0.718536 0.220708 -3.30235e-22)
(0.613294 0.191985 3.41412e-22)
(0.488535 0.155854 2.85902e-22)
(0.352164 0.11452 2.57748e-22)
(0.210891 0.0699233 -2.94442e-22)
(0.0696216 0.0235653 -3.94557e-22)
(0.335955 0.0866185 -3.75148e-22)
(0.21189 0.0537298 2.16473e-24)
(0.214705 0.0546179 0)
(0.131047 0.0330938 1.3169e-22)
(0.141174 0.0352234 -8.25001e-23)
(0.0909524 0.0224619 2.95658e-24)
(0.0969394 0.0244864 -2.29891e-24)
(0.102348 0.0257092 0)
(0.100353 0.0251882 -1.75477e-25)
(0.0606603 0.0150646 6.27329e-25)
(0.0611177 0.0151499 -4.23875e-23)
(0.105688 0.0263552 -3.77991e-25)
(0.0616092 0.0152563 4.20464e-23)
(0.105982 0.0264339 -5.00573e-23)
(0.0613841 0.0152061 0)
(0.489295 0.129653 -2.82096e-22)
(0.623151 0.169199 -2.61254e-22)
(0.730343 0.202878 0)
(0.804015 0.228207 4.15019e-22)
(0.839416 0.243205 -7.78113e-25)
(0.83477 0.246704 0)
(0.791576 0.238514 1.73641e-22)
(0.714316 0.219384 -3.10574e-22)
(0.609724 0.190847 -2.90652e-25)
(0.485702 0.154934 3.08556e-22)
(0.350088 0.113831 2.39822e-22)
(0.209652 0.0695066 -6.99974e-23)
(0.0691999 0.0234242 0)
(0.332044 0.0855374 3.33689e-22)
(0.20861 0.0527267 -1.98028e-24)
(0.209895 0.0530895 -2.16767e-24)
(0.125405 0.0312981 1.88107e-24)
(0.127066 0.0318428 -3.1924e-23)
(0.0621517 0.0156819 4.1733e-23)
(0.0647901 0.0163887 -4.53869e-23)
(0.0798993 0.0188135 -1.00641e-23)
(0.070207 0.01792 7.7745e-25)
(0.0516853 0.0121124 2.90327e-24)
(0.0562686 0.0140799 0)
(0.0599652 0.0149393 0)
(0.0587112 0.0146968 -3.9228e-23)
(0.0195853 0.00481901 -2.3701e-25)
(0.0197044 0.00484269 2.3713e-25)
(0.0617972 0.0153068 -4.27833e-23)
(0.0198456 0.00487625 -4.45086e-25)
(0.061962 0.0153412 4.58249e-23)
(0.0197968 0.00486886 -3.17533e-23)
(0.484592 0.128337 -2.61492e-22)
(0.617991 0.167723 2.28398e-22)
(0.724929 0.201294 -4.23526e-22)
(0.798541 0.226576 -1.91464e-22)
(0.834041 0.241579 -1.78405e-22)
(0.829654 0.245139 -3.38048e-22)
(0.786861 0.237053 -3.24083e-25)
(0.710139 0.21807 0)
(0.606196 0.189716 -2.71262e-22)
(0.482897 0.154017 0)
(0.348076 0.113164 2.2282e-22)
(0.208434 0.0690964 0)
(0.0687886 0.0232862 1.49407e-22)
(0.32889 0.0847562 3.66011e-22)
(0.206589 0.0522711 1.88348e-24)
(0.20743 0.0524653 1.18803e-22)
(0.1237 0.0308337 2.76624e-23)
(0.124375 0.0310184 2.6501e-23)
(0.0599996 0.0148461 -3.74135e-23)
(0.060195 0.0149104 -6.11543e-25)
(0.0610394 0.0151896 4.24543e-23)
(0.0604687 0.0150052 -3.88402e-23)
(0.0201043 0.00507174 -3.3596e-23)
(0.0215075 0.00561986 4.78379e-23)
(0.0346802 0.00598332 -2.455e-24)
(0.0238026 0.00627254 -1.15176e-23)
(0.0169091 0.00433727 -3.83916e-23)
(0.0181163 0.00463733 -2.91017e-23)
(0.0193973 0.00478535 -2.86967e-23)
(0.0190226 0.00472735 -2.88695e-23)
(0.0198951 0.00489194 2.07149e-25)
(0.0199415 0.00490014 3.43948e-23)
(0.480405 0.127189 -2.62572e-22)
(0.613166 0.16635 2.26919e-22)
(0.71972 0.199774 3.94561e-22)
(0.793171 0.224979 7.33339e-24)
(0.82873 0.239975 1.70264e-22)
(0.824587 0.243587 0)
(0.782199 0.235604 0)
(0.706023 0.216768 0)
(0.602723 0.188599 2.83253e-22)
(0.480158 0.15312 2.73366e-22)
(0.346108 0.112507 0)
(0.207246 0.0686938 0)
(0.0683839 0.0231509 0)
(0.326119 0.084071 6.59564e-23)
(0.204888 0.0518872 -1.04658e-22)
(0.205622 0.0520665 -5.26141e-24)
(0.122645 0.0306034 0)
(0.123128 0.0307166 -1.10267e-22)
(0.059516 0.0147147 3.4729e-23)
(0.0595844 0.0147444 -3.60107e-23)
(0.0598115 0.014798 3.60501e-23)
(0.0596943 0.0147733 -3.69865e-23)
(0.0192549 0.00473319 5.29101e-23)
(0.0193145 0.00475504 -2.66385e-23)
(0.0196062 0.00485432 0)
(0.0193996 0.00477936 5.5509e-23)
(0.00962078 0.00153263 1.48023e-24)
(0.476561 0.126141 -1.90698e-24)
(0.608573 0.16505 -4.06124e-22)
(0.714666 0.198307 1.89927e-22)
(0.787906 0.223418 0)
(0.823485 0.238393 0)
(0.819571 0.24205 0)
(0.777593 0.234168 1.44043e-22)
(0.701962 0.215481 -1.19047e-22)
(0.599327 0.1875 -2.40511e-22)
(0.477484 0.152238 -2.578e-22)
(0.344181 0.111862 2.46312e-22)
(0.206079 0.0683009 0)
(0.0679917 0.0230212 -1.30809e-22)
(0.323563 0.0834217 -5.98899e-23)
(0.203322 0.0515071 -1.01201e-22)
(0.203995 0.0516847 -9.8997e-23)
(0.121717 0.0303979 1.19891e-22)
(0.122172 0.0305068 -1.00823e-22)
(0.0591278 0.0146279 0)
(0.0591955 0.0146575 -3.22324e-23)
(0.0593844 0.0146929 3.34524e-23)
(0.059299 0.0146763 3.30133e-23)
(0.0191204 0.00469649 -1.93125e-25)
(0.019136 0.00470758 -2.50174e-23)
(0.0192084 0.00471932 -2.61416e-25)
(0.0191586 0.0047116 2.53437e-23)
(0.472918 0.125154 2.26309e-22)
(0.60416 0.163809 -1.82591e-22)
(0.709727 0.196876 -1.66103e-22)
(0.78272 0.221882 1.55131e-22)
(0.818301 0.23683 1.47298e-22)
(0.814612 0.240526 1.0695e-24)
(0.773049 0.232746 -1.30185e-22)
(0.697984 0.214209 0)
(0.596008 0.186419 2.26775e-22)
(0.474889 0.151378 -2.08897e-22)
(0.342316 0.111236 -2.03514e-25)
(0.204956 0.0679201 0)
(0.0676036 0.0228952 1.24155e-22)
(0.321133 0.0827989 9.83017e-25)
(0.201827 0.0511353 6.82413e-24)
(0.202478 0.0513101 8.89764e-23)
(0.120812 0.0301787 2.06023e-23)
(0.121251 0.0302914 1.12586e-22)
(0.0587214 0.0145351 -2.93374e-23)
(0.0587942 0.0145663 -2.90098e-23)
(0.0589897 0.0146049 8.03607e-25)
(0.0589028 0.0145863 -1.00025e-24)
(0.0190061 0.00466894 2.2211e-23)
(0.0190253 0.00468071 1.9327e-25)
(0.0190876 0.0046887 -2.41621e-23)
(0.0190451 0.00468275 -2.82971e-25)
(0.469428 0.124209 2.0903e-22)
(0.59987 0.162601 1.84231e-22)
(0.704885 0.195474 -1.65926e-22)
(0.777603 0.220368 -1.52546e-22)
(0.813171 0.235279 -3.4057e-24)
(0.809709 0.239014 1.31743e-22)
(0.768579 0.231337 0)
(0.694095 0.212956 0)
(0.592787 0.185358 -2.40439e-22)
(0.472344 0.150526 0)
(0.34048 0.110614 2.03385e-25)
(0.203839 0.0675424 -2.11349e-22)
(0.0672073 0.0227608 -1.22855e-22)
(0.318789 0.0821885 4.77594e-23)
(0.200371 0.0507684 -7.64869e-23)
(0.201 0.0509385 7.99287e-23)
(0.119933 0.0299635 7.94033e-23)
(0.120369 0.0300749 -6.34438e-23)
(0.058304 0.0144328 0)
(0.0583767 0.0144632 -5.26509e-23)
(0.0585771 0.0145075 0)
(0.0584859 0.0144867 -1.01255e-24)
(0.0188775 0.00463844 1.52964e-25)
(0.0189013 0.00465087 2.08775e-23)
(0.0189704 0.00466096 4.32461e-23)
(0.0189258 0.0046541 -2.80486e-25)
(0.466049 0.12329 3.41891e-25)
(0.595671 0.161421 -1.54377e-22)
(0.700125 0.194098 1.43349e-22)
(0.772533 0.218865 -1.42567e-22)
(0.808082 0.233737 -1.32017e-22)
(0.804873 0.237513 -1.2315e-22)
(0.764196 0.229943 2.24708e-25)
(0.690293 0.211718 2.1888e-22)
(0.589635 0.184314 0)
(0.469879 0.149698 0)
(0.338702 0.110012 1.71561e-22)
(0.202727 0.067164 0)
(0.0668228 0.0226309 -1.20085e-25)
(0.316508 0.0815917 -4.10928e-23)
(0.198948 0.0504025 -6.86451e-23)
(0.199569 0.0505732 -7.73719e-23)
(0.119072 0.029751 5.48431e-23)
(0.119501 0.0298593 -1.08768e-22)
(0.0578858 0.0143313 0)
(0.0579628 0.0143618 -2.30914e-23)
(0.0581623 0.0144057 -2.42119e-23)
(0.0580727 0.0143855 -2.46993e-23)
(0.0187425 0.00460495 1.77938e-23)
(0.0187688 0.00461734 2.5696e-25)
(0.0188382 0.00462945 1.90977e-23)
(0.018793 0.00462245 -3.80601e-23)
(0.462761 0.122396 2.21462e-23)
(0.591545 0.160259 -1.59347e-22)
(0.695401 0.192733 -2.62879e-25)
(0.767505 0.217376 0)
(0.803045 0.232204 1.22993e-22)
(0.8001 0.23602 0)
(0.759903 0.228563 1.11451e-22)
(0.686594 0.210505 -2.16837e-25)
(0.586567 0.183291 0)
(0.467456 0.148882 0)
(0.336922 0.10941 0)
(0.201635 0.0667926 -2.05238e-22)
(0.0664634 0.0225058 0)
(0.314281 0.0810056 1.42593e-22)
(0.197559 0.0500483 6.77788e-23)
(0.198173 0.0502151 0)
(0.118232 0.0295382 4.94444e-23)
(0.118651 0.029646 -1.54075e-23)
(0.0574794 0.0142307 0)
(0.0575499 0.0142612 2.13601e-23)
(0.0577463 0.0143032 1.06323e-24)
(0.057656 0.0142832 4.28902e-23)
(0.018607 0.00457208 1.58206e-23)
(0.0186343 0.00458438 2.6154e-25)
(0.0187037 0.00459655 3.46747e-23)
(0.0186587 0.00458962 0)
(0.459519 0.121511 0)
(0.587469 0.159113 0)
(0.690703 0.191374 1.99293e-26)
(0.762481 0.21588 2.26416e-25)
(0.798035 0.230667 4.60683e-25)
(0.795397 0.234532 -1.08354e-22)
(0.755698 0.227198 0)
(0.682977 0.209307 0)
(0.583568 0.182286 1.06112e-22)
(0.465082 0.14808 0)
(0.335169 0.108812 1.6647e-22)
(0.200548 0.066413 1.7272e-25)
(0.0660707 0.0223716 -1.59576e-22)
(0.312107 0.0804314 0)
(0.196206 0.0496998 6.55075e-24)
(0.196805 0.0498637 0)
(0.117407 0.0293316 -1.27009e-23)
(0.117821 0.0294375 -2.72875e-23)
(0.0570744 0.0141299 0)
(0.0571459 0.0141592 7.95243e-25)
(0.0573404 0.0142026 1.99443e-23)
(0.0572527 0.0141818 1.85566e-23)
(0.0184779 0.0045401 0)
(0.0185022 0.00455301 0)
(0.0185687 0.00456349 3.08745e-23)
(0.0185222 0.0045568 -3.02114e-23)
(0.456329 0.12064 -1.2863e-22)
(0.583393 0.157965 0)
(0.685995 0.190009 1.12905e-22)
(0.75746 0.214379 -2.26329e-25)
(0.793057 0.229123 0)
(0.79076 0.233046 0)
(0.751581 0.225845 0)
(0.679447 0.20813 -9.64174e-23)
(0.580634 0.181298 0)
(0.462708 0.147274 0)
(0.333431 0.108212 0)
(0.199446 0.0660306 1.48427e-22)
(0.0656591 0.0222363 -3.04956e-22)
(0.309943 0.0798587 1.48605e-22)
(0.194875 0.0493578 4.7642e-23)
(0.19547 0.0495193 2.04181e-25)
(0.116604 0.0291286 3.94865e-23)
(0.117007 0.0292317 -1.18235e-23)
(0.0566756 0.0140328 0)
(0.056749 0.0140589 1.66874e-23)
(0.0569364 0.0141026 8.6916e-25)
(0.0568654 0.0140863 9.7291e-25)
(0.0183453 0.00450765 0)
(0.018371 0.00451998 2.50929e-25)
(0.0184385 0.00453185 0)
(0.0183948 0.00452464 -2.73771e-25)
(0.453135 0.119767 -7.39774e-25)
(0.579296 0.156814 -1.25315e-22)
(0.681239 0.188629 0)
(0.752401 0.21285 0)
(0.788092 0.227562 3.62395e-25)
(0.786187 0.231561 0)
(0.747542 0.224508 0)
(0.675977 0.206968 1.88086e-25)
(0.577716 0.180313 -1.00498e-22)
(0.460362 0.146472 0)
(0.331652 0.1076 2.08479e-22)
(0.198325 0.0656459 1.55687e-22)
(0.0652472 0.0220959 1.47617e-22)
(0.307814 0.0792946 -2.73715e-23)
(0.193565 0.0490217 4.17506e-23)
(0.194155 0.0491811 -4.46726e-23)
(0.115814 0.02893 -4.48164e-23)
(0.116214 0.0290307 -2.08232e-23)
(0.0562923 0.0139374 0)
(0.0563634 0.0139625 1.46389e-23)
(0.0565448 0.0140046 0)
(0.0564777 0.013989 9.67999e-25)
(0.0182138 0.00447681 0)
(0.0182527 0.00448992 -1.12662e-23)
(0.0183062 0.00449994 2.93526e-25)
(0.018266 0.00449309 1.19614e-23)
(0.449918 0.118889 4.77613e-25)
(0.575135 0.155643 0)
(0.676376 0.187206 7.18564e-25)
(0.747279 0.21128 0)
(0.783127 0.225976 -8.39723e-23)
(0.781666 0.230077 8.6822e-23)
(0.743569 0.223188 -1.80316e-25)
(0.672549 0.20582 9.14268e-23)
(0.574806 0.179326 -3.77084e-25)
(0.457996 0.145661 -1.76442e-22)
(0.329875 0.106984 0)
(0.197164 0.0652388 0)
(0.0648303 0.0219552 -3.48917e-22)
(0.305679 0.0787257 -2.40935e-23)
(0.192269 0.0486835 -1.57707e-25)
(0.192853 0.0488437 8.37749e-23)
(0.115037 0.0287365 -4.78117e-23)
(0.115431 0.0288333 2.39928e-23)
(0.0559122 0.0138434 0)
(0.0559828 0.0138677 0)
(0.056162 0.0139086 8.9906e-25)
(0.056094 0.0138934 9.49387e-25)
(0.0180923 0.00444701 9.41723e-24)
(0.0181297 0.00445964 7.81213e-26)
(0.0181815 0.00446893 1.03784e-23)
(0.0181425 0.00446216 2.05657e-23)
(0.446627 0.117989 0)
(0.570808 0.154424 0)
(0.67135 0.185718 -8.05713e-23)
(0.742051 0.209647 1.61398e-22)
(0.77815 0.224363 -8.70643e-23)
(0.77719 0.228605 -8.37668e-23)
(0.73964 0.221883 -1.71522e-25)
(0.669128 0.204671 9.38506e-23)
(0.571888 0.178333 -9.73114e-23)
(0.455606 0.144832 0)
(0.328051 0.106345 0)
(0.195997 0.0648288 1.75054e-22)
(0.0644099 0.0218103 1.75706e-22)
(0.303492 0.078143 0)
(0.190996 0.048349 -2.99806e-23)
(0.191585 0.0485132 3.90279e-23)
(0.114281 0.0285433 -7.13759e-24)
(0.114667 0.0286407 -4.43957e-23)
(0.0555444 0.0137536 0)
(0.0556106 0.0137764 1.09622e-23)
(0.055788 0.0138158 1.17196e-23)
(0.055721 0.0138002 1.1515e-23)
(0.0179684 0.00441676 8.05834e-24)
(0.0180061 0.00442919 0)
(0.0180583 0.00443835 1.81976e-23)
(0.0180175 0.00443149 9.08505e-24)
(0.443185 0.117056 -8.1456e-23)
(0.566225 0.153126 8.89693e-23)
(0.666073 0.184121 -8.02191e-23)
(0.736675 0.207935 0)
(0.773167 0.222743 8.41517e-23)
(0.772753 0.22715 0)
(0.735732 0.220589 -1.75864e-22)
(0.66571 0.203519 8.79895e-23)
(0.568946 0.177321 -9.68603e-23)
(0.453172 0.143983 0)
(0.326192 0.105688 0)
(0.194804 0.0644041 2.38913e-22)
(0.0639574 0.0216588 2.73875e-23)
(0.30123 0.0775429 7.63384e-23)
(0.189709 0.0480136 2.46817e-23)
(0.190315 0.0481814 0)
(0.113535 0.0283527 1.67425e-23)
(0.11391 0.0284463 -1.28889e-23)
(0.0551791 0.0136609 0)
(0.0552488 0.0136828 9.18822e-24)
(0.0554181 0.0137252 1.00526e-23)
(0.0553533 0.0137114 -9.10076e-24)
(0.0178525 0.00438834 6.85558e-24)
(0.017886 0.00440021 5.73016e-26)
(0.0179385 0.00440914 7.6639e-24)
(0.0178977 0.00440162 7.40861e-24)
(0.439437 0.116042 1.09187e-24)
(0.561201 0.151675 -5.88855e-23)
(0.66042 0.182367 0)
(0.731176 0.206173 6.05878e-23)
(0.768197 0.221141 -1.54688e-25)
(0.768355 0.22572 1.65264e-22)
(0.731835 0.219295 6.84479e-25)
(0.662262 0.202348 1.7771e-22)
(0.565965 0.176289 0)
(0.450684 0.143108 -3.95308e-25)
(0.324291 0.105012 -1.9312e-22)
(0.193569 0.0639669 4.96876e-23)
(0.0634799 0.0214982 2.42323e-22)
(0.298745 0.0768881 2.37582e-24)
(0.188411 0.0476705 0)
(0.189021 0.0478413 5.19405e-23)
(0.112799 0.0281651 -2.29686e-23)
(0.113169 0.0282567 5.13707e-24)
(0.0548232 0.0135734 7.31938e-24)
(0.0548951 0.0135946 7.5503e-24)
(0.0550577 0.0136337 9.85516e-25)
(0.0549963 0.0136208 8.18132e-24)
(0.0177317 0.00435691 5.56472e-24)
(0.0177684 0.00436835 0)
(0.017815 0.00438048 6.31166e-24)
(0.0177854 0.00437723 2.05785e-25)
(0.435124 0.114874 6.72004e-23)
(0.555532 0.14999 -3.18703e-25)
(0.65441 0.180469 -6.50934e-23)
(0.725618 0.204417 6.17361e-23)
(0.763287 0.219585 -1.53386e-22)
(0.764001 0.224305 0)
(0.727932 0.21799 -8.3263e-23)
(0.658783 0.201157 0)
(0.562922 0.175226 0)
(0.448155 0.142211 3.95212e-25)
(0.322351 0.104318 -4.44765e-22)
(0.192282 0.0635091 -2.24731e-22)
(0.0629938 0.0213326 -2.43022e-22)
(0.295768 0.0761333 0)
(0.186975 0.0472961 1.96717e-23)
(0.187697 0.0474942 -2.35063e-23)
(0.112052 0.0279728 -6.61701e-24)
(0.112438 0.028069 -1.78166e-23)
(0.0544847 0.0134875 5.68642e-24)
(0.0545507 0.013509 -5.99699e-24)
(0.0547091 0.0135474 0)
(0.0546499 0.0135327 -6.61134e-24)
(0.0176155 0.00432926 4.36046e-24)
(0.0176535 0.00434006 0)
(0.0176967 0.00435095 1.06491e-23)
(0.0176689 0.00434821 -5.26869e-24)
(0.42985 0.113409 0)
(0.548999 0.147965 3.17806e-25)
(0.648163 0.178537 -6.68229e-23)
(0.720164 0.202751 7.60839e-23)
(0.758495 0.218073 -1.15391e-24)
(0.75969 0.222893 0)
(0.724019 0.21667 -1.26668e-24)
(0.655258 0.199938 6.82559e-25)
(0.559836 0.174137 0)
(0.445581 0.141288 4.19182e-22)
(0.320375 0.103604 4.53458e-25)
(0.190948 0.0630282 5.07549e-25)
(0.0624959 0.0211655 2.46144e-23)
(0.291751 0.075099 -3.71765e-24)
(0.185157 0.0468563 5.00586e-26)
(0.186145 0.0471076 -5.00225e-26)
(0.111263 0.0277707 2.09953e-24)
(0.111696 0.0278746 2.00615e-25)
(0.0541467 0.0134024 9.29722e-25)
(0.0542173 0.0134247 7.57434e-25)
(0.0543697 0.0134615 -5.2252e-24)
(0.0543133 0.0134482 0)
(0.017511 0.00430254 0)
(0.0175432 0.00431343 3.59011e-24)
(0.0175862 0.00432456 -4.06828e-24)
(0.0175586 0.00432025 -4.03556e-24)
(0.422868 0.111349 6.43121e-24)
(0.541833 0.14578 0)
(0.64209 0.176769 4.83803e-25)
(0.714963 0.20117 0)
(0.753837 0.216587 1.07531e-24)
(0.755413 0.221479 0)
(0.720084 0.215331 6.23592e-25)
(0.651697 0.198694 -6.82456e-25)
(0.556711 0.173021 2.89432e-24)
(0.442978 0.140341 4.25028e-25)
(0.318323 0.102855 0)
(0.189606 0.0625477 -2.76349e-22)
(0.0619842 0.0209911 2.34212e-23)
(0.284723 0.0732485 -7.46905e-24)
(0.182057 0.046131 6.11706e-24)
(0.183895 0.0466041 -1.05553e-25)
(0.110311 0.0275414 7.97452e-25)
(0.110862 0.0276622 -1.25631e-24)
(0.0538135 0.0133201 0)
(0.053885 0.013342 -2.74006e-24)
(0.0540369 0.0133765 -3.6727e-24)
(0.0539817 0.0133623 3.41892e-24)
(0.0174018 0.00427598 4.37435e-24)
(0.0174379 0.00428743 5.14534e-24)
(0.0174771 0.00429707 2.92687e-24)
(0.0174514 0.00429423 -2.93305e-24)
(0.414198 0.108776 -2.36183e-23)
(0.53498 0.143905 0)
(0.636543 0.175159 9.00988e-25)
(0.710055 0.199649 -5.45351e-23)
(0.749299 0.215121 -5.15564e-25)
(0.751167 0.220061 0)
(0.716139 0.213973 0)
(0.648099 0.197423 -2.60135e-22)
(0.553539 0.171873 -1.97607e-22)
(0.440304 0.139362 4.70394e-25)
(0.316253 0.102094 0)
(0.188237 0.0620461 -3.08366e-22)
(0.0614558 0.0208114 3.76707e-22)
(0.272529 0.0699238 4.0166e-24)
(0.17433 0.0440684 1.03302e-24)
(0.17922 0.0455821 -4.09336e-24)
(0.108614 0.0271821 0)
(0.109665 0.0273881 2.28829e-25)
(0.0534536 0.0132312 5.13241e-25)
(0.053542 0.0132565 -1.02075e-24)
(0.0536957 0.0132893 0)
(0.0536451 0.0132747 8.37548e-25)
(0.0173005 0.00425125 8.01409e-25)
(0.0173337 0.00426194 1.27272e-24)
(0.0173717 0.00427044 1.78541e-24)
(0.0173458 0.00426703 0)
(0.406244 0.106716 -8.94618e-25)
(0.529223 0.142312 -5.40871e-23)
(0.631573 0.173662 1.34438e-23)
(0.705419 0.19819 -7.6633e-25)
(0.744872 0.213677 0)
(0.746954 0.218639 0)
(0.712184 0.212596 7.86057e-23)
(0.644482 0.196127 1.79554e-22)
(0.550329 0.170701 4.15929e-25)
(0.437609 0.138358 -4.70286e-25)
(0.31412 0.101299 -3.05657e-22)
(0.186842 0.0615346 -3.4734e-22)
(0.0609113 0.0206214 4.22869e-22)
(0.262651 0.067389 1.40342e-24)
(0.155896 0.0396805 -9.24851e-24)
(0.165329 0.041394 7.09918e-23)
(0.103481 0.0259638 8.30478e-25)
(0.106986 0.0268564 3.78026e-24)
(0.0528564 0.0131029 0)
(0.0530771 0.0131489 -1.52027e-24)
(0.0533197 0.0132008 -9.36776e-25)
(0.0532167 0.0131705 -1.35083e-24)
(0.0171917 0.00422488 -1.00108e-24)
(0.0172323 0.00423609 -3.88757e-26)
(0.0172698 0.00424472 0)
(0.0172435 0.0042411 1.49432e-25)
(0.400522 0.105126 1.72486e-23)
(0.52446 0.1409 4.93772e-23)
(0.62704 0.172267 0)
(0.70099 0.196781 7.67466e-25)
(0.740541 0.212248 -4.47917e-23)
(0.742776 0.217212 -4.67688e-25)
(0.708228 0.2112 2.87087e-25)
(0.640838 0.194805 0)
(0.547091 0.169496 -4.15758e-25)
(0.434855 0.137321 5.20359e-22)
(0.311995 0.100497 3.06024e-25)
(0.185394 0.0609901 -3.88468e-22)
(0.0603253 0.020429 0)
(0.257791 0.065788 5.03016e-23)
(0.147587 0.0371635 2.60196e-24)
(0.150116 0.0379942 2.70771e-25)
(0.0777365 0.0201117 8.93079e-24)
(0.0920111 0.0225835 -3.15905e-23)
(0.0491811 0.0119998 6.37083e-25)
(0.0511934 0.0128665 1.53552e-25)
(0.0525814 0.0130622 1.3176e-26)
(0.0520794 0.0129703 3.16516e-24)
(0.0170315 0.00418498 0)
(0.0171049 0.00420175 -4.3674e-25)
(0.017167 0.00422085 4.76538e-25)
(0.0171221 0.00420879 -1.80438e-25)
(0.396422 0.103905 -1.67877e-23)
(0.520364 0.139663 1.78384e-23)
(0.622859 0.170975 -4.34693e-25)
(0.696745 0.195419 1.61576e-23)
(0.73631 0.210836 7.32154e-25)
(0.738636 0.215777 4.67908e-25)
(0.704283 0.209784 -5.71466e-25)
(0.637176 0.193452 0)
(0.543831 0.168265 -2.30117e-22)
(0.432078 0.136257 2.90105e-25)
(0.309784 0.099652 -3.60184e-22)
(0.183878 0.0604312 0)
(0.0597146 0.0202243 -1.05407e-21)
(0.255087 0.0649889 2.18924e-23)
(0.145291 0.0363429 5.99899e-24)
(0.146126 0.0365904 4.80564e-24)
(0.0716414 0.0177468 -2.82781e-24)
(0.0727728 0.0183004 1.20587e-25)
(0.0184066 0.00494785 -3.61085e-24)
(0.0206002 0.00508831 3.69867e-24)
(0.0448238 0.0102364 -2.35942e-25)
(0.0301934 0.00506737 0)
(0.0157714 0.00401959 -1.82285e-24)
(0.0164891 0.00412295 3.59644e-26)
(0.0169519 0.00417027 2.22767e-24)
(0.0167882 0.00414468 4.02107e-25)
(0.393111 0.102941 -2.02504e-23)
(0.516692 0.138565 -7.50905e-24)
(0.618944 0.169758 1.80678e-23)
(0.692661 0.194092 0)
(0.73216 0.20943 -3.45593e-25)
(0.734536 0.214332 0)
(0.700345 0.208347 6.3513e-23)
(0.63351 0.192073 0)
(0.540547 0.166999 0)
(0.429265 0.135165 2.97326e-24)
(0.307538 0.0987862 0)
(0.182324 0.0598518 1.01629e-21)
(0.0591026 0.0200135 -5.87318e-22)
(0.253099 0.064516 6.15594e-24)
(0.144179 0.0361226 4.99898e-26)
(0.144623 0.0362077 -3.42223e-24)
(0.0707273 0.0174652 3.37278e-26)
(0.071075 0.0175638 -4.52219e-24)
(0.0167188 0.00411155 2.4326e-24)
(0.0167896 0.0041463 3.03477e-24)
(0.0172725 0.00436161 -2.09162e-25)
(0.016851 0.00421264 -9.81669e-25)
(0.014687 0.00369884 2.53087e-25)
(0.00831118 0.00128557 -6.98425e-23)
(0.390296 0.102143 8.82038e-24)
(0.51337 0.137569 1.91265e-23)
(0.615238 0.168591 0)
(0.688713 0.19279 0)
(0.728093 0.208028 -2.63048e-23)
(0.730477 0.212874 -6.1472e-23)
(0.696417 0.206884 2.85679e-25)
(0.629836 0.190663 0)
(0.537235 0.165701 2.64484e-22)
(0.426389 0.13403 -3.25285e-22)
(0.30523 0.0978863 -4.23836e-22)
(0.180723 0.0592448 0)
(0.058437 0.0197914 -6.63681e-22)
(0.2514 0.0641121 -9.47587e-24)
(0.143317 0.0359574 0)
(0.143677 0.0360363 -9.67433e-24)
(0.070315 0.0173927 0)
(0.0704973 0.017432 -2.86487e-24)
(0.0166549 0.00409002 -2.65949e-24)
(0.0166625 0.00409238 -2.90054e-24)
(0.0166973 0.0041056 0)
(0.016684 0.0041016 2.62737e-24)
(0.387789 0.101432 -2.65114e-24)
(0.510284 0.136636 5.96185e-26)
(0.611711 0.167466 -3.67233e-24)
(0.684881 0.191506 2.05506e-23)
(0.724101 0.206625 -2.00469e-23)
(0.726461 0.2114 -1.89768e-25)
(0.692508 0.205395 -6.13786e-23)
(0.626165 0.18922 0)
(0.533875 0.164359 2.73597e-23)
(0.423476 0.132859 0)
(0.302847 0.0969463 0)
(0.179062 0.0586188 0)
(0.057757 0.0195669 -7.51816e-22)
(0.249908 0.063735 0)
(0.142527 0.0357733 0)
(0.142862 0.0358608 1.49939e-23)
(0.0699566 0.017319 -4.91747e-24)
(0.0701373 0.0173662 0)
(0.0166055 0.00408145 0)
(0.0166072 0.00408279 -3.63967e-24)
(0.0166342 0.00408918 5.90107e-24)
(0.0166336 0.004088 -2.41056e-26)
(0.385515 0.100783 -1.55307e-25)
(0.507368 0.135744 4.0538e-24)
(0.608316 0.166364 2.06929e-23)
(0.681148 0.190228 2.09888e-23)
(0.720179 0.205213 0)
(0.722487 0.209906 9.35069e-23)
(0.68862 0.203877 -6.07814e-23)
(0.622471 0.187739 3.28555e-22)
(0.530494 0.162979 2.81083e-25)
(0.420523 0.131655 -3.86214e-22)
(0.300418 0.095978 0)
(0.17736 0.0579732 0)
(0.0570577 0.0193344 8.60981e-22)
(0.24854 0.0633758 2.4147e-25)
(0.141777 0.0355857 0)
(0.142089 0.0356712 0)
(0.0695955 0.0172339 -6.02183e-24)
(0.0697766 0.0172837 7.15565e-26)
(0.0165287 0.00406094 -2.78648e-25)
(0.0165403 0.00406644 0)
(0.0165753 0.00407783 4.15416e-24)
(0.0165695 0.00407344 4.45447e-24)
(0.383369 0.100162 3.56423e-25)
(0.504591 0.134882 -1.49649e-23)
(0.605046 0.165283 0)
(0.677519 0.188956 -4.1414e-26)
(0.716325 0.203791 -3.42117e-23)
(0.718556 0.208389 5.90821e-23)
(0.684744 0.202326 -1.49996e-22)
(0.618769 0.186219 -9.9918e-23)
(0.527104 0.161565 3.38575e-22)
(0.417512 0.130404 0)
(0.297965 0.0949787 0)
(0.17557 0.0572865 -7.89198e-22)
(0.0563132 0.0190993 9.52645e-22)
(0.247243 0.0630269 -9.17101e-26)
(0.141067 0.0354023 1.11415e-25)
(0.141362 0.0354877 -1.1145e-25)
(0.0692536 0.017151 0)
(0.0694202 0.0171952 0)
(0.0164478 0.00404203 0)
(0.0164598 0.00404727 6.07113e-24)
(0.0164961 0.00405718 5.53956e-24)
(0.0164911 0.00405425 5.81839e-24)
(0.381343 0.0995697 -3.56259e-25)
(0.501946 0.134046 0)
(0.601881 0.164211 3.42479e-23)
(0.673977 0.187679 1.94517e-23)
(0.712543 0.202354 4.52308e-26)
(0.714667 0.206845 5.9169e-23)
(0.680885 0.20074 9.38565e-23)
(0.615076 0.184657 0)
(0.52367 0.160097 0)
(0.414468 0.129104 -4.63823e-22)
(0.295376 0.0939167 0)
(0.1737 0.0565932 0)
(0.0555228 0.0188169 1.08421e-21)
(0.246009 0.0626878 2.95394e-26)
(0.140378 0.0352244 -1.33858e-25)
(0.140674 0.0353114 1.33905e-25)
(0.0689122 0.0170669 0)
(0.0690846 0.017112 0)
(0.0163784 0.00402419 0)
(0.0163801 0.00402808 -7.51047e-24)
(0.0164177 0.00403737 -6.8736e-24)
(0.0164098 0.00403435 7.15593e-24)
(0.379412 0.0989952 -7.51526e-23)
(0.499399 0.133221 -9.81174e-23)
(0.598824 0.163141 -2.10265e-23)
(0.670523 0.186392 0)
(0.708822 0.200895 2.52378e-26)
(0.71082 0.205271 0)
(0.677042 0.19911 0)
(0.611363 0.183044 0)
(0.520181 0.158568 4.06771e-22)
(0.411321 0.127747 0)
(0.292705 0.0928164 0)
(0.171726 0.0558788 -9.94129e-22)
(0.0548889 0.0183833 1.22788e-21)
(0.244832 0.0623641 8.81029e-23)
(0.13973 0.0350512 -1.45115e-25)
(0.140005 0.035134 3.13289e-25)
(0.0685811 0.0169842 0)
(0.0687472 0.0170312 0)
(0.016295 0.00400567 9.10899e-24)
(0.0163091 0.00401047 -8.7752e-24)
(0.0163454 0.00401926 -8.10723e-24)
(0.0163389 0.00401611 8.31664e-24)
(0.377581 0.0984417 7.0143e-23)
(0.496964 0.132406 -2.24556e-25)
(0.595864 0.162066 0)
(0.66715 0.185092 0)
(0.705165 0.199414 -1.25626e-23)
(0.707014 0.203662 -2.16356e-23)
(0.673215 0.197438 -6.55824e-23)
(0.60762 0.181378 0)
(0.516663 0.156993 -3.95077e-25)
(0.408085 0.126326 0)
(0.289973 0.0916775 0)
(0.169596 0.0550084 -1.1257e-21)
(0.0553812 0.0180243 1.42772e-21)
(0.243714 0.0620648 2.10833e-25)
(0.139102 0.0348901 3.58753e-25)
(0.139355 0.0349635 -5.26842e-25)
(0.0682648 0.0169028 0)
(0.0684281 0.0169465 -1.07248e-23)
(0.0162215 0.00398626 1.04661e-23)
(0.0162314 0.00399178 -1.01593e-23)
(0.0162693 0.00400349 0)
(0.0162594 0.00399816 0)
(0.375835 0.097901 1.06651e-22)
(0.494635 0.131589 9.03593e-23)
(0.59301 0.160985 0)
(0.663859 0.183779 1.3091e-23)
(0.701578 0.197909 2.17601e-23)
(0.70325 0.202014 4.44155e-23)
(0.6694 0.195716 0)
(0.603877 0.179656 0)
(0.513062 0.155343 4.18758e-22)
(0.404842 0.124845 0)
(0.286822 0.0904059 0)
(0.169652 0.0539013 6.16557e-23)
(0.0493633 0.0151767 -5.97049e-23)
(0.24266 0.0617963 -1.25617e-22)
(0.138488 0.0347501 0)
(0.138745 0.0348132 5.25214e-23)
(0.0679638 0.0168282 0)