/*--------------------------------*- C++ -*----------------------------------*\
| =========                 |                                                 |
| \\      /  F ield         | OpenFOAM: The Open Source CFD Toolbox           |
|  \\    /   O peration     | Version:  v1912                                 |
|   \\  /    A nd           | Website:  www.openfoam.com                      |
|    \\/     M anipulation  |                                                 |
\*---------------------------------------------------------------------------*/
FoamFile
{
    version     2.0;
    format      ascii;
    class       volScalarField;
    location    "220";
    object      p;
}
// * * * * * * * * * * * * * * * * * * * * * * * * * * * * * * * * * * * * * //

dimensions      [0 2 -2 0 0 0 0];


internalField   nonuniform List<scalar> 
3754
(
0.243494
0.240214
0.277157
0.233889
0.270068
0.383612
0.225136
0.256921
0.361212
0.561114
0.546178
0.214742
0.240614
0.319384
0.5131
0.457497
0.671782
0.680103
0.620975
0.649628
0.20344
0.223324
0.271999
0.391413
0.324698
0.52163
0.574822
0.4669
0.510443
0.191792
0.206246
0.229557
0.245662
0.385937
0.434284
0.227794
0.211703
0.383864
0.180223
0.189861
0.194709
0.183602
-0.314685
-0.257532
0.142011
0.129939
-0.195861
-0.215084
0.169035
0.174451
0.166298
0.141514
-0.330811
-0.514246
-0.458496
-0.475408
-0.161307
-0.445601
0.158459
0.160224
0.142843
0.110489
-0.26255
-0.410744
-0.431396
-0.539452
-0.522322
-0.429445
-0.544224
0.148675
0.147339
0.123213
0.0832695
-0.212629
-0.369566
-0.339918
-0.417104
-0.456152
-0.418041
-0.432947
-0.547227
0.139819
0.135887
0.10668
0.0600051
-0.178761
-0.331082
-0.326609
-0.307781
-0.340881
-0.364705
-0.457628
-0.36853
-0.412788
-0.42677
-0.438018
0.131996
0.125915
0.0927337
0.0409356
-0.155058
-0.299332
-0.312576
-0.304034
-0.298333
-0.305759
-0.319091
-0.344161
-0.379904
-0.363557
-0.416869
-0.428955
0.12529
0.117451
0.0809895
0.0254605
-0.139073
-0.273623
-0.299311
-0.298223
-0.296675
-0.287148
-0.296286
-0.302325
-0.306133
-0.320858
-0.339419
-0.351261
-0.379339
-0.365054
0.119767
0.110514
0.0711372
0.0129722
-0.129098
-0.254072
-0.288212
-0.292297
-0.293982
-0.286658
-0.276765
-0.283264
-0.29079
-0.297046
-0.303551
-0.302128
-0.312077
-0.326108
-0.317678
-0.34034
-0.35101
0.115485
0.10512
0.0629603
0.00302079
-0.123658
-0.240181
-0.279895
-0.287613
-0.291245
-0.285657
-0.275746
-0.277737
-0.265279
-0.289481
-0.291449
-0.296061
-0.298958
-0.306241
-0.301947
-0.300423
-0.314347
-0.325548
-0.318412
0.112498
0.101279
0.0563069
-0.00478928
-0.121734
-0.23125
-0.274307
-0.284478
-0.289076
-0.284853
-0.275111
-0.264623
-0.266411
-0.275531
-0.281683
-0.254516
-0.285083
-0.289252
-0.292972
-0.290611
-0.296422
-0.299177
-0.3087
-0.302082
-0.299333
0.110855
0.0990086
0.0510729
-0.0107567
-0.122701
-0.226777
-0.271307
-0.282879
-0.287692
-0.28436
-0.274954
-0.26442
-0.254432
-0.254749
-0.264864
-0.269938
-0.27452
-0.277774
-0.280219
-0.283354
-0.289076
-0.248411
-0.288708
-0.29322
-0.290862
-0.296755
-0.299305
-0.308281
-0.302121
0.11061
0.0983266
0.0471947
-0.0150582
-0.12623
-0.226451
-0.270849
-0.282794
-0.287213
-0.284243
-0.275109
-0.264538
-0.254429
-0.247331
-0.249513
-0.255136
-0.256584
-0.264389
-0.26714
-0.268804
-0.271145
-0.287852
-0.238556
-0.288804
-0.293419
-0.291207
0.111817
0.0992564
0.044672
-0.0177501
-0.132274
-0.230115
-0.272929
-0.284211
-0.287693
-0.284584
-0.275529
-0.264852
-0.254557
-0.246484
-0.237737
-0.239377
-0.247821
-0.25205
-0.254685
-0.257577
-0.25367
-0.26096
-0.228297
0.114539
0.101827
0.0435688
-0.0188208
-0.141093
-0.237766
-0.277545
-0.287103
-0.289146
-0.28543
-0.276205
-0.265313
-0.254778
-0.245898
-0.236977
-0.227527
-0.229077
-0.237485
-0.242468
-0.246962
-0.249427
-0.251364
-0.252911
-0.254598
-0.258113
-0.252308
-0.218743
0.118835
0.106075
0.0440267
-0.0182047
-0.153252
-0.249562
-0.284709
-0.291447
-0.291565
-0.286805
-0.27713
-0.26589
-0.255052
-0.245512
-0.236305
-0.22682
-0.217948
-0.219591
-0.227262
-0.232187
-0.236603
-0.239304
-0.241524
-0.243806
-0.247463
-0.249772
-0.251488
-0.252843
-0.20915
0.124771
0.112038
0.046293
-0.0158464
-0.169662
-0.265804
-0.294444
-0.297227
-0.294936
-0.288719
-0.278301
-0.266567
-0.25535
-0.245256
-0.235714
-0.226173
-0.217235
-0.208662
-0.209636
-0.217808
-0.222481
-0.226407
-0.229001
-0.23118
-0.233516
-0.2371
-0.239627
-0.241654
-0.243687
-0.201563
0.132391
0.119776
0.0507571
-0.0117973
-0.191677
-0.286963
-0.306785
-0.304435
-0.299239
-0.29117
-0.279713
-0.267334
-0.255661
-0.245069
-0.235181
-0.225551
-0.216552
-0.208109
-0.200836
-0.202267
-0.207545
-0.212868
-0.216961
-0.219457
-0.221447
-0.223663
-0.226853
-0.229282
-0.231267
-0.233365
-0.193568
0.14172
0.129369
0.0580424
-0.00626657
-0.221281
-0.313652
-0.321791
-0.313065
-0.30445
-0.294136
-0.281355
-0.26818
-0.255974
-0.244912
-0.23468
-0.224924
-0.215856
-0.207472
-0.200062
-0.192878
-0.19415
-0.200695
-0.2048
-0.20587
-0.209943
-0.211942
-0.214263
-0.217375
-0.219688
-0.221508
-0.223506
-0.18534
0.152733
0.140968
0.0690768
0.000313125
-0.261349
-0.346608
-0.339523
-0.323119
-0.310537
-0.297585
-0.283205
-0.269093
-0.256281
-0.244751
-0.234182
-0.224275
-0.215122
-0.206743
-0.199232
-0.192095
-0.18473
-0.185882
-0.192426
-0.196515
-0.199855
-0.20199
-0.203933
-0.206286
-0.205308
-0.2112
-0.212144
-0.214086
-0.177582
0.165374
0.154826
0.0849637
0.00663826
-0.315279
-0.38662
-0.359976
-0.33459
-0.317461
-0.301467
-0.285233
-0.270054
-0.256571
-0.244561
-0.23366
-0.223587
-0.214341
-0.205924
-0.198334
-0.19122
-0.184036
-0.177002
-0.1781
-0.183989
-0.18833
-0.191621
-0.193723
-0.19562
-0.197563
-0.200111
-0.2022
-0.203983
-0.207332
-0.204498
-0.170254
0.179433
0.171566
0.106575
0.00991502
-0.385356
-0.434027
-0.382876
-0.347382
-0.325139
-0.305716
-0.287398
-0.271039
-0.256828
-0.244323
-0.233091
-0.222844
-0.213501
-0.205028
-0.197366
-0.190254
-0.183235
-0.176341
-0.169692
-0.170738
-0.176563
-0.180324
-0.182356
-0.185296
-0.187429
-0.189389
-0.191903
-0.193916
-0.195692
-0.197542
-0.200292
-0.202257
-0.203977
-0.207067
-0.163198
0.194451
0.192108
0.135293
0.0110219
-0.474248
-0.48692
-0.407381
-0.36111
-0.333379
-0.310219
-0.289646
-0.272019
-0.257032
-0.244016
-0.232455
-0.222029
-0.212591
-0.204059
-0.196336
-0.189209
-0.182319
-0.175583
-0.169058
-0.162655
-0.163696
-0.169261
-0.172904
-0.176845
-0.180417
-0.185015
-0.185619
-0.187518
-0.18936
-0.192098
-0.193992
-0.195845
-0.197593
-0.156313
0.209787
0.215248
0.176186
0.0224502
-0.59264
-0.539807
-0.431599
-0.374836
-0.341733
-0.314772
-0.291895
-0.272955
-0.257159
-0.243618
-0.231731
-0.221128
-0.211599
-0.203014
-0.195244
-0.188102
-0.181303
-0.174718
-0.168344
-0.162076
-0.155879
-0.156739
-0.162247
-0.165777
-0.16954
-0.173021
-0.17614
-0.177989
-0.181595
-0.179532
-0.184445
-0.185609
-0.187658
-0.189402
-0.149959
0.224506
0.237163
0.235517
0.039049
-0.737006
-0.585915
-0.452012
-0.387013
-0.349368
-0.319021
-0.294012
-0.273796
-0.257181
-0.24311
-0.230901
-0.220125
-0.210512
-0.201885
-0.194087
-0.186939
-0.180208
-0.173755
-0.167535
-0.161436
-0.155407
-0.149614
-0.150271
-0.155253
-0.158847
-0.162511
-0.165864
-0.168837
-0.170644
-0.173993
-0.172201
-0.144377
0.237651
0.25963
0.250149
0.283811
0.187966
0.246934
0.328453
-0.724347
-0.200376
-0.865228
-0.619806
-0.86336
-0.463552
-0.395909
-0.355188
-0.322462
-0.295797
-0.274471
-0.257072
-0.242476
-0.229951
-0.219007
-0.209318
-0.200662
-0.192855
-0.185717
-0.179049
-0.172709
-0.166632
-0.160707
-0.154863
-0.149197
-0.143921
-0.14479
-0.149439
-0.151721
-0.155641
-0.15903
-0.161806
-0.163569
-0.166794
-0.165055
-0.138429
0.24838
0.279478
0.310791
0.33735
0.359174
0.316899
0.0364706
0.0505562
-0.747855
-0.71801
-0.424702
-1.03489
-0.912874
-0.890752
-0.67507
-0.465445
-0.597303
-0.850894
-0.400273
-0.358481
-0.324619
-0.297031
-0.274896
-0.25681
-0.241716
-0.228881
-0.217769
-0.208009
-0.199334
-0.191537
-0.18443
-0.177828
-0.171593
-0.165646
-0.159887
-0.154231
-0.148709
-0.143443
-0.138061
-0.138762
-0.143481
-0.146506
-0.149833
-0.151552
-0.155504
-0.156685
-0.1599
-0.158206
-0.132604
0.25587
0.293301
0.359678
0.377637
0.402275
0.446515
0.38892
0.337403
0.0444607
-0.0268654
0.36375
-0.173958
-0.941473
-0.853886
-0.668278
-0.496558
-0.400274
-0.44654
-0.597576
-0.359535
-0.32542
-0.297598
-0.275011
-0.256394
-0.240854
-0.227715
-0.216424
-0.206586
-0.197897
-0.190125
-0.183066
-0.176542
-0.170413
-0.164592
-0.158986
-0.153509
-0.148143
-0.14294
-0.137667
-0.132282
-0.132919
-0.137513
-0.140459
-0.143627
-0.14659
-0.149201
-0.150718
-0.151539
-0.152259
-0.127061
0.259451
0.301544
0.384134
0.383683
0.480292
0.506438
0.441973
0.484572
0.544649
0.511247
0.419486
0.079557
-0.855343
-0.704414
-0.640966
-0.491155
-0.397278
-0.359018
-0.449783
-0.568881
-0.620456
-0.32524
-0.297601
-0.27484
-0.255862
-0.239953
-0.226518
-0.215023
-0.205079
-0.196362
-0.188614
-0.181617
-0.175183
-0.169169
-0.163475
-0.158015
-0.152705
-0.147501
-0.142401
-0.137249
-0.131964
-0.126765
-0.127358
-0.131746
-0.1346
-0.13769
-0.140556
-0.143038
-0.144501
-0.147376
-0.145905
-0.149216
-0.150668
-0.150632
-0.152302
-0.121717
0.258808
0.299543
0.451946
0.528659
0.54039
0.573643
0.599357
0.63343
0.618118
0.48252
0.464358
0.585411
0.516602
0.146493
-0.502524
-0.474624
-0.408572
-0.357167
-0.383966
-0.32435
-0.437715
-0.459259
-0.565324
-0.612173
-0.29719
-0.274467
-0.255287
-0.239099
-0.225385
-0.21365
-0.203552
-0.194767
-0.187024
-0.180083
-0.173746
-0.167854
-0.162296
-0.156983
-0.151833
-0.146789
-0.141821
-0.136807
-0.131651
-0.126497
-0.12145
-0.121994
-0.126217
-0.128978
-0.131925
-0.134706
-0.137106
-0.138558
-0.141372
-0.139918
-0.14316
-0.144534
-0.147368
-0.145987
-0.116524
0.254232
0.29052
0.418884
0.632171
0.574404
0.641976
0.6417
0.615564
0.633109
0.633123
0.677848
0.728201
0.704812
0.393035
-0.494699
-0.474522
-0.436971
-0.412852
-0.398964
-0.364712
-0.32292
-0.346337
-0.389448
-0.379544
-0.296373
-0.458908
-0.273918
-0.254715
-0.238363
-0.224417
-0.212419
-0.202109
-0.193192
-0.185402
-0.178488
-0.172236
-0.166467
-0.161052
-0.155892
-0.150902
-0.14602
-0.141198
-0.136339
-0.131337
-0.126266
-0.121231
-0.116282
-0.116789
-0.120876
-0.123561
-0.126389
-0.129077
-0.131357
-0.132763
-0.135499
-0.134075
-0.137219
-0.138585
-0.141385
-0.14001
-0.111474
0.24612
0.276441
0.377743
0.449637
0.70997
0.500215
0.564462
0.413784
0.738152
0.735725
0.72492
-0.434955
-0.367404
-0.358461
-0.32912
-0.295123
-0.314119
-0.350568
-0.341473
-0.378617
-0.273129
-0.454106
-0.254112
-0.237738
-0.223657
-0.211418
-0.200866
-0.191747
-0.183836
-0.176888
-0.170683
-0.165018
-0.159743
-0.15474
-0.149916
-0.145201
-0.140538
-0.135842
-0.131013
-0.126068
-0.12108
-0.116113
-0.111251
-0.111734
-0.115694
-0.118314
-0.121044
-0.123654
-0.12584
-0.127198
-0.129836
-0.128463
-0.13146
-0.132784
-0.135505
-0.13416
-0.106533
0.234905
0.258571
0.336097
0.374064
0.0411017
0.0633129
0.653405
0.0971787
0.101709
-0.364545
-0.357301
-0.331619
-0.323464
-0.300183
-0.272018
-0.287857
-0.313421
-0.350501
-0.342349
-0.253373
-0.237152
-0.223059
-0.210664
-0.199894
-0.19054
-0.182436
-0.175376
-0.169149
-0.163543
-0.158384
-0.153532
-0.148875
-0.144333
-0.13984
-0.135317
-0.130675
-0.125891
-0.120999
-0.116049
-0.111133
-0.106332
-0.106808
-0.110658
-0.113224
-0.11586
-0.118402
-0.120513
-0.121832
-0.124386
-0.123058
-0.125938
-0.127218
-0.129841
-0.128543
-0.101674
0.220993
0.237973
0.296659
0.315026
0.0127852
-0.0311818
-0.0129831
-0.0274087
-0.00929032
-0.330998
-0.322859
-0.298651
-0.276339
-0.252305
-0.265773
-0.287421
-0.309497
-0.316793
-0.23649
-0.22252
-0.210086
-0.199185
-0.189624
-0.1813
-0.174058
-0.167727
-0.162106
-0.157013
-0.152283
-0.147785
-0.143418
-0.139105
-0.134766
-0.130319
-0.125721
-0.120972
-0.116094
-0.111161
-0.106279
-0.101543
-0.101914
-0.105753
-0.108266
-0.11082
-0.113306
-0.115344
-0.116629
-0.119113
-0.117822
-0.120607
-0.121851
-0.124393
-0.123135
-0.097068
0.204757
0.215453
0.259694
0.267208
0.0313546
0.00155668
-0.00211726
-0.0319181
-0.0329317
-0.00143693
-0.0350923
-0.329077
-0.322405
-0.300846
-0.29515
-0.275034
-0.256006
-0.235555
-0.24656
-0.265348
-0.283885
-0.289921
-0.22192
-0.20957
-0.198656
-0.18897
-0.180459
-0.173012
-0.166515
-0.160798
-0.155695
-0.151035
-0.146665
-0.142463
-0.138331
-0.134185
-0.129941
-0.125546
-0.120977
-0.116229
-0.11134
-0.106412
-0.101578
-0.0969915
-0.0972523
-0.100866
-0.103386
-0.105921
-0.108338
-0.110317
-0.111577
-0.113999
-0.112739
-0.115437
-0.116649
-0.119122
-0.117898
-0.0927674
0.186504
0.191621
0.225012
0.225273
0.0431801
0.0078254
0.0133484
-0.00417407
-0.00998087
-0.00718289
-0.00532275
-0.294345
-0.276771
-0.271604
-0.254971
-0.234237
-0.221157
-0.246621
-0.262588
-0.267289
-0.283604
-0.289043
-0.209004
-0.198191
-0.188484
-0.179867
-0.172255
-0.165576
-0.159706
-0.154516
-0.149852
-0.145555
-0.141487
-0.137526
-0.133572
-0.129538
-0.125358
-0.120994
-0.116421
-0.111645
-0.106735
-0.101821
-0.0970817
-0.0926561
-0.0929879
-0.0964291
-0.0984973
-0.101042
-0.103512
-0.105418
-0.106661
-0.10902
-0.10778
-0.110408
-0.111598
-0.114009
-0.112814
-0.0883075
0.166501
0.166927
0.19251
0.188614
0.047922
0.0119523
0.0160649
0.00637398
0.00752426
0.00820711
0.00632591
-0.00832537
-0.00952258
-0.27582
-0.271332
-0.256532
-0.251917
-0.237458
-0.220197
-0.229749
-0.208305
-0.246188
-0.263038
-0.266836
-0.197685
-0.188054
-0.179428
-0.171731
-0.164908
-0.158878
-0.153552
-0.148812
-0.144515
-0.140527
-0.136707
-0.132934
-0.129108
-0.12515
-0.121008
-0.116642
-0.112036
-0.107218
-0.102286
-0.097408
-0.0927521
-0.0882454
-0.0884896
-0.0920055
-0.094282
-0.0966351
-0.0985056
-0.100621
-0.101811
-0.104184
-0.102969
-0.105504
-0.106677
-0.10903
-0.107856
-0.08387
0.144948
0.141733
0.162111
0.156899
0.049234
0.015237
0.0181407
0.00755199
0.00178494
0.00272913
0.00803643
0.00590929
0.00399108
0.00193188
0.00610201
0.00926746
-0.25572
-0.251562
-0.238484
-0.235108
-0.222667
-0.207457
-0.216125
-0.231346
-0.227672
-0.197061
-0.247817
-0.243425
-0.262024
-0.187588
-0.179041
-0.171342
-0.164449
-0.158299
-0.152835
-0.147976
-0.143614
-0.139638
-0.135907
-0.132286
-0.128657
-0.124919
-0.121009
-0.116871
-0.112474
-0.107814
-0.102947
-0.0979969
-0.0931339
-0.0884066
-0.0838387
-0.0840466
-0.0875344
-0.0897726
-0.0921166
-0.0943758
-0.0961993
-0.0973003
-0.0987295
-0.0984639
-0.101184
-0.101873
-0.104176
-0.103058
-0.0795506
0.122003
0.116379
0.133787
0.129468
0.0483315
0.0180966
0.0198567
0.00906942
0.00227032
-0.00252264
-9.87884e-06
0.00266308
-0.000998039
0.00588833
0.00675578
0.00818353
0.00561987
0.0072351
-0.25479
-0.251552
-0.234373
-0.223563
-0.220291
-0.209762
-0.196284
-0.203731
-0.217364
-0.21447
-0.231077
-0.227755
-0.187018
-0.17862
-0.170994
-0.164108
-0.157906
-0.152341
-0.147364
-0.142904
-0.13888
-0.135175
-0.131656
-0.128194
-0.124668
-0.12099
-0.117094
-0.11293
-0.108478
-0.103751
-0.0988242
-0.0938327
-0.0888821
-0.0840662
-0.07954
-0.0797228
-0.0831403
-0.0853435
-0.0876652
-0.0898635
-0.0916653
-0.0927762
-0.0949836
-0.0938664
-0.0962458
-0.0973797
-0.0985086
-0.0989234
-0.075345
0.0980684
0.0912939
0.107659
0.1058
0.0459029
0.0201569
0.0208282
0.010485
0.00271208
-0.00211403
-0.00643807
-0.00430809
-0.00205177
-0.000868471
0.000150338
0.00142898
0.00385072
-0.00349728
0.00751358
0.00645483
0.00766324
0.00526556
-0.222686
-0.219835
-0.210604
-0.207601
-0.198196
-0.186317
-0.193079
-0.203233
-0.217227
-0.215056
-0.178103
-0.170613
-0.163798
-0.157609
-0.152004
-0.146948
-0.142391
-0.13829
-0.134557
-0.131083
-0.127741
-0.1244
-0.120949
-0.117299
-0.113387
-0.109172
-0.104645
-0.0998328
-0.0948217
-0.0897159
-0.0846482
-0.0798158
-0.0753499
-0.0755072
-0.0788355
-0.0810051
-0.0832817
-0.0854477
-0.0872211
-0.0883302
-0.0904935
-0.0893849
-0.0917341
-0.0928191
-0.0950252
-0.0939232
-0.0962942
-0.097324
-0.0978743
-0.0988236
-0.0712426
0.0744689
0.0671994
0.0841484
0.0856467
0.0426805
0.0214336
0.0210539
0.0114874
0.00319441
-0.00176444
-0.00623671
-0.0111307
-0.00765753
-0.005871
-0.00495707
-0.00420581
-0.00314235
-0.00186994
-0.000994099
-3.75022e-06
0.00118107
0.00566618
-0.00406485
0.00709379
0.00609198
0.00715786
-0.209738
-0.206906
-0.197462
-0.18806
-0.177466
-0.183392
-0.192869
-0.201622
-0.204541
-0.214416
-0.170152
-0.163458
-0.157333
-0.151745
-0.146665
-0.142044
-0.137871
-0.134082
-0.130603
-0.12733
-0.124131
-0.120885
-0.117479
-0.113828
-0.109874
-0.105583
-0.100958
-0.0960345
-0.0908852
-0.0856317
-0.0804891
-0.0756686
-0.0712481
-0.0712743
-0.0746212
-0.0767565
-0.0789815
-0.0811104
-0.0828439
-0.0839415
-0.0860757
-0.0849751
-0.0872929
-0.0883731
-0.0905449
-0.0894577
-0.0918041
-0.0928486
-0.0950516
-0.0939904
-0.0672403
0.0522909
0.0455594
0.0640686
0.0690439
0.0393004
0.0221556
0.0207747
0.012065
0.00371368
-0.00130405
-0.00576092
-0.00987967
-0.00901094
-0.0110278
-0.0116548
-0.00789581
-0.00733693
-0.00687459
-0.00575475
-0.00495412
-0.00433946
-0.00337028
-0.002137
-0.209061
-0.206953
-0.198182
-0.195697
-0.187375
-0.179002
-0.169576
-0.174881
-0.183049
-0.190906
-0.194391
-0.163041
-0.157018
-0.151496
-0.146443
-0.141804
-0.137588
-0.133747
-0.130238
-0.126986
-0.12388
-0.120801
-0.117624
-0.114237
-0.110559
-0.106536
-0.102147
-0.0973962
-0.0923178
-0.0869969
-0.0816164
-0.0764262
-0.0716063
-0.0672499
-0.067381
-0.0696614
-0.0725144
-0.0747983
-0.0768644
-0.0785535
-0.0796321
-0.081728
-0.0806439
-0.0829151
-0.0839822
-0.0861253
-0.085048
-0.0873636
-0.0884027
-0.0905796
-0.089529
-0.0633501
0.027667
0.0289588
0.0485641
0.056285
0.0362742
0.0225137
0.020196
0.0122869
0.00420304
-0.000783041
-0.00513226
-0.00884999
-0.008834
-0.011022
-0.00980673
-0.00956712
-0.0111141
-0.010309
-0.015172
-0.00809656
-0.00785033
-0.00760035
-0.00712635
-0.00602533
-0.188056
-0.185817
-0.178456
-0.170989
-0.162486
-0.167081
-0.174636
-0.181647
-0.183921
-0.190572
-0.193928
-0.156628
-0.151206
-0.146221
-0.141606
-0.137388
-0.133519
-0.129981
-0.126722
-0.123665
-0.120708
-0.117727
-0.114594
-0.111202
-0.107473
-0.103358
-0.0988414
-0.0939293
-0.0886652
-0.083177
-0.0776859
-0.0724437
-0.0676459
-0.0633766
-0.0674494
-0.0635142
-0.0713385
-0.0726713
-0.0743674
-0.0754204
-0.0774685
-0.0764052
-0.0786248
-0.0796727
-0.0817759
-0.0807166
-0.0829841
-0.0840097
-0.0861579
-0.0851175
-0.0595694
-0.00162854
0.02055
0.0385698
0.0476441
0.0339624
0.0226408
0.0194468
0.012221
0.00458694
-0.000301305
-0.00450241
-0.00806702
-0.00881331
-0.0112626
-0.0123229
-0.0118887
-0.0108663
-0.0160374
-0.0101872
-0.0100607
-0.00984525
-0.0100948
-0.0162184
-0.00783732
-0.187619
-0.185666
-0.179073
-0.177004
-0.170516
-0.161742
-0.156142
-0.166619
-0.173144
-0.175638
-0.181474
-0.18364
-0.150845
-0.145956
-0.141401
-0.137217
-0.133351
-0.129803
-0.126534
-0.123498
-0.120617
-0.117789
-0.114883
-0.111776
-0.108356
-0.104552
-0.100319
-0.0956434
-0.0905407
-0.0850843
-0.0794324
-0.0738318
-0.0685511
-0.0637902
-0.0595948
-0.0636933
-0.0667491
-0.0688404
-0.0597465
-0.071067
-0.073208
-0.0717654
-0.0744438
-0.0754572
-0.0775162
-0.0764766
-0.0786935
-0.0797009
-0.081808
-0.0807858
-0.0558542
0.0213349
0.0337068
0.0428601
0.0324606
0.0226017
0.0186153
0.0119355
0.00482406
6.65708e-05
-0.00395795
-0.00741845
-0.00876286
-0.0111731
-0.0148641
-0.0145757
-0.0158924
-0.0145746
-0.0123944
-0.0118627
-0.0117429
-0.0113998
-0.0107946
-0.015913
-0.178683
-0.176725
-0.171107
-0.169304
-0.162844
-0.15556
-0.159904
-0.150396
-0.166466
-0.172816
-0.17581
-0.145627
-0.141152
-0.137032
-0.133199
-0.129665
-0.126398
-0.123374
-0.120537
-0.117815
-0.115094
-0.11225
-0.109147
-0.10568
-0.101777
-0.0973982
-0.0925365
-0.0872296
-0.0815766
-0.075761
-0.0700551
-0.0647443
-0.0600144
-0.0558737
-0.0599829
-0.0629808
-0.0648528
-0.0663948
-0.0674233
-0.0683585
-0.0693626
-0.0560375
-0.0704513
-0.0715029
-0.0728497
-0.073353
-0.074504
-0.0754836
-0.077549
-0.0765451
-0.0522013
0.0316756
0.0408312
0.0315022
0.0223739
0.0177487
0.0114908
0.00490168
0.000283761
-0.00355998
-0.00689771
-0.008657
-0.0109647
-0.013884
-0.0147339
-0.0153142
-0.0162176
-0.0156785
-0.0151589
-0.012913
-0.0150306
-0.170758
-0.168714
-0.163237
-0.161607
-0.15656
-0.149854
-0.153597
-0.160261
-0.159396
-0.145226
-0.167194
-0.165363
-0.172562
-0.175424
-0.140844
-0.136805
-0.133027
-0.129531
-0.126287
-0.123276
-0.120468
-0.117815
-0.115232
-0.112606
-0.109803
-0.106688
-0.103154
-0.0991288
-0.0945791
-0.0895146
-0.0839945
-0.0781385
-0.0721569
-0.0663511
-0.0610096
-0.0562983
-0.0522118
-0.0562851
-0.0592648
-0.0611207
-0.0626489
-0.0636101
-0.0644336
-0.0653512
-0.0523958
-0.0726096
-0.0733481
-0.0486183
0.0401679
0.0305999
0.0218679
0.0168547
0.0109225
0.00481383
0.000337331
-0.00333883
-0.00653262
-0.00853405
-0.0107484
-0.0133739
-0.0143571
-0.0149924
-0.0153162
-0.0155819
-0.0154237
-0.0155925
-0.0163426
-0.0158777
-0.0151401
-0.170476
-0.16881
-0.156787
-0.155437
-0.150733
-0.144756
-0.148098
-0.154174
-0.152709
-0.15932
-0.140459
-0.136521
-0.132814
-0.129373
-0.12617
-0.123184
-0.120401
-0.117796
-0.115307
-0.112846
-0.1103
-0.107523
-0.104381
-0.10076
-0.0965905
-0.0918522
-0.0865724
-0.0808291
-0.0747615
-0.0686162
-0.0627084
-0.0573314
-0.0526412
-0.0486199
-0.0526469
-0.055576
-0.0574141
-0.058931
-0.0598863
-0.0607085
-0.0616143
-0.0488319
-0.0451094
0.0295097
0.0209955
0.0159109
0.0102428
0.00455096
0.000222513
-0.00329951
-0.00633904
-0.00844496
-0.0105445
-0.0128889
-0.0139721
-0.0144924
-0.0144316
-0.0148498
-0.0157759
-0.0158046
-0.0164365
-0.015402
-0.0155064
-0.0156824
-0.016503
-0.0159834
-0.156222
-0.155233
-0.151076
-0.149737
-0.145621
-0.139986
-0.143123
-0.148569
-0.147207
-0.154093
-0.152686
-0.136174
-0.132547
-0.129174
-0.126024
-0.123078
-0.120326
-0.117759
-0.115331
-0.112986
-0.110638
-0.108154
-0.105394
-0.102208
-0.0984801
-0.0941502
-0.0892098
-0.0837016
-0.077723
-0.071441
-0.0651263
-0.059117
-0.0537093
-0.0490573
-0.0451174
-0.0490964
-0.0519526
-0.0537601
-0.0552456
-0.056188
-0.0570025
-0.0579027
-0.0453351
-0.0417134
0.0198914
0.0148658
0.00944795
0.00410898
-6.20675e-05
-0.00343424
-0.00631517
-0.00843021
-0.0103905
-0.0124448
-0.0135471
-0.0140518
-0.0141551
-0.0147777
-0.0148322
-0.0147119
-0.0148923
-0.0160135
-0.0179715
-0.015173
-0.0142403
-0.01567
-0.0158026
-0.150719
-0.149516
-0.14615
-0.144514
-0.140682
-0.135766
-0.138489
-0.143586
-0.142468
-0.148449
-0.147
-0.132217
-0.128924
-0.125838
-0.122943
-0.120229
-0.1177
-0.115316
-0.113049
-0.110839
-0.108582
-0.106156
-0.103395
-0.100149
-0.0963021
-0.0917987
-0.086641
-0.0808913
-0.0746688
-0.0681648
-0.0616817
-0.0555749
-0.0501559
-0.0455645
-0.0417458
-0.0456434
-0.0484087
-0.0501844
-0.0516291
-0.0525527
-0.0533539
-0.0542399
-0.041883
-0.0385516
0.0138017
0.00849516
0.00348587
-0.000506731
-0.00372775
-0.00644739
-0.00851206
-0.0103231
-0.0121072
-0.0131757
-0.0136978
-0.0139398
-0.0145062
-0.0150747
-0.0151515
-0.0149934
-0.0150647
-0.0149026
-0.0149522
-0.0150379
-0.0194335
-0.0141285
-0.0144066
-0.0159531
-0.14626
-0.144153
-0.140248
-0.136391
-0.13182
-0.134466
-0.138236
-0.143434
-0.141914
-0.128612
-0.125605
-0.122768
-0.120101
-0.117614
-0.115267
-0.113053
-0.110934
-0.108839
-0.106671
-0.104283
-0.101511
-0.0981941
-0.0942152
-0.0895223
-0.0841345
-0.0781324
-0.0716556
-0.0649273
-0.058278
-0.0520931
-0.0466883
-0.0421971
-0.0385458
-0.0421225
-0.0449682
-0.0466923
-0.0480924
-0.0489985
-0.049785
-0.050654
-0.0387661
0.00747179
0.00265761
-0.0010986
-0.00415636
-0.00671665
-0.00869554
-0.0103594
-0.0119043
-0.0129038
-0.0134371
-0.0137612
-0.0142871
-0.0148435
-0.0153344
-0.0153992
-0.0152413
-0.0153341
-0.0151818
-0.0152226
-0.0152421
-0.0150965
-0.0151328
-0.015119
-0.0150012
-0.0201156
-0.146055
-0.144015
-0.140609
-0.139529
-0.13605
-0.132424
-0.128237
-0.130551
-0.134363
-0.137532
-0.138643
-0.143294
-0.142016
-0.125319
-0.122552
-0.119934
-0.117495
-0.115185
-0.113013
-0.110954
-0.108965
-0.106977
-0.10488
-0.102523
-0.0997281
-0.0963291
-0.0922035
-0.08731
-0.0816798
-0.0754137
-0.068676
-0.0617228
-0.0549206
-0.0486826
-0.0433297
-0.0389662
-0.0390338
-0.0415201
-0.0431039
-0.0446747
-0.0455396
-0.0462841
-0.0471432
0.00173534
-0.00185219
-0.00470164
-0.00709989
-0.0089746
-0.0105002
-0.0118396
-0.0127479
-0.0132684
-0.0136231
-0.0140967
-0.0146157
-0.0150967
-0.0157999
-0.0155911
-0.0154172
-0.0155589
-0.0154256
-0.0154852
-0.0154425
-0.01529
-0.0153541
-0.0153089
-0.015325
-0.0152047
-0.0152519
-0.136249
-0.135213
-0.132076
-0.12878
-0.124986
-0.127082
-0.130339
-0.133292
-0.13509
-0.122291
-0.119724
-0.117338
-0.115069
-0.112936
-0.110922
-0.108998
-0.107128
-0.105234
-0.1032
-0.100861
-0.0980329
-0.094539
-0.0902573
-0.085151
-0.0792654
-0.072726
-0.0657238
-0.0585534
-0.051619
-0.0453572
-0.0400779
-0.0383829
-0.0399988
-0.0412303
-0.0420966
-0.0426856
-0.0437445
-0.00266319
-0.00537584
-0.00758041
-0.00933518
-0.0107354
-0.0119024
-0.012712
-0.0131966
-0.0135383
-0.0139428
-0.0143866
-0.0147972
-0.0152278
-0.0143385
-0.0164871
-0.0157032
-0.015623
-0.0155866
-0.0157261
-0.0156548
-0.0155231
-0.0156085
-0.015559
-0.0155169
-0.0153666
-0.0154253
-0.13229
-0.131405
-0.128499
-0.125531
-0.122006
-0.123893
-0.126874
-0.129743
-0.130649
-0.133098
-0.135005
-0.119465
-0.117142
-0.114918
-0.112824
-0.110848
-0.108969
-0.107172
-0.105408
-0.103599
-0.101613
-0.0992832
-0.0964118
-0.0928144
-0.088365
-0.0830322
-0.0768822
-0.0700614
-0.062796
-0.0554213
-0.0483788
-0.0421152
-0.038085
-0.0388903
-0.0396492
-0.0404369
-0.0412893
-0.0421171
-0.0424078
-0.00608712
-0.0081711
-0.00976906
-0.0110479
-0.0120728
-0.0127874
-0.0132219
-0.0135209
-0.0138409
-0.0141866
-0.0144965
-0.0147348
-0.0141068
-0.0142462
-0.0145039
-0.0146623
-0.0173525
-0.0155553
-0.0158251
-0.0157337
-0.0157026
-0.015804
-0.0157997
-0.0157352
-0.0156055
-0.0156751
-0.132107
-0.131325
-0.128733
-0.127886
-0.125345
-0.122488
-0.119125
-0.121044
-0.123709
-0.126273
-0.127108
-0.129646
-0.130513
-0.116907
-0.114729
-0.112678
-0.110739
-0.108896
-0.107146
-0.105461
-0.103794
-0.102053
-0.100108
-0.0977783
-0.0948542
-0.0911425
-0.0865137
-0.0809445
-0.0745208
-0.0674154
-0.059892
-0.0523272
-0.0451944
-0.0381839
-0.037265
-0.0389654
-0.0396682
-0.0404238
-0.00878865
-0.0102903
-0.011426
-0.0123281
-0.0129559
-0.0133345
-0.0135767
-0.0138043
-0.0140405
-0.0142428
-0.0143592
-0.0139187
-0.0139694
-0.01424
-0.0144969
-0.0145857
-0.0146751
-0.0145416
-0.0155896
-0.0188503
-0.0156374
-0.015144
-0.0159233
-0.0158634
-0.0158012
-0.0158823
-0.128566
-0.127787
-0.125366
-0.124956
-0.122275
-0.118662
-0.116642
-0.120465
-0.123177
-0.12394
-0.126131
-0.126965
-0.114501
-0.112496
-0.110599
-0.108788
-0.107073
-0.105438
-0.103855
-0.102267
-0.100587
-0.0986736
-0.0963339
-0.0933486
-0.0895138
-0.0846949
-0.0788787
-0.0721729
-0.0647823
-0.0570092
-0.0492676
-0.0372636
-0.0108251
-0.0118816
-0.0126529
-0.0131949
-0.0135169
-0.0136998
-0.0138375
-0.0139647
-0.0140601
-0.0140836
-0.0137626
-0.0137493
-0.013973
-0.0140945
-0.0144013
-0.0144806
-0.0146759
-0.0147621
-0.014845
-0.0148739
-0.0147952
-0.0145939
-0.0196153
-0.0159882
-0.0148909
-0.125059
-0.12516
-0.122497
-0.121897
-0.119096
-0.11637
-0.117798
-0.114226
-0.120462
-0.123074
-0.123616
-0.112276
-0.110427
-0.10865
-0.106966
-0.105365
-0.103831
-0.102333
-0.100818
-0.0991896
-0.0972978
-0.0949413
-0.091888
-0.0879187
-0.082899
-0.0768256
-0.069833
-0.062157
-0.0541392
-0.0123452
-0.0130506
-0.0134887
-0.0137498
-0.0138769
-0.0139357
-0.0139645
-0.0139594
-0.0139005
-0.0136395
-0.0135715
-0.0137312
-0.0138159
-0.0137943
-0.0147136
-0.0142558
-0.014556
-0.0146215
-0.0147548
-0.014827
-0.0148834
-0.0148528
-0.125142
-0.122317
-0.121277
-0.119276
-0.11861
-0.116822
-0.113895
-0.115391
-0.118
-0.117338
-0.112011
-0.120781
-0.120076
-0.12301
-0.123454
-0.110224
-0.108483
-0.106831
-0.105256
-0.103756
-0.102309
-0.100889
-0.0994361
-0.0978498
-0.0959736
-0.0935942
-0.0904609
-0.0863486
-0.0811147
-0.0747781
-0.0674947
-0.0595324
-0.0134518
-0.013841
-0.0140212
-0.0140927
-0.0140868
-0.0140334
-0.0139406
-0.0138068
-0.0135602
-0.0134404
-0.0135209
-0.0135768
-0.0135683
-0.0135281
-0.0139705
-0.0140864
-0.0150113
-0.0158467
-0.0142152
-0.0146399
-0.0147156
-0.0147362
-0.014713
-0.122198
-0.121415
-0.116661
-0.116619
-0.114201
-0.111702
-0.113092
-0.115471
-0.114945
-0.11
-0.108288
-0.106668
-0.10512
-0.103647
-0.102231
-0.100863
-0.0995103
-0.0981114
-0.0965614
-0.0946934
-0.0922812
-0.0890624
-0.0847955
-0.0793378
-0.0727281
-0.0651461
-0.0141887
-0.0143358
-0.0143383
-0.0142754
-0.0141578
-0.0139945
-0.0137951
-0.0135338
-0.0133587
-0.0133503
-0.013357
-0.0133423
-0.0133475
-0.0135517
-0.013703
-0.01378
-0.0140498
-0.0141274
-0.0141797
-0.0143432
-0.0149313
-0.0131605
-0.0144403
-0.0143629
-0.116642
-0.114318
-0.113762
-0.111997
-0.109763
-0.11095
-0.113281
-0.112723
-0.115332
-0.114939
-0.10806
-0.106476
-0.104956
-0.103512
-0.102118
-0.100781
-0.0994826
-0.0981887
-0.0968373
-0.0953157
-0.0934508
-0.091
-0.0876864
-0.0832494
-0.0775595
-0.0706662
-0.0146374
-0.0146189
-0.0144929
-0.0143226
-0.0141054
-0.0138521
-0.0135617
-0.0133285
-0.0132277
-0.013169
-0.0131195
-0.0131255
-0.0132731
-0.0132485
-0.0137442
-0.0135791
-0.0137917
-0.0138302
-0.0139112
-0.013928
-0.0141254
-0.0142075
-0.0142744
-0.014449
-0.0150078
-0.0140697
-0.114159
-0.113662
-0.112118
-0.111594
-0.109993
-0.107791
-0.109087
-0.111108
-0.110588
-0.113223
-0.11268
-0.106249
-0.104766
-0.103353
-0.101982
-0.100666
-0.0993974
-0.0981588
-0.0969168
-0.0956059
-0.0941098
-0.0922408
-0.0897456
-0.0863226
-0.0817038
-0.0757686
-0.0148834
-0.014743
-0.014517
-0.014255
-0.013961
-0.0136379
-0.0133491
-0.0131604
-0.0130251
-0.0129213
-0.0128825
-0.0129322
-0.0127786
-0.0120319
-0.0130047
-0.0139286
-0.0136608
-0.0136865
-0.0136944
-0.0136647
-0.0138538
-0.0139153
-0.0139836
-0.0140099
-0.0141881
-0.014274
-0.0143436
-0.0145408
-0.111972
-0.111494
-0.11006
-0.109561
-0.108047
-0.105988
-0.107103
-0.109391
-0.108583
-0.111052
-0.110527
-0.104545
-0.103174
-0.101824
-0.100528
-0.099279
-0.0980697
-0.096884
-0.0956888
-0.094415
-0.0929377
-0.0910597
-0.0885104
-0.0849642
-0.0801528
-0.0149759
-0.0147413
-0.0144322
-0.0141043
-0.0137513
-0.0134154
-0.0131483
-0.0129339
-0.0127633
-0.0126577