/*--------------------------------*- C++ -*----------------------------------*\
| =========                 |                                                 |
| \\      /  F ield         | OpenFOAM: The Open Source CFD Toolbox           |
|  \\    /   O peration     | Version:  v1912                                 |
|   \\  /    A nd           | Website:  www.openfoam.com                      |
|    \\/     M anipulation  |                                                 |
\*---------------------------------------------------------------------------*/
FoamFile
{
    version     2.0;
    format      ascii;
    class       surfaceScalarField;
    location    "80";
    object      phi;
}
// * * * * * * * * * * * * * * * * * * * * * * * * * * * * * * * * * * * * * //

dimensions      [0 3 -1 0 0 0 0];
oriented        oriented;


internalField   nonuniform List<scalar> 
7351
(
-3.58701e-06
0.00135357
-1.33607e-05
0.0041187
-2.70097e-06
0.00135645
-3.37813e-05
0.00688463
-1.33468e-05
0.00412952
-3.63335e-06
0.00136033
-6.05363e-05
0.00954201
-3.29849e-05
0.00690444
-1.37893e-05
0.0041399
-2.536e-06
0.00136312
-9.25355e-05
0.0119222
-5.88341e-05
0.009568
-3.10879e-05
0.00692194
-1.09766e-05
0.0041486
-2.53588e-06
0.00136593
-0.000138765
0.0138405
-9.14642e-05
0.011955
-5.38917e-05
0.00959098
-2.91401e-05
0.00694033
-1.08106e-05
0.00415711
-2.52827e-06
0.00136867
-0.000177786
0.0150948
-0.00013127
0.0138804
-8.79197e-05
0.0119891
-5.30531e-05
0.00961507
-2.45218e-05
0.00695424
-1.05868e-05
0.00416538
-1.54321e-06
0.0013704
-0.000227206
0.0155533
-0.000177733
0.0151414
-0.000126566
0.0139192
-8.17657e-05
0.012018
-4.31344e-05
0.00963384
-2.12118e-05
0.00696503
-8.58869e-06
0.00417257
-1.53843e-06
0.00137204
-0.000265943
0.0151272
-0.00021989
0.0155956
-0.000168491
0.0151834
-0.000114003
0.0139515
-6.68429e-05
0.0120419
-3.86621e-05
0.00965143
-1.81388e-05
0.00697471
-6.57435e-06
0.00417771
-1.47643e-06
0.00137362
-0.000300091
0.0138649
-0.0002672
0.0151746
-0.000207913
0.0156351
-0.000141964
0.0152115
-9.2991e-05
0.0139778
-5.9324e-05
0.0120626
-3.42302e-05
0.00966761
-1.6608e-05
0.00698483
-5.74466e-06
0.00418207
-1.55518e-06
0.00137528
-0.000325695
0.0118758
-0.000310606
0.0139084
-0.000246807
0.0152136
-0.000175655
0.0156689
-0.000121259
0.0152399
-7.60649e-05
0.0139946
-4.75327e-05
0.012076
-2.47902e-05
0.00967586
-1.36712e-05
0.00699284
-6.28151e-06
0.0041869
-1.55191e-06
0.001377
-0.000335718
0.00933878
-0.00034106
0.0119065
-0.000265701
0.0139275
-0.00019512
0.0152332
-0.000138213
0.015686
-9.56516e-05
0.0152595
-6.25612e-05
0.0140097
-3.78268e-05
0.0120891
-2.42315e-05
0.00968649
-1.0352e-05
0.00699702
-3.67073e-06
0.00418918
-1.10004e-06
0.00137829
0.00645141
-0.000191026
-0.000112369
-0.000363891
0.00936169
-0.000277129
0.011918
-0.000201453
0.0139338
-0.000149061
0.0152441
-0.000103202
0.0156936
-7.05735e-05
0.0152676
-4.46444e-05
0.0140166
-3.08226e-05
0.0120958
-1.51463e-05
0.00969138
-1.03639e-05
0.00700385
-5.30946e-06
0.00419358
-4.27752e-07
0.00137891
0.00645997
-0.00017465
-0.000197659
-0.00212797
0.00208731
-0.000150278
-8.31746e-05
-0.000253025
0.00933781
-0.00018297
0.0118997
-0.000141871
0.0139268
-0.000100797
0.0152418
-7.79656e-05
0.015701
-5.6598e-05
0.0152796
-3.85915e-05
0.0140244
-2.58748e-05
0.0121066
-1.95822e-05
0.00970072
-9.82017e-06
0.00700852
-4.03273e-06
0.00419733
-1.18502e-06
0.00138018
0.00639386
-5.87593e-05
-0.000128019
-0.00207075
0.00204786
-0.000151697
-0.000181063
-0.00136726
0.00131042
-6.18236e-05
-3.1546e-05
-2.47316e-05
-0.000136525
0.00929142
-0.000112735
0.0118706
-8.73198e-05
0.0139133
-7.02899e-05
0.0152341
-5.34772e-05
0.015698
-3.78008e-05
0.0152789
-3.26967e-05
0.0140313
-2.07225e-05
0.0121079
-1.40901e-05
0.00970511
-1.06182e-05
0.00701522
-4.81867e-06
0.00420104
-2.02004e-06
0.00138225
0.00631262
-1.04684e-05
-4.46866e-05
-0.00200076
0.00197797
-3.58818e-05
-8.08706e-05
-0.00129365
0.00125043
-3.86913e-05
-6.97204e-05
-8.24778e-05
-8.18031e-05
-0.000414761
0.000387994
-3.50326e-05
-0.000428461
-1.78243e-05
-9.63864e-06
-6.43407e-05
0.00924324
-5.95126e-05
0.0118429
-5.46071e-05
0.0138978
-4.2364e-05
0.0152231
-3.4683e-05
0.0156949
-2.96339e-05
0.0152759
-2.51188e-05
0.0140358
-2.0072e-05
0.0121139
-1.84213e-05
0.009713
-1.17144e-05
0.00702218
-6.92831e-06
0.00420599
-1.07475e-06
0.00138337
0.00626434
-1.92526e-07
-1.57562e-05
-0.00195019
0.0019458
-6.02172e-06
-1.68761e-05
-0.0011984
0.00116852
-7.96616e-07
-5.14123e-06
-2.17963e-05
-7.01022e-06
-0.000319251
0.000300464
-1.9885e-05
-0.000342223
-4.67381e-05
0.000363126
-5.75946e-05
-6.08909e-05
-0.000237547
0.00021225
-9.71435e-06
-0.000251464
-3.88858e-06
-1.62252e-06
-3.19638e-05
0.00921572
-3.34487e-05
0.0118218
-3.00851e-05
0.0138856
-2.96713e-05
0.0152182
-2.33889e-05
0.0156888
-2.53446e-05
0.0152762
-1.96071e-05
0.0140354
-2.35369e-05
0.0121191
-1.78101e-05
0.00971914
-1.37679e-05
0.00702906
-6.79107e-06
0.00421177
-2.76832e-06
0.00138626
0.00623433
4.30622e-06
-6.14247e-06
-0.00193333
0.00193409
-8.69866e-07
-3.23842e-06
-0.0011531
0.0011471
1.03898e-06
-1.00445e-06
-1.75283e-06
3.12498e-07
-0.000275831
0.000275451
-3.95257e-07
-0.000280459
-4.94376e-07
0.00028535
-6.66298e-06
-2.10662e-06
-0.000107812
8.79333e-05
-0.000154546
0.00017527
-2.06024e-05
-4.01607e-05
-7.04708e-05
6.07621e-05
-7.4356e-05
-1.17388e-05
0.00919421
-1.84682e-05
0.0118104
-1.78127e-05
0.0138738
-1.43053e-05
0.0152092
-2.04925e-05
0.015684
-1.77498e-05
0.0152744
-2.98234e-05
0.0140418
-2.8425e-05
0.0121298
-2.38512e-05
0.00972927
-1.68781e-05
0.00703922
-9.73119e-06
0.00421884
-1.83797e-06
0.00138824
0.00622219
3.99024e-06
-3.48267e-06
-0.00192843
0.00193172
1.07052e-06
-4.61951e-07
-0.0011439
0.00114277
2.57439e-07
6.46574e-08
-4.70441e-07
4.61984e-07
-0.000273056
0.000273905
2.07638e-07
-0.000274201
1.50375e-07
0.000273748
-3.85939e-08
-1.33241e-07
-7.86767e-05
7.82872e-05
-7.91674e-05
8.12741e-05
4.01607e-05
-3.35787e-06
0.00917913
-1.95153e-06
0.0117945
-5.73743e-06
0.0138653
-1.18021e-05
0.0152006
-1.65867e-05
0.0156829
-2.84639e-05
0.0152731
-2.71355e-05
0.0140405
-3.14825e-05
0.0121375
-2.75596e-05
0.00974001
-1.8614e-05
0.0070482
-1.01491e-05
0.00422731
-2.50409e-06
0.00139091
0.00621685
2.2562e-06
-1.68756e-07
-0.00192808
0.00193132
8.11194e-07
1.89913e-07
-0.00114198
0.00114292
-1.54226e-07
3.2068e-07
-4.78813e-08
3.91696e-07
-0.000273899
0.000274103
7.23501e-08
-0.000273958
1.43395e-07
0.000273674
-2.21307e-07
1.89288e-07
-7.82698e-05
7.84827e-05
-7.81174e-05
7.82506e-05
2.68429e-06
0.00917471
-1.39772e-06
0.0117904
-3.88942e-06
0.0138575
-6.5205e-06
0.0151905
-1.87951e-05
0.0156732
-3.24057e-05
0.0152784
-4.32531e-05
0.0140523
-3.83727e-05
0.0121483
-3.32124e-05
0.00975471
-2.3975e-05
0.00706216
-1.05882e-05
0.00423552
-3.2751e-06
0.00139428
0.00621594
2.34945e-06
1.34591e-06
-0.00193103
0.00193174
1.58459e-06
1.46331e-07
-0.00114256
0.00114337
1.47527e-07
-9.56452e-08
2.53693e-07
3.25109e-07
-0.00027473
0.000274547
4.15236e-08
-0.000274367
-3.56729e-08
0.000274049
1.62126e-08
7.90848e-08
-7.86014e-05
7.86793e-05
-7.84543e-05
7.8265e-05
2.56289e-06
0.00917076
5.32842e-06
0.0117811
6.75369e-07
0.0138503
-1.6752e-05
0.0151885
-2.94903e-05
0.0156704
-4.08986e-05
0.0152761
-5.08548e-05
0.0140649
-5.19788e-05
0.0121672
-4.30272e-05
0.00977386
-2.5451e-05
0.00707713
-1.0645e-05
0.004243
-2.22271e-06
0.00139659
0.00621509
2.29281e-06
1.23089e-06
-0.0019326
0.00193335
1.66537e-06
5.27119e-07
-0.00114275
0.00114437
2.60344e-07
-2.61378e-07
3.81257e-07
3.8818e-07
-0.000274817
0.000275013
-3.405e-08
-0.000275066
1.68559e-07
0.000274856
-4.16448e-08
1.25399e-07
-7.87421e-05
7.87876e-05
-7.87762e-05
7.86971e-05
8.4087e-06
0.00916787
5.72826e-06
0.0117763
-2.98321e-06
0.0138367
-1.59801e-05
0.0151751
-3.98247e-05
0.0156694
-5.73391e-05
0.0152827
-6.41727e-05
0.0140772
-6.1902e-05
0.0121862
-4.59705e-05
0.00979447
-2.78748e-05
0.00709446
-1.36539e-05
0.00425449
-2.97755e-06
0.0013996
0.00621796
2.87127e-06
2.74886e-06
-0.0019334
0.00193522
5.24949e-07
1.2031e-06
-0.00114492
0.00114606
2.0202e-07
3.81013e-07
-2.62481e-07
2.67731e-07
-0.000275499
0.000275722
4.7464e-08
-0.000275907
1.51901e-07
0.000275379
2.12296e-08
-1.35725e-07
-7.90461e-05
7.90163e-05
-7.88744e-05
7.87491e-05
5.24228e-06
0.00916834
2.43557e-06
0.0117708
-1.2042e-05
0.0138327
-3.3473e-05
0.0151688
-5.92851e-05
0.0156714
-8.08526e-05
0.0152994
-8.73316e-05
0.0141027
-7.28933e-05
0.0122132
-5.07317e-05
0.0098174
-2.83601e-05
0.00710922
-1.16654e-05
0.00426322
-3.32616e-06
0.00140294
0.00621974
8.05904e-07
2.74448e-06
-0.00193642
0.00193798
1.37902e-06
1.57803e-06
-0.00114706
0.00114712
2.67159e-07
2.36247e-07
-1.05176e-07
3.21388e-07
-0.00027594
0.000276396
-2.36548e-07
-0.000275712
1.69422e-07
0.000275537
-6.19401e-08
1.02722e-07
-7.90561e-05
7.91073e-05
-7.8903e-05
7.90387e-05
5.17868e-06
0.00916578
-6.30227e-07
0.0117596
-1.54913e-05
0.0138149
-4.89463e-05
0.0151585
-7.97056e-05
0.0156703
-0.000100252
0.0153124
-9.7542e-05
0.0141274
-7.97271e-05
0.0122422
-5.55662e-05
0.00984465
-3.10629e-05
0.00712865
-1.30252e-05
0.00427292
-2.84157e-06
0.00140574
0.0062199
2.38774e-06
2.70508e-06
-0.00194022
0.00193947
1.58899e-06
5.11087e-07
-0.00114862
0.00115
-2.77395e-07
3.28642e-07
-2.26606e-07
3.26797e-07
-0.000276608
0.000276851
3.64112e-08
-0.000276468
1.03065e-07
0.00027629
8.99209e-09
1.47559e-07
-7.93242e-05
7.90928e-05
-7.91514e-05
7.90487e-05
2.87144e-06
0.00916227
-7.96567e-06
0.0117521
-3.74406e-05
0.0138034
-7.72557e-05
0.0151561
-0.000116123
0.0156862
-0.000126479
0.0153414
-0.000119315
0.014167
-8.87183e-05
0.0122754
-5.52608e-05
0.00986886
-3.02903e-05
0.0071459
-1.10077e-05
0.00428105
-1.95944e-06
0.00140765
0.00621929
9.26968e-07
2.64071e-06
-0.00194104
0.00194283
6.47738e-07
1.164e-06
-0.00114979
0.00115135
-1.65622e-07
2.1895e-07
3.77996e-07
3.53503e-07
-0.000277078
0.000277072
-2.56458e-07
-0.000276847
1.13328e-07
0.000276623
1.62622e-08
1.12082e-07
-7.93556e-05
7.93962e-05
-7.9251e-05
7.91034e-05
6.78812e-07
0.00915382
-1.83309e-05
0.0117331
-6.12223e-05
0.0137875
-0.000114745
0.0151548
-0.00014984
0.0157096
-0.00015774
0.0153799
-0.000125924
0.0142042
-9.16646e-05
0.0123118
-5.70221e-05
0.00989558
-2.69629e-05
0.00716183
-1.06106e-05
0.00428964
-1.82887e-06
0.00140942
0.00621635
9.90102e-07
2.70509e-06
-0.00194403
0.00194435
6.34923e-07
1.45176e-06
-0.00115196
0.00115262
1.71657e-07
-1.47573e-07
3.9531e-07
1.74498e-07
-0.00027775
0.000277553
3.88156e-08
-0.000277597
7.0295e-08
0.000277419
3.63312e-08
1.78218e-07
-7.96445e-05
7.93927e-05
-7.95279e-05
7.94158e-05
-5.37778e-06
0.00914085
-3.92752e-05
0.0117111
-9.99538e-05
0.0137727
-0.000157826
0.0151628
-0.000190947
0.0157429
-0.000170028
0.015424
-0.000132705
0.0142453
-8.94215e-05
0.0123442
-4.80599e-05
0.00991664
-2.27152e-05
0.00717389
-8.4578e-06
0.00429622
-1.47609e-06
0.00141085
0.00620874
-3.70621e-07
2.69481e-06
-0.0019458
0.00194621
6.33117e-07
1.28737e-06
-0.00115338
0.00115404
2.76376e-07
-2.7596e-07
3.89322e-07
3.08718e-07
-0.000277774
0.00027819
-2.34187e-07
-0.000278007
9.68885e-08
0.000277887
7.21766e-08
6.11403e-08
-7.96796e-05
7.97213e-05
-7.96083e-05
7.94301e-05
-1.45009e-05
0.00911625
-7.01397e-05
0.0116815
-0.000150899
0.0137659
-0.000214471
0.0151864
-0.000215438
0.0157883
-0.000183447
0.0154747
-0.000132321
0.0142881
-7.98547e-05
0.012376
-4.35138e-05
0.0099374
-1.93722e-05
0.00718477
-5.54797e-06
0.00430026
-4.11715e-07
0.00141123
0.0061936
-2.08176e-06
2.78316e-06
-0.00194735
0.00194667
3.47427e-07
1.56671e-06
-0.00115522
0.00115534
1.6315e-07
3.91031e-07
3.98566e-07
-2.7578e-07
-0.000278339
0.000278641
-1.83751e-08
-0.000278709
9.51199e-08
0.000278515
6.7852e-08
1.16314e-07
-7.99567e-05
7.97257e-05
-7.98572e-05
7.97961e-05
-3.50064e-05
0.00908108
-0.000123019
0.0116536
-0.000222224
0.0137736
-0.000260154
0.0152311
-0.000233415
0.0158382
-0.000175008
0.0155174
-0.000116949
0.0143252
-6.7421e-05
0.0123998
-3.57514e-05
0.00995376
-1.58673e-05
0.00719506
-3.20859e-06
0.00430302
-2.35113e-07
0.00141143
0.00616377
-7.90755e-06
2.79751e-06
-0.00194886
0.0019464
4.28999e-07
6.19274e-07
-0.00115668
0.00115701
-1.39388e-07
1.90552e-07
3.62571e-07
-1.26399e-07
-0.000279118
0.000279218
7.63664e-08
-0.00027858
-1.33923e-07
0.000278972
7.86861e-08
1.24511e-07
-8.00062e-05
7.99905e-05
-7.99105e-05
7.97942e-05
-7.3014e-05
0.00903122
-0.000199337
0.0116308
-0.000285461
0.0137989
-0.000280338
0.015278
-0.000219656
0.0158829
-0.000156783
0.0155572
-9.86171e-05
0.0143564
-5.78538e-05
0.0124219
-2.96179e-05
0.00996748
-8.83909e-06
0.00720067
-2.39722e-06
0.00430515
7.80006e-07
0.00141061
0.00610917
-1.83379e-05
-6.0952e-08
-0.00194844
0.001942
-1.4496e-06
7.65826e-07
-0.00115712
0.00115749
-2.83764e-07
3.87931e-07
3.64279e-07
1.61911e-07
-0.000279465
0.00027932
1.45386e-08
-0.000279396
1.26634e-07
0.000279568
1.84827e-08
4.83819e-08
-8.00656e-05
8.01464e-05
-8.01966e-05
8.00721e-05
-0.000141895
0.0089737
-0.000299365
0.0116446
-0.000326978
0.0138455
-0.000269012
0.0153274
-0.000195237
0.0159213
-0.00012995
0.0155885
-7.91804e-05
0.0143777
-4.29713e-05
0.0124353
-1.73669e-05
0.009976
-4.99572e-06
0.00720325
1.5667e-06
0.00430434
1.18434e-06
0.0014094
0.00602279
-4.56454e-05
-9.83473e-06
-0.00194323
0.00192882
-3.90761e-06
-1.27256e-06
-0.00115798
0.00115644
-9.73186e-08
2.06424e-07
3.75869e-07
-9.63156e-08
-0.000280259
0.000279921
6.6785e-08
-0.000279736
-1.22358e-07
0.000279675
2.12347e-08
1.08466e-07
-8.03423e-05
8.03604e-05
-8.02145e-05
8.01661e-05
-0.000271659
0.0089461
-0.000358249
0.011676
-0.000304486
0.013881
-0.0002237
0.0153558
-0.000156323
0.0159476
-9.72503e-05
0.0156065
-5.67448e-05
0.0143914
-2.95381e-05
0.0124474
-9.18554e-06
0.00998017
-2.79912e-07
0.00720508
3.16941e-06
0.00430233
1.55178e-06
0.00140782
0.00592535
-0.000121082
-5.31505e-05
-0.00192596
0.0018963
-1.59918e-05
-6.98678e-06
-0.00115506
0.00115101
-2.24362e-07
3.75293e-07
3.66152e-07
-2.47764e-07
-0.000280202
0.000280295
-1.87117e-07
-0.000280123
1.29619e-07
0.000280274
2.61525e-08
5.65188e-08
-8.03738e-05
8.04447e-05
-8.04931e-05
8.03847e-05
-0.000378956
0.0089667
-0.00032645
0.0116978
-0.000240436
0.0138977
-0.000170669
0.0153701
-0.000112103
0.0159625
-7.07952e-05
0.0156206
-3.60141e-05
0.0143979
-1.33296e-05
0.0124516
-2.79153e-06
0.00998268
3.76936e-06
0.00720447
3.73653e-06
0.00430013
2.8719e-06
0.00140493
0.00592447
-0.000208386
-0.000169681
-0.00187265
0.00181486
-6.32828e-05
-2.94844e-05
-0.00114415
0.00112953
-1.55144e-06
1.81305e-07
4.31994e-07
-5.64633e-07
-0.000280598
0.000280297
7.73623e-08
-0.000280292
7.61347e-08
0.000280644
2.36934e-08
1.08569e-07
-8.06583e-05
8.04729e-05
-8.05281e-05
8.04715e-05
-0.000327509
0.00896786
-0.000230108
0.0116876
-0.000164559
0.0138917
-0.000117916
0.0153759
-7.83183e-05
0.01597
-4.7344e-05
0.0156319
-2.35239e-05
0.0144081
-6.93844e-06
0.0124557
5.64068e-06
0.0099808
7.2715e-06
0.00720092
7.35347e-06
0.00429563
3.45767e-06
0.00140145
0.00587335
-9.72987e-05
-0.000179122
-0.00177863
0.00174761
-0.000177386
-0.000133457
-0.00110409
0.00105366
-1.09237e-05
-1.91914e-06
-3.79458e-07
-3.65485e-06
-0.000280202
0.000278891
-2.42301e-07
-0.000280206
1.81126e-07
0.000280663
6.28761e-08
-1.0997e-07
-8.06847e-05
8.07627e-05
-8.06069e-05
8.04983e-05
-0.000178307
0.00891595
-0.000139741
0.0116627
-0.000107506
0.0138812
-7.42984e-05
0.0153719
-4.80853e-05
0.0159707
-2.40183e-05
0.0156324
-8.24967e-06
0.0144094
3.2589e-06
0.0124581
9.71512e-06
0.00997835
1.36958e-05
0.00719457
1.03151e-05
0.00428876
3.91186e-06
0.00139752
0.00577408
-1.75752e-05
-6.14574e-05
-0.00170403
0.00166438
-5.76509e-05
-0.000135542
-0.000972953
0.000926251
-6.66688e-05
-6.40261e-05
-1.45572e-05
-3.81953e-05
-0.00027396
0.000264858
-1.81744e-06
-0.000275287
-5.84893e-07
0.000278718
-2.01039e-07
-2.19322e-07
-8.08948e-05
8.06526e-05
-8.07147e-05
8.08246e-05
-8.18324e-05
0.00885813
-7.52646e-05
0.0116305
-6.12111e-05
0.0138681
-4.33827e-05
0.0153672
-2.50893e-05
0.0159718
-8.09711e-06
0.0156322
4.67641e-06
0.014408
1.52102e-05
0.0124526
1.75923e-05
0.00997445
1.53563e-05
0.00718952
9.92975e-06
0.00428273
4.96424e-06
0.00139254
0.00570956
3.84161e-07
-1.77405e-05
-0.00162581
0.00161531
-7.10031e-06
-2.28966e-05
-0.000859755
0.000810227
-1.37031e-06
-6.75469e-06
-4.92212e-05
-1.98206e-05
-0.000185052
0.000159234
-4.08527e-05
-0.000226445
-2.2637e-05
0.000254381
-4.08195e-06
-1.02615e-05
-7.96507e-05
7.78349e-05
-8.02339e-05
8.04532e-05
-3.7459e-05
0.0088202
-3.76725e-05
0.0116069
-3.10773e-05
0.0138558
-2.09437e-05
0.0153631
-7.94876e-06
0.0159717
3.80456e-06
0.0156331
1.77625e-05
0.0144054
1.90452e-05
0.0124511
2.24444e-05
0.00996736
1.85024e-05
0.00718094
1.40778e-05
0.0042736
5.2552e-06
0.00138727
0.00567518
3.56296e-06
-6.64517e-06
-0.00160107
0.00160169
-2.54826e-07
-3.50866e-06
-0.000788022
0.000780887
2.73213e-07
-2.50177e-07
-7.10336e-07
1.10612e-08
-8.34393e-05
8.20688e-05
-9.0193e-05
0.000110014
-4.08532e-05
-6.34908e-05
7.37523e-05
-1.52564e-05
0.00879789
-1.68602e-05
0.0115928
-1.17917e-05
0.0138467
5.80112e-08
0.0153551
7.83389e-06
0.0159676
1.89371e-05
0.0156319
2.06379e-05
0.0144039
2.83458e-05
0.0124452
2.67419e-05
0.00995911
2.42381e-05
0.00717078
1.62647e-05
0.00426258
6.11634e-06
0.00138115
0.00565945
4.16624e-06
-3.74225e-06
-0.00159586
0.00159813
1.25407e-06
-8.31618e-07
-0.000777292
0.000776951
1.05782e-07
-2.99358e-08
-1.93175e-08
1.04836e-07
-8.11162e-05
8.13873e-05
-8.1368e-05
8.13569e-05
-1.98865e-06
0.0087829
-3.74333e-06
0.0115846
2.69271e-06
0.013844
1.05568e-05
0.0153523
2.10876e-05
0.0159655
2.59177e-05
0.0156267
3.61853e-05
0.014396
3.56086e-05
0.0124364
3.43887e-05
0.00994896
2.89716e-05
0.00715807
1.81573e-05
0.00425054
7.10095e-06
0.00137404
0.00565521
3.75261e-06
-1.48092e-06
-0.0015941
0.00159801
2.22503e-07
2.85856e-07
-0.00077583
0.000776962
1.84554e-07
-8.53143e-08
1.28686e-07
1.4888e-07
-8.14424e-05
8.15451e-05
-8.14726e-05
8.13678e-05
2.28713e-06
0.00877699
6.63595e-06
0.0115808
1.15059e-05
0.0138431
1.8689e-05
0.0153547
3.05958e-05
0.0159608
3.64017e-05
0.0156264
3.64874e-05
0.0143951
3.93807e-05
0.0124314
3.70906e-05
0.00994084
3.25972e-05
0.00714363
2.16041e-05
0.00423603
8.15866e-06
0.00136587
0.00565482
3.02778e-06
-3.72972e-07
-0.00159596
0.00159867
1.01608e-06
5.56537e-07
-0.000777067
0.000777365
2.59935e-08
-1.17438e-07
1.14827e-07
6.22679e-08
-8.1732e-05
8.19122e-05
-8.182e-05
8.16711e-05
5.15038e-06
0.00877837
1.31106e-05
0.0115791
2.14809e-05
0.0138403
2.9728e-05
0.0153556
3.3674e-05
0.0159635
4.61338e-05
0.0156168
5.06718e-05
0.0143838
5.16326e-05
0.0124168
4.51679e-05
0.00992828
3.76785e-05
0.00712755
2.42622e-05
0.00421992
9.21383e-06
0.00135665
0.00565629
3.06187e-06
6.52777e-07
-0.00159828
0.00160027
1.03837e-06
1.90712e-08
-0.000777776
0.00077883
3.94538e-08
-9.11111e-08
8.68631e-08
4.7531e-08
-8.19702e-05
8.19923e-05
-8.20885e-05
8.20262e-05
9.60818e-06
0.008782
1.81562e-05
0.0115826
2.40369e-05
0.013846
3.85779e-05
0.0153507
4.84466e-05
0.0159612
5.26581e-05
0.0156148
5.42611e-05
0.0143812
5.72091e-05
0.0124048
5.34343e-05
0.00991252
4.34345e-05
0.00710838
2.83047e-05
0.00420083
1.02042e-05
0.00134644
0.005662
3.14903e-06
7.31675e-07
-0.00160007
0.00160238
7.4318e-07
8.49648e-07
-0.000778703
0.000779699
-6.66069e-08
1.14558e-07
9.04047e-08
5.77699e-08
-8.20304e-05
8.20671e-05
-8.21241e-05
8.20766e-05
1.08627e-05
0.00878919
1.95332e-05
0.011587
3.34038e-05
0.0138512
4.17714e-05
0.0153574
5.05994e-05
0.0159633
6.02084e-05
0.0156089
6.65533e-05
0.0143719
6.47031e-05
0.0123935
6.14886e-05
0.00989448
4.777e-05
0.00708892
3.17048e-05
0.00417933
1.16935e-05
0.00133474
0.00566764
3.32802e-06
1.92722e-06
-0.00160223
0.00160461
7.77956e-07
8.79879e-07
-0.000780387
0.000781002
4.31116e-08
8.83251e-08
9.34048e-08
6.34637e-08
-8.23308e-05
8.22637e-05
-8.22158e-05
8.2158e-05
1.28729e-05
0.00879597
2.40116e-05
0.0115965
3.46469e-05
0.0138583
4.83611e-05
0.0153596
6.17077e-05
0.0159618
6.88478e-05
0.0156066
7.62557e-05
0.0143603
7.4696e-05
0.0123803
6.96805e-05
0.00987257
5.70264e-05
0.0070636
3.46109e-05
0.00415641
1.28187e-05
0.00132192
0.00567618
3.32724e-06
9.69887e-07
-0.00160561
0.001608
9.34096e-07
9.17083e-07
-0.000781938
0.000782593
4.77108e-08
8.5386e-08
-9.26757e-08
4.08799e-08
-8.25066e-05
8.25491e-05
-8.24194e-05
8.23559e-05
1.4098e-05
0.00880579
2.59736e-05
0.0116051
4.09183e-05
0.0138658
5.33344e-05
0.015368
6.84486e-05
0.0159622
7.87325e-05
0.0156041
8.36699e-05
0.0143514
8.93454e-05
0.0123607
7.99578e-05
0.00984965
6.41866e-05
0.00703404
4.04241e-05
0.00412881
1.34632e-05
0.00130846
0.00568488
3.3829e-06
2.06391e-06
-0.00160802
0.00161046
8.79985e-07
9.51063e-07
-0.000783294
0.000784195
8.56823e-08
-5.48803e-08
9.5499e-08
1.16009e-07
-8.25849e-05
8.26326e-05
-8.24984e-05
8.24576e-05
1.42159e-05
0.00881768
2.86999e-05
0.0116174
4.71821e-05
0.013872
6.54987e-05
0.015371
7.91454e-05
0.0159618
9.25982e-05
0.0155952
9.99602e-05
0.0143408
9.8844e-05
0.0123418
9.13944e-05
0.00982245
7.08251e-05
0.00700364
4.36238e-05
0.00409865
1.24824e-05
0.00129597
0.00569516
3.01567e-06
8.9813e-07
-0.00161155
0.00161403
8.91856e-07
9.63909e-07
-0.000784987
0.000785916
4.12393e-08
-8.68038e-08
9.90175e-08
6.19069e-08
-8.27867e-05
8.28708e-05
-8.28428e-05
8.27268e-05
1.55627e-05
0.00883074
3.27643e-05
0.0116318
5.19761e-05
0.0138855
7.22627e-05
0.0153779
8.84964e-05
0.0159659
0.000101686
0.0155935
0.000112966
0.0143267
0.000108791
0.0123244
0.000101597
0.00979169
8.0998e-05
0.00696627
4.74725e-05
0.00406366
1.60241e-05
0.00127993
0.00570793
1.41594e-06
1.44811e-06
-0.00161408
0.00161651
5.93853e-07
8.57149e-07
-0.00078672
0.000787647
-1.21642e-07
8.56336e-08
9.54227e-08
5.91162e-08
-8.29459e-05
8.29861e-05
-8.30322e-05
8.29703e-05
1.88489e-05
0.00884483
3.74663e-05
0.0116464
6.15216e-05
0.0138963
7.92095e-05
0.0153872
0.000100799
0.0159668
0.000116529
0.0155899
0.000125666
0.0143098
0.000128186
0.0122978
0.000114491
0.0097582
8.83878e-05
0.00692535
4.98122e-05
0.00402986
3.57082e-05
0.00124422
0.00572115
2.93601e-06
2.7161e-06
-0.00161791
0.00162103
-1.69748e-06
4.31006e-08
-0.000788349
0.000788733
1.05797e-07
1.14163e-07
8.93317e-08
6.86223e-08
-8.32233e-05
8.31005e-05
-8.31392e-05
8.308e-05
2.25922e-05
0.0088596
4.43374e-05
0.0116635
6.55993e-05
0.0139099
9.23017e-05
0.0153957
0.000115007
0.0159683
0.00013346
0.0155821
0.000142657
0.0142953
0.000138453
0.0122739
0.000128038
0.00971855
9.57079e-05
0.00687945
8.29482e-05
0.00398261
7.82674e-05
0.00573331
5.76766e-06
4.76018e-06
-0.00162715
0.00162495
-1.45884e-06
6.63107e-06
-3.38492e-06
-0.000788854
0.00078715
5.53221e-09
1.83627e-08
5.95405e-08
-1.4021e-07
-8.33743e-05
8.34801e-05
-8.32593e-05
8.31907e-05
2.71817e-05
0.00887692
4.67945e-05
0.0116825
7.4106e-05
0.0139281
0.000100014
0.0154107
0.000126134
0.0159757
0.00014619
0.0155786
0.000158222
0.0142756
0.000159176
0.0122427
0.000138508
0.00967574
0.00012679
0.0068356
0.000145694
0.00574885
5.80019e-06
5.85184e-06
-0.00162815
0.00163007
2.37456e-06
1.49405e-06
2.0348e-06
-4.74053e-07
-0.000489651
0.000495054
-6.85468e-06
-0.000464239
-1.87686e-05
0.000319755
2.58022e-08
-2.34871e-07
-8.34165e-05
8.34239e-05
-8.33988e-05
8.3539e-05
2.69944e-05
0.0088966
5.41901e-05
0.0117023
8.29859e-05
0.0139451
0.000118017
0.0154188
0.000147297
0.0159746
0.000167682
0.0155691
0.000178318
0.0142564
0.000175277
0.012206
0.000168999
0.00963353
0.00019306
0.00576623
4.6639e-06
5.0398e-06
-0.00163264
0.00163611
1.47812e-06
8.78266e-07
1.91607e-06
1.36796e-06
-0.000500579
0.000501702
1.2483e-06
-0.000499674
5.92028e-07
-0.000496941
-7.00957e-07
-2.36005e-06
-0.0002979
0.000292408
-1.35011e-06
3.09338e-06
8.34544e-05
8.32236e-05
3.06377e-05
0.00892031
5.94936e-05
0.0117259
9.47258e-05
0.0139684
0.0001289
0.0154372
0.000159529
0.0159827
0.000186156
0.0155613
0.000192978
0.0142387
0.000202636
0.0121723
0.000227099
0.0057854
5.16577e-06
6.30172e-06
-0.001639
0.00164182
1.11425e-06
7.61294e-07
1.41203e-06
7.36846e-07
-0.000504087
0.000504725
8.39302e-07
-0.00050347
2.66437e-07
-0.000502379
8.23416e-07
6.91391e-07
-0.000291305
0.000292456
1.04385e-07
-0.000290775
5.93677e-08
-0.000291107
-3.67165e-07
-1.05718e-06
-8.6317e-05
8.49722e-05
3.37251e-05
0.00894596
6.8534e-05
0.011752
0.000107523
0.0139898
0.000148093
0.0154486
0.00018137
0.0159875
0.000199954
0.0155543
0.000224999
0.0142163
0.000247104
0.00580665
5.7078e-06
6.86049e-06
-0.00164602
0.00164912
1.23841e-06
8.58176e-07
1.22364e-06
8.81077e-07
-0.000506246
0.00050678
5.80922e-07
-0.000505933
4.52755e-07
-0.000504765
2.43023e-07
6.97623e-07
-0.000293513
0.000294186
1.76168e-07
-0.000293444
1.95491e-07
-0.000292876
2.56343e-07
2.72431e-07
-8.3609e-05
8.37143e-05
-8.35493e-05
-8.39151e-05
4.02909e-05
0.00897435
7.6171e-05
0.0117835
0.000121645
0.0140163
0.000163435
0.0154666
0.000194103
0.0159934
0.000230074
0.0155493
0.000254213
0.00583384
6.50198e-06
6.58128e-06
-0.00165367
0.00165717
1.2893e-06
9.51914e-07
1.32704e-06
9.77633e-07
-0.000508382
0.000509364
2.56707e-07
-0.000508034
5.16128e-07
-0.000507295
4.85789e-07
3.67221e-07
-0.000295331
0.000295794
1.29552e-07
-0.000295004
1.25137e-07
-0.000294719
-3.94664e-08
1.67348e-07
-8.44399e-05
8.46181e-05
-8.42439e-05
-8.39867e-05
4.36637e-05
0.0090067
8.993e-05
0.0118151
0.000138685
0.014041
0.000179147
0.0154816
0.000219866
0.0160036
0.000244991
0.00586177
7.25812e-06
8.53611e-06
-0.00166104
0.00166524
1.44086e-06
8.85858e-07
1.63385e-06
1.07574e-06
-0.000511119
0.000511751
6.58779e-07
-0.000510296
1.33256e-07
-0.000509511
5.41439e-07
8.31323e-07
-0.000296934
0.000297049
1.52381e-07
-0.000296384
-3.31352e-08
-0.000296033
1.37577e-07
1.31556e-07
-8.48739e-05
8.50062e-05
-8.47475e-05
-8.47855e-05
5.23982e-05
0.00904438
0.000102495
0.0118515
0.000151106
0.0140692
0.000195729
0.0155058
0.0002218
0.00589529
8.67485e-06
1.01618e-05
-0.00167069
0.00167517
1.6738e-06
1.11492e-06
1.81502e-06
1.27799e-06
-0.000513763
0.000514465
7.38613e-07
-0.00051344
5.69667e-07
-0.000511992
1.86568e-07
8.36727e-07
-0.00029807
0.000298788
-4.71581e-08
-0.00029807
1.33254e-07
-0.000297685
1.59233e-07
1.97964e-07
-8.52455e-05
8.54005e-05
-8.52772e-05
-8.51378e-05
6.26267e-05
0.00908414
0.000120375
0.0118822
0.000165826
0.0140991
0.000184199
0.0059353
1.11397e-05
1.15358e-05
-0.00168173
0.00168711
1.91181e-06
1.38917e-06
2.07793e-06
1.52545e-06
-0.000516785
0.00051787
5.8501e-07
-0.000516356
6.8926e-07
-0.000515211
6.68474e-07
5.32687e-07
-0.000299888
0.000300649
-1.10934e-08
-0.000299526
2.07886e-07
-0.000299475
1.39506e-07
1.53016e-07
-8.5894e-05
8.58499e-05
-8.57595e-05
-8.55985e-05
7.92665e-05
0.00912535
0.000128668
0.0119194
0.000141326
0.00598238
1.64814e-05
1.56625e-05
-0.00169444
0.00170171
1.64341e-06
2.22453e-06
1.80701e-06
2.38927e-06
-0.000520698
0.000521539
1.06365e-06
-0.000519718
4.0961e-07
-0.000518452
8.08705e-07
9.43083e-07
-0.000302004
0.000302397
2.00372e-07
-0.000301506
1.89604e-07
-0.000301015
1.79465e-07
1.68772e-07
-8.63541e-05
8.63457e-05
-8.61446e-05
-8.60029e-05
9.44271e-05
0.00915951
9.58065e-05
0.00602768
2.70457e-05
2.20036e-05
-0.00171167
0.00172101
3.83865e-06
3.2971e-06
2.81303e-06
2.88556e-06
-0.000525448
0.000525912
1.17037e-06
-0.000524162
9.3439e-07
-0.00052287
5.09923e-07
1.05686e-06
-0.000304062
0.000304914
2.14885e-07
-0.000303859
2.01191e-07
-0.000303096
4.48249e-08
2.45064e-07
-8.68863e-05
8.70877e-05
-8.66956e-05
-8.65144e-05
6.25917e-05
2.20934e-05
4.82993e-05
-0.00173359
0.00174645
8.38911e-06
5.74975e-06
4.72437e-06
4.68024e-06
-0.000531477
0.000533172
2.13572e-06
-0.00052959
1.40484e-06
-0.000527558
7.75577e-07
1.23623e-06
-0.000306891
0.000307826
2.29767e-07
-0.000306016
5.34899e-08
-0.000305739
2.2969e-07
2.31588e-07
-8.75793e-05
8.77928e-05
-8.73784e-05
-8.73328e-05
-0.00176666
1.14067e-05
2.38936e-05
1.65756e-05
1.14923e-05
-0.000540954
0.00054512
4.20444e-06
-0.000538054
2.84102e-06
-0.000535881
2.54393e-06
1.96933e-06
-0.000310353
0.000312056
4.27982e-07
-0.000309293
3.39582e-07
-0.0003088
2.76468e-07
2.60028e-07
-8.83067e-05
8.85326e-05
-8.8254e-05
-8.80244e-05
-0.000561039
1.55294e-05
-0.000554073
1.69106e-05
-0.000548931
1.14214e-05
7.67638e-06
-0.000317569
0.000320661
1.1027e-06
-0.000315418
6.83403e-07
-0.000313545
6.66107e-07
4.79728e-07
-8.9405e-05
8.98303e-05
-8.90673e-05
-8.87926e-05
-0.000338488
2.22292e-05
-0.000332381
1.0797e-05
-0.000326093
5.12467e-06
2.2421e-06
-9.16567e-05
9.2755e-05
-9.0975e-05
-9.031e-05
-0.000110914
-0.000100119
-9.49971e-05
-2.76778e-05
2.77776e-05
1.57857e-05
-4.36905e-05
-0.000119051
0.000104369
4.27477e-05
4.52729e-05
-0.000148801
8.16606e-06
-5.19152e-05
3.40529e-05
7.08065e-05
-0.000233803
0.000216036
6.0881e-05
7.26533e-05
-0.000261513
2.89392e-05
-0.000170055
3.74323e-06
-5.60256e-05
5.15927e-05
0.000198944
1.48326e-05
5.63878e-05
-0.000769659
0.000165368
0.000717128
-4.87312e-05
0.000195135
-0.000843911
-0.000281524
1.80108e-05
-0.000184978
2.21978e-06
-5.84915e-05
3.36474e-05
0.000180485
6.06431e-06
5.04147e-05
-0.000114473
-0.00247974
0.00225107
0.000511787
-1.80499e-05
0.000654412
-0.000139689
0.000619728
-0.00276607
-4.02085e-05
-0.000919235
-2.45171e-05
-0.000303869
1.18566e-05
-0.000194889
2.6434e-06
-6.10732e-05
0.000168412
2.34528e-06
4.78002e-05
-7.02387e-05
0.00034051
-0.00313092
0.0028804
0.000764167
-1.11445e-05
-5.97269e-06
0.000918294
-0.00342928
-0.00014331
0.000634057
-0.00315644
-0.000100148
-0.00101205
-3.0085e-05
-2.04456e-05
-0.000316354
1.25743e-05
-0.000204399
2.1693e-06
-6.30249e-05
0.000159496
1.13432e-06
4.63756e-05
0.000572073
-0.0030474
0.00284516
0.000968305
0.000154553
0.00115298
-0.0032823
0.00100511
-0.00380152
0.000638063
-0.000129633
-0.00357606
-8.71875e-05
-0.00107331
-2.22203e-05
-1.58122e-05
-0.000333862
-9.46758e-06
-0.00034474
-0.000211646
1.79217e-06
-6.47806e-05
1.04433e-06
0.000747404
-0.0022223
0.00212689
0.00106541
0.00126713
-0.00233734
0.00127539
-0.0035542
0.00104003
-0.00420395
-0.00115475
-2.63554e-05
-2.11545e-05
0.000638404
-0.000123521
-0.00399245
-9.32353e-05
-0.00120588
-2.54212e-05
-9.40442e-06
-0.000358142
-8.74115e-06
-0.000365859
-7.65406e-06
-0.000218568
1.8311e-06
-6.6372e-05
0.000821797
-0.000719038
0.000761738
0.0010243
0.0012277
-0.000680259
0.00140333
-0.0024678
0.00132412