/*--------------------------------*- C++ -*----------------------------------*\
| =========                 |                                                 |
| \\      /  F ield         | OpenFOAM: The Open Source CFD Toolbox           |
|  \\    /   O peration     | Version:  v1912                                 |
|   \\  /    A nd           | Website:  www.openfoam.com                      |
|    \\/     M anipulation  |                                                 |
\*---------------------------------------------------------------------------*/
FoamFile
{
    version     2.0;
    format      ascii;
    class       volVectorField;
    location    "80";
    object      U;
}
// * * * * * * * * * * * * * * * * * * * * * * * * * * * * * * * * * * * * * //

dimensions      [0 1 -1 0 0 0 0];


internalField   nonuniform List<vector> 
3753
(
(0.0492498 0.0207721 0)
(0.149793 0.0617208 7.74799e-24)
(0.0487532 0.0205689 -3.68441e-24)
(0.250351 0.10112 0)
(0.148304 0.0611142 -3.81208e-24)
(0.0482758 0.0203677 3.70644e-24)
(0.346846 0.137324 -2.59113e-21)
(0.247892 0.100126 -2.9166e-24)
(0.146865 0.0605206 -3.63086e-21)
(0.0478108 0.0201707 3.44898e-24)
(0.433384 0.168176 2.28799e-21)
(0.34344 0.135959 -2.48833e-21)
(0.245478 0.0991457 2.98154e-21)
(0.145435 0.0599324 3.40821e-24)
(0.047343 0.0199747 -3.48477e-21)
(0.502987 0.191253 -1.94339e-24)
(0.429077 0.166469 2.20066e-21)
(0.34008 0.134619 0)
(0.243099 0.0981878 2.70224e-24)
(0.144017 0.0593484 -3.41647e-24)
(0.0468896 0.019784 0)
(0.548803 0.204389 8.46129e-26)
(0.497876 0.189252 1.9419e-21)
(0.424829 0.164804 1.99636e-24)
(0.336775 0.133309 -2.30002e-21)
(0.240733 0.0972287 -2.70665e-24)
(0.142631 0.0587774 0)
(0.0464327 0.0195924 0)
(0.565528 0.206195 -1.80643e-24)
(0.543013 0.202151 -1.83422e-21)
(0.492851 0.187314 0)
(0.420661 0.163176 2.03003e-21)
(0.333492 0.132 0)
(0.238396 0.0962804 0)
(0.141252 0.0582102 0)
(0.0459746 0.0194003 -3.14154e-21)
(0.550715 0.196474 0)
(0.559209 0.203785 1.8245e-21)
(0.537334 0.199996 0)
(0.487915 0.185416 3.43014e-24)
(0.416519 0.161557 -5.60908e-24)
(0.33023 0.130702 0)
(0.236078 0.0953439 0)
(0.139872 0.0576427 0)
(0.0455275 0.0192112 2.90295e-24)
(0.505436 0.176336 2.11864e-24)
(0.544006 0.193948 -1.85468e-21)
(0.553015 0.201478 0)
(0.531759 0.197893 1.67336e-21)
(0.483021 0.183537 -3.43391e-24)
(0.412409 0.15995 1.54487e-25)
(0.327003 0.129419 0)
(0.233777 0.0944114 0)
(0.138504 0.0570804 0)
(0.0450941 0.0190305 -2.91696e-24)
(0.434037 0.147999 1.19326e-24)
(0.498436 0.173733 -1.03392e-24)
(0.537443 0.191559 1.78268e-21)
(0.546976 0.199248 -1.6421e-21)
(0.526271 0.195823 1.61334e-21)
(0.478176 0.181676 0)
(0.408341 0.158359 3.54162e-24)
(0.323793 0.128142 0)
(0.231498 0.0934926 0)
(0.137174 0.056532 -2.77939e-21)
(0.044659 0.0188494 0)
(0.343154 0.114323 -1.55534e-21)
(0.426758 0.145318 7.67267e-24)
(0.491629 0.171329 -1.89245e-21)
(0.531136 0.189286 6.76473e-24)
(0.541088 0.197068 -1.57768e-21)
(0.520858 0.193781 0)
(0.473382 0.179833 0)
(0.404296 0.156779 -1.62926e-24)
(0.320628 0.126885 0)
(0.229247 0.0925778 2.26841e-21)
(0.135847 0.0559874 2.67513e-21)
(0.0442325 0.0186682 0)
(0.240535 0.0782866 2.18258e-21)
(0.335363 0.111507 -1.4524e-24)
(0.419759 0.142934 -5.96208e-25)
(0.485257 0.169092 0)
(0.525081 0.187085 0)
(0.535328 0.194936 -6.08314e-24)
(0.515521 0.191767 1.4912e-21)
(0.468627 0.178011 0)
(0.400302 0.155218 1.63113e-24)
(0.317476 0.125631 0)
(0.227022 0.0916817 -2.18101e-21)
(0.134553 0.0554523 1.2517e-24)
(0.0438097 0.0184876 0)
(0.231084 0.075052 -8.86381e-22)
(0.157428 0.0504253 7.72609e-22)
(0.161475 0.0518413 -7.61418e-22)
(0.328093 0.109109 0)
(0.413551 0.140808 2.12349e-21)
(0.479308 0.166972 -1.82729e-21)
(0.519246 0.184968 0)
(0.529686 0.192849 -1.46282e-21)
(0.510256 0.189787 2.73084e-24)
(0.463936 0.176212 1.45302e-21)
(0.396345 0.153677 0)
(0.314389 0.124407 0)
(0.224841 0.0907955 -4.28749e-26)
(0.13327 0.0549204 -1.25385e-24)
(0.0433921 0.0183104 0)
(0.223072 0.0724317 3.72464e-22)
(0.1448 0.046504 7.39495e-22)
(0.151258 0.0480389 7.76589e-22)
(0.103728 0.0329569 -6.84339e-22)
(0.107352 0.0340489 1.70999e-22)
(0.322296 0.107129 -2.46673e-21)
(0.408025 0.138878 2.02603e-21)
(0.473709 0.16498 -6.65013e-24)
(0.513598 0.182922 0)
(0.524165 0.190811 -2.81354e-24)
(0.505075 0.187838 -1.37922e-21)
(0.459315 0.174444 0)
(0.392457 0.152159 7.18791e-25)
(0.311344 0.123194 8.06616e-25)
(0.222701 0.0899272 -9.83757e-25)
(0.132007 0.0543957 0)
(0.0430015 0.0181465 0)
(0.218191 0.070647 8.34146e-22)
(0.137767 0.0439837 -1.38301e-21)
(0.140274 0.0448724 0)
(0.0871972 0.0278388 -1.71211e-22)
(0.0962706 0.0299957 0)
(0.0626378 0.0197536 1.22169e-23)
(0.0648619 0.0205615 2.25957e-22)
(0.0662023 0.0208477 -2.37027e-22)
(0.317594 0.10551 9.78592e-24)
(0.403019 0.137132 -2.75482e-25)
(0.468389 0.163095 2.52438e-25)
(0.508126 0.180943 0)
(0.518756 0.188817 0)
(0.49998 0.185923 0)
(0.454766 0.1727 0)
(0.388627 0.150663 -7.19685e-25)
(0.308368 0.12201 1.59061e-21)
(0.220603 0.0890725 -9.01511e-25)
(0.130805 0.0538957 2.26152e-21)
(0.0426015 0.0179805 0)
(0.214884 0.0695323 -7.81459e-22)
(0.134915 0.0429191 1.34821e-21)
(0.135991 0.0432514 -2.69817e-21)
(0.081237 0.0255443 7.9006e-22)
(0.0829167 0.0262254 -1.6518e-22)
(0.0418171 0.0134147 2.20477e-22)
(0.0451867 0.0143466 7.52569e-24)
(0.0588131 0.0184412 -7.39977e-24)
(0.0521088 0.0154296 1.59755e-22)
(0.0362691 0.0114475 -2.1397e-22)
(0.0379475 0.011947 3.19076e-24)
(0.0387473 0.0121265 3.32914e-24)
(0.313541 0.104139 0)
(0.398375 0.135526 -1.99061e-21)
(0.463307 0.161297 6.4372e-24)
(0.502803 0.179022 0)
(0.513459 0.186866 1.24133e-24)
(0.494978 0.184043 1.26243e-21)
(0.450284 0.170986 -1.28111e-21)
(0.384881 0.149202 -3.89087e-23)
(0.305454 0.120847 0)
(0.218568 0.0882408 -1.84083e-21)
(0.129612 0.0534036 2.16634e-21)
(0.0422233 0.0178217 0)
(0.212212 0.0687019 7.38059e-22)
(0.133167 0.0423972 1.27929e-21)
(0.133887 0.0425714 1.33398e-21)
(0.0797153 0.025021 -1.20839e-21)
(0.0803018 0.0252158 1.55636e-21)
(0.0386904 0.0120648 1.69482e-24)
(0.0388972 0.012134 -6.59188e-22)
(0.0400258 0.0125912 2.37148e-22)
(0.0392136 0.0123045 -1.04281e-23)
(0.0138526 0.00451293 -1.50514e-22)
(0.0153659 0.00505903 0)
(0.033611 0.0101711 -1.78999e-22)
(0.0229719 0.00551152 -1.17399e-22)
(0.0116289 0.00372759 1.52645e-22)
(0.0122799 0.00383129 0)
(0.0125192 0.00389147 0)
(0.3099 0.10292 2.29062e-21)
(0.393993 0.134014 1.91392e-21)
(0.458403 0.159569 2.97555e-24)
(0.497624 0.177156 1.38072e-21)
(0.50827 0.184956 -1.24339e-21)
(0.490054 0.1822 1.21569e-21)
(0.445906 0.16931 -1.2476e-21)
(0.38122 0.147771 1.30786e-21)
(0.302617 0.119711 0)
(0.216588 0.0874347 -1.7631e-21)
(0.128469 0.0529275 0)
(0.0418549 0.0176673 0)
(0.209854 0.0679625 7.27206e-22)
(0.131734 0.0419765 2.72013e-23)
(0.13232 0.0421223 0)
(0.0788228 0.0247655 -3.04947e-22)
(0.0792428 0.0248815 -1.19864e-21)
(0.0382575 0.0119224 1.63719e-24)
(0.0382931 0.0119321 -3.29137e-24)
(0.0385066 0.0119982 -4.28686e-22)
(0.038409 0.0119821 1.65526e-24)
(0.0123808 0.00383707 -2.92093e-22)
(0.0124434 0.00386336 -1.4215e-24)
(0.0128857 0.00405598 -1.61119e-22)
(0.0125495 0.00391508 0)
(0.0108973 0.00353174 7.94467e-23)
(0.00638709 0.00147955 2.30958e-23)
(0.306509 0.101789 -4.54252e-21)
(0.389827 0.132587 3.5875e-24)
(0.453663 0.157899 -1.47072e-21)
(0.49256 0.175333 -1.3261e-21)
(0.503179 0.183089 5.70297e-25)
(0.485241 0.180393 -5.77127e-25)
(0.441616 0.167667 -2.37035e-21)
(0.37765 0.146371 -1.24901e-21)
(0.299863 0.118606 0)
(0.214667 0.0866454 0)
(0.12736 0.0524682 -9.57291e-25)
(0.0414852 0.01751 2.00052e-21)
(0.207659 0.0672684 4.05438e-21)
(0.130402 0.0415665 1.17728e-24)
(0.130968 0.0417176 -1.21842e-21)
(0.0780391 0.0245364 -1.14021e-21)
(0.0784157 0.0246503 3.72106e-26)
(0.0379227 0.0118322 -4.03709e-22)
(0.0379712 0.0118341 4.02561e-22)
(0.0381309 0.0118764 0)
(0.0380575 0.0118723 -4.11707e-22)
(0.0122691 0.00380209 2.79401e-22)
(0.0122706 0.00380767 -2.81312e-22)
(0.0123309 0.00382413 -2.8706e-22)
(0.0123012 0.00381866 -2.84607e-22)
(0.303324 0.10073 -4.35838e-24)
(0.385813 0.131206 0)
(0.449041 0.156276 1.4097e-21)
(0.487609 0.173557 -1.2705e-21)
(0.498193 0.181257 -5.70842e-25)
(0.480522 0.178623 1.11362e-21)
(0.437434 0.166061 1.14105e-21)
(0.37417 0.145001 5.74815e-25)
(0.297181 0.117526 0)
(0.212813 0.0858867 0)
(0.126268 0.0520117 -1.9487e-21)
(0.0411515 0.0173635 -3.74525e-23)
(0.20558 0.0665942 -1.34643e-21)
(0.129115 0.0411664 -1.16471e-21)
(0.129663 0.0413108 -1.17966e-21)
(0.0772788 0.0243065 1.08916e-24)
(0.0776568 0.0244237 1.12164e-24)
(0.0375725 0.011727 0)
(0.0376434 0.0117367 -3.99751e-22)
(0.0377996 0.0117883 0)
(0.0377416 0.011778 1.54878e-24)
(0.0121597 0.00377335 -2.48871e-25)
(0.0121859 0.00377658 2.74014e-22)
(0.0122312 0.00378878 -2.77808e-22)
(0.0122002 0.00378504 2.73298e-22)
(0.300237 0.0997002 2.17162e-21)
(0.38191 0.129874 7.96125e-25)
(0.444537 0.154696 1.3499e-21)
(0.482747 0.171809 0)
(0.493299 0.179461 0)
(0.47591 0.17689 0)
(0.433358 0.16449 1.05248e-24)
(0.3708 0.14367 1.13524e-21)
(0.294603 0.116485 0)
(0.211012 0.0851438 -7.06776e-25)
(0.125213 0.051566 -3.62831e-21)
(0.0408067 0.0172227 0)
(0.203541 0.0659391 -2.48631e-21)
(0.127882 0.040767 1.12377e-21)
(0.128413 0.0409126 1.13787e-21)
(0.0765354 0.0240789 -2.77157e-22)
(0.076906 0.024188 -1.09016e-24)
(0.0372281 0.011622 0)
(0.0372939 0.011633 0)
(0.0374456 0.0116789 -3.90858e-22)
(0.0373916 0.0116724 0)
(0.0120478 0.00373871 -2.64415e-22)
(0.0120813 0.00374383 5.33296e-22)
(0.0121392 0.00376594 -1.05627e-24)
(0.0121181 0.00375923 -2.67786e-22)
(0.297267 0.0987159 0)
(0.378117 0.128575 -7.97336e-25)
(0.440113 0.153144 6.58665e-25)
(0.477976 0.170097 1.16608e-21)
(0.4885 0.177697 0)
(0.471403 0.17519 1.01563e-21)
(0.429392 0.162954 -1.0383e-21)
(0.367545 0.142376 0)
(0.292104 0.11547 5.76003e-25)
(0.209251 0.0844158 1.44158e-21)
(0.12419 0.0511432 8.63986e-25)
(0.0404579 0.0170785 -3.33679e-24)
(0.201599 0.0653066 6.24818e-22)
(0.126667 0.0403855 2.10972e-23)
(0.127198 0.0405271 1.10271e-21)
(0.0758112 0.0238467 -1.02133e-24)
(0.0761611 0.0239555 -2.72797e-22)
(0.0368769 0.011513 0)
(0.0369343 0.0115214 3.69159e-22)
(0.0371125 0.0115762 0)
(0.0370502 0.0115601 0)
(0.0119475 0.00370767 -2.58244e-22)
(0.0119762 0.0037129 2.60268e-22)
(0.0120216 0.00372822 2.61461e-22)
(0.0119963 0.00372311 -2.60888e-22)
(0.294369 0.0977463 0)
(0.374393 0.127302 -1.57917e-21)
(0.435753 0.151616 -1.24057e-21)
(0.473277 0.16841 -1.54871e-24)
(0.483794 0.175961 1.34822e-23)
(0.467007 0.173522 0)
(0.425559 0.161456 -9.7357e-22)
(0.364393 0.141115 0)
(0.289667 0.114479 -1.11963e-24)
(0.207537 0.0837126 0)
(0.123171 0.050722 1.58919e-21)
(0.0401333 0.0169423 3.29447e-21)
(0.199687 0.0646863 -6.03165e-22)
(0.125504 0.0400055 -1.04493e-21)
(0.126005 0.0401451 -1.09033e-21)
(0.0751108 0.0236309 -1.00909e-21)
(0.0754685 0.0237359 1.02251e-24)
(0.0365377 0.0114022 0)
(0.0365979 0.0114164 1.41212e-24)
(0.0367475 0.0114632 3.63121e-22)
(0.0366775 0.0114537 -1.41095e-24)
(0.0118281 0.00367047 -2.50997e-22)
(0.0118485 0.00367386 2.5328e-22)
(0.0119197 0.00369691 -2.55938e-22)
(0.0118869 0.00368539 -2.55036e-22)
(0.291516 0.0967973 1.82281e-21)
(0.370712 0.126042 0)
(0.431456 0.15011 0)
(0.468642 0.166741 -1.03637e-21)
(0.479176 0.174249 1.91728e-24)
(0.46273 0.171884 9.21601e-22)
(0.421833 0.159991 4.64082e-25)
(0.361324 0.139886 0)
(0.287297 0.113517 5.43551e-25)
(0.205861 0.0830269 -1.28604e-21)
(0.122178 0.0503122 -7.48379e-23)
(0.0398081 0.016805 1.53735e-21)
(0.197803 0.0640749 0)
(0.124343 0.0396403 -2.50512e-23)
(0.124855 0.0397792 0)
(0.0744244 0.02341 -5.00278e-22)
(0.0747629 0.023511 7.34757e-22)
(0.0362026 0.0113027 -3.48494e-22)
(0.0362554 0.0113086 1.35343e-24)
(0.0364015 0.0113544 0)
(0.0363479 0.0113447 0)
(0.0117183 0.00363462 -2.44387e-22)
(0.0117536 0.00364442 2.45985e-22)
(0.0117991 0.00365938 0)
(0.0117704 0.00365428 -2.47303e-22)
(0.288698 0.0958577 0)
(0.367073 0.124797 -2.69787e-24)
(0.427185 0.14861 0)
(0.464058 0.165083 0)
(0.474642 0.172551 0)
(0.458554 0.170273 4.60792e-25)
(0.418213 0.158563 -8.743e-22)
(0.358343 0.138692 0)
(0.284975 0.11258 9.97477e-22)
(0.204217 0.0823564 -1.21297e-21)
(0.121197 0.0499037 -7.27906e-23)
(0.0394735 0.0166645 -2.80005e-24)
(0.195948 0.0634724 -5.61616e-22)
(0.123215 0.0392768 9.9514e-22)
(0.123705 0.0394135 0)
(0.0737441 0.0231983 9.44463e-22)
(0.0740826 0.0232983 -3.75003e-24)
(0.0358718 0.011196 3.32063e-22)
(0.0359391 0.0112153 3.34319e-22)
(0.036087 0.0112554 3.39169e-22)
(0.0360196 0.0112411 -1.31719e-24)
(0.0116084 0.00360322 -1.31451e-24)
(0.0116381 0.00360746 2.39292e-22)
(0.0116783 0.00362251 -2.41726e-22)
(0.0116601 0.00361692 -2.4014e-22)
(0.285906 0.0949243 -3.30398e-24)
(0.363439 0.123553 2.70019e-24)
(0.422917 0.147106 -4.28257e-24)
(0.459502 0.163419 1.8566e-24)
(0.470187 0.170868 1.67478e-24)
(0.454488 0.168691 8.28822e-22)
(0.414686 0.157168 0)
(0.355424 0.137528 -2.66786e-23)
(0.282706 0.111665 0)
(0.202583 0.0816862 -1.1382e-21)
(0.120212 0.0494943 1.31317e-21)
(0.0391399 0.0165227 1.36038e-21)
(0.194112 0.0628724 -5.36026e-22)
(0.122104 0.038922 9.33783e-22)
(0.122594 0.0390603 0)
(0.0730775 0.0229884 -9.07785e-22)
(0.0734232 0.0230915 0)
(0.0355524 0.011098 -3.24008e-22)
(0.0356124 0.01111 0)
(0.0357422 0.0111468 0)
(0.0357011 0.0111392 0)
(0.011509 0.00357119 -4.4663e-25)
(0.0115375 0.00358067 -2.30617e-22)
(0.0115897 0.0035936 -2.349e-22)
(0.0115619 0.00358495 0)
(0.283107 0.0939881 1.71164e-21)
(0.35976 0.122292 4.98872e-24)
(0.418607 0.145578 1.10373e-21)
(0.454966 0.161744 9.51813e-22)
(0.4658 0.169186 -1.67209e-24)
(0.450506 0.167137 7.34613e-25)
(0.411233 0.155809 -7.75926e-22)
(0.352565 0.136391 0)
(0.280445 0.110752 0)
(0.200949 0.0810152 -1.06682e-21)
(0.119225 0.0490815 -2.52106e-21)
(0.0388152 0.0163819 1.29134e-21)
(0.192284 0.062276 -1.44202e-21)
(0.120998 0.038567 1.81382e-21)
(0.121484 0.0387007 3.57311e-24)
(0.0724349 0.0227862 -2.22454e-22)
(0.0727667 0.0228857 -3.48997e-24)
(0.0352338 0.0109971 -3.11702e-22)
(0.0353003 0.0110166 -1.21774e-24)
(0.0354448 0.0110518 0)
(0.0353932 0.011047 0)
(0.0114066 0.00353931 -2.06709e-24)
(0.0114282 0.00354451 -2.23993e-22)
(0.0114706 0.00355676 -2.26797e-22)
(0.0114537 0.0035511 2.26139e-22)
(0.280263 0.0930391 3.17774e-24)
(0.355987 0.120996 -1.22837e-21)
(0.414229 0.144005 -1.0114e-21)
(0.450417 0.160034 9.20417e-22)
(0.46147 0.167518 -3.70518e-25)
(0.446597 0.165618 -7.33506e-25)
(0.407845 0.154482 1.34888e-24)
(0.349727 0.135265 -2.83894e-24)
(0.278189 0.10984 0)
(0.199315 0.0803414 5.54206e-23)
(0.118235 0.0486626 4.42502e-24)
(0.0384769 0.0162381 1.22127e-21)
(0.190433 0.0616695 5.0425e-22)
(0.119918 0.03822 -8.6205e-22)
(0.120404 0.0383574 -9.0141e-22)
(0.0717861 0.0225792 -8.43111e-22)
(0.0721191 0.0226776 0)
(0.0349263 0.0109029 0)
(0.0349878 0.0109191 2.97998e-22)
(0.0351193 0.0109506 3.09182e-22)
(0.0350761 0.0109489 1.18188e-24)
(0.0113106 0.00350801 -1.31321e-24)
(0.0113379 0.00351958 -2.16308e-22)
(0.0113851 0.00352782 2.21889e-22)
(0.0113558 0.00352387 -2.18398e-22)
(0.277296 0.0920483 -5.89184e-24)
(0.352035 0.119624 -1.24919e-21)
(0.409708 0.142348 -9.801e-22)
(0.445845 0.158294 -8.76624e-22)
(0.457189 0.165874 3.69926e-25)
(0.442758 0.16414 0)
(0.404495 0.153176 -3.86862e-24)
(0.346893 0.134137 2.83832e-24)
(0.275931 0.108924 7.96703e-22)
(0.197683 0.0796644 -3.35809e-24)
(0.11723 0.0482368 -3.39944e-25)
(0.0381343 0.0160959 -4.56335e-24)
(0.188504 0.0610386 4.82551e-22)
(0.118831 0.0378675 -1.62337e-24)
(0.119323 0.0380105 -8.38016e-22)
(0.0711664 0.0223854 2.45454e-24)
(0.0714937 0.0224824 8.21944e-22)
(0.0346235 0.0108058 0)
(0.0346747 0.0108151 -5.70621e-25)
(0.0348305 0.0108596 -1.15029e-24)
(0.0347767 0.0108535 1.72204e-24)
(0.0112134 0.00347895 -2.08871e-22)
(0.011232 0.00348665 0)
(0.0112701 0.00349226 -2.1217e-22)
(0.011248 0.00349116 -2.11051e-22)
(0.274068 0.0909721 -7.6487e-23)
(0.347784 0.118124 0)
(0.405016 0.140586 1.94066e-21)
(0.441261 0.156551 0)
(0.452971 0.164281 2.53647e-24)
(0.438974 0.162694 0)
(0.401164 0.151875 4.87087e-24)
(0.344069 0.13301 0)
(0.273683 0.108004 -7.06345e-22)
(0.196027 0.078973 3.35984e-24)
(0.116226 0.0478123 -7.84386e-24)
(0.0377786 0.0159479 1.0324e-21)
(0.186353 0.0603448 2.22386e-21)
(0.117718 0.037507 -8.01823e-22)
(0.118251 0.0376642 -8.31926e-22)
(0.0705445 0.0221863 1.15628e-24)
(0.0708583 0.0222831 2.06493e-22)
(0.0343318 0.0107136 5.44886e-25)
(0.0343893 0.01073 -5.44516e-25)
(0.0345292 0.0107705 0)
(0.0344733 0.0107593 0)
(0.0111055 0.00344434 2.01824e-22)
(0.0111381 0.00345361 -2.02826e-22)
(0.0111848 0.00346509 4.05997e-25)
(0.0111606 0.00346266 -2.04854e-22)
(0.270422 0.0897479 0)
(0.343102 0.116407 -2.32803e-21)
(0.40016 0.13875 4.55709e-25)
(0.436722 0.154874 2.69349e-24)
(0.448842 0.162739 -1.61946e-25)
(0.43524 0.161264 0)
(0.397852 0.150575 -5.85545e-22)
(0.341252 0.131877 6.15735e-22)
(0.271414 0.107073 2.68966e-24)
(0.19437 0.0782775 -2.8239e-24)
(0.115201 0.0473787 -8.82342e-22)
(0.0374175 0.0157945 -1.7313e-24)
(0.183778 0.0595188 0)
(0.116449 0.0371008 7.97402e-22)
(0.117079 0.0372887 -7.75319e-22)
(0.0699123 0.0219869 0)
(0.0702486 0.022086 5.68849e-22)
(0.0340408 0.010624 -3.10998e-24)
(0.0341014 0.0106369 -2.67215e-22)
(0.0342282 0.0106761 -2.71878e-22)
(0.0341892 0.0106717 -5.29313e-25)
(0.0110247 0.0034179 1.95616e-22)
(0.0110442 0.0034263 -1.95964e-22)
(0.0110847 0.003438 -1.99351e-22)
(0.0110619 0.0034332 -1.97806e-22)
(0.265961 0.0881962 6.61953e-22)
(0.337941 0.11445 -1.16854e-21)
(0.395305 0.137002 0)
(0.432336 0.153282 -1.72305e-25)
(0.444815 0.161231 -4.61972e-24)
(0.431545 0.159841 5.50655e-22)
(0.394548 0.149271 2.18867e-24)
(0.338428 0.130737 5.53496e-22)
(0.269133 0.106129 0)
(0.192696 0.0775748 7.19015e-22)
(0.114158 0.0469339 7.98542e-22)
(0.0370628 0.0156439 4.81722e-24)
(0.180138 0.0583521 1.07277e-21)
(0.114767 0.0365777 -5.85545e-24)
(0.115695 0.0368539 7.75428e-22)
(0.0692332 0.0217717 -9.28773e-22)
(0.0695941 0.0218781 5.8435e-24)
(0.0337527 0.010531 0)
(0.0338162 0.0105508 0)
(0.0339437 0.0105867 -5.1945e-25)
(0.0338929 0.010576 2.60843e-22)
(0.0109204 0.00338675 1.87135e-22)
(0.010954 0.00339582 -1.90255e-22)
(0.0109919 0.00340907 0)
(0.0109781 0.00340781 0)
(0.260331 0.0860761 1.35278e-21)
(0.332678 0.112616 -7.15719e-24)
(0.390724 0.135399 -7.67449e-22)
(0.428146 0.151751 -2.52623e-24)
(0.44088 0.159747 -5.72177e-22)
(0.427883 0.158425 -1.94963e-24)
(0.39125 0.147965 -5.0512e-22)
(0.335585 0.129584 -1.90893e-24)
(0.266848 0.105183 5.39347e-22)
(0.19101 0.0768624 -6.45112e-22)
(0.113125 0.0464906 -7.095e-22)
(0.0366905 0.0154859 -3.08902e-24)
(0.173538 0.0559946 6.65158e-24)
(0.111631 0.03561 1.75696e-23)
(0.113464 0.036232 -7.40889e-22)
(0.068342 0.021499 -5.80546e-24)
(0.0688642 0.0216396 -7.08557e-22)
(0.0334754 0.0104445 -4.07876e-24)
(0.0335208 0.0104574 4.92848e-25)
(0.0336474 0.0104945 0)
(0.033603 0.0104864 -4.92845e-25)
(0.0108384 0.00335913 0)
(0.0108661 0.0033709 -1.83348e-22)
(0.0109005 0.00338081 -1.85897e-22)
(0.0108793 0.00337643 -1.85157e-22)
(0.25432 0.0840771 5.21024e-24)
(0.327952 0.111026 8.55704e-22)
(0.386532 0.133904 5.69102e-24)
(0.42414 0.150271 5.89233e-22)
(0.437024 0.158288 0)
(0.424255 0.157018 1.95105e-24)
(0.387961 0.146658 4.67584e-22)
(0.332756 0.12843 -4.71992e-22)
(0.264556 0.104227 -1.81736e-24)
(0.189329 0.0761447 4.11516e-23)
(0.112072 0.0460325 6.20561e-22)
(0.0363051 0.015323 0)
(0.165552 0.0535408 -2.16356e-22)
(0.10284 0.032466 -6.1419e-24)
(0.108308 0.0345481 -1.18141e-23)
(0.0665274 0.0209917 2.11545e-23)
(0.0676451 0.0213059 1.65845e-22)
(0.0331508 0.0103454 2.4101e-22)
(0.0332347 0.0103663 -4.85111e-22)
(0.0333884 0.0104083 4.8506e-25)
(0.033324 0.0103897 0)
(0.0107506 0.00333334 3.54541e-22)
(0.0107733 0.00334175 -1.78029e-22)
(0.0107994 0.00334948 -1.80712e-22)
(0.0107849 0.00334791 -1.79247e-22)
(0.249495 0.0824665 1.1345e-21)
(0.323933 0.109619 0)
(0.38265 0.132497 0)
(0.420285 0.148845 4.38088e-24)
(0.433245 0.156854 0)
(0.420667 0.155621 -9.05828e-22)
(0.384697 0.145351 0)
(0.329933 0.127271 4.20797e-22)
(0.262269 0.103261 4.50907e-22)
(0.187629 0.0754115 -5.00944e-22)
(0.11099 0.0455628 -5.23079e-22)
(0.0359174 0.0151609 -9.11351e-25)
(0.160857 0.0518138 -1.11551e-21)
(0.0930601 0.0297465 3.17401e-22)
(0.0965897 0.0307659 3.59322e-22)
(0.0571319 0.0176592 0)
(0.0643069 0.0202617 -1.03931e-22)
(0.0323849 0.0101416 0)
(0.0327095 0.0102173 1.8393e-24)
(0.0330157 0.0103031 -4.88876e-24)
(0.0328777 0.0102674 -1.84392e-24)
(0.0106576 0.00330531 -1.72864e-22)
(0.0106855 0.00331238 1.71907e-22)
(0.010732 0.00332632 -1.75593e-22)
(0.0107063 0.00331833 -1.74887e-22)
(0.245937 0.0812137 -8.46435e-24)
(0.320426 0.108368 0)
(0.379016 0.131181 0)
(0.416566 0.147466 -4.38842e-24)
(0.429541 0.155443 4.54621e-22)
(0.417119 0.154231 1.28819e-25)
(0.381456 0.144045 9.99657e-24)
(0.327119 0.126103 0)
(0.259979 0.102288 3.74705e-22)
(0.185914 0.0746694 8.12168e-22)
(0.109911 0.0450928 0)
(0.0355139 0.0149907 1.25295e-24)
(0.158316 0.0508551 3.36931e-22)
(0.0903649 0.0285595 -4.94028e-24)
(0.091293 0.0289109 -3.03758e-22)
(0.0450739 0.0142376 -4.84741e-22)
(0.0481062 0.0155356 9.65616e-23)
(0.0190261 0.00446307 0)
(0.0280195 0.00833537 0)
(0.0318225 0.0100397 6.78736e-24)
(0.0306158 0.0094989 1.01953e-22)
(0.0104335 0.00324132 -1.67718e-22)
(0.0105473 0.00326759 1.68797e-22)
(0.0106237 0.00329489 -1.81626e-24)
(0.0105849 0.00328375 -1.70128e-22)
(0.24309 0.0802172 1.11879e-21)
(0.317254 0.107244 0)
(0.375584 0.12994 2.43245e-24)
(0.412961 0.146125 0)
(0.425908 0.154052 0)
(0.413619 0.152849 -3.72273e-22)
(0.378232 0.142735 -3.59644e-22)
(0.324318 0.124933 -3.30347e-22)
(0.257684 0.101303 -3.28332e-22)
(0.184204 0.0739201 3.11733e-22)
(0.108812 0.0446058 -3.18471e-22)
(0.0350986 0.0148194 2.8624e-22)
(0.156546 0.0502922 -1.66728e-21)
(0.0892457 0.0281846 -6.01043e-22)
(0.0896671 0.0282933 4.9377e-24)
(0.0438585 0.0136667 -1.50721e-22)
(0.0442735 0.013821 0)
(0.0104008 0.00326959 1.57957e-22)
(0.0106705 0.00337159 -8.26907e-23)
(0.0127681 0.00401234 -8.27375e-23)
(0.0113645 0.00377633 0)
(0.00526556 0.00118693 0)
(0.00910272 0.00292383 6.64471e-23)
(0.0102419 0.00321293 1.64634e-22)
(0.00977327 0.00312805 7.31938e-23)
(0.240635 0.0793803 0)
(0.314335 0.106217 8.1527e-22)
(0.372307 0.128751 -4.76296e-24)
(0.409464 0.144818 -5.17549e-22)
(0.422346 0.152678 -4.33305e-22)
(0.410159 0.151473 3.39755e-22)
(0.375051 0.141427 1.13466e-24)
(0.321533 0.123752 0)
(0.255406 0.100308 -2.62114e-22)
(0.18248 0.0731537 2.57421e-22)
(0.107683 0.0441074 -5.55233e-25)
(0.0346714 0.0146396 0)
(0.155049 0.0498445 3.41141e-22)
(0.0884523 0.0279748 5.80998e-22)
(0.0887716 0.028046 4.7226e-24)
(0.0434195 0.0135352 0)
(0.0436106 0.0135928 1.48563e-22)
(0.0102796 0.00319091 -7.88709e-25)
(0.0102886 0.00318832 -1.57138e-22)
(0.01036 0.00322141 1.61914e-22)
(0.0103183 0.0032033 0)
(0.238438 0.0786382 -9.52683e-22)
(0.311596 0.105253 0)
(0.369163 0.127607 5.56894e-22)
(0.406059 0.143537 4.43643e-22)
(0.41885 0.151319 4.08443e-22)
(0.406755 0.150102 2.50645e-24)
(0.371893 0.140113 -1.13458e-24)
(0.318767 0.122562 2.42577e-22)
(0.253118 0.0992988 1.97899e-22)
(0.180725 0.0723697 -1.02374e-25)
(0.106541 0.0435975 -8.83133e-23)
(0.0342355 0.0144547 0)
(0.153724 0.0494322 -3.34604e-22)
(0.0877354 0.0277728 -5.64786e-22)
(0.0880392 0.027847 0)
(0.0430985 0.0134457 5.49051e-25)
(0.0432587 0.013497 -1.46008e-22)
(0.0102275 0.00317285 -1.46871e-22)
(0.010234 0.00317244 -1.48446e-22)
(0.0102634 0.00318159 -1.50316e-22)
(0.0102571 0.00318369 -1.50179e-22)
(0.236402 0.0779487 -7.53506e-24)
(0.308992 0.104334 0)
(0.366125 0.126495 -2.12994e-24)
(0.402738 0.142278 -4.16395e-22)
(0.415423 0.149971 0)
(0.403394 0.148732 -2.27103e-24)
(0.368771 0.138794 -4.7504e-22)
(0.316014 0.121361 -1.74405e-22)
(0.250828 0.0982745 0)
(0.178958 0.0715694 7.13273e-23)
(0.105369 0.0430687 0)
(0.0337788 0.0142632 0)
(0.152489 0.0490349 -3.18846e-22)
(0.0870682 0.0275623 0)
(0.0873368 0.0276375 1.12786e-21)
(0.0427744 0.0133591 1.08225e-24)
(0.0429495 0.0134092 -1.62946e-24)
(0.0101705 0.003153 -2.80119e-25)
(0.0101833 0.00315528 -1.4367e-22)
(0.0102067 0.0031654 2.85283e-25)
(0.0102077 0.00316702 -7.45577e-25)
(0.234474 0.0772937 3.69903e-24)
(0.306494 0.103449 -7.25058e-22)
(0.363182 0.12541 8.37852e-26)
(0.3995 0.141035 4.49984e-22)
(0.412058 0.14863 0)
(0.400087 0.147362 2.4164e-22)
(0.365684 0.137467 0)
(0.313276 0.120146 2.96776e-25)
(0.248532 0.0972298 0)
(0.177169 0.0707481 0)
(0.104171 0.0425235 1.7429e-22)
(0.0332996 0.0140647 0)
(0.151298 0.0486504 -6.19886e-22)
(0.086398 0.0273483 5.28315e-22)
(0.0866792 0.0274267 -2.11079e-24)
(0.0424538 0.0132576 2.09338e-24)
(0.0426144 0.0133104 -5.32324e-22)
(0.0100986 0.00313532 -1.37676e-22)
(0.0101128 0.00313741 -1.39731e-22)
(0.010147 0.00314616 -1.41253e-22)
(0.0101445 0.00314849 0)
(0.232638 0.0766671 -8.29265e-23)
(0.304097 0.102592 -7.04682e-22)
(0.360321 0.124343 -4.80171e-22)
(0.39634 0.139808 -4.33865e-22)
(0.408761 0.147294 -5.86351e-25)
(0.396824 0.145986 -4.20793e-25)
(0.362622 0.136126 0)
(0.310543 0.118909 0)
(0.24622 0.09616 3.45312e-26)
(0.175346 0.0699005 -1.40487e-22)
(0.102929 0.0419584 3.21065e-22)
(0.0328046 0.0138576 -2.85418e-25)
(0.150163 0.0482758 8.00518e-22)
(0.0857701 0.0271504 5.07363e-22)
(0.0860338 0.0272234 1.05017e-21)
(0.042134 0.0131536 1.31708e-22)
(0.0422984 0.0132078 0)
(0.0100208 0.00311046 -1.34589e-22)
(0.0100335 0.00311197 2.6307e-25)
(0.0100709 0.00312436 -1.3699e-22)
(0.0100664 0.00312452 -1.3639e-22)
(0.230881 0.0760605 -8.21264e-23)
(0.301767 0.101752 -6.8168e-22)
(0.357551 0.123297 4.62072e-22)
(0.393252 0.138587 7.66126e-25)
(0.405524 0.145957 5.86355e-25)
(0.393612 0.144604 4.20842e-25)
(0.359589 0.13477 0)
(0.307819 0.117651 0)
(0.243886 0.0950624 -3.45567e-26)
(0.173495 0.0690299 -5.13119e-22)
(0.101648 0.0413698 0)
(0.0322887 0.0136441 6.821e-22)
(0.149079 0.047915 1.07217e-21)
(0.0851553 0.026952 4.90339e-22)
(0.0854158 0.0270256 5.00254e-25)
(0.0418414 0.0130679 0)
(0.0419858 0.0131098 -4.96283e-22)
(0.00995632 0.00308604 -1.30146e-22)
(0.00996779 0.00309019 -2.57316e-25)
(0.0099946 0.00310002 -1.32916e-22)
(0.00998917 0.00310036 -1.31767e-22)
(0.229174 0.0754701 7.98853e-22)
(0.299522 0.100933 0)
(0.354856 0.122261 -5.16846e-22)
(0.390237 0.13737 0)
(0.40235 0.144618 0)
(0.390444 0.14321 0)
(0.356578 0.133394 -1.02736e-22)
(0.305094 0.116367 -2.20888e-23)
(0.241537 0.0939354 2.14269e-22)
(0.171591 0.0681237 -3.74217e-22)
(0.100329 0.0407624 -3.63179e-25)
(0.0317446 0.0134226 3.84364e-25)
(0.148023 0.0475662 -2.82176e-22)
(0.0845761 0.0267591 4.74955e-22)
(0.0848198 0.0268331 -9.80331e-22)
(0.0415421 0.0129741 0)
(0.0416937 0.0130195 0)
(0.00988948 0.00306895 0)
(0.00989345 0.00306939 -1.26791e-22)
(0.00992024 0.00307523 -1.28626e-22)
(0.0099175 0.00307794 -1.28338e-22)
(0.227536 0.074898 8.5392e-22)
(0.297345 0.100126 5.78216e-22)
(0.352232 0.12123 -9.12963e-25)
(0.387289 0.136153 -6.7733e-25)
(0.399235 0.143273 0)
(0.387319 0.141802 9.73377e-23)
(0.353596 0.131994 -3.97712e-23)
(0.302357 0.115046 0)
(0.23915 0.0927707 3.15072e-22)
(0.169642 0.0671853 0)
(0.0989464 0.0401309 8.24082e-25)
(0.0311847 0.0131989 2.40626e-24)
(0.147011 0.0472328 -1.27776e-21)
(0.0839925 0.0265762 4.59068e-22)
(0.0842378 0.0266454 1.84611e-24)
(0.0412678 0.0128818 0)
(0.0414146 0.0129311 4.64837e-22)
(0.00981471 0.00304628 -4.77886e-25)
(0.00982044 0.00304655 -1.22987e-22)
(0.00985642 0.00305658 -1.25226e-22)
(0.00984397 0.00305573 -1.24216e-22)
(0.225952 0.0743414 0)
(0.295244 0.0993269 0)
(0.349683 0.120201 6.88546e-25)
(0.384416 0.134938 -3.81288e-22)
(0.396181 0.14192 0)
(0.38424 0.140372 5.67366e-23)
(0.350623 0.130562 0)
(0.299608 0.113688 1.19744e-25)
(0.236715 0.0915637 0)
(0.167633 0.0662119 6.49449e-22)
(0.0975007 0.0394832 -4.61311e-25)
(0.0306155 0.0129625 1.35012e-21)
(0.146032 0.0469178 2.66099e-22)
(0.0834414 0.0263999 4.4818e-22)
(0.0836731 0.0264667 0)
(0.0409897 0.012799 1.78731e-24)
(0.041135 0.0128427 -1.78483e-24)
(0.00975206 0.00302456 -4.68158e-25)
(0.00976256 0.00302595 -1.19699e-22)
(0.00978984 0.00303668 -1.21066e-22)
(0.00978766 0.00303669 -1.20522e-22)
(0.224437 0.0737926 -8.32014e-22)
(0.293214 0.0985249 0)
(0.347203 0.119174 4.09112e-22)
(0.381612 0.133722 0)
(0.393188 0.140552 0)
(0.381199 0.138917 -1.24732e-22)
(0.347659 0.129094 6.11447e-26)
(0.296845 0.112291 -1.19796e-25)
(0.234241 0.0903145 -1.02268e-21)
(0.165544 0.0651962 -8.04907e-22)
(0.0959836 0.0388402 0)
(0.0301715 0.0126354 -1.62551e-21)
(0.145088 0.0466295 9.81268e-22)
(0.0828829 0.0262433 -4.37515e-22)
(0.0831196 0.0262988 -4.42421e-25)
(0.0407221 0.0127151 0)
(0.0408603 0.0127576 0)
(0.00968311 0.00300541 -1.15749e-22)
(0.00969494 0.00300677 -1.16462e-22)
(0.00972572 0.00301599 0)
(0.00972416 0.00301705 -1.17377e-22)
(0.222999 0.0732287 3.90231e-25)
(0.29124 0.0977219 0)
(0.344806 0.11816 -4.88277e-22)
(0.378883 0.132498 0)
(0.390256 0.139165 1.22787e-22)
(0.378193 0.13743 -3.21076e-27)
(0.34471 0.127585 -6.11635e-26)
(0.294053 0.110842 1.08194e-22)
(0.231696 0.0890152 6.75856e-22)
(0.1634 0.0641592 0)
(0.094355 0.0381203 0)
(0.0304557 0.0123298 0)
(0.144316 0.0461996 -4.99462e-25)
(0.0823684 0.0261775 1.71857e-24)
(0.0825697 0.0261733 -4.49506e-22)
(0.0404501 0.012634 0)
(0.0405873 0.0126744 0)
(0.00962326 0.00298537 -1.13218e-22)
(0.00963468 0.00298875 -1.13459e-22)
(0.0096606 0.00299645 0)
(0.00965572 0.00299638 -1.14295e-22)
(0.22158 0.0726653 -3.8985e-25)
(0.289345 0.0969419 5.45735e-22)
(0.342483 0.117143 0)
(0.376232 0.131262 0)
(0.387384 0.137752 -2.26157e-22)
(0.375221 0.135904 3.20976e-27)
(0.341757 0.126028 4.23698e-22)
(0.291215 0.109343 -2.07375e-25)
(0.229133 0.0876685 0)
(0.160934 0.0630445 0)
(0.0942857 0.0372956 0)
(0.0262448 0.00994106 0)
(0.143427 0.0458894 0)
(0.0821413 0.025795 0)
(0.0821674 0.0261683 4.36207e-22)
(0.0400954 0.0125936 0)
(0.0402946 0.0126066 4.18135e-22)
(0.00956686 0.00296485 0)
(0.00957144 0.00296728 -1.11197e-22)
(0.00959395 0.00297547 -1.12268e-22)
(0.00959078 0.00297545 2.18615e-25)
(0.220227 0.0721257 0)
(0.287526 0.0961709 0)
(0.340251 0.116124 0)
(0.373656 0.130007 -1.30176e-22)
(0.384567 0.136307 -1.20411e-25)