/*--------------------------------*- C++ -*----------------------------------*\
| =========                 |                                                 |
| \\      /  F ield         | OpenFOAM: The Open Source CFD Toolbox           |
|  \\    /   O peration     | Version:  v1912                                 |
|   \\  /    A nd           | Website:  www.openfoam.com                      |
|    \\/     M anipulation  |                                                 |
\*---------------------------------------------------------------------------*/
FoamFile
{
    version     2.0;
    format      ascii;
    class       surfaceScalarField;
    location    "280";
    object      phi;
}
// * * * * * * * * * * * * * * * * * * * * * * * * * * * * * * * * * * * * * //

dimensions      [0 3 -1 0 0 0 0];
oriented        oriented;


internalField   nonuniform List<scalar> 
7196
(
0.0051063
0.0049007
0.00622991
0.00888439
0.002459
0.0024417
0.00618614
0.0100508
0.0044708
0.00687259
0.000926046
0.00151565
0.00596208
0.0102331
0.00522401
0.00929755
0.00258487
0.00521376
0.000294365
0.00122129
0.00577407
0.010197
0.00527141
0.0101857
0.00373872
0.0081437
0.0012866
0.00422153
7.79489e-05
0.00114334
0.00562954
0.0101555
0.00510969
0.0103587
0.00419397
0.00973042
0.00232973
0.00710057
0.000564737
0.00373474
5.1942e-07
0.00114282
0.00550489
0.0101357
0.00494244
0.0103228
0.00423241
0.0103203
0.00296613
0.00909401
0.0012833
0.00638201
0.000194223
0.00354104
-2.91881e-05
0.001172
0.00538946
0.0101274
0.00480981
0.0102683
0.00412489
0.0104303
0.00318904
0.0100974
0.00186746
0.00850984
0.000600103
0.00597613
1.29757e-05
0.00349887
-3.83771e-05
0.00121038
0.00528112
0.0101203
0.00470856
0.0102287
0.00400321
0.01039
0.00317805
0.0104413
0.00215752
0.00980733
0.00101631
0.00809364
0.000192429
0.00579667
-6.78818e-05
0.00352838
-3.64373e-05
0.00124682
0.00517695
0.0101142
0.00462832
0.0102006
0.00390487
0.010327
0.00308404
0.010484
0.0022037
0.0103951
0.00126415
0.00955949
0.000428794
0.00785727
-2.3761e-05
0.00575255
-9.25208e-05
0.00358446
-2.98797e-05
0.0012767
0.0050795
0.0101055
0.00456888
0.0101736
0.00383675
0.0102687
0.00298222
0.0104288
0.00212237
0.0105653
0.00131098
0.0103483
0.000583943
0.00940434
7.28116e-05
0.0077607
-0.000119189
0.00577922
-9.08516e-05
0.00364543
-2.33207e-05
0.00130002
0.00498992
0.0100936
0.00453203
0.0101423
0.0038005
0.0102099
0.00290245
0.0103485
0.00199773
0.0105535
0.00121472
0.0106615
0.000590137
0.0103421
0.000134448
0.00934271
-0.000109856
0.00775137
-0.000146981
0.00583535
-7.86155e-05
0.00370073
-1.71088e-05
0.00131713
0.00490684
0.0100821
0.00451718
0.0101084
0.00379816
0.0101446
0.00285549
0.0102568
0.00187207
0.0104741
0.00104185
0.0107263
0.000456379
0.0107953
9.04226e-05
0.0103861
-0.000115255
0.00934811
-0.000185597
0.00778999
-0.000144336
0.00590107
-6.38595e-05
0.00374748
-1.14314e-05
0.00132856
0.0048301
0.0100697
0.00452675
0.0100725
0.00383836
0.0100682
0.0028532
0.0101469
0.00176588
0.010363
0.000834279
0.0106817
0.000224224
0.0109585
-7.23949e-05
0.0109581
-0.000189796
0.0104606
-0.000230718
0.00939323
-0.000205672
0.00785132
-0.000127802
0.00596501
-4.89064e-05
0.00378495
-7.14965e-06
0.00133571
0.00475769
0.0100574
0.0045603
0.0100362
0.00392547
0.0099854
0.00290745
0.010014
0.00169721
0.0102156
0.000616478
0.0105808
-7.71912e-05
0.0109831
-0.000339401
0.0112255
-0.000359398
0.0111277
-0.000323783
0.0105537
-0.000274623
0.00946218
-0.000198181
0.0079217
-0.000107052
0.00602316
-3.5324e-05
0.00381313
-3.51546e-06
0.00133922
0.00468676
0.0100499
0.00461265
0.0100051
0.00406531
0.00989635
0.00303817
0.00985468
0.001691
0.0100202
0.000406089
0.010426
-0.000435269
0.0109389
-0.000694233
0.0113379
-0.000616378
0.0114825
-0.000486041
0.01129
-0.000379822
0.0106589
-0.000280803
0.0095448
-0.000178061
0.00799271
-8.46676e-05
0.0060725
-2.4359e-05
0.00383397
-1.33489e-06
0.00134056
0.00461377
0.010046
0.0046793
0.00998328
0.00425595
0.00981441
0.00326063
0.00967389
0.00177867
0.009767
0.000222767
0.0102035
-0.000851957
0.0108427
-0.00113723
0.0113819
-0.000948595
0.0116702
-0.000718531
0.011715
-0.000539097
0.0114493
-0.000392061
0.0107702
-0.000264288
0.00963103
-0.000152396
0.00806044
-6.60166e-05
0.00611416
-1.55682e-05
0.00384821
6.43755e-07
0.00133992
0.00453498
0.0100498
0.00474663
0.00997866
0.00448866
0.00975057
0.00359189
0.00948315
0.00200415
0.00944841
0.000104199
0.00988557
-0.00133247
0.010684
-0.00168298
0.0113884
-0.00135246
0.0117857
-0.00100668
0.0119583
-0.000750572
0.0119265
-0.000546989
0.0116042
-0.000378532
0.0108844
-0.000238912
0.00971754
-0.000127443
0.00812187
-4.94507e-05
0.00614804
-8.80429e-06
0.00385765
1.81365e-06
0.0013381
0.004446
0.010061
0.00480274
0.00999369
0.00474523
0.00972209
0.00403288
0.00930958
0.00242386
0.00906344
0.000114681
0.00943793
-0.0018846
0.0104377
-0.00236466
0.0113657
-0.00182827
0.0118642
-0.00133856
0.0121176
-0.00100663
0.0122144
-0.000746676
0.0121261
-0.000529181
0.0117548
-0.00035093
0.0109964
-0.000210969
0.00980107
-0.00010544
0.00817785
-3.67206e-05
0.00617596
-4.40393e-06
0.00386387
2.45833e-06
0.00133564
0.00434346
0.0100785
0.00483344
0.0100303
0.00499468
0.00974424
0.00455755
0.00919743
0.00309369
0.00863974
0.000375356
0.00880277
-0.00249791
0.0100512
-0.00321955
0.0112926
-0.00237954
0.011917
-0.00170807
0.0122337
-0.00129021
0.0124012
-0.000976992
0.0124447
-0.00071667
0.0123136
-0.000497439
0.0119013
-0.000321937
0.0111074
-0.000185029
0.00988066
-8.71212e-05
0.00822826
-2.67453e-05
0.0061983
-4.20776e-07
0.00386675
3.20123e-06
0.00133244
0.00422547
0.010101
0.00482398
0.010088
0.00520633
0.00981862
0.00511164
0.00919015
0.00400634
0.00828478
0.00113363
0.00788148
-0.00307374
0.0093786
-0.00425113
0.0110828
-0.00297426
0.0118873
-0.00208485
0.0122938
-0.00157791
0.0125214
-0.00122231
0.0126465
-0.000929446
0.0126575
-0.000676206
0.0124924
-0.000463281
0.0120427
-0.000291151
0.0112135
-0.000160755
0.00995429
-7.09659e-05
0.00827248
-1.85146e-05
0.00621639
2.03111e-06
0.00386792
3.4678e-06
0.00132898
0.00409373
0.0101227
0.00476741
0.0101576
0.0053464
0.00994794
0.00562496
0.0093053
0.00505636
0.00814013
0.00269039
0.00672801
-0.00320316
0.00801089
-0.00531712
0.0104446
-0.00343702
0.0115456
-0.0023738
0.0121763
-0.00181597
0.0125318
-0.00144651
0.0127456
-0.00114578
0.0128629
-0.000877495
0.0128588
-0.000634582
0.0126637
-0.000427421
0.012179
-0.000261559
0.0113143
-0.00014021
0.0100235
-5.7822e-05
0.00831178
-1.27919e-05
0.00623122
3.30614e-06
0.00386808
3.58698e-06
0.00132539
0.00394904
0.0101417
0.00466383
0.0102263
0.00539019
0.0101138
0.0060162
0.00955669
0.00612366
0.008238
0.00461603
0.00317824
0.00303626
-0.000214397
0.00288219
-0.00141881
0.00227586
-0.0032491
0.0044918
-0.00235959
0.00381066
-0.00189773
0.0102976
-0.00139233
-0.00233769
0.0115095
-0.00187588
0.0122362
-0.00157717
0.0126625
-0.001324
0.0129238
-0.00107344
0.0130588
-0.000823552
0.0130477
-0.000590965
0.0128272
-0.00039313
0.0123105
-0.000236544
0.0114107
-0.00012281
0.0100885
-4.83702e-05
0.00834736
-8.57193e-06
0.00624309
4.67064e-06
0.003867
3.34699e-06
0.00132204
0.00379573
0.0101553
0.00452111
0.0102844
0.00533776
0.0102788
0.00622069
0.00990927
0.00699723
0.00868312
0.00680861
0.00299362
0.00305179
0.000594027
0.00236981
0.00154481
0.00208548
-0.00322083
0.00285392
-0.000702615
0.000872958
0.000780664
-0.00127567
-0.00113297
0.000570502
0.000893169
-0.00175546
0.00434952
-0.000992853
0.00127795
0.000886952
-0.000677715
-0.000646848
0.00322783
-0.000525775
-0.000920687
0.00956787
-0.000687237
-0.000996927
0.00395412
-0.00155408
0.0111877
-0.00148571
0.0121447
-0.00138709
0.0127256
-0.0012246
0.013075
-0.0010049
0.0132402
-0.000766427
0.0132232
-0.000546155
0.0129803
-0.000359514
0.0124335
-0.000214557
0.0115024
-0.000107874
0.010148
-4.08334e-05
0.00837962
-6.27473e-06
0.00625404
4.67473e-06
0.00386567
3.38859e-06
0.00131865
0.00363707
0.0101637
0.00434746
0.010329
0.00520274
0.0104194
0.00623568
0.0102638
0.0074728
0.00943371
0.00865904
0.0032746
0.00355809
0.00261625
0.00192219
0.00357249
0.00105843
0.00103711
0.000449274
0.000398753
0.000534836
-0.00109394
0.000691228
-0.000862401
0.000549121
-0.000937181
0.000495443
0.00106594
-0.000495443
0.000966261
-0.000491716
0.00112282
0.000683781
-0.000288545
0.000288545
-0.000171845
0.00266803
-0.000265289
-0.000323402
0.000920446
0.0035655
-0.000532059
-0.000427961
0.0087718
-0.000330052
0.00322945
-0.000351189
-0.00105921
0.0107612
-0.00122906
0.0119867
-0.0012545
0.0127555
-0.00113535
0.0132054
-0.000929736
0.0134035
-0.000706969
0.013384
-0.000502123
0.0131229
-0.000328806
0.0125477
-0.000194093
0.0115886
-9.68361e-05
0.010204
-3.58608e-05
0.00840921
-4.35996e-06
0.00626308
4.80525e-06
0.00386426
2.95369e-06
0.0013157
0.00347499
0.0101691
0.00415148
0.0103596
0.00500697
0.0105247
0.00610223
0.0105529
0.00756628
0.0101703
0.00957033
0.00407769
0.00444473
0.00464579
0.00220131
0.00545407
0.00274981
0.001046
0.000270189
0.000251677
0.000803597
-0.00143061
0.0017696
0.000719441
0.000652502
0.000715624
-0.000316872
0.00038806
-0.00038806
0.000360379
-0.000771414
0.000653445
-5.3876e-05
0.00227477
-8.12994e-05
-5.74974e-05
-0.000116257
0.00301522
-0.000213728
-0.000215397
0.00811336
-0.000185369
0.00284146
-0.000156299
0.00200507
-3.80045e-05
-4.34893e-05
-0.000809927
0.010342
-0.00108969
0.0118219
-0.00115972
0.0127799
-0.00103801
0.0133137
-0.000849196
0.0135457
-0.000648054
0.0135299
-0.000460707
0.0132548
-0.000303274
0.0126569
-0.000178714
0.0116705
-8.9379e-05
0.0102576
-3.19076e-05
0.00843676
-3.96432e-06
0.00627184
4.49934e-06
0.00386271
2.819e-06
0.00131288
0.00331005
0.0101729
0.00393892
0.0103816
0.00476754
0.0105991
0.0058629
0.0107641
0.00738244
0.0107367
0.00969254
0.0100481
0.00606212
0.00346964
0.0064793
0.00402755
0.00494904
-0.00162156
0.000303565
0.000339863
0.00628575
0.000880101
0.000532997
-4.6683e-05
0.000204994
0.00118681
0.000269289
0.000284687
0.000244122
0.000591558
-1.94126e-05
0.000190246
0.000547201
-1.31398e-05
0.00184138
-2.68382e-05
-2.31921e-05
0.00272519
-9.91242e-05
-0.000138101
0.0075863
-0.000144766
0.00262002
-8.02018e-05
0.00172246
-1.80487e-05
-1.93303e-05
-0.000512629
0.000484086
-9.46185e-06
-8.91736e-06
-0.000723706
0.00997606
-0.00102914
0.0116913
-0.00104517
0.012787
-0.000930747
0.0133953
-0.000766318
0.013664
-0.000591097
0.0136603
-0.000425941
0.0133774
-0.000282368
0.0127606
-0.000166955
0.0117481
-8.32106e-05
0.0103089
-3.02574e-05
0.00846305
-3.88973e-06
0.00628023
3.85657e-06
0.00386167
2.27511e-06
0.00131061
0.0031424
0.0101756
0.00371632
0.0103955
0.00449873
0.0106504
0.00555199
0.01091
0.00702993
0.0111166
0.00927709
0.0111522
-0.00758543
0.0140716
0.00469776
0.0053434
0.00709559
0.00126779
0.001392
0.00189609
0.00164161
0.00106254
-0.000758971
0.0014024
-0.0019354
0.0028155
0.000474283
0.000170834
0.000157694
0.00046294
-5.69194e-06
0.000445022
-5.27425e-06
0.0016456
-1.17145e-05
-1.05504e-05
0.00254189
-5.99636e-05
-0.000121631
0.00714223
-0.000158006
0.00245674
-5.96235e-05
0.00158313
-8.7835e-06
-8.94906e-06
-0.000429839
0.00041633
-4.54043e-06
-4.14681e-06
-0.000148777
0.000139315
-0.000749377
0.00969629
-0.000933902
0.01158
-0.000914748
0.012771
-0.000819009
0.013448
-0.00068617
0.013759
-0.000540372
0.0137748
-0.000396237
0.0134913
-0.000265948
0.0128596
-0.000158149
0.011823
-7.92527e-05
0.0103579
-2.87883e-05
0.00848795
-4.10526e-06
0.0062882
3.07277e-06
0.00386088
2.10612e-06
0.0013085
0.00297492
0.0101755
0.00348792
0.010404
0.00420957
0.0106847
0.00519707
0.0110054
0.00658423
0.0113557
0.0086247
0.011769
0.0128624
0.0123614
0.00878683
-0.00417769
-0.00337746
0.00196027
0.00150581
0.00884401
0.00528623
0.00300589
0.0010774
0.00345334
0.000944549
-0.00391919
0.00163759
0.00117576
0.000133623
0.000128349
0.000407097
-2.48104e-06
0.000398823
-2.27606e-06
0.00153571
-6.10944e-06
-6.43295e-06
0.00238964
-5.45307e-05
-0.00016279
0.00679838
-0.000242734
0.00229852
-6.68849e-05
0.00148839
-6.52412e-06
-5.78407e-06
-0.000391718
0.000384976
-2.04095e-06
-1.84479e-06
-0.000124202
0.000119662
-0.000747345
0.00950974
-0.000786053
0.0114513
-0.000770333
0.0127223
-0.000713941
0.0134757
-0.000619063
0.0138377
-0.000501271
0.0138798
-0.00037493
0.0136003
-0.000254471
0.0129559
-0.000152471
0.0118962
-7.59511e-05
0.010405
-2.80986e-05
0.00851194
-4.58462e-06
0.00629585
2.49214e-06
0.00386049
1.76146e-06
0.00130674
0.00280723
0.0101767
0.00325487
0.0104085
0.00390945
0.0107042
0.00481773
0.011064
0.00608698
0.0115026
0.00791174
0.0120686
0.0112581
0.0133733
-0.00683218
0.0159916
0.00546975
0.0065762
-0.00319772
0.00145785
-0.00296366
0.00313181
0.00179212
-0.00145785
-0.00179212
0.00182687
0.0015511
0.0010774
0.00202195
0.00011718
0.000114904
0.000380224
-1.35702e-06
0.000374927
-1.13664e-06
0.00144434
-4.63469e-06
-5.84394e-06
0.00221984
-8.41109e-05
-0.000292219
0.00662183
-0.000278578
0.0021146
-0.00013749
0.00138939
-7.25471e-06
-4.67891e-06
-0.000370391
0.000365338
-1.472e-06
-1.24738e-06
-0.00011306
0.000111019
-0.000576989
0.00930067
-0.000614263
0.0112953
-0.000643463
0.0126519
-0.000628557
0.0134852
-0.000568671
0.0139051
-0.000473532
0.0139784
-0.000359277
0.0137051
-0.000244598
0.013048
-0.000146033
0.0119663
-7.2403e-05
0.0104493
-2.73653e-05
0.00853472
-5.5982e-06
0.00630394
1.60996e-06
0.00386064
1.61762e-06
0.00130512
0.00263977
0.0101765
0.00302143
0.0104101
0.00360235
0.0107156
0.00442306
0.0110988
0.00556568
0.0115853
0.00718683
0.0122275
0.00975199
0.0135747
0.0143605
0.0150044
0.00504203
-0.00201564
-0.00136233
0.00197912
0.00182658
0.00589365
0.00572458
-0.0015511
0.00136233
0.000109662
0.000108525
0.000361762
-1.0583e-06
0.000356959
-1.04058e-06
0.00132058
-4.88957e-06
-1.04169e-05
0.00204154
-0.000219161
-0.000212444
0.00637561
-0.000118323
0.00198505
-0.000222089
0.00121983
-2.64749e-05
-1.02653e-05
-0.000353264
0.000347381
-1.37159e-06
-9.84156e-07
-0.000107278
0.000105806
-0.000380063
0.00906647
-0.000478705
0.0111305
-0.000547635
0.0125709
-0.000567475
0.013484
-0.000535013
0.0139666
-0.000456288
0.0140754
-0.000349673
0.0138102
-0.00023743
0.0131394
-0.000141091
0.012035
-7.09335e-05
0.0104929
-2.75969e-05
0.00855672
-5.74367e-06
0.0063113
1.05512e-06
0.0038612
1.13073e-06
0.00130399
0.00247184
0.0101769
0.00278717
0.0104107
0.00329347
0.010719
0.00402495
0.0111137
0.00504098
0.0116235
0.00646522
0.0123069
0.00848082
0.0134987
0.0121459
0.0157893
-0.00413242
0.0118522
0.0131783
-0.00108038
0.00147683
0.00158268
0.000746191
-0.000983598
0.00405259
0.000104747
0.000103707
0.000343647
-1.1556e-06
0.000334836
-1.60542e-06
0.00112402
-4.07478e-05
-8.2596e-05
0.00189653
-0.000123921
-8.23522e-05
0.00612256
-4.46646e-05
0.00183322
-5.50156e-05
0.00104719
-6.53963e-05
-7.98645e-05
-0.00032687
0.000305605
-5.20955e-06
-2.29952e-06
-0.000102723
0.000101351
-0.000264137
0.00885191
-0.000389202
0.0109721
-0.000485728
0.0124892
-0.000532308
0.0134813
-0.000517681
0.014028
-0.000444532
0.0141703
-0.000337762
0.0139105
-0.000228068
0.0132264
-0.000134997
0.0120991
-6.83669e-05
0.0105337
-2.67601e-05
0.00857774
-6.87369e-06
0.00631923
2.14558e-07
0.00386212
8.58613e-07
0.00130313
0.00230568
0.0101772
0.00255519
0.0104089
0.00298654
0.0107177
0.00362798
0.011116
0.00452269
0.011632
0.00576259
0.0123262
0.00741278
0.013375
0.0101229
0.0155217
0.0114012
0.0162403
-0.00200585
0.00704055
0.00954812
-0.00140457
-0.000428063
0.00102714
0.000318127
0.00273829
-0.000390418
-0.000301132
0.000100195
9.85901e-05
0.000277261
-1.24042e-05
0.000222238
-2.75723e-05
0.000954488
-2.44956e-05
-6.72498e-06
0.00177885
-2.79743e-05
-4.33966e-05
0.00593107
-2.92506e-05
0.00175055
-1.63689e-05
0.000902877
-6.35651e-07
-2.76916e-06
-0.000193478
0.000128081
-5.11045e-05
-9.62905e-05
9.1081e-05
-0.000204961
0.00866767
-0.000337488
0.0108238
-0.00045545
0.0124123
-0.000521766
0.0134854
-0.000511043
0.0140945
-0.000433149
0.0142656
-0.00032366
0.0140061
-0.000216932
0.0133083
-0.000127705
0.0121584
-6.49272e-05
0.0105718
-2.73717e-05
0.00859824
-7.76273e-06
0.0063272
-8.87413e-07
0.00386387
7.8978e-07
0.00130234
0.00213948
0.0101772
0.00232426
0.0104081
0.00268023
0.0107152
0.00323336
0.0111123
0.00401464
0.011624
0.00508949
0.0123051
0.00647778
0.0132612
0.00848633
0.0150116
0.0100368
0.0168861
0.00847366
0.0148072
0.00349323
0.00675416
-0.000266485
-0.000432789
0.00167202
-0.000160787
-0.000177513
-0.00012288
0.000759604
0.000195247
0.00053466
-7.61886e-05
7.86768e-05
5.11045e-05
0.000103586
9.68607e-05
0.000876361
-1.03274e-06
-4.25224e-07
0.0017203
-1.31417e-05
-3.18872e-05
0.00578538
-2.73821e-05
0.0017016
-1.05565e-05
0.000861047
-3.50893e-07
-7.03186e-07
-9.40915e-05
9.34559e-05
-0.000172011
0.00850219
-0.000316834
0.0106852
-0.000454786
0.0123454
-0.000526697
0.0135011
-0.000502355
0.0141637
-0.000414746
0.0143567
-0.00030579
0.014095
-0.000203897
0.0133845
-0.000121675
0.0122152
-6.30807e-05
0.0106075
-2.759e-05
0.00861807
-8.70511e-06
0.00633502
-1.29925e-06
0.00386596
1.7145e-07
0.00130217
0.00197543
0.010177
0.00209599
0.0104055
0.00237969
0.0107086
0.00284593
0.0111026
0.00352152
0.0116054
0.00444926
0.0122643
0.00563113
0.0131518
0.00718483
0.0145627
0.00856502
0.0164834
0.00835027
0.0170095
0.00558048
0.01272
0.00148611
0.00515811
4.801e-05
6.19279e-05
-0.0012995
0.00106911
-9.41917e-06
-2.66734e-05
-2.47902e-05
-3.54844e-05
-0.000396351
0.000274523
-3.89584e-05
-3.92035e-05
0.000119059
9.24231e-05
9.19979e-05
0.000848851
-5.64805e-07
-3.81439e-07
0.00168046
-1.07492e-05
-2.49033e-05
0.00565891
-2.06393e-05
0.00166477
-1.16879e-05
0.000839129
-3.45086e-07
-4.89476e-07
-9.12947e-05
9.09438e-05
-0.000160555
0.00834591
-0.000330235
0.0105607
-0.000481889
0.0123006
-0.000533017
0.0135317
-0.00048272
0.0142317
-0.000388601
0.0144395
-0.000286438
0.0141775
-0.000190747
0.0134536
-0.000115444
0.0122675
-6.24345e-05
0.0106424
-2.79755e-05
0.00863734
-1.05469e-05
0.00634427
-2.6613e-06
0.00386879
1.61563e-07
0.00130201
0.00181176
0.0101767
0.00187094
0.0104021
0.00208155
0.0107036
0.00246431
0.0110903
0.00304222
0.0115819
0.00384037
0.0122143
0.00485451
0.0130409
0.00611037
0.0142262
0.00726979
0.0158579
0.0075452
0.0172884
0.00635018
0.0162398
0.0034368
0.0107693
0.000710505
0.0044852
-3.93319e-05
1.7433e-06
-0.00101996
0.000998544
2.18848e-05
4.75424e-05
6.13259e-05
4.975e-05
-0.000194846
0.00018678
-1.35282e-06
-0.000215004
-6.51538e-06
-0.000235747
-4.04775e-06
3.29178e-06
-7.98551e-05
4.08967e-05
9.0379e-05
8.99976e-05
0.000829306
-4.72399e-07
-4.53899e-07
0.00164957
-9.69888e-06
-1.77471e-05
0.00553642
-2.03173e-05
0.00163406
1.71435e-06
-6.84502e-06
0.000818601
-4.83205e-07
-4.99222e-07
-8.95081e-05
8.91631e-05
-0.000177073
0.00819275
-0.000379165
0.0104579
-0.000517702
0.0122852
-0.000514917
0.0135639
-0.000448571
0.0142917
-0.00035724
0.0145103
-0.000262442
0.0142492
-0.000178176
0.0135163
-0.000110968
0.0123161
-6.16227e-05
0.010676
-3.0549e-05
0.00865734
-1.25527e-05
0.00635416
-3.29013e-06
0.00387224
-4.10472e-07
0.00130242
0.00165077
0.010175
0.00164976
0.0103979
0.00178948
0.0106942
0.00209063
0.0110773
0.00257434
0.0115581
0.00325946
0.0121629
0.00413468
0.0129341
0.00518391
0.0139674
0.00617593
0.0153201
0.00659699
0.0168061
0.00619065
0.017448
0.00461306
0.0150636
0.00208148
0.00939831
0.000314484
0.00414584
3.44897e-05
-9.61582e-06
-0.000985707
0.000977199
-3.08247e-05
-1.93818e-06
1.65179e-05
-0.000242937
0.000251277
1.35447e-05
-0.000224115
2.87205e-05
-0.000203195
4.04061e-05
3.33345e-05
-3.36253e-05
3.22725e-05
-4.01407e-05
-4.41885e-05
8.86907e-05
8.82368e-05
0.000474327
-2.71434e-07
-2.46733e-07
0.000335093
0.00162304
-4.21155e-06
-2.51638e-06
-1.55801e-05
0.00540207
-2.71436e-05
0.00160735
-2.01678e-06
-2.61653e-06
0.000504862
-2.88203e-05
0.000506438
-8.42141e-06
-8.77376e-05
8.72544e-05
-0.000236574
0.00805016
-0.000462374
0.0104026
-0.000509781
0.0122801
-0.000471315
0.0135867
-0.000403238
0.0143377
-0.000322456
0.0145704
-0.000242369
0.0143134
-0.000168704
0.0135741
-0.000109178
0.0123636
-6.36501e-05
0.0107091
-3.27608e-05
0.00867755
-1.41483e-05
0.00636502
-4.22152e-06
0.00387605
-4.80132e-07
0.0013029
0.00149084
0.0101749
0.00143225
0.0103925
0.00150214
0.0106852
0.00172169
0.0110631
0.00211718
0.0115345
0.00270123
0.0121164
0.00346059
0.0128369
0.00435986
0.0137582
0.00522961
0.0149137
0.00570256
0.0162145
0.00562564
0.0173711
0.00490877
0.0171523
0.00325104
0.013894
0.0012359
0.00847689
0.000103512
0.0039385
4.158e-05
6.2249e-05
-0.000958429
0.000947157
4.57611e-05
9.15421e-06
-0.000234094
0.000355098
-1.48961e-06
-0.000149369
-9.7123e-07
-0.000254676
1.8644e-05
1.31189e-05
-0.00011006
0.000120767
2.83691e-06
-8.9002e-05
7.66278e-06
-6.5607e-05
1.70111e-05
8.69829e-05
8.67362e-05
0.000304484
1.78922e-06
0.000505013
-2.78653e-06
0.000503882
-1.38563e-06
0.00159664
-1.83463e-06
-3.03617e-06
-2.26202e-05
0.00523929
-5.11732e-05
0.00157597
-2.33876e-06
-4.13459e-06
0.000502827
-9.61094e-07
0.000500805
-5.94782e-07
0.000298123
-2.06076e-06
-0.000360892
0.00794868
-0.000481608
0.0103744
-0.000456636
0.0122654
-0.00040959
0.013593
-0.000354644
0.0143698
-0.000292265
0.0146203
-0.000225548
0.0143702
-0.00016424
0.0136291
-0.000109139
0.0124091
-6.63968e-05
0.0107428
-3.55702e-05
0.00869897
-1.58952e-05
0.00637669
-5.32132e-06
0.00388089
-9.3006e-07
0.00130383
0.00133247
0.0101734
0.00122154
0.0103856
0.00122158
0.0106731
0.00136063
0.0110463
0.00166878
0.0115115
0.00216011
0.0120756
0.00282139
0.0127556
0.00360708
0.0135897
0.00438771
0.0146
0.00489294
0.0157233
0.0049722
0.016868
0.00467202
0.0176079
0.00379229
0.016611
0.00224048
0.0128894
0.00072756
0.00785284
3.02555e-05
0.00385774
2.37016e-05
2.67999e-05
-0.000938196
0.000944991
3.47853e-05
7.12098e-05
-0.00036251
0.000384708
1.78495e-05
5.71352e-06
-7.59251e-08
1.81801e-06
-2.97005e-05
2.82109e-05
-0.000130141
-5.8465e-07
-3.06718e-05
3.74569e-06
-2.46738e-05
2.75107e-05
-1.70111e-05
8.85254e-05
0.000296295
-9.5826e-07
0.000295195
-2.85629e-07
0.000499676
-7.05418e-07
0.000497875
-1.23571e-06
0.00156006
-2.0187e-06
-4.68271e-06
-6.48512e-05
0.00508272
-0.000139471
0.00152108
-3.66096e-06
-8.53514e-06
0.000496792
-1.2558e-06
0.000493708
-1.05023e-06
0.000294421
-1.86951e-07
0.000293893
-6.74492e-08
8.64646e-05
-0.000447061
0.00791413
-0.000406271
0.0103241
-0.000371987
0.0122278
-0.000345892
0.0135843
-0.000311312
0.0143889
-0.000267272
0.014662
-0.000216152
0.0144221
-0.00016253
0.0136825
-0.00011302
0.0124557
-7.0615e-05
0.0107778
-3.87022e-05
0.00872178
-1.75756e-05
0.00638895
-6.22196e-06
0.00388619
-9.00885e-07
0.00130473
0.00117883
0.0101691
0.00101712
0.0103778
0.000948298
0.0106589
0.00100688
0.0110268
0.00122738
0.0114876
0.00162957
0.012042
0.00220682
0.0126902
0.00290577
0.0134569
0.0036211
0.0143563
0.00414834
0.0153447
0.00433526
0.0163602
0.00422549
0.0173145
0.00380081
0.0175993
0.00286898
0.0159825
0.00153843
0.0120785
0.000432871
0.00745023
-5.24864e-05
0.00378995
6.99428e-05
5.03302e-05
-0.00095429
0.000965327
1.26643e-05
1.75005e-05
-0.000409
0.000433388
1.01423e-06
9.38336e-06
2.58057e-05
2.11118e-05
-3.56664e-05
5.35159e-05
-2.99529e-05
2.81349e-05
-3.12564e-05
8.55064e-05
8.52208e-05
0.000293353
-1.64913e-07
0.000292313
-1.95991e-07
0.00049273
-1.04086e-06
0.000489726
-1.67885e-06
0.00148007
-6.80981e-06
-1.70309e-05
-0.000202217
0.00504018
-0.000202298
0.00140409
-2.0383e-05
-4.31134e-05
0.000487926
-1.86061e-06
0.000481875
-2.48419e-06
0.000291294
-2.36499e-07
0.000290491
-2.47174e-07
8.50338e-05
8.49664e-05
-0.000324288
0.00783215
-0.000292437
0.0102445
-0.000293719
0.0121756
-0.000291825
0.0135648
-0.000279496
0.0144011
-0.000252471
0.0146983
-0.000213583
0.0144732
-0.000166965
0.0137365
-0.000117336
0.0125024
-7.39417e-05
0.010813
-3.98965e-05
0.0087441
-1.83091e-05
0.00640104
-6.41699e-06
0.0038917
-1.27172e-06
0.00130601
0.00102801
0.0101653
0.000820982
0.0103653
0.000686605
0.0106395
0.000660596
0.0110052
0.000790616
0.0114636
0.00110671
0.0120105
0.00160727
0.0126416
0.00224016
0.0133558
0.00291079
0.0141672
0.00345223
0.0150524
0.00372744
0.0159525
0.003736
0.0168497
0.00353408
0.0175812
0.00304411
0.0174242
0.00215343
0.0153675
0.00105757
0.0114538
0.000238607
0.00715914
-8.1899e-05
0.00375349
4.6585e-05
7.17717e-05
-0.000973207
0.00097902
6.4129e-05
4.24503e-05
-0.000449156
0.000462051
7.38891e-07
-9.69717e-07
1.85579e-06
-1.23533e-07
-8.84725e-05
8.96645e-05
-1.77917e-07
-8.09094e-05
1.82022e-06
6.61583e-05
1.31633e-05
6.36068e-06
8.48015e-05
8.46055e-05
0.000289633
-1.82649e-07
0.000288268
-3.14257e-07
0.000478479
-3.41409e-06
0.000467969
-6.52092e-06
0.00135729
-5.79698e-05
-9.74416e-05
-0.000134012
0.00490432
-5.44176e-05
0.00131588
-8.73859e-05
-7.35016e-05
0.000457886
-1.02993e-05
0.000434469
-1.96963e-05
0.000286734
-3.26335e-07
0.000284654
-4.03804e-07
8.4369e-05
8.41218e-05
-0.000175078
0.00771479
-0.000205016
0.0101558
-0.000234603
0.0121184
-0.000255432
0.0135407
-0.000260905
0.0144096
-0.000249438
0.0147342
-0.000217832
0.0145241
-0.0001723
0.0137914
-0.000121598
0.0125501
-7.65741e-05
0.0108497
-4.2464e-05
0.00876825
-1.97612e-05
0.00641438
-7.02686e-06
0.00389746
-1.05717e-06
0.00130706
0.000882237
0.0101581
0.000637012
0.0103493
0.000436667
0.0106152
0.000325143
0.0109749
0.000359162
0.0114367
0.000584694
0.0119856
0.00101257
0.0126052
0.00159426
0.0132875
0.00223497
0.0140316
0.00279246
0.014827
0.00314196
0.0156379
0.00325167
0.0164368
0.00317118
0.0172126
0.00291785
0.0177075
0.00241594
0.0171617
0.00161217
0.0148129
0.000725468
0.010967
0.000126503
0.00695073
-7.42755e-05
0.00377864
1.50009e-05
3.41264e-05
-0.000987023
0.000999117
3.44905e-05
6.37689e-05
-0.000484439
0.000499499
2.64753e-05
2.2594e-05
5.9678e-06
1.40938e-05
-9.03774e-05
9.13847e-05
-2.68461e-07
-9.10313e-05
-3.15885e-07
9.09163e-05
6.03965e-07
-2.38609e-07
-2.13442e-05
2.11663e-05
-1.9524e-05
1.31633e-05
8.39392e-05
8.36249e-05
0.000281785
-5.45653e-07
0.00027629
-1.02554e-06
0.000413009
-3.65098e-05
0.000378721
-6.31536e-05
0.00124678
-4.51976e-05
-1.97188e-05
-3.22761e-05
0.00476997
-8.4478e-06
0.00120659
-1.1014e-05
-3.21511e-06
0.000356544
-6.52097e-05
0.000333561
-5.05179e-05
0.000267832
-1.84123e-06
0.000252126
-3.9904e-06
8.32986e-05
8.28948e-05
-0.000101206
0.00761098
-0.000152483
0.0100737
-0.0001974
0.0120604
-0.000235223
0.013515
-0.000255631
0.0144157
-0.000253091
0.0147694
-0.000225778
0.0145775
-0.000178562
0.0138484
-0.00012657
0.0126001
-7.82975e-05
0.0108856
-4.31435e-05
0.00879163
-1.95728e-05
0.00642693
-6.70082e-06
0.0039031
-1.15224e-06
0.00130822
0.000742467
0.0101484
0.000467267
0.0103278
0.000204866
0.0105811
3.09769e-06
0.0109373
-6.73415e-05
0.0114014
6.15412e-05
0.0119598
0.000415932
0.0125822
0.000954787
0.0132447
0.00158235
0.0139401
0.00216225
0.0146618
0.00257264
0.0153963
0.00277316
0.0161164
0.00278607
0.0168219
0.00266084
0.0174696
0.00239215
0.0177313
0.0019106
0.0168633
0.00120894
0.0143294
0.000502816
0.0105907
6.08303e-05
0.00681563
-9.91231e-05
8.58087e-05
0.00379195
-0.0010046
0.000954525
6.50759e-05
2.86428e-05
-0.000518655
0.000539535
3.82525e-06
9.7849e-06
2.85725e-05
1.60405e-05
-0.000111919
0.000120071
1.83227e-05
-0.000103789
1.44644e-05
9.51968e-05
2.15556e-06
5.50128e-06
-2.12157e-05
2.09472e-05
-2.15316e-05
2.17702e-05
8.23491e-05
8.13236e-05
0.000225924
-1.03077e-05
0.000185334
-2.2564e-05
0.000309071
-2.07084e-05
0.000296316
-6.9631e-06
0.00117835
-3.35814e-06
-6.70187e-07
-1.22949e-05
0.00468494
-3.88772e-06
0.00117068
-9.66287e-07
1.88162e-07
0.00028771
-2.40815e-06
0.000285192
-6.96693e-07
0.000162745
-4.26203e-05
0.000112227
7.94824e-05
7.5492e-05
-6.86073e-05
0.0075271
-0.000122506
0.00999881
-0.00017882
0.012004
-0.000229521
0.0134889
-0.000264249
0.0144269
-0.000267648
0.0148113
-0.000237494
0.0146365
-0.000185186
0.013907
-0.000128249
0.01265
-7.86523e-05
0.0109211
-4.1913e-05
0.00881398
-1.93337e-05
0.00643956
-6.36592e-06
0.00390832
-1.04022e-06
0.00130926
0.000609972
0.0101357
0.00031584
0.0102998
-4.04286e-06
0.0105367
-0.000300091
0.0108843
-0.000484778
0.0113547
-0.000468578
0.0119315
-0.000193733
0.0125695
0.000308319
0.0132287
0.00093768
0.0138894
0.00154845
0.0145539
0.00201802
0.0152164
0.00229961
0.0158698
0.0023996
0.0165029
0.00236061
0.0171221
0.00221595
0.0176458
0.00195536
0.0176865
0.00151139
0.0165608
0.000911543
0.0139207
0.000350492
0.010301
5.02596e-06
0.00671148
-0.000635275
0.00160877
4.7865e-05
1.89729e-05
-0.000121476
0.000124987
0.00378844
-0.000560675
-9.52456e-06
6.23467e-06
1.26843e-06
-0.000143889
0.00014602
1.69368e-06
-0.000138204
4.09951e-06
0.000131142
1.75023e-05
8.97842e-06
-4.30684e-05
5.11145e-05
1.02766e-05
-2.86041e-05
2.31028e-05
6.51843e-05
4.26203e-05
9.15186e-05
8.45555e-05
0.000282232
-3.98496e-07
0.000281797
-2.35504e-07
0.00115986
-1.10055e-06
-3.79275e-07
-8.14151e-06
0.00462825
-3.77318e-06
0.00115674
-6.35755e-07
-1.31171e-07
0.000280977
-1.46024e-07
0.000281037
1.2809e-07
8.21474e-05
8.14507e-05
-5.3386e-05
0.00745798
-0.000108007
0.009928
-0.000174579
0.011949
-0.0002407
0.0134654
-0.000282544
0.0144418
-0.000283562
0.0148574
-0.000245927
0.0146972
-0.000186862
0.0139656
-0.000126284
0.0126977
-7.66166e-05
0.0109558
-4.14009e-05
0.00883604
-1.87056e-05
0.0064519
-6.20562e-06
0.00391348
-9.03686e-07
0.00131016
0.000486115
0.0101201
0.000186988
0.0102645
-0.0001826
0.0104784
-0.000574824
0.0108115
-0.000889469
0.011289
-0.00100599
0.0118921
-0.000822964
0.0125608
-0.000358082
0.0132359
0.000289633
0.0138767
0.000944256
0.0144935
0.00147349
0.0150984
0.00182923
0.0156868
0.00200985
0.0162596
0.00204971
0.0168138
0.00198351
0.0173546
0.00184216
0.017759
0.0015978
0.0176001
0.00119917
0.0162732
0.000693526
0.0135777
0.000237221
0.0100688
-3.47821e-05
0.00662478
0.00164213
3.35001e-05
5.81259e-05
-0.000236101
0.00026544
1.35497e-05
4.97642e-06
-0.000219173
1.69664e-06
3.47681e-07
-0.000108953
8.05499e-05
0.00381684
-0.000138001
-2.57549e-07
-3.01118e-07
-9.01376e-05
0.000147696
4.55884e-06
1.09632e-05
-7.37418e-05
7.53233e-05
1.12054e-07
-7.03025e-05
6.60189e-07
6.329e-05
5.32675e-06
1.96585e-06
1.02766e-05
8.10522e-05
8.08167e-05
0.000279986
-4.92553e-08
0.000279788
-1.81624e-07
0.00114987
-8.22187e-07
-4.53269e-07
-5.93968e-06
0.00458463
-3.82313e-06