/*--------------------------------*- C++ -*----------------------------------*\
| =========                 |                                                 |
| \\      /  F ield         | OpenFOAM: The Open Source CFD Toolbox           |
|  \\    /   O peration     | Version:  v1912                                 |
|   \\  /    A nd           | Website:  www.openfoam.com                      |
|    \\/     M anipulation  |                                                 |
\*---------------------------------------------------------------------------*/
FoamFile
{
    version     2.0;
    format      ascii;
    class       surfaceScalarField;
    location    "80";
    object      phi;
}
// * * * * * * * * * * * * * * * * * * * * * * * * * * * * * * * * * * * * * //

dimensions      [0 3 -1 0 0 0 0];
oriented        oriented;


internalField   nonuniform List<scalar> 
7352
(
0.00713834
0.00287374
0.0107938
0.00635696
0.00178419
0.00108986
0.0124317
0.00837408
0.00430636
0.00383539
0.000175531
0.000914514
0.0130154
0.00942968
0.00635707
0.0063235
0.00102155
0.00298981
-0.000112716
0.00102713
0.0131079
0.00992139
0.00765681
0.00813052
0.00215311
0.00519203
-0.000124385
0.00300149
-5.83225e-05
0.00108562
0.0130021
0.0101222
0.00833599
0.00924227
0.00313484
0.0071491
8.86596e-05
0.00497872
-0.000184268
0.00312786
-1.63676e-05
0.00110232
0.0128295
0.0101905
0.00862293
0.00983589
0.0037682
0.0086088
0.000380027
0.00685777
-0.000278578
0.00507314
-9.33966e-05
0.00320526
-2.43265e-05
0.00112697
0.0126453
0.0102027
0.00870646
0.0101069
0.004066
0.0095383
0.000558133
0.00843039
-0.00031781
0.00689741
-0.000209527
0.00518963
-9.57658e-05
0.00327699
-1.99052e-05
0.00114719
0.0124698
0.0101932
0.00870934
0.0102004
0.00412266
0.0100499
0.000517315
0.00957922
-0.000379894
0.00849255
-0.000332259
0.00702043
-0.000211313
0.00530555
-8.31446e-05
0.00334052
-9.50566e-06
0.00115698
0.0123129
0.0101755
0.00870227
0.0102001
0.00404014
0.0102831
0.000245924
0.010321
-0.000544628
0.00974439
-0.000471391
0.00863209
-0.000360081
0.00716942
-0.000191282
0.00541402
-5.53668e-05
0.00338666
-5.79966e-06
0.00116304
0.0121763
0.0101523
0.00873052
0.0101479
0.00389217
0.0103475
-0.00023225
0.0107615
-0.000851701
0.0106282
-0.000670643
0.00994385
-0.000540564
0.00881296
-0.000342148
0.00732053
-0.000145881
0.00550482
-4.03651e-05
0.00342149
-4.78375e-06
0.00116805
0.0120678
0.010122
0.00882083
0.0100617
0.00373231
0.010308
-0.000890464
0.0110055
-0.00129231
0.0112025
-0.000960964
0.010919
-0.000768842
0.0101723
-0.000531132
0.00900225
-0.000282522
0.0074574
-0.000115487
0.00558021
-3.37589e-05
0.0034507
-3.68563e-06
0.00117197
0.0119852
0.0100903
0.00900356
0.00993993
0.00360112
0.0101922
-0.00171533
0.0111333
-0.00184886
0.0115623
-0.00134893
0.0115906
-0.00106335
0.0112139
-0.000764591
0.010406
-0.000463836
0.00918383
-0.00023677
0.00757889
-9.80851e-05
0.00564476
-2.84436e-05
0.0034757
-3.67545e-06
0.00117584
0.0119316
0.010055
0.00930586
0.00978758
0.00353654
0.010005
-0.00271148
0.0111883
-0.00249752
0.0117823
-0.00181433
0.0120281
-0.00142588
0.0119533
-0.00104805
0.0114977
-0.000690649
0.010633
-0.000406097
0.00935339
-0.000206808
0.00768781
-8.56805e-05
0.00570222
-2.64984e-05
0.00349872
-3.61991e-06
0.00117964
0.0118992
0.010024
0.00975914
0.00960244
0.00358861
0.00973479
-0.00387921
0.0111734
-0.00320432
0.0118954
-0.002328
0.0122962
-0.00183592
0.0124385
-0.00137601
0.0122815
-0.000960939
0.0117682
-0.000619993
0.0108471
-0.000361797
0.00950858
-0.00018299
0.0077853
-7.91456e-05
0.00575504
-2.51436e-05
0.00352043
-3.16266e-06
0.00118296
0.0118736
0.010004
0.0103848
0.00939781
0.00385307
0.00933856
-0.00518102
0.0110367
-0.00390149
0.0118709
-0.0028338
0.0124015
-0.00224447
0.0127049
-0.00172
0.0127827
-0.00126139
0.0125821
-0.000873277
0.0120217
-0.000561059
0.0110465
-0.000324333
0.0096501
-0.000169459
0.00787576
-7.37396e-05
0.0058038
-2.26299e-05
0.00354008
-3.36195e-06
0.0011865
0.0118226
0.0099925
0.0111898
0.00919985
0.00454512
0.00870553
-0.00646094
0.0106192
-0.00443639
0.0115721
-0.00321654
0.0122539
-0.002569
0.0127263
-0.00202536
0.0130105
-0.00155977
0.0130814
-0.00114772
0.0128567
-0.00079223
0.0122531
-0.000505798
0.0112281
-0.000300854
0.00978164
-0.00015806
0.00796023
-6.8328e-05
0.00584966
-2.2349e-05
0.00355925
-3.99148e-06
0.00119065
0.0117956
0.00989129
0.0120796
0.009102
0.00610673
0.00763851
-0.00727764
0.00952232
-0.00449059
0.0106739
-0.00327394
0.0116298
-0.00267369
0.0123588
-0.00220074
0.0129019
-0.00179699
0.0132479
-0.00140648
0.0133403
-0.00103642
0.013101
-0.000716407
0.0124638
-0.000469468
0.0113968
-0.000280996
0.00990472
-0.000145613
0.00803767
-6.45253e-05
0.00589201
-2.32223e-05
0.00357864
-4.63008e-06
0.00119546
0.0117465
0.00986353
0.0129618
0.00456069
0.00444889
0.00539565
0.00326262
0.00297437
0.00357612
-0.00338727
0.00381605
-0.00316379
0.00309637
-0.00210707
0.00864847
-0.00150921
-0.00274713
0.0101474
-0.00238597
0.0113424
-0.0021369
0.0122952
-0.00189038
0.0129955
-0.00159049
0.013432
-0.00125531
0.0135594
-0.000929232
0.013314
-0.000662099
0.0126566
-0.000437224
0.0115532
-0.000257437
0.0100167
-0.000136674
0.00810998
-6.44318e-05
0.00593337
-2.4542e-05
0.00359871
-4.94955e-06
0.00120057
0.0115725
0.0100341
0.0138078
0.00446214
0.00455478
0.00611555
0.00384103
0.00677106
0.00379295
-0.0026066
0.00248174
-4.44869e-05
-0.00115581
0.000717764
0.000850637
0.00471567
0.00143076
0.00127061
-0.00176855
0.00347768
-0.00218846
0.000877515
0.000628969
-0.000513744
0.00222237
-0.000380713
-0.00091074
0.00741138
-0.00059891
-0.000981328
0.00295004
-0.00160922
0.00937094
-0.00176332
0.0109691
-0.00176109
0.0121661
-0.00162896
0.0130342
-0.00139408
0.0135709
-0.00110785
0.0137381
-0.000853634
0.0135056
-0.000612925
0.0128324
-0.000399757
0.0116956
-0.000240111
0.0101203
-0.000132622
0.0081783
-6.529e-05
0.00597428
-2.52584e-05
0.00361916
-5.00922e-06
0.00120577
0.0112546
0.0102744
0.0141927
0.00468597
0.0049635
0.00744243
0.00379104
0.00800461
0.00399224
0.00617929
0.00116494
0.00116484
0.000901053
0.000485225
-0.000874669
0.00061997
0.00133783
-0.00061997
0.00104536
0.000710341
-0.000371635
0.000735449
0.000257335
-0.000176804
0.001654
-0.00023598
-0.000134549
0.000489314
0.00249263
-0.000453141
-0.000297659
0.00633757
-0.000237502
0.00213862
-0.000244724
-0.00115793
0.00876589
-0.00139508
0.0106033
-0.00147349
0.0120108
-0.00140337
0.0130436
-0.00120638
0.0136696
-0.00100787
0.0138925
-0.000784747
0.0136775
-0.000558381
0.0129912
-0.000370409
0.0118261
-0.00022929
0.0102171
-0.000130976
0.00824412
-6.51374e-05
0.00601432
-2.51217e-05
0.00363941
-5.24196e-06
0.00121116
0.0108297
0.0104669
0.0141439
0.00508024
0.00524225
0.00853129
0.00415959
0.00873933
0.00475529
0.00748809
0.00122603
0.00125596
0.00885711
0.00132912
0.00129433
-0.00166614
0.00226284
0.000568085
0.000544062
-0.000164432
0.000122788
-0.00037618
0.000199388
0.0012713
-5.36481e-05
-1.66778e-05
-0.000122788
0.0019315
-9.04043e-05
-0.000276875
0.00576124
-0.000304458
0.00177258
-3.06417e-05
-4.78561e-05
0.00104746
-8.88086e-06
-1.18971e-05
-0.00089446
0.00826551
-0.00112268
0.0102527
-0.00125524
0.0118629
-0.00118372
0.0130211
-0.00108206
0.0137438
-0.000918564
0.0140264
-0.000709782
0.0138291
-0.000513299
0.0131342
-0.000349272
0.0119462
-0.000222771
0.010309
-0.000128755
0.00830785
-6.4002e-05
0.00605336
-2.52414e-05
0.00365953
-5.40578e-06
0.00121674
0.0103758
0.0105213
0.0137423
0.0108684
0.00900316
0.00481644
0.00927358
0.00497155
0.00995992
0.00140974
0.00164676
0.0102942
0.00237795
0.00204287
0.00288079
0.00060802
0.00349648
0.000640272
-0.00411579
0.00474117
0.000703692
0.000675016
-0.00037963
0.000947535
0.000145742
0.000129067
0.000555667
-3.89773e-06
-1.20169e-06
0.000406558
0.00163748
-5.67397e-05
-8.49731e-05
-0.000278446
0.00529443
-0.000148993
0.00155249
-0.000112263
-0.00010712
0.000585907
-6.08465e-05
0.000559905
-2.18184e-05
-0.00011717
0.000108293
-0.000645291
0.00778833
-0.000980025
0.00997767
-0.00103739
0.0117166
-0.00104719
0.0129863
-0.000977529
0.0138029
-0.00082147
0.0141383
-0.000647605
0.0139635
-0.000479573
0.0132647
-0.000334942
0.0120585
-0.000215723
0.0103961
-0.000125421
0.00836938
-6.33655e-05
0.00609164
-2.51271e-05
0.00367938
-5.82949e-06
0.00122272
0.00991384
0.0105219
0.0132308
0.0110322
-0.0111609
0.0200853
0.00544061
0.00577656
0.0105309
0.00238673
0.00219284
0.00434153
0.00538531
0.00076556
0.0059864
0.00104568
-0.00628928
0.00635276
0.00231446
0.00173998
0.00155544
0.00219572
-0.00287073
0.00357428
0.000104397
0.000103196
0.000347745
-2.00688e-06
0.000529025
-2.58347e-05
0.000487822
-4.3744e-05
0.00144378
-0.00011321
-5.6446e-05
-8.83114e-05
0.00481093
-7.33265e-05
0.00134006
-3.08131e-05
-1.44115e-05
0.000453268
-7.76775e-05
0.000424595
-7.84167e-05
0.000330033
-4.079e-06
-0.00063352
0.00744202
-0.000809832
0.00975026
-0.000896292
0.0115659
-0.000934948
0.0129439
-0.000865767
0.0138474
-0.000745018
0.0142358
-0.000598706
0.0140828
-0.000455703
0.0133856
-0.000321962
0.0121648
-0.000207831
0.0104787
-0.000121342
0.00842745
-6.23505e-05
0.00612902
-2.6129e-05
0.00369979
-5.83086e-06
0.00122871
0.00943904
0.0105173
0.0126191
0.0111334
0.0190537
0.0120634
0.0166254
-0.0165521
0.00283159
0.00253537
0.0161803
0.00622169
0.00662159
0.00211784
0.00698793
0.00182642
-0.00808184
0.00177158
0.0010876
0.00433979
0.00538539
-0.00712537
0.00675777
0.00268199
0.000101191
0.000308881
-4.66307e-06
0.000275883
-1.07252e-05
0.000382817
-7.14018e-05
0.000353118
-2.67209e-05
0.00126766
-1.02025e-05
-5.65181e-06
-8.8613e-05
0.00443629
-0.000170133
0.00120529
-4.75396e-06
-6.16864e-06
0.000331191
-8.8681e-06
0.000319807
-3.00984e-06
0.000226109
-2.78808e-05
0.000201559
-5.38467e-05
9.71129e-05
-0.000582924
0.00721527
-0.000656485
0.00951061
-0.000787275
0.0114184
-0.00082189
0.0129002
-0.000781862
0.0138844
-0.000682859
0.0143201
-0.000563688
0.0141909
-0.000432253
0.013496
-0.000306589
0.0122637
-0.0002002
0.0105576
-0.000118799
0.00848398
-6.28859e-05
0.00616592
-2.61987e-05
0.00372028
-5.68776e-06
0.00123453
0.00895436
0.0105156
0.0119539
0.0111818
0.0175109
0.0126758
-0.0148329
0.0312888
0.00536809
0.00641945
-0.00767315
0.00816241
0.00234227
-0.00816137
0.00302356
-0.0053658
0.00225416
0.00266277
0.00719672
0.00167884
0.0009413
-0.0063898
-0.00530218
0.00268203
9.24509e-05
8.17267e-05
0.000130159
0.000103439
0.000311298
-1.67708e-06
0.000306948
-1.28508e-06
0.00113385
-6.34966e-06
-1.07724e-05
-0.000207128
0.00424418
-0.000183543
0.00101735
-1.52952e-05
-3.82958e-05
0.000303347
-1.14005e-06
0.000297957
-7.65161e-07
9.45723e-05
9.15633e-05
5.38467e-05
-0.000373241
0.0069322
-0.000553724
0.00927726
-0.000691467
0.0112881
-0.000749151
0.0128676
-0.000710435
0.0139121
-0.000635526
0.0143921
-0.000531253
0.01429
-0.000411284
0.0136008
-0.000292979
0.0123565
-0.000193405
0.0106324
-0.000117725
0.0085389
-6.27609e-05
0.00620263
-2.62883e-05
0.00374099
-5.79138e-06
0.00124047
0.00846461
0.0105132
0.0112527
0.0112165
0.015783
0.0129093
0.0293568
0.0146079
0.00723369
-0.00310912
-0.0014531
0.00155913
0.00113747
0.00878202
0.00487083
-0.00302356
-0.00266277
0.00180778
0.00436088
8.98871e-05
8.86027e-05
0.000292765
-1.14299e-06
0.000284009
-2.00089e-06
0.000946921
-6.66257e-05
-7.0029e-05
-7.2851e-05
0.00396461
-2.06722e-05
0.000852211
-6.61297e-05
-2.26593e-05
0.00027226
-3.53295e-06
0.000243124
-9.14643e-06
8.74633e-05
8.66989e-05
-0.000252797
0.0066315
-0.000491416
0.00907739
-0.000655391
0.0111945
-0.000673651
0.012831
-0.000653258
0.01393
-0.000596631
0.0144576
-0.000502171
0.014381
-0.000388847
0.0136968
-0.000279512
0.0124427
-0.000188209
0.010703
-0.000115797
0.00859203
-6.14937e-05
0.00623797
-2.50059e-05
0.00376034
-5.55377e-06
0.00124616
0.00797497
0.0105095
0.0105243
0.0112411
0.0141314
0.0128678
0.0263402
0.0159257
-0.00452805
0.0175785
0.0103395
0.000354686
-0.000807012
0.00128333
0.00108281
-0.000235256
0.000565739
-0.000932093
0.00255817
8.55568e-05
8.35566e-05
0.00020051
-2.39986e-05
0.000177375
-4.68805e-05
0.000787192
-6.73846e-06
-1.0559e-06
-1.3725e-05
0.00209223
-4.21622e-06
0.00163773
0.00076696
-3.01682e-07
-9.41204e-08
0.000111247
8.85889e-05
8.00243e-05
7.08786e-05
-9.71576e-05
0.00640225
-0.000164863
-0.000531035
0.0089532
-0.00058805
0.0111091
-0.000607447
0.0127854
-0.000607668
0.0139411
-0.000561135
0.0145167
-0.000473322
0.0144655
-0.000367836
0.0137852
-0.000269271
0.0125238
-0.000183982
0.0107713
-0.000112997
0.00864362
-5.96421e-05
0.00627275
-2.43132e-05
0.00377922
-5.91674e-06
0.00125221
0.0074923
0.0105012
0.00977421
0.0112594
0.0126551
0.0127171
0.0230228
0.0161855
0.0191186
0.0143851
-0.0014862
0.00701974
0.00582275
-0.00101737
0.00011943
-0.000412291
0.000562994
-0.00011363
0.000267067
0.00151496
-0.000443224
4.68805e-05
8.18514e-05
8.07965e-05
0.000753913
-5.55553e-07
-5.67159e-08
-0.000185756
0.0021809
0.000434999
0.000314143
1.27759e-07
4.81415e-07
-3.41993e-06
0.00146618
-1.07435e-05
8.04959e-05
8.04035e-05
-0.000180366
0.00628035
-0.000228628
-0.000112676
0.00212878
-0.00047746
0.00884279
-0.000501485
0.0110033
-0.000554622
0.0127324
-0.000573256
0.0139533
-0.000529653
0.0145731
-0.000443235
0.014541
-0.000351303
0.0138673
-0.000261434
0.0126014
-0.0001767
0.0108351
-0.000108676
0.00869276
-5.76638e-05
0.00630623
-2.33259e-05
0.00379676
-5.33218e-06
0.00125767
0.00701828
0.0104909
0.00900622
0.0112687
0.0113549
0.0125592
0.0198135
0.0159263
0.0187875
0.0165167
0.0103469
0.0110574
0.00212967
0.00367767
3.40193e-05
-1.92465e-05
0.000855482
-0.000358067
5.79741e-06
0.00037588
-6.16069e-06
1.69827e-05
7.98497e-05
7.97946e-05
-3.52782e-05
0.000466879
0.000278436
4.46877e-07
7.9924e-05
8.04067e-05
-2.37069e-05
0.00139269
-1.54359e-05
-6.56809e-06
0.000462724
0.00207612
-0.000127649
-0.000205218
0.00617801
-0.000169762
0.00203563
-0.000188075
-0.00035172
0.0086932
-0.00043811
0.0108869
-0.000528191
0.0126875
-0.000547052
0.0139708
-0.000493395
0.0146233
-0.000420982
0.0146107
-0.000336564
0.0139426
-0.000251254
0.012676
-0.000171803
0.0108984
-0.000105691
0.00874088
-5.54595e-05
0.00633849
-2.30702e-05
0.00381462
-5.47284e-06
0.00126325
0.00655233
0.0104815
0.00823208
0.0112648
0.0101884
0.012435
0.0169313
0.0154418
0.0174469
0.0172665
0.0120164
0.0148472
0.00494248
0.0082439
0.000651983
8.38875e-06
0.00301624
-0.000702253
0.000620334
0.000115746
0.000133806
0.000104672
-5.85265e-05
-2.84347e-05
-3.67429e-07
1.66106e-05
0.000273188
-1.30363e-06
8.08548e-05
-0.000454398
0.000440532
-9.82039e-06
0.00132329
-1.96543e-05
-3.85485e-05
-7.09332e-06
0.00200642
-0.000175947
-0.000114231
0.00600059
-5.99174e-05
0.00196274
-0.00012602
0.00127606
-8.87246e-05
-5.20828e-05
-0.000269748
0.00852499
-0.000427469
0.0107863
-0.000523331
0.0126638
-0.000507956
0.0139854
-0.000462927
0.0146654
-0.00039758
0.0146718
-0.00032092
0.0140123
-0.000241174
0.0127455
-0.000167789
0.0109606
-0.000101425
0.00878695
-5.3682e-05
0.00636922
-2.27718e-05
0.00383203
-5.97417e-06
0.00126933
0.00609584
0.0104713
0.00746029
0.0112529
0.00910883
0.0123441
0.0144304
0.0149358
0.0156723
0.0172163
0.012331
0.0169514
0.00715179
0.0126379
0.00230494
0.00659078
-0.000264462
0.000842312
2.69266e-05
2.3529e-05
0.00035266
-5.50644e-05
0.00271768
-0.000172511
3.37477e-07
2.33602e-05
2.27553e-05
4.31122e-05
2.94848e-06
-3.85413e-05
-2.29671e-05
-8.90265e-06
0.000267682
-1.57271e-06
7.95522e-05
0.000430581
-9.68475e-06
0.000259849
-1.97226e-06
0.000408796
-1.67447e-05
0.00125494
-7.7413e-05
-7.73807e-05
0.00191049
-6.19087e-05
-4.71674e-05
0.00581617
-3.80323e-05
0.00187925
-2.86142e-05
0.00119208
-1.85312e-05
-4.4581e-05
-0.000387782
0.000357614
-5.85377e-05
-3.10546e-05
-0.000277456
0.0083751
-0.000459497
0.0107225
-0.000489424
0.0126454
-0.000471837
0.0139944
-0.000431808
0.0146997
-0.00037748
0.0147284
-0.000308259
0.0140795
-0.00023186
0.0128096
-0.000158843
0.0110181
-9.76566e-05
0.00883101
-5.24043e-05
0.00639895
-2.28077e-05
0.00384897
-5.52261e-06
0.00127495
0.00564495
0.0104645
0.00669614
0.0112352
0.00808038
0.0122812
0.012274
0.0145008
0.0138016
0.0168062
0.0117943
0.017753
0.0083178
0.0157849
0.00416586
0.0107765
0.00123355
0.00570969
0.000799623
-2.20808e-05
9.40005e-06
-4.43777e-05
6.88066e-05
2.22686e-06
1.35655e-07
-2.43741e-05
2.53104e-06
2.24038e-06
-1.34112e-06
0.000277154
-6.7729e-05
0.00250728
-2.4493e-05
4.20666e-07
-8.78715e-06
7.61336e-06
-2.6086e-05
1.02609e-05
8.20089e-06
8.90265e-06
-3.18724e-05
7.79806e-05
0.000251753
-1.5744e-06
7.60094e-05
0.000238166
-3.14229e-06
0.000340261
-6.0043e-05
0.000317103
-5.42066e-05
0.00114352
-1.03958e-05
-2.91385e-06
0.00185004
-1.79028e-05
-3.85514e-05
0.00563902
-6.16654e-05
0.00182626
-1.41993e-05
0.00111823
-5.52603e-07
-2.72852e-06
-0.000292479
0.000280332
-6.3666e-06
-1.99449e-05
-0.000215474
0.000177815
-2.08637e-05
-8.35171e-06
-0.00036321
0.00827888
-0.000450313
0.0106834
-0.00044635
0.01262
-0.000427345
0.01399
-0.000400426
0.0147228
-0.000359425
0.0147797
-0.000296695
0.0141445
-0.000223911
0.0128747
-0.000152832
0.0110734
-9.4765e-05
0.00887347
-5.2457e-05
0.0064287
-2.21368e-05
0.00386569
-4.22551e-06
0.00127927
0.00520093
0.0104568
0.00594732
0.011213
0.00708368
0.0122317
0.0103881
0.014167
0.0119958
0.0163065
0.010826
0.0177742
0.00857046
0.0175004
0.00554604
0.0144046
0.00253721
0.00947237
0.000811591
0.00517499
0.000757518
-2.65268e-05
5.50792e-07
-7.59108e-05
7.14315e-05
-1.09447e-05
-6.76038e-06
-9.22303e-07
3.14371e-06
1.87363e-06
2.26928e-06
-1.9535e-06
2.00612e-06
4.535e-06
6.77398e-06
2.49746e-06
-3.44375e-06
0.000236159
-7.16607e-05
0.00234169
1.34131e-05
-3.32923e-06
-2.1614e-05
7.44361e-05
7.12947e-05
0.000159864
-4.20807e-05
0.000105659
0.000271958
-2.00545e-06
0.000269562
-5.01708e-07
0.00110197
-1.23091e-06
-3.69845e-07
0.00180372
-1.5956e-05
-8.06625e-05
0.00550229
-0.000145774
0.00176653
-2.44427e-05
0.00108913
-6.54606e-07
-6.67065e-07
-0.000267109
0.000266729
-1.5646e-07
-2.63614e-07
-8.5714e-05
7.93497e-05
-6.2943e-05
4.20807e-05
-0.000408483
0.00823712
-0.00039585
0.010633
-0.000382447
0.0125752
-0.000388608
0.0139782
-0.000384115
0.0147476
-0.000349119
0.0148322
-0.000289124
0.0142098
-0.000214334
0.0129363
-0.000147516
0.0111262
-9.52209e-05
0.00891632
-5.08631e-05
0.00645751
-2.13876e-05
0.00388293
-5.29163e-06
0.00128464
0.00476177
0.0104498
0.00521143
0.0111925
0.00610608
0.0121904
0.00870217
0.0139179
0.0103084
0.0158542
0.00969808
0.0174344
0.00822958
0.0181146
0.00621542
0.0168306
0.00376491
0.0131768
0.00170073
0.00858276
0.000616339
0.00479448
0.00071863
-2.83174e-05
-4.8453e-06
-7.00647e-05
7.04736e-05
-2.70893e-05
-1.7598e-06
3.60018e-06
-1.51839e-06
-1.67744e-06
-7.7843e-06
-4.7027e-06
-3.60556e-06
-4.77955e-06
-8.69697e-07
6.07954e-07
-1.95443e-06
3.32923e-06
0.000228101
-9.40547e-05
0.00220657
7.73454e-05
7.68447e-05
0.000265692
-1.78926e-07
0.000265318
1.81377e-08
0.00107466
-3.88585e-07
-1.06851e-06
0.00172848
-4.25926e-05
-0.000190856
0.00546878
-0.000184068
0.00166821
-8.54851e-05
0.00105282
-2.15406e-06
-4.19302e-07
-0.000264698
0.00026418
-1.21682e-07
-3.66675e-08
-7.65811e-05
7.64267e-05
-0.00032598
0.00816737
-0.000301627
0.0105523
-0.000330997
0.0125177
-0.000367291
0.0139615
-0.000375278
0.0147738
-0.000338928
0.014882
-0.000275521
0.0142711
-0.00020773
0.0129966
-0.000143182
0.0111742
-9.0653e-05
0.00895619
-5.0238e-05
0.00648644
-2.20512e-05
0.00389976
-4.89051e-06
0.00128961
0.00432562
0.0104439
0.00449037
0.0111706
0.00514373
0.0121546
0.00715794
0.0137346
0.0087321
0.0154942
0.00854083
0.0170112
0.00757892
0.0180851
0.0062824
0.0180475
0.00455962
0.0160355
0.00268911
0.0121883
0.00125466
0.00794397
0.000523077
0.0044992
0.000676979
-3.65823e-05
-1.62107e-05
-6.66879e-05
6.28034e-05
-2.45913e-05
-1.19019e-06
1.41875e-06
-3.0276e-05
-3.69181e-06
7.49411e-06
-2.11866e-06
1.3198e-06
-1.69451e-06
3.2221e-06
5.82441e-06
-1.36134e-05
2.21751e-06
1.34647e-06
0.000239155
-0.000123354
0.00208976
7.62489e-05
7.62679e-05
0.000263932
-1.26459e-07
0.000262929
-5.31236e-08
0.0010162
-1.02044e-06
-4.94239e-06
0.00163459
-0.000157217
-0.000151736
0.00536566
-7.10135e-05
0.00161186
-0.000161315
0.000952134
-1.65288e-05
-4.87781e-06
-0.000262572
0.000260722
-2.94485e-07
-5.50668e-08
-7.62313e-05
7.61116e-05
-0.000189517
0.00805539
-0.000234989
0.0104564
-0.00031059
0.0124611
-0.000366087
0.0139524
-0.000371994
0.014807
-0.000329626
0.0149362
-0.000262042
0.0143255
-0.000198016
0.0130515
-0.000139098
0.0112228
-8.84988e-05
0.00899452
-4.89649e-05
0.00651343
-2.09525e-05
0.00391588
-4.70838e-06
0.00129438
0.00389654
0.0104358
0.00378608
0.011148
0.00419215
0.012122
0.00570794
0.0136048
0.00724149
0.015225
0.0074087
0.0166262
0.00680725
0.0177824
0.00596287
0.0184043
0.00484784
0.0177593
0.00345509
0.0152692
0.00203697
0.0114059
0.0010117
0.00745487
0.000482235
0.00425581
0.000640655
-6.21754e-05
-2.52351e-05
-5.66431e-05
4.95793e-05
-2.96741e-05
-1.01804e-05
2.62544e-05
-3.68125e-05
-7.22653e-06
-6.90391e-06
-3.50556e-06
-1.77799e-06
6.74801e-06
-1.04447e-05
7.54954e-06
-1.77263e-06
4.62793e-06
-2.85466e-06
0.000259669
-0.000153956
0.00198287
7.59861e-05
7.59337e-05
0.000260006
-2.9744e-07
0.000255621
-5.52244e-07
0.000886063
-2.80106e-05
-6.31217e-05
0.00155448
-9.43031e-05
-4.35842e-05
0.00523668
-1.68397e-05
0.0015184
-3.488e-05
0.000841151
-5.51155e-05
-6.12684e-05
-0.000251722
0.000238214
-3.01704e-06
-9.77566e-07
-7.58787e-05
7.55854e-05
-0.000124078
0.00794459
-0.000215162
0.0103611
-0.000320458
0.0124156
-0.00038089
0.0139613
-0.000368388
0.0148458
-0.000309833
0.0149841
-0.000253181
0.0143807
-0.000189965
0.0131025
-0.000134218
0.0112686
-8.57269e-05
0.00903135
-4.49596e-05
0.0065375
-2.02823e-05
0.0039315
-4.53862e-06
0.00129899
0.0034725
0.0104288
0.00309443
0.0111271
0.00324633
0.0120936
0.00431448
0.0135155
0.00581552
0.0150308
0.00630562
0.0163279
0.00600526
0.0174282
0.0054519
0.0182933
0.00474705
0.0185048
0.00384181
0.0173725
0.00272595
0.0145799
0.00163664
0.0107808
0.000875783
0.00706084
0.000468853
0.0040463
-0.000114997
0.000601167
-3.9285e-05
1.43508e-05
-3.74207e-05
-1.50674e-05
4.21639e-05
-5.0762e-05
-1.08926e-05
-1.03023e-05
-1.11469e-06
-3.78956e-06
1.5821e-05
-2.04997e-05
-2.58028e-06
1.18998e-05
-3.00897e-06
-1.39543e-05
-3.85284e-06
2.85466e-06
0.000273204
-0.000165698
0.00187426
7.52884e-05
7.47364e-05
0.000218619
-8.4107e-06
0.000176517
-2.10151e-05
0.000770864
-1.93793e-05
-4.60515e-06
0.00148852
-1.36406e-05
-1.71985e-05
0.00514083
-1.09407e-05
0.00147747
-5.73374e-06
0.000737654
-9.29262e-08
-1.53852e-06
-0.00015657
0.000101458
-4.13172e-05
-7.37588e-05
7.07423e-05
-0.000105446
0.007835
-0.000241547
0.0102823
-0.000359394
0.0123942
-0.000388802
0.0139818
-0.000345454
0.0148815
-0.000295509
0.0150265
-0.000234954
0.0144258
-0.000180012
0.0131483
-0.000129978
0.0113129
-8.24188e-05
0.00906886
-4.69312e-05
0.00656421
-1.95324e-05
0.00394653
-4.40432e-06
0.00130345
0.00305659
0.0104186
0.00242081
0.0111022
0.00230947
0.0120639
0.00294825
0.01346
0.00442711
0.0149037
0.00522409
0.0161122
0.00520528
0.0171275
0.00486532
0.0180145
0.0044145
0.0186259
0.00387076
0.0184755
0.00314179
0.0169566
0.00223682
0.0139793
0.00138897
0.0102674
0.000800413
0.00672877
0.000463513
0.00385571
5.89071e-05
-0.000117681
-2.75578e-05
-1.47154e-05
-0.000106359
0.000541204
5.33779e-05
-3.20357e-05
-5.658e-06
-6.84617e-06
2.60219e-05
-2.93817e-05
-7.57771e-06
2.2994e-05
-7.30802e-06
-2.17747e-05
1.29669e-07
-2.59669e-06
6.86276e-06
-9.44608e-06
3.85284e-06
0.000293793
-0.000188781
0.00176834
6.2332e-05
4.13172e-05
8.20797e-05
7.74761e-05
0.000724326
-3.26794e-07
5.24673e-08
0.0014647
-4.39095e-06
-1.05886e-05
0.00505143
-5.35718e-06
0.00145857
-4.77317e-06
0.000718693
3.9164e-08
-1.05717e-07
-7.59375e-05
7.58476e-05
-0.000132212
0.0077258
-0.000305144
0.0102281
-0.00039238
0.0123979
-0.000361832
0.0139983
-0.000316949
0.0149031
-0.000269251
0.0150608
-0.000224577
0.0144704
-0.000175895
0.0131943
-0.00012728
0.0113578
-8.34501e-05
0.00910542
-4.64789e-05
0.00659122
-1.88366e-05
0.00396099
-4.47852e-06
0.00130798
0.00265028
0.0104067
0.00176498
0.0110742
0.00137825
0.0120332
0.0015718
0.0134403
0.00305984
0.0148272
0.0041586
0.0159689
0.00441323
0.0169042
0.0042606
0.0177321
0.00397397
0.0184548
0.00365563
0.018841
0.00324618
0.0183708
0.00264562
0.0165477
0.00190723
0.0134607
0.00123158
0.00983612
0.000751767
0.00644005
0.000467517
0.00368179
-0.000161841
-3.75252e-05
-2.50336e-05
8.74184e-05
-9.85416e-05
-7.10911e-06
-9.42829e-06
8.56297e-05
-6.06663e-06
-6.97883e-06
-0.000126172
0.000478254
3.09826e-05
-3.93269e-06
-1.7461e-06
2.82118e-05
-3.06357e-05
-4.43351e-06
-6.52028e-06
1.92255e-05
-2.07769e-05
-6.05671e-06
1.19149e-05
-9.31826e-06
0.000307906
-0.000201741
0.00166139
7.55225e-05
7.55763e-05
0.000714454
-8.17063e-08
-4.36176e-08
0.00145088
-2.8444e-06
-7.05046e-06
0.00494683
-2.04448e-05
0.00144441
4.01182e-06
-2.86996e-06
0.000710009
-1.49264e-07
-1.49712e-07
-7.54706e-05
7.55123e-05
-0.000221091
0.00764188
-0.000387498
0.0102233
-0.000362858
0.012399
-0.000323442
0.0140049
-0.000287386
0.0149213
-0.000253546
0.0150899
-0.000215453
0.01451
-0.000172246
0.0132393
-0.000125187
0.0113996
-8.01396e-05
0.00913911
-4.34574e-05
0.00661589
-1.87032e-05
0.00397523
-4.6063e-06
0.00131263
0.00225481
0.0103935
0.00113316
0.0110383
0.000454076
0.0119983
0.000154819
0.0134503
0.0016963
0.0148037
0.00310022
0.0158855
0.00362589
0.0167559
0.00365251
0.0175121
0.00349753
0.0182086
0.00331127
0.0187989
0.00310852
0.0189786
0.0027943
0.0182218
0.00229356
0.0161613
0.00168266
0.0130092
0.00112577
0.00946203
0.000723882
0.00618323
0.000472227
0.00351728
-0.000209801
-4.4754e-05
-3.3771e-05
0.000113336
-0.000123336
-1.39968e-05
-1.36658e-05
-6.97717e-06
-3.36495e-06
2.80829e-05
-3.26577e-05
-2.56333e-06
2.25484e-05
-3.92315e-06
2.22821e-05
-5.83331e-06
1.52995e-05
-0.000132971
0.000409032
1.13641e-05
9.61664e-06
2.30777e-05
-1.40595e-06
-2.15176e-06
-6.05761e-06
0.000326197
-0.000223114
0.00155724
7.54318e-05
7.53892e-05
0.000413147
8.63588e-08
1.30027e-07
0.000293833
0.0014391
-1.12608e-06
-5.72548e-07
-2.24227e-05
0.00481351
-6.52545e-05
0.00142132
-1.34146e-07
-2.49079e-06
0.000445509
-2.8329e-05
0.000447366
-4.71371e-06
-7.52395e-05
7.50927e-05
-0.000358384
0.00761289
-0.000356069
0.0102166
-0.000306493
0.0123821
-0.000275485
0.013993
-0.000257677
0.0149255
-0.000237712
0.0151122
-0.000209173
0.014547
-0.000170658
0.0132848
-0.000123024
0.0114425
-7.7542e-05
0.00917321
-4.27836e-05
0.00664002
-1.8665e-05
0.0039893
-4.52041e-06
0.00131718
0.0018753
0.0103762
0.00053522
0.0109913
-0.000461392
0.0119535
-0.00133735
0.0134905
0.000315991
0.0148306
0.00204866
0.015855
0.00284246
0.0166689
0.0030453
0.0173631
0.00301246
0.0179969
0.00291401
0.0186058
0.00282816
0.019079
0.00271251
0.0190604
0.00246207
0.018053
0.00204004
0.0158039
0.00152289
0.0126117
0.00105238
0.00913344
0.000704853
0.00595017
0.000479806
0.00336345
-0.000260244
-4.46257e-05
-3.81132e-05
0.000135464
-0.000152004
-2.83057e-05
-1.00666e-05
-1.16389e-05
4.30584e-05
-4.69242e-05
-1.01747e-05
3.91532e-05
-9.79566e-06
3.5589e-05
-3.44983e-06
-4.70885e-07
9.75781e-06
-1.23255e-05
5.83331e-06
-0.000152704
0.000338149
8.20937e-06
0.000340303
-0.000238445
0.00145439
7.51806e-05
7.53124e-05
0.000264373
1.14605e-06
0.000446785
-5.2755e-07
0.000446369
-1.38751e-07
0.0014046
-7.26778e-07
-4.93461e-06
-0.000105924
0.00475218
-0.000191013
0.00135768
-4.60404e-06
-1.36996e-05
0.000446272
-2.22519e-08
0.000444076
-2.80188e-07
0.000261128
-1.45759e-06
-0.000343163
0.00760011
-0.000265305
0.0101755
-0.000239932
0.0123467
-0.000235592
0.013971
-0.000238229
0.014926
-0.00023495
0.015138
-0.000214588
0.014591
-0.000172282
0.0133341
-0.000125525
0.0114905
-8.16961e-05
0.00921214
-4.22483e-05
0.00666364
-1.64231e-05
0.00400122
-4.59345e-06
0.0013218
0.00151587
0.0103568
-1.47173e-05
0.0109259
-0.00136348
0.0118934
-0.00293949
0.0135558
-0.00109786
0.0149042
0.000998131
0.0158809
0.00205754
0.0166397
0.00243726
0.0172767
0.00252513
0.0178505
0.00250401
0.0184067
0.00248315
0.0189508
0.00247687
0.0193144
0.00241664
0.0191058
0.00221651
0.0178762
0.00184978
0.015477
0.00140454
0.0122591
0.000997688
0.00884057
0.000691667
0.00573782
0.000485378
0.00321815
-0.000318784
-5.21065e-05
-4.24465e-05
0.000164933
-0.000176075
-3.35753e-05
-2.52524e-05
5.10024e-05
-0.000117684
-1.87378e-06
4.14612e-05
-1.26529e-06
5.06602e-05
-9.75219e-06
-7.92991e-06
2.60483e-05
-2.859e-05
-7.66342e-06
1.62494e-05
1.27964e-05
-0.00016512
0.00026423
0.000355276
-0.000257171
0.001355
7.64595e-05
0.000260811
-1.95891e-07
0.000260516
1.68521e-07
0.000443711
-3.47185e-07
0.000440263
-1.47298e-06
0.00130557
-1.64459e-05
-3.73267e-05
-0.000178909
0.00470498
-0.000116944
0.00125439
-5.30769e-05
-8.67254e-05
0.000438127
-2.45645e-06
0.000428719
-4.28055e-06
0.00026044
6.57486e-08
0.000260249
-7.76202e-08
7.50035e-05
-0.00019074
0.00752565
-0.000174942
0.0101106
-0.000186064
0.0122972
-0.000212634
0.0139455
-0.000238625
0.0149298
-0.000240789
0.0151643
-0.00021433
0.0146331
-0.000169095
0.0133777
-0.000116357
0.0115252
-7.42751e-05
0.00924417
-4.19834e-05
0.00668924
-1.83619e-05
0.00401499
-3.27142e-06
0.00132509
0.00118249
0.0103353
-0.000495379
0.0108374
-0.0022489
0.011811
-0.00469571
0.0136495
-0.00256543
0.0150233
-5.38274e-05
0.015956
0.00127402
0.0166644
0.00182698
0.0172499
0.0020355
0.0177661
0.00209159
0.0182629
0.00211596
0.0187737
0.00216314
0.0192646
0.00221398
0.0195167
0.00219574
0.0191265
0.00202557
0.0177001
0.00170387
0.0151776
0.00131382
0.0119426
0.00095524
0.00857692
0.000680135
0.0055426
0.000491524
0.00308162
-0.000377933
-5.732e-05
-4.90063e-05
0.000192325
-0.000209445
-3.51257e-05
-2.63202e-05
0.000129062
-0.000140582
-1.14999e-05
-1.06133e-05
-3.54494e-06
-1.03659e-05
1.3786e-05
-1.56627e-05
3.33477e-05
-1.66103e-06
1.25189e-05
-3.1919e-06
-7.66446e-06
-0.000185555
0.000191992
0.000366174
-0.000271547
0.00125924
7.4809e-05
7.49789e-05
0.000259844
7.00696e-08
0.000258513
-1.31825e-07
0.000420325
-8.03287e-06
0.000400115
-1.71027e-05
0.00122365
-7.68809e-05
-7.1237e-05
-5.64624e-05
0.00458443
-1.36471e-05
0.0011683
-4.26642e-05
-1.88934e-05
0.000379711
-3.26606e-05
0.00034986
-5.68627e-05
0.000256388
-3.22304e-07