/*--------------------------------*- C++ -*----------------------------------*\
| =========                 |                                                 |
| \\      /  F ield         | OpenFOAM: The Open Source CFD Toolbox           |
|  \\    /   O peration     | Version:  v1912                                 |
|   \\  /    A nd           | Website:  www.openfoam.com                      |
|    \\/     M anipulation  |                                                 |
\*---------------------------------------------------------------------------*/
FoamFile
{
    version     2.0;
    format      ascii;
    class       volVectorField;
    location    "500";
    object      U;
}
// * * * * * * * * * * * * * * * * * * * * * * * * * * * * * * * * * * * * * //

dimensions      [0 1 -1 0 0 0 0];


internalField   nonuniform List<vector> 
3675
(
(0.0776187 -0.0262336 0)
(0.232954 -0.0772094 0)
(0.0770932 -0.0260667 6.09193e-22)
(0.231466 -0.076727 7.40616e-22)
(0.0765772 -0.0258944 0)
(0.38349 -0.12467 -6.05988e-22)
(0.230012 -0.0762514 6.44792e-25)
(0.0760871 -0.0257292 0)
(0.528118 -0.168455 0)
(0.381186 -0.123929 0)
(0.22859 -0.0757823 0)
(0.075599 -0.0255677 0)
(0.658644 -0.206234 0)
(0.525096 -0.167493 0)
(0.378915 -0.123197 0)
(0.227184 -0.0753236 0)
(0.0751233 -0.0254087 -4.39085e-22)
(0.767403 -0.235935 0)
(0.654964 -0.205068 -5.1135e-25)
(0.52208 -0.166537 0)
(0.376685 -0.122484 0)
(0.225817 -0.0748733 4.2363e-22)
(0.07465 -0.0252502 0)
(0.846921 -0.255673 0)
(0.763148 -0.234583 -2.70774e-22)
(0.651329 -0.203924 5.10873e-25)
(0.519113 -0.165598 0)
(0.374465 -0.121767 0)
(0.224441 -0.0744168 0)
(0.0741747 -0.025093 0)
(0.890916 -0.264028 -2.71531e-22)
(0.842106 -0.254135 2.53869e-22)
(0.758936 -0.233257 0)
(0.6477 -0.202784 0)
(0.516154 -0.164658 0)
(0.37226 -0.121053 3.87521e-25)
(0.223066 -0.0739646 0)
(0.0737067 -0.0249376 5.81741e-22)
(0.895139 -0.260271 5.35197e-22)
(0.885484 -0.262285 0)
(0.837322 -0.252625 0)
(0.754742 -0.231946 -2.36748e-22)
(0.644099 -0.201654 0)
(0.513187 -0.163718 0)
(0.37005 -0.12034 -3.87477e-25)
(0.221705 -0.0735148 -2.99851e-22)
(0.073235 -0.0247802 0)
(0.858064 -0.244556 -2.72194e-22)
(0.889001 -0.258303 -2.49942e-22)
(0.88008 -0.260579 2.42202e-22)
(0.832566 -0.251142 2.21894e-22)
(0.750537 -0.230636 4.04036e-25)
(0.640471 -0.200518 0)
(0.510216 -0.162775 0)
(0.367842 -0.119624 3.22808e-25)
(0.220322 -0.0730587 0)
(0.0727678 -0.0246237 0)
(0.781419 -0.218049 -5.48086e-25)
(0.851144 -0.242351 2.57019e-22)
(0.882881 -0.256379 -2.42257e-22)
(0.874711 -0.25891 -2.28747e-22)
(0.827802 -0.249665 0)
(0.746331 -0.229327 -4.03781e-25)
(0.636826 -0.199374 0)
(0.507239 -0.161827 0)
(0.365635 -0.11891 -9.10958e-25)
(0.218962 -0.0726083 0)
(0.0723045 -0.0244665 0)
(0.67022 -0.182869 -2.59292e-22)
(0.773691 -0.215611 0)
(0.844215 -0.240201 0)
(0.876827 -0.254519 2.09702e-24)
(0.869374 -0.257267 -2.47797e-24)
(0.823039 -0.248189 2.02589e-22)
(0.742093 -0.228007 -1.91533e-22)
(0.633171 -0.198224 0)
(0.504261 -0.160876 0)
(0.363404 -0.118184 8.56181e-25)
(0.217609 -0.0721594 0)
(0.0718429 -0.0243087 0)
(0.532217 -0.141817 2.96069e-22)
(0.661702 -0.180222 -1.01911e-24)
(0.765855 -0.213229 -1.92196e-24)
(0.837423 -0.238163 2.34455e-22)
(0.870888 -0.252714 -1.74543e-24)
(0.864071 -0.255633 -1.94292e-22)
(0.818262 -0.246709 1.79609e-22)
(0.737827 -0.226676 0)
(0.62949 -0.197064 3.36573e-22)
(0.501263 -0.159918 0)
(0.361209 -0.11747 -2.90598e-22)
(0.216267 -0.0717099 -2.53792e-22)
(0.0713914 -0.0241599 0)
(0.376889 -0.0978981 1.52591e-22)
(0.522882 -0.139025 2.07696e-24)
(0.652827 -0.177588 2.00859e-24)
(0.758306 -0.211047 1.92487e-24)
(0.830892 -0.236217 2.20753e-22)
(0.865064 -0.250937 1.51497e-24)
(0.858788 -0.254007 0)
(0.813464 -0.245224 6.52136e-25)
(0.733556 -0.225346 -3.06555e-22)
(0.625817 -0.195908 0)
(0.498287 -0.158965 2.46533e-22)
(0.359032 -0.116756 2.06589e-22)
(0.214936 -0.0712658 0)
(0.0709337 -0.0240089 9.93094e-23)
(0.254389 -0.0650098 -1.33486e-22)
(0.366597 -0.0951055 5.00889e-23)
(0.251135 -0.0641143 -1.20265e-22)
(0.512532 -0.136063 0)
(0.644514 -0.175298 2.54593e-22)
(0.751315 -0.209022 -2.33557e-22)
(0.824652 -0.234342 1.53644e-24)
(0.859347 -0.249194 -1.51673e-24)
(0.853527 -0.25239 -1.30643e-24)
(0.808669 -0.243741 -1.26016e-24)
(0.729268 -0.224008 8.88116e-25)
(0.622136 -0.194742 0)
(0.495317 -0.158008 0)
(0.356856 -0.116042 -2.42496e-22)
(0.213618 -0.0708264 0)
(0.0704855 -0.023858 0)
(0.256755 -0.0654907 1.40191e-22)
(0.169768 -0.042752 2.67637e-23)
(0.246147 -0.0629796 0)
(0.352903 -0.0914761 -6.33449e-23)
(0.238739 -0.0608185 -8.30611e-23)
(0.167523 -0.0422561 -1.76828e-24)
(0.503431 -0.133633 -2.95412e-22)
(0.637299 -0.173273 2.34419e-22)
(0.744857 -0.207115 -2.04936e-22)
(0.818637 -0.232532 -2.96024e-24)
(0.853718 -0.247481 -1.7024e-22)
(0.848295 -0.250784 1.30686e-24)
(0.80387 -0.242256 8.91708e-25)
(0.724992 -0.22267 -2.82116e-25)
(0.618473 -0.193582 -2.69904e-22)
(0.492388 -0.157064 2.06064e-22)
(0.35472 -0.11534 2.223e-22)
(0.212302 -0.0703874 1.83088e-22)
(0.0700477 -0.0237111 0)
(0.171191 -0.0430811 0)
(0.105568 -0.0263405 -2.89607e-25)
(0.105169 -0.0262321 -3.59955e-23)
(0.163765 -0.0413566 -2.05734e-23)
(0.228685 -0.058002 -6.33562e-23)
(0.342779 -0.0886862 7.06472e-23)
(0.220426 -0.0563235 2.14943e-22)
(0.155765 -0.0392721 0)
(0.103781 -0.0259595 3.36591e-23)
(0.104603 -0.026142 -6.9928e-23)
(0.496437 -0.131675 -1.5824e-23)
(0.631024 -0.171451 2.29161e-22)
(0.738831 -0.205334 -1.83889e-22)
(0.812828 -0.230791 1.78704e-22)
(0.848179 -0.2458 1.57651e-22)
(0.843094 -0.249191 0)
(0.799091 -0.240777 -2.83332e-25)
(0.720728 -0.221336 2.45606e-22)
(0.614836 -0.192427 -2.51805e-22)
(0.489467 -0.15612 -1.88916e-22)
(0.352614 -0.114648 -1.48758e-22)
(0.211029 -0.0699604 1.65305e-22)
(0.0696181 -0.0235669 1.35235e-22)
(0.105937 -0.0264185 2.89676e-25)
(0.106233 -0.026497 3.86444e-23)
(0.0617468 -0.0152904 -3.17821e-23)
(0.0615212 -0.01524 0)
(0.102589 -0.0257699 -1.02415e-24)
(0.100588 -0.025247 1.2207e-24)
(0.141511 -0.0353088 5.93374e-23)
(0.215259 -0.054759 -1.17773e-22)
(0.336923 -0.0868726 -2.9466e-22)
(0.212434 -0.0538705 -1.63262e-24)
(0.131356 -0.033171 -1.04538e-22)
(0.0911573 -0.0225142 -1.92637e-24)
(0.0971609 -0.0245429 1.61137e-24)
(0.060794 -0.0150985 -4.67562e-25)
(0.0612537 -0.0151839 3.19966e-23)
(0.490893 -0.130087 2.14541e-22)
(0.625384 -0.169818 2.04469e-22)
(0.733132 -0.203661 0)
(0.807187 -0.229106 -3.24025e-22)
(0.842724 -0.244148 6.1046e-25)
(0.837932 -0.247609 0)
(0.794337 -0.239306 -2.46694e-25)
(0.716495 -0.220008 2.28739e-22)
(0.61125 -0.191284 0)
(0.486617 -0.155195 -2.14325e-22)
(0.350522 -0.113953 -1.34608e-22)
(0.209779 -0.0695402 6.8706e-23)
(0.0691927 -0.0234245 -3.81385e-23)
(0.0619356 -0.0153414 3.24586e-23)
(0.0621014 -0.0153759 -3.53795e-23)
(0.0198877 -0.00488669 4.514e-25)
(0.0198388 -0.00487923 2.37236e-23)
(0.060097 -0.0149721 0)
(0.0588398 -0.0147289 2.91443e-23)
(0.0800763 -0.0188557 3.6912e-24)
(0.0703602 -0.0179595 -4.25203e-25)
(0.127362 -0.0319169 2.37862e-23)
(0.210434 -0.0532268 1.63478e-24)
(0.332995 -0.0857875 -2.54006e-22)
(0.209143 -0.0528642 1.45968e-24)
(0.125696 -0.031371 -1.3839e-24)
(0.0622852 -0.0157153 -3.14374e-23)
(0.0649297 -0.0164233 3.47469e-23)
(0.0517957 -0.0121387 -1.64979e-24)
(0.0563909 -0.0141106 0)
(0.0196264 -0.00482934 1.74801e-25)
(0.0197462 -0.00485303 -1.7489e-25)
(0.48617 -0.128766 1.94412e-22)
(0.620206 -0.168336 -1.72184e-22)
(0.727704 -0.202074 1.68997e-22)
(0.801704 -0.227472 1.22402e-24)
(0.837343 -0.24252 1.3722e-22)
(0.832812 -0.246042 1.30496e-22)
(0.789615 -0.237842 2.46701e-25)
(0.712306 -0.218691 0)
(0.607706 -0.190147 1.88531e-22)
(0.483796 -0.154272 0)
(0.348496 -0.113281 -1.21683e-22)
(0.208551 -0.0691266 0)
(0.0687777 -0.0232853 0)
(0.0199374 -0.00490249 -2.13444e-25)
(0.0199842 -0.00491073 -2.62477e-23)
(0.0194377 -0.00479536 2.09489e-23)
(0.0190621 -0.00473725 2.25566e-23)
(0.0347518 -0.00599564 1.39508e-24)
(0.0238506 -0.00628491 -9.34915e-24)
(0.0611704 -0.0152216 -3.16411e-23)
(0.0605983 -0.0150375 2.92961e-23)
(0.124662 -0.0310905 -1.90957e-23)
(0.207958 -0.0526001 -8.83745e-23)
(0.329825 -0.085003 -2.70432e-22)
(0.207112 -0.0524067 1.36916e-24)
(0.123984 -0.0309052 -1.98196e-23)
(0.0601278 -0.014878 2.69609e-23)
(0.0603239 -0.014942 -4.46786e-25)
(0.0201442 -0.00508187 2.53317e-23)
(0.0215501 -0.00563087 -1.9456e-23)
(0.0169438 -0.00434616 3.47475e-23)
(0.0181539 -0.00464695 1.99598e-23)
(0.481965 -0.127613 1.9809e-22)
(0.615364 -0.16696 1.36268e-24)
(0.722483 -0.20055 -1.43489e-22)
(0.796327 -0.225873 -7.6634e-24)
(0.832027 -0.240915 -1.30641e-22)
(0.82774 -0.244488 0)
(0.784945 -0.23639 0)
(0.708178 -0.217385 0)
(0.604218 -0.189025 -2.02493e-22)
(0.48104 -0.15337 -1.85939e-22)
(0.346513 -0.11262 0)
(0.207353 -0.0687206 0)
(0.0683694 -0.0231488 -2.35388e-23)
(0.00963994 -0.00153566 -3.42386e-24)
(0.0196453 -0.00486405 0)
(0.0194384 -0.00478906 -4.03964e-23)
(0.059939 -0.0148293 -2.56832e-23)
(0.0598212 -0.0148051 2.66936e-23)
(0.12341 -0.0307874 7.94904e-23)
(0.20614 -0.0521995 5.44939e-24)
(0.32704 -0.0843147 -4.58958e-23)
(0.205402 -0.0520209 7.27833e-23)
(0.122924 -0.0306738 0)
(0.0596417 -0.0147462 -2.45643e-23)
(0.0597107 -0.0147755 2.5806e-23)
(0.0192933 -0.0047428 -3.79976e-23)
(0.0193532 -0.00476464 1.91214e-23)
(0.478104 -0.126561 -1.56714e-22)
(0.610756 -0.165655 3.00288e-22)
(0.717416 -0.199079 -1.43943e-22)
(0.791053 -0.22431 0)
(0.826777 -0.239331 -1.18409e-22)
(0.822719 -0.242949 0)
(0.780331 -0.234951 -1.07495e-22)
(0.704106 -0.216093 8.26303e-23)
(0.600807 -0.187921 1.63511e-22)
(0.478349 -0.152482 0)
(0.344571 -0.11197 0)
(0.206176 -0.0683244 0)
(0.0679735 -0.0230179 0)
(0.0192467 -0.00472883 2.67028e-25)
(0.0191967 -0.00472114 -1.79795e-23)
(0.0595095 -0.0147237 -2.33632e-23)
(0.0594235 -0.0147075 -2.29886e-23)
(0.122448 -0.0305765 7.07871e-23)
(0.204504 -0.0518157 6.62307e-23)
(0.324471 -0.0836623 2.22678e-22)
(0.203826 -0.0516386 7.14107e-23)
(0.121991 -0.0304671 -8.28571e-23)
(0.0592511 -0.0146588 0)
(0.0593195 -0.0146881 2.22664e-23)
(0.0191581 -0.00470593 2.57138e-25)
(0.0191739 -0.00471702 1.76888e-23)
(0.474446 -0.125569 -1.64576e-22)
(0.606328 -0.16441 1.30346e-22)
(0.712466 -0.197645 1.21025e-22)
(0.78586 -0.222771 7.88372e-24)
(0.821589 -0.237765 0)
(0.817755 -0.241423 -7.30632e-25)
(0.77578 -0.233526 9.52696e-23)
(0.700117 -0.214817 0)
(0.597473 -0.186834 0)
(0.475738 -0.151616 1.41553e-25)
(0.342692 -0.111338 0)
(0.205043 -0.0679403 -7.91064e-26)
(0.0675818 -0.0228907 -1.89691e-23)
(0.0191251 -0.00469802 1.68759e-23)
(0.0190824 -0.0046921 2.90169e-25)
(0.0591124 -0.0146352 -8.33533e-25)
(0.0590247 -0.0146169 1.00872e-24)
(0.121522 -0.0303598 -7.60373e-23)
(0.202979 -0.051439 -5.82464e-23)
(0.322029 -0.0830365 -6.90783e-25)
(0.202322 -0.0512647 -6.87265e-24)
(0.12108 -0.0302466 -1.3339e-23)
(0.0588419 -0.0145654 1.9707e-23)
(0.0589155 -0.0145963 1.93031e-23)
(0.019043 -0.00467819 -1.51006e-23)
(0.0190625 -0.00468996 -1.98898e-25)
(0.47094 -0.12462 -1.49251e-22)
(0.602023 -0.163198 -1.34273e-22)
(0.707612 -0.19624 1.22726e-22)
(0.780735 -0.221254 0)
(0.816453 -0.236212 1.05343e-22)
(0.812848 -0.239909 0)
(0.771303 -0.232114 0)
(0.696216 -0.21356 0)
(0.594237 -0.185769 0)
(0.473178 -0.150759 -1.5637e-22)
(0.340842 -0.110712 1.39128e-22)
(0.203916 -0.0675593 7.90891e-26)
(0.067182 -0.0227551 2.02541e-26)
(0.0190071 -0.0046701 -2.91182e-23)
(0.0189624 -0.00466326 2.87718e-25)
(0.058697 -0.0145371 0)
(0.0586051 -0.0145167 1.02134e-24)
(0.120634 -0.0301421 4.20938e-23)
(0.201491 -0.0510654 -5.0155e-23)
(0.319672 -0.0824231 -3.00201e-23)
(0.200858 -0.0508957 4.71387e-23)
(0.120195 -0.0300301 -5.12939e-23)
(0.0584218 -0.0144624 0)
(0.0584952 -0.0144925 3.37785e-23)
(0.0189137 -0.00464748 -9.88854e-26)
(0.0189377 -0.00465992 -1.38928e-23)
(0.467546 -0.123698 -2.2957e-25)
(0.59781 -0.162014 1.05526e-22)
(0.702842 -0.19486 -1.01049e-22)
(0.775658 -0.219749 0)
(0.81136 -0.234669 -1.96074e-25)
(0.808007 -0.238406 8.98127e-23)
(0.766914 -0.230717 -1.62411e-25)
(0.692404 -0.212318 -8.33048e-23)
(0.591072 -0.184719 5.74509e-23)
(0.470697 -0.149926 -1.17877e-22)
(0.33905 -0.110106 0)
(0.202795 -0.0671777 0)
(0.066794 -0.022624 2.70302e-23)
(0.018874 -0.00463837 -1.225e-23)
(0.0188287 -0.00463139 2.43499e-23)
(0.0582794 -0.0144346 1.48951e-23)
(0.0581891 -0.0144147 1.54523e-23)
(0.11976 -0.0299251 6.71248e-23)
(0.200051 -0.0506979 4.86247e-23)
(0.317379 -0.0818232 2.43012e-23)
(0.199426 -0.0505276 4.01312e-23)
(0.119328 -0.0298162 -3.43699e-23)
(0.0580007 -0.0143602 0)
(0.0580785 -0.0143904 1.38928e-23)
(0.0187777 -0.00461376 -1.10134e-23)
(0.0188042 -0.00462616 -2.62869e-25)
(0.464245 -0.1228 -2.27004e-23)
(0.59367 -0.160848 1.12364e-22)
(0.698105 -0.193491 0)
(0.770623 -0.218258 -8.914e-23)
(0.806319 -0.233134 -8.96897e-23)
(0.80323 -0.236911 0)
(0.762614 -0.229334 -1.88357e-24)
(0.688695 -0.211101 7.25615e-23)
(0.58799 -0.183692 0)
(0.468259 -0.149105 0)
(0.337256 -0.109499 0)
(0.201694 -0.0668033 1.13738e-22)
(0.0664313 -0.0224978 -3.58439e-23)
(0.0187387 -0.00460525 -2.12055e-23)
(0.0186934 -0.00459833 0)
(0.0578605 -0.0143314 -1.02269e-24)
(0.0577694 -0.0143117 -2.49596e-23)
(0.118905 -0.0297104 8.61835e-24)
(0.198647 -0.0503376 0)
(0.315142 -0.0812341 -9.35178e-23)
(0.198028 -0.0501713 -4.01405e-23)
(0.118483 -0.029602 -2.9532e-23)
(0.0575914 -0.0142589 0)
(0.0576627 -0.0142892 -1.24428e-23)
(0.0186413 -0.00458066 -9.20415e-24)
(0.0186688 -0.00459297 -2.67503e-25)
(0.460987 -0.12191 -8.66627e-23)
(0.58958 -0.159698 0)
(0.6934 -0.19213 9.56282e-23)
(0.765592 -0.216758 -1.58905e-25)
(0.801304 -0.231594 -3.3185e-25)
(0.798524 -0.235421 7.7852e-23)
(0.758403 -0.227967 0)
(0.685068 -0.2099 0)
(0.584977 -0.182682 -7.46233e-23)
(0.46587 -0.148298 0)
(0.335489 -0.108897 -9.22225e-23)
(0.200597 -0.0664207 -9.04158e-26)
(0.0660353 -0.0223626 1.15176e-22)
(0.0186027 -0.00457195 -1.7733e-23)
(0.0185559 -0.00456527 1.71566e-23)
(0.0574517 -0.0142302 -1.11581e-23)
(0.0573632 -0.0142097 -9.80061e-24)
(0.118069 -0.0295005 1.37834e-23)
(0.197271 -0.0499841 0)
(0.312952 -0.0806563 9.99761e-23)
(0.196668 -0.0498205 -6.60714e-24)
(0.117653 -0.0293941 6.5189e-24)
(0.0571835 -0.0141574 0)
(0.0572558 -0.0141864 -8.25506e-25)
(0.0185112 -0.00454845 0)
(0.0185357 -0.00456137 0)
(0.457783 -0.121036 7.53525e-23)
(0.585494 -0.158547 0)
(0.68868 -0.190761 0)
(0.760563 -0.215254 1.58842e-25)
(0.796321 -0.230048 0)
(0.793884 -0.233933 1.36046e-25)
(0.754281 -0.226612 0)
(0.681529 -0.20872 6.77698e-23)
(0.582031 -0.18169 0)
(0.463481 -0.147487 0)
(0.333738 -0.108293 0)
(0.199486 -0.0660353 -6.72402e-23)
(0.0656206 -0.0222263 8.49431e-23)
(0.0184715 -0.00454008 0)
(0.0184276 -0.00453287 2.81094e-25)
(0.0570448 -0.0141294 -8.98918e-25)
(0.0569731 -0.0141134 -9.82071e-25)
(0.11725 -0.0292934 5.44084e-24)
(0.195928 -0.0496378 1.01867e-25)
(0.310778 -0.0800805 -1.01169e-22)
(0.195328 -0.049477 -2.18953e-23)
(0.116844 -0.0291896 -2.06926e-23)
(0.0567818 -0.0140596 0)
(0.056856 -0.0140854 -8.27269e-24)
(0.0183776 -0.00451575 0)
(0.0184035 -0.0045281 -2.56952e-25)
(0.454577 -0.120159 4.39429e-25)
(0.581383 -0.157392 0)
(0.683911 -0.189377 0)
(0.755496 -0.213722 6.3389e-23)
(0.791352 -0.228485 -2.48027e-25)
(0.789307 -0.232446 6.35053e-23)
(0.750237 -0.225273 0)
(0.67805 -0.207555 -1.35664e-25)
(0.5791 -0.180701 7.20127e-23)
(0.46112 -0.146681 0)
(0.331946 -0.107677 -1.40727e-22)
(0.198356 -0.065648 -7.88419e-23)
(0.0652058 -0.0220848 -2.75282e-25)
(0.0183383 -0.00450794 -2.9975e-25)
(0.0182978 -0.00450109 -5.76303e-24)
(0.0566503 -0.0140307 0)
(0.0565825 -0.0140155 -9.77053e-25)
(0.116451 -0.029091 8.3948e-24)
(0.194604 -0.0492974 1.90374e-23)
(0.30864 -0.0795137 1.22237e-23)
(0.19401 -0.0491381 6.30587e-24)
(0.116048 -0.0289899 2.04184e-23)
(0.0563957 -0.0139635 0)
(0.0564675 -0.0139883 -6.47194e-24)
(0.0182451 -0.00448469 0)
(0.0182843 -0.00449781 5.09757e-24)
(0.451347 -0.119278 -2.79369e-25)
(0.577206 -0.156216 0)
(0.679036 -0.187949 -6.85249e-23)
(0.750366 -0.212149 0)
(0.786383 -0.226896 -6.36828e-23)
(0.784784 -0.23096 -5.96728e-23)
(0.74626 -0.223951 0)
(0.674616 -0.206404 3.97913e-24)
(0.576177 -0.179711 2.68729e-25)
(0.45874 -0.145866 1.19043e-22)
(0.330155 -0.107057 0)
(0.197187 -0.0652383 0)
(0.0647861 -0.0219432 1.154e-22)
(0.0182126 -0.00447668 -4.29783e-24)
(0.0181733 -0.00446992 -8.59955e-24)
(0.0562649 -0.013934 -9.28757e-25)
(0.0561962 -0.0139191 -9.58835e-25)
(0.115662 -0.0288923 -1.18396e-23)
(0.193294 -0.0489577 -1.97689e-23)
(0.306493 -0.0789421 0)
(0.192706 -0.0487979 1.13176e-23)
(0.115266 -0.0287947 1.80052e-23)
(0.0560128 -0.0138688 0)
(0.0560841 -0.0138929 0)
(0.0181227 -0.00445465 -3.45846e-24)
(0.0181603 -0.00446729 3.10447e-26)
(0.448041 -0.118374 0)
(0.572865 -0.154992 0)
(0.673997 -0.186457 4.60454e-23)
(0.74513 -0.210513 -4.43876e-23)
(0.781401 -0.225281 5.99442e-23)
(0.780305 -0.229487 5.78913e-23)
(0.742329 -0.222645 -6.56556e-23)
(0.671185 -0.205252 6.90206e-23)
(0.573246 -0.178714 7.15875e-23)
(0.456335 -0.145033 0)
(0.328319 -0.106414 1.53539e-22)
(0.196012 -0.0648258 -1.06835e-22)
(0.0643632 -0.0217975 0)
(0.0180885 -0.00444589 -6.3722e-24)
(0.0180475 -0.00443902 -3.21601e-24)
(0.0558878 -0.0138406 -3.92171e-24)
(0.05582 -0.0138252 -3.7524e-24)
(0.114894 -0.0286981 3.69203e-24)
(0.192018 -0.0486253 -4.3323e-26)
(0.304295 -0.0783563 0)
(0.191425 -0.0484616 6.56133e-24)
(0.114505 -0.0286003 -9.3202e-24)
(0.0556421 -0.0137782 0)
(0.055709 -0.0138007 -3.28647e-24)
(0.0179979 -0.00442418 -2.26245e-24)
(0.0180359 -0.00443663 0)
(0.444585 -0.117436 3.46974e-23)
(0.568265 -0.153689 -5.08229e-23)
(0.668704 -0.184855 4.7713e-23)
(0.739743 -0.208797 0)
(0.776414 -0.223659 -1.08723e-23)
(0.775866 -0.22803 -2.37142e-25)
(0.738415 -0.221349 -1.22182e-25)
(0.667757 -0.204098 -6.46858e-23)
(0.570291 -0.177699 7.23005e-23)
(0.453887 -0.14418 -1.2985e-22)
(0.326448 -0.105753 1.63432e-22)
(0.19481 -0.0643987 -1.73645e-22)
(0.0639081 -0.0216451 -1.55976e-22)
(0.0179677 -0.00441644 -1.91175e-24)
(0.0179266 -0.00440892 -1.76619e-24)
(0.0555152 -0.0137492 -2.44262e-24)
(0.0554498 -0.0137357 -8.13326e-25)
(0.114131 -0.0285026 1.56626e-24)
(0.190741 -0.0482915 0)
(0.302022 -0.077753 -3.61003e-23)
(0.19013 -0.0481241 -1.88309e-24)
(0.113754 -0.0284085 -5.71394e-24)
(0.0552743 -0.0136849 0)
(0.0553446 -0.0137065 -1.75712e-24)
(0.017881 -0.00439551 -1.18291e-24)
(0.0179147 -0.0044074 1.28015e-26)
(0.440822 -0.116418 0)
(0.563221 -0.152232 2.17735e-23)
(0.663035 -0.183096 0)
(0.734232 -0.20703 -8.19633e-23)
(0.771437 -0.222054 1.04914e-25)
(0.771465 -0.2266 -1.18487e-22)
(0.734513 -0.220054 -5.04101e-25)
(0.6643 -0.202925 -1.32767e-22)
(0.567297 -0.176664 0)
(0.451385 -0.143301 -1.37898e-22)
(0.324534 -0.105075 1.403e-22)
(0.193568 -0.0639595 -4.84386e-23)
(0.0634283 -0.0214838 -2.51351e-23)
(0.0178433 -0.00438755 7.63375e-27)
(0.0178134 -0.0043843 -2.13013e-25)
(0.0551523 -0.013657 -9.53759e-25)
(0.0550903 -0.0136445 -8.35152e-25)
(0.113385 -0.0283117 3.24319e-25)
(0.189439 -0.0479493 -7.31576e-24)
(0.299525 -0.0770946 -2.20822e-24)
(0.188825 -0.0477789 0)
(0.113013 -0.0282196 1.55316e-24)
(0.0549158 -0.0135968 -1.68705e-25)
(0.0549884 -0.0136177 -3.62128e-25)
(0.0177593 -0.00436387 -1.01399e-25)
(0.0177963 -0.00437532 0)
(0.436488 -0.115244 -2.52643e-23)
(0.557533 -0.150541 4.006e-24)
(0.657004 -0.18119 3.53762e-23)
(0.728661 -0.20527 -3.54363e-23)
(0.766522 -0.220497 1.06312e-22)
(0.767109 -0.225185 4.45903e-25)
(0.730605 -0.218748 6.22606e-23)
(0.660813 -0.201732 0)
(0.564241 -0.175598 0)
(0.448842 -0.142401 -3.02896e-25)
(0.322583 -0.104378 -3.12612e-23)
(0.192274 -0.0634998 1.68941e-22)
(0.0629404 -0.0213176 1.88021e-22)
(0.0177241 -0.00435781 1.83261e-25)
(0.0176962 -0.00435508 -2.14725e-25)
(0.0548011 -0.0135702 0)
(0.0547413 -0.0135557 -4.17461e-25)
(0.11265 -0.0281228 2.06229e-24)
(0.188107 -0.0476001 2.07254e-24)
(0.296533 -0.0763357 -4.60672e-24)
(0.187381 -0.0474023 1.5019e-24)
(0.11226 -0.028026 -2.01708e-24)
(0.0545748 -0.0135102 1.22307e-24)
(0.0546414 -0.0135314 -9.48949e-25)
(0.0176423 -0.00433602 -8.03352e-27)
(0.0176805 -0.00434682 0)
(0.431195 -0.113773 -4.70895e-24)
(0.550968 -0.148506 4.74975e-26)
(0.650736 -0.179251 3.83544e-23)
(0.723193 -0.203599 -9.97458e-24)
(0.761725 -0.218984 4.14112e-25)
(0.762794 -0.223773 -5.19633e-23)
(0.726686 -0.217427 9.51872e-25)
(0.657278 -0.200512 -5.31072e-25)
(0.561142 -0.174507 0)
(0.446254 -0.141475 -1.54593e-23)
(0.320597 -0.103661 -3.59235e-25)
(0.190934 -0.0630173 -4.01221e-25)
(0.0624409 -0.02115 -2.37752e-23)
(0.0176127 -0.00433121 -1.14418e-24)
(0.017585 -0.00432691 -1.18187e-24)
(0.0544591 -0.0134836 -1.59839e-24)
(0.0544021 -0.0134706 0)
(0.111903 -0.0279271 -1.67894e-25)
(0.186548 -0.0472116 -7.73503e-24)
(0.292493 -0.0752948 1.64876e-25)
(0.185552 -0.0469594 7.15096e-24)
(0.111467 -0.0278226 2.86609e-24)
(0.0542343 -0.0134245 -9.39485e-25)
(0.0543055 -0.0134466 0)
(0.0175369 -0.00430908 0)
(0.0175693 -0.00431999 1.58022e-24)
(0.424177 -0.111703 -4.66321e-23)
(0.54377 -0.146311 1.11658e-23)
(0.644638 -0.177477 -1.15942e-23)
(0.717983 -0.202016 0)
(0.757062 -0.217497 5.13665e-23)
(0.758514 -0.222358 0)
(0.722746 -0.216088 -4.70618e-25)
(0.653706 -0.199267 5.30991e-25)
(0.558004 -0.173388 1.53313e-22)
(0.443638 -0.140526 -3.43918e-25)
(0.318534 -0.10291 0)
(0.189586 -0.0625353 2.2871e-22)
(0.0619277 -0.020975 -2.25791e-23)
(0.0175028 -0.00430352 0)
(0.017477 -0.00430068 0)
(0.0541239 -0.013398 -2.93472e-24)
(0.0540682 -0.0133841 3.15352e-24)
(0.111064 -0.0277135 7.35695e-24)
(0.184282 -0.0467037 0)
(0.28544 -0.0734376 7.61654e-23)
(0.18243 -0.0462275 0)
(0.11051 -0.0275923 4.0685e-24)
(0.0538988 -0.0133417 0)
(0.0539709 -0.0133632 -3.72711e-24)
(0.0174269 -0.00428232 2.59818e-24)
(0.0174632 -0.00429378 0)
(0.415468 -0.109118 4.90175e-23)
(0.536888 -0.144428 -3.72923e-23)
(0.639074 -0.175862 -5.09287e-25)
(0.713065 -0.200493 3.19553e-23)
(0.752519 -0.21603 3.53482e-25)
(0.754264 -0.220941 0)
(0.718794 -0.21473 0)
(0.650098 -0.197994 6.59272e-23)
(0.554819 -0.172239 1.61608e-22)
(0.440951 -0.139544 -4.00166e-25)
(0.316455 -0.102147 0)
(0.188211 -0.0620326 2.64688e-22)
(0.0613983 -0.020795 -3.33418e-22)
(0.0173966 -0.00427669 3.17628e-24)
(0.0173705 -0.00427328 0)
(0.0537804 -0.0133102 0)
(0.0537293 -0.0132959 -5.49806e-24)
(0.109861 -0.0274379 4.55295e-24)
(0.179587 -0.0456757 8.80794e-25)
(0.273205 -0.0701004 -3.71595e-23)
(0.174686 -0.0441615 -3.504e-23)
(0.10881 -0.0272307 0)
(0.0535366 -0.0132522 -6.71563e-24)
(0.0536256 -0.0132773 -5.20859e-24)
(0.0173249 -0.00425741 4.00073e-24)
(0.0173583 -0.0042681 3.56699e-24)
(0.407479 -0.107047 3.43715e-25)
(0.531107 -0.142828 0)
(0.634088 -0.174361 -3.39731e-23)
(0.708419 -0.199032 4.43643e-25)
(0.748087 -0.214586 0)
(0.750046 -0.219518 0)
(0.714831 -0.213353 -6.19086e-23)
(0.646471 -0.196698 -1.46759e-22)
(0.551596 -0.171065 -3.53188e-25)
(0.438245 -0.138539 4.0008e-25)
(0.314313 -0.101351 2.68133e-22)
(0.186812 -0.0615201 3.07417e-22)
(0.0608528 -0.0206048 -3.83682e-22)
(0.017294 -0.00425078 0)
(0.0172675 -0.00424716 4.10137e-24)
(0.0534021 -0.0132212 9.63061e-25)
(0.0532983 -0.0131912 7.44139e-24)
(0.107168 -0.0269026 -5.54641e-24)
(0.165668 -0.0414794 -1.00394e-22)
(0.263288 -0.0675547 -3.79343e-24)
(0.156209 -0.0397614 1.76644e-23)
(0.103658 -0.0260086 0)
(0.0529383 -0.0131228 0)
(0.0531587 -0.0131688 7.53843e-24)
(0.0172153 -0.00423086 1.0272e-23)
(0.0172561 -0.00424207 0)
(0.40173 -0.105451 1.15923e-23)
(0.526322 -0.14141 4.35519e-24)
(0.629541 -0.172963 0)
(0.703982 -0.197621 -4.44297e-25)
(0.743752 -0.213157 0)
(0.745863 -0.218092 3.43003e-25)
(0.71087 -0.211958 2.27829e-25)
(0.642816 -0.195375 0)
(0.548347 -0.169859 3.53046e-25)
(0.43548 -0.137501 -4.56642e-22)
(0.31218 -0.100547 -3.02793e-25)
(0.18536 -0.060975 3.5246e-22)
(0.0602664 -0.0204122 0)
(0.0171905 -0.00422674 -5.07208e-24)
(0.0171453 -0.00421471 1.8693e-25)
(0.05266 -0.0130815 0)
(0.0521535 -0.0129895 7.0732e-24)
(0.0921695 -0.0226224 3.94433e-23)
(0.150408 -0.0380681 -9.47541e-25)
(0.258404 -0.065947 -2.08448e-23)
(0.14787 -0.0372363 2.12955e-23)
(0.0778632 -0.0201438 -1.79115e-23)
(0.0492559 -0.0120173 4.07618e-24)
(0.0512684 -0.0128853 0)
(0.0170546 -0.00419078 0)
(0.0171279 -0.00420752 4.4368e-25)
(0.397613 -0.104226 -5.07407e-24)
(0.522213 -0.140171 -1.69612e-25)
(0.625349 -0.171667 1.01355e-25)
(0.69973 -0.196259 1.10914e-23)
(0.739515 -0.211746 -2.18404e-25)
(0.741718 -0.216658 -6.69736e-25)
(0.706916 -0.210543 5.01638e-23)
(0.639144 -0.194021 0)
(0.545076 -0.168627 2.01792e-22)
(0.432693 -0.136435 0)
(0.309962 -0.0997017 3.29481e-22)
(0.183842 -0.0604158 0)
(0.0596554 -0.0202075 9.92632e-22)
(0.0169755 -0.00417612 -6.64178e-24)
(0.0168084 -0.00414972 -7.10884e-24)
(0.0448878 -0.0102504 1.71241e-24)
(0.0302335 -0.00507462 0)
(0.0728854 -0.0183283 -4.11705e-25)
(0.146404 -0.0366597 -2.22064e-23)
(0.255691 -0.0651454 -3.04239e-25)
(0.145567 -0.0364129 1.0916e-23)
(0.0717518 -0.0177738 -2.01291e-23)
(0.0184305 -0.00495445 9.76128e-25)
(0.020628 -0.00509459 -1.26601e-24)
(0.0157931 -0.00402491 -6.9788e-24)
(0.0165087 -0.00412824 -2.60905e-25)
(0.39429 -0.103258 -2.04903e-25)
(0.518526 -0.139068 5.90152e-26)
(0.621422 -0.170448 -1.80199e-23)
(0.695638 -0.194931 0)
(0.735361 -0.21034 2.18519e-25)
(0.737613 -0.215214 -7.9599e-23)
(0.702971 -0.209106 -4.9823e-23)
(0.635468 -0.192644 0)
(0.54178 -0.167361 0)
(0.42987 -0.135343 -3.45529e-24)
(0.30771 -0.0988355 -3.67226e-22)
(0.182285 -0.0598364 -9.57833e-22)
(0.0590436 -0.0199968 -1.61466e-23)
(0.0147065 -0.00370347 2.61615e-25)
(0.00832169 -0.0012873 7.43021e-23)
(0.0172947 -0.00436702 4.97708e-24)
(0.0168727 -0.00421846 5.17546e-24)
(0.0711841 -0.0175904 2.09013e-23)
(0.144896 -0.0362756 1.95357e-23)
(0.253693 -0.0646706 -4.45573e-25)
(0.14445 -0.0361916 -1.90579e-23)
(0.0708354 -0.0174917 0)
(0.0167405 -0.00411722 -6.65209e-24)
(0.0168115 -0.00415163 6.6424e-24)
(0.391459 -0.102457 1.40831e-25)
(0.51519 -0.13807 -1.93002e-23)
(0.617706 -0.16928 0)
(0.691683 -0.193629 -2.06655e-24)
(0.731288 -0.208939 4.28005e-23)
(0.733549 -0.213758 4.81992e-23)
(0.699036 -0.207644 -2.38726e-25)
(0.631785 -0.191234 0)
(0.538458 -0.166063 -2.40768e-22)
(0.426985 -0.134208 3.10059e-22)
(0.305397 -0.0979358 3.99551e-22)
(0.180683 -0.05923 5.29698e-22)
(0.0583787 -0.019775 1.29765e-21)
(0.016719 -0.00411089 0)
(0.0167056 -0.00410727 -6.75602e-24)
(0.0706046 -0.0174582 6.76699e-24)
(0.143946 -0.0361039 0)
(0.251984 -0.0642654 1.88772e-23)
(0.143584 -0.0360264 0)
(0.0704217 -0.0174188 0)
(0.0166764 -0.00409564 6.65244e-24)
(0.0166841 -0.00409763 7.01285e-24)
(0.388938 -0.101743 3.0581e-23)
(0.512092 -0.137135 -4.06116e-25)
(0.614169 -0.168154 2.42194e-23)
(0.687844 -0.192345 -2.07929e-23)
(0.727291 -0.207538 6.57212e-24)
(0.729527 -0.212286 2.54743e-23)
(0.695119 -0.206157 4.97702e-23)
(0.628104 -0.189792 0)
(0.535089 -0.164722 2.35556e-22)
(0.424065 -0.133038 0)
(0.303009 -0.0969967 0)
(0.179022 -0.058605 -6.02341e-22)
(0.0576998 -0.0195512 -7.47483e-22)
(0.0166556 -0.00409441 -1.38703e-23)
(0.0166549 -0.0040936 5.49597e-26)
(0.0702433 -0.0173923 7.71437e-24)
(0.143126 -0.0359279 -2.96767e-23)
(0.250484 -0.0638867 0)
(0.142788 -0.0358413 0)
(0.0700616 -0.017345 1.27182e-25)
(0.0166268 -0.004087 0)
(0.0166286 -0.00408799 7.51617e-24)
(0.386654 -0.101092 3.6865e-25)
(0.509165 -0.136241 2.04841e-23)
(0.610765 -0.167052 -2.09375e-23)
(0.684104 -0.191068 -6.61844e-24)
(0.723363 -0.206129 -2.54873e-23)
(0.725547 -0.210794 -7.08604e-23)
(0.691225 -0.204641 5.02296e-23)
(0.624403 -0.188313 -2.98583e-22)
(0.5317 -0.163343 0)
(0.421106 -0.131835 3.66974e-22)
(0.300578 -0.09603 0)
(0.17732 -0.0579611 6.85364e-22)
(0.0570025 -0.0193197 8.33202e-22)
(0.0165965 -0.00408302 -1.56989e-23)
(0.0165906 -0.00407899 -8.17889e-24)
(0.0698804 -0.0173094 -1.27156e-25)
(0.142348 -0.0357373 0)
(0.249107 -0.0635258 -3.61675e-25)
(0.142033 -0.0356526 0)
(0.069698 -0.0172594 0)
(0.0165496 -0.00406643 0)
(0.0165614 -0.0040716 0)
(0.384496 -0.100469 -5.3244e-23)
(0.506376 -0.135378 3.41096e-23)
(0.607485 -0.165971 0)
(0.680468 -0.189798 -6.57739e-26)
(0.719504 -0.204708 2.27508e-23)
(0.721611 -0.209281 -4.88078e-23)
(0.687341 -0.203093 1.31076e-22)
(0.620692 -0.186795 9.08929e-23)
(0.528302 -0.161931 -3.21502e-22)
(0.418089 -0.130586 4.05246e-22)
(0.298123 -0.0950333 0)
(0.175532 -0.057277 0)
(0.0562611 -0.0190861 -9.54959e-22)
(0.0165169 -0.00406227 -9.12772e-24)
(0.0165117 -0.00405967 -9.35476e-24)
(0.0695214 -0.0172203 0)
(0.141616 -0.0355526 -1.62042e-25)
(0.247802 -0.0631754 1.55725e-25)
(0.141319 -0.0354681 1.61992e-25)
(0.0693534 -0.0171759 0)
(0.0164681 -0.00404737 0)
(0.0164803 -0.00405229 9.77883e-24)
(0.382459 -0.0998753 5.4296e-25)
(0.50372 -0.134541 0)
(0.604311 -0.164899 -4.8764e-23)
(0.676919 -0.188522 -3.15924e-23)
(0.715716 -0.203274 -2.1885e-26)
(0.717717 -0.20774 -4.98575e-23)
(0.683476 -0.20151 -8.54672e-23)
(0.616992 -0.185236 0)
(0.524862 -0.160466 -3.54912e-22)
(0.415041 -0.129289 4.49518e-22)
(0.295534 -0.0939748 0)
(0.173666 -0.0565878 8.75508e-22)
(0.0554756 -0.0188062 -1.10675e-24)
(0.0164378 -0.00404231 1.02731e-23)
(0.0164298 -0.00403962 -1.05037e-23)
(0.0691831 -0.0171365 0)
(0.140923 -0.0353753 1.81316e-25)
(0.246559 -0.0628348 -2.56335e-26)
(0.140624 -0.035289 -1.81255e-25)
(0.0690093 -0.0170912 0)
(0.016398 -0.00402938 1.1106e-23)
(0.0163999 -0.00403294 1.08168e-23)
(0.380517 -0.0992995 9.6724e-23)
(0.501162 -0.133716 1.3099e-22)
(0.601244 -0.16383 3.41619e-23)
(0.673458 -0.187238 0)
(0.71199 -0.201819 -5.78762e-27)
(0.713864 -0.206169 0)
(0.679626 -0.199884 0)
(0.613272 -0.183627 1.05952e-22)
(0.521367 -0.158941 -3.9359e-22)
(0.411892 -0.127937 0)
(0.292865 -0.0928797 0)
(0.171698 -0.0558796 -1.04155e-24)
(0.0548495 -0.0183764 1.20926e-21)
(0.0163649 -0.00402404 1.12953e-23)
(0.0163582 -0.00402122 -1.16131e-23)
(0.0688429 -0.017055 0)
(0.140248 -0.0351966 4.01792e-25)
(0.245374 -0.0625096 -7.99888e-23)
(0.13997 -0.0351146 -6.12392e-25)
(0.0686753 -0.0170078 0)
(0.016314 -0.00401068 -1.21773e-23)
(0.0163283 -0.00401517 1.20546e-23)
(0.378675 -0.0987451 -8.96451e-23)
(0.498715 -0.132901 2.86155e-25)
(0.598275 -0.162756 0)
(0.670077 -0.18594 4.88268e-23)