/*--------------------------------*- C++ -*----------------------------------*\
| =========                 |                                                 |
| \\      /  F ield         | OpenFOAM: The Open Source CFD Toolbox           |
|  \\    /   O peration     | Version:  v1912                                 |
|   \\  /    A nd           | Website:  www.openfoam.com                      |
|    \\/     M anipulation  |                                                 |
\*---------------------------------------------------------------------------*/
FoamFile
{
    version     2.0;
    format      ascii;
    class       surfaceScalarField;
    location    "500";
    object      phi;
}
// * * * * * * * * * * * * * * * * * * * * * * * * * * * * * * * * * * * * * //

dimensions      [0 3 -1 0 0 0 0];
oriented        oriented;


internalField   nonuniform List<scalar> 
7354
(
-3.56095e-06
0.0013472
-1.32654e-05
0.00413243
-2.80504e-06
0.00135001
-3.39165e-05
0.00695032
-1.35458e-05
0.00414317
-3.84278e-06
0.00135385
-6.14494e-05
0.00968792
-3.36066e-05
0.00697038
-1.42324e-05
0.00415356
-2.79214e-06
0.00135664
-9.49398e-05
0.0121656
-6.04473e-05
0.00971476
-3.20691e-05
0.00698821
-1.15688e-05
0.00416234
-2.82926e-06
0.00135947
-0.000143469
0.0141814
-9.47785e-05
0.0122
-5.59607e-05
0.00973865
-3.04112e-05
0.00700706
-1.15151e-05
0.00417103
-2.81497e-06
0.00136229
-0.000184848
0.015512
-0.000136908
0.0142236
-9.18449e-05
0.0122358
-5.55611e-05
0.0097638
-2.59565e-05
0.0070215
-1.13542e-05
0.00417957
-1.81912e-06
0.0013641
-0.000236626
0.0160073
-0.000186018
0.0155611
-0.00013287
0.0142646
-8.61241e-05
0.0122664
-4.58105e-05
0.00978366
-2.27766e-05
0.00703292
-9.36589e-06
0.00418711
-1.7669e-06
0.00136587
-0.000276644
0.0155678
-0.00023034
0.0160516
-0.000177331
0.0156056
-0.000120638
0.0142991
-7.13365e-05
0.0122919
-4.155e-05
0.00980243
-1.97752e-05
0.00704333
-7.30938e-06
0.00419265
-1.66591e-06
0.00136754
-0.000314291
0.0142474
-0.000279164
0.0156166
-0.000218793
0.016093
-0.000150736
0.0156357
-9.96329e-05
0.0143274
-6.40457e-05
0.0123144
-3.72522e-05
0.00981991
-1.82664e-05
0.00705429
-6.43621e-06
0.00419742
-1.72107e-06
0.00136926
-0.000339544
0.0121632
-0.00032113
0.0142894
-0.000258812
0.0156567
-0.000186226
0.0161285
-0.000130029
0.0156661
-8.27465e-05
0.0143461
-5.23058e-05
0.0123295
-2.77799e-05
0.00982942
-1.53052e-05
0.00706315
-6.94691e-06
0.00420265
-1.7392e-06
0.001371
-0.000343424
0.00952567
-0.000351997
0.0121941
-0.000277172
0.0143077
-0.000206189
0.0156766
-0.00014825
0.0161468
-0.000104217
0.0156875
-6.92866e-05
0.0143631
-4.26191e-05
0.0123443
-2.73104e-05
0.00984143
-1.19531e-05
0.00706816
-4.3472e-06
0.00420526
-1.34127e-06
0.00137234
-0.00011426
0.00654739
-0.000193742
-0.000372564
0.00954624
-0.0002868
0.0122037
-0.000211562
0.0143131
-0.000159275
0.0156876
-0.000112715
0.0161553
-7.88585e-05
0.0156971
-5.12199e-05
0.0143717
-3.5646e-05
0.0123527
-1.8145e-05
0.00984762
-1.20195e-05
0.00707583
-6.06674e-06
0.00420998
-7.16772e-07
0.00137305
0.00215257
-8.41574e-05
-0.000200854
0.00655285
-0.000177168
0.00211087
-0.000152038
-0.000259684
0.00951912
-0.000190783
0.012183
-0.000150836
0.0143047
-0.000110102
0.015685
-8.71769e-05
0.0161636
-6.48577e-05
0.0157107
-4.52793e-05
0.0143813
-3.07535e-05
0.0123653
-2.27623e-05
0.00985836
-1.15396e-05
0.00708131
-4.83581e-06
0.0042141
-1.45093e-06
0.00137451
0.00137938
-2.49727e-05
0.00209319
-0.000183181
-0.000130132
0.00648298
-5.96777e-05
0.00206942
-0.000153398
0.00132131
-6.22262e-05
-3.17361e-05
-0.000141106
0.00946944
-0.000119141
0.0121513
-9.51624e-05
0.0142897
-7.90925e-05
0.015677
-6.23427e-05
0.0161611
-4.58334e-05
0.0157113
-3.94656e-05
0.01439
-2.56342e-05
0.0123681
-1.72551e-05
0.00986408
-1.24013e-05
0.00708887
-5.61351e-06
0.00421826
-2.22912e-06
0.00137673
0.000431514
-9.70553e-06
0.00130409
-8.34097e-05
-8.25575e-05
0.00202112
-8.18267e-05
-4.57304e-05
0.0063984
-1.07999e-05
0.00199777
-3.63259e-05
0.00125959
-3.89232e-05
-6.9974e-05
-0.000417694
0.000390715
-3.52467e-05
-1.79161e-05
-6.78039e-05
0.00941811
-6.50433e-05
0.0121211
-6.19659e-05
0.0142726
-5.07386e-05
0.0156653
-4.33249e-05
0.0161585
-3.77106e-05
0.0157095
-3.18852e-05
0.0143963
-2.5087e-05
0.012376
-2.17242e-05
0.0098734
-1.35006e-05
0.00709676
-7.67167e-06
0.00422371
-1.21058e-06
0.00137795
0.000252799
-1.55746e-06
0.00036525
-5.79449e-05
0.000343966
-6.12731e-05
0.00120674
-2.19443e-05
-7.02972e-06
0.00196922
-1.7187e-05
-1.65033e-05
0.00634756
-4.63308e-07
0.00196461
-6.18935e-06
0.00117642
-7.98405e-07
-5.20338e-06
-0.000320951
0.000302002
-1.9974e-05
-4.69593e-05
-0.000238848
0.000213365
-9.76375e-06
-3.9651e-06
-3.49974e-05
0.00938806
-3.85595e-05
0.0120977
-3.70341e-05
0.0142589
-3.79598e-05
0.01566
-3.1981e-05
0.0161528
-3.3525e-05
0.0157112
-2.63749e-05
0.0143976
-2.87074e-05
0.012383
-2.10957e-05
0.00988099
-1.55175e-05
0.0071046
-7.43903e-06
0.00422994
-2.88636e-06
0.00138083
7.47139e-05
0.000176098
-2.06779e-05
0.000155132
-4.03071e-05
0.000286743
-6.68576e-06
0.000281826
-2.1123e-06
0.00116069
-1.79038e-06
3.30334e-07
0.00195156
-3.45217e-06
-6.86492e-06
0.00631541
4.02506e-06
0.00195213
-1.03442e-06
0.0011545
1.04987e-06
-1.04705e-06
-0.000277123
0.000276728
-4.03391e-07
-5.00412e-07
-0.000108173
8.81986e-05
-7.07488e-05
6.0985e-05
-1.46008e-05
0.0093641
-2.35174e-05
0.0120842
-2.47391e-05
0.0142457
-2.24391e-05
0.0156504
-2.92283e-05
0.0161485
-2.58837e-05
0.0157107
-3.6961e-05
0.0144058
-3.37194e-05
0.0123956
-2.72029e-05
0.00989268
-1.85916e-05
0.00711576
-1.0354e-05
0.0042374
-1.95983e-06
0.00138279
4.03071e-05
8.15128e-05
7.94005e-05
0.000274978
-4.09094e-08
0.000275442
-1.32968e-07
0.00115106
-5.00354e-07
4.81533e-07
0.00194597
-7.02662e-07
-4.21271e-06
0.00630134
3.67605e-06
0.00194911
8.85705e-07
0.00114975
2.59426e-07
2.50007e-08
-0.000274249
0.000275095
2.03383e-07
1.45981e-07
-7.89001e-05
7.84967e-05
-6.17933e-06
0.00934676
-6.74477e-06
0.0120662
-1.25076e-05
0.0142357
-2.00469e-05
0.0156413
-2.53828e-05
0.016148
-3.70137e-05
0.0157107
-3.42292e-05
0.0144063
-3.68245e-05
0.0124052
-3.09239e-05
0.00990501
-2.02935e-05
0.0071257
-1.0769e-05
0.00424621
-2.66187e-06
0.00138545
7.84558e-05
7.83228e-05
0.00027482
-2.25209e-07
0.000275112
1.89847e-07
0.00114873
-8.78404e-08
4.01473e-07
0.00194497
-7.04054e-08
-9.06568e-07
0.00629417
1.89941e-06
0.00194804
6.03585e-07
0.0011495
-1.5979e-07
2.71304e-07
-0.000275
0.000275193
6.56217e-08
1.36981e-07
-7.84688e-05
7.86722e-05
-1.55092e-07
0.00934017
-6.39167e-06
0.0120601
-1.08297e-05
0.0142265
-1.47951e-05
0.0156307
-2.7767e-05
0.0161388
-4.11278e-05
0.0157176
-5.07914e-05
0.0144203
-4.3842e-05
0.0124181
-3.6645e-05
0.00992136
-2.57222e-05
0.00714065
-1.12278e-05
0.00425478
-3.42838e-06
0.00138888
7.8447e-05
7.86368e-05
0.000275094
1.10692e-08
0.000275418
7.82581e-08
0.00114889
2.12412e-07
3.33019e-07
0.00194727
-1.35338e-07
6.22903e-07
0.0062914
1.98921e-06
0.0019478
1.37092e-06
0.0011495
1.40697e-07
-1.47682e-07
-0.000275733
0.000275538
3.4491e-08
-4.35434e-08
-7.87738e-05
7.88394e-05
-3.27604e-07
0.00933411
4.26258e-07
0.0120489
-6.22444e-06
0.0142179
-2.53991e-05
0.0156283
-3.88409e-05
0.0161365
-4.98858e-05
0.0157167
-5.85926e-05
0.014435
-5.77619e-05
0.0124392
-4.66425e-05
0.00994228
-2.72116e-05
0.00715663
-1.1285e-05
0.00426263
-2.36715e-06
0.00139125
7.88505e-05
7.89288e-05
0.000275799
-4.82049e-08
0.000276009
1.23166e-07
0.00114864
3.32708e-07
3.91297e-07
0.00194817
2.48415e-07
4.83676e-07
0.00628868
1.91273e-06
0.00194871
1.45095e-06
0.00115008
2.53433e-07
-3.19182e-07
-0.000275701
0.000275885
-4.25151e-08
1.59617e-07
-7.88852e-05
7.89197e-05
5.52126e-06
0.00932901
6.76754e-07
0.012042
-1.01155e-05
0.0142027
-2.46899e-05
0.0156142
-4.95181e-05
0.0161361
-6.68252e-05
0.015725
-7.22752e-05
0.0144496
-6.79163e-05
0.0124605
-4.96315e-05
0.0099647
-2.96637e-05
0.00717501
-1.43008e-05
0.00427457
-3.08105e-06
0.00139433
7.88715e-05
7.89947e-05
0.000276203
1.38562e-08
0.000276733
-1.3854e-07
0.00115036
-3.09705e-07
2.72907e-07
0.00194827
9.19587e-07
2.01862e-06
0.00628969
2.49194e-06
0.00194989
2.9579e-07
0.00115128
1.96767e-07
3.29816e-07
-0.000276271
0.000276484
4.013e-08
1.43022e-07
-7.91543e-05
7.91118e-05
2.28176e-06
0.00932741
-2.66726e-06
0.0120345
-1.93972e-05
0.0141974
-4.26825e-05
0.0156073
-6.95656e-05
0.0161389
-9.10361e-05
0.0157437
-9.60807e-05
0.0144777
-7.91731e-05
0.01249
-5.44736e-05
0.00998951
-3.01272e-05
0.00719084
-1.22494e-05
0.00428374
-3.39831e-06
0.00139773
7.91256e-05
7.89871e-05
0.000276244
-6.971e-08
0.000276418
9.96033e-08
0.00115204
-1.56013e-07
3.24221e-07
0.00195061
1.29777e-06
1.99163e-06
0.00628959
3.87953e-07
0.00195195
1.15366e-06
0.00115189
2.60799e-07
1.7982e-07
-0.000276587
0.000277029
-2.44581e-07
1.6019e-07
-7.91301e-05
7.91702e-05
2.14595e-06
0.0093226
-5.90275e-06
0.012021
-2.30045e-05
0.0141777
-5.86158e-05
0.0155964
-9.05982e-05
0.0161384
-0.000111015
0.0157587
-0.000106573
0.0145051
-8.61595e-05
0.0125217
-5.93731e-05
0.0100188
-3.28206e-05
0.00721141
-1.35628e-05
0.0042939
-2.85894e-06
0.00140059
7.91005e-05
7.92001e-05
0.000276872
1.07297e-09
0.000277051
1.45049e-07
0.00115313
-2.74956e-07
3.31037e-07
0.00195373
2.13951e-07
1.95356e-06
0.00628781
1.97509e-06
0.00195276
1.35447e-06
0.0011543
-2.84639e-07
2.75798e-07
-0.000277137
0.000277368
2.94093e-08
9.38259e-08
-7.93603e-05
7.91157e-05
-1.79164e-07
0.00931687
-1.33155e-05
0.0120113
-4.54384e-05
0.0141645
-8.76861e-05
0.0155935
-0.000128085
0.0161555
-0.000138017
0.0157901
-0.000128948
0.0145479
-9.53411e-05
0.0125577
-5.90064e-05
0.0100449
-3.19669e-05
0.00722981
-1.1449e-05
0.00430249
-1.94111e-06
0.00140253
7.91168e-05
7.92618e-05
0.000277085
8.14892e-09
0.000277307
1.08722e-07
0.00115383
3.25272e-07
3.53991e-07
0.00195384
8.68846e-07
1.87207e-06
0.00628527
4.92809e-07
0.00195542
4.03089e-07
0.0011552
-1.75382e-07
1.59977e-07
-0.000277479
0.000277459
-2.64e-07
1.03866e-07
-7.93557e-05
7.93851e-05
-2.42721e-06
0.00930598
-2.39473e-05
0.0119898
-6.98245e-05
0.0141467
-0.000126217
0.0155916
-0.000162793
0.0161803
-0.000170199
0.0158314
-0.00013571
0.0145883
-9.83031e-05
0.012597
-6.0727e-05
0.0100737
-2.85002e-05
0.00724686
-1.09811e-05
0.00431153
-1.79253e-06
0.00140432
7.93932e-05
7.95019e-05
0.000277756
2.78869e-08
0.000277935
1.75247e-07
0.00115555
3.44855e-07
1.75024e-07
0.00195614
1.14976e-06
1.94967e-06
0.00628032
5.65622e-07
0.00195625
3.8652e-07
0.001156
1.61324e-07
-2.0506e-07
-0.000278034
0.000277827
3.17415e-08
6.06277e-08
-7.96058e-05
7.93418e-05
-8.5168e-06
0.00929055
-4.51988e-05
0.0119652
-0.000109412
0.0141298
-0.000170434
0.0155992
-0.000205094
0.0162152
-0.000182817
0.0158785
-0.000142626
0.0146326
-9.5926e-05
0.0126322
-5.14894e-05
0.0100967
-2.41079e-05
0.00725999
-8.76633e-06
0.00431851
-1.44283e-06
0.00140576
7.93697e-05
7.95449e-05
0.000278108
6.35298e-08
0.000278226
5.74323e-08
0.00115651
3.33801e-07
3.06338e-07
0.0019572
9.90662e-07
1.9303e-06
0.00627068
-8.01032e-07
0.00195738
3.89185e-07
0.00115696
2.65714e-07
-3.3709e-07
-0.000277934
0.000278337
-2.41878e-07
8.66173e-08
-7.96056e-05
7.96373e-05
-1.7776e-05
0.00926313
-7.66798e-05
0.0119325
-0.00016155
0.014121
-0.00022863
0.0156228
-0.000230257
0.0162626
-0.000196578
0.0159324
-0.000142153
0.0146788
-8.60273e-05
0.0126667
-4.67633e-05
0.0101194
-2.06565e-05
0.00727188
-5.81799e-06
0.00432288
-3.86773e-07
0.00140615
7.97008e-05
7.97583e-05
0.000278612
5.87708e-08
0.000278806
1.12945e-07
0.00115788
3.47942e-07
-2.76348e-07
0.00195804
1.2694e-06
2.02758e-06
0.00625339
-2.51385e-06
0.00195713
1.05876e-07
0.00115778
1.54759e-07
3.35081e-07
-0.000278384
0.000278675
-2.54544e-08
8.50033e-08
-7.98449e-05
7.9603e-05
-3.84721e-05
0.00922492
-0.000130422
0.0119013
-0.00023455
0.0141269
-0.000275456
0.015668
-0.000248697
0.0163147
-0.000187807
0.0159781
-0.000126257
0.0147191
-7.31896e-05
0.0126932
-3.87723e-05
0.0101375
-1.70659e-05
0.00728313
-3.45754e-06
0.00432595
-2.28472e-07
0.00140638
7.96618e-05
7.97747e-05
0.000278953
6.98168e-08
0.000278556
1.20478e-07
0.00115887
3.08457e-07
-1.27549e-07
0.00195884
3.2523e-07
2.03107e-06
0.00622126
-8.37201e-06
0.00195613
1.89836e-07
0.00115899
-1.47212e-07
1.31561e-07
-0.000279035
0.000279121
6.89397e-08
-1.4395e-07
-7.98597e-05
7.98343e-05
-7.69917e-05
0.00917149
-0.000205002
0.0118718
-0.000299096
0.0141505
-0.000296131
0.0157154
-0.000234445
0.0163614
-0.000168947
0.0160208
-0.000107314
0.0147532
-6.33033e-05
0.0127177
-3.24556e-05
0.0101529
-9.9054e-06
0.00728958
-2.6508e-06
0.00432837
7.79252e-07
0.0014056
7.99041e-05
8.00245e-05
0.00027942
9.57056e-09
0.000279247
4.51181e-08
0.00115884
3.13589e-07
1.63662e-07
0.0019577
4.68063e-07
-8.46295e-07
0.00616398
-1.88659e-05
0.00195102
-1.69257e-06
0.00115899
-2.9057e-07
3.31088e-07
-0.000279262
0.000279107
8.05054e-09
1.16737e-07
-7.98806e-05
7.99495e-05
-0.000146457
0.00911295
-0.000312959
0.0118857
-0.000341513
0.0141959
-0.000284368
0.0157653
-0.000209195
0.0164016
-0.000141218
0.0160547
-8.72373e-05
0.0147771
-4.79678e-05
0.0127332
-1.98995e-05
0.0101628
-5.99264e-06
0.00729292
1.33648e-06
0.00432782
1.16837e-06
0.00140443
7.99591e-05
8.00042e-05
0.000279408
1.25641e-08
0.000279466
1.05145e-07
0.00115923
3.19249e-07
-9.64951e-08
0.00195174
-1.57434e-06
-1.06481e-05
0.00607444
-4.62683e-05
0.00193704
-4.16518e-06
0.0011575
-1.05216e-07
1.45025e-07
-0.000279929
0.000279579
5.97704e-08
-1.3222e-07
-8.0121e-05
8.0129e-05
-0.000277869
0.00907786
-0.000369794
0.0119139
-0.000318376
0.0142299
-0.000237695
0.0157938
-0.000169033
0.0164294
-0.000107447
0.0160749
-6.40689e-05
0.0147932
-3.41182e-05
0.0127474
-1.15035e-05
0.0101684
-1.20225e-06
0.00729546
2.93225e-06
0.00432605
1.51724e-06
0.00140292
8.01416e-05
8.02467e-05
0.000279881
1.68883e-08
0.000279731
5.36226e-08
0.00115586
3.10071e-07
-2.47576e-07
0.00193369
-7.29145e-06
-5.41487e-05
0.00597278
-0.00012207
0.00190366
-1.62358e-05
0.00115162
-2.35817e-07
3.11971e-07
-0.000279757
0.000279844
-1.92705e-07
1.19444e-07
-8.01145e-05
8.01743e-05
-0.000386371
0.00909443
-0.00033711
0.0119327
-0.000252618
0.0142448
-0.000183101
0.0158079
-0.000123416
0.0164454
-8.00994e-05
0.0160909
-4.26475e-05
0.0148017
-1.74215e-05
0.0127533
-4.94828e-06
0.0101721
2.89883e-06
0.00729549
3.46874e-06
0.0043241
2.82063e-06
0.0014001
8.01911e-05
8.02448e-05
0.00028014
1.43779e-08
0.000279787
1.05117e-07
0.00114453
3.69442e-07
-5.66419e-07
0.0018793
-2.97926e-05
-0.000171258
0.0059675
-0.000209826
0.0018208
-6.35734e-05
0.00112973
-1.55557e-06
1.18797e-07
-0.000280035
0.000279729
6.9516e-08
6.47437e-08
-8.03642e-05
8.01715e-05
-0.000334032
0.00909136
-0.00023891
0.011919
-0.000174902
0.0142366
-0.000128831
0.0158133
-8.85332e-05
0.0164538
-5.5842e-05
0.0161041
-2.97113e-05
0.014814
-1.08096e-05
0.0127592
3.67709e-06
0.0101713
6.42329e-06
0.00729254
7.07729e-06
0.00431985
3.37998e-06
0.00139672
8.01859e-05
8.0291e-05
0.000280046
5.26985e-08
0.000279592
-1.12667e-07
0.00110401
-4.32486e-07
-3.64484e-06
0.00178346
-0.000133913
-0.000180486
0.00591191
-9.79619e-05
0.00175151
-0.000177877
0.00105331
-1.08989e-05
-1.96757e-06
-0.00027954
0.000278231
-2.46659e-07
1.70781e-07
-8.03557e-05
8.04253e-05
-0.000182851
0.0090353
-0.000146764
0.0118908
-0.000116412
0.0142242
-8.39334e-05
0.0158087
-5.73085e-05
0.0164553
-3.17076e-05
0.0161061
-1.39115e-05
0.0148171
-3.09789e-07
0.0127632
7.82113e-06
0.0101699
1.28921e-05
0.00728672
9.99683e-06
0.00431323
3.79597e-06
0.00139292
8.0478e-05
8.03653e-05
0.000278008
-2.08909e-07
0.000274584
-2.21067e-07
0.00097207
-1.45752e-05
-3.81001e-05
0.00170686
-0.000135834
-6.22132e-05
0.00580913
-1.78523e-05
0.00166666
-5.7769e-05
0.000924627
-6.65166e-05
-6.39176e-05
-0.000273207
0.00026412
-1.81207e-06
-5.90686e-07
-8.05361e-05
8.02894e-05
-8.52514e-05
0.00897378
-8.11685e-05
0.0118556
-6.90268e-05
0.0142093
-5.21035e-05
0.0158035
-3.35364e-05
0.0164571
-1.52177e-05
0.0161074
-5.47785e-07
0.0148174
1.19636e-05
0.012759
1.58117e-05
0.010167
1.44801e-05
0.00728224
9.51258e-06
0.00430751
4.81688e-06
0.0013881
8.00805e-05
7.98594e-05
0.000253614
-4.06893e-06
0.000225724
-1.02098e-05
0.000857559
-4.90427e-05
-1.97233e-05
0.00162748
-2.30325e-05
-1.83399e-05
0.00574207
1.51073e-07
0.00161681
-7.18112e-06
0.000807889
-1.35295e-06
-6.74598e-06
-0.000184339
0.000158468
-4.06454e-05
-2.25325e-05
-7.92687e-05
7.74567e-05
-4.03554e-05
0.00893297
-4.28247e-05
0.0118294
-3.81036e-05
0.0141953
-2.89729e-05
0.0157989
-1.58042e-05
0.0164577
-2.88163e-06
0.0161097
1.29492e-05
0.0148164
1.58522e-05
0.012759
2.06617e-05
0.0101608
1.75357e-05
0.00727422
1.35931e-05
0.00429874
5.06639e-06
0.00138304
7.33877e-05
6.31779e-05
0.000109425
8.97015e-05
0.000785561
-7.31152e-07
2.65883e-08
0.00160213
-3.6537e-06
-7.25892e-06
0.00570567
3.29593e-06
0.00160263
-3.57758e-07
0.000778372
2.8325e-07
-2.74766e-07
-8.29556e-05
8.16026e-05
-4.06454e-05
-1.79683e-05
0.00890811
-2.16876e-05
0.011813
-1.83701e-05
0.0141847
-7.34991e-06
0.0157905
5.10188e-07
0.0164543
1.2749e-05
0.0161099
1.58797e-05
0.0148164
2.52994e-05
0.0127544
2.48867e-05
0.0101535
2.31836e-05
0.00726463
1.56665e-05
0.00428814
5.87813e-06
0.00137716
8.08715e-05
8.0898e-05
0.000774642
-4.35019e-08
1.19982e-07
0.00159638
-1.00774e-06
-4.36133e-06
0.00568818
3.88645e-06
0.00159856
1.1228e-06
0.000774224
1.15318e-07
-5.59624e-08
-8.06233e-05
8.09065e-05
-4.51802e-06
0.00889094
-8.25691e-06
0.0118029
-3.47938e-06
0.0141808
3.4865e-06
0.0157875
1.41941e-05
0.0164529
1.99339e-05
0.0161059
3.18037e-05
0.0148099
3.25784e-05
0.0127467
3.24645e-05
0.0101442
2.77568e-05
0.00725254
1.74096e-05
0.00427661
6.80537e-06
0.00137035
8.0863e-05
8.0983e-05
0.000772954
1.01023e-07
1.61962e-07
0.0015941
9.17628e-08
-2.09904e-06
0.00568229
3.4706e-06
0.00159791
7.98328e-08
0.000773998
1.91746e-07
-1.13544e-07
-8.0927e-05
8.10424e-05
-2.29139e-07
0.00888292
2.25034e-06
0.0117971
5.52131e-06
0.0141788
1.18543e-05
0.0157898
2.39816e-05
0.0164488
3.06681e-05
0.016107
3.19435e-05
0.0148105
3.61888e-05
0.012743
3.49088e-05
0.010137
3.11433e-05
0.0072388
2.0692e-05
0.00426272
7.79387e-06
0.00136256
8.11434e-05
8.13053e-05
0.000773929
8.69192e-08
7.43437e-08
0.00159545
3.57729e-07
-9.71297e-07
0.00568028
2.75391e-06
0.00159805
8.73767e-07
0.000774122
3.27578e-08
-1.45811e-07
-8.11918e-05
8.13835e-05
2.71985e-06
0.00888245
8.90671e-06
0.0117937
1.57623e-05
0.0141749
2.31909e-05
0.0157906
2.70924e-05
0.0164524
4.05507e-05
0.0160984
4.62872e-05
0.0148004
4.84039e-05
0.0127295
4.2755e-05
0.0101254
3.59428e-05
0.00722355
2.3136e-05
0.00424738
8.7637e-06
0.0013538
8.14704e-05
8.15448e-05
0.000774362
5.81086e-08
5.93075e-08
0.00159725
-1.72164e-07
5.64955e-08
0.00568015
2.79046e-06
0.00159911
8.98183e-07
0.000775308
4.70726e-08
-1.19744e-07
-8.1399e-05
8.14317e-05
7.18338e-06
0.00888417
1.39713e-05
0.0117955
1.83302e-05
0.0141798
3.22198e-05
0.0157855
4.21743e-05
0.0164508
4.70267e-05
0.0160977
4.95992e-05
0.0147992
5.36429e-05
0.0127186
5.06904e-05
0.0101107
4.13499e-05
0.00720534
2.69315e-05
0.00422921
9.64302e-06
0.00134415
8.14898e-05
8.15491e-05
0.000775003
6.33814e-08
6.93949e-08
0.0015985
6.5856e-07
1.48972e-07
0.0056843
2.88607e-06
0.00160069
6.07966e-07
0.000775874
-5.81711e-08
8.57294e-08
-8.14294e-05
8.14765e-05
8.49035e-06
0.00888965
1.54176e-05
0.0117984
2.78954e-05
0.0141841
3.53995e-05
0.0157923
4.417e-05
0.0164536
5.44363e-05
0.0160928
6.17344e-05
0.0147911
6.0708e-05
0.0127086
5.82867e-05
0.0100938
4.52222e-05
0.00718705
3.00187e-05
0.00420883
1.09813e-05
0.00133317
8.15398e-05
8.16092e-05
0.000776391
6.58531e-08
7.53466e-08
0.00160014
6.9343e-07
1.33984e-06
0.00568839
3.06008e-06
0.00160238
6.44053e-07
0.000776888
5.16037e-08
5.94993e-08
-8.1695e-05
8.16368e-05
1.04636e-05
0.0088946
1.98773e-05
0.0118065
2.90475e-05
0.0141904
4.19633e-05
0.0157945
5.52633e-05
0.0164528
6.282e-05
0.0160917
7.10407e-05
0.0147808
7.01872e-05
0.0126967
6.58952e-05
0.0100731
5.39999e-05
0.00716307
3.25208e-05
0.00418729
1.18881e-05
0.00132128
8.17026e-05
8.1778e-05
0.000777646
-1.17672e-07
5.30949e-08
0.00160299
7.29739e-07
3.89693e-07
0.0056954
3.0605e-06
0.00160525
7.99459e-07
0.000778177
5.59513e-08
5.73905e-08
-8.18375e-05
8.18891e-05
1.17312e-05
0.00890275
2.18749e-05
0.0118136
3.53334e-05
0.0141971
4.67763e-05
0.015803
6.17186e-05
0.0164539
7.23192e-05
0.0160905
7.78071e-05
0.0147732
8.42811e-05
0.0126783
7.54881e-05
0.0100516
6.05134e-05
0.00713507
3.78358e-05
0.00416135
1.21826e-05
0.0013091
8.17714e-05
8.18245e-05
0.000778711
6.80635e-08
1.27614e-07
0.00160488
7.64419e-07
1.48003e-06
0.00570254
3.11201e-06
0.0016072
7.43683e-07
0.000779499
9.35508e-08
-8.25048e-08
-8.18819e-05
8.19378e-05
1.1785e-05
0.00891284
2.44732e-05
0.0118245
4.14534e-05
0.0142024
5.88359e-05
0.0158059
7.20872e-05
0.0164541
8.57225e-05
0.0160825
9.3514e-05
0.0147639
9.28919e-05
0.0126609
8.60969e-05
0.010026
6.63276e-05
0.00710658
4.03066e-05
0.00413322
1.05998e-05
0.0012985
8.20059e-05
8.21335e-05
0.000780117
7.24158e-08
7.37545e-08
0.0016079
7.75863e-07
3.26787e-07
0.00571125
2.75226e-06
0.00161026
7.56565e-07
0.000780925
4.90971e-08
-1.13526e-07
-8.2051e-05
8.21445e-05
1.31278e-05
0.00892419
2.84793e-05
0.0118375
4.6051e-05
0.0142152
6.52241e-05
0.0158127
8.08731e-05
0.016459
9.39859e-05
0.0160821
0.000105612
0.0147512
0.000101749
0.0126452
9.52488e-05
0.00999708
7.55104e-05
0.00707138
4.30654e-05
0.00410076
1.31981e-05
0.0012853
8.22169e-05
8.22907e-05
0.000781562
6.80827e-08
7.06737e-08
0.00160991
6.73162e-07
8.70726e-07
0.00572236
1.14812e-06
0.0016122
4.62705e-07
0.000782374
-1.12212e-07
5.72424e-08
-8.21771e-05
8.22262e-05
1.62681e-05
0.0089364
3.29503e-05
0.0118506
5.5328e-05
0.0142251
7.16273e-05
0.015822
9.24953e-05
0.0164605
0.000107923
0.0160798
0.000117152
0.0147358
0.000120109
0.0126204
0.000106877
0.00996572
8.14283e-05
0.00703301
4.36387e-05
0.00407032
3.16977e-05
0.00125361
8.22943e-05
8.2365e-05
0.000782904
6.34322e-08
7.98578e-08
0.0016132
-1.32608e-07
2.06428e-06
0.00573395
2.6081e-06
0.00161615
-1.8024e-06
0.000783167
1.12702e-07
8.64209e-08
-8.24222e-05
8.231e-05
1.99799e-05
0.00894937
3.97056e-05
0.0118662
5.89616e-05
0.0142377
8.28553e-05
0.0158316
0.000105782
0.0164626
0.000123752
0.0160732
0.000132869
0.014723
0.000128796
0.0125984
0.00011625
0.0099309
8.68249e-05
0.00698983
7.42739e-05
0.00402774
7.38948e-05
8.23734e-05
8.24533e-05
0.000783129
3.38536e-08
-1.2798e-07
0.00162172
-3.5045e-06
4.16996e-06
0.00574429
5.47361e-06
0.00161929
6.51638e-06
-1.47421e-06
0.000781323
1.09568e-08
-8.18188e-09
-8.25397e-05
8.26524e-05
2.4416e-05
0.00896466
4.1752e-05
0.0118834
6.68627e-05
0.0142537
9.21065e-05
0.0158453
0.000115629
0.0164707
0.000134962
0.0160711
0.00014685
0.014705
0.000148061
0.0125666
0.000129964
0.00988776
0.000114914
0.00694919
0.000135818
8.26862e-05
8.25583e-05
0.000461052
-9.72375e-09
-2.47313e-07
0.000317024
0.00162201
-5.56462e-07
2.00255e-06
5.23038e-06
0.005758
5.47757e-06
0.00162375
1.40524e-06
2.32519e-06
0.000486289
-1.87211e-05
0.000491679
-6.86426e-06
-8.25501e-05
8.2561e-05
2.40873e-05
0.00898232
4.88074e-05
0.0119015
7.50117e-05
0.0142708
0.000107859
0.0158531
0.000135504
0.0164702
0.000154949
0.016063
0.000165303
0.0146877
0.000162146
0.0125344
0.000155115
0.00984756
0.000179204
8.25513e-05
8.2304e-05
0.000295234
3.06882e-06
0.000493502
-2.37949e-06
0.000496209
-7.04199e-07
0.00162587
1.25576e-06
1.85487e-06
4.38275e-06
0.00577339
4.30542e-06
0.00162916
7.73903e-07
1.41534e-06
0.000497053
5.61051e-07
0.000498165
1.21349e-06
0.000289734
-1.36449e-06
2.74266e-05
0.0090037
5.34434e-05
0.011923
8.57226e-05
0.014293
0.000117209
0.0158713
0.000145878
0.0164793
0.000171606
0.0160567
0.000177936
0.014672
0.0001872
0.0125024
0.000210865
8.53728e-05
0.000288418
-1.06288e-06
0.000288083
-3.69656e-07
0.000498764
6.5706e-07
0.000499819
7.99364e-07
0.00163159
6.15495e-07
1.34156e-06
5.59895e-06
0.00579046
4.75957e-06
0.0016342
6.48619e-07
1.04514e-06
0.000500366
2.27282e-07
0.000500984
7.97321e-07
0.000288589
5.53246e-08
0.000289709
9.40066e-08
8.40083e-05
3.02053e-05
0.00902694
6.17825e-05
0.011947
9.72626e-05
0.0143129
0.00013476
0.0158825
0.00016589
0.016485
0.000183269
0.0160513
0.000208128
0.014651
0.000229234
8.29454e-05
8.25757e-05
0.000290101
2.64938e-07
0.00029065
2.50281e-07
0.000500944
6.54826e-07
0.000502069
2.17202e-07
0.0016379
7.50144e-07
1.14579e-06
6.0862e-06
0.00580935
5.22759e-06
0.00164077
7.35567e-07
1.15848e-06
0.00050231
4.07564e-07
0.000502818
5.37039e-07
0.000290688
1.88664e-07
0.000291323
1.62481e-07
8.26311e-05
8.27251e-05
3.62411e-05
0.00905248
6.82837e-05
0.0119759
0.000109714
0.0143379
0.000148016
0.0159003
0.000176349
0.0164919
0.000211702
0.0160478
0.000234821
8.299e-05
8.32403e-05
0.000291819
1.58505e-07
0.000292081
-4.44377e-08
0.000503245
3.23106e-07
0.000503937
4.53525e-07
0.00164479
8.33318e-07
1.23502e-06
5.72397e-06
0.00583394
5.92837e-06
0.001648
8.14732e-07
1.19552e-06
0.000504207
4.65822e-07
0.000505154
2.11256e-07
0.000292371
1.17861e-07
0.000292792
1.15337e-07
8.34289e-05
8.35914e-05
3.89763e-05
0.00908179
8.07561e-05
0.0120049
0.000124778
0.0143612
0.000161395
0.0159153
0.000200252
0.0165034
0.000223896
8.37499e-05
8.37055e-05
0.000292994
1.21877e-07
0.000293318
1.29706e-07
0.00050521
7.77435e-07
0.000505942
5.02959e-07
0.00165129
9.15025e-07
1.52333e-06
7.54042e-06
0.00585884
6.54029e-06
0.00165516
7.3136e-07
1.32689e-06
0.000506676
8.08993e-08
0.000507268
6.03807e-07
0.000293823
-3.9654e-08
0.000293897
1.36854e-07
8.38233e-05
8.39387e-05
4.67182e-05
0.00911583
9.13772e-05
0.0120383
0.000134631
0.014388
0.000175626
0.0159399
0.000199096
8.40605e-05
8.41902e-05
0.000294489
1.8627e-07
0.000294842
1.49801e-07
0.000507407
7.75817e-07
0.000508786
1.43961e-07
0.00165993
1.09148e-06
1.67727e-06
8.98322e-06
0.00588881
7.75961e-06
0.00166401
9.30325e-07
1.52862e-06
0.000509013
5.04923e-07
0.000509665
6.74362e-07
0.000294799
1.2354e-07
0.000295464
-6.14093e-08
8.41506e-05
8.42874e-05
5.56106e-05
0.00915159
0.000106931
0.012066
0.000146659
0.0144169
0.000160433
8.44737e-05
8.46235e-05
0.0002961
1.40452e-07
0.000296115
1.28422e-07
0.000510292
4.6428e-07
0.00051136
6.09616e-07
0.00166979
1.30218e-06
1.90144e-06
1.00716e-05
0.00592446
9.89389e-06
0.00167466
1.16303e-06
1.72418e-06
0.00051168
6.1052e-07
0.000512699
5.08899e-07
0.000296425
1.95401e-07
0.000297126
-2.74285e-08
8.4747e-05
8.46856e-05
7.01869e-05
0.00918834
0.000111992
0.0121007
0.000117748
8.48261e-05
8.49545e-05
0.000297437
1.53598e-07
0.000297881
1.65395e-07
0.000513147
8.54187e-07
0.000514318
7.30659e-07
0.00168105
2.10757e-06
1.57952e-06
1.3705e-05
0.00596632
1.46224e-05
0.00168762
1.92723e-06
1.39313e-06
0.000515166
3.15548e-07
0.000515927
9.63395e-07
0.000298317
1.74367e-07
0.000298648
1.78097e-07
8.51499e-05
8.51225e-05
8.20337e-05
0.00921829
7.39864e-05
8.5276e-05
8.54414e-05
0.000299277
2.25137e-07
0.000299979
2.84737e-08
0.00051709
9.44399e-07
0.000518259
4.10666e-07
0.00169633
2.51468e-06
2.48697e-06
1.91858e-05
0.00600585
2.3315e-05
0.00170462
2.88138e-06
3.44651e-06
0.000519379
8.06688e-07
0.000519736
1.03676e-06
0.000300114
1.81396e-07
0.000300889
1.88437e-07
8.56158e-05
8.57939e-05
4.44109e-05
8.6019e-05
8.60475e-05
0.000301626
2.06954e-07
0.000301832
2.04891e-07
0.000521166
1.08377e-06
0.00052302
6.33503e-07
0.00171558
4.08877e-06
4.13853e-06
4.2499e-05
1.56852e-05
0.0017265
4.92633e-06
7.47056e-06
0.000524674
1.22727e-06
0.000526181
1.93994e-06
0.000302609
2.92341e-08
0.000303449
1.96675e-07
8.62289e-05
8.64173e-05
8.66243e-05
8.68292e-05
0.000304306
2.26667e-07
0.000304698
2.4175e-07
0.000528544
1.72545e-06
0.000530414
2.26802e-06
0.00174416
1.00112e-05
1.4825e-05
2.14454e-05
8.8706e-06
0.000532869
2.47205e-06
0.000536607
3.7323e-06
0.000305624
3.01585e-07
0.000307181
3.8321e-07
8.68584e-05
8.70551e-05
8.72818e-05
8.75235e-05
0.000308479
4.27266e-07
0.000310144
6.03068e-07
0.000539695
6.92279e-06
0.000544177
1.03429e-05
0.000550369
1.52542e-05
1.33542e-05
0.000312013
6.02505e-07
0.000314758
9.87524e-07
8.78251e-05
8.82083e-05
8.86356e-05
8.92386e-05
0.000319639
2.04129e-06
0.000325237
4.74493e-06
0.00033048
1.00112e-05
2.05836e-05
8.98411e-05
9.08286e-05
9.28699e-05
9.76148e-05
0.000107626
1.36475e-05
-1.36474e-05
-5.85559e-05
1.99017e-05
5.23018e-05
7.03632e-06
-2.06839e-05
-7.07563e-05
1.92365e-05
-0.000116819
2.66643e-05
0.000110056
1.61796e-05
3.61223e-05
3.4802e-06
-2.41639e-05
1.17658e-05
-7.90426e-05
-0.000127026
2.94428e-05
-2.27693e-05
-0.00040552
6.33041e-05
0.000391648
0.000103466
6.82345e-06
2.92992e-05
1.53718e-06
-2.57015e-05
1.85021e-05
-0.000133763
6.91636e-06
-8.44221e-05
6.66574e-05
-0.000424233
-4.11089e-05
-0.00141942
0.00137397
0.000149871
-1.46297e-05
0.000371879
-6.70996e-06
9.56602e-05
2.35297e-06
2.6946e-05
8.00225e-07
-2.6502e-05
1.43361e-05
-0.000141183
3.99815e-06
-8.76201e-05
-4.25644e-05
0.000159218
-0.00146942
-7.54055e-06
-0.00044492
-2.45975e-05
0.000107431
-1.15132e-05
-0.0019937
0.00194036
0.000203217
0.000353455
-4.34486e-06
-1.82944e-06
9.13029e-05
1.03945e-06
2.59059e-05
2.97397e-07
-2.67994e-05
-0.000144725
2.26724e-06
-8.95893e-05
0.000214995
-0.00204948
-3.07736e-05
0.000130541
-0.00155023
-1.89599e-05
-6.36416e-06
-0.000465831
-3.49745e-06
0.000178136
-1.42337e-06
-0.00232619
0.00226797
0.000261433
8.79973e-05
-4.74529e-07
8.66419e-05
2.54314e-05
3.33247e-07
-2.71319e-05
-0.000148822
1.57414e-06
-9.08298e-05
0.000274611
-0.0023858
0.000209106
-0.00212805
0.000115993
-0.00163279
-1.57715e-05
-1.76518e-05
-0.000478448
-2.5198e-06
-3.82273e-06
-0.000150745
0.000244435
-2.11676e-07
-0.00240601
0.00235132
0.000316119
2.88413e-07
-2.74203e-05
1.4954e-06
-9.20368e-05
0.000328928
-0.00246032
0.000281189
-0.00245789
0.000206515
-0.00221857
0.00012321
-0.00171773
-2.03398e-05
-1.7938e-05
0.000490478
-0.000500493
-1.52868e-06
-4.22711e-06
-2.9172e-06
-2.7034e-06
0.000153072
-1.24751e-06
-0.000154344
0.000302562
-0.00221648
0.00217436
0.000358242
2.82749e-07
-2.77028e-05
-9.30013e-05
0.000368894
-0.00225645
0.000340709
-0.00251984
0.000288918
-0.00254029
0.000218438
-0.0023138
0.000147324
-0.00181267
-3.14941e-05
-2.08906e-05
0.000511754
-0.00052431
-7.78251e-06
-6.67574e-06
0.000157829
-0.000149585
-9.77172e-06
0.00015725
-3.64855e-06
0.000155992