/*--------------------------------*- C++ -*----------------------------------*\
| =========                 |                                                 |
| \\      /  F ield         | OpenFOAM: The Open Source CFD Toolbox           |
|  \\    /   O peration     | Version:  v1912                                 |
|   \\  /    A nd           | Website:  www.openfoam.com                      |
|    \\/     M anipulation  |                                                 |
\*---------------------------------------------------------------------------*/
FoamFile
{
    version     2.0;
    format      ascii;
    class       volVectorField;
    location    "160";
    object      U;
}
// * * * * * * * * * * * * * * * * * * * * * * * * * * * * * * * * * * * * * //

dimensions      [0 1 -1 0 0 0 0];


internalField   nonuniform List<vector> 
3753
(
(0.0487659 0.0206492 0)
(0.15022 0.0618575 2.52337e-23)
(0.048267 0.0204453 -1.17147e-23)
(0.253403 0.102309 0)
(0.148716 0.0612499 -1.24147e-23)
(0.0477908 0.0202442 1.17848e-23)
(0.353994 0.140115 -8.91966e-21)
(0.250909 0.101314 -9.73647e-24)
(0.147268 0.060658 -1.20125e-20)
(0.0473306 0.020048 1.09735e-23)
(0.445491 0.172843 7.83292e-21)
(0.350528 0.138747 -8.57768e-21)
(0.248469 0.100335 9.81795e-21)
(0.145837 0.0600726 1.11231e-23)
(0.0468692 0.0198539 -1.10904e-20)
(0.519986 0.1977 -6.82711e-24)
(0.441091 0.171129 7.54393e-21)
(0.347117 0.137405 0)
(0.246074 0.0993804 9.0419e-24)
(0.144423 0.059493 -1.11497e-23)
(0.0464237 0.0196655 0)
(0.569563 0.212123 2.59067e-25)
(0.514741 0.195685 6.87162e-21)
(0.436757 0.169457 6.95084e-24)
(0.343773 0.136096 -7.96316e-21)
(0.243699 0.0984253 -9.05591e-24)
(0.143047 0.0589272 0)
(0.045976 0.0194767 0)
(0.588009 0.214411 -6.3716e-24)
(0.563593 0.20986 -6.46892e-21)
(0.509589 0.19373 0)
(0.432516 0.167821 6.98897e-21)
(0.340457 0.134788 0)
(0.24136 0.0974822 0)
(0.141681 0.0583662 0)
(0.0455278 0.0192873 -9.99677e-21)
(0.572423 0.204246 0)
(0.581463 0.211961 6.43256e-21)
(0.55774 0.207672 0)
(0.504536 0.191813 1.21626e-23)
(0.428307 0.166194 -1.95843e-23)
(0.33717 0.133491 0)
(0.239046 0.0965516 0)
(0.140317 0.0578043 0)
(0.0450909 0.0191009 9.23447e-24)
(0.524053 0.182858 7.20252e-24)
(0.565443 0.201665 -6.54165e-21)
(0.575043 0.209604 0)
(0.551995 0.205534 6.01365e-21)
(0.499528 0.189913 -1.2174e-23)
(0.424136 0.164579 5.00503e-25)
(0.333925 0.13221 0)
(0.236754 0.0956242 0)
(0.138967 0.0572475 0)
(0.0446664 0.018923 -9.27897e-24)
(0.44801 0.152779 3.9661e-24)
(0.516749 0.180184 -3.53038e-24)
(0.558607 0.199209 6.31588e-21)
(0.568782 0.207322 -5.89244e-21)
(0.546342 0.203427 5.79982e-21)
(0.494574 0.18803 0)
(0.420013 0.16298 1.24087e-23)
(0.330702 0.130932 0)
(0.234486 0.09471 0)
(0.137653 0.0567046 -9.25174e-21)
(0.0442381 0.0187449 0)
(0.352038 0.117282 -4.91314e-21)
(0.44041 0.150021 2.63036e-23)
(0.509637 0.177701 -6.7214e-21)
(0.552037 0.196868 2.41953e-23)
(0.562678 0.205087 -5.66324e-21)
(0.540766 0.201346 0)
(0.489677 0.186163 0)
(0.415918 0.161389 -5.73709e-24)
(0.327527 0.129674 0)
(0.232247 0.0937986 7.51287e-21)
(0.13634 0.0561658 8.90053e-21)
(0.0438171 0.0185668 0)
(0.245006 0.0797334 6.9251e-21)
(0.34393 0.114392 -4.67579e-24)
(0.433096 0.147551 -1.37002e-24)
(0.502977 0.175385 0)
(0.545725 0.194599 0)
(0.556704 0.2029 -2.1902e-23)
(0.53527 0.199291 5.38404e-21)
(0.484822 0.184315 0)
(0.411877 0.159816 5.74283e-24)
(0.324365 0.128416 0)
(0.230032 0.0929063 -7.21966e-21)
(0.135059 0.0556369 4.09623e-24)
(0.0434008 0.018389 0)
(0.235248 0.0764258 -2.73537e-21)
(0.159581 0.0511462 2.37799e-21)
(0.163747 0.0525261 -2.41021e-21)
(0.336363 0.111909 0)
(0.426606 0.145345 7.36316e-21)
(0.496757 0.17319 -6.38449e-21)
(0.539642 0.192414 0)
(0.550854 0.200755 -5.27429e-21)
(0.52985 0.197267 9.89319e-24)
(0.480034 0.182488 5.25417e-21)
(0.407874 0.15826 0)
(0.32127 0.127189 0)
(0.227859 0.0920237 -1.42542e-25)
(0.133786 0.055111 -4.10307e-24)
(0.042992 0.0182138 0)
(0.226965 0.073717 1.22546e-21)
(0.146649 0.0471418 2.33377e-21)
(0.15327 0.0486659 2.36856e-21)
(0.104772 0.0332892 -2.11645e-21)
(0.108469 0.0343874 5.34448e-22)
(0.330322 0.109855 -8.60018e-21)
(0.420828 0.143342 7.10939e-21)
(0.490902 0.171126 -2.34989e-23)
(0.533753 0.190298 0)
(0.545129 0.198658 -1.01772e-23)
(0.524517 0.195272 -4.97137e-21)
(0.47532 0.180689 0)
(0.403942 0.156726 2.54557e-24)
(0.318215 0.125971 2.7908e-24)
(0.225726 0.0911587 -3.316e-24)
(0.132536 0.0545911 0)
(0.0426117 0.018052 0)
(0.221902 0.0718677 2.7441e-21)
(0.139426 0.0445458 -4.53892e-21)
(0.142019 0.0454109 0)
(0.0879412 0.0280829 -5.37686e-22)
(0.097172 0.0302833 0)
(0.0631215 0.0199129 4.33805e-23)
(0.0653842 0.0207107 7.07675e-22)
(0.0667396 0.0210182 -7.41537e-22)
(0.325416 0.108174 3.35099e-23)
(0.41559 0.14153 -9.80707e-25)
(0.485337 0.16917 8.67581e-25)
(0.528047 0.188251 0)
(0.539521 0.196602 0)
(0.519274 0.19331 0)
(0.470678 0.178913 0)
(0.400068 0.155213 -2.54841e-24)
(0.315229 0.124782 5.59089e-21)
(0.223636 0.0903064 -3.04532e-24)
(0.131348 0.0540955 7.54864e-21)
(0.0422207 0.0178878 0)
(0.218461 0.0707122 -2.56439e-21)
(0.13648 0.0434465 4.38799e-21)
(0.137608 0.0437411 -8.8215e-21)
(0.0818586 0.0257389 2.56417e-21)
(0.0835784 0.0264284 -5.28707e-22)
(0.04205 0.0134981 6.92951e-22)
(0.0454632 0.0144266 2.365e-23)
(0.0592433 0.0185658 -2.29442e-23)
(0.0524584 0.0155491 4.1579e-22)
(0.0364815 0.0115122 -6.67676e-22)
(0.0381796 0.012014 1.00758e-23)
(0.0389865 0.0121978 1.03557e-23)
(0.321182 0.10675 0)
(0.410729 0.139862 -6.7977e-21)
(0.480021 0.167303 2.27732e-23)
(0.522497 0.18626 0)
(0.534029 0.19459 4.53475e-24)
(0.514127 0.191381 4.61665e-21)
(0.466104 0.177164 -4.66289e-21)
(0.396279 0.153732 -9.07813e-25)
(0.312306 0.123613 0)
(0.221611 0.0894765 -6.11219e-21)
(0.130171 0.0536069 7.23479e-21)
(0.0418484 0.0177311 0)
(0.215674 0.06985 2.41323e-21)
(0.134659 0.0429048 4.21536e-21)
(0.135427 0.0430387 4.32049e-21)
(0.0802921 0.0252011 -3.93997e-21)
(0.0808989 0.025396 5.03326e-21)
(0.0388756 0.0121298 5.39456e-24)
(0.0390945 0.0121834 -2.09126e-21)
(0.0402391 0.0126448 7.59378e-22)
(0.039413 0.0123722 -3.32446e-23)
(0.0138904 0.00452786 -4.80124e-22)
(0.0154132 0.00506961 0)
(0.0337948 0.0102195 -6.1172e-22)
(0.023068 0.00552425 -3.05651e-22)
(0.0116683 0.00374286 4.69935e-22)
(0.0123238 0.00384732 0)
(0.0125636 0.0039081 0)
(0.317374 0.105482 7.86622e-21)
(0.406139 0.138288 6.53342e-21)
(0.474889 0.165507 1.057e-23)
(0.517096 0.184325 4.94623e-21)
(0.528648 0.192616 -4.54161e-21)
(0.50906 0.189485 4.41104e-21)
(0.461637 0.175452 -4.46255e-21)
(0.392578 0.152281 4.70268e-21)
(0.309463 0.122471 0)
(0.219641 0.0886721 -5.85701e-21)
(0.129039 0.0531345 0)
(0.0414837 0.0175785 0)
(0.213208 0.0690806 2.37007e-21)
(0.133158 0.042465 3.01215e-23)
(0.133788 0.0425723 0)
(0.0793607 0.024935 -9.7669e-22)
(0.0798019 0.0250504 -3.88899e-21)
(0.0384254 0.0119813 5.23416e-24)
(0.0384707 0.0119758 -1.05118e-23)
(0.0386906 0.0120434 -1.37004e-21)
(0.0385857 0.0120427 5.28116e-24)
(0.0124068 0.00384977 -9.20595e-22)
(0.012473 0.00387381 -1.91971e-24)
(0.0129172 0.0040666 -5.10779e-22)
(0.0125793 0.00392863 0)
(0.0109339 0.00354616 3.05709e-22)
(0.00641009 0.0014824 6.14892e-23)
(0.31382 0.104305 -1.53596e-20)
(0.401771 0.136801 1.24482e-23)
(0.469927 0.163768 -5.2838e-21)
(0.511815 0.18243 -4.76237e-21)
(0.52337 0.190683 2.0949e-24)
(0.504107 0.187624 -2.11396e-24)
(0.457262 0.173771 -8.57151e-21)
(0.38897 0.150861 -4.5037e-21)
(0.306703 0.12136 0)
(0.217728 0.0878844 0)
(0.127939 0.0526788 -3.15827e-24)
(0.0411165 0.0174228 6.49814e-21)
(0.210907 0.0683555 1.34606e-20)
(0.131757 0.0420344 3.82666e-24)
(0.132369 0.0421491 -3.98904e-21)
(0.0785376 0.0246952 -3.69855e-21)
(0.0789347 0.0248091 1.2935e-25)
(0.0380717 0.0118856 -1.28737e-21)
(0.038131 0.0118727 1.29016e-21)
(0.0382983 0.0119166 0)
(0.0382172 0.0119274 -1.31303e-21)
(0.0122902 0.00381301 8.88489e-22)
(0.0122945 0.0038164 -8.94082e-22)
(0.0123556 0.0038333 -9.09368e-22)
(0.012325 0.00383041 -9.02245e-22)
(0.31048 0.103199 -1.47684e-23)
(0.39756 0.13536 0)
(0.465087 0.162074 5.07751e-21)
(0.506652 0.180581 -4.57977e-21)
(0.518201 0.188783 -2.09681e-24)
(0.499253 0.185799 4.05684e-21)
(0.453 0.172128 4.09521e-21)
(0.385455 0.149472 2.05661e-24)
(0.304015 0.120274 0)
(0.215882 0.0871279 0)
(0.126853 0.0522256 -6.31212e-21)
(0.040786 0.0172773 2.31427e-24)
(0.208724 0.0676489 -4.38629e-21)
(0.130402 0.0416126 -3.80999e-21)
(0.130995 0.0417225 -3.85795e-21)
(0.0777351 0.0244525 3.49413e-24)
(0.078136 0.0245708 3.60831e-24)
(0.0377027 0.0117743 0)
(0.0377838 0.01177 -1.26811e-21)
(0.0379475 0.0118234 0)
(0.037882 0.0118274 4.93519e-24)
(0.0121746 0.00378236 1.41903e-24)
(0.0122042 0.00378356 8.69354e-22)
(0.0122509 0.00379633 -8.81375e-22)
(0.0122188 0.00379501 8.71748e-22)
(0.307238 0.102121 7.24209e-21)
(0.393465 0.133966 2.78118e-24)
(0.460372 0.160424 4.88081e-21)
(0.501582 0.178759 0)
(0.513129 0.186917 0)
(0.49451 0.18401 0)
(0.448845 0.17052 3.83449e-24)
(0.382052 0.148123 4.11877e-21)
(0.301433 0.119229 0)
(0.214086 0.0863867 -2.42447e-24)
(0.125804 0.0517823 -1.20317e-20)
(0.0404453 0.0171378 0)
(0.206579 0.0669606 -8.34788e-21)
(0.1291 0.0411904 3.67764e-21)
(0.129676 0.0413031 3.72247e-21)
(0.0769505 0.0242121 -8.81621e-22)
(0.0773424 0.0243227 -3.49742e-24)
(0.0373366 0.0116626 0)
(0.0374133 0.01166 0)
(0.0375742 0.0117083 -1.24033e-21)
(0.0375121 0.0117155 0)
(0.0120568 0.00374574 -8.38485e-22)
(0.0120934 0.00374895 1.68907e-21)
(0.0121527 0.0037717 -3.35733e-24)
(0.0121305 0.00376727 -8.49404e-22)
(0.304117 0.101088 0)
(0.389484 0.132605 -2.78588e-24)
(0.45574 0.1588 2.36062e-24)
(0.496607 0.176971 4.22546e-21)
(0.508155 0.185084 0)
(0.489877 0.182256 3.7521e-21)
(0.444805 0.16895 -3.74956e-21)
(0.378767 0.146813 0)
(0.298928 0.11821 2.03785e-24)
(0.212329 0.0856597 4.85349e-21)
(0.124788 0.0513623 2.86911e-24)
(0.0401006 0.0169943 -1.07198e-23)
(0.204533 0.0662952 2.03786e-21)
(0.127817 0.040787 1.45474e-23)
(0.128393 0.0408966 3.60682e-21)
(0.0761836 0.0239658 -3.27197e-24)
(0.0765562 0.0240768 -8.66953e-22)
(0.0369655 0.0115468 0)
(0.0370327 0.0115422 1.17492e-21)
(0.0372194 0.0115994 0)
(0.0371494 0.0115964 0)
(0.0119494 0.00371245 -8.15469e-22)
(0.0119815 0.00371593 8.21437e-22)
(0.0120291 0.00373205 8.29819e-22)
(0.0120024 0.00372906 -8.25862e-22)
(0.30107 0.100071 0)
(0.385575 0.131269 -5.44366e-21)
(0.451174 0.157197 -4.50936e-21)
(0.491706 0.175207 -5.68386e-24)
(0.503277 0.183278 3.97519e-23)
(0.485358 0.180535 0)
(0.440902 0.16742 -3.59644e-21)
(0.375586 0.145537 0)
(0.296486 0.117214 -3.97433e-24)
(0.21062 0.0849573 0)
(0.123775 0.0509427 5.42926e-21)
(0.0397801 0.016859 1.07263e-20)
(0.20252 0.0656423 -1.96647e-21)
(0.126588 0.040385 -3.42228e-21)
(0.127133 0.0404936 -3.51464e-21)
(0.0754422 0.0237374 -3.25294e-21)
(0.0758208 0.0238442 3.27585e-24)
(0.0366042 0.0114289 0)
(0.036675 0.0114305 4.47632e-24)
(0.036834 0.01148 1.15461e-21)
(0.0367559 0.0114832 -4.47256e-24)
(0.0118237 0.00367308 -7.91744e-22)
(0.0118471 0.0036748 7.97774e-22)
(0.01192 0.00369862 -8.082e-22)
(0.0118859 0.00368911 -8.03147e-22)
(0.29807 0.0990725 6.32214e-21)
(0.38171 0.129946 0)
(0.446673 0.155616 0)
(0.486871 0.173461 -3.8193e-21)
(0.498492 0.181498 7.08992e-24)
(0.480963 0.178846 3.39448e-21)
(0.43711 0.165924 1.70755e-24)
(0.37249 0.144295 0)
(0.294112 0.116248 1.93621e-24)
(0.208948 0.084272 -4.36892e-21)
(0.122789 0.0505345 -8.84875e-24)
(0.0394585 0.0167222 5.08571e-21)
(0.200536 0.0649989 0)
(0.125363 0.0399994 -2.82185e-23)
(0.125917 0.0401076 0)
(0.074715 0.0235032 -1.58936e-21)
(0.0750749 0.0236063 2.38497e-21)
(0.0362496 0.011323 -1.10015e-21)
(0.0363118 0.0113166 4.28473e-24)
(0.036466 0.0113645 0)
(0.0364051 0.0113674 0)
(0.0117065 0.00363489 -7.68841e-22)
(0.0117452 0.00364315 7.74264e-22)
(0.0117929 0.00365899 0)
(0.0117627 0.0036558 -7.79253e-22)
(0.295107 0.0980841 0)
(0.377889 0.128635 -9.50655e-24)
(0.442199 0.15404 0)
(0.482089 0.171725 0)
(0.493792 0.179731 0)
(0.476673 0.177186 1.70172e-24)
(0.433428 0.164467 -3.26357e-21)
(0.369485 0.143086 0)
(0.291786 0.115307 3.66433e-21)
(0.20731 0.0836013 -4.15214e-21)
(0.121815 0.0501265 -7.39105e-24)
(0.0391267 0.0165823 -9.11963e-24)
(0.198584 0.0643642 -1.83336e-21)
(0.124173 0.0396155 3.20718e-21)
(0.124704 0.0397224 0)
(0.0739968 0.0232802 3.04688e-21)
(0.0743543 0.0233817 -1.20115e-23)
(0.0358981 0.0112097 1.05419e-21)
(0.0359753 0.0112169 1.06379e-21)
(0.036132 0.0112596 1.07787e-21)
(0.036057 0.0112573 -4.17254e-24)
(0.0115904 0.00360146 -1.91277e-24)
(0.011623 0.00360417 7.51421e-22)
(0.0116648 0.00361994 -7.61191e-22)
(0.0116455 0.00361623 -7.55707e-22)
(0.292172 0.0971003 -1.13177e-23)
(0.374072 0.127325 9.51572e-24)
(0.437727 0.15246 -1.53976e-23)
(0.477334 0.169983 6.77157e-24)
(0.489174 0.177981 6.19801e-24)
(0.472499 0.175556 3.0849e-21)
(0.429843 0.163044 0)
(0.366543 0.141909 6.18975e-24)
(0.289514 0.114386 0)
(0.20568 0.0829294 -3.92019e-21)
(0.120835 0.0497173 4.58828e-21)
(0.0387949 0.016441 4.56191e-21)
(0.196652 0.063732 -1.75107e-21)
(0.123002 0.0392411 3.06041e-21)
(0.123532 0.0393503 0)
(0.0732927 0.0230584 -2.92963e-21)
(0.0736584 0.0231633 0)
(0.035561 0.011106 -1.02152e-21)
(0.0356297 0.0111062 0)
(0.0357668 0.011145 0)
(0.0357188 0.0111494 0)
(0.0114842 0.0035673 -1.4041e-24)
(0.0115158 0.00357532 -7.27019e-22)
(0.0115701 0.00358907 -7.38905e-22)
(0.0115408 0.0035822 0)
(0.28923 0.0961142 5.75788e-21)
(0.370208 0.125997 1.75322e-23)
(0.433207 0.150853 3.9046e-21)
(0.472598 0.16823 3.42117e-21)
(0.484629 0.176234 -6.18756e-24)
(0.468412 0.173956 2.79828e-24)
(0.426333 0.161657 -2.91459e-21)
(0.363662 0.140758 0)
(0.287247 0.113466 0)
(0.204047 0.0822559 -3.70634e-21)
(0.11985 0.0493042 -8.6566e-21)
(0.0384712 0.0163005 4.25079e-21)
(0.19473 0.0631032 -4.9466e-21)
(0.121838 0.0388661 5.89921e-21)
(0.122362 0.0389715 1.16307e-23)
(0.0726152 0.0228454 -7.06505e-22)
(0.0729649 0.0229465 -1.11853e-23)
(0.0352238 0.0109994 -9.81598e-22)
(0.0352994 0.0110073 -3.85433e-24)
(0.0354521 0.0110448 0)
(0.0353934 0.0110515 0)
(0.0113763 0.00353367 -4.50869e-24)
(0.0114005 0.00353741 -7.04345e-22)
(0.0114443 0.00355028 -7.13642e-22)
(0.0114263 0.0035464 7.10605e-22)
(0.286242 0.0951137 1.08889e-23)
(0.366245 0.124631 -4.36708e-21)
(0.428614 0.149199 -3.64796e-21)
(0.467846 0.166439 3.28288e-21)
(0.480141 0.1745 -1.39846e-24)
(0.464401 0.172391 -2.79371e-24)
(0.42289 0.160303 5.25022e-24)
(0.360798 0.139616 -1.08861e-23)
(0.284983 0.112546 0)
(0.202413 0.0815791 1.66199e-23)
(0.118861 0.048885 1.54214e-23)
(0.0381336 0.0161568 4.04696e-21)
(0.192786 0.0624651 1.64927e-21)
(0.120701 0.0384999 -2.82476e-21)
(0.121224 0.0386094 -2.91213e-21)
(0.0719311 0.0226267 -2.72252e-21)
(0.0722831 0.0227271 0)
(0.0349003 0.0108999 0)
(0.0349699 0.0109049 9.46886e-22)
(0.0351081 0.0109382 9.74877e-22)
(0.0350586 0.0109479 3.74375e-24)
(0.0112742 0.00350051 -1.89793e-24)
(0.0113043 0.00351068 -6.81638e-22)
(0.0113534 0.00351966 6.96754e-22)
(0.0113229 0.00351738 -6.87248e-22)
(0.283127 0.0940707 -2.00771e-23)
(0.362092 0.123186 -4.27827e-21)
(0.423866 0.147456 -3.5079e-21)
(0.463068 0.164617 -3.13024e-21)
(0.475705 0.172791 1.39611e-24)
(0.460462 0.170868 0)
(0.419484 0.158968 -1.51737e-23)
(0.357936 0.138472 1.08824e-23)
(0.282714 0.111622 2.9277e-21)
(0.200778 0.0808988 -1.23508e-23)
(0.117856 0.0484584 -1.00708e-24)
(0.0377917 0.0160145 -1.52e-23)
(0.190766 0.0618023 1.56677e-21)
(0.119558 0.0381284 -5.27135e-24)
(0.120087 0.0382441 -2.75212e-21)
(0.0712784 0.0224223 7.86071e-24)
(0.0716225 0.0225208 2.65883e-21)
(0.0345799 0.0107972 0)
(0.0346398 0.0107954 -1.80543e-24)
(0.0348034 0.0108423 -3.64018e-24)
(0.0347428 0.0108471 5.44919e-24)
(0.0111721 0.00346986 -6.56087e-22)
(0.011193 0.00347618 0)
(0.0112324 0.00348238 -6.68998e-22)
(0.0112094 0.00348293 -6.64775e-22)
(0.27974 0.0929379 -1.0454e-22)
(0.35762 0.121607 0)
(0.418935 0.145603 6.79416e-21)
(0.458277 0.162792 0)
(0.471335 0.171134 9.98587e-24)
(0.456577 0.169377 0)
(0.416092 0.157638 1.92967e-23)
(0.355079 0.137326 0)
(0.28045 0.110693 -2.76148e-21)
(0.199115 0.080203 1.23566e-23)
(0.11685 0.0480329 -2.78823e-23)
(0.0374371 0.0158663 3.49917e-21)
(0.188519 0.061076 7.43154e-21)
(0.118393 0.0377501 -2.6137e-21)
(0.118961 0.0378805 -2.68131e-21)
(0.0706241 0.0222125 4.3493e-24)
(0.0709551 0.0223108 6.55672e-22)
(0.0342731 0.0107 1.72179e-24)
(0.0343383 0.0107056 -1.72062e-24)
(0.0344844 0.0107479 0)
(0.0344225 0.0107475 0)
(0.0110584 0.00343343 6.33451e-22)
(0.0110936 0.00344139 -6.3698e-22)
(0.0111422 0.00345363 1.2742e-24)
(0.0111167 0.00345274 -6.44307e-22)
(0.275917 0.0916523 0)
(0.352693 0.119802 -7.82954e-21)
(0.413831 0.143673 1.61261e-24)
(0.453536 0.161034 1.04427e-23)
(0.467057 0.16953 -5.26128e-25)
(0.452742 0.167902 0)
(0.412717 0.156307 -2.36206e-21)
(0.352225 0.136174 2.39327e-21)
(0.278162 0.10975 1.03614e-23)
(0.197449 0.0795026 -1.07624e-23)
(0.115823 0.0475978 -3.29921e-21)
(0.0370774 0.0157127 -6.0663e-24)
(0.185839 0.060214 0)
(0.117072 0.0373259 2.53856e-21)
(0.117737 0.037488 -2.53738e-21)
(0.0699626 0.022004 0)
(0.0703138 0.022104 1.84824e-21)
(0.0339662 0.0106052 -2.64224e-24)
(0.0340348 0.0106074 -8.4613e-22)
(0.0341686 0.0106487 -8.63471e-22)
(0.0341233 0.0106548 -1.67106e-24)
(0.0109728 0.00340547 6.12208e-22)
(0.0109946 0.00341256 -6.15925e-22)
(0.0110363 0.00342478 -6.26782e-22)
(0.0110125 0.00342158 -6.21201e-22)
(0.271241 0.0900281 2.25961e-21)
(0.347263 0.117749 -3.80198e-21)
(0.408731 0.141834 0)
(0.448954 0.159366 -5.4755e-25)
(0.462884 0.167961 -1.84366e-23)
(0.448944 0.166433 2.21541e-21)
(0.409345 0.15497 8.83661e-24)
(0.34936 0.135014 2.26049e-21)
(0.275856 0.108795 0)
(0.195764 0.0787944 2.67252e-21)
(0.114777 0.0471513 3.06503e-21)
(0.0367245 0.0155622 1.72118e-23)
(0.182063 0.0590043 3.46731e-21)
(0.115334 0.036783 -1.87264e-23)
(0.1163 0.0370357 2.4809e-21)
(0.0692556 0.0217798 -2.95011e-21)
(0.0696314 0.021887 1.8546e-23)
(0.0336651 0.0105079 0)
(0.0337355 0.0105172 0)
(0.0338684 0.0105547 -1.638e-24)
(0.033812 0.0105544 8.25209e-22)
(0.0108633 0.00337268 5.86911e-22)
(0.0108994 0.00338049 -5.95259e-22)
(0.0109388 0.00339438 0)
(0.0109239 0.0033946 0)
(0.26535 0.087824 4.42959e-21)
(0.341733 0.11582 -2.62654e-23)
(0.403922 0.140145 -2.90496e-21)
(0.44458 0.157761 -9.91567e-24)
(0.458806 0.166417 -2.25828e-21)
(0.445178 0.164971 -7.98648e-24)
(0.405975 0.153631 -2.05344e-21)
(0.346471 0.133839 -7.93892e-24)
(0.273545 0.107835 2.23749e-21)
(0.194064 0.0780761 -2.46159e-21)
(0.11374 0.0467069 -2.82689e-21)
(0.0363546 0.0154046 -1.11572e-23)
(0.175247 0.0565863 2.06781e-23)
(0.112119 0.0357892 5.49343e-23)
(0.114005 0.0363926 -2.36987e-21)
(0.0683393 0.0214986 -1.50781e-23)
(0.0688746 0.0216402 -2.26995e-21)
(0.0333746 0.0104174 -5.74844e-24)
(0.0334269 0.0104198 1.54493e-24)
(0.0335595 0.0104585 0)
(0.0335094 0.0104605 -1.54491e-24)
(0.0107773 0.00334379 0)
(0.0108069 0.00335424 -5.73807e-22)
(0.0108423 0.00336459 -5.82109e-22)
(0.0108203 0.00336172 -5.78999e-22)
(0.259076 0.0857358 1.71343e-23)
(0.336769 0.114143 3.25567e-21)
(0.399526 0.138571 2.18026e-23)
(0.440401 0.156213 2.32995e-21)
(0.454811 0.1649 0)
(0.441444 0.163518 7.99183e-24)
(0.402611 0.15229 1.9537e-21)
(0.343592 0.132662 -1.94623e-21)
(0.271223 0.106865 -7.74963e-24)
(0.19237 0.0773527 7.70256e-24)
(0.112684 0.0462481 2.58427e-21)
(0.0359722 0.0152426 0)
(0.167022 0.0540512 -6.82641e-22)
(0.103163 0.0326078 -1.80858e-23)
(0.10873 0.034678 -3.66302e-23)
(0.0664934 0.02098 6.69923e-23)
(0.067629 0.0212971 5.39704e-22)
(0.03304 0.0103146 7.49228e-22)
(0.0331297 0.0103255 -1.51068e-21)
(0.0332877 0.0103688 1.51451e-24)
(0.0332184 0.0103601 0)
(0.0106853 0.00331672 1.09927e-21)
(0.01071 0.00332383 -5.53852e-22)
(0.0107374 0.00333208 -5.63644e-22)
(0.010722 0.00333191 -5.58753e-22)
(0.254037 0.0840484 4.04207e-21)
(0.332553 0.112663 0)
(0.395461 0.137093 0)
(0.436384 0.154721 1.7051e-23)
(0.450896 0.163409 0)
(0.43775 0.162074 -3.74613e-21)
(0.399269 0.150948 0)
(0.340717 0.131479 1.83571e-21)
(0.268905 0.105886 1.90578e-21)
(0.190655 0.076614 -2.07451e-21)
(0.1116 0.0457788 -2.32893e-21)
(0.0355888 0.0150821 -4.03695e-24)
(0.162169 0.0522616 -4.05027e-21)
(0.0932337 0.0298262 1.05382e-21)
(0.0968278 0.0308381 1.13685e-21)
(0.0570146 0.0176336 0)
(0.0642454 0.0202405 -3.31299e-22)
(0.032263 0.0101059 0)
(0.0325933 0.010172 5.68892e-24)
(0.0329048 0.01026 -7.23039e-24)
(0.0327616 0.0102339 -5.70321e-24)
(0.0105895 0.00328763 -5.31097e-22)
(0.0106188 0.00329345 5.3322e-22)
(0.010666 0.00330774 -5.44195e-22)
(0.0106396 0.00330118 -5.39916e-22)
(0.250318 0.0827352 -3.05187e-23)
(0.32888 0.111349 0)
(0.391663 0.135714 0)
(0.432513 0.15328 -1.7081e-23)
(0.44706 0.161942 1.86551e-21)
(0.434095 0.160637 4.55207e-25)
(0.395949 0.149607 3.71156e-23)
(0.337848 0.130287 0)
(0.266582 0.1049 1.74613e-21)
(0.188923 0.0758679 3.74358e-21)
(0.11052 0.0453111 0)
(0.0351911 0.0149141 5.80485e-24)
(0.159531 0.0512674 1.1123e-21)
(0.090475 0.0286123 -1.61784e-23)
(0.0914342 0.0289411 -1.01751e-21)
(0.0448895 0.0141748 -1.58978e-21)
(0.0479427 0.0154826 3.27296e-22)
(0.0189094 0.00443251 0)
(0.0278889 0.0082864 0)
(0.0316997 0.00999144 2.16749e-23)
(0.0304899 0.00946026 3.25561e-22)
(0.0103629 0.00322233 -5.0971e-22)
(0.0104777 0.00324744 5.15405e-22)
(0.010555 0.00327531 -2.9435e-24)
(0.0105154 0.00326553 -5.19691e-22)
(0.247345 0.0816926 3.77579e-21)
(0.325563 0.110171 0)
(0.38808 0.134414 9.01151e-24)
(0.428763 0.151879 0)
(0.443299 0.160497 0)
(0.430489 0.159209 -1.60681e-21)
(0.392642 0.148261 -1.58467e-21)
(0.334989 0.129092 -1.53037e-21)
(0.264251 0.103903 -1.56853e-21)
(0.187198 0.0751168 1.6779e-21)
(0.109421 0.0448276 -1.83224e-21)
(0.0347832 0.0147457 1.66663e-21)
(0.157689 0.0506822 -5.6151e-21)
(0.0893178 0.0282264 -1.99626e-21)
(0.0897637 0.0283091 1.61703e-23)
(0.0436561 0.013599 -4.76984e-22)
(0.0440781 0.0137524 0)
(0.0103158 0.00324989 5.06974e-22)
(0.010587 0.00334273 -2.62099e-22)
(0.0126746 0.00397383 -2.85082e-22)
(0.0112783 0.00375331 0)
(0.00522803 0.00117736 0)
(0.00904014 0.00290353 2.22963e-22)
(0.0101718 0.00319194 5.05363e-22)
(0.00970622 0.00310854 2.31246e-22)
(0.244784 0.080817 0)
(0.322515 0.109096 2.81798e-21)
(0.384663 0.13317 -1.75752e-23)
(0.425128 0.150517 -1.94057e-21)
(0.439611 0.159069 -1.71199e-21)
(0.426921 0.157788 1.49338e-21)
(0.389377 0.146918 5.3771e-24)
(0.332144 0.12789 0)
(0.261937 0.102899 -1.40133e-21)
(0.185461 0.0743507 1.47229e-21)
(0.108297 0.0443348 -3.33864e-24)
(0.0343655 0.0145699 0)
(0.156131 0.050216 1.09725e-21)
(0.0884917 0.028008 1.89819e-21)
(0.0888337 0.0280538 1.53013e-23)
(0.0432046 0.0134643 0)
(0.0434022 0.0135209 4.69559e-22)
(0.0101921 0.00317066 -6.75089e-25)
(0.0102042 0.00316065 -4.91374e-22)
(0.010276 0.0031938 5.04412e-22)
(0.0102323 0.00318336 0)
(0.242493 0.0800415 -3.31553e-21)
(0.319659 0.108087 0)
(0.38139 0.131975 2.09687e-21)
(0.421591 0.149181 1.75644e-21)
(0.435991 0.157659 1.60583e-21)
(0.42341 0.156373 1.10278e-23)
(0.386134 0.145571 -5.37639e-24)
(0.329318 0.12668 1.29142e-21)
(0.259614 0.101882 1.27138e-21)
(0.183696 0.0735697 -1.14418e-24)
(0.107163 0.0438332 -1.33004e-21)
(0.0339414 0.0143899 0)
(0.154752 0.0497853 -1.06708e-21)
(0.0877434 0.0277962 -1.82217e-21)
(0.0880701 0.0278462 0)
(0.0428704 0.0133714 1.73091e-24)
(0.0430374 0.013422 -4.59282e-22)
(0.0101375 0.00315169 -4.62754e-22)
(0.0101471 0.00314406 -4.67673e-22)
(0.0101773 0.00315351 -4.75096e-22)
(0.0101686 0.00316282 -4.73327e-22)
(0.240372 0.0793211 -2.52513e-23)
(0.316946 0.107126 0)
(0.378227 0.130814 -7.64407e-24)
(0.418141 0.14787 -1.64061e-21)
(0.432441 0.156261 0)
(0.419941 0.15496 -1.0173e-23)
(0.382925 0.144221 -2.40229e-21)
(0.326504 0.125462 -1.11374e-21)
(0.257292 0.100855 0)
(0.181921 0.0727759 1.06743e-21)
(0.106003 0.0433152 0)
(0.0334993 0.0142045 0)
(0.153465 0.0493705 -1.00089e-21)
(0.0870468 0.0275755 0)
(0.0873369 0.0276272 3.57159e-21)
(0.0425314 0.0132804 3.39129e-24)
(0.0427146 0.0133303 -5.11645e-24)
(0.0100776 0.00313089 -8.72479e-25)
(0.0100934 0.00312616 -4.48082e-22)
(0.0101179 0.00313665 8.98098e-25)
(0.0101164 0.00314523 -6.01752e-25)
(0.238363 0.0786374 1.23162e-23)
(0.314344 0.106202 -2.40904e-21)
(0.375166 0.129683 4.35905e-25)
(0.414778 0.146578 1.6212e-21)
(0.428954 0.154872 0)
(0.416525 0.153551 1.16759e-21)
(0.379751 0.142867 0)
(0.323706 0.124234 2.07084e-24)
(0.254965 0.0998105 0)
(0.18013 0.0719649 0)
(0.104823 0.0427838 -8.06771e-22)
(0.0330378 0.0140134 0)
(0.152225 0.0489686 -1.92332e-21)
(0.0863472 0.0273515 1.66298e-21)
(0.0866504 0.0274069 -6.5837e-24)
(0.0421965 0.0131743 6.4857e-24)
(0.0423644 0.0132271 -1.67036e-21)
(0.010002 0.00311205 -4.23868e-22)
(0.0100195 0.00310722 -4.31604e-22)
(0.0100551 0.00311651 -4.3933e-22)
(0.0100501 0.00312559 0)
(0.236451 0.0779835 -1.19685e-22)
(0.31185 0.10531 -2.29823e-21)
(0.37219 0.128571 -1.73765e-21)
(0.411495 0.145303 -1.52985e-21)
(0.425536 0.153491 -2.35475e-24)
(0.413153 0.152138 -2.02282e-24)
(0.376602 0.141503 0)
(0.320915 0.122989 0)
(0.252626 0.0987458 -3.27642e-25)
(0.17831 0.0711319 6.46435e-22)
(0.103606 0.0422363 -5.34868e-22)
(0.032564 0.0138156 2.69099e-26)
(0.151042 0.0485779 2.60507e-21)
(0.0856916 0.027144 1.57444e-21)
(0.0859758 0.0271943 3.2425e-21)
(0.0418619 0.0130657 3.95805e-22)
(0.0420343 0.0131198 0)
(0.00992099 0.00308606 -4.09269e-22)
(0.00993675 0.00308087 8.01017e-25)
(0.0099754 0.0030937 -4.21129e-22)
(0.00996842 0.00310053 -4.17344e-22)
(0.234622 0.0773514 -1.18292e-22)
(0.309425 0.104434 -2.16779e-21)
(0.369309 0.127483 1.63586e-21)
(0.408287 0.144037 2.79085e-24)
(0.422178 0.152113 2.35473e-24)
(0.409832 0.150723 2.02302e-24)
(0.373482 0.140128 0)
(0.318135 0.121728 0)
(0.25027 0.0976586 3.27874e-25)
(0.17647 0.070281 8.92079e-22)
(0.102356 0.0416695 0)
(0.0320739 0.0136138 1.04396e-22)
(0.149913 0.0482014 3.36771e-21)
(0.0850498 0.0269364 1.4966e-21)
(0.0853306 0.0269876 1.5279e-24)
(0.0415554 0.0129754 0)
(0.0417069 0.0130173 -1.5181e-21)
(0.00985271 0.00306049 -3.90915e-22)
(0.00986744 0.00305799 -7.75656e-25)
(0.00989576 0.00306835 -4.03383e-22)
(0.00988781 0.00307523 -3.97505e-22)
(0.232847 0.0767357 2.55753e-21)
(0.307089 0.103581 0)
(0.366505 0.126407 -1.63016e-21)
(0.405152 0.142779 0)
(0.418883 0.150736 0)
(0.406556 0.149303 0)
(0.370387 0.138739 -7.70471e-22)
(0.315358 0.120447 6.16494e-22)
(0.247905 0.096548 -3.87923e-22)
(0.174584 0.0694001 2.45846e-22)
(0.101075 0.0410897 -1.0009e-25)
(0.0315618 0.0134075 1.3165e-25)
(0.148814 0.0478379 -8.24111e-22)
(0.084446 0.026735 1.42195e-21)
(0.0847082 0.0267867 -2.92782e-21)
(0.0412425 0.0128773 0)
(0.0414013 0.0129226 0)
(0.00978266 0.00304226 0)
(0.00978969 0.00303624 -3.76641e-22)
(0.00981765 0.00304253 -3.85112e-22)
(0.00981252 0.0030517 -3.8217e-22)
(0.231142 0.0761388 2.53006e-21)
(0.304824 0.10274 1.83461e-21)
(0.363773 0.125337 -2.80858e-24)
(0.402084 0.141524 -2.23883e-24)
(0.415647 0.149359 0)
(0.403323 0.147873 7.28239e-22)
(0.367323 0.137334 -1.21501e-21)
(0.312574 0.119134 0)
(0.24551 0.0954062 -2.05635e-22)
(0.172662 0.0684939 0)
(0.099741 0.0404932 3.52314e-25)
(0.031043 0.0132048 1.8559e-24)
(0.147762 0.0474891 -3.77363e-21)
(0.083839 0.0265439 1.34381e-21)
(0.0841025 0.0265912 5.37161e-24)
(0.0409561 0.0127812 0)
(0.041109 0.0128301 1.37572e-21)
(0.0097046 0.00301856 -1.39022e-24)
(0.00971345 0.00301242 -3.59558e-22)
(0.00975059 0.00302288 -3.68891e-22)
(0.00973586 0.00302841 -3.6422e-22)
(0.229494 0.0755561 0)
(0.302634 0.101908 0)
(0.361116 0.124273 2.15129e-24)
(0.39909 0.140275 -1.15077e-21)
(0.412473 0.14798 0)
(0.400138 0.146429 6.19542e-22)
(0.364271 0.135902 0)
(0.309781 0.117793 -9.85257e-26)
(0.243073 0.0942296 0)
(0.17069 0.0675617 2.17526e-22)
(0.0983546 0.0398921 -2.52613e-25)
(0.0305293 0.0129987 1.12476e-21)
(0.146744 0.0471576 7.34615e-22)
(0.0832669 0.0263595 1.27914e-21)
(0.0835152 0.026405 0)
(0.0406665 0.0126946 5.09975e-24)
(0.040818 0.0127381 -5.09262e-24)
(0.00963922 0.00299591 -1.33666e-24)
(0.00965251 0.002991 -3.42748e-22)
(0.00968074 0.00300208 -3.50984e-22)
(0.00967633 0.00300835 -3.47363e-22)
(0.227913 0.0749809 -2.27496e-21)
(0.300515 0.101075 0)
(0.358526 0.123215 1.24036e-21)
(0.396166 0.139031 0)
(0.40936 0.146592 0)
(0.396992 0.144967 -6.34516e-22)
(0.361232 0.134442 -1.43379e-25)
(0.306983 0.11642 9.85669e-26)
(0.240607 0.0930198 -2.75605e-22)
(0.168647 0.0665986 -4.63644e-22)
(0.0969111 0.0393152 0)
(0.0301689 0.0127142 -1.50598e-21)
(0.145761 0.0468489 2.70039e-21)
(0.0826897 0.0261935 -1.21083e-21)
(0.0829418 0.0262289 -1.23889e-24)
(0.0403889 0.0126074 0)
(0.0405322 0.0126494 0)
(0.00956753 0.00297588 -3.23132e-22)
(0.00958219 0.00297101 -3.26947e-22)
(0.00961397 0.0029806 0)
(0.00961016 0.0029878 -3.316e-22)
(0.226408 0.074391 1.00108e-24)
(0.298449 0.100246 0)
(0.356019 0.122175 -1.2582e-21)
(0.393315 0.137786 0)
(0.406308 0.145193 6.24719e-22)
(0.393884 0.143482 -2.0163e-25)
(0.358212 0.13295 1.43427e-25)
(0.304162 0.115005 1.21323e-22)
(0.238077 0.0917708 3.869e-22)
(0.166563 0.0656321 0)
(0.0953713 0.038692 0)
(0.0306066 0.0124729 0)
(0.144946 0.0463969 -1.31536e-24)
(0.0821609 0.0261135 4.57275e-24)
(0.082375 0.0260927 -1.20138e-21)
(0.0401083 0.0125231 0)
(0.04025 0.012563 0)
(0.00950544 0.00295508 -3.0776e-22)
(0.00951947 0.00295232 -3.11429e-22)
(0.00954613 0.00296031 0)
(0.00953916 0.00296632 -3.15174e-22)
(0.224918 0.0738054 -1.00023e-24)
(0.296461 0.099443 1.41479e-21)
(0.353584 0.121137 0)
(0.390542 0.136536 0)
(0.403318 0.143776 -6.73761e-22)
(0.390813 0.141965 2.01579e-25)
(0.355195 0.131418 -2.20559e-22)
(0.301302 0.113548 -5.64187e-26)
(0.23554 0.0904887 0)
(0.164158 0.0646136 0)
(0.0954641 0.0380151 0)
(0.0265337 0.0101236 0)
(0.144012 0.0460704 0)
(0.0819067 0.0257106 0)
(0.0819557 0.026069 1.12971e-21)
(0.0397543 0.0124793 0)
(0.0399512 0.0124919 1.11789e-21)
(0.00944678 0.00293396 0)
(0.00945412 0.00293026 -2.9641e-22)
(0.00947736 0.0029387 -3.04177e-22)
(0.00947211 0.00294467 5.89433e-25)
(0.223495 0.0732479 0)
(0.294548 0.0986542 0)
(0.351239 0.120104 0)
(0.387843 0.135274 -1.42835e-22)
(0.400384 0.142335 -4.58628e-25)
(0.387777 0.140415 1.74635e-22)
(0.352167 0.129843 0)
(0.298467 0.112042 0)
(0.232642 0.0891445 0)