/*--------------------------------*- C++ -*----------------------------------*\
| =========                 |                                                 |
| \\      /  F ield         | OpenFOAM: The Open Source CFD Toolbox           |
|  \\    /   O peration     | Version:  v1912                                 |
|   \\  /    A nd           | Website:  www.openfoam.com                      |
|    \\/     M anipulation  |                                                 |
\*---------------------------------------------------------------------------*/
FoamFile
{
    version     2.0;
    format      ascii;
    class       volScalarField;
    location    "120";
    object      p;
}
// * * * * * * * * * * * * * * * * * * * * * * * * * * * * * * * * * * * * * //

dimensions      [0 2 -2 0 0 0 0];


internalField   nonuniform List<scalar> 
3754
(
0.285859
0.282548
0.319615
0.276196
0.312487
0.426085
0.267407
0.299308
0.403633
0.603642
0.588673
0.256985
0.282967
0.361768
0.555564
0.499933
0.714353
0.722711
0.663484
0.692165
0.245642
0.265649
0.314346
0.433827
0.367112
0.564079
0.617303
0.509379
0.552922
0.233963
0.248537
0.271881
0.288112
0.428433
0.476772
0.270215
0.254023
0.426309
0.222349
0.232126
0.237006
0.226076
-0.272274
-0.214975
0.184393
0.172232
-0.153402
-0.172738
0.211126
0.216682
0.208577
0.184006
-0.28824
-0.471906
-0.416255
-0.432999
-0.118933
-0.403321
0.200499
0.202429
0.185095
0.152979
-0.219883
-0.367767
-0.388491
-0.497063
-0.480001
-0.386555
-0.501925
0.190674
0.189508
0.165444
0.125749
-0.169929
-0.326549
-0.296464
-0.374028
-0.413356
-0.374946
-0.389996
-0.504825
0.181759
0.178026
0.14888
0.102473
-0.136053
-0.288076
-0.283158
-0.263986
-0.297374
-0.321352
-0.414825
-0.325191
-0.369659
-0.383714
-0.395069
0.173889
0.168013
0.13491
0.0833965
-0.112352
-0.25636
-0.269174
-0.260251
-0.254121
-0.261896
-0.27539
-0.300655
-0.33661
-0.320185
-0.373748
-0.385906
0.167111
0.159514
0.12313
0.0679174
-0.0963716
-0.230694
-0.255974
-0.254479
-0.252491
-0.242439
-0.251964
-0.258217
-0.262268
-0.277167
-0.29588
-0.307787
-0.336045
-0.321682
0.161531
0.152527
0.113243
0.0554321
-0.0864105
-0.211184
-0.244947
-0.248609
-0.249852
-0.241995
-0.231627
-0.238418
-0.246186
-0.25272
-0.259458
-0.258222
-0.268265
-0.282452
-0.273953
-0.296802
-0.307536
0.157164
0.14709
0.105014
0.0454901
-0.0809854
-0.197343
-0.2367
-0.243997
-0.247191
-0.241076
-0.230649
-0.232586
-0.219777
-0.244647
-0.246853
-0.251687
-0.254687
-0.262205
-0.257802
-0.256515
-0.270547
-0.281888
-0.274684
0.154109
0.143186
0.0983093
0.0376923
-0.0790856
-0.188462
-0.231188
-0.240937
-0.245114
-0.240379
-0.230096
-0.219143
-0.220916
-0.230325
-0.236624
-0.208606
-0.240187
-0.24448
-0.248434
-0.245969
-0.252049
-0.254909
-0.264677
-0.257934
-0.255412
0.152362
0.140861
0.0930028
0.0317422
-0.0800803
-0.184055
-0.228257
-0.239422
-0.243826
-0.24001
-0.230054
-0.219003
-0.208534
-0.208853
-0.219301
-0.22455
-0.229292
-0.232626
-0.235132
-0.238336
-0.244189
-0.202032
-0.243942
-0.248689
-0.246224
-0.252387
-0.255038
-0.264247
-0.257975
0.152032
0.140096
0.0890546
0.0274644
-0.0836559
-0.1838
-0.227879
-0.239422
-0.243452
-0.24002
-0.230347
-0.219227
-0.208585
-0.200965
-0.203144
-0.209145
-0.210819
-0.218795
-0.221641
-0.223382
-0.2258
-0.242967
-0.191694
-0.244041
-0.248891
-0.246576
0.153114
0.140955
0.0864354
0.0248074
-0.08976
-0.187562
-0.230038
-0.240937
-0.24404
-0.240495
-0.230913
-0.219677
-0.208812
-0.200171
-0.190882
-0.192528
-0.201362
-0.20581
-0.208652
-0.211656
-0.207874
-0.215245
-0.180951
0.155733
0.143409
0.0852433
0.0237805
-0.0986773
-0.195324
-0.234753
-0.243929
-0.245614
-0.241475
-0.23174
-0.220288
-0.209168
-0.199681
-0.19017
-0.180182
-0.181746
-0.19055
-0.195749
-0.200463
-0.203041
-0.205079
-0.206729
-0.208584
-0.212198
-0.206505
-0.170906
0.159874
0.147557
0.0855808
0.0244567
-0.110974
-0.207274
-0.242021
-0.248391
-0.248161
-0.242995
-0.232819
-0.221025
-0.209594
-0.19943
-0.189588
-0.179512
-0.170107
-0.171771
-0.179847
-0.184985
-0.189628
-0.192439
-0.194761
-0.197146
-0.200981
-0.203397
-0.205206
-0.206656
-0.160846
0.165685
0.153363
0.0877394
0.0268761
-0.127599
-0.223694
-0.25189
-0.2543
-0.25168
-0.245059
-0.234149
-0.221861
-0.210054
-0.199325
-0.189126
-0.178944
-0.169423
-0.160342
-0.161361
-0.169906
-0.174789
-0.178952
-0.181654
-0.183937
-0.186373
-0.190139
-0.192773
-0.194894
-0.197023
-0.152798
0.173121
0.160969
0.0920644
0.0309874
-0.149913
-0.245104
-0.264381
-0.261668
-0.256145
-0.247675
-0.235722
-0.222791
-0.210524
-0.199299
-0.18874
-0.17844
-0.168807
-0.159804
-0.152052
-0.153525
-0.159199
-0.164707
-0.169021
-0.171622
-0.173717
-0.176033
-0.17941
-0.181945
-0.184025
-0.186219
-0.144407
0.182298
0.170354
0.0992455
0.0365359
-0.179981
-0.272097
-0.279592
-0.270481
-0.261547
-0.250818
-0.237535
-0.2238
-0.210997
-0.199296
-0.188393
-0.177949
-0.168215
-0.159219
-0.151286
-0.143688
-0.145019
-0.151887
-0.156164
-0.157516
-0.16164
-0.163742
-0.166161
-0.169449
-0.171865
-0.17378
-0.175874
-0.135846
0.193091
0.181781
0.11015
0.0430672
-0.220711
-0.305472
-0.297569
-0.280772
-0.267849
-0.254464
-0.239562
-0.224879
-0.211459
-0.199288
-0.188041
-0.177442
-0.167603
-0.158579
-0.150497
-0.142902
-0.135199
-0.13642
-0.143246
-0.147482
-0.151018
-0.153235
-0.155269
-0.157699
-0.15701
-0.16289
-0.163946
-0.165986
-0.127796
0.205552
0.195381
0.125965
0.0491991
-0.275607
-0.345996
-0.318345
-0.292524
-0.275029
-0.25856
-0.24178
-0.226008
-0.211905
-0.199242
-0.187662
-0.176888
-0.16695
-0.157869
-0.149677
-0.142056
-0.134493
-0.127181
-0.128346
-0.134504
-0.138948
-0.14241
-0.144585
-0.146566
-0.148585
-0.151282
-0.153457
-0.155325
-0.158722
-0.156207
-0.120238
0.219357
0.211924
0.147421
0.0520669
-0.346876
-0.394028
-0.34162
-0.305661
-0.282997
-0.263051
-0.244144
-0.227169
-0.212314
-0.199146
-0.187223
-0.176274
-0.166231
-0.157089
-0.148807
-0.141157
-0.133711
-0.126506
-0.119645
-0.120751
-0.12677
-0.130656
-0.132885
-0.135837
-0.13803
-0.140052
-0.142697
-0.144786
-0.146641
-0.148572
-0.15147
-0.153519
-0.155331
-0.158463
-0.11304
0.23416
0.232202
0.175986
0.0527224
-0.437166
-0.447512
-0.366534
-0.319766
-0.291561
-0.267811
-0.246609
-0.228328
-0.212675
-0.198973
-0.186714
-0.175576
-0.165437
-0.15623
-0.147883
-0.1402
-0.132852
-0.125763
-0.118999
-0.112467
-0.113565
-0.119256
-0.122981
-0.127063
-0.130755
-0.13544
-0.136159
-0.138117
-0.140028
-0.142898
-0.144866
-0.146798
-0.148627
-0.106104
0.249199
0.255144
0.216876
0.0638229
-0.557335
-0.500753
-0.391104
-0.333858
-0.300234
-0.272634
-0.24908
-0.229453
-0.212956
-0.198712
-0.186108
-0.174787
-0.164549
-0.155291
-0.146895
-0.139194
-0.131917
-0.124953
-0.118301
-0.111875
-0.105637
-0.106556
-0.112116
-0.115687
-0.119545
-0.123106
-0.126332
-0.128241
-0.131973
-0.129838
-0.13492
-0.136155
-0.138258
-0.14007
-0.0997843
0.263674
0.276681
0.27651
0.079364
-0.703744
-0.546783
-0.411705
-0.346304
-0.308134
-0.277127
-0.251417
-0.230481
-0.213137
-0.198334
-0.185396
-0.173887
-0.163563
-0.154258
-0.145838
-0.13813
-0.130919
-0.124067
-0.117544
-0.111248
-0.105145
-0.0994011
-0.100125
-0.105088
-0.108675
-0.112388
-0.115783
-0.11883
-0.120671
-0.124102
-0.122266
-0.0943078
0.276528
0.298807
0.290521
0.323795
0.23041
0.287999
0.368981
-0.692417
-0.167652
-0.836312
-0.580311
-0.828959
-0.423195
-0.355316
-0.314101
-0.280746
-0.25339
-0.231333
-0.213178
-0.197831
-0.184557
-0.172873
-0.162463
-0.153128
-0.144697
-0.137005
-0.129855
-0.123115
-0.116717
-0.110568
-0.104609
-0.0989588
-0.0938174
-0.0947453
-0.0992923
-0.101591
-0.105473
-0.10886
-0.111682
-0.113456
-0.116727
-0.114967
-0.0885866
0.287056
0.318227
0.349914
0.375887
0.398434
0.357386
0.0700654
0.0871398
-0.718359
-0.689086
-0.399141
-1.00654
-0.878929
-0.857036
-0.636436
-0.424943
-0.557255
-0.814832
-0.359675
-0.317413
-0.282978
-0.254748
-0.231895
-0.213048
-0.197187
-0.183596
-0.171732
-0.161246
-0.151888
-0.143469
-0.135808
-0.128729
-0.122092
-0.115823
-0.10982
-0.104018
-0.0984682
-0.0933085
-0.088171
-0.0889518
-0.0935099
-0.0964285
-0.0996777
-0.101451
-0.105303
-0.106527
-0.109739
-0.108043
-0.0830681
0.294328
0.331722
0.397505
0.414967
0.440505
0.484106
0.428102
0.377268
0.0745935
0.00345263
0.400983
-0.144327
-0.907278
-0.817667
-0.629164
-0.456229
-0.359643
-0.405863
-0.557701
-0.318417
-0.283765
-0.255357
-0.232089
-0.212722
-0.196423
-0.182526
-0.170481
-0.159911
-0.150538
-0.14214
-0.134531
-0.127531
-0.121005
-0.114859
-0.109005
-0.10336
-0.0979311
-0.0927913
-0.0877285
-0.0826892
-0.0834189
-0.0877919
-0.0905945
-0.0936637
-0.0965254
-0.0990759
-0.100553
-0.101511
-0.102051
-0.0779015
0.297783
0.33966
0.420807
0.420004
0.517439
0.543072
0.480471
0.522152
0.580673
0.54779
0.455818
0.107821
-0.819261
-0.665901
-0.601213
-0.450625
-0.356572
-0.317832
-0.409144
-0.528526
-0.581046
-0.283526
-0.255336
-0.231925
-0.212225
-0.195577
-0.181402
-0.169158
-0.158486
-0.149083
-0.140713
-0.133163
-0.126256
-0.119844
-0.11383
-0.108119
-0.102633
-0.097339
-0.0922636
-0.0872756
-0.0823047
-0.0775407
-0.0782372
-0.0823509
-0.0850227
-0.087973
-0.0907009
-0.0931052
-0.0945138
-0.097296
-0.0958728
-0.0990996
-0.100516
-0.100651
-0.102099
-0.0729963
0.297006
0.337568
0.488278
0.565
0.576531
0.609387
0.634989
0.668894
0.653591
0.517906
0.495777
0.616848
0.547473
0.173252
-0.462037
-0.433934
-0.367927
-0.315919
-0.343108
-0.282561
-0.397017
-0.418804
-0.524918
-0.572628
-0.254863
-0.231506
-0.211625
-0.194732
-0.180306
-0.167842
-0.157025
-0.147561
-0.139198
-0.131707
-0.124895
-0.118608
-0.112729
-0.107166
-0.101834
-0.0966889
-0.0917134
-0.0868195
-0.0819304
-0.0771883
-0.0726587
-0.0733136
-0.0772191
-0.0797611
-0.0825321
-0.0851365
-0.0874278
-0.0888054
-0.0914907
-0.0901
-0.0932263
-0.0945505
-0.0972916
-0.0959531
-0.0682958
0.29238
0.328507
0.456024
0.668351
0.610441
0.67736
0.676975
0.650287
0.66799
0.664985
0.710816
0.762867
0.738263
0.423442
-0.454097
-0.433826
-0.396188
-0.372228
-0.358205
-0.323584
-0.281059
-0.30487
-0.348626
-0.338699
-0.253968
-0.418493
-0.230879
-0.210986
-0.193957
-0.179336
-0.166633
-0.155625
-0.146041
-0.137639
-0.130179
-0.123455
-0.11729
-0.111554
-0.106142
-0.10097
-0.0959772
-0.0911302
-0.0863527
-0.0815695
-0.0768687
-0.0723388
-0.0679786
-0.0685972
-0.0723339
-0.0747668
-0.0773919
-0.0798675
-0.0820092
-0.083322
-0.0858924
-0.0845523
-0.0875394
-0.0888358
-0.0915052
-0.0901898
-0.0637784
0.284197
0.314454
0.415327
0.490349
0.74716
0.545612
0.609372
0.460269
0.773479
0.772065
0.762176
-0.394184
-0.326305
-0.317194
-0.287398
-0.252638
-0.272023
-0.309185
-0.299916
-0.337791
-0.230002
-0.413638
-0.210292
-0.193264
-0.178536
-0.165621
-0.154392
-0.144624
-0.136112
-0.128629
-0.121957
-0.1159
-0.110302
-0.105047
-0.100037
-0.0952058
-0.0905033
-0.0858647
-0.0812129
-0.0765875
-0.0720708
-0.0676946
-0.0634804
-0.0640723
-0.0676488
-0.0699886
-0.0724973
-0.0748685
-0.0768955
-0.0781424
-0.0805793
-0.079309
-0.0821098
-0.0833461
-0.0859009
-0.0846334
-0.059426
0.272969
0.296576
0.37396
0.41403
0.0869179
0.10757
0.695399
0.143488
0.148055
-0.323377
-0.316013
-0.289985
-0.281584
-0.257815
-0.228802
-0.245132
-0.271287
-0.309114
-0.300789
-0.209457
-0.192594
-0.177877
-0.164825
-0.1534
-0.143413
-0.134723
-0.127138
-0.120454
-0.114463
-0.108986
-0.10388
-0.0990355
-0.0943714
-0.0898298
-0.085344
-0.0808459
-0.0763358
-0.0718666
-0.067485
-0.0632361
-0.059149
-0.0597268
-0.0631557
-0.0654106
-0.0678037
-0.0700845
-0.0720237
-0.073216
-0.0755452
-0.0743361
-0.0769888
-0.0781649
-0.0805865
-0.0793839
-0.0552246
0.259015
0.276006
0.334642
0.354458
0.0554449
0.0105995
0.0328279
0.0143075
0.0365656
-0.289372
-0.280866
-0.256239
-0.233228
-0.208293
-0.222322
-0.244658
-0.267274
-0.274726
-0.191844
-0.177263
-0.164186
-0.152648
-0.142466
-0.133565
-0.125806
-0.119032
-0.113037
-0.107635
-0.102656
-0.0979688
-0.0934753
-0.0891031
-0.084785
-0.0804551
-0.0760925
-0.0717182
-0.0673649
-0.0630911
-0.0589564
-0.0550124
-0.0554851
-0.0588428
-0.061019
-0.0633053
-0.0655
-0.0673499
-0.0684934
-0.0707319
-0.0695723
-0.0721107
-0.0732394
-0.0755544
-0.0744069
-0.051376
0.242777
0.253474
0.297728
0.306154
0.0725871
0.0382755
0.0362791
0.00930842
0.00985075
0.0368114
0.00803103
-0.287414
-0.28042
-0.258436
-0.252675
-0.231856
-0.212119
-0.190816
-0.202283
-0.221867
-0.240998
-0.247204
-0.176583
-0.163597
-0.152059
-0.141761
-0.132678
-0.124718
-0.117784
-0.111705
-0.106305
-0.101406
-0.0968515
-0.0925211
-0.0883219
-0.084181
-0.0800319
-0.0758386
-0.0715994
-0.0673265
-0.0630612
-0.0588862
-0.0548892
-0.0512
-0.0515849
-0.0546165
-0.056761
-0.0589976
-0.0610999
-0.0628714
-0.0639732
-0.0661226
-0.0650093
-0.0674329
-0.0685165
-0.0707428
-0.069639
-0.0479019
0.224495
0.229649
0.263009
0.263821
0.0831947
0.0442198
0.0480682
0.0321004
0.0294798
0.0293351
0.0325544
-0.251861
-0.233635
-0.228299
-0.211023
-0.189403
-0.175738
-0.202251
-0.219014
-0.223838
-0.240703
-0.246284
-0.16295
-0.151525
-0.141213
-0.132025
-0.123898
-0.116783
-0.110554
-0.105077
-0.100186
-0.0957151
-0.0915224
-0.0874909
-0.0835294
-0.0795691
-0.07556
-0.0714853
-0.0673381
-0.0631385
-0.0589529
-0.0548946
-0.0511032
-0.047678
-0.0481615
-0.0509614
-0.0525999
-0.0547705
-0.0568899
-0.0585729
-0.0596422
-0.061703
-0.0606249
-0.0629519
-0.0639977
-0.0661353
-0.0650752
-0.0443448
0.204492
0.204927
0.230444
0.226813
0.0870143
0.0480982
0.0506706
0.039987
0.0419728
0.0435948
0.0417547
0.0278874
0.027577
-0.232644
-0.228002
-0.212647
-0.207825
-0.192732
-0.174699
-0.184709
-0.162168
-0.20178
-0.219492
-0.223344
-0.150944
-0.140715
-0.131522
-0.123304
-0.116039
-0.109645
-0.104031
-0.099071
-0.0946117
-0.0905096
-0.0866217
-0.0828349
-0.0790628
-0.0752483
-0.0713561
-0.0673698
-0.0632873
-0.0591495
-0.0550519
-0.051147
-0.0475552
-0.0441454
-0.0445727
-0.0474349
-0.049207
-0.0511398
-0.0526158
-0.0544195
-0.0554407
-0.0574807
-0.0564394
-0.0586474
-0.0596613
-0.0617163
-0.0606888
-0.0408139
0.182918
0.179716
0.199933
0.194786
0.0875635
0.0511516
0.0526077
0.0411166
0.0342536
0.0360816
0.0419725
0.0402276
0.0387448
0.037687
0.0412176
0.0440499
-0.211774
-0.20739
-0.193771
-0.190325
-0.177253
-0.161235
-0.170426
-0.186345
-0.182523
-0.150242
-0.20347
-0.198916
-0.21844
-0.140177
-0.131069
-0.122846
-0.115505
-0.108981
-0.103216
-0.0981296
-0.0936103
-0.0895308
-0.0857413
-0.0821056
-0.0785184
-0.074897
-0.0712011
-0.0673962
-0.0634716
-0.0594366
-0.0553603
-0.0513657
-0.0476035
-0.0440503
-0.0406397
-0.0410381
-0.0438689
-0.045603
-0.0475282
-0.0493162
-0.0508202
-0.0516738
-0.0527876
-0.0526124
-0.054899
-0.0555089
-0.0574793
-0.0565186
-0.0374205
0.159972
0.154315
0.171491
0.167055
0.0860155
0.0537703
0.0541786
0.0425431
0.0346399
0.0287698
0.0322825
0.0354387
0.0322489
0.0394071
0.040542
0.042278
0.0400006
0.0420019
-0.210793
-0.207382
-0.189572
-0.178181
-0.174766
-0.163642
-0.149388
-0.157267
-0.171698
-0.168688
-0.186056
-0.182595
-0.139534
-0.130582
-0.122432
-0.115097
-0.10851
-0.102624
-0.097402
-0.0927723
-0.0886471
-0.084892
-0.0813654
-0.0779394
-0.0745099
-0.0710104
-0.0674038
-0.0636589
-0.0597744
-0.0557795
-0.0517641
-0.0478597
-0.0441346
-0.0405798
-0.037251
-0.0376369
-0.0403779
-0.0420672
-0.0439716
-0.0457043
-0.0471872
-0.048048
-0.0498111
-0.0489371
-0.0508607
-0.0517618
-0.0525947
-0.0530113
-0.0341095
0.136031
0.129194
0.145227
0.143116
0.0830525
0.0556116
0.0550105
0.043842
0.0349701
0.0290483
0.0236551
0.0268134
0.0295858
0.0313586
0.0326026
0.0341189
0.0367758
0.0297633
0.0410668
0.0402477
0.04174
0.0396802
-0.177259
-0.174277
-0.164536
-0.161351
-0.151381
-0.138759
-0.145979
-0.156703
-0.171539
-0.169304
-0.13
-0.12199
-0.11473
-0.108152
-0.102206
-0.0968785
-0.0921284
-0.0879108
-0.084127
-0.080649
-0.0773452
-0.0740861
-0.070785
-0.0673792
-0.0638341
-0.0601251
-0.0562666
-0.0523021
-0.0483317
-0.0444462
-0.0407149
-0.0372095
-0.0339482
-0.0343245
-0.0369942
-0.0386415
-0.040485
-0.042178
-0.0436332
-0.0444916
-0.0462143
-0.045349
-0.0472405
-0.0480954
-0.0498606
-0.0489836
-0.0509016
-0.0517256
-0.052052
-0.0529409
-0.0308668
0.11245
0.105053
0.121595
0.122703
0.0793791
0.0566892
0.0551121
0.0447109
0.0353332
0.0292658
0.0237432
0.0178828
0.022272
0.0245752
0.0260947
0.0270827
0.0284012
0.0299463
0.0312997
0.0324871
0.0338816
0.0385788
0.0292568
0.040679
0.0399093
0.0412329
-0.163609
-0.160575
-0.150593
-0.140591
-0.1293
-0.135626
-0.145738
-0.155
-0.158057
-0.16863
-0.121468
-0.114338
-0.107825
-0.101886
-0.0965099
-0.0916648
-0.0873484
-0.0834894
-0.0800014
-0.0767618
-0.0736388
-0.0705189
-0.0673191
-0.0639795
-0.0604701
-0.0567786
-0.0529304
-0.0489772
-0.0450011
-0.0410949
-0.0373821
-0.0339259
-0.0306964
-0.0309708
-0.0336884
-0.0352966
-0.0370981
-0.0387496
-0.0401515
-0.0409895
-0.0426784
-0.0418264
-0.0436851
-0.0445367
-0.0462695
-0.045406
-0.0472982
-0.0481266
-0.049889
-0.0490398
-0.0276102
0.0903041
0.0833774
0.101406
0.105877
0.0756298
0.0572377
0.0547136
0.0451481
0.0357234
0.0295946
0.0240999
0.0190318
0.019024
0.0178368
0.0176487
0.0219685
0.0227562
0.0234774
0.0248793
0.026167
0.0269863
0.0281779
0.0296849
-0.16288
-0.160616
-0.151336
-0.14872
-0.139848
-0.130925
-0.120828
-0.126531
-0.135239
-0.143633
-0.147348
-0.113869
-0.107468
-0.10159
-0.0962254
-0.0913348
-0.0869429
-0.0830008
-0.0794586
-0.0762274
-0.0731862
-0.0702177
-0.067212
-0.0640869
-0.0607874
-0.0572927
-0.0535994
-0.0497411
-0.0457602
-0.0417442
-0.037827
-0.0341364
-0.0306945
-0.0274661
-0.0277891
-0.0297122
-0.0319529
-0.0338145
-0.0354059
-0.036773
-0.0375895
-0.0392339
-0.0384046
-0.0401992
-0.0410308
-0.04273
-0.0418807
-0.043741
-0.044565
-0.046302
-0.0454624
-0.0244305
0.0657034
0.0667372
0.085814
0.0929258
0.0722967
0.0574386
0.0540228
0.0452248
0.0360772
0.0299847
0.0246073
0.0199476
0.0190863
0.0161072
0.0180945
0.0187648
0.0177057
0.01869
0.0140152
0.0213732
0.0220832
0.0225321
0.0232319
0.0246144
-0.14056
-0.13818
-0.130337
-0.122331
-0.113255
-0.118137
-0.126262
-0.133736
-0.136153
-0.143263
-0.146865
-0.107037
-0.101263
-0.0959595
-0.0910747
-0.0866516
-0.0826448
-0.0790399
-0.0757727
-0.0727598
-0.0698936
-0.0670573
-0.0641383
-0.0610632
-0.0577815
-0.0542809
-0.0505649
-0.0466653
-0.0426262
-0.0385707
-0.0346413
-0.030947
-0.0275063
-0.0243223
-0.027873
-0.0246085
-0.0311373
-0.0321124
-0.0334874
-0.0342723
-0.0358738
-0.0350667
-0.0368177
-0.0376294
-0.0392826
-0.0384553
-0.0402526
-0.0410578
-0.0427606
-0.0419353
-0.0213775
0.0363989
0.0582772
0.07574
0.0841369
0.0697517
0.0574295
0.0531611
0.045016
0.0363225
0.0303375
0.0251155
0.0206122
0.0189803
0.0157002
0.0139584
0.0151219
0.0165156
0.0101968
0.0176561
0.0179752
0.018402
0.0183939
0.0129888
0.0216602
-0.140083
-0.138007
-0.130983
-0.128789
-0.121815
-0.112446
-0.106507
-0.117605
-0.124661
-0.127336
-0.133543
-0.135849
-0.100867
-0.0956617
-0.0908275
-0.0864186
-0.0823852
-0.0787304
-0.0754146
-0.0723885
-0.0695719
-0.0668573
-0.0641258
-0.061273
-0.0582247
-0.0549404
-0.0514136
-0.0476485
-0.0436817
-0.0395764
-0.0354758
-0.0315176
-0.0278095
-0.0243926
-0.0212817
-0.024761
-0.0272826
-0.0289743
-0.0215528
-0.0308816
-0.032514
-0.0313955
-0.0335298
-0.0343066
-0.0359213
-0.0351124
-0.0368669
-0.0376535
-0.0393107
-0.0385059
-0.0183949
0.0590078
0.0707947
0.0792276
0.0680571
0.0572661
0.0522175
0.0445884
0.0364215
0.0305802
0.0255391
0.0211393
0.0188988
0.0156255
0.0109411
0.0119225
0.009773
0.011573
0.0145572
0.015262
0.014789
0.0158947
0.0167145
0.00968706
-0.130559
-0.128484
-0.122451
-0.120501
-0.113604
-0.105878
-0.110498
-0.10038
-0.117431
-0.124303
-0.127525
-0.095304
-0.0905497
-0.0861952
-0.0821718
-0.0784986
-0.0751441
-0.0720895
-0.0692771
-0.0666332
-0.0640445
-0.0614002
-0.05859
-0.0555505
-0.0522444
-0.0486691
-0.0448326
-0.0407852
-0.036606
-0.0324486
-0.0284495
-0.0247372
-0.0213663
-0.0183061
-0.0217369
-0.0241783
-0.0256594
-0.0269752
-0.0277894
-0.0285777
-0.0293878
-0.0185629
-0.0303545
-0.0311876
-0.0323297
-0.032645
-0.033564
-0.0343247
-0.0359473
-0.0351587
-0.0154572
0.0686919
0.077097
0.0669635
0.0569402
0.0512391
0.0440089
0.0363629
0.0306759
0.0258179
0.021537
0.0188709
0.0156794
0.0117783
0.00991042
0.00972622
0.00935188
0.0101677
0.0110119
0.0136371
0.00995199
-0.12207
-0.119852
-0.114016
-0.112292
-0.106946
-0.0997974
-0.103776
-0.110874
-0.109968
-0.0948737
-0.118208
-0.116263
-0.124025
-0.127116
-0.0902167
-0.0859421
-0.081963
-0.0783031
-0.0749385
-0.0718557
-0.0690289
-0.0664089
-0.0639138
-0.0614328
-0.0588531
-0.0560696
-0.0530224
-0.0496754
-0.0460322
-0.0421098
-0.0379709
-0.0337077
-0.0294789
-0.0254432
-0.0217422
-0.0184035
-0.0153708
-0.0187456
-0.0211613
-0.0226047
-0.0238969
-0.0246393
-0.0253267
-0.0260508
-0.0156205
-0.0320984
-0.0326291
-0.0125499
0.0763553
0.0659579
0.0563221
0.0502264
0.0433092
0.0361402
0.030612
0.0259224
0.0217791
0.0188611
0.0157487
0.0121614
0.010203
0.00878304
0.00915251
0.00964355
0.00909176
0.00935269
0.00926936
0.00999059
0.0110614
-0.121761
-0.119951
-0.107188
-0.105744
-0.100736
-0.0943714
-0.0979205
-0.104393
-0.102826
-0.10989
-0.0898062
-0.0856388
-0.0817259
-0.0781101
-0.0747615
-0.0716698
-0.0688265
-0.0662098
-0.0637572
-0.0613878
-0.0589964
-0.0564653
-0.053696
-0.0506242
-0.0472201
-0.0434949
-0.0394756
-0.0352323
-0.0308706
-0.0265702
-0.0225041
-0.0188085
-0.0154859
-0.0124802
-0.0158011
-0.0181818
-0.0195999
-0.0208828
-0.0216081
-0.0222893
-0.0229882
-0.0127305
-0.00970213
0.0647914
0.0553387
0.0491716
0.0425107
0.0357484
0.0303828
0.0258463
0.0218507
0.0188194
0.0158145
0.0125278
0.010507
0.00920447
0.00858648
0.00879772
0.00825103
0.00944474
0.00761891
0.00903897
0.00917733
0.00929151
0.00915182
0.0099007
-0.10658
-0.105524
-0.101099
-0.0996688
-0.0953054
-0.0893025
-0.0926225
-0.0984255
-0.0969717
-0.104303
-0.102799
-0.0852735
-0.081443
-0.0778893
-0.0745811
-0.0715051
-0.0686607
-0.0660407
-0.0636015
-0.0612914
-0.0590354
-0.0567147
-0.054224
-0.0514537
-0.0483442
-0.0448708
-0.0410525
-0.0369224
-0.0325604
-0.0280944
-0.0237206
-0.0196236
-0.0159179
-0.0126038
-0.00963576
-0.0129171
-0.0152493
-0.0166422
-0.0179077
-0.0186181
-0.0192927
-0.0199783
-0.00987346
-0.0068984
0.0541296
0.0480099
0.0415896
0.0351758
0.0299839
0.0255951
0.0217528
0.0187063
0.015838
0.0128608
0.0108535
0.00956717
0.00877539
0.00747608
0.00806655
0.00855279
0.0088024
0.00925525
0.00620481
0.00881008
0.0102368
0.00904141
0.00920318
-0.100713
-0.0994316
-0.0958782
-0.0941154
-0.0900498
-0.0848449
-0.0877076
-0.0931262
-0.0919304
-0.0982961
-0.096751
-0.0810979
-0.0776242
-0.0743742
-0.0713367
-0.068508
-0.065896
-0.0634585
-0.0611767
-0.0589978
-0.0568322
-0.054579
-0.0521136
-0.0493323
-0.046176
-0.0426238
-0.0386981
-0.0344417
-0.0299512
-0.0253733
-0.0209263
-0.0167909
-0.0130832
-0.0097886
-0.00685584
-0.0101022
-0.0123657
-0.0137398
-0.0149805
-0.0156759
-0.0163428
-0.0170146
-0.00701423
-0.00423763
0.046828
0.0405061
0.0344296
0.0294283
0.0251839
0.0214994
0.0184991
0.0157825
0.0130937
0.0111486
0.00984721
0.00890515
0.00765895
0.00642324
0.00698435
0.00750732
0.00788054
0.0083994
0.00869767
0.00878027
0.00472716
0.00986467
0.0101259
0.00877738
-0.0959995
-0.0937279
-0.0895834
-0.0855188
-0.0806822
-0.083466
-0.0874471
-0.0929651
-0.09133
-0.0772989
-0.0741279
-0.0711437
-0.0683487
-0.0657582
-0.0633293
-0.0610604
-0.0589217
-0.0568513
-0.0547742
-0.0525707
-0.0501259
-0.0473274
-0.0441168
-0.0404715
-0.0364246
-0.0320273
-0.0273974
-0.0227033
-0.0181711
-0.0139895
-0.0102867
-0.00704223
-0.00418292
-0.00716087
-0.00957251
-0.0108995
-0.0120986
-0.0127848
-0.0134462
-0.0141055
-0.00439352
0.0393509
0.0334708
0.028711
0.0246303
0.0211075
0.018191
0.0156281
0.013196
0.0113442
0.0100358
0.00900174
0.00779103
0.00656555
0.00542425
0.00598577
0.00650105
0.00684847
0.00735586
0.00767209
0.00782373
0.00832841
0.00810632
0.00856504
0.00883511
0.00409134
-0.0957836
-0.0935812
-0.0899726
-0.0888155
-0.0851537
-0.0813393
-0.076907
-0.0793359
-0.0833726
-0.0867014
-0.0878893
-0.0928172
-0.0914482
-0.0738313
-0.0709163
-0.0681645
-0.0656104
-0.0632008
-0.0609477
-0.0588303
-0.056813
-0.0548448
-0.0528403
-0.0506869
-0.0482571
-0.0454362
-0.0421587
-0.0384081
-0.0342241
-0.0296714
-0.0248921
-0.0200763
-0.0154693
-0.0112518
-0.00754721
-0.00434887
-0.00458496
-0.00673737
-0.00788311
-0.00934216
-0.00998546
-0.0105932
-0.0112433
0.032414
0.0278198
0.0239588
0.0206031
0.0177895
0.0153733
0.0131617
0.0114212
0.010131
0.00905914
0.00789723
0.0067076
0.00558195
0.00425903
0.00506078
0.00558308
0.00587312
0.00635429
0.00664841
0.00686053
0.00737234
0.00712113
0.00761844
0.00775654
0.00823374
0.00800566
-0.0853714
-0.0842573
-0.0809671
-0.0775002
-0.0734849
-0.0756814
-0.0791249
-0.0822221
-0.0841714
-0.0706488
-0.0679451
-0.0654385
-0.0630604
-0.06083
-0.0587333
-0.056744
-0.0548397
-0.0529613
-0.051031
-0.0489219
-0.0465048
-0.0436526
-0.040298
-0.0364258
-0.0320865
-0.0273638
-0.0224197
-0.017467
-0.0127875
-0.00856571
-0.00487727
-0.00405084
-0.00534379
-0.00650142
-0.00719675
-0.00752379
-0.0085004
0.0268653
0.0231452
0.0199924
0.0173037
0.015025
0.0129989
0.0113743
0.0101256
0.00906247
0.00796758
0.00685344
0.00580138
0.00476042
0.00508928
0.00346728
0.00457075
0.00507601
0.00545375
0.00565746
0.0058953
0.00638025
0.0061105
0.00660688
0.00680249
0.00730973
0.00706918
-0.0812016
-0.0802544
-0.0772024
-0.0740818
-0.0703619
-0.0723243
-0.0754742
-0.0784997
-0.0794672
-0.0820203
-0.0840879
-0.0676787
-0.065234
-0.062895
-0.0606968
-0.0586259
-0.0566597
-0.054791
-0.0529879
-0.0512013
-0.0493378
-0.0472743
-0.0448657
-0.041974
-0.0385263
-0.0345133
-0.0300004
-0.0250968
-0.0199916
-0.0149056
-0.0101361
-0.00589572
-0.00377073
-0.00442341
-0.00509669
-0.00571627
-0.00649244
-0.00721576
-0.00719869
0.0222865
0.0192603
0.0167455
0.0146006
0.012725
0.0112102
0.0100179
0.00899578
0.00798505
0.00697068
0.00602258
0.00517689
0.00524096
0.00456408
0.00484055
0.00497285
0.00263579
0.00475124
0.00482849
0.00508094
0.00545623
0.0051772
0.00561511
0.0058304
0.006312
0.00606263
-0.0810074
-0.0801762
-0.07746
-0.0765518
-0.0738876
-0.0708926
-0.0673298
-0.0693607
-0.0721437
-0.0748419
-0.0757351
-0.0784042
-0.0793234
-0.0649944
-0.062701
-0.060539
-0.0585001
-0.05656
-0.0547193
-0.0529589
-0.0512574
-0.0495536
-0.0477621
-0.0457442
-0.0433369
-0.0403913
-0.0368314
-0.0326573
-0.0279479
-0.0228376
-0.0175622
-0.0123734
-0.00753664
-0.00381517
-0.0029715
-0.00447375
-0.00508902
-0.00570962
0.0184931
0.0160871
0.0141022
0.0123615
0.0109474
0.00981796
0.00885328
0.00793535
0.00703304
0.00619539
0.00547426
0.00534581
0.00475469
0.00396202
0.00422745
0.00443367
0.00471517
0.00513238
0.00435793
0.00121697
0.00479298
0.00510832
0.00476182
0.0049683
0.00537163
0.00511763
-0.0772823
-0.0764529
-0.0739077
-0.073484
-0.0706719
-0.0668432
-0.0647242
-0.0687308
-0.071588
-0.0724021
-0.074697
-0.0755833
-0.0624656
-0.0603484
-0.0583504
-0.0564401
-0.0546277
-0.0528988
-0.0512457
-0.0496371
-0.0480233
-0.0463063
-0.0443275
-0.041911
-0.0388943
-0.0352006
-0.0308465
-0.0259334
-0.0206089
-0.0151364
-0.00982647
-0.00297832
0.0154047
0.0135119
0.0119228
0.0106078
0.00954283
0.00864023
0.00781365
0.00702321
0.00629534
0.00566859
0.00541834
0.00488566
0.00413876
0.00349955
0.0037238
0.00392768
0.00409248
0.00429341
0.00451071
0.00461726
0.00498193
0.00503668
0.000478589
0.00446388
0.00539053
-0.0735697
-0.0737247
-0.0709165
-0.0702903
-0.0673284
-0.064446
-0.0659192
-0.0621828
-0.0687534
-0.0714911
-0.0720476
-0.0601228
-0.0581749
-0.056298
-0.0545168
-0.0528163
-0.0511965
-0.0496421
-0.0481349
-0.0466133
-0.044966
-0.0430201
-0.0405795
-0.0374673
-0.0336131
-0.0290438
-0.0239081
-0.0183889
-0.0127415
0.0129029
0.0113972
0.0102055
0.00921272
0.00837012
0.00762477
0.00693606
0.00631081
0.00576789
0.0054559
0.00497418
0.00428739
0.00368379
0.00315516
0.00280093
0.00356707
0.00361134
0.0038218
0.00397932
0.00404244
0.00427433
0.00415267
-0.0737178
-0.0707229
-0.0696018
-0.0675292
-0.0667992
-0.0649493
-0.0618339
-0.0633887
-0.0661493
-0.0654321
-0.0598435
-0.0691101
-0.0683461
-0.0714314
-0.0718776
-0.0579638
-0.0561276
-0.0543845
-0.0527136
-0.0511235
-0.0496048
-0.0481565
-0.0467513
-0.0453211
-0.0437401
-0.041814
-0.0393238
-0.0360952
-0.0320647
-0.0272629
-0.0218692
-0.0161325
0.0108564
0.00972982
0.00883621
0.00805821
0.00738083
0.00677761
0.00624215
0.00577478
0.00544804
0.00501559
0.0044053
0.00382925
0.00330063
0.00283064
0.00288651
0.00307506
0.00245406
0.0017959
0.00365848
0.00349214
0.00354582
0.00380701
0.00368106
-0.0705991
-0.0697697
-0.0647556
-0.0647446
-0.062175
-0.0595172
-0.0609761
-0.0634826
-0.0629239
-0.0577338
-0.0559314
-0.0542308
-0.0525917
-0.0510334
-0.0495424
-0.0481319
-0.0467908
-0.0454887
-0.0441469
-0.0426189
-0.0406893
-0.0381242
-0.0347451
-0.0305088
-0.0254796
-0.0198414
0.00924827
0.0084017
0.00770997
0.00709705
0.00656155
0.0060989
0.00569826
0.00538556
0.00500785
0.00448486
0.00395891
0.00344674
0.00293609
0.00225781
0.00257459
0.00277646
0.00276611
0.00282828
0.00292709
0.00292986
0.00256629
0.0045105
0.00351229
0.00345844
-0.064784
-0.0623046
-0.0617053
-0.0598437
-0.057485
-0.058714
-0.0611983
-0.060592
-0.063332
-0.0629312
-0.0556943
-0.0540433
-0.0524447
-0.0509264
-0.0494643
-0.0480816
-0.0467797
-0.0455466
-0.0443452
-0.0430794
-0.0415879
-0.0396328
-0.0369718
-0.033417
-0.028932
-0.0236479
0.00796977
0.00731225
0.00677857
0.00630307
0.00589692
0.00555158
0.0052685
0.00494872
0.00451842
0.00405988
0.00359298
0.00308731
0.00247596
0.00207811
0.00197935
0.00241622
0.00244929
0.00254101
0.0025989
0.00272898
0.00272072
0.00277032
0.00284442
0.00283738
0.00251768
0.00361052
-0.0621304
-0.0616005
-0.0599748
-0.0594093
-0.057731
-0.0554111
-0.0567607
-0.0588989
-0.0583359
-0.0611363
-0.0605516
-0.0538198
-0.0522723
-0.0508027
-0.0493726
-0.0480173
-0.0467412
-0.0455494
-0.0444219
-0.0433107
-0.0421077
-0.0406253
-0.0386116
-0.0358216
-0.0320824
-0.0273493
0.00692039
0.00641385
0.00600949
0.00565463
0.00535233
0.00510306
0.00484027
0.00449849
0.00411984
0.00371621
0.00326345
0.00275529
0.00248953
0.00285414
0.00226327
0.0015448
0.00202296
0.00212901
0.00225783
0.00242827
0.00241605
0.00247691
0.00253802
0.00265947
0.00268535
0.00271876
0.00279402
0.00276143
-0.0598148
-0.059305
-0.0578026
-0.0572561
-0.0556799