/*--------------------------------*- C++ -*----------------------------------*\
| =========                 |                                                 |
| \\      /  F ield         | OpenFOAM: The Open Source CFD Toolbox           |
|  \\    /   O peration     | Version:  v1912                                 |
|   \\  /    A nd           | Website:  www.openfoam.com                      |
|    \\/     M anipulation  |                                                 |
\*---------------------------------------------------------------------------*/
FoamFile
{
    version     2.0;
    format      ascii;
    class       surfaceScalarField;
    location    "120";
    object      phi;
}
// * * * * * * * * * * * * * * * * * * * * * * * * * * * * * * * * * * * * * //

dimensions      [0 3 -1 0 0 0 0];
oriented        oriented;


internalField   nonuniform List<scalar> 
7354
(
-3.49648e-05
0.00993267
-0.000160011
0.0100941
0.00076206
0.00916876
-0.000364352
0.0102375
0.00120868
0.00964726
0.00285277
0.0031358
0.00317761
-0.000599874
0.0102805
0.00133896
0.0101072
0.00465385
0.00358569
0.00426018
0.00195611
0.000584869
0.000597698
0.00396118
0.000605068
0.000567554
-0.000863907
0.0102946
0.00133368
0.0102855
0.00535546
0.00460159
0.00480365
0.005583
0.00123042
0.000733226
0.00639725
0.00177777
0.00166824
-0.000601154
0.00118594
-0.00175349
0.0023585
-0.00116371
0.0103121
0.00119892
0.0104296
0.00532699
0.0103135
0.00708671
0.0020355
0.00187653
0.00713479
0.00475563
-0.00309172
0.00432213
-0.00432188
0.00473969
0.00136003
0.0016685
-0.00149511
0.0103337
0.000932701
0.010578
0.00479206
0.0109641
-0.0098139
0.0160577
0.00532535
0.00587887
-0.00516107
0.00525632
0.00194028
0.00145516
-0.00426177
0.00231334
0.00214651
-0.0016685
0.00302863
-0.00185358
0.0103549
0.000550248
0.0107164
0.00402963
0.0113397
0.013949
0.0130727
0.0059912
-0.003135
0.00419337
-0.00172468
0.00621313
0.00565667
-0.00448379
0.00216238
-0.00265231
0.00183051
-0.00216238
0.00165645
-0.00223062
0.0103741
7.39661e-05
0.0108307
0.00319612
0.0115495
0.0114136
0.0138748
-0.00319043
0.00987719
0.0125981
0.00218653
0.00292358
-0.000371603
-0.00054569
-0.00112988
0.00123565
0.00465276
0.000526562
-0.00262475
0.0103912
-0.000469937
0.0109184
0.00233654
0.0116893
0.00896482
0.0139979
0.00895208
0.0147994
-0.00161375
0.00447413
0.0110357
-0.00129842
0.000861138
-0.000110657
0.00224653
-7.36053e-05
-0.000932802
0.000669296
-0.000108197
-0.00024293
0.00390015
0.000283628
-0.00302801
0.010404
-0.00106211
0.0109828
0.00145941
0.011795
0.00675896
0.0138948
0.00744515
0.0155043
0.00473654
0.0145369
0.00162754
0.00990562
-9.70164e-05
-0.000400205
-0.000637967
0.00323958
0.000577599
-1.89826e-05
0.0017783
-8.16454e-05
-8.81739e-05
0.000516825
-1.28479e-05
0.00017543
-0.00344217
0.0104157
-0.00168618
0.0110285
0.000566322
0.0118745
0.00480668
0.0137468
0.00580512
0.0155344
0.00418629
0.0160543
0.0022522
0.0139124
0.000306218
0.00920168
0.000239157
0.000157964
-0.003
0.00291161
-8.59648e-06
-0.000160533
0.000156447
0.00164702
-2.27327e-05
-6.44307e-06
-0.000448819
0.000389816
-2.26721e-05
-2.02028e-05
0.000143597
-0.00386236
0.0104255
-0.00233421
0.011063
-0.000337678
0.0119319
0.00306285
0.0136178
0.00420137
0.01535
0.00327469
0.0164461
0.00221702
0.0160895
0.00096245
0.0132562
-1.54172e-05
0.00887138
0.000111381
0.000233962
-0.00288829
0.00287544
0.000251846
0.000181212
0.00163976
3.9145e-06
-5.23961e-06
0.000368958
-1.8472e-06
0.000363587
-1.04347e-06
-0.000123395
0.000100722
-0.00428913
0.0104321
-0.00299765
0.0110895
-0.00124955
0.0119733
0.00147525
0.013519
0.00267596
0.015143
0.0022446
0.0163798
0.00174799
0.0169154
0.00117372
0.0158779
0.00043381
0.012807
8.94658e-05
0.00876564
-3.26909e-05
4.87369e-05
-0.00287361
0.00288608
9.88286e-05
0.000235759
-0.00172165
0.00175388
0.000113552
0.000106028
2.92811e-05
6.9994e-05
-0.000358732
0.000363256
-6.09978e-07
-3.78273e-07
9.88763e-05
9.78331e-05
-0.00472058
0.0104398
-0.00367899
0.0111127
-0.00216535
0.0120046
-3.62391e-07
0.0134483
0.00122326
0.0149711
0.00119336
0.0161944
0.00107424
0.0170534
0.000972695
0.0171165
0.000660712
0.0156507
0.000319902
0.0125766
0.000116893
-7.7444e-05
0.0087259
-0.00289499
0.00272528
0.000136962
3.98041e-05
-0.00180463
0.00186025
8.00634e-06
3.51821e-05
0.00012526
5.96776e-05
-0.000456475
0.000484234
8.5764e-05
-0.000421407
7.09237e-05
0.000381734
1.07867e-05
3.03028e-05
-9.74549e-05
9.68444e-05
-0.00515666
0.0104452
-0.00437
0.0111316
-0.00308587
0.0120316
-0.00139851
0.0134022
-0.000173236
0.0148446
0.000146768
0.0160173
0.000327667
0.0169413
0.000531081
0.0174947
0.000578396
0.0171989
0.000477305
0.0154931
0.000279563
0.0124139
-0.00205032
0.00473715
-1.20066e-05
-2.717e-05
2.36087e-05
0.000119873
0.00858209
-0.00189501
-1.30019e-05
-5.37173e-06
7.45053e-06
-2.44604e-06
-0.0005717
0.000576528
3.15846e-06
-0.000551679
1.51329e-05
0.000527587
8.18689e-05
3.55771e-05
-0.000208855
0.000237972
5.66278e-05
-0.000137933
0.00010763
-0.00559467
0.0104517
-0.00507755
0.011152
-0.0040118
0.012057
-0.00275295
0.0133853
-0.00153463
0.014763
-0.000891632
0.0158833
-0.000441904
0.0167867
-2.01594e-05
0.0174927
0.000269452
0.0178034
0.000427858
0.0172484
0.000410974
0.0153615
0.000224037
0.0122134
0.00473928
0.000106516
1.10123e-05
-0.000876118
0.000866564
-1.56405e-06
-9.53081e-07
-0.000530187
-2.94905e-07
-1.23172e-06
-0.000371618
-3.17903e-06
0.000234851
0.00834985
-0.000575307
3.21012e-05
-0.000580344
-3.57027e-07
0.0005821
1.85173e-06
-6.94594e-07
-0.00033139
0.000334596
-6.2453e-08
-0.000318635
2.35663e-06
0.000291687
2.8125e-05
8.62079e-06
5.66268e-05
-0.0060414
0.0104587
-0.00579606
0.0111714
-0.00494213
0.0120805
-0.00409367
0.0133973
-0.0028766
0.0147272
-0.00192799
0.0157989
-0.00121551
0.0166573
-0.000611068
0.0173772
-0.000153755
0.017916
0.000191938
0.018039
0.000390894
0.0172684
0.000376125
0.0152092
0.000228097
0.0119819
0.00462968
0.000164978
0.00017925
-0.000877682
0.000956866
2.22733e-05
4.98449e-06
1.10694e-06
-1.26291e-06
-8.90017e-05
8.74348e-05
-8.99562e-05
-9.02525e-05
-9.1485e-05
-0.000336348
-3.18197e-06
8.83887e-05
2.80313e-05
0.00823268
-0.000335954
-7.68214e-07
0.000336166
2.62015e-07
-4.87969e-07
-9.57283e-05
9.56631e-05
-9.33721e-05
8.47514e-05
-0.00649023
0.0104647
-0.00652725
0.0111891
-0.00587856
0.0121075
-0.00545754
0.0134438
-0.00422067
0.0147407
-0.00296333
0.0157629
-0.00199016
0.0165731
-0.00121365
0.01726
-0.000625028
0.0178481
-0.00015798
0.0182658
0.000202763
0.0182269
0.000386596
0.0172578
0.000384379
0.0150526
0.000253237
0.0118168
0.00463303
-2.28501e-05
4.72603e-05
-0.00100808
0.00107517
2.49584e-05
7.28473e-05
7.0399e-05
5.75933e-05
-9.226e-05
0.000114529
-8.72772e-05
-8.61719e-05
-9.46682e-05
0.000168704
-9.53612e-05
0.0081585
-9.54368e-05
9.59247e-05
-0.00695041
0.010474
-0.00726868
0.0112082
-0.0068284
0.0121369
-0.00687336
0.013523
-0.00558265
0.0148058
-0.00400544
0.0157821
-0.00276473
0.0165377
-0.00181908
0.0171781
-0.00111218
0.0177471
-0.00055585
0.0182456
-9.53224e-05
0.0185638
0.000239044
0.0183742
0.000405324
0.0172367
0.000380543
0.0149249
0.000277205
0.011708
0.00458998
-3.23511e-05
-2.02792e-05
-0.0011147
0.00110369
-8.0013e-06
-3.9412e-06
-1.6645e-06
9.33026e-06
-0.00024576
0.00026381
6.88647e-06
-0.000196365
2.34307e-05
-0.000172122
4.61391e-05
0.000159743
-8.96169e-05
0.00808744
-0.0074143
0.0104823
-0.00801819
0.0112223
-0.00779114
0.0121707
-0.00837816
0.0136409
-0.0069803
0.0149201
-0.00505246
0.0158532
-0.00353852
0.0165553
-0.00242395
0.0171426
-0.00160223
0.0176676
-0.000970089
0.0181612
-0.000448353
0.0185983
-2.32657e-05
0.018826
0.000278142
0.018501
0.000399448
0.0172176
0.000367466
0.0148342
0.000255519
0.0116119
0.00454139
-1.90447e-05
-2.23733e-05
-0.0010898
0.00106845
-6.40293e-06
-4.71402e-06
-3.4398e-06
-3.02184e-06
-0.00026841
0.000262594
-2.21659e-06
-0.000270699
-1.68206e-06
-0.000271561
-8.2846e-07
1.55817e-06
-6.95692e-05
7.64529e-05
-4.61391e-05
5.98913e-05
1.98549e-05
0.00800659
-0.00788925
0.0104916
-0.00876403
0.0112303
-0.00878257
0.0122113
-0.010018
0.0138103
-0.00843871
0.0150996
-0.00611597
0.0159826
-0.00431468
0.0166296
-0.00302698
0.0171576
-0.00208863
0.0176289
-0.00138616
0.0180832
-0.00081897
0.0185316
-0.000344826
0.0189195
3.94243e-05
0.0190645
0.000288178
0.0186119
0.000376876
0.0172079
0.000334591
0.0147547
0.000178158
0.0114932
0.00454255
2.75848e-05
-9.34901e-06
-0.00105073
0.00103987
-4.52556e-06
-3.8071e-06
-2.08241e-06
-2.6672e-06
-0.000253851
0.000249258
-1.84549e-06
-0.000257133
-1.46705e-06
-0.00025973
-8.72444e-07
-1.80958e-07
-7.54972e-05
7.32767e-05
-7.7181e-05
-7.80111e-05
-4.12286e-05
0.000180529
0.00786614
-0.00836625
0.0104986
-0.00950423
0.0112298
-0.00981615
0.0122635
-0.0118504
0.0140428
-0.00998069
0.0153517
-0.00719815
0.0161824
-0.00509643
0.0167635
-0.00362856
0.0172311
-0.00257679
0.0176451
-0.00180222
0.0180447
-0.0011924
0.0184562
-0.000687839
0.0188744
-0.000263522
0.019222
6.71795e-05
0.0192853
0.000272746
0.0187156
0.000343212
0.017199
0.000273439
0.014659
0.000110622
0.011341
0.00448974
0.000145385
8.74809e-05
-0.00103303
0.00105827
3.82892e-06
-1.65941e-06
-2.70835e-07
-2.34883e-06
-0.000242246
0.000239144
-1.47178e-06
-0.000244914
-1.18093e-06
-0.000246489
-5.45707e-07
7.39302e-08
-7.07522e-05
6.89019e-05
-7.22213e-05
-7.30957e-05
-4.60169e-05
0.000164498
0.00774668
-0.00884584
0.010501
-0.0102186
0.0112153
-0.0109307
0.0123413
-0.013945
0.0143582
-0.0116288
0.0156917
-0.00830986
0.0164623
-0.00588394
0.0169701
-0.00423116
0.0173652
-0.00306198
0.0177161
-0.00221424
0.0180565
-0.001566
0.0184181
-0.00103962
0.0188075
-0.000593711
0.0192044
-0.000219789
0.0195085
6.70737e-05
0.0194907
0.000245109
0.0188132
0.000291436
0.0171807
0.000220438
0.0145487
8.83364e-05
0.0112063
0.00445073
5.21122e-05
0.000150961
-0.00109346
0.00111405
6.67947e-05
5.78037e-05
3.75154e-05
1.46456e-05
-0.000235699
0.000239434
3.68748e-08
-0.000236613
-7.93985e-07
-0.000236618
-3.135e-07
1.41717e-07
-6.7244e-05
6.57662e-05
-6.84278e-05
-6.89759e-05
3.89062e-05
7.89605e-06
0.007699
-0.0093147
0.0105017
-0.0109111
0.0111907
-0.0121656
0.0124501
-0.0163724
0.0147683
-0.013393
0.016122
-0.00944381
0.0168264
-0.00667432
0.0172516
-0.00482903
0.0175679
-0.00354453
0.0178469
-0.00262531
0.0181269
-0.00193782
0.0184278
-0.00138876
0.018767
-0.000930719
0.019144
-0.000537437
0.0195217
-0.000207771
0.0197829
4.97669e-05
0.0196857
0.000206222
0.0188981
0.000245223
0.0171556
0.000184287
0.0144524
0.000114639
0.0111303
0.00446028
-2.09321e-05
1.88702e-05
-0.00115105
0.00117894
2.76296e-06
2.1268e-05
3.85055e-05
7.53538e-05
-0.000286624
0.000301776
5.15737e-05
-0.000268468
3.95886e-05
-0.000248212
1.72021e-05
5.82611e-06
-6.47936e-05
6.48229e-05
-6.55913e-05
-6.59079e-05
9.84056e-05
-6.51626e-05
0.00766501
-0.00977608
0.0105016
-0.0115664
0.0111593
-0.0135704
0.0125916
-0.0191755
0.0152532
-0.0152242
0.0166006
-0.0105533
0.0172306
-0.00743296
0.0175853
-0.00540863
0.0178303
-0.00401689
0.01804
-0.00303429
0.0182552
-0.00230885
0.0184977
-0.00173934
0.0187778
-0.00127033
0.0191064
-0.000867815
0.0194739
-0.000516513
0.0198302
-0.000213413
0.0200457
2.16502e-05
0.01987
0.000165923
0.018977
0.000203097
0.0171366
0.000172545
0.0143942
0.000139628
0.0110887
0.00443523
-2.65843e-05
-1.39577e-05
-0.0011946
0.00118633
-8.37556e-06
-4.47681e-06
-1.98397e-06
5.08924e-06
-0.000356045
0.000357737
1.00591e-06
-0.000343278
8.44959e-06
-0.000327491
2.26682e-05
4.95889e-05
-0.000127428
0.000145158
3.37914e-05
-8.78466e-05
-7.0649e-05
0.000103201
-7.36971e-05
0.0076343
-0.0102181
0.0105042
-0.0121863
0.0111177
-0.0151383
0.0127273
-0.022303
0.0157194
-0.0169674
0.0169962
-0.0115046
0.0175526
-0.00807367
0.0178704
-0.00591251
0.018089
-0.00445266
0.0182653
-0.00342844
0.018434
-0.00267559
0.0186214
-0.00208894
0.018847
-0.00160899
0.019116
-0.00119896
0.0194372
-0.000839139
0.0197961
-0.000516687
0.0201332
-0.000235698
0.0203026
-1.34636e-05
0.0200491
0.000120896
0.0190589
0.000168301
0.0171405
0.000164931
0.0143686
0.000130702
0.0110606
0.00440105
-2.13742e-05
-1.86593e-05
-0.00117707
0.00116322
-9.81315e-06
-3.03407e-06
-2.57023e-06
-2.22636e-06
-0.00035812
0.000353947
-4.25989e-06
-0.000359535
-3.11529e-06
-0.000360629
-9.42428e-07
2.14574e-06
-0.000202065
0.000203571
-5.55366e-07
-0.000194893
1.23687e-06
-0.000177855
5.59013e-06
1.68543e-05
3.37895e-05
5.97062e-05
-4.12591e-05
0.00761441
-0.010655
0.0105021
-0.0127439
0.0110636
-0.0167821
0.0127577
-0.025546
0.0159691
-0.0182925
0.0170457
-0.0120409
0.017532
-0.00841428
0.0178931
-0.00622856
0.0181856
-0.00477976
0.0184159
-0.0037679
0.018604
-0.00301749
0.0187756
-0.00242942
0.0189613
-0.0019457
0.0191835
-0.00153264
0.0194492
-0.00116972
0.0197675
-0.00083795
0.020117
-0.000533065
0.0204302
-0.000264661
0.0205535
-5.44364e-05
0.0202241
7.75527e-05
0.0191494
0.000138911
0.0171662
0.000138092
0.0143608
8.27151e-05
0.0110371
0.00438629
-9.0278e-06
-1.80871e-05
-0.00115561
0.00114471
-1.07004e-05
-1.12224e-05
-0.00034662
0.000318674
1.81039e-05
-0.000350048
3.63373e-07
-0.000351797
-8.68855e-07
-1.24195e-07
-0.000202249
0.000199349
-1.41081e-06
-0.000204539
-8.67226e-07
-0.000205175
-3.52599e-07
5.01857e-07
-5.74639e-05
5.69006e-05
-5.62305e-05
-5.06438e-05
-2.63274e-05
4.1273e-05
0.00759878
-0.0110578
0.0104469
-0.0132059
0.0109591
-0.0182388
0.0125194
-0.0284986
0.0157111
-0.0186399
0.0163162
-0.0117477
0.0167526
-0.00817531
0.0172924
-0.00616519
0.0178294
-0.00487753
0.0182827
-0.0039768
0.0186246
-0.00329307
0.0188791
-0.0027392
0.0190852
-0.00227032
0.0192855
-0.00186276
0.0195133
-0.00149941
0.0197785
-0.00116541
0.0200946
-0.000853378
0.0204369
-0.000562908
0.0207281
-0.000305005
0.0208038
-0.000100861
0.0204022
3.70866e-05
0.0192509
0.000100824
0.0172031
9.11181e-05
0.014352
8.43663e-06
0.011002
0.00440857
2.39833e-05
-5.28125e-06
-0.00113186
0.00112935
-6.80928e-06
-5.51054e-06
-0.000525693
0.000516281
-7.1645e-07
-7.28483e-07
-0.000218618
1.35022e-07
1.4671e-07
-0.00019853
-2.00185e-06
-0.000198235
4.21687e-08
-0.000198931
-2.14974e-07
2.57259e-07
-5.6174e-05
5.47551e-05
-5.70455e-05
-5.74024e-05
-0.000124043
0.00017481
0.0075477
-0.0113591
0.0102556
-0.0135503
0.0107939
-0.0191868
0.0119048
-0.0303909
0.0144105
-0.0171605
0.0142322
-0.0101314
0.0146995
-0.00704149
0.0156182
-0.00551025
0.0166367
-0.00459069
0.0175422
-0.00394154
0.0182468
-0.00341988
0.0187512
-0.0029647
0.0191041
-0.00255251
0.0193671
-0.00217561
0.0195979
-0.0018239
0.0198374
-0.00149424
0.020107
-0.00118139
0.0204222
-0.000880931
0.0207546
-0.000599068
0.0210219
-0.00034821
0.0210508
-0.000145805
0.0205848
-6.5394e-06
0.019358
5.40829e-05
0.0172399
2.88818e-05
0.0143314
-6.10611e-05
0.0109388
0.00441102
0.00011813
5.41627e-05
-0.00112458
0.00114302
5.43493e-06
-6.77313e-07
-0.000510952
0.0005052
-5.83039e-07
-6.702e-07
-2.55668e-07
-7.46102e-08
-5.23687e-05
5.16398e-05
-5.31023e-05
5.29556e-05
-5.28274e-05
-5.48314e-05
-5.47932e-05
-5.50124e-05
-0.000146548
0.000210027
0.00748393
-0.0115162
0.0100196
-0.013558
0.0052087
0.00504978
-0.0088138
0.00570004
0.00536223
-0.0106419
-0.015625
0.00632473
-0.0144699
0.0052851
-0.00859143
0.0102617
-0.00442045
-0.00688722
0.0109876
-0.0048819
0.0125392
-0.00415454
0.0142618
-0.00380261
0.015848
-0.00354946
0.0171498
-0.00330312
0.0181296
-0.00303335
0.0188196
-0.00274258
0.0192937
-0.00243897
0.0196301
-0.00212729
0.0199009
-0.00181695
0.0201598
-0.00151057
0.0204358
-0.00121015
0.0207511
-0.000918663
0.0210739
-0.000643053
0.0213163
-0.000394722
0.0212995
-0.000189167
0.0207672
-5.1096e-05
0.019463
1.82169e-06
0.0172667
-2.30398e-05
0.0142933
-7.99198e-05
0.010872
0.00438501
0.000101061
0.000134763
-0.00116274
0.00119034
9.04926e-05
3.4387e-05
-0.000504601
0.000510806
-1.9657e-07
-6.52177e-07
-2.40602e-07
6.73221e-08
-5.0623e-05
5.00276e-05
-5.13015e-05
5.13761e-05
-7.71321e-05
9.28101e-05
0.00746812
-0.0115602
0.00985667
-0.013137
0.00493353
0.00466775
-0.0085343
0.00492797
-0.00825753
0.00477473
-0.0160402
0.00611552
-0.0159379
0.00248279
0.0027775
-0.00999624
0.00428261
-0.00708249
0.00481637
-0.00794145
0.00221321
0.00260665
-0.00523286
-0.00304338
-0.00142387
0.00112653
0.00154377
-0.00146249
0.00583856
-0.00100214
-0.00125542
0.00256009
-0.000908992
-0.00211966
0.0082244
-0.00231876
0.0107026
-0.00258312
0.0130418
-0.00277838
0.0150763
-0.00287231
0.0167188
-0.00286388
0.0179597
-0.00276807
0.0188447
-0.00259734
0.0194517
-0.00237077
0.0198732
-0.00210993
0.0201935
-0.00182926
0.020478
-0.00154114
0.0207665
-0.00125007
0.0210821
-0.000963606
0.0213943
-0.000688298
0.0216096
-0.000436813
0.021547
-0.000231784
0.0209476
-9.72344e-05
0.0195619
-4.0267e-05
0.0172838
-4.01049e-05
0.0142534
-4.24083e-05
0.0108371
0.00441669
5.41102e-06
5.56088e-05
-0.00120622
0.00123548
7.16992e-05
0.000118795
-0.000540746
0.000587298
3.20383e-05
1.18757e-05
4.40123e-07
3.97787e-06
-4.91918e-05
4.8991e-05
-4.98492e-05
4.97818e-05
7.51328e-06
-5.32316e-06
0.00746593
-0.0115857
0.009892
-0.0122872
0.00454187
0.00446079
-0.00803207
0.00470636
-0.00749627
0.0041341
-0.00973252
0.0023461
0.00216303
-0.00668915
0.00106613
0.00173128
-0.0077638
0.00745536
-0.00791417
0.00294152
0.0022914
-0.00260665
0.00177671
-0.00294152
0.000352828
0.000790857
-0.00023147
0.000566774
0.0010792
0.00153501
-0.000437679
-2.76791e-05
0.00371621
2.95733e-05
0.000883889
-0.000351308
-0.000400713
0.000570796
-0.00067644
0.00658102
-0.00128068
0.0093994
-0.00178191
0.0120449
-0.00216511
0.0143687
-0.00242863
0.0162832
-0.00256743
0.0177586
-0.00258711
0.0188341
-0.00250228
0.0195828
-0.00233624
0.0200991
-0.00211339
0.0204773
-0.0018569
0.0207934
-0.00157955
0.0210957
-0.00129305
0.0214112
-0.00100753
0.0217133
-0.000731056
0.0219036
-0.00047776
0.0217928
-0.000272318
0.0211225
-0.000130539
0.0196521
-5.70377e-05
0.0173005
-2.3127e-05
0.0142341
1.83668e-05
0.0108262
0.00442757
-1.75982e-05
1.35137e-06
-0.00126321
0.00126758
9.9396e-07
2.78143e-05
-0.00062152
0.000669359
4.61291e-06
1.92007e-05
4.54494e-05
3.90397e-05
-6.52811e-05
9.73058e-05
-5.34073e-05
4.94294e-05
6.44459e-05
-5.10831e-05
0.0074527
-0.0116433
0.0099977
-0.0114239
0.00445258
0.00457839
-0.00693142
0.00397491
-0.00625816
0.00378864
-0.00935797
0.00233111
0.00200196
-0.00824352
0.00139778
0.00162028
0.00632234
-0.00604741
0.00207108
0.00179621
0.00618289
-0.00511644
-0.00689125
0.000923252
0.000121353
0.000277185
-0.000111229
0.000398148
-6.18379e-06
1.81758e-05
0.00072723
0.000128624
-2.32484e-06
0.00304096
0.000641542
0.000114944
0.000129441
-5.57246e-05
-2.70752e-05
-0.000387903
0.00568738
-0.000877111
0.00849395
-0.00136025
0.0112396
-0.00179779
0.0137374
-0.00214226
0.0158576
-0.00236929
0.0175404
-0.00246593
0.0187973
-0.00244327
0.0196895
-0.00232413
0.0203094
-0.00213164
0.0207518
-0.00189034
0.0211038
-0.00162305
0.0214256
-0.00133983
0.0217432
-0.00105177
0.0220339
-0.00077048
0.0221961
-0.000513507
0.0220339
-0.000300405
0.0212922
-0.000147651
0.0197427
-5.22686e-05
0.0173295
1.38231e-05
0.0142387
6.93238e-05
0.0108212
0.00440886
-2.01282e-05
-1.22378e-05
-0.00127076
0.00126295
-9.80969e-06
-1.87894e-06
-0.000693456
0.000697548
-2.46872e-06
-6.43458e-07
3.98136e-06
-3.21788e-07
-0.000156869
0.000160741
7.20393e-07
-0.000141937
4.25703e-06
0.000116418
2.63019e-05
1.3501e-05
9.16534e-05
-6.81619e-05
0.00742911
-0.0116732
0.0100106
-0.0105747
0.00914594
-0.00560352
0.00379703
-0.00488894
0.00386542
-0.00687796
0.00132216
0.00128894
-0.00556052
0.00122116
0.0012506
-0.00596606
0.00224971
-0.00565007
0.00168569
0.00505041
-0.00441003
0.000757458
0.0010206
-0.00644721
0.00162736
-0.00419308
1.01201e-05
3.93172e-06
2.20961e-05
0.00019246
2.23856e-05
4.30094e-05
-0.000282361
2.38979e-05
0.000869933
2.67966e-05
-7.0319e-05
0.00272242
1.42037e-06
2.34591e-05
-2.47355e-06
-3.14727e-05
-2.18334e-05
-7.51829e-06
-0.000320438
0.00512996
-0.000694427
0.00782757
-0.00113687
0.0105782
-0.00157856
0.0131732
-0.00195976
0.0154476
-0.00223417
0.0173082
-0.00238344
0.0187371
-0.00240831
0.0197734
-0.00232443
0.0205017
-0.00215781
0.0210191
-0.0019319
0.0214123
-0.00166725
0.0217529
-0.00138416
0.0220754
-0.00109147
0.0223548
-0.000803838
0.0224863
-0.000540765
0.0222742
-0.000318727
0.0214631
-0.000151448
0.0198418
-3.10949e-05
0.0173743
5.31567e-05
0.014255
9.84722e-05
0.0108142
0.00437655
-1.96406e-05
-1.64267e-05
-0.00125679
0.00124732
-1.06466e-05
-6.09784e-06
-0.000696863
0.000690951
-2.29437e-06
-1.61413e-06
-1.3964e-07
-1.10235e-06
-0.000163478
0.000161841
-8.39026e-07
-0.000163821
-3.01702e-07
0.000164063
6.32389e-07
-9.40694e-08
-4.40566e-05
4.4773e-05
-3.98017e-05
2.63007e-05
9.60634e-05
-7.0323e-05
0.00740286
-0.011715
0.0100324
-0.00980291
0.00924087
0.00298396
-0.00508475
0.00304268
0.00331371
-0.00410109
0.00116411
0.00117462
0.00145664
0.00129168
-0.00378667
0.000699002
-0.00316735
0.000669494
0.00255152
-0.00193129
0.000601415
0.000634749
-0.00676313
0.0025656
-0.00507795
0.00405735
-0.00329983
-0.0025656
-1.93942e-05
1.02326e-05
1.46984e-05
8.83707e-06
5.34417e-05
-2.95646e-05
-5.19734e-06
2.26925e-06
2.6962e-06
8.78156e-06
0.000812853
-2.26982e-05
7.66656e-05
7.29887e-07
2.57284e-06
-8.85363e-05
0.00248973
-2.98908e-05
1.68528e-06
8.20221e-06
7.51829e-06
-2.93575e-05
-0.000285608
0.00472052
-0.000611473
0.00730163
-0.0010202
0.0100193
-0.00145126
0.0126642
-0.00184072
0.0150537
-0.00214303
0.0170674
-0.00232767
0.018656
-0.00238704
0.0198358
-0.00233365
0.0206771
-0.0021849
0.021272
-0.00196948
0.0217142
-0.00170983
0.0220784
-0.00142126
0.0224049
-0.00112383
0.0226747
-0.000831275
0.0227766
-0.000557978
0.0225134
-0.000324884
0.0216364
-0.000139406
0.0199501
-3.80584e-06
0.0174312
8.04251e-05
0.0142731
0.000105772
0.0108043
0.00434229
-1.81015e-05
-1.8276e-05
-0.0012378
0.00122868
-1.0615e-05
-6.95387e-06
-0.00068606
0.000678983
-1.98605e-06
-1.56596e-06
-4.02631e-07
-8.23442e-07
-0.00015948
0.000157967
-7.87144e-07
-0.000160729
-3.68948e-07
0.000161606
7.2785e-08
-2.37102e-07
-4.5006e-05
4.41647e-05
-4.53095e-05
4.54036e-05
7.94017e-05
-5.89592e-05
0.00738212
-0.0117768
0.0100653
-0.00921715
0.00944468
-0.00362883
0.00778734
0.00319368
-0.000364403
-0.00142001
0.000884474
0.00075124
0.00395023
0.00255755
-0.00133081
0.000563998
-0.000709013
0.000553101
0.000159401
0.000933162
0.000742107
-0.00260071
-0.00193146
0.00129672
-0.000695042
-1.91296e-05
-1.02994e-05
-4.77805e-07
-3.07869e-06
-3.4336e-06
5.69535e-06
-7.44963e-07
8.26448e-05
3.41966e-06
-8.16521e-07
-1.86053e-06
0.000755067
-2.946e-05
7.69201e-05
-6.59488e-06
-1.05725e-05
-2.72813e-08
3.99539e-06
-1.52149e-06
-9.57197e-05
0.00229916
-2.61489e-06
-0.000282755
0.00439119
-0.000582813
0.00686367
-0.000963739
0.0095312
-0.00137283
0.0121958
-0.00176208
0.0146722
-0.00207893
0.0168184
-0.0022887
0.0185572
-0.00237687
0.0198788
-0.00234513
0.020837
-0.00221382
0.0215162
-0.00200614
0.0220102
-0.00174464
0.0224017
-0.00145443
0.0227353
-0.00114894
0.0229923
-0.000845869
0.0230643
-0.000565387
0.0227539
-0.000318102
0.021815
-0.000120397
0.0200668
1.83678e-05
0.0174931
8.9089e-05
0.0142897
9.07589e-05
0.0107927
0.0043166
-1.44884e-05
-1.89418e-05
-0.00121759
0.0012097
-1.03687e-05
-7.2963e-06
-0.000673194
0.000665915
-1.86998e-06
-1.52332e-06
-4.55169e-07
-7.5048e-07
-0.000155576
0.000154295
-7.00541e-07
-0.000156817
-3.13162e-07
0.000157466
8.79732e-08
-1.76197e-07
-4.3628e-05
4.28395e-05
-4.39987e-05
4.42358e-05
4.04809e-05
-2.69831e-05
0.00736833
-0.0118716
0.010102
-0.00880265
0.00965277
-0.00304842
0.00886198
-0.00332074
0.00798407
0.00316998
0.00390712
-0.00116537
0.000679354
-0.00143069
0.00231534
-0.000679354
0.000903019
0.00064915
-0.000130417
0.000423262
2.61489e-06
6.61623e-06
7.34889e-07
6.57601e-06
-8.29222e-07
7.343e-05
3.44223e-06
-1.98766e-06
-8.01942e-06
0.00069891
-3.19881e-05
7.17126e-05
-2.79623e-05
3.39839e-06
-3.48185e-06
1.7047e-07
-7.41454e-06
-1.52363e-06
-0.000120813
0.00213658
-0.000302733
0.00411044
-0.000581416
0.00648073
-0.000931836
0.00908957
-0.00132572
0.0117591
-0.00170957
0.0143025
-0.00203374
0.0165632
-0.0022605
0.0184404
-0.00236902
0.0199025
-0.00235731
0.0209801
-0.00223775
0.0217477
-0.00203567
0.022301
-0.001775
0.0227222
-0.00147877
0.023065
-0.00116663
0.023313
-0.000854952
0.0233538
-0.000561235
0.022997
-0.000304988
0.0219995
-0.000100974
0.0201862
3.08044e-05
0.0175513
8.14511e-05
0.014299
5.73991e-05
0.0107755
0.00430995
-4.11536e-06
-1.64178e-05
-0.00119805
0.00119301
-9.50395e-06
-7.3485e-06
-0.000659783
0.000652619
-1.78881e-06
-1.52509e-06
-4.96229e-07
-7.41308e-07
-0.000151914
0.000150694
-6.69445e-07
-0.00015315
-2.96823e-07
0.000153739
8.21259e-08
-1.73566e-07
-4.24377e-05
4.17368e-05
-4.27511e-05
4.29273e-05
-2.24969e-05
3.94201e-05
0.00735093
-0.0119905
0.0101344
-0.00854136
0.00983932
-0.00288362
0.00948945
0.00712186
0.00972543
0.00183786
-0.000535405
0.00226276
-0.000395232
0.00219817
0.00354746
-0.000385397
0.000753096
0.000263755
-7.90999e-07
-1.62353e-06
2.86301e-07
3.28949e-06
-1.18284e-07
-1.64307e-06
6.57171e-05
-2.2044e-06
-2.0271e-05
0.000638833
-4.09414e-05
5.94413e-05
-2.58731e-05
6.5646e-06
-2.89463e-05
-3.69304e-06
-2.13237e-06
-5.11019e-06
-1.25284e-05
-0.000158206
0.00199138
-0.000331273
0.00385953
-0.000585058
0.00613331
-0.000919706
0.00868306
-0.00129542
0.0113446
-0.0016709
0.0139392
-0.00199869
0.0163011
-0.00223819
0.0183091
-0.00236144
0.0199066
-0.00236361
0.0211057
-0.00225655
0.0219685
-0.00205779
0.0225835
-0.00179601
0.0230394
-0.00149367
0.0233918
-0.00117273
0.0236307
-0.000852915
0.0236453
-0.000550416
0.0232424
-0.00028641
0.0221848
-8.54859e-05
0.0203025
3.2436e-05
0.0176001
6.0872e-05
0.0142955
1.11518e-05
0.0107416
0.00432427
2.73538e-05
-2.42653e-06
-0.00118272
0.00118444
-5.91516e-06
-6.16121e-06
-0.000646596
0.000640333
-1.68643e-06
-1.597e-06
-6.10431e-07
-7.44809e-07
-0.000148244
0.000147071
-6.51464e-07
-0.000149509
-2.97084e-07
0.000150095
6.97833e-08
-1.83408e-07
-4.13449e-05
4.0671e-05
-4.16435e-05
4.18171e-05
-8.43857e-05
0.000133208
0.00730184
-0.0121398
0.0101649
-0.00839647
0.00999135
-0.00292067
0.00987458
0.00577591
0.0108374
-0.00157933
0.00470922
0.00879463
0.0010191
0.00166694
-0.000180099
-0.000242097
-0.00013927
0.000497191
0.00298727
0.000124489
-6.63177e-06
-2.63128e-06
-1.74776e-06
-2.5997e-05
-3.471e-06
-1.78377e-06
5.0763e-05
-1.17669e-05
-3.14015e-05
0.000582717
-7.11993e-05
4.11441e-05
-3.14907e-05
-3.76575e-05
-7.36298e-06
-6.94203e-06
6.51552e-06
-1.02154e-05
4.38064e-06
-0.000194308
0.00185359
-0.00034843
0.00362212
-0.000597426
0.00581059
-0.000914201
0.00830143
-0.001276
0.0109494
-0.00164361
0.0135835
-0.0019709
0.0160337
-0.00221776
0.0181651
-0.00235293
0.0198958
-0.00236663
0.0212154
-0.00226557
0.0221763
-0.00207014
0.0228575
-0.00180663
0.0233523
-0.00150056
0.0237195
-0.00117165
0.0239494
-0.000841422
0.0239361
-0.000531296
0.0234874
-0.000265959
0.0223651
-7.25428e-05
0.0204075
2.84407e-05
0.0176323
3.68942e-05
0.0142697
-2.12409e-05
0.010678
0.00431363
9.47323e-05
4.88633e-05
-0.00118139
0.00119857
1.00843e-05
5.67468e-07
-0.0006355
0.000632489
-1.34463e-06
-1.61076e-06
-7.25474e-07
-6.24251e-07
-0.000144537
0.000143469
-6.31985e-07
-0.000145838
-3.05777e-07
0.000146399
4.58511e-08
-1.92758e-07
-4.02515e-05
3.95937e-05
-4.0553e-05
4.07364e-05
-8.42677e-05
0.000149884
0.00723544
-0.0123074
0.0101878
-0.00834385
0.0101115
-0.00306073
0.0101323
0.00440371
0.0112477
0.00467445
0.010873
-0.000929711
0.00281256
0.00751801
-0.000606247
0.000460144
-5.37717e-05
0.00127777
-1.66402e-05
-0.000379711
0.000199637
-0.000124489
0.00251772
-2.63288e-06
-1.36914e-05
-1.17109e-05
-3.79142e-06
-4.4325e-05
-1.25938e-06
-3.94349e-06
2.79579e-05
-1.83909e-05
-0.000133897
0.000521473
6.22734e-07
-4.40689e-05
-5.43162e-05
-1.11063e-05
-1.05039e-05
1.5673e-05
-2.04688e-05
-2.602e-06
-3.00466e-06
-0.000206039
0.00171043
-0.000372738
0.00339697
-0.000607806
0.00550387
-0.000913397
0.00793833
-0.00126256
0.010568
-0.00162055
0.0132327
-0.00194646
0.0157623
-0.00219465
0.0180064
-0.00233794
0.0198671
-0.00236061
0.0213102
-0.00226625
0.0223723
-0.00207491
0.0231255
-0.00180955
0.0236612
-0.00149697
0.0240446
-0.00116076
0.0242687
-0.000822515
0.0242272
-0.000507565
0.023729
-0.000244688
0.0225371
-6.19204e-05
0.0204979
2.5674e-05
0.0176433
2.86751e-05
0.0142197
-8.28323e-06
0.0106017
0.00427767
7.91605e-05
0.000106439
-0.00121028
0.00122734
7.75683e-05
3.71308e-05
-0.000633717
0.000644038
8.72334e-07
-1.1727e-06
-7.27414e-07
3.13307e-08
-0.000140953
0.000140178
-5.86703e-07
-0.000142272
-3.03453e-07
0.000142713
2.09316e-08
-1.9108e-07
-3.9138e-05
3.85037e-05
-3.94453e-05
3.96381e-05
-9.35795e-06
5.11551e-05
0.00719372
-0.0124943
0.0102049
-0.0083497
0.0101952
-0.00325823
0.0103076
0.00316941
0.0113682
0.00413413
0.0117884
0.0033658
0.0103202
0.00161963
0.00642773
-0.000234717
-0.000294315
-0.000246271
0.00215793
0.000145869
0.0010524
-8.95344e-06
-1.18337e-05
0.000129232
-3.79242e-06
-2.18718e-05
1.08332e-07
-2.32218e-05
-2.63037e-06
-5.90617e-05
-6.09199e-06
-7.6434e-06
6.8752e-05
-1.67487e-05
-0.000156443
-2.94521e-05
-0.000123619
0.000438207
-3.4516e-05
2.63905e-05
-2.98876e-05
-7.65847e-06
-7.36945e-06
6.79709e-06
-9.40242e-06
-0.000230916
0.00156805
-0.000387639
0.00317636
-0.000620103
0.00521018
-0.000913501
0.00758864
-0.00125124
0.0101985
-0.0016009
0.0128868
-0.00191987
0.0154874
-0.00217036
0.0178385
-0.00231892
0.0198253
-0.00234845
0.0213922
-0.00226002
0.0225574
-0.00206942
0.0233852
-0.00180121
0.0239654
-0.00148329
0.024367
-0.00113969
0.0245859
-0.000796177
0.0245157
-0.000480367
0.0239648
-0.000221354
0.0226964
-4.53177e-05
0.0205689
3.81626e-05
0.0176335
5.34868e-05
0.0141579
5.39775e-05
0.0105379
0.00427747
2.01062e-06
4.92144e-05
-0.00123557
0.00124914
6.54099e-05
9.80564e-05
-0.000668058
0.000692767
3.42892e-05
1.84894e-05
2.77292e-06
1.03239e-05
-0.000138594
0.000139712
-2.67495e-07
-0.000139563
-2.22251e-07
0.000139418
1.61415e-08
-1.27057e-07
-3.80275e-05
3.74372e-05
-3.83322e-05
3.85233e-05
8.46912e-05
-4.5942e-05
0.00715414
-0.0126882
0.0102139
-0.00839027
0.010245
-0.00347565
0.0104132
0.00211235
0.0113652
0.0034196
0.0120831
0.00331668
0.0118367
0.0024163
0.00952416
0.00115768
0.00585188
-0.000304352
-0.000276527
-0.00195144
0.00179333