/*--------------------------------*- C++ -*----------------------------------*\
| =========                 |                                                 |
| \\      /  F ield         | OpenFOAM: The Open Source CFD Toolbox           |
|  \\    /   O peration     | Version:  v1912                                 |
|   \\  /    A nd           | Website:  www.openfoam.com                      |
|    \\/     M anipulation  |                                                 |
\*---------------------------------------------------------------------------*/
FoamFile
{
    version     2.0;
    format      ascii;
    class       volVectorField;
    location    "120";
    object      U;
}
// * * * * * * * * * * * * * * * * * * * * * * * * * * * * * * * * * * * * * //

dimensions      [0 1 -1 0 0 0 0];


internalField   nonuniform List<vector> 
3754
(
(0.995609 0.00295969 1.09167e-22)
(0.996013 0.00861558 0)
(0.950734 0.0118046 1.61308e-22)
(0.99664 0.0135923 0)
(0.955732 0.0333995 0)
(0.812781 0.0379629 -2.10336e-21)
(0.997146 0.0174567 0)
(0.965206 0.0511429 -1.33008e-20)
(0.842148 0.0990771 1.4262e-22)
(0.515425 0.0520405 1.14368e-21)
(0.532064 0.147127 9.87265e-22)
(0.997508 0.0200114 -1.84e-22)
(0.977234 0.0633811 1.32317e-20)
(0.892981 0.145183 0)
(0.578913 0.237962 8.93093e-22)
(0.646742 0.306646 -3.80161e-21)
(0.117894 0.102634 -2.27491e-22)
(0.111707 0.0347948 2.33297e-22)
(0.158773 0.226886 0)
(0.13244 0.167621 0)
(0.997841 0.0213636 0)
(0.988706 0.070775 5.65981e-22)
(0.935148 0.166804 0)
(0.719306 0.356768 2.8626e-21)
(0.802361 0.380719 -4.38199e-21)
(0.2509 0.313951 -1.08998e-22)
(0.198342 0.277528 2.38256e-21)
(0.479584 0.477928 -7.45916e-22)
(0.345988 0.411604 0)
(0.998221 0.0217676 0)
(0.997826 0.0741953 0)
(0.964659 0.167072 -1.78924e-22)
(0.955618 0.447552 -1.18202e-20)
(0.663511 0.551526 9.36173e-22)
(0.576836 0.518993 -8.64611e-22)
(0.780573 0.506591 0)
(0.29667 0.332025 -2.8201e-21)
(0.133116 0.204248 6.41148e-21)
(0.998639 0.0214722 0)
(1.00436 0.0744105 -7.89806e-23)
(0.987714 0.157822 0)
(1.06418 0.423387 1.4802e-20)
(0.89195 0.319229 -1.04523e-21)
(1.06478 0.388527 3.03249e-21)
(0.558038 0.401825 1.37679e-21)
(0.399664 0.343716 -1.25004e-21)
(0.758333 0.378993 -1.53477e-21)
(0.534951 0.272261 1.31406e-21)
(0.999048 0.0206647 -1.72859e-23)
(1.00884 0.0720951 0)
(1.00675 0.14615 7.05403e-23)
(1.10759 0.371555 0)
(1.19075 0.309452 -1.85533e-21)
(0.631819 0.092671 -6.39554e-21)
(0.546179 0.146124 1.87587e-21)
(0.923347 0.143595 6.91806e-21)
(0.241211 0.150436 0)
(0.250712 0.0825763 0)
(0.999404 0.0194594 3.29941e-20)
(1.01193 0.0678682 1.87592e-23)
(1.02242 0.134043 2.55228e-23)
(1.12044 0.314717 -8.97983e-21)
(1.28824 0.299323 0)
(1.01919 0.142117 1.34155e-20)
(0.425276 0.0224942 -3.82121e-22)
(0.272454 0.0193732 1.59092e-22)
(0.376393 0.0484485 -1.25962e-22)
(0.727635 0.070199 0)
(0.133867 0.00951854 -2.70923e-23)
(0.999692 0.01794 -3.24988e-20)
(1.01416 0.0622737 0)
(1.03454 0.121678 0)
(1.1233 0.265301 1.74073e-20)
(1.30483 0.275076 7.26577e-24)
(1.27072 0.177681 -1.26786e-20)
(0.829293 0.0512099 -1.31671e-20)
(0.582179 0.0534439 3.55302e-21)
(0.202347 0.00140806 1.50369e-22)
(0.32466 0.0206754 -3.18078e-21)
(0.18734 0.00517019 2.97893e-22)
(0.0828229 0.00207261 6.37096e-23)
(0.999908 0.0161714 0)
(1.01586 0.0557357 -3.07174e-20)
(1.04334 0.108937 0)
(1.12426 0.223416 -8.35376e-21)
(1.29054 0.24569 0)
(1.35985 0.186021 -1.93493e-20)
(1.16036 0.103336 3.45418e-20)
(0.739369 0.023357 -2.57373e-20)
(0.466618 0.0147889 0)
(0.496452 0.0168843 1.42051e-23)
(0.0585531 -0.000859215 -1.40428e-22)
(0.269037 0.00404702 -1.74611e-22)
(0.13987 0.00728902 5.84613e-22)
(0.159723 0.00393422 -1.50212e-22)
(0.0579424 0.000229984 -8.64577e-23)
(1.00006 0.0142075 3.28184e-24)
(1.0172 0.0485317 5.82663e-20)
(1.04956 0.0958194 2.33932e-20)
(1.12506 0.187242 0)
(1.26994 0.214674 -3.08636e-25)
(1.37071 0.179531 2.07052e-21)
(1.32226 0.12967 -2.10569e-20)
(1.07004 0.0678994 2.32677e-20)
(0.702907 0.0202735 -3.19163e-21)
(0.453059 0.00916751 3.66987e-22)
(0.448573 0.00333808 -3.69419e-22)
(0.254688 0.00303936 -3.53563e-22)
(0.121717 -0.00126434 -5.30545e-22)
(0.119704 0.00211197 9.09444e-22)
(0.0414634 0.000822276 1.33179e-24)
(0.0498255 0.000173818 -1.31921e-24)
(1.00015 0.0120825 0)
(1.01833 0.0408371 -2.76391e-20)
(1.05395 0.0824309 -2.30136e-20)
(1.12573 0.155518 1.01371e-20)
(1.25187 0.185007 0)
(1.35463 0.165296 1.8174e-20)
(1.37458 0.136876 0)
(1.26926 0.0985688 -4.93863e-24)
(1.00815 0.0524819 2.33173e-20)
(0.673307 0.0215233 3.18041e-21)
(0.455533 0.0098429 5.52863e-21)
(0.456962 0.00643829 0)
(0.271254 0.00286511 -4.79728e-21)
(0.2524 -0.000607821 -2.66525e-24)
(0.114667 0.00193344 2.44977e-22)
(0.115982 -0.000766175 4.99361e-22)
(0.0356132 -0.000510108 7.57918e-23)
(0.0362648 0.000263728 -1.46026e-22)
(1.00019 0.00982496 0)
(1.01935 0.0327552 2.58973e-24)
(1.05714 0.0688538 0)
(1.1263 0.127113 -1.07051e-20)
(1.23805 0.157448 6.9085e-25)
(1.33425 0.149045 0)
(1.37722 0.133611 -4.57096e-24)
(1.35528 0.113469 0)
(1.22076 0.0817819 -2.08389e-20)
(0.958867 0.0471957 0)
(0.641447 0.0215725 1.34058e-20)
(0.439158 0.00854074 -3.48497e-22)
(0.445788 0.00834433 -5.11412e-21)
(0.296721 0.00367744 -8.58697e-22)
(0.29367 0.00179603 -2.81294e-22)
(0.151886 0.00415422 1.39505e-20)
(0.132065 -0.00163191 0)
(0.113701 -0.00161643 0)
(0.120734 0.000353855 -1.87691e-21)
(0.0347305 0.000272507 -1.3807e-22)
(0.0353556 -0.000246133 0)
(1.00019 0.00744646 0)
(1.02035 0.0243491 0)
(1.05955 0.0551237 -1.6916e-20)
(1.12703 0.101063 0)
(1.22823 0.13165 0)
(1.31685 0.132786 -3.11693e-20)
(1.36449 0.1263 0)
(1.37715 0.117493 1.88114e-20)
(1.33004 0.100344 0)
(1.17531 0.0738486 2.04029e-20)
(0.916199 0.044508 0)
(0.346185 0.00557355 -1.63719e-20)
(0.612942 0.0212204 -1.29885e-20)
(0.285836 0.00213646 -8.67095e-22)
(0.292685 0.00364315 -2.85445e-22)
(0.181593 0.00180423 0)
(0.18123 0.000948165 2.60129e-21)
(0.172657 -0.000334533 1.59044e-24)
(0.179607 0.00105066 -1.02472e-22)
(0.0676235 0.00388322 -1.34199e-20)
(0.0447974 -0.000528131 1.32097e-21)
(0.034813 -0.000380472 0)
(0.0387807 -7.14117e-05 7.22461e-24)
(1.00014 0.00495601 6.82992e-25)
(1.02141 0.0156439 0)
(1.0615 0.0412738 1.63564e-20)
(1.1282 0.0765592 0)
(1.22206 0.107193 1.3242e-20)
(1.30393 0.116824 3.14593e-20)
(1.35042 0.117753 -3.67364e-20)
(1.37313 0.116042 -5.70228e-20)
(1.36876 0.108859 0)
(1.30051 0.0937634 -1.92285e-20)
(1.13305 0.069744 0)
(0.878871 0.0433016 2.17173e-20)
(0.327446 0.00533024 1.47662e-20)
(0.127196 0.00194878 2.5305e-21)
(0.129811 -0.000695057 -7.49632e-22)
(0.593648 0.0229173 -2.48165e-20)
(0.172177 0.00050984 8.57804e-22)
(0.174127 0.00117418 4.21271e-22)
(0.179193 0.00113011 -1.0415e-22)
(0.178115 0.00175333 9.43224e-22)
(0.104882 0.000526428 0)
(0.105087 0.000318252 -7.16178e-22)
(0.0982224 -0.000303112 2.74894e-21)
(0.103389 0.000273396 -7.0209e-22)
(0.0187683 0.00102895 3.62907e-21)
(1.00006 0.0023411 0)
(1.02261 0.00665518 -2.14683e-20)
(1.06317 0.0273038 -1.41753e-20)
(1.1301 0.0528622 -9.86958e-25)
(1.21944 0.0837037 -1.26387e-20)
(1.29559 0.101223 -7.96492e-24)
(1.33927 0.108946 3.63067e-20)
(1.36271 0.112427 1.15118e-22)
(1.37331 0.111277 0)
(1.3537 0.104901 0)
(1.26911 0.0903505 0)
(1.0944 0.0675779 -1.91695e-20)
(0.847306 0.0437948 2.10216e-20)
(0.331097 0.00691104 -1.36914e-23)
(0.122506 0.0017535 0)
(0.121162 -0.000537614 -8.3759e-23)
(0.029069 0.000434668 1.29693e-22)
(0.0292968 3.18693e-05 0)
(0.0298733 8.51635e-05 6.56402e-23)
(0.029959 -0.00051632 0)
(0.0990544 -0.000389673 0)
(0.575469 0.0218868 -1.22677e-20)
(0.101098 0.000644431 -3.60283e-22)
(0.103501 0.000369912 1.79001e-22)
(0.102734 0.000538382 0)
(0.033282 2.43494e-05 0)
(0.0335047 9.02127e-06 0)
(0.0316112 -0.000579026 -1.86712e-21)
(0.0329032 -8.37036e-05 4.715e-22)
(0.999961 -0.000412918 4.49062e-20)
(1.02402 -0.00260803 4.19022e-20)
(1.06466 0.0131832 1.37304e-20)
(1.13298 0.029216 -1.13304e-24)
(1.2204 0.0608219 5.96958e-24)
(1.29181 0.0860234 -1.26637e-23)
(1.33204 0.100284 3.53626e-20)
(1.35325 0.108193 3.72588e-20)
(1.36641 0.110976 -3.81286e-20)
(1.36676 0.109806 0)
(1.3344 0.103264 2.15626e-24)
(1.2379 0.0883548 2.12322e-24)
(1.05954 0.0667041 0)
(0.818592 0.041958 2.55163e-24)
(0.328804 0.00767805 1.01181e-20)
(0.158202 0.000994029 -2.9621e-22)
(0.137019 0.00100271 5.38173e-21)
(0.0294519 0.000450991 -1.12023e-21)
(0.0274879 -0.000131316 6.5895e-23)
(0.0278319 2.56882e-05 -6.3797e-23)
(0.0278155 -0.000404454 6.414e-23)
(0.0311546 -0.000282261 -1.51103e-23)
(0.552258 0.0208879 -1.18093e-20)
(0.0320792 6.88149e-05 1.49697e-23)
(0.0328462 8.61971e-06 -1.27324e-22)
(0.0326155 3.79534e-05 7.52805e-24)
(0.999884 -0.00333279 -4.42222e-20)
(1.02569 -0.0121076 -6.18353e-20)
(1.06589 -0.00117532 0)
(1.13707 0.00488262 0)
(1.22511 0.0382053 -3.94933e-24)
(1.29269 0.0712577 2.8349e-20)
(1.32896 0.0919604 -3.44916e-20)
(1.34686 0.10397 0)
(1.35819 0.109795 3.76399e-20)
(1.36368 0.111623 2.24427e-24)
(1.35557 0.109961 0)
(1.31328 0.10243 -1.72943e-20)
(1.20802 0.0871096 -2.13843e-24)
(1.0275 0.0643688 1.79288e-20)
(0.789165 0.0400833 0)
(0.312858 0.00723673 1.48208e-20)
(0.155572 0.00311432 0)
(0.158825 0.00113829 5.39401e-21)
(0.0767347 0.000293731 0)
(0.0717601 0.000126545 4.39821e-23)
(0.0492624 0.00292186 -4.51311e-21)
(0.0333257 -0.000607761 1.29878e-21)
(0.528792 0.0198393 0)
(0.999881 -0.00643462 0)
(1.02761 -0.021785 4.03972e-20)
(1.06668 -0.0158976 0)
(1.1426 -0.0209091 0)
(1.23389 0.0155476 -5.17361e-24)
(1.2984 0.0569809 -5.61494e-20)
(1.33022 0.0840975 3.49946e-20)
(1.34418 0.100037 -9.01092e-24)
(1.35214 0.108526 0)
(1.35682 0.11234 4.56467e-24)
(1.35646 0.113218 -2.24093e-24)
(1.34207 0.110446 1.71642e-20)
(1.29175 0.101793 0)
(1.17954 0.0848383 -1.64888e-20)
(0.996267 0.0618366 -1.72272e-20)
(0.760705 0.0383734 0)
(0.296066 0.00647658 -6.07694e-24)
(0.144865 0.00288157 -2.2136e-21)
(0.148825 0.000699148 -2.94206e-22)
(0.0729292 0.00106535 9.29639e-23)
(0.0743168 0.000424991 1.87009e-22)
(0.0762306 0.000640352 -1.85619e-22)
(0.0765559 0.000127554 -7.38186e-22)
(0.0242303 -3.95677e-05 0)
(0.0230313 -0.00050278 0)
(0.0136479 0.00083249 0)
(0.508435 0.0186703 0)
(1.00003 -0.00972756 -4.57481e-20)
(1.02965 -0.0315105 -4.17548e-20)
(1.06665 -0.0312236 2.38218e-20)
(1.14998 -0.0490328 6.7096e-21)
(1.24734 -0.0074507 1.5808e-20)
(1.30934 0.0432576 2.77834e-20)
(1.3361 0.0768314 -3.40888e-20)
(1.34549 0.0965699 8.66964e-24)
(1.34941 0.107517 9.01305e-24)
(1.35111 0.112894 0)
(1.35111 0.1151 -2.13627e-24)
(1.34702 0.114733 -3.44089e-20)
(1.32759 0.11071 3.26684e-20)
(1.27028 0.100216 1.57368e-20)
(1.15158 0.0821957 3.15271e-20)
(0.966357 0.0595066 0)
(0.735071 0.0366364 1.81435e-20)
(0.282316 0.00592938 3.08641e-21)
(0.135708 0.00258261 0)
(0.138819 0.000364294 1.44317e-22)
(0.0671721 0.000982027 0)
(0.0683176 0.000260245 9.01142e-23)
(0.0698526 0.000571781 0)
(0.0706338 -7.91631e-05 -1.83099e-22)
(0.0227452 0.000118384 -5.37854e-23)
(0.0234591 -9.20973e-06 -8.09072e-23)
(0.0241864 7.85233e-05 8.1275e-23)
(0.0243861 -6.68064e-06 0)
(0.494107 0.0186613 -2.07215e-20)
(1.00038 -0.013167 4.5049e-20)
(1.03148 -0.0411345 4.08004e-20)
(1.0654 -0.0475791 8.62014e-22)
(1.16002 -0.0805577 -6.37345e-21)
(1.26655 -0.0310706 -5.01311e-20)
(1.32621 0.0301678 0)
(1.34707 0.0703011 9.26148e-25)
(1.35118 0.0937305 0)
(1.35052 0.106966 3.74848e-20)
(1.34832 0.113695 3.70391e-20)
(1.34578 0.116687 0)
(1.34331 0.117358 3.40839e-20)
(1.33666 0.115723 -6.51318e-20)
(1.31261 0.110027 -1.5497e-20)
(1.24859 0.0980609 -1.49983e-20)
(1.12445 0.0796419 0)
(0.938725 0.0572363 -1.57975e-20)
(0.713269 0.0357291 1.74083e-20)
(0.278339 0.00627785 0)
(0.128893 0.0025052 -4.46776e-21)
(0.13072 0.000256577 0)
(0.0626405 0.000889078 0)
(0.0635276 0.00018254 -8.80173e-23)
(0.0647273 0.000488075 -8.86561e-23)
(0.0653015 -0.000185312 0)
(0.0208215 0.000108498 0)
(0.0214102 -3.40027e-05 5.24316e-23)
(0.0219506 8.10546e-05 0)
(0.0220838 -4.39829e-05 1.06075e-22)
(0.483541 0.0179201 1.99217e-20)
(1.00096 -0.0166598 -4.84309e-20)
(1.03255 -0.0505039 -4.39645e-20)
(1.06277 -0.0656915 -2.31947e-20)
(1.17431 -0.116773 -7.92715e-21)
(1.29318 -0.0555203 -6.29679e-21)
(1.35015 0.0178189 -6.61784e-20)
(1.36393 0.0646766 -3.67355e-20)
(1.36184 0.0916849 -8.81569e-24)
(1.35595 0.107039 -3.67909e-20)
(1.34925 0.11495 -3.65186e-20)
(1.34299 0.118476 8.45201e-24)
(1.33845 0.119522 -3.40384e-20)
(1.33475 0.118824 -7.64035e-23)
(1.3258 0.115751 -1.93179e-24)
(1.29705 0.108613 0)
(1.22699 0.0957814 0)
(1.09877 0.0771127 0)
(0.913721 0.0554487 0)
(0.694431 0.0342841 1.66455e-20)
(0.281553 0.00628726 -2.18061e-20)
(0.136143 0.00320514 2.63089e-22)
(0.12838 -0.000173704 1.90345e-21)
(0.0591712 0.000841146 -3.37199e-22)
(0.059574 0.000163574 0)
(0.060606 0.000466701 0)
(0.0610426 -0.000188219 -8.53323e-23)
(0.0193717 9.93669e-05 0)
(0.0198505 -3.99144e-05 0)
(0.0202682 7.56566e-05 2.56031e-23)
(0.020314 -5.6105e-05 -2.54456e-23)
(0.470693 0.017253 1.90496e-20)
(1.0017 -0.0200635 4.76642e-20)
(1.03229 -0.0595775 -2.70503e-21)
(1.05919 -0.0865353 8.68381e-24)
(1.19491 -0.159083 7.45722e-21)
(1.32895 -0.0808485 3.76319e-20)
(1.38212 0.00643912 -7.42195e-21)
(1.3874 0.0601699 3.55931e-20)
(1.37812 0.0906377 2.69995e-23)
(1.36628 0.107907 -3.7652e-20)
(1.35446 0.116807 3.68487e-20)
(1.34381 0.120694 3.54752e-20)
(1.3357 0.121811 6.75098e-20)
(1.33048 0.121299 3.21067e-20)
(1.32587 0.119288 3.05748e-20)
(1.31444 0.114974 -3.44377e-24)
(1.2812 0.106876 0)
(1.20603 0.0934028 0)
(1.07478 0.0748104 0)
(0.891049 0.0533407 -2.88106e-20)
(0.675776 0.0327346 -1.59732e-20)
(0.275517 0.00652471 -5.0277e-24)
(0.150222 0.0029503 0)
(0.147367 0.000720427 -1.93188e-21)
(0.0748143 0.00265463 -5.09049e-21)
(0.0658174 -0.000238037 0)
(0.0613072 0.000225389 -5.36849e-21)
(0.0588283 -0.000482615 0)
(0.0181876 8.81896e-05 1.9478e-22)
(0.0185528 -3.98342e-05 0)
(0.0189271 7.54939e-05 -2.47034e-23)
(0.0189482 -5.23581e-05 7.39242e-23)
(0.455961 0.0165315 -4.29914e-24)
(1.00244 -0.0232179 0)
(1.03026 -0.0684004 4.49838e-20)
(1.05575 -0.111119 9.36817e-24)
(1.22312 -0.208636 -7.19281e-24)
(1.37375 -0.10684 5.36693e-20)
(1.42105 -0.00350021 6.82144e-20)
(1.41668 0.0571184 0)
(1.3998 0.0908482 1.83059e-23)
(1.38171 0.109771 7.464e-20)
(1.36436 0.119414 -3.62031e-20)
(1.34885 0.123485 -3.49929e-20)
(1.33647 0.124494 -3.34338e-20)
(1.32785 0.123817 -3.19174e-20)
(1.32234 0.121996 -3.02946e-20)
(1.31672 0.118905 0)
(1.30279 0.11374 3.43496e-24)
(1.26548 0.104906 0)
(1.18597 0.0910443 0)
(1.05246 0.0723037 6.91099e-23)
(0.869454 0.0511151 0)
(0.656984 0.0313288 0)
(0.265235 0.00629931 5.11439e-24)
(0.145436 0.00323126 7.94604e-24)
(0.147963 0.00119574 -9.44387e-22)
(0.0898149 0.00136305 0)
(0.0897063 0.0006606 7.59579e-23)
(0.0884713 0.000580404 -7.43432e-23)
(0.085019 -0.00016082 2.37742e-21)
(0.0325846 0.00228144 3.26377e-21)
(0.0220663 -0.00020013 0)
(0.019755 -6.99635e-05 1.57084e-21)
(0.0182088 -0.000130329 9.7291e-23)
(0.441375 0.0157272 -8.65615e-21)
(1.00296 -0.0259157 -2.12647e-22)
(1.02634 -0.0770192 0)
(1.05317 -0.140207 3.15616e-20)
(1.25693 -0.266261 -9.74794e-21)
(1.42242 -0.132215 -5.10258e-20)
(1.46046 -0.0112201 -1.71626e-23)
(1.44638 0.0560275 8.14107e-20)
(1.4235 0.092633 -1.83548e-23)
(1.40059 0.112853 -1.13121e-19)
(1.37847 0.122937 3.67308e-20)
(1.35825 0.126979 -1.74858e-23)
(1.34137 0.127725 3.24432e-23)
(1.3286 0.126691 3.15401e-20)
(1.31993 0.124631 -2.99835e-20)
(1.31414 0.121803 0)
(1.30745 0.117986 0)
(1.29115 0.112183 -2.55558e-20)
(1.25017 0.1028 0)
(1.1669 0.0885021 1.20818e-20)
(1.03124 0.069697 1.22414e-20)
(0.848583 0.049078 0)
(0.63896 0.0300026 0)
(0.254868 0.00579706 8.47051e-21)
(0.13893 0.00284221 0)
(0.141157 0.00104505 -2.33731e-22)
(0.0857017 0.0014562 2.93592e-22)
(0.0868691 0.000808128 2.96221e-22)
(0.0881652 0.000936265 2.97443e-22)
(0.0887552 0.000299981 5.96145e-22)
(0.0508613 0.000392319 -6.26062e-23)
(0.0511977 0.000211661 1.95033e-22)
(0.0501957 0.000162061 0)
(0.0476131 -3.45323e-05 1.56008e-23)
(0.00897992 0.000606186 -3.43106e-22)
(0.428111 0.0149983 0)
(1.00312 -0.0278944 -5.80509e-20)
(1.02024 -0.0849301 2.01079e-22)
(1.04968 -0.174133 -3.03527e-20)
(1.28837 -0.332125 9.10087e-21)
(1.46067 -0.152785 -1.18798e-23)
(1.48401 -0.0153823 -2.06827e-23)
(1.46224 0.0575058 5.85869e-21)
(1.43897 0.0962431 1.87233e-23)
(1.41655 0.117292 7.47954e-20)
(1.39337 0.127489 -1.09561e-19)
(1.37057 0.131288 0)
(1.3501 0.131615 3.29821e-20)
(1.33331 0.130088 -9.70789e-25)
(1.3207 0.127568 5.92668e-20)
(1.31208 0.124502 7.07666e-24)
(1.30601 0.121017 6.29217e-24)
(1.2983 0.116692 2.52586e-20)
(1.27974 0.110394 -2.84778e-24)
(1.23536 0.100487 -2.30663e-20)
(1.1486 0.0858526 -1.14382e-20)
(1.01091 0.0672597 0)
(0.82882 0.0472141 0)
(0.62241 0.0288021 0)
(0.245553 0.00539643 4.69555e-24)
(0.132378 0.00285268 0)
(0.135067 0.000731515 1.99849e-21)
(0.081056 0.00046631 0)
(0.0821921 0.000474023 0)
(0.0832696 0.000816855 0)
(0.0841129 0.000242654 5.76766e-22)
(0.0481884 0.000422814 0)
(0.0492077 0.000286838 -1.90396e-22)
(0.0500226 0.000283215 0)
(0.0502906 0.000133685 1.2656e-22)
(0.0157893 2.43929e-05 8.82213e-23)
(0.0160641 9.41742e-07 -1.54064e-22)
(0.0157033 -6.02488e-05 -2.1593e-23)
(0.0151279 -0.000332918 6.79654e-22)
(0.417013 0.0143804 7.86106e-21)
(1.00301 -0.0288028 1.18587e-19)
(1.01116 -0.0904097 -2.14649e-22)
(1.03947 -0.21068 0)
(1.30038 -0.401658 9.91832e-21)
(1.46241 -0.162706 0)
(1.46134 -0.0135092 -2.56313e-23)
(1.43747 0.0619617 -8.62374e-20)
(1.42542 0.101537 0)
(1.41499 0.122848 -1.94193e-23)
(1.3998 0.132935 7.26653e-20)
(1.38056 0.136389 -3.25478e-23)
(1.36015 0.136216 -3.25147e-20)
(1.34113 0.134102 0)
(1.32512 0.130991 -4.66234e-23)
(1.31292 0.127437 -6.98606e-24)
(1.30444 0.123733 2.61532e-20)
(1.29813 0.119824 -6.26035e-24)
(1.2894 0.115122 2.34879e-20)
(1.26863 0.10838 2.25967e-20)
(1.22098 0.0980451 0)
(1.13097 0.0833212 0)
(0.991633 0.0650317 0)
(0.810488 0.0455416 0)
(0.607833 0.0277857 0)
(0.238108 0.00512839 -8.88034e-21)
(0.126785 0.00264725 0)
(0.128871 0.000717908 9.63207e-22)
(0.0599017 0.00052871 1.51545e-22)
(0.061433 2.41443e-05 -1.46011e-22)
(0.0457029 -0.000402647 -6.25679e-23)
(0.0467521 5.25005e-05 -1.59565e-25)
(0.047019 0.000217348 6.15354e-23)
(0.0473635 0.000114145 -3.09939e-22)
(0.0148332 3.12062e-05 -2.15327e-23)
(0.0152735 1.42884e-05 -2.17079e-23)
(0.0155614 1.44321e-05 0)
(0.0155823 -9.25857e-06 -8.74006e-23)
(0.4092 0.014089 0)
(1.00272 -0.0282417 -5.98542e-20)
(0.99878 -0.0917186 0)
(1.01272 -0.24088 5.22926e-20)
(1.26457 -0.461705 -9.62804e-21)
(1.38924 -0.163095 2.72184e-23)
(1.34688 -0.0033232 -1.23933e-19)
(1.33335 0.0687754 7.23518e-23)
(1.35139 0.107399 -4.54442e-23)
(1.37149 0.128405 0)
(1.38004 0.138481 7.55626e-20)
(1.37647 0.141839 -3.26217e-23)
(1.36449 0.14134 -6.49104e-20)
(1.34841 0.138699 3.0493e-20)
(1.33176 0.134969 -4.62955e-23)
(1.31696 0.13081 0)
(1.30536 0.126616 -2.58681e-20)
(1.29712 0.122528 3.86632e-25)
(1.29058 0.118337 -2.32419e-20)
(1.28079 0.113324 2.77546e-24)
(1.25779 0.106222 2.10312e-20)
(1.20701 0.0956626 0)
(1.11413 0.0809868 0)
(0.97355 0.0630267 0)
(0.793794 0.0441155 -1.10707e-20)
(0.595584 0.0271257 -1.22203e-20)
(0.235097 0.00496633 2.11616e-21)
(0.122743 0.00253929 2.03285e-21)
(0.123904 0.000630109 -2.27074e-22)
(0.057063 0.000472339 0)
(0.058292 0.000127422 -8.23169e-22)
(0.0134151 0.000206907 -2.19051e-23)
(0.0135765 -0.000127348 4.35719e-23)
(0.0137059 -0.000259577 -4.50452e-23)
(0.0138148 0.000154804 -5.06511e-26)
(0.0140477 -0.000202637 4.10996e-23)
(0.0144981 -2.88509e-05 2.07764e-23)
(0.014534 1.19926e-05 -4.1762e-23)
(0.0145705 -1.10885e-05 4.21181e-23)
(0.404348 0.0142233 1.39093e-20)
(1.00178 -0.026055 0)
(0.984429 -0.0890581 -6.89993e-20)
(0.957872 -0.2517 -8.06267e-20)
(1.14513 -0.50655 -7.34773e-21)
(1.18542 -0.154819 4.90953e-21)
(1.08754 0.013077 1.4287e-19)
(1.10998 0.0750649 -6.43522e-23)
(1.18338 0.110854 -5.22385e-23)
(1.25655 0.131433 4.12741e-23)
(1.30922 0.142184 -7.80598e-20)
(1.33895 0.146345 -3.32959e-23)
(1.34946 0.146241 6.50423e-20)
(1.34647 0.143519 3.03108e-20)
(1.33576 0.139381 -2.84334e-20)
(1.32211 0.134663 0)
(1.30891 0.129888 1.1978e-23)
(1.29812 0.125335 0)
(1.29019 0.121021 2.27029e-20)
(1.28338 0.116632 0)
(1.27244 0.111386 -2.06778e-20)
(1.24722 0.104082 -2.48845e-24)
(1.19353 0.0934386 0)
(1.09814 0.0788692 0)
(0.956714 0.0612862 9.86008e-21)
(0.778784 0.0430205 1.05201e-20)
(0.585271 0.0267791 1.15655e-20)
(0.238481 0.0054491 -1.93427e-20)
(0.124182 0.00241791 6.77131e-21)
(0.121871 0.000416593 -3.48626e-21)
(0.0548916 0.000442252 -1.46115e-21)
(0.0557295 0.000115828 -4.66934e-23)
(0.0127223 0.000193875 -2.09525e-23)
(0.0128615 -0.000132156 2.08816e-23)
(0.013101 -0.00018784 4.28072e-23)
(0.0131047 0.000151374 0)
(0.398895 0.0139925 0)
(1.00031 -0.0221685 0)
(0.967587 -0.0799531 -4.95617e-21)
(0.944853 -0.18442 2.51139e-20)
(0.922018 -0.184977 2.77517e-20)
(0.975312 -0.586117 1.27521e-20)
(0.871178 -0.575457 2.21353e-20)
(0.872272 -0.313187 2.97284e-20)
(1.08056 -0.207991 1.35636e-19)
(0.921543 -0.489731 -4.2414e-23)
(0.794346 -0.140766 -8.48307e-20)
(0.650802 0.029908 0)
(0.634031 0.00635999 -6.55514e-20)
(0.754984 0.0764166 1.37397e-22)
(0.907831 0.106706 1.12046e-22)
(1.05046 0.127822 -4.69079e-23)
(1.16417 0.140744 -3.99299e-24)
(1.24516 0.147428 3.50338e-23)
(1.29547 0.149231 -6.69645e-20)
(1.32044 0.147539 -1.27172e-23)
(1.32708 0.143693 0)
(1.32239 0.138782 2.63921e-20)
(1.31228 0.133555 0)
(1.30102 0.128473 -1.19203e-23)
(1.29122 0.12374 -2.24338e-20)
(1.28362 0.119306 2.11407e-20)
(1.27647 0.114801 -4.77955e-24)
(1.26432 0.109448 1.91614e-20)
(1.23696 0.102062 0)
(1.18061 0.0914044 0)
(1.08302 0.077003 0)
(0.9411 0.0598478 -9.25748e-21)
(0.765183 0.0421751 -9.94824e-21)
(0.575255 0.0261704 0)
(0.238451 0.00567213 0)
(0.135914 0.00241349 0)
(0.130385 0.00161272 6.26011e-21)
(0.0570582 0.000110583 -8.5848e-21)
(0.0544537 -2.31937e-06 0)
(0.0121313 0.00017983 -2.00862e-23)
(0.012233 -0.00012866 -2.91733e-25)
(0.0124424 -0.000180555 4.09596e-23)
(0.0124574 0.000145972 2.0158e-23)
(0.391087 0.0137989 0)
(0.998701 -0.0166011 -5.97302e-22)
(0.953384 -0.0638353 7.58372e-20)
(0.897725 -0.170646 -2.77256e-20)
(0.875775 -0.154342 -3.27488e-20)
(0.830432 -0.288581 5.17507e-22)
(0.771114 -0.561841 -3.33024e-20)
(0.664111 -0.519744 -1.78952e-21)
(0.845536 -0.62668 2.27745e-21)
(0.599332 -0.191557 2.38446e-20)
(0.266193 -0.102751 -1.9354e-21)
(0.456339 -0.271992 3.21659e-21)
(0.222109 -0.00748223 -3.95321e-21)
(0.274247 0.025515 -3.14414e-20)
(0.475156 0.0132031 3.54398e-20)
(0.29402 0.052493 1.04202e-19)
(0.334276 0.0688361 4.60599e-20)
(0.192209 0.00903683 -9.96571e-20)
(0.274289 0.00953736 -1.36543e-22)
(0.563039 0.0894197 -1.65697e-22)
(0.766411 0.112897 -1.26416e-22)
(0.940382 0.13016 5.08519e-23)
(1.08012 0.141666 -8.07211e-23)
(1.18329 0.147584 7.08881e-20)
(1.25156 0.1488 -6.29628e-20)
(1.29025 0.146652 0)
(1.30667 0.14247 -2.64217e-20)
(1.30845 0.137308 -8.61887e-25)
(1.3023 0.131912 0)
(1.2933 0.126729 0)
(1.28463 0.121944 -2.0917e-20)
(1.27737 0.117483 0)
(1.26984 0.112968 -1.89151e-20)
(1.25647 0.107606 2.2656e-24)
(1.22707 0.100205 0)
(1.16825 0.0895954 2.00494e-24)
(1.06873 0.0754105 -8.39312e-21)
(0.926535 0.0586412 0)
(0.752213 0.0412372 0)
(0.564344 0.0256394 0)
(0.233455 0.00567062 0)
(0.13592 0.00305547 1.48617e-21)
(0.136652 0.00132719 0)
(0.075235 0.000620974 1.2799e-21)
(0.0678779 0.000671637 4.01606e-23)
(0.0144465 0.000514659 3.04813e-21)
(0.0127859 -0.000309627 -4.27814e-23)
(0.0118831 -0.00020395 -1.9641e-23)
(0.0121401 0.00011801 5.95416e-23)
(0.382007 0.0135388 0)
(0.997088 -0.00970027 7.32669e-20)
(0.943685 -0.0412711 6.1243e-22)
(0.856134 -0.129963 3.31351e-20)
(0.840554 -0.103124 6.67011e-22)
(0.779535 -0.271766 -3.81282e-20)
(0.730467 -0.241565 7.95634e-20)
(0.698837 -0.46203 3.92706e-23)
(0.746245 -0.474679 1.04583e-20)
(0.479416 -0.465906 -2.25881e-21)
(0.537884 -0.459599 8.6375e-23)
(0.624849 -0.594873 1.0816e-20)
(0.286747 -0.253904 0)
(0.0698005 0.0210677 -2.05063e-20)
(0.119124 0.0100962 9.25935e-23)
(0.0575572 0.0232207 -9.12224e-20)
(0.110767 0.0452756 8.77311e-20)
(0.251507 0.057107 0)
(0.121038 0.024562 -8.23972e-20)
(0.04224 -0.000785304 7.90582e-20)
(0.46406 0.084362 0)
(0.667488 0.10773 0)
(0.851544 0.125966 0)
(1.00598 0.138189 1.13666e-22)
(1.12502 0.144575 -3.14853e-23)
(1.20817 0.14616 0)
(1.25942 0.144304 0)
(1.28548 0.140303 2.48816e-23)
(1.29402 0.135245 -1.15841e-23)
(1.2922 0.129912 -2.14344e-20)
(1.2857 0.12478 0)
(1.2783 0.12005 0)
(1.27141 0.115662 -4.37011e-24)
(1.26347 0.111224 -4.16649e-24)
(1.24891 0.105912 0)
(1.21756 0.0985476 0)
(1.15644 0.0880298 1.5931e-20)
(1.0552 0.0740426 0)
(0.912635 0.0574701 0)
(0.739145 0.0403974 0)
(0.552791 0.0251776 -9.82308e-21)
(0.226889 0.00544252 8.32065e-22)
(0.13198 0.00296096 1.41588e-21)
(0.133814 0.0014676 0)
(0.0748702 0.000933725 -1.38406e-21)
(0.0757529 0.000507088 -1.77624e-22)
(0.0354024 0.000338245 0)
(0.0346324 -7.82421e-06 -8.424e-22)
(0.0221467 0.00153419 -1.01755e-20)
(0.0325225 0.000165653 0)
(0.372595 0.0132475 5.60867e-21)
(0.995685 -0.00216313 -1.46839e-19)
(0.934611 -0.0135285 -3.38924e-21)
(0.829504 -0.0758636 0)
(0.822762 -0.054628 -4.73283e-20)
(0.691338 -0.193231 -4.35885e-20)
(0.66323 -0.135351 -6.96703e-22)
(0.64179 -0.43847 -1.29692e-20)
(0.585633 -0.410413 1.15507e-20)
(0.492252 -0.335736 1.51415e-20)
(0.53437 -0.375146 -1.36839e-20)
(0.550341 -0.586997 -2.57306e-22)
(0.420663 -0.461964 2.61468e-21)
(0.0185788 0.0063574 -4.44496e-20)
(-0.00408988 0.0098837 1.34173e-21)
(0.00430862 -0.00397842 -1.62875e-21)
(0.013947 0.013175 -5.13018e-20)
(0.0652884 0.0194813 -1.13235e-22)
(0.220113 0.0471924 0)
(0.0405478 0.0121795 1.58098e-20)
(-0.00313053 -0.0102778 -5.03089e-20)
(0.00578601 -0.000169654 2.22897e-20)
(0.402928 0.0751258 0)
(0.595446 0.0998239 1.05643e-22)
(0.779392 0.11914 8.46559e-23)
(0.940695 0.132313 -4.13822e-23)
(1.07053 0.139665 3.23618e-23)
(1.16575 0.142155 -5.54496e-20)
(1.22831 0.141 0)
(1.26371 0.137504 2.15746e-23)
(1.27916 0.132789 4.25936e-20)
(1.28193 0.127689 0)
(1.27818 0.122732 0)
(1.27216 0.118162 0)
(1.26569 0.11393 4.33872e-24)
(1.25738 0.109623 2.43842e-25)
(1.24165 0.104402 0)
(1.20841 0.0971089 0)
(1.14514 0.0866813 0)
(1.04222 0.0727902 0)
(0.898978 0.0564315 0)
(0.725935 0.0397036 3.85683e-23)
(0.541096 0.0247424 -4.64994e-21)
(0.220132 0.00524778 7.89702e-22)
(0.127485 0.00276449 -1.35079e-21)
(0.129413 0.00133207 0)
(0.0721438 0.000863027 -1.3255e-21)
(0.073526 0.000542492 0)
(0.0343319 0.000443145 0)
(0.034714 4.08902e-06 2.07985e-22)
(0.0351674 -0.00010781 4.22027e-22)
(0.0351808 0.000346228 -2.10199e-22)
(0.0108681 4.70623e-05 -1.58594e-23)
(0.01071 -6.5687e-05 -5.07029e-22)
(0.00604983 0.000425382 3.99876e-21)
(0.0103075 -0.000235354 0)
(0.36328 0.0129997 0)
(0.994554 0.00532085 7.34234e-20)
(0.936138 0.0177943 -9.00324e-20)
(0.755532 0.0577181 3.87009e-20)
(0.643977 -0.0677368 0)
(0.639979 0.0151012 0)
(0.458353 -0.28686 0)
(0.429367 -0.233467 1.94212e-20)
(0.38571 -0.119439 0)
(0.40516 -0.177186 -1.95622e-20)
(0.41057 -0.518112 2.40701e-20)
(0.322135 -0.420165 -2.08527e-20)
(0.211633 -0.345645 -1.9429e-20)
(0.26714 -0.391619 -4.43676e-22)
(0.348189 -0.4561 1.44616e-21)
(-0.0135159 0.00347643 -2.3241e-20)
(-0.000978552 -0.000788442 0)
(0.00412018 0.00818366 6.60731e-23)
(0.0652807 0.0156583 -4.68847e-20)
(0.0113864 -0.000660064 1.59073e-20)
(0.194687 0.0403616 1.74816e-19)
(0.0125539 0.00142936 -7.79362e-23)
(0.00852921 0.00605356 1.64445e-22)
(-0.00822427 -0.00265743 1.19565e-20)
(-0.000270399 -0.000404359 8.55635e-22)
(0.359343 0.0672627 0)
(0.539811 0.0916278 -1.10729e-22)
(0.719144 0.111242 8.6024e-20)
(0.882651 0.125275 -2.92315e-24)
(1.01959 0.133765 6.01951e-20)
(1.12449 0.137324 1.96122e-24)
(1.19715 0.137084 0)
(1.24148 0.134292 -2.14811e-20)
(1.26389 0.130087 0)
(1.27148 0.125355 0)
(1.27067 0.120684 -1.76107e-20)
(1.26618 0.11636 0)
(1.2602 0.112339 3.81147e-24)
(1.25154 0.108198 3.86719e-24)
(1.23466 0.103097 0)
(1.1996 0.0958815 -1.41998e-20)
(1.13425 0.0854934 0)
(1.02956 0.0717033 0)
(0.885453 0.0555837 3.29521e-23)
(0.712801 0.0391121 0)
(0.529569 0.0243683 0)
(0.213506 0.00512521 0)
(0.123077 0.00264806 -1.28267e-21)
(0.124959 0.00125856 0)
(0.0693812 0.00078075 -2.12303e-22)
(0.0706889 0.000473191 1.41235e-22)
(0.0327823 0.00041604 0)
(0.0331638 -1.20262e-05 2.48609e-22)
(0.0337907 -9.81765e-05 -5.04792e-23)
(0.0336278 0.000335234 7.48885e-25)
(0.010463 5.7505e-05 0)
(0.010658 -2.50994e-05 0)
(0.0107912 -4.14735e-05 1.6031e-23)
(0.0108091 4.66941e-05 0)
(0.354391 0.0128213 0)
(0.993783 0.0122971 0)
(0.942506 0.0448795 3.52383e-21)
(0.804912 0.129382 1.05432e-21)
(0.383352 0.247144 -2.14594e-20)
(0.507335 0.33508 -2.32532e-21)
(0.373076 -0.0600122 0)
(0.372122 -0.00224931 0)
(0.414518 0.11149 2.01299e-21)
(0.384857 0.0568369 0)
(0.1687 -0.286395 -1.60127e-21)
(0.136589 -0.219866 -1.64048e-21)
(0.0982259 -0.0842331 -2.76142e-20)
(0.113418 -0.151891 2.63486e-20)
(0.159137 -0.275 -1.54359e-21)
(-0.010427 -0.00120286 -1.35377e-20)
(-0.00397789 -0.00219765 0)
(0.00121754 -0.000567122 -1.31421e-22)
(-0.00185862 0.00222937 1.14781e-20)
(-0.000766342 -0.000237805 -1.25239e-20)
(0.0123881 0.00693242 -1.36334e-20)
(0.0584383 0.0131298 -1.74615e-19)
(0.0132648 -0.00134214 7.19145e-20)
(8.69435e-05 -4.10487e-05 -1.12229e-20)
(0.00125829 -0.002293 -1.74996e-20)
(0.174896 0.0357183 0)
(-0.000669107 -0.00149688 -1.46133e-20)
(0.325173 0.0604134 0)
(0.494209 0.083589 -2.04251e-19)
(0.667334 0.103134 3.84207e-23)
(0.830377 0.117885 6.71336e-20)
(0.971811 0.127366 0)
(1.08445 0.132027 2.5003e-23)
(1.16608 0.132791 0)
(1.21889 0.130825 -3.91268e-23)
(1.24823 0.127255 0)
(1.2608 0.123007 2.07574e-22)
(1.26314 0.118715 0)
(1.26032 0.114697 7.46672e-24)
(1.25491 0.110925 -1.49636e-20)
(1.24593 0.106977 -3.40976e-24)
(1.22793 0.102002 1.38531e-20)
(1.1911 0.0948391 0)
(1.12364 0.0844938 -1.31463e-20)
(1.01712 0.0708333 1.33018e-20)
(0.872129 0.0548984 0)
(0.699917 0.0386263 0)
(0.518497 0.0240847 0)
(0.207187 0.00505939 0)
(0.118807 0.00257796 0)
(0.120625 0.00122828 -6.22157e-22)
(0.06676 0.000739265 6.70602e-23)
(0.0680116 0.000444791 6.78876e-23)