/*--------------------------------*- C++ -*----------------------------------*\
| =========                 |                                                 |
| \\      /  F ield         | OpenFOAM: The Open Source CFD Toolbox           |
|  \\    /   O peration     | Version:  v1912                                 |
|   \\  /    A nd           | Website:  www.openfoam.com                      |
|    \\/     M anipulation  |                                                 |
\*---------------------------------------------------------------------------*/
FoamFile
{
    version     2.0;
    format      ascii;
    class       volScalarField;
    location    "130";
    object      p;
}
// * * * * * * * * * * * * * * * * * * * * * * * * * * * * * * * * * * * * * //

dimensions      [0 2 -2 0 0 0 0];


internalField   nonuniform List<scalar> 
3673
(
0.00241167
0.00266227
0.00224053
0.00291084
0.00248143
0.00207726
0.00312811
0.00272283
0.00231262
0.0019259
0.0033216
0.0029374
0.00254625
0.00215507
0.0017876
0.00348046
0.00313162
0.00275503
0.00238772
0.0020125
0.00165386
0.00359309
0.00329116
0.00294792
0.00259504
0.00223754
0.00187339
0.00153103
0.00364456
0.00340511
0.00311045
0.00278092
0.00243597
0.00209163
0.0017457
0.00141692
0.00362751
0.00346237
0.0032301
0.00294071
0.00262074
0.00228885
0.00196125
0.0016284
0.00130767
0.00354473
0.00345741
0.00330046
0.00306674
0.00277984
0.00247015
0.00215404
0.0018377
0.00151259
0.00121026
0.0034064
0.00338266
0.00331508
0.00314682
0.00290118
0.00262407
0.00232886
0.00202541
0.00172045
0.00141134
0.00111716
0.00323206
0.00323839
0.00327044
0.00317927
0.0029824
0.00274378
0.00247845
0.0021979
0.00190576
0.00161287
0.00131411
0.00103193
0.00307321
0.00301621
0.00317371
0.00316951
0.00302009
0.00281847
0.00259091
0.00234014
0.00207043
0.00178968
0.00151272
0.00122387
0.000947214
0.00300396
0.00272523
0.00302154
0.00312395
0.00301331
0.00284428
0.00265953
0.00244675
0.00221101
0.0019539
0.00169023
0.00141787
0.001138
0.00087397
0.00246099
0.00276781
0.00303338
0.00277331
0.00306126
0.00296721
0.00282343
0.00267876
0.00251055
0.00231722
0.0020908
0.00184698
0.00158684
0.00132705
0.00106051
0.000805887
0.00244676
0.00216279
0.00263549
0.00278583
0.00291613
0.00305406
0.00297714
0.00288698
0.00275362
0.00264677
0.00252502
0.0023758
0.00218765
0.00197456
0.00173987
0.00149487
0.00124552
0.00098708
0.000745264
0.00281744
0.00259694
0.0021619
0.00209542
0.00268459
0.00261362
0.00276625
0.00286905
0.00298543
0.00273529
0.00278474
0.00263996
0.00256834
0.00248987
0.00238505
0.00224203
0.00206882
0.00186691
0.00164505
0.00140915
0.00117003
0.000923576
0.000690174
0.00262436
0.00255868
0.00262307
0.0025637
0.0017117
0.00191421
0.00259868
0.00271743
0.00252556
0.00258875
0.00266607
0.00284995
0.00279091
0.00297798
0.0026968
0.00249624
0.00245086
0.00241093
0.00234531
0.00224872
0.00211953
0.00195802
0.0017663
0.0015532
0.00133087
0.00110146
0.000864508
0.000641364
0.00233557
0.0023595
0.00237985
0.00239582
0.00257807
0.00258994
0.00251719
0.00107033
0.00220462
0.00332086
0.00281165
0.00260371
0.00261604
0.00252859
0.00260697
0.00281431
0.00272747
0.00291051
0.0026659
0.00229991
0.00229363
0.00226231
0.00220719
0.00212155
0.00200451
0.00185113
0.00167138
0.00147113
0.00125255
0.0010393
0.000812201
0.000600146
0.00213909
0.00216434
0.00219765
0.00222483
0.00227774
0.00228258
0.00227047
0.00240813
0.00240235
0.00251793
0.00282771
-0.00024288
0.00364116
0.0030511
0.0024671
0.00249008
0.0025138
0.00278525
0.00285857
0.00214646
0.00214367
0.00212103
0.00207567
0.00200395
0.001894
0.00175121
0.00157979
0.00138692
0.00119111
0.000982996
0.000767374
0.000563726
0.00198399
0.00198734
0.00203466
0.0020568
0.00212394
0.00213969
0.00214991
0.00220385
0.00219929
0.00221934
0.00224805
0.00235523
0.00230378
-0.00275105
0.00199833
0.00199872
0.00198993
0.00195793
0.00189142
0.00179046
0.00165569
0.001494
0.0013208
0.00112852
0.00093311
0.000727118
0.000535858
0.00183462
0.00182989
0.00187972
0.00188785
0.00195612
0.00197034
0.0019976
0.00206901
0.0020451
0.00208638
0.00212593
0.00216727
0.00215344
0.00185617
0.00187253
0.00187138
0.00184448
0.00178512
0.00169067
0.00156523
0.00141965
0.00125318
0.00107708
0.000892787
0.00069706
0.000509947
0.00169593
0.00168029
0.00173045
0.00173337
0.00179924
0.00180081
0.00183362
0.00190674
0.00187442
0.00191927
0.00197089
0.00203175
0.00200576
0.00173126
0.00175123
0.00175594
0.00173701
0.00168218
0.00159436
0.00148133
0.00134691
0.00119722
0.00103005
0.000856609
0.000669348
0.000496783
0.00157134
0.00154023
0.0015949
0.00158649
0.00164723
0.00164473
0.00167638
0.00174593
0.00171251
0.00175054
0.00180283
0.00186707
0.00183558
0.00160653
0.00163802
0.00164973
0.00163041
0.00158179
0.00150298
0.00140042
0.00128111
0.00114162
0.000989489
0.000826313
0.000648808
0.000485924
0.00144862
0.00141622
0.00146644
0.0014512
0.00150859
0.00149872
0.00152968
0.00159415
0.00156223
0.00159452
0.0016409
0.00170301
0.00167581
0.00149548
0.00153174
0.00154417
0.00153286
0.00148618
0.0014147
0.00132653
0.00122189
0.0011008
0.000958261
0.000802459
0.000638431
0.000485038
0.00133765
0.00129613
0.00134448
0.00132595
0.0013789
0.00136373
0.00139706
0.00145486
0.00142244
0.00144921
0.00149366
0.00155049
0.00152577
0.0013878
0.00142753
0.00144698
0.00143139
0.00138898
0.00133136
0.00126164
0.00117409
0.0010629
0.000931688
0.000788022
0.000632543
0.000480155
0.00123033
0.00118511
0.00123308
0.00120775
0.00125863
0.0012406
0.00126963
0.00132411
0.00129335
0.00131201
0.00136276
0.00140987
0.00138661
0.0012871
0.00132931
0.00134402
0.00132965
0.00129529
0.00125374
0.00120408
0.00113261
0.00103379
0.000910066
0.000776384
0.000622413
0.000487905
0.00112944
0.0010792
0.00112791
0.00109828
0.00114651
0.00112509
0.00114987
0.00120091
0.00117978
0.00119
0.00123531
0.00128168
0.00125592
0.00118958
0.00123246
0.0012466
0.00122739
0.00120491
0.00118566
0.00115716
0.00109959
0.00100617
0.000894849
0.00076691
0.000630083
0.000500134
0.00103398
0.000978309
0.00102955
0.000994731
0.00104153
0.00101791
0.00104051
0.00108808
0.00106794
0.00107999
0.00111082
0.00116067
0.00114184
0.00109863
0.00113854
0.00113647
0.00112292
0.00112227
0.00113236
0.00112019
0.00106875
0.000988121
0.000880795
0.000771171
0.000637232
0.000519055
0.000944925
0.000879224
0.000939338
0.000897488
0.00094272
0.000916332
0.000938105
0.00098148
0.000964804
0.000973698
0.00100191
0.00104668
0.00103028
0.00100619
0.00103075
0.00102178
0.00102199
0.0010573
0.00109435
0.00108903
0.00104271
0.000968622
0.000879434
0.000770276
0.000655253
0.0005452
0.000853471
0.000785886
0.000850653
0.000802207
0.000848986
0.000821289
0.000843417
0.000883814
0.000865237
0.000872253
0.00090009
0.000940016
0.000927685
0.000911357
0.00091795
0.00089986
0.00093789
0.00101807
0.00106411
0.00105861
0.00101828
0.000954966
0.000873694
0.000785064
0.00067525
0.000575134
0.000769489
0.00069563
0.000763453
0.000709698
0.000761724
0.000728641
0.000747019
0.000788946
0.000775802
0.000778143
0.000806482
0.000843646
0.000827364
0.000810944
0.000776282
0.00078465
0.0008947
0.000995216
0.00103465
0.00102763
0.000994066
0.000944282
0.000878727
0.000800359
0.000703587
0.000617757
0.000680951
0.000602285
0.000678034
0.000620803
0.000674783
0.000639259
0.000659157
0.000699189
0.000687827
0.000685461
0.000704755
0.000746629
0.000748275
0.000676789
0.000624158
0.000726098
0.000885021
0.000976307
0.000996769
0.000990333
0.000973428
0.000939409
0.000891185
0.000826073
0.000741172
0.000669049
0.000583349
0.00050436
0.000593745
0.000533681
0.000587138
0.000550066
0.000575642
0.000615951
0.000597744
0.000597711
0.000618011
0.000656992
0.000660135
0.00050552
0.000511926
0.000738458
0.000893648
0.000935235
0.000946714
0.000956142
0.000954356
0.000941817
0.000907265
0.00085881
0.000787382
0.00073094
0.000461504
0.00039809
0.00051403
0.000436505
0.000498952
0.000461866
0.000489328
0.000528972
0.000512161
0.000509068
0.000537212
0.000576068
0.00056857
0.000273077
0.000545082
0.000798611
0.000854493
0.000870492
0.000896336
0.0009226
0.000944116
0.000948283
0.000934266
0.000895833
0.000846414
0.000803958
0.000133274
0.000285171
0.000430223
0.000341969
0.000412715
0.000366244
0.000401242
0.000443525
0.00042214
0.00042351
0.000450826
0.00048858
0.000485913
0.000257343
0.000704857
0.000764134
0.000769325
0.000801923
0.000847265
0.000895579
0.000934806
0.000960331
0.000960106
0.000955988
0.000913899
0.000889597
-0.00010779
-5.80962e-05
0.000300523
0.000263875
0.000320896
0.000261645
0.00030887
0.000357795
0.000324411
0.000332018
0.000365161
0.000402723
0.000396794
0.00061601
0.000677493
0.000654057
0.000683182
0.000736839
0.000801475
0.000869429
0.000931286
0.000977984
0.0010112
0.00101073
0.000996139
0.000988931
0.000494413
2.53953e-05
-0.000406237
0.000214785
0.000323048
0.000139031
0.000219433
0.000258934
0.000211894
0.00022975
0.000269984
0.00031145
0.000304888
0.000593935
0.000522693
0.000547396
0.000602323
0.000673106
0.000757945
0.000848604
0.000935902
0.00101006
0.00105598
0.00109258
0.00108604
0.001096
0.000463682
0.000336447
0.000364793
-7.58359e-05
-0.00102131
0.00040398
0.000330221
0.000214834
0.000132419
0.000102789
0.000160864
0.000215288
0.000188185
0.000383969
0.000400377
0.000456278
0.000525813
0.000613264
0.000715747
0.000830279
0.000944904
0.00104391
0.00112662
0.00116836
0.00119263
0.00122959
0.000247808
0.000218095
0.000199808
0.00019711
0.000378663
0.00033366
0.000958537
0.000780512
-0.0018742
0.000268257
0.000133699
0.000113545
7.37648e-05
0.000251095
0.000311077
0.000373084
0.000450491
0.000549883
0.000676064
0.000816982
0.000961344
0.00109235
0.00119483
0.00127429
0.00131736
0.00137639
0.000119333
0.000117837
0.000119427
0.000105055
0.000109126
8.50029e-05
5.17033e-05
0.000221008
0.000176334
0.000490912
-0.00409681
0.00016743
0.000223451
0.000284671
0.000371002
0.000489924
0.000639396
0.000810419
0.00098673
0.00115122
0.00128267
0.0013904
0.00145673
0.00153846
3.35808e-05
2.25532e-05
3.61445e-05
3.56733e-05
6.73984e-05
5.85032e-05
4.95763e-05
5.2729e-05
6.68042e-05
8.21433e-05
0.00013006
0.000196641
0.000294871
0.000430077
0.00060401
0.00080721
0.00101948
0.00121433
0.00138863
0.00151896
0.00161446
0.00172582
-5.32101e-05
-6.83319e-05
-4.78238e-05
-5.44079e-05
-1.5055e-05
-8.26594e-06
-5.47882e-06
3.56261e-05
2.60947e-05
-1.00785e-05
3.68083e-05
0.000106554
0.000213149
0.000368009
0.000571971
0.000810886
0.00105941
0.00129888
0.00150256
0.00167102
0.0017976
0.0019315
-0.00013942
-0.000159348
-0.000130103
-0.000142898
-0.000101551
-0.000107725
-9.23374e-05
-4.09455e-05
-6.13292e-05
-0.000106323
-6.04292e-05
1.25214e-05
0.000129077
0.000307384
0.000544489
0.000820384
0.00111306
0.00139832
0.00163709
0.00184644
0.00199291
0.00215525
-0.000233475
-0.000248272
-0.000214576
-0.000228229
-0.000189193
-0.000195175
-0.000181009
-0.00013238
-0.000151452
-0.000201052
-0.000159162
-8.70033e-05
4.41971e-05
0.000248559
0.000519326
0.00084073
0.00118341
0.00150344
0.00179511
0.00202472
0.00222312
0.00240318
-0.000325664
-0.000339505
-0.000304651
-0.000315406
-0.000272038
-0.000285037
-0.000262576
-0.000220493
-0.000239739
-0.000301883
-0.00026984
-0.00019416
-4.33414e-05
0.000188677
0.000500939
0.000868262
0.00125317
0.00162691
0.00195789
0.00224919
0.00247813
0.00271463
-0.000422784
-0.000434327
-0.000393437
-0.000405088
-0.000359924
-0.000368207
-0.000349969
-0.000306001
-0.000324832
-0.000413972
-0.000389713
-0.000305909
-0.000134321
0.000132823
0.000486322
0.000901966
0.00134114
0.00177233
0.00215661
0.00249995
0.00278584
0.00305499
-0.000527784
-0.000526476
-0.00048555
-0.00049607
-0.000449756
-0.000457096
-0.00043659
-0.000386332
-0.000410083
-0.000537579
-0.000517262
-0.000417684
-0.000221631
7.94266e-05
0.000477286
0.000947476
0.00145061
0.00192942
0.0023879
0.00276364
0.00331059
0.00127177
-0.000647095
-0.000625155
-0.000578561
-0.000585162
-0.000540645
-0.000545631
-0.000526774
-0.000480251
-0.000500424
-0.000678872
-0.000653354
-0.000529691
-0.000309818
2.52465e-05
0.000473243
0.00100321
0.00156158
0.00212715
0.00259116
0.00335716
0.0014841
-0.000790849
-0.000733006
-0.000679745
-0.000678478
-0.000632757
-0.000633823
-0.000615672
-0.000569431
-0.000589943
-0.000837286
-0.000776607
-0.000645216
-0.000405104
-2.83049e-05
0.000476372
0.00106538
0.00170751
0.00226932
0.00313975
0.00154324
-0.00094663
-0.000953914
-0.000803752
-0.000761341
-0.000721624
-0.000732424
-0.00070743
-0.000662236
-0.000684224
-0.00096742
-0.000901966
-0.000768721
-0.000501332
-7.6575e-05
0.000483281
0.00115283
0.00179
0.00273592
0.00139755
-0.00109859
-0.000992357
-0.00127275
-0.00075622
-0.000768415
-0.000832962
-0.00080508
-0.000755833
-0.000781304
-0.00108384
-0.00104352
-0.000901911
-0.000597861
-0.000125019
0.00050985
0.00118428
0.00216485
0.00112561
-0.00120841
-0.00117569
-0.00108107
-0.00125614
-0.00140892
-0.00197136
-0.00356979
0.00155218
-0.000974606
-0.000931573
-0.000859074
-0.000891843
-0.0012309
-0.00120375
-0.00104039
-0.000696293
-0.000160121
0.000492804
0.00145147
0.000769813
-0.00134904
-0.00129663
-0.00123137
-0.00121704
-0.00121559
-0.00119677
-0.00121795
-0.0012297
-0.00121072
-0.000806712
-0.000527811
-0.00140456
-0.00137301
-0.00117976
-0.000788936
-0.000219604
0.000643965
0.000360362
-0.00152102
-0.00144529
-0.00136411
-0.00133087
-0.00130522
-0.00126779
-0.00124427
-0.00124453
-0.00123545
-0.00123282
-0.00122806
-0.0012872
-0.00129143
-0.00112384
-0.00159325
-0.00154763
-0.00132314
-0.000884027
-0.000186241
-6.2866e-05
-0.00171544
-0.00161517
-0.00152236
-0.00148681
-0.00144423
-0.00140375
-0.00137059
-0.00134891
-0.00131634
-0.00128757
-0.00126255
-0.00126093
-0.00125221
-0.00126115
-0.00126612
-0.00179199
-0.00173147
-0.00144735
-0.000964805
-0.000466046
-0.00192599
-0.00180716
-0.00170036
-0.0016558
-0.00160704
-0.0015664
-0.0015188
-0.00149885
-0.00146222
-0.00141909
-0.00138575
-0.00136015
-0.00132381
-0.00130171
-0.00127264
-0.00200983
-0.00188421
-0.00163069
-0.000817233
-0.00216934
-0.00201735
-0.00189838
-0.00184049
-0.00179142
-0.00174332
-0.00169072
-0.00166447
-0.00162164
-0.00158013
-0.00153312
-0.00150834
-0.00147062
-0.0014313
-0.00139521
-0.00220236
-0.00215372
-0.00109595
-0.00241607
-0.00226746
-0.00212589
-0.00204686
-0.00199541
-0.00194054
-0.00188319
-0.00184676
-0.00180112
-0.00175103
-0.00170625
-0.0016712
-0.00163005
-0.00158713
-0.00154408
-0.00254865
-0.00130017
-0.00288202
-0.00251102
-0.00237268
-0.00228846
-0.00222792
-0.00216168
-0.00210088
-0.00205113
-0.0019974
-0.0019461
-0.00189601
-0.00185109
-0.00181034
-0.00175429
-0.00171289
-0.00144099
-0.00166585
-0.00300224
-0.00269635
-0.00254237
-0.00247452
-0.002415
-0.00234658
-0.00228404
-0.00222463
-0.00216389
-0.00210665
-0.00204803
-0.00200133
-0.00194824
-0.00189949
-0.00158561
-0.00318428
-0.00296388
-0.00284711
-0.002715
-0.00261892
-0.00253994
-0.00247163
-0.00240959
-0.00234673
-0.00227854
-0.00222128
-0.00216138
-0.0021039
-0.00136114
-0.00329839
-0.00334357
-0.00308754
-0.00293148
-0.00282411
-0.00271494
-0.00262147
-0.00252232
-0.0024599
-0.00239793
-0.00233817
-0.0013311
-0.00362286
-0.0033556
-0.00305144
-0.0029103
-0.00279372
-0.0026905
-0.00259853
-0.00163556
-0.00392394
-0.00333134
-0.00303197
-0.0719177
-0.0721837
-0.0712356
-0.072798
-0.0722325
-0.0714336
-0.0706399
-0.0734423
-0.0729199
-0.0720937
-0.071558
-0.0708083
-0.0700055
-0.0736035
-0.074102
-0.0734515
-0.0717868
-0.0707799
-0.0709291
-0.0701465
-0.0693309
-0.0742701
-0.0747894
-0.074502
-0.0748372
-0.0721993
-0.0691828
-0.0694824
-0.0702709
-0.0694705
-0.0687008
-0.0749675
-0.0755534
-0.0772809
-0.0749175
-0.0762149
-0.0725902
-0.0695942
-0.0665653
-0.0681642
-0.0696124
-0.0689646
-0.0688277
-0.0680623
-0.075681
-0.0762704
-0.0800968
-0.0777173
-0.0776317
-0.0753038
-0.0763997
-0.0729377
-0.0699675
-0.0669968
-0.0668695
-0.0640255
-0.0655929
-0.06832
-0.0676612
-0.0682047
-0.0674101
-0.0769235
-0.0829903
-0.0805523
-0.0804729
-0.0790327
-0.0781016
-0.0777734
-0.077077
-0.075649
-0.0732312
-0.0703004
-0.0673755
-0.0644454
-0.0670041
-0.0663641
-0.0643314
-0.0615389
-0.0630609
-0.0657347
-0.0650652
-0.067546
-0.0667317
-0.0776009
-0.0859801
-0.0834596
-0.0833759
-0.0819107
-0.08095
-0.0806213
-0.0799126
-0.0792214
-0.0784932
-0.0784395
-0.0759463
-0.073468
-0.0705857
-0.0677081
-0.0648235
-0.0619557
-0.0668701
-0.0662329
-0.064385
-0.0636271
-0.0618292
-0.0591133
-0.0605966
-0.0627292
-0.0656126
-0.0649488
-0.0661055
-0.0783666
-0.0890265
-0.0864466
-0.0863542
-0.084859
-0.0838679
-0.0835325
-0.0828098
-0.0821049
-0.0813613
-0.0812968
-0.0804459
-0.0797567
-0.0790927
-0.0787339
-0.0761876
-0.0736299
-0.0708105
-0.0679899
-0.0651538
-0.0623259
-0.0595178
-0.0642728
-0.0636484
-0.0615724
-0.0593938
-0.0567287
-0.0581772
-0.0603641
-0.0623257
-0.062987
-0.0654715
-0.0648221
-0.0920152
-0.0894587
-0.0894112
-0.0878686
-0.0868516
-0.0865174
-0.085781
-0.0850572
-0.0842963
-0.0842205
-0.0833556
-0.0826527
-0.0819754
-0.0812324
-0.0815955
-0.0789799
-0.0763591
-0.0736996
-0.0709608
-0.0682106
-0.0654343
-0.0626484
-0.0598765
-0.0571152
-0.0641699
-0.0636179
-0.061698
-0.0610871
-0.0591513
-0.0569953
-0.0543675
-0.0558012
-0.0579456
-0.0598849
-0.0604981
-0.0952344
-0.0924961
-0.0924255
-0.0908682
-0.0898637
-0.089577
-0.0888122
-0.0880595
-0.0872932
-0.0872016
-0.0863424
-0.0856242
-0.0849294
-0.0841677
-0.0845249
-0.0818423
-0.0791595
-0.0764429
-0.0736622
-0.0710188
-0.068352
-0.0656541
-0.0629246
-0.060193
-0.0574718
-0.0547551
-0.0592575
-0.0586574
-0.0567445
-0.0546209
-0.0521055
-0.0534662
-0.0555724
-0.0574723
-0.0580776
-0.0982997
-0.0957427
-0.0956801
-0.0940678
-0.0929336
-0.0925349
-0.0918255
-0.091078
-0.0903592
-0.0902228
-0.0893729
-0.088639
-0.0879355
-0.087168
-0.0875044
-0.0847748
-0.082025
-0.0792536
-0.0764217
-0.0735062
-0.0709659
-0.0683994
-0.0657956
-0.063142
-0.0604661
-0.057791
-0.055118
-0.0524834
-0.056851
-0.0562471
-0.0544284
-0.0523472
-0.0498385
-0.0512061
-0.0532649
-0.0550445
-0.0556579
-0.0990074
-0.0989913
-0.0972679
-0.100291
-0.101201
-0.096159
-0.0958301
-0.0950488
-0.0943038
-0.0934388
-0.0933119
-0.0907529
-0.0901672
-0.0905347
-0.087758
-0.0849612
-0.0821285
-0.0792453
-0.0762833
-0.0732353
-0.0707915
-0.0683327
-0.0658404
-0.063285
-0.0606825
-0.0580644
-0.0554416
-0.0528369
-0.0502348
-0.0544383
-0.0540198
-0.0521131
-0.0500788
-0.0476107
-0.0489631
-0.0509674
-0.0527732
-0.0533385
-0.10234
-0.0994687
-0.100763
-0.0991709
-0.098348
-0.0975406
-0.0966788
-0.102626
-0.102506
-0.096518
-0.093638
-0.0907974
-0.0879524
-0.0850701
-0.0821329
-0.0791226
-0.0760301
-0.0728645
-0.0705018
-0.0681444
-0.0657678
-0.0633255
-0.0608219
-0.0582769
-0.0557134
-0.0531533
-0.0505892
-0.0480094
-0.0538704
-0.0522084
-0.0516432
-0.0498483
-0.047858
-0.0454364
-0.0467609
-0.0487389
-0.050526
-0.0510907
-0.0526249
-0.0531372
-0.102865
-0.0998199
-0.101591
-0.101961
-0.100926
-0.100043
-0.104492
-0.102642
-0.104252
-0.096845
-0.0939154
-0.0910077
-0.0880713
-0.0850856
-0.0820266
-0.078889
-0.0756781
-0.072417
-0.0701126
-0.0678393
-0.0655695
-0.0632486
-0.0608597
-0.0584128
-0.0559242
-0.0534199
-0.0509014
-0.0483641
-0.0458293
-0.0520733
-0.0515182
-0.0499562
-0.049398
-0.047637
-0.0456807
-0.0433068
-0.0445997
-0.0465447
-0.0482974
-0.0488557
-0.0504001
-0.0509622
-0.103218
-0.100151
-0.102585
-0.101763
-0.103601
-0.104486
-0.0971329
-0.0941409
-0.091146
-0.0881027
-0.0849958
-0.0818129
-0.0785574
-0.0752499
-0.0719111
-0.069647
-0.067433
-0.0652496
-0.0630434
-0.0607782
-0.0584468
-0.0560572
-0.053626
-0.0511656
-0.0486752
-0.0461792
-0.0436917
-0.0498265
-0.0492736
-0.047736
-0.047187
-0.0454616
-0.0435422
-0.0412178
-0.0424757
-0.0443857
-0.046106
-0.0466544
-0.0481692
-0.0487233
-0.103551
-0.100442
-0.103457
-0.102434
-0.104332
-0.0973668
-0.0943006
-0.0911984
-0.0880334
-0.0848022
-0.0815037
-0.0781504
-0.0747634
-0.0713625
-0.0691243
-0.0669493
-0.064826
-0.0627139
-0.0605652
-0.0583577
-0.0560838
-0.0537494
-0.051366
-0.0489377
-0.0464864
-0.0440349
-0.0415892
-0.0476046
-0.0470614
-0.0455557
-0.0450159
-0.0433208
-0.041439
-0.0391509
-0.0403872
-0.0422609
-0.0439528
-0.044492
-0.0459776
-0.0465219
-0.103846
-0.100683
-0.103298
-0.104158
-0.0975387
-0.0943762
-0.0911531
-0.087862
-0.0845156
-0.0811192
-0.0776845
-0.0742324
-0.0707882
-0.06856
-0.0664085
-0.0643236
-0.0622757
-0.0602237
-0.0581358
-0.0559879
-0.0537694
-0.0514841
-0.0491368
-0.0467455
-0.0443356
-0.0419244
-0.0395102
-0.0454241
-0.0448905
-0.0434124
-0.0428821
-0.0412126
-0.0393638
-0.0371235
-0.0383296
-0.0401696
-0.0418371
-0.0423664
-0.0438253
-0.0443605
-0.104092
-0.100867
-0.0976335
-0.094356
-0.0910093
-0.0876009
-0.084156
-0.0806755
-0.077173
-0.0736733
-0.070202
-0.067972
-0.0658268
-0.0637632
-0.0617562
-0.0597735
-0.0577852
-0.0557581
-0.0536669
-0.0514996
-0.0492539
-0.0469437
-0.0445915
-0.0422222
-0.0398464
-0.0374793
-0.0432825
-0.0427584
-0.0413059
-0.0407836
-0.0391448
-0.0373212
-0.0351517
-0.036322
-0.038139
-0.0397519
-0.040275
-0.041711
-0.0422362
-0.104282
-0.100976
-0.0976356
-0.0942387
-0.090776
-0.0872686
-0.0837379
-0.0801859
-0.0766314
-0.0730987
-0.0696336
-0.067375
-0.0652238
-0.0631628
-0.0611779
-0.0592403
-0.0573233
-0.0553982
-0.0534286
-0.0513885
-0.0492658
-0.047058
-0.0447862
-0.0424739
-0.0401469
-0.0378176
-0.0355063
-0.041178
-0.0406606
-0.0392247
-0.0387039
-0.037138
-0.0353394
-0.0331888
-0.034349
-0.0361243
-0.0377103
-0.0382029
-0.0396249
-0.0401459
-0.104405
-0.100997
-0.0975437
-0.0940327
-0.0904706
-0.0868779
-0.083273
-0.0796647
-0.0760713
-0.072538
-0.0691248
-0.0668015
-0.0646157
-0.0625423
-0.0605598
-0.0586469
-0.0567772
-0.0549253
-0.0530586
-0.0511426
-0.0491516
-0.0470671
-0.044899
-0.042668
-0.0404008
-0.0381199
-0.0358392
-0.0335524
-0.0390896
-0.0385597
-0.0372395
-0.0366898
-0.0351229
-0.0333674
-0.0312723
-0.0323881
-0.0341289
-0.035704
-0.0362044
-0.0375195
-0.038027
-0.104447
-0.100929
-0.0973654
-0.0937549
-0.0901062
-0.0864395
-0.0827752
-0.0791225
-0.075522
-0.0720332
-0.0687234
-0.0662929
-0.0640344
-0.061919
-0.0599228
-0.0580137
-0.0561706
-0.0543674
-0.0525763
-0.0507663
-0.0489009
-0.0469507
-0.0449068
-0.0427817
-0.0405949
-0.038374
-0.0361367
-0.0338862
-0.0316316
-0.0372364
-0.0365368
-0.0352045
-0.0347106
-0.0331516
-0.0314175
-0.0293927
-0.0304265
-0.0321772
-0.033736
-0.0342282
-0.0355783
-0.0360632
-0.104404
-0.100779
-0.0971161
-0.0934177
-0.0896933
-0.0859664
-0.0822539
-0.0785873
-0.0750245
-0.0716309
-0.0684728
-0.0658936
-0.0635231
-0.0613266
-0.0592855
-0.0573625
-0.0555241
-0.053749
-0.0520088
-0.0502766
-0.0485178
-0.0466976
-0.0447903
-0.0427906
-0.0407058
-0.0385642
-0.0363864
-0.0341821
-0.0319603
-0.0297695
-0.0371385
-0.0363744
-0.0350904
-0.0346011
-0.033242
-0.0327533
-0.0312099
-0.0294125
-0.027543
-0.0281963
-0.0302443
-0.0317864
-0.0322755
-0.0336273
-0.0341179
-0.0354582
-0.0359255
-0.104282
-0.100559
-0.0968075
-0.0930308
-0.0892442
-0.0854678
-0.0817363
-0.0781007
-0.0746261
-0.0713761
-0.0683941
-0.0656476
-0.0631276
-0.0608087
-0.0586818
-0.0567134
-0.054861
-0.0530911
-0.05138
-0.0497002
-0.0480213
-0.0463125
-0.0445357
-0.0426721
-0.0407126
-0.0386745
-0.0365743
-0.0344313
-0.0322546
-0.0300774
-0.0279203
-0.0349692
-0.0344869
-0.0331363
-0.032648
-0.0312957
-0.0308131
-0.0293102
-0.0269612
-0.0257373
-0.0284167
-0.029861
-0.0303382
-0.031677
-0.0321656
-0.0335094
-0.0339952
-0.104093
-0.100281
-0.0964487
-0.0926059
-0.0887666
-0.0849701
-0.0812627
-0.0777097
-0.074375
-0.0712951
-0.0684799
-0.0655756
-0.0628862
-0.060409
-0.0581563
-0.0561018
-0.0542025
-0.0524181
-0.0507123
-0.049063
-0.0474391
-0.0458122
-0.0441481
-0.0424157
-0.0405934
-0.0386764
-0.0366787
-0.0346156
-0.0325006
-0.0303639
-0.0282252
-0.0260956
-0.0330132
-0.032531
-0.0311886
-0.0307038
-0.0293818
-0.0289227
-0.02732
-0.0253015
-0.0263852
-0.0239592
-0.0282251
-0.0297441
-0.0302249
-0.0315568
-0.0320406
-0.103845
-0.0999524
-0.0960503
-0.0921505
-0.0882858
-0.0845124
-0.0808815
-0.0774644
-0.0742992
-0.0713841
-0.0686957
-0.0656686
-0.0628178
-0.0601677
-0.0577536
-0.0555722
-0.0535849
-0.0517513
-0.0500305
-0.0483874
-0.0467954
-0.0452248
-0.0436456
-0.042027
-0.0403368
-0.0385543
-0.0366796
-0.0347178
-0.0326836
-0.0306043
-0.0285041
-0.0264013
-0.0243048
-0.0310641
-0.0305858
-0.0292565
-0.0287183
-0.0274024
-0.0269413
-0.0255065
-0.0235632
-0.0246121
-0.0264877
-0.0260208
-0.0221921
-0.0283418
-0.0278688
-0.0296345
-0.030103
-0.103547
-0.0995825
-0.0956185
-0.0916883
-0.0878408
-0.0841418
-0.080643
-0.0773952
-0.0743976
-0.0716103
-0.0689881
-0.0658917
-0.0629129
-0.0601001
-0.0575119
-0.0551689
-0.0530525
-0.0511282
-0.0493581
-0.0476992
-0.046114
-0.0445767
-0.0430562
-0.0415236
-0.0399478
-0.0382972
-0.0365561
-0.0347157
-0.0327857
-0.0307853
-0.0287386
-0.0266766
-0.0246083
-0.0225319
-0.029177
-0.0287586
-0.0255604
-0.0251227
-0.0237249
-0.0218343
-0.0228371
-0.0246951
-0.0242365
-0.0204574
-0.103206
-0.0991771
-0.095176
-0.0912563
-0.087478
-0.0839085
-0.080579
-0.0775023
-0.074641
-0.071926
-0.0692937
-0.0661939
-0.0631352
-0.0601922
-0.0574431
-0.0549261
-0.0526487
-0.0505945
-0.0487336
-0.0470228
-0.0454214
-0.0438912
-0.0424056
-0.040933
-0.0394444
-0.0379085
-0.036297
-0.0345906
-0.0327832
-0.0308825
-0.028915
-0.0269076
-0.0248778
-0.0228395
-0.0207953
-0.0237753
-0.0233461
-0.0219483
-0.0201168
-0.0211027
-0.0229239
-0.0224664
-0.0187698
-0.102827
-0.0987572
-0.0947588
-0.0909018
-0.0872499
-0.0838466
-0.0806925
-0.0777569
-0.0749805
-0.0722871
-0.0695947
-0.0665283
-0.0634328
-0.060406
-0.0575313
-0.0548573
-0.05241
-0.0501942
-0.0482018
-0.0463966
-0.044743
-0.0431964
-0.0417186
-0.0402815
-0.0388537
-0.0374059
-0.0359092
-0.0343332
-0.0326586
-0.0308803
-0.0290103
-0.0270768
-0.0251021
-0.0231088
-0.0211043
-0.0191027
-0.021989
-0.021533
-0.0202776
-0.018406
-0.0193659
-0.0210874
-0.0206437
-0.0170837
-0.10243
-0.098357
-0.094412
-0.0906755
-0.087191
-0.0839602
-0.0809512
-0.0781061
-0.0753625
-0.0726635
-0.0668636
-0.069104
-0.0704937
-0.0637551
-0.0606911
-0.0577405
-0.0549478
-0.0523463
-0.0499595
-0.0478056
-0.0458669
-0.0441181
-0.0425179
-0.041023
-0.039594
-0.0382028
-0.0368173
-0.0354091
-0.0339472
-0.0324031
-0.0307572
-0.0290087
-0.0271721
-0.0252689
-0.023333
-0.0213731
-0.0194055
-0.0174209
-0.0204095
-0.0197901
-0.0185225
-0.0167074
-0.0176784
-0.0194022
-0.018992
-0.0154199
-0.102046
-0.0980203
-0.0941893
-0.0906138
-0.0873048
-0.0842187
-0.0813006
-0.0784839
-0.075723
-0.0721053
-0.073661
-0.064054
-0.0663403
-0.0677543
-0.0692743
-0.0705371
-0.0609968
-0.0580226
-0.0551577
-0.0524386
-0.049899
-0.0475771
-0.0454755
-0.0435931
-0.0418971
-0.0403463
-0.0388996
-0.0375171
-0.0361688
-0.0348234
-0.0334506
-0.0320216
-0.0305054
-0.0288876
-0.0271672
-0.0253637
-0.0234997
-0.0215952
-0.01967
-0.017723
-0.0157574
-0.0203542
-0.0196374
-0.0185798
-0.0181611
-0.016841
-0.0150505
-0.016011
-0.0177495
-0.0173244
-0.0192871
-0.0188891
-0.0137882
-0.101721
-0.0977989
-0.0941296
-0.0907273
-0.0875638
-0.0845692
-0.0816774
-0.0788304
-0.0751473
-0.0767264
-0.0723017
-0.0737765
-0.0612831
-0.0635412
-0.0649162
-0.066429
-0.0678799
-0.0690733
-0.0698438
-0.0712579
-0.0701565
-0.0583273
-0.0554388
-0.0526488
-0.0499953
-0.0475221
-0.0452528
-0.0432098
-0.0413783
-0.0397289
-0.0382267
-0.0368258
-0.035486
-0.0341785
-0.03287
-0.0315303
-0.0301295
-0.0286415
-0.02705
-0.0253606
-0.0235907
-0.0217572
-0.0198867
-0.0179848
-0.016058
-0.0141221
-0.0184605
-0.0180472
-0.0168998
-0.0164861
-0.0151871
-0.0134236
-0.014366
-0.0160787
-0.0156584
-0.0176468
-0.0172201
-0.0121822
-0.101505
-0.0977359
-0.0942419
-0.0909896
-0.0879173
-0.0849498
-0.082029
-0.0782576
-0.0798688
-0.0752823
-0.0768362
-0.072026
-0.0727569
-0.0742208
-0.0734463
-0.0586139
-0.0608124
-0.0621526
-0.0636429
-0.0650206
-0.0661731
-0.0668671
-0.0682997
-0.0675896
-0.0690232
-0.0697706
-0.0696379
-0.0557414
-0.0529277
-0.0502063
-0.0476201
-0.0452046
-0.0429953
-0.0410019
-0.0392179
-0.0376167
-0.0361579
-0.0347992
-0.033501
-0.0322309
-0.0309559
-0.0296469
-0.0282732
-0.0268097
-0.0252459
-0.0235849
-0.0218423
-0.0200429
-0.0181974
-0.0163171
-0.0144168
-0.0125133
-0.0167784
-0.0163692
-0.0152393
-0.0148314
-0.0135541
-0.0118192
-0.0127438
-0.0144288
-0.0140147
-0.0159719
-0.0155504
-0.0106011
-0.101441
-0.0978453
-0.0945038
-0.0913495
-0.0883057
-0.0853121
-0.0814499
-0.0830945
-0.0784025
-0.0799932
-0.0749975
-0.0757763
-0.0773003
-0.0765193
-0.0560249
-0.0581602
-0.0594696
-0.0609232
-0.0622695
-0.0633913
-0.064078
-0.0654494
-0.0647593
-0.0662203
-0.0669131
-0.0683209
-0.0676207
-0.0532254
-0.0504825
-0.0478305
-0.045307
-0.0429517
-0.0407953
-0.0388509
-0.0371134
-0.0355548
-0.0341376
-0.0328207
-0.0315598
-0.0303247
-0.0290816
-0.0277987
-0.0264505
-0.0250114
-0.0234715
-0.0218371
-0.0201246
-0.0183509
-0.0165259
-0.0146697
-0.0128023
-0.0109297
-0.0151164
-0.0147133
-0.0136023
-0.0132002
-0.0119431
-0.0102361
-0.0111432
-0.012803
-0.0123947
-0.0143214
-0.0139063
-0.00904213
-0.101546
-0.098108
-0.0948682
-0.0917472
-0.0886796
-0.0847215
-0.0864037
-0.0815996
-0.0832265
-0.0781082
-0.0789028
-0.0804651
-0.0796667
-0.0535042
-0.0555795
-0.0568579
-0.0582705
-0.0595847
-0.0606725
-0.0613458
-0.0626874
-0.0620083
-0.0634389
-0.0641219
-0.0654984
-0.0648087
-0.0507762
-0.0481038
-0.0455175
-0.043056
-0.0407581
-0.0386525
-0.0367558
-0.0350617
-0.0335438
-0.0321675
-0.0308868
-0.0296618
-0.0284596
-0.0272442
-0.0259871
-0.02466
-0.0232424
-0.0217275
-0.0201205
-0.0184297
-0.0166714
-0.0148688
-0.0130441
-0.0112099
-0.00936573
-0.01348
-0.0130826
-0.0119881
-0.0115918
-0.010352
-0.00867334
-0.00956122
-0.0111993
-0.0107964
-0.0126958
-0.0122865
-0.00750208
-0.101807
-0.098476
-0.0952749
-0.0921335
-0.0880764
-0.0897987
-0.0848751
-0.0865418
-0.0812966
-0.0821097
-0.0837098
-0.0828923
-0.0510497
-0.0530674
-0.0543143
-0.0556872
-0.0569681
-0.0580236
-0.0586805
-0.0599888
-0.0593251
-0.0607171
-0.0613851
-0.0627319
-0.0620554
-0.048392
-0.0457876
-0.0432663
-0.0408657
-0.0386213
-0.0365665
-0.034714
-0.0330611
-0.031583
-0.030243
-0.0289984
-0.0278072
-0.0266338
-0.0254447
-0.0242092
-0.0229022
-0.0215056
-0.0200103
-0.0184193
-0.0167458
-0.015007
-0.0132307
-0.0114363
-0.0096328
-0.00781514