/*--------------------------------*- C++ -*----------------------------------*\
| =========                 |                                                 |
| \\      /  F ield         | OpenFOAM: The Open Source CFD Toolbox           |
|  \\    /   O peration     | Version:  v1912                                 |
|   \\  /    A nd           | Website:  www.openfoam.com                      |
|    \\/     M anipulation  |                                                 |
\*---------------------------------------------------------------------------*/
FoamFile
{
    version     2.0;
    format      ascii;
    class       volVectorField;
    location    "90";
    object      U;
}
// * * * * * * * * * * * * * * * * * * * * * * * * * * * * * * * * * * * * * //

dimensions      [0 1 -1 0 0 0 0];


internalField   nonuniform List<vector> 
3753
(
(0.0495562 0.0208123 0)
(0.150377 0.0618554 -4.09127e-25)
(0.0490506 0.0206111 1.17298e-25)
(0.251214 0.101382 0)
(0.148885 0.0612457 2.16138e-25)
(0.0485501 0.0204132 -1.18e-25)
(0.348159 0.137781 4.10197e-22)
(0.248757 0.100387 3.27368e-25)
(0.147423 0.0606607 3.49863e-22)
(0.0480664 0.0202163 -2.01463e-25)
(0.435312 0.168884 -3.61982e-22)
(0.344754 0.136417 4.259e-22)
(0.246332 0.0994202 -2.87251e-22)
(0.145966 0.0600798 -3.22985e-25)
(0.0475911 0.0200191 2.29356e-22)
(0.505579 0.192217 4.22066e-25)
(0.431001 0.167178 -3.76339e-22)
(0.341388 0.135093 0)
(0.243934 0.0984776 -3.84456e-25)
(0.144529 0.0595006 3.23766e-25)
(0.0471421 0.0198252 0)
(0.551948 0.205551 2.28229e-26)
(0.500455 0.190216 -4.61032e-22)
(0.426745 0.165529 -4.36842e-25)
(0.338073 0.133802 4.73412e-22)
(0.241552 0.0975301 3.85075e-25)
(0.143137 0.0589293 0)
(0.046698 0.0196315 0)
(0.568965 0.207446 4.27007e-25)
(0.54613 0.20331 4.35282e-22)
(0.495412 0.18829 0)
(0.422565 0.163918 -4.17575e-22)
(0.334778 0.132509 0)
(0.239206 0.0965877 0)
(0.141766 0.05836 0)
(0.0462561 0.0194373 3.11157e-22)
(0.554105 0.197678 0)
(0.562603 0.205027 -4.4586e-22)
(0.54042 0.201161 0)
(0.490457 0.186406 -9.48682e-25)
(0.418413 0.162314 1.3871e-24)
(0.331511 0.131221 0)
(0.236891 0.0956518 0)
(0.140403 0.0577879 0)
(0.045824 0.0192478 -3.15279e-25)
(0.508453 0.177377 -3.49969e-25)
(0.547338 0.195137 4.53254e-22)
(0.556362 0.202719 0)
(0.534812 0.199065 -5.09404e-22)
(0.485545 0.184538 9.49682e-25)
(0.414297 0.160717 2.38834e-26)
(0.328286 0.129942 0)
(0.234601 0.0947154 0)
(0.139055 0.0572216 0)
(0.0453985 0.0190681 3.16793e-25)
(0.436465 0.1488 -1.53719e-25)
(0.501385 0.17475 1.85751e-25)
(0.540713 0.192741 -4.81784e-22)
(0.550274 0.20049 4.9977e-22)
(0.529294 0.197 -5.14283e-22)
(0.480686 0.182683 0)
(0.410229 0.15913 -9.58978e-25)
(0.325086 0.128662 0)
(0.232339 0.0937911 0)
(0.137741 0.0566711 5.10274e-22)
(0.0449622 0.0188896 0)
(0.344917 0.114867 5.03048e-23)
(0.429112 0.146093 -1.51864e-24)
(0.494505 0.172334 5.11774e-22)
(0.534344 0.190462 -1.98855e-24)
(0.544341 0.198308 5.02725e-22)
(0.523854 0.194959 0)
(0.475884 0.180841 0)
(0.406189 0.157548 4.88349e-25)
(0.321933 0.127401 0)
(0.230104 0.0928721 -4.16271e-22)
(0.136419 0.0561284 -5.0816e-22)
(0.0445293 0.0187101 0)
(0.241641 0.0786076 -6.29556e-23)
(0.337052 0.112025 1.00658e-25)
(0.422036 0.143693 -3.43561e-25)
(0.488062 0.170085 0)
(0.528229 0.188253 0)
(0.538539 0.19617 2.01571e-24)
(0.518496 0.192942 -5.20101e-22)
(0.471126 0.179015 0)
(0.402202 0.155983 -4.88893e-25)
(0.318793 0.126142 0)
(0.227887 0.0919761 4.14079e-22)
(0.135121 0.055597 -2.166e-25)
(0.0441036 0.01853 0)
(0.232124 0.0753454 -6.86654e-26)
(0.158 0.0505661 1.4891e-23)
(0.162067 0.0520142 1.12565e-23)
(0.329711 0.109609 0)
(0.415755 0.141553 -5.02859e-22)
(0.482045 0.167953 4.92613e-22)
(0.522339 0.186125 0)
(0.532861 0.194074 5.10074e-22)
(0.513213 0.190954 -1.00366e-24)
(0.466432 0.17721 -5.26755e-22)
(0.39825 0.154437 0)
(0.315713 0.124917 0)
(0.225706 0.0910933 4.30757e-29)
(0.133832 0.0550686 2.16971e-25)
(0.0436927 0.018351 0)
(0.224052 0.0727117 -4.30542e-23)
(0.145317 0.0466283 -2.19137e-23)
(0.151789 0.048186 2.1547e-23)
(0.104048 0.0330339 -1.094e-23)
(0.107692 0.0341462 7.69764e-25)
(0.323849 0.107617 5.84367e-22)
(0.410163 0.139607 -5.46396e-22)
(0.476385 0.165946 2.02586e-24)
(0.516642 0.184064 0)
(0.527306 0.192025 1.0123e-24)
(0.508014 0.188996 4.99796e-22)
(0.461806 0.175437 0)
(0.394365 0.152917 -2.44387e-25)
(0.31267 0.123705 -2.38386e-25)
(0.223563 0.090228 2.30941e-25)
(0.132571 0.0545434 0)
(0.043315 0.018186 0)
(0.219124 0.0709153 -1.0147e-22)
(0.138239 0.0440974 1.44007e-22)
(0.140757 0.0450075 0)
(0.0874708 0.0279036 3.35452e-24)
(0.0965616 0.0300738 0)
(0.0627884 0.0197835 -2.55015e-24)
(0.0650189 0.0206019 1.48823e-25)
(0.06637 0.0208886 -1.06727e-24)
(0.31909 0.105982 -2.06394e-24)
(0.405094 0.137846 7.00057e-27)
(0.471006 0.164045 -8.10739e-27)
(0.511122 0.182072 0)
(0.521863 0.190018 0)
(0.502899 0.187074 0)
(0.457249 0.173688 0)
(0.390533 0.15142 2.44683e-25)
(0.309694 0.122522 -5.26351e-22)
(0.221467 0.0893733 2.28103e-25)
(0.131381 0.0540413 -5.06661e-22)
(0.0429247 0.0180201 0)
(0.215776 0.0697889 1.05656e-22)
(0.13536 0.0430231 -1.40317e-22)
(0.136434 0.0433773 2.78555e-22)
(0.0814784 0.0255995 -6.54988e-23)
(0.0831689 0.026294 8.43101e-24)
(0.0419272 0.0134366 -4.24733e-24)
(0.0453017 0.0143769 -1.28451e-25)
(0.0589499 0.0184795 -8.5203e-26)
(0.0522364 0.0154597 3.88649e-23)
(0.0363499 0.0114637 -5.87947e-25)
(0.0380336 0.0119697 -4.97027e-26)
(0.0388403 0.0121496 3.77765e-26)
(0.314983 0.104598 0)
(0.400393 0.136224 4.80298e-22)
(0.46587 0.16223 -2.03012e-24)
(0.505752 0.180134 0)
(0.516532 0.188056 -5.04927e-25)
(0.497877 0.185185 -5.19487e-22)
(0.452759 0.171969 5.21604e-22)
(0.386786 0.149956 -6.06805e-23)
(0.306782 0.121357 0)
(0.219441 0.088539 4.12218e-22)
(0.130202 0.053547 -4.91751e-22)
(0.0425472 0.0178631 0)
(0.213066 0.0689479 -1.03311e-22)
(0.133582 0.0424915 -1.72148e-22)
(0.134308 0.0426879 -1.31588e-22)
(0.0799425 0.0250709 1.25848e-22)
(0.0805287 0.0252771 -1.27737e-22)
(0.0387819 0.0120798 -9.1004e-26)
(0.0389894 0.0121557 2.82411e-23)
(0.0401268 0.0126189 -1.19397e-23)
(0.0393114 0.012326 4.8605e-25)
(0.0138903 0.0045201 6.12467e-24)
(0.0154077 0.00507158 0)
(0.0336825 0.0101913 2.48345e-23)
(0.023026 0.0055273 -2.85621e-23)
(0.0116582 0.00373192 3.59005e-24)
(0.0123115 0.00383793 0)
(0.0125533 0.00389823 0)
(0.311293 0.103364 -5.52884e-22)
(0.395955 0.134696 -4.76545e-22)
(0.460909 0.160487 -1.01278e-24)
(0.500524 0.178253 -5.04685e-22)
(0.511307 0.186132 5.11586e-22)
(0.492934 0.183332 -4.94781e-22)
(0.448373 0.170285 4.79482e-22)
(0.383126 0.148519 -5.15765e-22)
(0.303953 0.120218 0)
(0.217471 0.0877303 4.00055e-22)
(0.129065 0.0530714 0)
(0.0421727 0.01771 0)
(0.210672 0.0681987 -9.91972e-23)
(0.132126 0.0420646 2.49736e-23)
(0.132709 0.0422316 0)
(0.0790305 0.0248081 2.54185e-23)
(0.0794582 0.0249367 1.18274e-22)
(0.0383455 0.0119348 -1.14983e-25)
(0.038378 0.0119515 2.20972e-25)
(0.0385924 0.0120207 2.63362e-23)
(0.0384954 0.0119997 -1.06065e-25)
(0.01241 0.00384047 1.07442e-23)
(0.012473 0.0038691 -1.08857e-24)
(0.0129192 0.00406372 5.50381e-24)
(0.0125811 0.00392088 0)
(0.0109228 0.00353631 -2.7139e-23)
(0.00639848 0.00148193 5.02772e-24)
(0.307851 0.10222 1.01036e-21)
(0.391732 0.133252 -1.01106e-24)
(0.456114 0.158798 5.37757e-22)
(0.495413 0.176414 5.02689e-22)
(0.506184 0.184252 -2.4955e-25)
(0.488103 0.181513 2.48441e-25)
(0.444077 0.168633 9.81268e-22)
(0.379559 0.147113 5.07606e-22)
(0.301206 0.11911 0)
(0.215556 0.0869407 0)
(0.127951 0.0526138 1.99653e-25)
(0.0417967 0.0175536 -3.64525e-22)
(0.208442 0.0674943 -7.28374e-22)
(0.130768 0.0416472 -1.556e-25)
(0.131337 0.0418202 1.66362e-22)
(0.0782343 0.0245765 1.33942e-22)
(0.0786097 0.0247009 3.71578e-27)
(0.0379977 0.0118407 3.20261e-23)
(0.0380467 0.0118495 -3.35193e-23)
(0.0382135 0.0118967 0)
(0.0381382 0.0118868 3.0396e-23)
(0.0122981 0.00380489 -1.77007e-23)
(0.0122979 0.0038127 1.65542e-23)
(0.0123587 0.00382974 1.35601e-23)
(0.0123289 0.00382305 1.49261e-23)
(0.304618 0.101145 1.00228e-24)
(0.387661 0.131854 0)
(0.451437 0.157157 -5.34627e-22)
(0.490419 0.174621 5.02225e-22)
(0.501168 0.182403 2.49789e-25)
(0.483368 0.17973 -4.83342e-22)
(0.439892 0.167018 -4.63434e-22)
(0.376083 0.145739 -2.28286e-25)
(0.298529 0.118029 0)
(0.213702 0.0861839 0)
(0.126851 0.0521598 3.54881e-22)
(0.0414628 0.0174059 -5.11721e-23)
(0.206327 0.0668083 2.07372e-22)
(0.12946 0.0412406 1.74466e-22)
(0.130005 0.041407 1.692e-22)
(0.0774575 0.0243413 -1.18339e-25)
(0.0778415 0.0244704 -1.17213e-25)
(0.0376446 0.0117341 0)
(0.0377117 0.0117509 3.09162e-23)
(0.0378688 0.0118052 0)
(0.0378114 0.0117898 -1.30279e-25)
(0.012184 0.00377461 -1.19344e-24)
(0.0122105 0.00378025 -1.83443e-23)
(0.0122587 0.00379381 1.70064e-23)
(0.0122265 0.00378853 -2.01782e-23)
(0.30148 0.1001 -4.64751e-22)
(0.383704 0.130503 -2.53531e-25)
(0.446885 0.155558 -5.33911e-22)
(0.485517 0.172854 0)
(0.496246 0.18059 0)
(0.47874 0.177983 0)
(0.435811 0.165439 -4.6476e-25)
(0.372714 0.144406 -4.86163e-22)
(0.295951 0.116989 0)
(0.211895 0.0854433 2.08731e-25)
(0.125791 0.0517144 8.16702e-22)
(0.0411237 0.0172651 0)
(0.204249 0.0661399 5.29117e-22)
(0.128199 0.0408312 -1.77205e-22)
(0.128735 0.0409999 -1.7161e-22)
(0.076703 0.0241112 2.76658e-23)
(0.0770726 0.024231 1.18453e-25)
(0.0372889 0.0116263 0)
(0.0373544 0.0116441 0)
(0.0375127 0.0116946 3.18442e-23)
(0.037457 0.0116821 0)
(0.0120719 0.00373972 2.11646e-23)
(0.0121036 0.00374704 -3.98893e-23)
(0.012162 0.00376964 7.85991e-26)
(0.0121408 0.00376165 2.02381e-23)
(0.298462 0.0990976 0)
(0.379861 0.129185 2.5394e-25)
(0.442414 0.153988 -2.51656e-25)
(0.480708 0.171123 -4.90218e-22)
(0.49142 0.17881 0)
(0.474218 0.176271 -4.83622e-22)
(0.431839 0.163898 4.44378e-22)
(0.369457 0.143111 0)
(0.293449 0.115976 -2.13962e-25)
(0.210129 0.0847166 -3.75998e-22)
(0.124769 0.0512924 -1.94545e-25)
(0.0407837 0.0171206 5.65862e-25)
(0.20227 0.0654949 -1.08726e-22)
(0.126958 0.0404413 2.35719e-23)
(0.127489 0.0406049 -1.75043e-22)
(0.0759602 0.0238715 1.24234e-25)
(0.076318 0.0239932 2.74518e-23)
(0.0369354 0.0115159 0)
(0.0369891 0.0115317 -3.68546e-23)
(0.0371683 0.0115893 0)
(0.0371067 0.0115678 0)
(0.0119676 0.00370751 2.10891e-23)
(0.0119962 0.00371507 -2.01875e-23)
(0.0120446 0.00373166 -2.13023e-23)
(0.0120181 0.00372493 2.11571e-23)
(0.295518 0.0981137 0)
(0.37609 0.127894 4.80806e-22)
(0.438009 0.152439 5.21826e-22)
(0.47597 0.169418 7.12964e-25)
(0.486685 0.177059 -4.57775e-25)
(0.469805 0.174594 0)
(0.427998 0.162396 4.6867e-22)
(0.366301 0.14185 0)
(0.291009 0.114985 4.24747e-25)
(0.208415 0.0840138 0)
(0.123756 0.0508712 -4.43103e-22)
(0.0404694 0.0169852 -6.2365e-22)
(0.200324 0.0648634 1.08789e-22)
(0.125768 0.0400524 1.81965e-22)
(0.126273 0.0402136 1.53795e-22)
(0.0752448 0.0236514 1.40331e-22)
(0.0756033 0.0237674 -1.24381e-25)
(0.0365833 0.0114013 0)
(0.0366441 0.0114227 -1.40459e-25)
(0.0368009 0.0114745 -3.65452e-23)
(0.0367292 0.0114588 1.40341e-25)
(0.0118482 0.00367015 2.21108e-23)
(0.0118668 0.00367577 -2.10161e-23)
(0.0119387 0.00369932 2.11782e-23)
(0.0119056 0.00368648 2.07489e-23)
(0.292623 0.0971486 -5.55456e-22)
(0.372362 0.126618 0)
(0.433666 0.150915 0)
(0.471295 0.167731 4.87563e-22)
(0.482039 0.175333 -9.27243e-25)
(0.465511 0.172948 -4.43491e-22)
(0.424265 0.160928 -2.20113e-25)
(0.36323 0.140621 0)
(0.288638 0.114023 -2.10753e-25)
(0.206741 0.0833279 3.58299e-22)
(0.122775 0.0504621 -1.0904e-22)
(0.0401545 0.0168486 -3.24332e-22)
(0.198409 0.0642427 0)
(0.124587 0.0396819 -2.24963e-23)
(0.125096 0.039841 0)
(0.0745406 0.0234239 6.04472e-23)
(0.0748856 0.0235367 -1.10371e-22)
(0.0362435 0.0112997 3.65581e-23)
(0.0362933 0.0113129 -1.45738e-25)
(0.0364412 0.0113616 0)
(0.036388 0.0113467 0)
(0.0117335 0.00363281 2.22375e-23)
(0.0117693 0.00364508 -2.18448e-23)
(0.0118179 0.0036614 0)
(0.011788 0.00365468 2.21606e-23)
(0.289764 0.0961959 0)
(0.368677 0.125354 9.77918e-25)
(0.42935 0.149395 0)
(0.466673 0.166055 0)
(0.477477 0.173622 0)
(0.46132 0.171329 -2.24426e-25)
(0.420638 0.159496 4.46085e-22)
(0.360247 0.139424 0)
(0.28632 0.113085 -4.50789e-22)
(0.205106 0.0826563 3.5246e-22)
(0.121808 0.0500533 -1.07221e-22)
(0.0398283 0.0167096 4.99934e-25)
(0.196526 0.0636305 1.08916e-22)
(0.123438 0.0393126 -1.59657e-22)
(0.123929 0.0394694 0)
(0.0738496 0.0232106 -1.45744e-22)
(0.0741867 0.02332 5.22804e-25)
(0.0359009 0.0111898 -4.00859e-23)
(0.0359683 0.0112159 -4.04283e-23)
(0.0361226 0.0112604 -3.89179e-23)
(0.0360538 0.0112402 1.49156e-25)
(0.0116226 0.00360095 -1.10994e-24)
(0.011651 0.00360748 -2.22965e-23)
(0.0116919 0.00362307 2.2621e-23)
(0.0116736 0.00361621 2.29457e-23)
(0.286932 0.0952462 9.86882e-25)
(0.364997 0.124092 -9.78782e-25)
(0.425038 0.147874 1.81843e-24)
(0.46208 0.164375 -8.63111e-25)
(0.472996 0.171926 -8.38121e-25)
(0.457239 0.169739 -4.22747e-22)
(0.417106 0.158096 0)
(0.35733 0.138258 -4.8032e-23)
(0.284056 0.112167 0)
(0.203483 0.081984 3.39129e-22)
(0.120837 0.0496444 -4.05403e-22)
(0.0394991 0.0165697 -3.02719e-22)
(0.19466 0.0630201 1.07606e-22)
(0.122312 0.0389528 -1.81105e-22)
(0.122798 0.0391113 0)
(0.0731703 0.0229968 1.45663e-22)
(0.07352 0.0231101 0)
(0.0355792 0.011091 3.77661e-23)
(0.0356356 0.0111098 0)
(0.0357662 0.011149 0)
(0.0357259 0.0111363 0)
(0.011519 0.00356766 4.68255e-26)
(0.0115478 0.00357948 2.44449e-23)
(0.0116026 0.00359359 2.32041e-23)
(0.0115738 0.00358342 0)
(0.284092 0.0942961 -4.59747e-22)
(0.361273 0.122814 -1.85067e-24)
(0.420685 0.146327 -4.3674e-22)
(0.457509 0.162684 -4.16131e-22)
(0.468585 0.170232 8.36772e-25)
(0.453245 0.168176 -4.11511e-25)
(0.41365 0.156731 4.04971e-22)
(0.354475 0.137116 0)
(0.281804 0.111251 0)
(0.201861 0.081311 3.29237e-22)
(0.119861 0.0492326 6.81829e-22)
(0.0391745 0.016431 -2.41667e-22)
(0.192801 0.0624119 4.2041e-22)
(0.121185 0.0385899 -3.38485e-22)
(0.121672 0.0387444 -6.59423e-25)
(0.0725199 0.0227932 3.05643e-23)
(0.07285 0.0229019 5.30492e-25)
(0.0352521 0.0109883 3.74712e-23)
(0.0353177 0.0110143 1.54079e-25)
(0.0354675 0.0110533 0)
(0.035415 0.0110427 0)
(0.0114166 0.00353575 -9.12794e-25)
(0.0114365 0.00354306 2.4454e-23)
(0.0114793 0.00355568 2.41985e-23)
(0.0114624 0.00354878 -2.42437e-23)
(0.281209 0.093331 -9.72058e-25)
(0.357457 0.121501 4.86274e-22)
(0.416266 0.144738 4.42583e-22)
(0.452926 0.160957 -3.90009e-22)
(0.464232 0.16855 2.01033e-25)
(0.449326 0.166648 4.10884e-25)
(0.410262 0.155398 -8.02438e-25)
(0.351643 0.135985 1.55236e-24)
(0.279558 0.110335 0)
(0.200238 0.0806359 8.56617e-23)
(0.118877 0.0488157 -1.25768e-24)
(0.0388334 0.0162891 -2.35891e-22)
(0.19092 0.0617948 -1.05352e-22)
(0.120085 0.0382361 1.77451e-22)
(0.120569 0.0383935 1.58219e-22)
(0.0718572 0.0225802 1.45549e-22)
(0.0721959 0.0226896 0)
(0.0349437 0.0108935 0)
(0.0350016 0.0109165 -4.10197e-23)
(0.0351336 0.0109503 -3.75899e-23)
(0.0350915 0.0109434 -1.56628e-25)
(0.0113173 0.00350367 -1.12054e-24)
(0.0113445 0.00351739 2.55077e-23)
(0.0113942 0.00352665 -2.42117e-23)
(0.0113641 0.00352119 2.51463e-23)
(0.278203 0.0923276 1.80486e-24)
(0.353464 0.120112 4.10119e-22)
(0.411705 0.143061 4.15562e-22)
(0.448322 0.1592 3.72737e-22)
(0.459932 0.166893 -2.00711e-25)
(0.445479 0.16516 0)
(0.406913 0.154085 2.35789e-24)
(0.348816 0.134853 -1.55199e-24)
(0.277309 0.109416 -3.43419e-22)
(0.198614 0.0799586 1.36779e-24)
(0.117873 0.048392 2.61301e-26)
(0.0384865 0.0161481 9.11874e-25)
(0.188965 0.0611543 -1.00379e-22)
(0.118976 0.0378761 3.18e-25)
(0.119469 0.0380389 1.75214e-22)
(0.0712261 0.0223829 -3.96303e-25)
(0.0715535 0.0224895 -1.44309e-22)
(0.0346311 0.0107934 0)
(0.0346824 0.0108095 7.71528e-26)
(0.0348439 0.0108581 1.5417e-25)
(0.0347891 0.0108461 -2.31475e-25)
(0.0112206 0.00347466 2.53262e-23)
(0.0112375 0.00348444 0)
(0.0112761 0.00349042 2.57943e-23)
(0.011254 0.00348808 2.59055e-23)
(0.274941 0.0912369 -6.31536e-23)
(0.349173 0.118595 0)
(0.406974 0.14128 -7.36813e-22)
(0.443708 0.15744 0)
(0.455696 0.165286 -1.59845e-24)
(0.441688 0.163705 0)
(0.403583 0.152777 -3.06269e-24)
(0.345997 0.133721 0)
(0.275067 0.108494 3.97275e-22)
(0.196962 0.0792676 -1.36847e-24)
(0.116867 0.0479695 2.45355e-24)
(0.0381263 0.0160009 -2.30939e-22)
(0.186791 0.0604533 -5.75041e-22)
(0.117847 0.0375115 1.6691e-22)
(0.118375 0.0376872 1.52243e-22)
(0.0705902 0.0221782 1.82775e-25)
(0.0709088 0.0222852 -3.09963e-23)
(0.034336 0.0106996 -7.71123e-26)
(0.0343908 0.0107228 7.70603e-26)
(0.0345318 0.0107658 0)
(0.0344768 0.0107495 0)
(0.011109 0.00343891 -2.52748e-23)
(0.0111418 0.00345046 2.50528e-23)
(0.0111911 0.00346303 -4.85756e-26)
(0.011166 0.00345912 2.57235e-23)
(0.271263 0.0900003 0)
(0.344453 0.116859 6.8416e-22)
(0.40208 0.139425 -1.82153e-25)
(0.439141 0.155747 -1.60008e-24)
(0.451551 0.163733 4.35599e-26)
(0.437948 0.162266 0)
(0.400272 0.151471 3.91226e-22)
(0.343184 0.132584 -3.46291e-22)
(0.272802 0.107561 -1.4139e-24)
(0.195306 0.0785724 1.32562e-24)
(0.115838 0.0475373 3.62654e-22)
(0.0377608 0.0158479 4.79571e-25)
(0.184199 0.0596194 0)
(0.116566 0.0371021 -1.3647e-22)
(0.117192 0.0373081 1.6464e-22)
(0.0699497 0.0219776 0)
(0.0702841 0.0220849 -1.10012e-22)
(0.0340355 0.0106071 -3.30687e-24)
(0.034096 0.0106266 3.96889e-23)
(0.034228 0.0106695 4.07972e-23)
(0.0341882 0.0106594 7.59736e-26)
(0.0110276 0.00341213 -2.48109e-23)
(0.0110459 0.00342265 2.57768e-23)
(0.0110869 0.00343481 2.56631e-23)
(0.0110641 0.00342881 2.5614e-23)
(0.266772 0.0884321 -2.05785e-22)
(0.339251 0.114883 2.7163e-22)
(0.397188 0.137662 0)
(0.434728 0.154142 3.60397e-26)
(0.447509 0.162215 3.04136e-24)
(0.434247 0.160836 -3.67875e-22)
(0.396968 0.150162 -1.459e-24)
(0.340362 0.13144 -3.7374e-22)
(0.270521 0.106615 0)
(0.193629 0.0778698 -2.95311e-22)
(0.114788 0.0470933 -3.66291e-22)
(0.0374019 0.0156974 -1.49246e-24)
(0.180543 0.0584438 -2.12963e-22)
(0.114879 0.0365766 1.0307e-24)
(0.115798 0.0368719 -1.36527e-22)
(0.0692637 0.0217607 1.53671e-22)
(0.069625 0.0218753 -9.4416e-25)
(0.0337459 0.0105136 0)
(0.0338058 0.0105398 0)
(0.033934 0.0105777 7.52633e-26)
(0.0338841 0.010562 -3.99535e-23)
(0.0109199 0.00337989 -2.55062e-23)
(0.0109536 0.00339114 2.4563e-23)
(0.0109936 0.00340539 0)
(0.0109791 0.00340271 0)
(0.261107 0.0862973 -3.14862e-22)
(0.333947 0.113033 3.31411e-24)
(0.392574 0.136044 4.12325e-22)
(0.430515 0.152599 1.56715e-24)
(0.44356 0.160721 3.62918e-22)
(0.43058 0.159412 1.38177e-24)
(0.393668 0.14885 3.40877e-22)
(0.337517 0.130284 1.35428e-24)
(0.268234 0.105667 -3.68956e-22)
(0.191938 0.0771571 2.95783e-22)
(0.113748 0.0466502 3.76408e-22)
(0.0370255 0.0155395 1.01414e-24)
(0.173924 0.0560758 -8.71477e-25)
(0.111737 0.0356034 -2.38181e-24)
(0.113565 0.0362459 1.28355e-22)
(0.0683738 0.0214885 -3.95437e-25)
(0.06889 0.0216372 1.24896e-22)
(0.0334636 0.0104265 -3.14765e-24)
(0.0335068 0.0104453 -6.94009e-26)
(0.0336372 0.0104852 0)
(0.0335926 0.0104715 6.94001e-26)
(0.0108379 0.00335226 0)
(0.010864 0.00336594 2.48136e-23)
(0.0108988 0.0033762 2.48232e-23)
(0.0108777 0.00337064 2.47418e-23)
(0.255059 0.0842862 -1.25496e-24)
(0.329184 0.111433 -4.59443e-22)
(0.388353 0.134538 -3.19818e-24)
(0.42649 0.15111 -3.73958e-22)
(0.439692 0.159253 0)
(0.426945 0.157998 -1.38275e-24)
(0.390376 0.147538 -3.47583e-22)
(0.334684 0.129125 3.22586e-22)
(0.265936 0.104708 1.33911e-24)
(0.19025 0.0764386 7.08693e-23)
(0.112689 0.0461919 -3.84322e-22)
(0.0366359 0.0153763 0)
(0.165914 0.0536197 3.31484e-23)
(0.102942 0.0324583 2.23214e-25)
(0.108402 0.0345572 1.43045e-24)
(0.0665574 0.020977 -3.2954e-24)
(0.067674 0.0213014 -3.3048e-23)
(0.0331432 0.0103276 -3.15029e-23)
(0.0332219 0.0103552 6.36914e-23)
(0.0333744 0.010399 -6.60593e-26)
(0.0333119 0.0103751 0)
(0.0107483 0.0033261 -4.44452e-23)
(0.0107702 0.00333635 2.28389e-23)
(0.0107983 0.00334485 2.36544e-23)
(0.0107832 0.00334185 2.36274e-23)
(0.250202 0.0826711 -4.47588e-22)
(0.325138 0.110018 0)
(0.384448 0.133121 0)
(0.422618 0.149673 -2.63019e-24)
(0.435902 0.157811 0)
(0.42335 0.156593 6.60199e-22)
(0.387105 0.146225 0)
(0.331855 0.127962 -3.4723e-22)
(0.263642 0.10374 -3.17885e-22)
(0.188542 0.075704 3.10521e-22)
(0.111599 0.0457215 3.98878e-22)
(0.0362438 0.015214 6.62381e-25)
(0.1612 0.0518945 4.67555e-22)
(0.0931542 0.029743 -7.69614e-23)
(0.096682 0.0307747 -5.46035e-23)
(0.0571717 0.0176507 0)
(0.0643343 0.0202555 1.7337e-23)
(0.0323747 0.0101221 0)
(0.0326965 0.0102045 -2.1831e-25)
(0.0330058 0.0102938 -3.36581e-24)
(0.032868 0.010252 2.18861e-25)
(0.0106576 0.00329848 1.91985e-23)
(0.0106831 0.00330742 -2.14825e-23)
(0.0107297 0.00332158 2.16582e-23)
(0.0107043 0.00331236 2.06501e-23)
(0.246622 0.0814141 3.54106e-24)
(0.32161 0.10876 0)
(0.380797 0.131798 0)
(0.418885 0.148286 2.63471e-24)
(0.432187 0.156391 -3.25059e-22)
(0.419793 0.155196 -4.89566e-26)
(0.383857 0.144912 -9.04735e-24)
(0.329033 0.126789 0)
(0.261344 0.102763 -3.58954e-22)
(0.186817 0.0749599 -7.08746e-22)
(0.110512 0.0452504 0)
(0.0358356 0.0150433 -1.03589e-24)
(0.158648 0.0509379 -8.3061e-23)
(0.0904538 0.0285582 1.10004e-24)
(0.091374 0.0289236 7.81537e-23)
(0.0451183 0.0142338 1.06225e-22)
(0.0481541 0.0155367 -2.59039e-23)
(0.0190328 0.00446515 0)
(0.0280124 0.00832946 0)
(0.0318104 0.0100298 -1.14985e-24)
(0.0306072 0.0094849 -1.72968e-23)
(0.0104324 0.00323376 1.52594e-23)
(0.0105454 0.00326213 -1.64897e-23)
(0.0106237 0.00329037 -1.05382e-24)
(0.0105843 0.00327768 1.69831e-23)
(0.243762 0.0804161 -3.29203e-22)
(0.318423 0.10763 0)
(0.37735 0.130547 -1.19518e-24)
(0.415267 0.146935 0)
(0.428544 0.154991 0)
(0.416283 0.153805 3.07766e-22)
(0.380623 0.143595 3.14046e-22)
(0.326222 0.125612 3.16257e-22)
(0.259038 0.101774 3.25691e-22)
(0.185097 0.0742082 -4.02286e-22)
(0.109403 0.0447618 4.49758e-22)
(0.0354152 0.0148713 -4.04142e-22)
(0.156873 0.0503755 4.65797e-22)
(0.0893314 0.028184 1.51029e-22)
(0.0897459 0.0283069 -1.09936e-24)
(0.0439016 0.0136627 2.48322e-23)
(0.0443131 0.0138228 0)
(0.0104087 0.00326382 -2.87998e-23)
(0.0106773 0.00336804 1.27276e-23)
(0.0127808 0.00401491 2.45761e-23)
(0.0113747 0.00377249 0)
(0.00526086 0.0011854 0)
(0.00910043 0.00291856 -1.67076e-23)
(0.0102407 0.00320807 -1.71783e-23)
(0.00977257 0.00312181 -1.10885e-23)
(0.241298 0.0795758 0)
(0.315492 0.106598 -2.843e-22)
(0.37406 0.129351 2.3049e-24)
(0.411757 0.14562 2.72036e-22)
(0.42497 0.153608 2.76924e-22)
(0.412812 0.152422 -2.96622e-22)
(0.37743 0.142279 -1.19894e-24)
(0.323426 0.124426 0)
(0.256747 0.100775 3.37876e-22)
(0.183361 0.0734389 -3.63417e-22)
(0.108265 0.0442615 8.39141e-25)
(0.0349826 0.0146908 0)
(0.155373 0.0499292 -6.85666e-23)
(0.0885385 0.0279756 -1.29678e-22)
(0.0888478 0.0280609 -9.75817e-25)
(0.0434616 0.0135314 0)
(0.0436511 0.0135948 -2.35085e-23)
(0.010288 0.00318515 -7.73322e-25)
(0.0102949 0.00318494 2.18142e-23)
(0.0103667 0.00321897 -2.09099e-23)
(0.0103252 0.00319886 0)
(0.239094 0.0788318 3.32733e-22)
(0.312743 0.105628 0)
(0.370904 0.128199 -2.92834e-22)
(0.40834 0.144329 -2.83556e-22)
(0.421462 0.15224 -2.585e-22)
(0.409397 0.151042 -2.2212e-24)
(0.37426 0.140957 1.19883e-24)
(0.320646 0.123229 -3.30227e-22)
(0.254446 0.0997607 -3.76861e-22)
(0.181595 0.0726515 4.32439e-25)
(0.107113 0.0437495 5.36312e-22)
(0.0345408 0.0145051 0)
(0.154047 0.0495159 6.06192e-23)
(0.0878215 0.0277746 1.13585e-22)
(0.0881176 0.0278627 0)
(0.0431425 0.0134434 -8.80699e-26)
(0.0432983 0.0134996 2.2837e-23)
(0.0102355 0.00316718 2.36729e-23)
(0.0102403 0.00316895 2.28921e-23)
(0.0102712 0.00317931 2.38737e-23)
(0.0102646 0.00317914 2.38396e-23)
(0.237052 0.0781381 2.1254e-24)
(0.310128 0.104703 0)
(0.367854 0.12708 9.27914e-25)
(0.405007 0.143062 2.63678e-22)
(0.418024 0.150882 0)
(0.406024 0.149663 2.12712e-24)
(0.371125 0.13963 5.88446e-22)
(0.317879 0.122021 3.31853e-22)
(0.252143 0.0987314 0)
(0.179815 0.0718477 -4.32769e-22)
(0.105931 0.0432183 0)
(0.0340777 0.0143125 0)
(0.152807 0.0491175 5.118e-23)
(0.0871554 0.0275646 0)
(0.0874149 0.027654 -1.8651e-22)
(0.0428184 0.0133578 -1.62593e-25)
(0.0429919 0.013413 2.50391e-25)
(0.0101797 0.00314774 3.92638e-26)
(0.0101901 0.00315235 2.001e-23)
(0.0102142 0.00316338 -4.4719e-26)
(0.0102152 0.00316276 -7.32394e-25)
(0.235115 0.0774805 -1.00185e-24)
(0.30762 0.103812 2.0512e-22)
(0.364901 0.125988 -1.00086e-25)
(0.401759 0.141811 -2.05753e-22)
(0.414648 0.149532 0)
(0.402704 0.148283 -2.73403e-22)
(0.368023 0.138294 0)
(0.315126 0.120799 -6.67107e-25)
(0.249831 0.0976817 0)
(0.178013 0.0710227 0)
(0.104722 0.0426704 6.61712e-22)
(0.0335917 0.0141129 0)
(0.151611 0.0487297 8.74503e-23)
(0.0864811 0.027349 -8.48099e-23)
(0.0867578 0.0274418 3.02553e-25)
(0.0424993 0.0132574 -2.76897e-25)
(0.0426566 0.0133152 7.98585e-23)
(0.0101074 0.00313031 1.71368e-23)
(0.01012 0.00313455 1.72362e-23)
(0.0101558 0.00314452 1.89227e-23)
(0.010153 0.00314444 0)
(0.233271 0.0768498 -6.08377e-23)
(0.305215 0.102951 1.79317e-22)
(0.362031 0.124914 2.19888e-22)
(0.398589 0.140575 1.83024e-22)
(0.41134 0.148187 4.11394e-25)
(0.399427 0.146898 4.7953e-25)
(0.364945 0.136945 0)
(0.312376 0.119556 0)
(0.247504 0.0966069 2.24771e-25)
(0.176177 0.0701714 -5.33127e-22)
(0.10347 0.0421024 7.43181e-22)
(0.033089 0.0139046 -4.37045e-25)
(0.150468 0.0483533 -1.77764e-22)
(0.0858487 0.0271494 -7.10343e-23)
(0.086106 0.0272362 -1.32931e-22)
(0.0421762 0.0131526 -1.13382e-23)
(0.0423414 0.0132125 0)
(0.0100306 0.00310569 1.41383e-23)
(0.0100413 0.00310963 -2.74101e-26)
(0.0100795 0.003123 1.58661e-23)
(0.0100751 0.00312087 1.54286e-23)
(0.231507 0.0762413 -5.9227e-23)
(0.302878 0.102106 1.46409e-22)
(0.359254 0.123862 -1.94844e-22)
(0.395493 0.139346 -3.73495e-25)
(0.408092 0.146841 -4.11388e-25)
(0.3962 0.145507 -4.79579e-25)
(0.361895 0.135582 0)
(0.309635 0.118292 0)
(0.245154 0.0955046 -2.24941e-25)
(0.174313 0.0692969 -1.21971e-21)
(0.102178 0.0415106 0)
(0.0325644 0.0136897 9.62167e-22)
(0.14938 0.0479902 -1.79142e-22)
(0.0852282 0.0269494 -5.71104e-23)
(0.0854843 0.0270361 -5.66959e-26)
(0.0418809 0.0130661 0)
(0.0420238 0.0131134 5.53271e-23)
(0.00996465 0.00308096 1.11934e-23)
(0.00997514 0.00308741 2.2624e-26)
(0.0100037 0.00309862 1.26894e-23)
(0.00999806 0.00309659 1.2015e-23)
(0.229796 0.0756476 -1.71722e-22)
(0.300628 0.101283 0)
(0.356553 0.12282 1.13278e-22)
(0.39247 0.138122 0)
(0.404905 0.145494 0)
(0.393016 0.144105 0)
(0.358867 0.134199 2.71597e-22)
(0.306892 0.117002 -3.7073e-22)
(0.24279 0.0943728 5.22728e-22)
(0.172397 0.0683866 -6.88567e-22)
(0.100847 0.0408998 -4.88124e-25)
(0.0320105 0.0134668 5.07115e-25)
(0.14832 0.0476415 1.65414e-23)
(0.0846468 0.0267563 -4.26755e-23)
(0.0848829 0.0268425 7.87379e-23)
(0.0415777 0.0129712 0)
(0.0417297 0.0130219 0)
(0.00989756 0.00306374 0)
(0.00990002 0.00306661 8.35307e-24)
(0.00992759 0.00307345 9.82889e-24)
(0.00992496 0.00307408 9.42252e-24)
(0.228154 0.0750743 -7.90156e-23)
(0.298448 0.100472 -1.2685e-22)
(0.353924 0.121782 1.69438e-25)
(0.389513 0.136898 2.21e-25)
(0.401777 0.144141 0)
(0.389876 0.14269 -2.57256e-22)
(0.355867 0.132793 6.11703e-22)
(0.304138 0.115675 0)
(0.240389 0.0932034 5.79279e-22)
(0.170435 0.0674438 0)
(0.0994528 0.0402646 1.04787e-24)
(0.0314399 0.0132419 2.68635e-24)
(0.147307 0.0473074 9.96578e-23)
(0.0840616 0.0265736 -2.67638e-23)
(0.0843008 0.0266543 -8.54337e-26)
(0.0413026 0.012879 0)
(0.0414467 0.0129328 -3.0707e-23)
(0.00982127 0.00304082 1.91095e-26)
(0.0098261 0.00304328 5.38198e-24)
(0.00986349 0.00305451 6.695e-24)
(0.00985096 0.00305153 6.48358e-24)
(0.226569 0.0745152 0)
(0.296343 0.099669 0)
(0.351369 0.120748 -1.44171e-25)
(0.38663 0.135676 6.58132e-23)
(0.398709 0.142782 0)
(0.386781 0.141255 -2.59491e-22)
(0.352876 0.131356 0)
(0.301372 0.114312 2.35342e-25)
(0.237939 0.0919916 0)
(0.168415 0.0664661 8.65677e-22)
(0.0979946 0.0396134 -5.60149e-25)
(0.0308591 0.0130047 1.46888e-21)
(0.146324 0.0469944 4.38341e-24)
(0.0835101 0.0263984 -1.07808e-23)
(0.0837345 0.0264762 0)
(0.0410234 0.0127965 -3.06552e-26)
(0.0411679 0.0128445 3.06131e-26)
(0.00975901 0.00301931 7.07795e-27)
(0.00976782 0.00302294 1.94585e-24)
(0.00979554 0.00303443 3.98431e-24)
(0.00979361 0.00303251 3.58989e-24)
(0.225051 0.0739658 -1.63068e-23)
(0.294311 0.098862 0)
(0.348883 0.119715 -7.07694e-23)
(0.383817 0.134454 0)
(0.395703 0.141409 0)
(0.383723 0.139795 1.67989e-22)
(0.349896 0.129882 1.72777e-25)
(0.298593 0.11291 -2.35447e-25)
(0.235452 0.0907376 -1.40117e-21)
(0.166314 0.0654459 -9.75814e-22)
(0.0964652 0.0389675 0)
(0.0304024 0.0126772 -1.70102e-21)
(0.145377 0.0467092 1.92754e-23)
(0.082947 0.0262435 -7.21056e-24)
(0.0831803 0.0263089 -2.04234e-27)
(0.0407558 0.0127136 0)
(0.0408918 0.0127599 0)
(0.0096894 0.00300022 -1.31292e-24)
(0.00970016 0.00300363 -1.16257e-24)
(0.00973204 0.00301386 0)
(0.0097305 0.00301285 3.66349e-25)
(0.223612 0.0733984 4.00462e-26)
(0.292334 0.0980545 0)
(0.346481 0.118696 -3.44736e-23)
(0.381079 0.133226 0)
(0.392759 0.140018 -1.65446e-22)
(0.380702 0.138303 1.08507e-25)
(0.34693 0.128369 -1.72832e-25)
(0.295786 0.111457 9.58603e-23)
(0.232895 0.0894336 8.1867e-22)
(0.16416 0.064405 0)
(0.0948242 0.0382459 0)
(0.030674 0.0123711 0)
(0.144601 0.0462821 -4.0646e-26)
(0.0824223 0.0261843 1.16593e-25)
(0.0826222 0.026187 -2.88396e-23)
(0.0404789 0.0126334 0)
(0.040618 0.0126774 0)
(0.00963004 0.00298048 -5.15102e-24)
(0.00963998 0.00298603 -4.29713e-24)
(0.00966633 0.00299445 0)
(0.00966174 0.00299247 -3.20862e-24)
(0.222193 0.0728295 -4.0008e-26)
(0.290437 0.0972691 3.85674e-23)
(0.344153 0.117675 0)
(0.378419 0.131987 0)
(0.389875 0.138602 3.75421e-23)
(0.377715 0.136774 -1.08474e-25)
(0.343962 0.126808 7.69828e-22)
(0.292934 0.109953 -2.85809e-25)
(0.23032 0.0880826 0)
(0.161684 0.0632875 0)
(0.0947446 0.0374221 0)
(0.0264424 0.00997924 0)
(0.143716 0.045958 0)
(0.0821716 0.0258011 0)
(0.0822073 0.0261917 4.19778e-23)
(0.0401106 0.0125964 0)
(0.0403166 0.0126115 2.68182e-23)
(0.00957186 0.00296005 0)
(0.00957592 0.00296444 -8.28211e-24)
(0.00959994 0.00297358 -6.14482e-24)
(0.00959668 0.0029716 1.2804e-26)
(0.220842 0.0722833 0)
(0.288616 0.0964952 0)
(0.341916 0.116654 0)
(0.375835 0.13073 -1.15534e-22)
(0.387047 0.137155 7.50055e-26)
(0.374761 0.135203 -3.03261e-22)
(0.340981 0.125195 0)
(0.290102 0.10839 0)