/*--------------------------------*- C++ -*----------------------------------*\
| =========                 |                                                 |
| \\      /  F ield         | OpenFOAM: The Open Source CFD Toolbox           |
|  \\    /   O peration     | Version:  v1912                                 |
|   \\  /    A nd           | Website:  www.openfoam.com                      |
|    \\/     M anipulation  |                                                 |
\*---------------------------------------------------------------------------*/
FoamFile
{
    version     2.0;
    format      ascii;
    class       surfaceScalarField;
    location    "350";
    object      phi;
}
// * * * * * * * * * * * * * * * * * * * * * * * * * * * * * * * * * * * * * //

dimensions      [0 3 -1 0 0 0 0];
oriented        oriented;


internalField   nonuniform List<scalar> 
7352
(
0.00711969
0.0028923
0.0107434
0.0063883
0.00176677
0.00112553
0.0123518
0.00840352
0.00424351
0.00391155
0.000165551
0.000959982
0.0129136
0.00945124
0.00623489
0.00641214
0.000978404
0.00309869
-0.000116439
0.00107643
0.0129921
0.00993549
0.00747469
0.00821143
0.00205498
0.00533558
-0.000143832
0.00312609
-5.3435e-05
0.00112987
0.0128762
0.0101319
0.00810253
0.00930766
0.002968
0.00729841
3.73874e-05
0.00515437
-0.000176941
0.0032496
-1.03889e-05
0.00114026
0.0126956
0.0101986
0.00834688
0.00988752
0.0035308
0.00874487
0.000279251
0.00705655
-0.000277219
0.00525466
-7.78229e-05
0.00331703
-1.9926e-05
0.00116018
0.0125027
0.010211
0.00839484
0.0101506
0.00376242
0.0096559
0.000396529
0.0086276
-0.000335431
0.00711476
-0.000187578
0.00536441
-8.15113e-05
0.00337861
-1.57359e-05
0.00117591
0.0123184
0.0102022
0.00836392
0.0102419
0.00375909
0.0101539
0.000290029
0.0097624
-0.00042854
0.00872072
-0.000311951
0.00723912
-0.000187254
0.00547015
-6.93019e-05
0.00343217
-5.6062e-06
0.00118151
0.0121512
0.0101852
0.00832345
0.0102427
0.00361815
0.0103828
-4.69597e-05
0.0104909
-0.000632139
0.00996599
-0.000463169
0.00887193
-0.000330863
0.00738272
-0.000166425
0.00556727
-4.23101e-05
0.00346887
-2.62818e-06
0.00118414
0.0120049
0.0101623
0.00831553
0.0101931
0.00340974
0.0104511
-0.000590918
0.0109268
-0.000979882
0.0108387
-0.000683171
0.010186
-0.000514269
0.00905534
-0.000309066
0.00752536
-0.000121799
0.00564675
-2.92064e-05
0.00349544
-2.18691e-06
0.00118632
0.0118863
0.0101316
0.00836863
0.0101092
0.00318217
0.0104207
-0.0013168
0.011177
-0.00146074
0.0114076
-0.000999385
0.0111549
-0.000753473
0.0104252
-0.000495853
0.00924212
-0.000249123
0.00765268
-9.4261e-05
0.0057118
-2.4402e-05
0.00351765
-1.46983e-06
0.00118778
0.0117954
0.0100989
0.00851185
0.00998837
0.00297433
0.0103171
-0.00221659
0.0113204
-0.00205615
0.0117724
-0.00141415
0.0118224
-0.00106496
0.0114664
-0.000734157
0.0106635
-0.000425927
0.00941892
-0.000206501
0.00776492
-7.99055e-05
0.0057673
-2.04498e-05
0.00353662
-1.75023e-06
0.00118953
0.0117346
0.0100618
0.00877591
0.00983484
0.00281895
0.0101437
-0.00329675
0.0113973
-0.00274261
0.0120069
-0.00190556
0.0122638
-0.00144673
0.0122041
-0.0010285
0.0117607
-0.000654431
0.010892
-0.000370705
0.00958312
-0.000180452
0.00786546
-7.00755e-05
0.00581692
-1.95946e-05
0.00355446
-1.92794e-06
0.00119146
0.0116982
0.0100284
0.00919182
0.00964588
0.00276636
0.00988746
-0.00455981
0.0114068
-0.0034853
0.01214
-0.00244274
0.0125441
-0.00187574
0.0126928
-0.00137055
0.0125462
-0.000932278
0.0120386
-0.000584897
0.0111062
-0.000330491
0.00973315
-0.000160202
0.00795558
-6.56812e-05
0.00586301
-1.9127e-05
0.00357166
-1.66443e-06
0.00119312
0.01167
0.0100061
0.00978604
0.0094342
0.0029101
0.00950213
-0.0059636
0.0112913
-0.00421248
0.0121339
-0.00296724
0.0126644
-0.00229989
0.0129682
-0.00172904
0.0130513
-0.00124402
0.0128579
-0.000843986
0.0122977
-0.000529615
0.0113053
-0.000297123
0.00987007
-0.000149818
0.00803972
-6.20678e-05
0.00590594
-1.73624e-05
0.00358736
-2.09084e-06
0.00119521
0.0116185
0.00999353
0.0105681
0.009224
0.00347271
0.0088716
-0.00734252
0.010881
-0.0047611
0.0118399
-0.0033576
0.0125243
-0.00263314
0.0129977
-0.00204609
0.0132853
-0.00155479
0.0133621
-0.00112807
0.013142
-0.000765652
0.0125337
-0.000478459
0.0114866
-0.000277488
0.00999774
-0.000141147
0.00811879
-5.82087e-05
0.00594679
-1.78074e-05
0.00360307
-2.92136e-06
0.00119813
0.0115943
0.00988817
0.0114386
0.00912315
0.00490725
0.00778947
-0.00823155
0.00976063
-0.00479335
0.0109133
-0.00340212
0.0118844
-0.0027339
0.0126251
-0.00222692
0.0131785
-0.00180233
0.0135328
-0.00139785
0.0136319
-0.00101844
0.0133948
-0.000693585
0.0127488
-0.000446249
0.0116554
-0.000261075
0.0101177
-0.00013108
0.00819166
-5.5815e-05
0.00598479
-1.9348e-05
0.0036195
-3.75438e-06
0.00120188
0.0115554
0.00985391
0.0123159
0.00456754
0.00444324
0.0048205
0.00330311
0.00304524
0.00286155
-0.0041722
0.00392982
-0.00338662
0.0031869
-0.00222578
0.00881051
-0.00161746
-0.00283549
0.0103466
-0.00242505
0.0115755
-0.00215905
0.0125572
-0.00190103
0.0132772
-0.00159125
0.0137262
-0.00124737
0.0138608
-0.000914377
0.0136156
-0.000643268
0.0129458
-0.000417812
0.0118121
-0.000240538
0.0102271
-0.00012431
0.00826016
-5.70331e-05
0.00602248
-2.12627e-05
0.003637
-4.21752e-06
0.0012061
0.0113964
0.010019
0.0131822
0.00445299
0.00453466
0.00553539
0.00385265
0.00619361
0.00378504
-0.00344674
0.00257765
-0.000507515
-0.00155757
0.000766175
0.000897401
0.00396431
0.00145706
0.00129283
-0.00185905
0.00356309
-0.00237471
0.000910813
0.000654923
-0.000540384
0.00227023
-0.000402
-0.000940617
0.00751543
-0.000599796
-0.00103751
0.00298314
-0.00161458
0.00953616
-0.00177285
0.0111893
-0.00177031
0.0124265
-0.00163488
0.0133208
-0.00139479
0.0138736
-0.0011023
0.0140487
-0.000842381
0.0138147
-0.000597866
0.0131259
-0.000383745
0.0119553
-0.000226028
0.0103288
-0.000122239
0.00832536
-5.90422e-05
0.00606026
-2.24798e-05
0.00365526
-4.41729e-06
0.00121051
0.0110962
0.0102572
0.0136104
0.00466213
0.00492867
0.00686803
0.00377856
0.00743854
0.00396416
0.00541637
0.00115948
0.00117348
0.000945107
4.44026e-06
-0.0013236
0.000711134
0.00147731
-0.000711134
0.000540639
0.000756631
-0.000388944
0.000759372
0.000265979
-0.000180091
0.0016584
-0.000245589
-0.000141187
0.000498559
0.0025053
-0.000462781
-0.000288794
0.00641731
-0.000227673
0.00214778
-0.000242285
-0.00115517
0.00891848
-0.00139861
0.0108176
-0.00147947
0.0122711
-0.0014092
0.0133352
-0.00120885
0.0139802
-0.00100536
0.0142117
-0.00077693
0.0139937
-0.000546744
0.0132889
-0.000357598
0.0120869
-0.000217777
0.0104244
-0.00012234
0.00838866
-5.98788e-05
0.00609765
-2.27699e-05
0.00367361
-4.73328e-06
0.00121525
0.0106883
0.0104499
0.0136115
0.00504768
0.00520845
0.0079772
0.00412345
0.00821231
0.00469357
0.00673333
0.00121591
0.0012457
0.00809464
0.00131784
0.00128499
-0.00115699
0.00175533
0.000561141
0.000557127
-0.000566968
0.000124793
-0.000377761
0.00019767
0.00126572
-5.38862e-05
-1.62249e-05
-0.000124793
0.00194336
-8.43747e-05
-0.000273886
0.00584029
-0.000304266
0.00178862
-2.75596e-05
-4.53671e-05
0.0010437
-8.60725e-06
-1.16565e-05
-0.000894489
0.00841436
-0.00112564
0.0104638
-0.00126214
0.012124
-0.00119098
0.0133174
-0.00108693
0.0140617
-0.000918914
0.0143537
-0.000705069
0.0141521
-0.000504924
0.0134362
-0.000339401
0.0122085
-0.000213534
0.0105156
-0.000121613
0.00845039
-5.95771e-05
0.00613446
-2.32321e-05
0.00369211
-4.96657e-06
0.00122021
0.010251
0.0105053
0.0132608
0.0108006
0.0084938
0.00476618
0.00878023
0.00492203
0.00921802
0.00139198
0.0016081
0.00961444
0.00231234
0.00198481
0.00237382
0.000597423
0.00298788
0.00063164
-0.00360626
0.00422732
0.000696779
0.00066661
9.8404e-06
0.000551304
0.000143783
0.000127559
0.000557093
-3.59425e-06
-8.46042e-07
0.000406672
0.00165494
-5.56065e-05
-8.46043e-05
-0.000279931
0.00537501
-0.000149272
0.00157115
-0.000112707
-0.000107772
0.000588924
-5.93913e-05
0.000564101
-2.0544e-05
-0.000115902
0.000107295
-0.000645695
0.00793441
-0.000985762
0.0101874
-0.001046
0.011979
-0.00105633
0.0132868
-0.000984581
0.0141274
-0.000824302
0.0144729
-0.000645912
0.014293
-0.000474222
0.013571
-0.000327661
0.0123226
-0.000208417
0.0106024
-0.000119552
0.00851036
-5.96414e-05
0.00617087
-2.33767e-05
0.00371052
-5.407e-06
0.00122562
0.00980362
0.0105073
0.0127979
0.0109682
-0.0105501
0.0190991
0.005345
0.00568678
0.00989534
0.00233175
0.00215354
0.00426727
0.00486594
0.000753361
0.00546728
0.00100677
-0.005796
0.00589273
0.00221562
0.00165608
0.00114873
0.00178037
-0.00244698
0.00314376
0.0001037
0.000102854
0.00034885
-1.57043e-06
0.000533697
-2.52029e-05
0.000492654
-4.35617e-05
0.00146223
-0.000114161
-5.68486e-05
-8.80861e-05
0.00489036
-7.2962e-05
0.00135837
-3.10106e-05
-1.44011e-05
0.00045806
-7.81127e-05
0.00042937
-7.90827e-05
0.000332046
-3.73998e-06
-0.000637756
0.0075864
-0.000817898
0.0099593
-0.000906145
0.0118288
-0.000945498
0.0132477
-0.000874589
0.0141777
-0.000750418
0.0145774
-0.000599814
0.0144186
-0.000453019
0.0136964
-0.000316896
0.0124311
-0.000202169
0.010685
-0.000116516
0.00856724
-5.91634e-05
0.00620666
-2.45427e-05
0.00372965
-5.40363e-06
0.00123102
0.00934208
0.0105046
0.0122334
0.0110719
0.0181789
0.0118884
0.0157832
-0.0156436
0.00274965
0.0024557
0.0153997
0.00607029
0.00617749
0.00204698
0.00654991
0.00178112
-0.00758838
0.00170871
0.00105327
0.00389712
0.00490389
-0.00655997
0.00627124
0.00250434
0.000101284
0.000311314
-4.47169e-06
0.000278421
-1.06687e-05
0.000387272
-7.20628e-05
0.000357375
-2.69514e-05
0.00128591
-1.01199e-05
-5.51183e-06
-8.89074e-05
0.00451348
-0.000171972
0.00122368
-4.65118e-06
-6.07964e-06
0.000335294
-8.92984e-06
0.00032392
-3.02744e-06
0.00022836
-2.80518e-05
0.000203629
-5.43517e-05
9.7544e-05
-0.00059031
0.00735881
-0.000664475
0.00971763
-0.000797628
0.011681
-0.000833535
0.0132066
-0.000792742
0.01422
-0.000690643
0.0146683
-0.000567236
0.0145329
-0.00043176
0.0138113
-0.000303341
0.0125323
-0.000195901
0.0107644
-0.000114818
0.00862289
-6.00819e-05
0.00624219
-2.4704e-05
0.00374895
-5.23875e-06
0.00123626
0.00886854
0.0105045
0.011612
0.011126
0.0167444
0.0125064
-0.0142769
0.0300149
0.00525757
0.00629257
-0.00733812
0.00782634
0.00226143
-0.00777729
0.00289486
-0.0051563
0.00219455
0.0025815
0.00671967
0.00159855
0.000912418
-0.00606858
-0.00501531
0.00250434
9.30723e-05
8.24036e-05
0.000131566
0.000104615
0.000315441
-1.64099e-06
0.000311176
-1.2471e-06
0.00115181
-6.26931e-06
-1.07685e-05
-0.000210387
0.00431998
-0.000186426
0.00103404
-1.54125e-05
-3.87869e-05
0.00030764
-1.11533e-06
0.000302314
-7.53394e-07
9.56848e-05
9.26574e-05
5.43517e-05
-0.000378085
0.00707242
-0.000560999
0.009481
-0.000702396
0.0115498
-0.000762589
0.0131765
-0.000723171
0.0142525
-0.000645239
0.0147463
-0.000536762
0.0146379
-0.000412661
0.0139206
-0.000291252
0.0126276
-0.000190178
0.0108397
-0.000114358
0.00867716
-6.02183e-05
0.00627771
-2.48419e-05
0.00376855
-5.32466e-06
0.00124158
0.00838904
0.0105035
0.010949
0.0111676
0.0151241
0.0127464
0.0281587
0.0143625
0.00701125
-0.00301217
-0.00140988
0.00154244
0.00112592
0.00849761
0.0048062
-0.00289486
-0.0025815
0.00176388
0.00410289
9.10164e-05
8.97692e-05
0.000297157
-1.11314e-06
0.000288376
-1.98788e-06
0.000962454
-6.76285e-05
-7.11768e-05
-7.39136e-05
0.00403653
-2.07248e-05
0.000866224
-6.71981e-05
-2.29982e-05
0.000276521
-3.55734e-06
0.000247007
-9.27319e-06
8.86539e-05
8.79005e-05
-0.000255197
0.00676661
-0.000498887
0.00927748
-0.000668315
0.0114555
-0.000688417
0.0131417
-0.000667277
0.0142746
-0.000607923
0.0148174
-0.000509309
0.0147345
-0.000391666
0.014021
-0.000278934
0.0127164
-0.000185753
0.0109111
-0.000112871
0.00872982
-5.91185e-05
0.00631198
-2.358e-05
0.00378681
-5.08807e-06
0.00124667
0.00790817
0.0105009
0.0102536
0.0111989
0.0135724
0.0127192
0.0252503
0.0156548
-0.00435065
0.0169246
0.0102862
0.000354007
-0.000781582
0.00123727
0.00108675
-0.000229493
0.000573833
-0.000895224
0.00258804
8.67873e-05
8.47994e-05
0.00020373
-2.43515e-05
0.00018017
-4.76174e-05
0.000800204
-6.83966e-06
-1.05576e-06
-1.3881e-05
0.00213168
-3.91721e-06
0.00166745
0.000779856
-3.04632e-07
-7.25688e-08
0.000112972
8.99738e-05
8.12421e-05
7.19689e-05
-9.77856e-05
0.00653284
-0.000167326
-0.000541507
0.00915067
-0.000602017
0.0113691
-0.000622744
0.0130972
-0.000622688
0.0142893
-0.00057365
0.0148818
-0.000481688
0.0148245
-0.000371722
0.0141138
-0.000269504
0.0128001
-0.000182106
0.0109804
-0.000110385
0.00878108
-5.73845e-05
0.00634579
-2.29327e-05
0.00380465
-5.47401e-06
0.00125214
0.00743355
0.0104936
0.00953164
0.0112228
0.0121823
0.012589
0.0220602
0.0159093
0.0183668
0.0142126
-0.00143837
0.00678603
0.00593769
-0.000999134
0.000124513
-0.000393025
0.000584554
-0.000109926
0.000290734
0.0015803
-0.000430625
4.76174e-05
8.31341e-05
8.20783e-05
0.000766586
-5.62998e-07
-4.82297e-08
-0.000188629
0.00222252
0.000442567
0.000319478
1.20279e-07
5.02907e-07
-3.2672e-06
0.00149283
-1.074e-05
8.17737e-05
8.17011e-05
-0.000183643
0.00640793
-0.000232959
-0.000114611
0.0021698
-0.000488762
0.00903742
-0.000514914
0.0112613
-0.000570232
0.0130447
-0.000589134
0.0143048
-0.000543122
0.0149432
-0.000452382
0.0149052
-0.000355869
0.0142001
-0.000262276
0.0128803
-0.000175193
0.0110452
-0.000106276
0.00882997
-5.55223e-05
0.00637838
-2.20156e-05
0.00382119
-4.91271e-06
0.00125705
0.0069662
0.0104843
0.00878881
0.0112365
0.0109525
0.0124527
0.0189859
0.0156632
0.0180191
0.0162569
0.00995526
0.0110434
0.00208768
0.00384192
2.96604e-05
-2.15596e-05
0.000929997
-0.000348829
1.45876e-05
0.000430231
-5.2108e-06
1.96418e-05
8.11381e-05
8.10898e-05
-3.57947e-05
0.000475095
0.000283204
4.78843e-07
8.12101e-05
8.1713e-05
-2.41639e-05
0.0014181
-1.57184e-05
-6.59775e-06
0.000470952
0.00211595
-0.000129792
-0.000209643
0.0063022
-0.000173387
0.00207456
-0.000191565
-0.000361045
0.00888355
-0.000451074
0.0111422
-0.00054438
0.013
-0.00056368
0.0143254
-0.000507304
0.0149981
-0.00043053
0.0149798
-0.000341563
0.0142794
-0.000252474
0.0129576
-0.000170611
0.0111095
-0.000103513
0.00887796
-5.3456e-05
0.00640982
-2.18387e-05
0.00383812
-5.07367e-06
0.00126213
0.00650616
0.0104761
0.00803728
0.0112359
0.00984113
0.0123478
0.0162313
0.0152073
0.0167181
0.0169643
0.0115241
0.0146881
0.00479258
0.00833847
0.000655056
1.59052e-05
0.00317096
-0.000775612
0.000685878
0.000119395
0.000132827
0.000160787
-5.38827e-05
-2.55017e-05
9.37682e-06
2.90187e-05
0.000277918
-1.31241e-06
8.21918e-05
-0.000462443
0.000448322
-1.00429e-05
0.00134742
-1.99497e-05
-3.91592e-05
-7.2096e-06
0.00204438
-0.000179463
-0.000116861
0.00611948
-6.14688e-05
0.00199956
-0.000128568
0.00129915
-9.03028e-05
-5.29892e-05
-0.00027776
0.00871023
-0.000440886
0.0110387
-0.000540413
0.0129767
-0.000524724
0.0143428
-0.000476769
0.0150444
-0.000407199
0.0150455
-0.000326135
0.0143531
-0.000242649
0.0130296
-0.000166893
0.0111729
-9.94519e-05
0.00892396
-5.18121e-05
0.00643979
-2.16011e-05
0.00385465
-5.60031e-06
0.00126773
0.00605439
0.0104668
0.00728633
0.011227
0.00880497
0.012272
0.0138423
0.0147369
0.0150139
0.0169115
0.0118041
0.0166844
0.00689249
0.0125882
0.00227402
0.00671951
-0.000316629
0.000958328
3.19391e-05
2.81494e-05
0.000364144
-4.94802e-05
0.0028563
-0.000224951
2.77553e-06
2.49427e-05
2.42468e-05
4.44172e-05
-9.41178e-06
-2.34474e-05
-2.10233e-05
-5.89462e-06
0.000272305
-1.59671e-06
8.08794e-05
0.000438193
-9.82086e-06
0.000264297
-2.03423e-06
0.000416038
-1.7005e-05
0.00127727
-7.88276e-05
-7.87601e-05
0.00194588
-6.31817e-05
-4.85549e-05
0.00592953
-3.92529e-05
0.00191379
-2.9386e-05
0.00121296
-1.88708e-05
-4.53844e-05
-0.000394615
0.00036387
-5.9558e-05
-3.15659e-05
-0.000285917
0.00855526
-0.000474262
0.0109725
-0.000506567
0.0129585
-0.000488055
0.0143541
-0.00044528
0.0150824
-0.000387053
0.0151064
-0.00031362
0.0144241
-0.000233563
0.0130963
-0.000158142
0.0112316
-9.58765e-05
0.00896802
-5.06416e-05
0.00646883
-2.16947e-05
0.00387074
-5.17262e-06
0.0012729
0.00560767
0.0104607
0.00654084
0.0112122
0.00781158
0.0122204
0.0117777
0.0143366
0.0132247
0.0165261
0.0112826
0.017433
0.00798814
0.0155887
0.00406785
0.0107943
0.00125158
0.00583208
0.000909939
-1.62971e-05
1.5207e-05
-7.23858e-05
9.81434e-05
3.89368e-06
2.28891e-06
-3.85745e-05
3.305e-06
2.60166e-06
-1.15676e-05
0.000299845
-6.98406e-05
0.0026263
-3.93724e-05
3.57376e-06
-2.39481e-05
9.51882e-06
-1.02248e-05
1.10244e-05
1.02446e-05
5.89462e-06
-2.69179e-05
7.92827e-05
0.000256068
-1.59221e-06
7.72485e-05
0.000242257
-3.19407e-06
0.000346138
-6.10964e-05
0.00032251
-5.5132e-05
0.0011633
-1.0568e-05
-2.95706e-06
0.00188362
-1.83817e-05
-3.989e-05
0.00574687
-6.3368e-05
0.00185913
-1.47625e-05
0.00113734
-6.06281e-07
-2.81932e-06
-0.000297401
0.000285016
-6.48578e-06
-2.02754e-05
-0.000219171
0.000180825
-2.1213e-05
-8.47985e-06
-0.000373764
0.00845476
-0.000465585
0.0109315
-0.000462439
0.0129329
-0.000442574
0.0143514
-0.000413328
0.0151087
-0.000368864
0.0151616
-0.000302195
0.0144927
-0.000225872
0.013164
-0.000152347
0.011288
-9.31411e-05
0.00901052
-5.07971e-05
0.00649793
-2.10681e-05
0.00388663
-3.90907e-06
0.00127681
0.00516701
0.0104537
0.00580883
0.0111927
0.00684444
0.0121794
0.00996624
0.0140319
0.0114971
0.0160641
0.0103593
0.0174495
0.00821701
0.0172041
0.00538321
0.0142734
0.00253413
0.00951177
0.000857382
0.00527454
0.000858868
-2.28711e-05
4.10359e-06
-0.000107878
0.000105116
-8.40096e-06
-5.13323e-06
3.67828e-07
5.10431e-06
-4.0722e-06
8.45205e-06
-4.85862e-07
-1.78325e-06
1.52177e-06
4.12343e-06
-5.3909e-06
-2.60272e-06
0.000270997
-8.03754e-05
0.00243568
5.64893e-06
-1.52073e-06
-1.58935e-05
7.56562e-05
7.24622e-05
0.000162498
-4.27693e-05
0.000107366
0.000276479
-2.03149e-06
0.000274035
-5.13322e-07
0.00112058
-1.25167e-06
-3.72418e-07
0.00183569
-1.64514e-05
-8.28761e-05
0.00560497
-0.00014899
0.00179754
-2.52158e-05
0.00110727
-7.17132e-07
-7.33171e-07
-0.000271493
0.000271069
-1.83316e-07
-2.76573e-07
-8.70908e-05
8.0605e-05
-6.39823e-05
4.27693e-05
-0.000420569
0.00840974
-0.00040953
0.0108786
-0.000396851
0.0128872
-0.000402819
0.0143409
-0.000396713
0.0151366
-0.000358617
0.0152181
-0.000294865
0.0145617
-0.000216467
0.0132282
-0.00014719
0.0113421
-9.37583e-05
0.00905348
-4.92624e-05
0.00652613
-2.03724e-05
0.0039031
-5.03086e-06
0.00128184
0.0047309
0.0104471
0.00508763
0.0111749
0.0058923
0.0121449
0.00834007
0.0138056
0.00987846
0.0156506
0.00928686
0.0171365
0.0078896
0.0177769
0.00601485
0.0165724
0.00372505
0.0130824
0.00175683
0.00861233
0.00068421
0.00486133
0.000806986
-2.60879e-05
-2.40467e-06
-0.000103877
0.000104569
-2.35629e-05
6.49052e-08
5.27799e-06
-1.07808e-05
8.28535e-06
-5.90546e-06
-1.30711e-05
-2.84273e-06
-1.22288e-05
-4.74373e-07
1.32763e-06
-4.85859e-07
1.52073e-06
0.00027355
-0.000108555
0.00227069
7.85735e-05
7.80602e-05
0.000269994
-1.76805e-07
0.000269607
1.5388e-08
0.00109231
-4.05077e-07
-1.08636e-06
0.00175824
-4.3578e-05
-0.00019524
0.00556775
-0.000188112
0.00169651
-8.72614e-05
0.00106983
-2.2464e-06
-4.93987e-07
-0.000268921
0.000268354
-1.50502e-07
-4.79528e-08
-7.77836e-05
7.76003e-05
-0.000335712
0.00833592
-0.00031285
0.0107946
-0.000343865
0.0128283
-0.000380823
0.014325
-0.000387794
0.0151657
-0.000348517
0.0152717
-0.00028131
0.0146265
-0.000210011
0.013291
-0.000142954
0.0113913
-8.9229e-05
0.00909345
-4.87111e-05
0.00655446
-2.11238e-05
0.00391919
-4.67958e-06
0.00128652
0.00429724
0.0104417
0.00437955
0.0111552
0.00495228
0.0121149
0.00684503
0.0136399
0.00835976
0.0153243
0.00818432
0.0167531
0.00727268
0.0177534
0.00607474
0.017717
0.00448964
0.0158078
0.00273849
0.0121008
0.00135315
0.00794339
0.000609672
0.00452521
0.000749603
-3.61644e-05
-1.50048e-05
-0.000100271
9.54843e-05
-2.13006e-05
1.89333e-06
-8.49575e-06
-1.05747e-05
-3.15269e-06
4.4048e-07
-1.77986e-06
-8.94878e-06
5.181e-07
4.61434e-06
2.47532e-06
-8.3808e-06
-3.674e-07
-8.41768e-07
0.00029506
-0.000144273
0.00211991
7.74235e-05
7.74388e-05
0.000268074
-1.25155e-07
0.000267045
-5.73193e-08
0.00103234
-1.06345e-06
-5.02202e-06
0.00166144
-0.000160167
-0.00015516
0.00545971
-7.25115e-05
0.00163774
-0.000164415
0.000966934
-1.6829e-05
-5.02764e-06
-0.00026662
0.000264701
-3.27525e-07
-6.8809e-08
-7.73909e-05
7.72404e-05
-0.000196095
0.00821917
-0.000244281
0.010695
-0.000322612
0.01277
-0.00037955
0.0143167
-0.000384653
0.0152019
-0.000339309
0.0153297
-0.000267769
0.0146843
-0.000200265
0.0133483
-0.000138926
0.011441
-8.71396e-05
0.00913187
-4.75197e-05
0.00658086
-2.0104e-05
0.00393461
-4.54885e-06
0.00129106
0.00387045
0.0104338
0.00368647
0.0111347
0.00402019
0.0120873
0.00543566
0.0135242
0.0069176
0.0150821
0.00710011
0.0164085
0.00654198
0.0174838
0.00577128
0.0180569
0.00476569
0.017441
0.00349248
0.0150539
0.00215434
0.0112996
0.00114359
0.00740947
0.000586069
0.0042342
0.000694113
-6.3304e-05
-2.54764e-05
-8.86019e-05
7.97625e-05
-2.73239e-05
-8.12134e-06
5.95476e-06
-1.51741e-05
-6.62338e-06
-5.45772e-06
-2.10538e-06
-6.2121e-07
4.58782e-06
-7.7405e-06
2.14971e-06
-1.19107e-06
2.80796e-06
-1.61688e-06
0.000325202
-0.000180604
0.00197532
7.71152e-05
7.70579e-05
0.000263938
-3.00831e-07
0.000259479
-5.62696e-07
0.00089929
-2.84671e-05
-6.4057e-05
0.00157858
-9.60055e-05
-4.49869e-05
0.00532593
-1.73253e-05
0.00154163
-3.55631e-05
0.000853031
-5.5889e-05
-6.22678e-05
-0.000255455
0.00024171
-3.0842e-06
-1.00421e-06
-7.69891e-05
7.66615e-05
-0.000128947
0.00810383
-0.000223508
0.0105959
-0.00033251
0.012723
-0.000394816
0.0143269
-0.0003812
0.0152438
-0.000319224
0.0153812
-0.000258831
0.0147428
-0.000192155
0.0134015
-0.000134057
0.0114879
-8.44219e-05
0.00916878
-4.35728e-05
0.00660433
-1.95328e-05
0.00394959
-4.41206e-06
0.00129548
0.00344831
0.0104271
0.00300465
0.0111156
0.00309158
0.0120633
0.00407638
0.0134466
0.00553258
0.0149093
0.00603768
0.0161445
0.00577883
0.0171716
0.00528753
0.0179676
0.00467109
0.0181515
0.00387294
0.0170605
0.00285277
0.0143554
0.00180841
0.0106348
0.00103645
0.00695909
0.000588339
0.00397107
-0.000118922
0.000632434
-6.78771e-05
4.02249e-05
-3.56511e-05
-1.35905e-05
1.95465e-05
-2.84728e-05
-9.62628e-06
-8.77032e-06
-7.0656e-07
-3.04164e-06
1.06065e-05
-1.48471e-05
-2.38267e-06
7.62205e-06
-2.47328e-06
-9.84588e-06
-2.84504e-06
1.61688e-06
0.00034581
-0.000196052
0.00182556
7.63607e-05
7.5798e-05
0.000221772
-8.52896e-06
0.000179016
-2.13017e-05
0.000781326
-1.96572e-05
-4.64315e-06
0.00151067
-1.40244e-05
-1.8137e-05
0.00522636
-1.12429e-05
0.0014993
-5.95341e-06
0.000747442
-8.87733e-08
-1.59081e-06
-0.000158627
0.000102738
-4.18788e-05
-7.47938e-05
7.17095e-05
-0.000109456
0.00798978
-0.000250217
0.0105136
-0.000372348
0.0127005
-0.000403099
0.0143488
-0.000357806
0.0152823
-0.000304571
0.0154269
-0.000240213
0.0147909
-0.000182066
0.0134495
-0.00012983
0.0115333
-8.11707e-05
0.00920637
-4.57039e-05
0.0066305
-1.88622e-05
0.00396404
-4.2778e-06
0.00129975
0.00303414
0.0104172
0.0023395
0.0110923
0.00216972
0.0120375
0.00273858
0.0134011
0.00417948
0.0147997
0.00499037
0.0159566
0.00501287
0.0169105
0.00473083
0.0177283
0.00435607
0.0182826
0.0039062
0.0181182
0.00327508
0.0166382
0.00243961
0.0137242
0.00160685
0.0100644
0.000986649
0.00656078
0.000595801
0.00372108
3.66517e-05
-7.6528e-05
-2.58598e-05
-1.29583e-05
-0.000112512
0.000548898
3.14917e-05
-3.04904e-05
-4.3667e-06
-6.20476e-06
1.93221e-05
-2.24247e-05
-6.52328e-06
1.66711e-05
-6.1191e-06
-1.58054e-05
2.51949e-07
-2.17561e-06
5.31832e-06
-7.70098e-06
2.84504e-06
0.000371412
-0.000221476
0.00167563
6.31805e-05
4.18788e-05
8.30807e-05
7.84375e-05
0.000733705
-3.5685e-07
6.96737e-08
0.0014858
-4.63536e-06
-1.11634e-05
0.00513351
-5.4423e-06
0.0014795
-4.94829e-06
0.000727846
4.57631e-08
-1.40452e-07
-7.68467e-05
7.67579e-05
-0.000136576
0.00787614
-0.000315093
0.0104564
-0.000406241
0.0127037
-0.000375537
0.0143665
-0.000328464
0.0153062
-0.000277598
0.0154643
-0.000229621
0.0148385
-0.000177932
0.0134976
-0.000127184
0.0115793
-8.23474e-05
0.00924302
-4.53616e-05
0.006657
-1.82043e-05
0.00397797
-4.32767e-06
0.00130408
0.00262928
0.0104055
0.00169106
0.0110656
0.00125177
0.0120102
0.00138605
0.01339
0.0028426
0.014738
0.00395435
0.0158357
0.00424903
0.0167204
0.00415313
0.0174882
0.0039376
0.0181468
0.00370346
0.0184854
0.00338833
0.018005
0.00287156
0.0162063
0.00217644
0.0131546
0.00149007
0.00956096
0.000960046
0.00619654
0.000609939
0.00348256
-0.000129245
-3.6222e-05
-2.35708e-05
7.39994e-05
-8.47199e-05
-6.70284e-06
-8.43575e-06
7.23173e-05
-5.25095e-06
-6.02459e-06
-0.000133457
0.000460879
2.40333e-05
-3.6039e-06
-1.61822e-06
2.3016e-05
-2.33754e-05
-3.41592e-06
-5.54684e-06
1.57437e-05
-1.70893e-05
-5.17745e-06
9.62462e-06
-7.44901e-06
0.000388608
-0.000235507
0.00152253
7.64011e-05
7.64708e-05
0.000723346
-1.09513e-07
-2.55934e-08
0.00147118
-2.84049e-06
-7.56269e-06
0.00502535
-2.08554e-05
0.00146457
4.06239e-06
-2.89463e-06
0.000718726
-1.44864e-07
-1.83988e-07
-7.63303e-05
7.63761e-05
-0.000227021
0.00778807
-0.000399347
0.0104495
-0.000376113
0.0127043
-0.000335949
0.014374
-0.000297977
0.0153266
-0.000261439
0.0154961
-0.000220286
0.0148808
-0.000174272
0.0135447
-0.000125161
0.0116221
-7.91018e-05
0.00927676
-4.23883e-05
0.00668118
-1.8075e-05
0.00399171
-4.40558e-06
0.00130848
0.00223512
0.0103925
0.00106552
0.011031
0.000338798
0.0119786
-1.1174e-05
0.0134075
0.00150551
0.0147271
0.00292152
0.0157708
0.00348569
0.0165991
0.00356807
0.0173055
0.00348218
0.0179436
0.00337559
0.0184746
0.00326233
0.0186114
0.0030388
0.0178377
0.00260446
0.0157782
0.0020114
0.0126333
0.00142002
0.00910099
0.000950788
0.00585569
0.000622139
0.00324903
-0.000186433
-4.39734e-05
-3.22947e-05
9.88213e-05
-0.000109394
-1.30981e-05
-1.25502e-05
-6.40862e-06
-3.06004e-06
2.44912e-05
-2.87918e-05
-2.40203e-06
1.95903e-05
-3.53476e-06
1.946e-05
-5.12045e-06
1.34355e-05
-0.000140453
0.000365826
9.83159e-06
8.21337e-06
1.87558e-05
-1.2865e-06
-1.74942e-06
-5.17744e-06
0.000407867
-0.000255936
0.0013706
7.62665e-05
7.62409e-05
0.000418357
6.05439e-08
1.44178e-07
0.000297324
0.0014587
-1.1722e-06
-5.19444e-07
-2.31869e-05
0.00488783
-6.63111e-05
0.00144062
-2.14082e-07
-2.568e-06
0.000451126
-2.87066e-05
0.000453051
-4.82018e-06
-7.60569e-05
7.59121e-05
-0.000366988
0.00775571
-0.000367422
0.0104408
-0.000318088
0.0126864
-0.000286513
0.0143625
-0.00026734
0.0153325
-0.000245129
0.0155209
-0.000213873
0.0149204
-0.000172735
0.0135923
-0.000123074
0.0116661
-7.65655e-05
0.00931093
-4.17553e-05
0.00670486
-1.79956e-05
0.0040053
-4.25784e-06
0.00131274
0.00185667
0.0103753
0.000472956
0.0109851
-0.00056695
0.0119367
-0.00148621
0.0134536
0.000148109
0.0147649
0.00189236
0.0157563
0.00272244
0.0165341
0.00297971
0.0171874
0.00301526
0.0177724
0.00299455
0.0183247
0.00299532
0.0187416
0.00297216
0.018678
0.00280503
0.0176372
0.00242983
0.0153598
0.0019054
0.0121479
0.00137812
0.00867366
0.000947042
0.00553079
0.00063458
0.00302232
-0.000246787
-4.35963e-05
-3.65034e-05
0.000121554
-0.000138413
-2.71144e-05
-9.50679e-06
-1.06281e-05
3.83796e-05
-4.21171e-05
-9.36038e-06
3.47456e-05
-8.91589e-06
3.14722e-05
-3.13497e-06
-3.79317e-07
8.6552e-06
-1.10572e-05
5.12045e-06
-0.000158842
0.000268734
6.92687e-06
0.000420998
-0.000269126
0.00121873
7.59726e-05
7.61168e-05
0.000267459
1.1585e-06
0.000452393
-5.14384e-07
0.000451965
-9.14417e-08
0.0014232
-7.9662e-07
-4.96736e-06
-0.000107903
0.00482267
-0.000193927
0.00137555
-4.74354e-06
-1.39191e-05
0.000451797
-4.568e-08
0.000449577
-3.48313e-07
0.000264146
-1.50765e-06
-0.000351698
0.00773998
-0.000274335
0.010397
-0.000249624
0.0126495
-0.000245376
0.0143406
-0.000247225
0.0153346
-0.000242251
0.0155493
-0.000219475
0.0149672
-0.00017449
0.0136437
-0.000125729
0.0117153
-8.08554e-05
0.00935003
-4.12048e-05
0.00672807
-1.56657e-05
0.00401671
-4.28274e-06
0.00131702
0.00149814
0.0103561
-7.22262e-05
0.0109205
-0.0014609
0.011879
-0.00307357
0.0135241
-0.00124591
0.0148477
0.000861396
0.0157958
0.0019551
0.0165236
0.00238751
0.0171263
0.00254246
0.0176602
0.00259862
0.0181683
0.00266278
0.0186572
0.00274942
0.0189644
0.00278217
0.0187009
0.00265455
0.0174124
0.00231324
0.014952
0.00183584
0.0116902
0.00135081
0.00826989
0.000945887
0.00521948
0.000642538
0.00280078
-0.000314543
-5.05196e-05
-4.05631e-05
0.000151443
-0.000163391
-3.16489e-05
-2.34735e-05
4.60987e-05
-0.000107825
-1.80033e-06
3.76021e-05
-1.19038e-06
4.55915e-05
-8.99956e-06
-7.15362e-06
2.34873e-05
-2.5869e-05
-6.97854e-06
1.45715e-05
1.14365e-05
-0.000169012
0.000168623
0.000433748
-0.000284952
0.00106995
7.72753e-05
0.000263821
-1.89299e-07
0.000263546
1.83385e-07
0.000449133
-3.52369e-07
0.000445627
-1.4618e-06
0.00132214
-1.67166e-05
-3.77742e-05
-0.000181944
0.00477167
-0.00011875
0.00126987
-5.38213e-05
-8.78321e-05
0.000443396
-2.51245e-06
0.000433868
-4.39138e-06
0.000263435
6.61827e-08
0.000263195
-1.09097e-07
7.57676e-05
-0.000196092
0.00766174
-0.000181729
0.0103291
-0.000194218
0.0125983
-0.000221615
0.014315
-0.000247514
0.0153399
-0.000248226
0.0155781
-0.000219262
0.0150119
-0.000171303
0.0136893
-0.000116432
0.0117508
-7.33244e-05
0.00938215
-4.08888e-05
0.00675329
-1.75492e-05
0.00402997
-2.9205e-06
0.00131994
0.00116563
0.0103347
-0.000548784
0.0108327
-0.00233949
0.0117991
-0.00481733
0.0136228
-0.00269658
0.0149748
-0.000173793
0.0158829
0.00118651
0.0165644
0.0017904
0.0171207
0.00206461
0.0176041
0.00219708
0.0180618
0.00230621
0.0185249
0.00244584
0.0189608
0.00259486
0.0191517
0.0026672
0.0186882
0.00255558
0.0171701
0.00223616
0.0145517
0.00178917
0.0112518
0.0013318
0.00788398
0.000943233
0.00491879
0.00064901
0.00258552
-0.00038254
-5.48088e-05
-4.62044e-05
0.000179392
-0.000196864
-3.30465e-05
-2.45613e-05
0.000118547
-0.000129738
-1.07096e-05
-9.74834e-06
-3.22707e-06
-9.52385e-06
1.25888e-05
-1.43892e-05
3.01468e-05
-1.54412e-06
1.13984e-05
-2.87579e-06
-6.97854e-06
-0.000187055
7.07311e-05
0.000441041
-0.000295398
0.000924313
7.55783e-05
7.57617e-05
0.000262767
7.54504e-08
0.000261432
-1.26353e-07
0.000425281
-8.12897e-06
0.000404783
-1.72764e-05
0.00123786
-7.78758e-05
-7.20594e-05
-5.75584e-05
0.00464706
-1.39289e-05
0.00118145
-4.32003e-05
-1.9137e-05
0.000384021
-3.3059e-05
0.000353736
-5.75472e-05
0.000259247
-3.27472e-07