/*--------------------------------*- C++ -*----------------------------------*\
| =========                 |                                                 |
| \\      /  F ield         | OpenFOAM: The Open Source CFD Toolbox           |
|  \\    /   O peration     | Version:  v1912                                 |
|   \\  /    A nd           | Website:  www.openfoam.com                      |
|    \\/     M anipulation  |                                                 |
\*---------------------------------------------------------------------------*/
FoamFile
{
    version     2.0;
    format      ascii;
    class       volVectorField;
    location    "350";
    object      U;
}
// * * * * * * * * * * * * * * * * * * * * * * * * * * * * * * * * * * * * * //

dimensions      [0 1 -1 0 0 0 0];


internalField   nonuniform List<vector> 
3753
(
(0.44031 -0.053833 -7.69255e-21)
(0.790284 -0.0841676 2.30262e-20)
(0.12164 -0.0463031 -1.07303e-20)
(0.927947 -0.0767545 1.15498e-20)
(0.44033 -0.104471 1.19498e-20)
(0.0873499 -0.0395152 0)
(0.977374 -0.0639587 -2.75751e-20)
(0.688869 -0.139951 1.82464e-24)
(0.294956 -0.111469 -1.24438e-24)
(0.0895624 -0.0391286 0)
(0.99151 -0.0551687 -1.10909e-24)
(0.841774 -0.154135 -3.0006e-20)
(0.515172 -0.169477 3.49114e-25)
(0.269416 -0.116055 0)
(0.0966537 -0.0398405 -1.95722e-20)
(0.993801 -0.0495034 -6.01513e-20)
(0.921729 -0.156143 2.85631e-20)
(0.69814 -0.209459 -3.67532e-20)
(0.454271 -0.185598 -3.61622e-20)
(0.276933 -0.116611 0)
(0.0959319 -0.0394942 -1.28465e-20)
(0.993301 -0.045211 1.31395e-19)
(0.95782 -0.152588 0)
(0.822645 -0.232418 8.04143e-20)
(0.627045 -0.242519 3.31636e-20)
(0.449302 -0.186958 -3.59559e-24)
(0.277553 -0.114691 1.63201e-20)
(0.0940538 -0.0390854 -1.60069e-20)
(0.992704 -0.0414335 -7.14175e-20)
(0.971417 -0.146817 -6.72339e-20)
(0.894631 -0.243102 -4.44994e-20)
(0.764272 -0.284158 -4.43645e-20)
(0.610837 -0.248193 0)
(0.44794 -0.183347 1.62245e-20)
(0.274018 -0.113538 1.03645e-20)
(0.0931369 -0.0386176 0)
(0.99248 -0.0377082 -1.00082e-23)
(0.97483 -0.140139 6.72951e-20)
(0.930122 -0.24645 0)
(0.857268 -0.312121 4.27343e-20)
(0.749002 -0.297188 -3.84027e-24)
(0.604519 -0.244013 -1.48436e-20)
(0.443433 -0.181409 -1.64633e-24)
(0.271336 -0.112269 4.974e-21)
(0.0915343 -0.0379267 0)
(0.992526 -0.0337258 9.9854e-20)
(0.973974 -0.132744 -9.4864e-20)
(0.943874 -0.245897 -1.02903e-23)
(0.911998 -0.330627 6.62779e-20)
(0.853474 -0.333265 6.57773e-24)
(0.740837 -0.29439 0)
(0.598092 -0.241539 0)
(0.43962 -0.179459 8.14767e-22)
(0.267876 -0.110385 1.81951e-25)
(0.0894063 -0.0371458 0)
(0.9927 -0.0292887 7.2801e-21)
(0.97121 -0.124311 2.03831e-19)
(0.945542 -0.243227 1.10273e-19)
(0.939992 -0.344174 1.575e-20)
(0.924186 -0.358723 0)
(0.849388 -0.333189 -2.2533e-24)
(0.732969 -0.292257 -9.64073e-25)
(0.593512 -0.239124 -1.02011e-20)
(0.435147 -0.176751 -2.64915e-25)
(0.263264 -0.108339 -6.00971e-21)
(0.0873307 -0.0363603 8.66653e-21)
(0.992937 -0.0242688 -1.08378e-19)
(0.967282 -0.114324 -1.08825e-19)
(0.940091 -0.239016 -1.11567e-19)
(0.951492 -0.356226 -1.75641e-19)
(0.968791 -0.37728 -4.68219e-24)
(0.92806 -0.361428 0)
(0.842728 -0.332343 0)
(0.728102 -0.289859 5.00669e-21)
(0.588714 -0.235894 -1.34027e-22)
(0.429326 -0.173919 6.40713e-22)
(0.258389 -0.106308 -1.06745e-20)
(0.0853314 -0.0355835 1.12584e-20)
(0.993258 -0.0185888 0)
(0.962355 -0.10217 0)
(0.92946 -0.233101 -6.89205e-23)
(0.95286 -0.368966 2.08131e-19)
(0.996608 -0.392351 2.84108e-20)
(0.981414 -0.38184 4.67112e-24)
(0.925089 -0.362188 -1.96484e-24)
(0.838957 -0.330539 -7.13881e-25)
(0.723581 -0.286484 -2.72261e-22)
(0.582609 -0.232619 4.25205e-21)
(0.422934 -0.171131 -8.20116e-21)
(0.253539 -0.104286 -1.3791e-20)
(0.0834053 -0.034842 0)
(0.993748 -0.0122156 0)
(0.956454 -0.0871683 1.44002e-19)
(0.914064 -0.22496 1.81727e-19)
(0.947082 -0.383606 -1.10579e-19)
(1.01464 -0.4062 -2.76781e-20)
(1.0169 -0.397359 2.03776e-24)
(0.982733 -0.383703 1.97995e-24)
(0.92393 -0.361206 1.9688e-24)
(0.835546 -0.327431 -1.20232e-22)
(0.717892 -0.283067 3.22313e-21)
(0.57578 -0.229436 7.40142e-21)
(0.416367 -0.168341 1.50471e-24)
(0.248775 -0.102342 1.5644e-20)
(0.0815956 -0.0341345 -3.81539e-24)
(0.994529 -0.00517958 6.24652e-20)
(0.949627 -0.0686079 -6.71707e-20)
(0.893889 -0.213807 2.57751e-20)
(0.934698 -0.400635 3.27673e-23)
(1.02642 -0.419659 3.56747e-23)
(1.04057 -0.409903 9.4696e-21)
(1.02117 -0.399107 -1.09584e-20)
(0.984485 -0.383097 -1.26946e-24)
(0.922384 -0.358531 7.44131e-24)
(0.830849 -0.324128 -3.01241e-21)
(0.711422 -0.279753 6.1272e-21)
(0.568565 -0.226247 0)
(0.409773 -0.165648 -2.70558e-20)
(0.244199 -0.100472 -8.65603e-24)
(0.0798622 -0.0334503 1.64053e-20)
(0.995679 0.00237846 -1.24804e-19)
(0.942214 -0.0458844 2.76272e-21)
(0.869107 -0.198093 -2.12597e-19)
(0.913439 -0.420056 0)
(1.03132 -0.431201 4.03074e-23)
(1.05413 -0.419456 -9.27399e-21)
(1.04459 -0.409436 1.07205e-20)
(1.0242 -0.397638 -1.97757e-24)
(0.984551 -0.380461 4.4224e-22)
(0.918948 -0.355372 0)
(0.825216 -0.320822 -5.72041e-21)
(0.70437 -0.276407 -4.13907e-24)
(0.561125 -0.223162 1.19318e-20)
(0.403307 -0.163019 -3.52249e-24)
(0.239765 -0.0986401 4.56634e-24)
(0.0782025 -0.0328008 1.7314e-20)
(0.997116 0.00999583 6.22171e-20)
(0.935665 -0.0185333 -7.68452e-20)
(0.839667 -0.174161 4.40695e-22)
(0.875258 -0.438977 0)
(1.0216 -0.435628 1.98357e-20)
(1.05197 -0.422362 5.65051e-21)
(1.05172 -0.413111 1.01968e-20)
(1.04491 -0.40488 6.12261e-25)
(1.0238 -0.393891 3.01425e-25)
(0.981695 -0.376985 2.71518e-21)
(0.914137 -0.351963 5.25498e-21)
(0.81874 -0.317396 -7.8044e-21)
(0.696852 -0.273163 5.04735e-24)
(0.553663 -0.220111 -6.43502e-24)
(0.396955 -0.160404 -1.63438e-20)
(0.235459 -0.0968899 5.02956e-24)
(0.0766618 -0.0321938 0)
(0.998791 0.0169688 -5.89794e-20)
(0.934004 0.0132136 3.04121e-21)
(0.803587 -0.134284 -9.47639e-22)
(0.80132 -0.440541 -1.20305e-19)
(0.974374 -0.424485 -2.01308e-20)
(1.01616 -0.408806 -2.38332e-21)
(1.03185 -0.404359 -1.02335e-20)
(1.04229 -0.401954 4.2837e-21)
(1.03966 -0.398015 -9.77519e-25)
(1.01921 -0.388958 -2.648e-21)
(0.976749 -0.372927 -5.05496e-21)
(0.908051 -0.348264 7.39512e-21)
(0.811491 -0.314049 0)
(0.689113 -0.269904 -1.17709e-20)
(0.546192 -0.217005 1.45884e-20)
(0.390692 -0.157872 -4.16058e-24)
(0.231357 -0.0952465 -1.02634e-23)
(0.0752462 -0.0316298 -4.49107e-24)
(1.00046 0.0226088 5.83826e-20)
(0.942935 0.041428 -7.12228e-20)
(0.75224 -0.061967 2.57414e-20)
(0.655566 -0.390515 1.19196e-19)
(0.842314 -0.379027 0)
(0.910715 -0.36318 -3.51626e-21)
(0.962216 -0.372287 0)
(1.00285 -0.382297 -7.90245e-21)
(1.02561 -0.389307 5.50993e-22)
(1.02914 -0.389849 3.11679e-21)
(1.01177 -0.383159 9.57804e-25)
(0.969943 -0.368367 -3.38925e-24)
(0.900782 -0.344611 -4.30384e-24)
(0.80378 -0.310613 2.17258e-20)
(0.681159 -0.266491 3.23774e-24)
(0.538676 -0.213954 7.40902e-24)
(0.384608 -0.155473 0)
(0.227502 -0.093703 5.23247e-24)
(0.0739279 -0.031099 1.86901e-20)
(1.00197 0.0265521 0)
(0.952799 0.0643455 1.33606e-19)
(0.820194 0.051734 -4.18912e-20)
(0.827282 0.072827 0)
(0.507592 -0.349819 2.12077e-21)
(0.384505 -0.261596 1.98595e-20)
(0.636515 -0.0220895 0)
(0.692045 -0.332013 9.52787e-23)
(0.337749 -0.243851 -2.96605e-20)
(0.50949 -0.223168 1.96448e-21)
(0.685441 -0.267206 4.73788e-22)
(0.564703 -0.21173 0)
(0.812307 -0.304053 0)
(0.905486 -0.33719 3.7394e-21)
(0.968041 -0.361726 -1.48801e-21)
(1.00398 -0.376046 -3.14731e-21)
(1.01555 -0.380843 1.0172e-24)
(1.00199 -0.376727 0)
(0.961493 -0.36387 -3.19195e-25)
(0.89278 -0.340784 -1.02111e-20)
(0.795607 -0.306903 0)
(0.672946 -0.263077 -3.25473e-24)
(0.531221 -0.211029 -3.79754e-24)
(0.378783 -0.15319 -1.82717e-20)
(0.223872 -0.0922338 0)
(0.0726796 -0.0305933 1.88552e-20)
(1.00292 0.028759 -4.92069e-20)
(0.967393 0.080729 -5.08251e-21)
(0.838598 0.100185 0)
(0.854388 0.127133 2.97241e-20)
(0.641064 0.0608647 0)
(0.414164 -0.12689 -1.89309e-21)
(0.167242 -0.192526 -2.54827e-20)
(0.136502 -0.186743 -6.2791e-21)
(0.20476 -0.225133 3.33249e-20)
(0.384125 -0.0730779 0)
(0.3207 -0.157293 -2.98486e-21)
(0.131905 -0.062437 0)
(0.327507 -0.11893 0)
(0.25063 -0.0832485 -8.73516e-24)
(0.439563 -0.160571 -8.30255e-22)
(0.564747 -0.196143 -4.78075e-22)
(0.37616 -0.13406 -2.12319e-25)
(0.7321 -0.261437 9.68992e-22)
(0.850942 -0.309697 -3.4836e-22)
(0.931766 -0.342773 1.24846e-24)
(0.980467 -0.362677 0)
(0.999732 -0.371372 0)
(0.990281 -0.370568 0)
(0.952112 -0.359158 4.74692e-24)
(0.884075 -0.336554 2.61149e-24)
(0.786913 -0.303127 0)
(0.664609 -0.259764 -1.40282e-20)
(0.523945 -0.208211 1.6192e-20)
(0.373216 -0.150985 -9.0694e-24)
(0.220409 -0.0908218 0)
(0.0714964 -0.0301138 0)
(1.0032 0.0293049 3.86925e-21)
(0.984733 0.0900139 -5.71728e-20)
(0.874228 0.151689 -2.85904e-20)
(0.896453 0.168243 -2.40125e-20)
(0.660514 0.128428 0)
(0.688734 0.186313 -4.03832e-20)
(0.372111 0.0426579 0)
(0.371317 -0.0145574 0)
(0.117789 -0.109634 3.03578e-21)
(0.0546391 -0.0991779 0)
(0.0896072 -0.0292223 8.43399e-23)
(0.0778408 -0.0276363 -1.24177e-22)
(0.220782 -0.0740634 0)
(0.13232 -0.0409923 -1.41338e-21)
(0.335781 -0.11191 2.17589e-25)
(0.487132 -0.162524 -9.78879e-22)
(0.31649 -0.102401 6.96131e-22)
(0.183757 -0.0614128 -6.75526e-25)
(0.667034 -0.233459 5.53441e-22)
(0.802331 -0.287349 -3.63054e-25)
(0.89699 -0.325335 6.80089e-21)
(0.956097 -0.349481 8.11409e-21)
(0.982291 -0.362756 0)
(0.977748 -0.364297 -9.72462e-21)
(0.941893 -0.353952 -1.09273e-20)
(0.874588 -0.332209 1.18062e-20)
(0.777872 -0.299422 1.29766e-20)
(0.656308 -0.256537 -1.43086e-20)
(0.516877 -0.205448 0)
(0.367854 -0.148839 -1.85746e-20)
(0.217093 -0.0894708 0)
(0.0703733 -0.029657 0)
(1.00328 0.0283617 4.60931e-20)
(0.999344 0.0926925 0)
(0.921111 0.182761 2.40235e-20)
(0.944409 0.18255 2.17929e-20)
(0.727932 0.234806 7.23367e-20)
(0.777316 0.265746 -3.2074e-20)
(0.384419 0.101842 0)
(0.403447 0.159468 -1.84962e-20)
(0.45555 0.269349 0)
(0.427123 0.21584 1.77656e-20)
(0.0926649 0.00345379 5.24911e-20)
(0.0999125 -0.0540279 -2.58688e-20)
(0.0387052 -0.0112182 1.37441e-21)
(0.055392 -0.0166479 9.9923e-23)
(0.0496012 -0.0161373 5.94192e-24)
(0.163341 -0.0515493 -9.39384e-24)
(0.289018 -0.0941312 -1.32244e-22)
(0.425791 -0.141823 1.25082e-21)
(0.262437 -0.0826535 -2.18599e-22)
(0.195502 -0.0639692 2.96526e-23)
(0.193401 -0.0615897 -5.84811e-23)
(0.0418274 -0.0137634 0)
(0.0445357 -0.0141107 0)
(0.616084 -0.212772 -1.73421e-24)
(0.759729 -0.268361 -7.40096e-21)
(0.863953 -0.308924 -8.55984e-21)
(0.931263 -0.338207 -8.82844e-21)
(0.964736 -0.354381 9.77511e-21)
(0.964533 -0.357542 1.07558e-20)
(0.930727 -0.348644 -2.28533e-20)
(0.864555 -0.327931 1.21146e-20)
(0.768699 -0.295785 1.32174e-20)
(0.648107 -0.253329 0)
(0.509983 -0.202722 1.63895e-20)
(0.362672 -0.146761 -1.85345e-20)
(0.213907 -0.0881768 0)
(0.0693155 -0.0292259 1.87549e-20)
(1.0031 0.0263437 1.64476e-22)
(1.01171 0.0912992 1.70035e-22)
(0.958171 0.249291 -3.66786e-20)
(0.828726 0.28347 0)
(0.870863 0.308238 -2.57028e-20)
(0.488877 0.318478 -1.41287e-20)
(0.530508 0.358241 1.27639e-20)
(0.637419 0.423122 1.19346e-20)
(0.58138 0.39412 -9.90563e-21)
(0.0983295 0.0673072 -2.64213e-20)
(0.112582 0.134683 2.44012e-20)
(0.166087 0.269335 4.23958e-20)
(0.134878 0.202581 -4.6849e-20)
(0.038422 -0.0115569 -8.33969e-23)
(0.0379111 -0.0120418 1.82718e-22)
(0.114716 -0.0376242 0)
(0.183874 -0.058914 1.69855e-22)
(0.17555 -0.0559489 2.65782e-25)
(0.225706 -0.0737441 -3.57983e-22)
(0.386268 -0.127398 -1.82568e-21)
(0.209088 -0.0669807 1.95717e-22)
(0.163827 -0.0530739 -1.99043e-23)
(0.145139 -0.0422848 2.10791e-22)
(0.113235 -0.0357154 -2.23946e-23)
(0.573628 -0.1961 1.78901e-24)
(0.721183 -0.250496 2.21749e-24)
(0.832284 -0.295867 9.37471e-21)
(0.907825 -0.327764 -2.34609e-24)
(0.947151 -0.345686 0)
(0.950442 -0.350822 1.13115e-20)
(0.91893 -0.343459 -2.34116e-20)
(0.854257 -0.323732 1.23261e-20)
(0.759502 -0.292137 3.23528e-24)
(0.639994 -0.25012 -1.45241e-20)
(0.503239 -0.200045 1.63182e-20)
(0.357646 -0.144755 0)
(0.210867 -0.0869473 2.14262e-20)
(0.0683137 -0.0288121 1.85984e-20)
(1.00257 0.0236049 0)
(1.02072 0.0857662 -1.55541e-22)
(1.01344 0.238794 4.20924e-20)
(0.866052 0.56328 -1.90273e-20)
(0.970816 0.574389 9.25887e-21)
(0.69444 0.447635 -6.56465e-22)
(0.741945 0.461178 9.19481e-21)
(0.76541 0.548295 1.84559e-20)
(0.208095 0.329037 -1.95693e-20)
(0.262678 0.375397 4.14906e-22)
(0.404527 0.501751 -2.24021e-20)
(0.317045 0.404911 1.93962e-20)
(0.0370861 -0.0119546 -2.18339e-25)
(0.108222 -0.0341147 0)
(0.102929 -0.0324597 -6.96424e-23)
(0.12009 -0.0389676 4.93891e-23)
(0.109223 -0.0348687 0)
(0.197166 -0.0632697 1.0918e-21)
(0.354588 -0.116415 0)
(0.19064 -0.0604053 3.32704e-21)
(0.102531 -0.0325455 0)
(0.0994114 -0.0312421 -5.18585e-22)
(0.0947881 -0.0301782 -1.08024e-22)
(0.0660599 -0.0172418 0)
(0.0365659 -0.0114199 4.78491e-23)
(0.533943 -0.178968 0)
(0.685781 -0.237427 0)
(0.804152 -0.284295 0)
(0.885534 -0.317282 0)
(0.929091 -0.337302 0)
(0.935861 -0.344375 1.15763e-20)
(0.906852 -0.33843 -2.37991e-20)
(0.843849 -0.319516 1.24831e-20)
(0.750287 -0.288448 1.33918e-20)
(0.631956 -0.246929 -1.44632e-20)
(0.496633 -0.197437 -3.89379e-24)
(0.352799 -0.142831 -1.83545e-20)
(0.207964 -0.0857627 0)
(0.0673452 -0.0284111 0)
(1.00182 0.0204131 3.49222e-20)
(1.02676 0.0778088 0)
(1.04028 0.209071 0)
(1.13955 0.498403 -5.36716e-21)
(0.835083 0.616317 1.06279e-21)
(0.654382 0.511199 -8.34295e-22)
(0.912503 0.483077 -5.83889e-23)
(0.543252 0.56987 2.46787e-22)
(0.617263 0.578822 -9.63016e-21)
(0.528986 0.451183 -5.81428e-23)
(0.470663 0.45682 1.37173e-21)
(0.155588 0.267133 -1.36351e-21)
(0.0350927 -0.0108979 0)
(0.0334495 -0.0104789 4.7188e-23)
(0.042082 -0.0138466 0)
(0.0364445 -0.0115819 0)
(0.096321 -0.0304298 -6.27121e-22)
(0.0949931 -0.0297397 -7.12486e-22)
(0.181766 -0.0583243 0)
(0.314024 -0.101477 1.8675e-21)
(0.172996 -0.0547363 4.68003e-22)
(0.0931822 -0.0292904 -1.72028e-21)
(0.0921594 -0.0287743 0)
(0.0331572 -0.0103822 5.50266e-25)
(0.0320146 -0.00993355 4.54852e-22)
(0.0307392 -0.0100227 1.27117e-22)
(0.0182468 -0.00479195 -2.09772e-22)
(0.499092 -0.167427 0)
(0.6564 -0.226483 0)
(0.778635 -0.272834 0)
(0.863381 -0.307463 -1.26188e-20)
(0.910972 -0.329435 2.91282e-24)
(0.921186 -0.33826 1.17755e-20)
(0.894692 -0.333431 -2.41438e-20)
(0.83336 -0.315245 -3.05416e-24)
(0.741061 -0.284748 1.33174e-20)
(0.623998 -0.243791 3.47411e-24)
(0.490194 -0.194917 7.46576e-26)
(0.348131 -0.140968 9.59834e-26)
(0.20517 -0.0846117 -1.00982e-23)
(0.0664091 -0.0280227 0)
(1.00109 0.0169723 -3.54158e-20)
(1.03062 0.0691285 3.25839e-20)
(1.05058 0.173152 -1.97236e-20)
(1.2596 0.454367 -1.47992e-21)
(0.789767 0.138725 -5.33125e-20)
(1.07453 0.205125 1.423e-19)
(0.449702 0.268014 -3.48993e-21)
(0.281624 0.249344 0)
(0.594233 0.189848 -2.50387e-20)
(0.263178 0.10168 0)
(0.341103 0.445199 1.10303e-21)
(0.412449 0.452172 -1.58808e-21)
(0.0311538 -0.00967001 0)
(0.0306909 -0.00947377 0)
(0.0899456 -0.0283971 -1.01506e-21)
(0.0885645 -0.0277412 -1.03473e-24)
(0.149703 -0.0465496 5.75795e-22)
(0.283378 -0.0913839 1.72641e-21)
(0.122868 -0.0399898 -2.08109e-21)
(0.0863496 -0.0273157 0)
(0.0828429 -0.0259734 -6.0203e-22)
(0.0300907 -0.00933853 -3.77139e-24)
(0.0297522 -0.0091982 0)
(0.473763 -0.15914 0)
(0.631091 -0.215187 0)
(0.753577 -0.262391 1.35611e-20)
(0.841803 -0.298393 0)
(0.89319 -0.322186 2.60944e-26)
(0.906649 -0.332295 1.19687e-20)
(0.882493 -0.328406 0)
(0.822806 -0.310949 3.06341e-24)
(0.731838 -0.281082 1.31364e-20)
(0.616155 -0.24074 -1.41126e-20)
(0.483941 -0.192459 3.85669e-24)
(0.34362 -0.13914 4.37224e-24)
(0.202449 -0.0834831 2.59819e-25)
(0.065494 -0.0276443 0)
(1.00051 0.0134509 3.17217e-20)
(1.03256 0.0602166 -2.76541e-21)
(1.0542 0.139749 2.05188e-20)
(1.29578 0.394962 1.52385e-21)
(1.18154 0.150683 -8.49501e-20)
(0.221469 0.00735242 -1.3127e-20)
(0.476334 -0.0146771 3.71937e-20)
(0.275795 -0.0264827 -3.2945e-20)
(0.636024 -0.00917135 6.91671e-20)
(0.029199 -0.00905761 1.17244e-21)
(0.0287027 -0.00886246 0)
(0.0754345 -0.0241046 -6.43293e-22)
(0.053514 -0.0138418 1.1704e-21)
(0.111356 -0.0349288 -3.65741e-21)
(0.267818 -0.0863994 3.62186e-24)
(0.108687 -0.0339461 -1.24099e-21)
(0.034097 -0.0108117 -2.87806e-22)
(0.0286459 -0.00939325 -6.41652e-22)
(0.0279943 -0.00873219 6.75755e-22)
(0.0267848 -0.00838931 -3.33862e-22)
(0.453462 -0.150506 0)
(0.605204 -0.20525 3.81761e-24)
(0.729615 -0.252715 3.40454e-24)
(0.82118 -0.290309 0)
(0.875983 -0.315268 -6.0011e-24)
(0.892264 -0.326386 1.2181e-20)
(0.870263 -0.323378 0)
(0.812203 -0.306684 -2.4748e-20)
(0.722666 -0.277514 5.88257e-23)
(0.608478 -0.237748 0)
(0.477855 -0.190027 0)
(0.339222 -0.137341 0)
(0.19979 -0.0823848 9.99793e-24)
(0.0646199 -0.0272786 1.7574e-20)
(1.00016 0.00998625 -3.22162e-20)
(1.03275 0.0510465 -3.11509e-20)
(1.05691 0.111031 -3.5846e-24)
(1.28437 0.326409 9.38106e-23)
(1.38336 0.158356 0)
(0.657746 -0.0325663 0)
(0.0709755 -0.0212832 2.14664e-20)
(0.278603 -0.0121086 1.03597e-22)
(0.122739 -0.0116102 -9.21398e-23)
(0.302018 -0.0545823 -1.11741e-19)
(0.0244098 -0.00808682 -5.1047e-24)
(0.0147199 -0.00382417 -8.24939e-22)
(0.0263534 -0.00817866 1.18736e-25)
(0.025725 -0.00803443 9.41994e-22)
(0.105562 -0.0333011 1.32136e-21)
(0.304957 -0.101761 -6.75078e-24)
(0.104478 -0.0326212 -1.43523e-21)
(0.207417 -0.0682998 -2.69041e-21)
(0.0255501 -0.00793135 4.71082e-25)
(0.0255353 -0.00785602 1.93463e-21)
(0.428737 -0.141227 -2.14736e-21)
(0.300797 -0.0986361 0)
(0.58036 -0.19575 -3.90159e-24)
(0.707349 -0.244424 0)
(0.801767 -0.282772 -1.31388e-20)
(0.859269 -0.308535 -2.50128e-20)
(0.878009 -0.320536 5.8784e-24)
(0.85801 -0.318402 1.19796e-20)
(0.801617 -0.302555 1.21815e-20)
(0.713638 -0.274006 0)
(0.600954 -0.234766 0)
(0.471896 -0.18762 0)
(0.334916 -0.135582 0)
(0.197202 -0.0813094 -1.98422e-20)
(0.0637643 -0.0269251 8.33094e-24)
(1.00001 0.00667242 0)
(1.03162 0.0415758 2.7618e-20)
(1.06036 0.0867022 0)
(1.25386 0.261694 -1.08374e-22)
(1.45526 0.157799 0)
(1.08926 -0.016785 1.56344e-19)
(0.345027 -0.0714669 -1.06225e-19)
(0.199767 -0.0113561 1.07859e-19)
(0.0201437 -0.00683526 4.6821e-20)
(0.0634985 -0.0247961 9.92471e-20)
(0.0250721 -0.00782458 -2.02933e-21)
(0.025023 -0.00775115 -1.06147e-21)
(0.128616 -0.0421822 7.21413e-23)
(0.0758828 -0.0247024 3.17291e-21)
(0.0247647 -0.00767795 4.22255e-24)
(0.0247654 -0.00762109 1.13038e-21)
(0.200556 -0.0650225 -2.13792e-23)
(0.128438 -0.0407881 1.9471e-21)
(0.289705 -0.0939588 3.53942e-21)
(0.403075 -0.131941 -2.26102e-21)
(0.278655 -0.0898631 3.56102e-21)
(0.558261 -0.187995 0)
(0.68713 -0.236908 1.42878e-20)
(0.783269 -0.275565 1.32578e-20)
(0.842946 -0.30194 -6.0859e-24)
(0.863857 -0.314782 -5.90806e-24)
(0.845802 -0.313645 -1.17811e-20)
(0.791181 -0.298504 -1.16889e-23)
(0.704755 -0.2705 1.24982e-20)
(0.593554 -0.231802 0)
(0.466052 -0.185255 1.46956e-20)
(0.330699 -0.133853 0)
(0.194683 -0.0802722 0)
(0.0629236 -0.0265809 1.69878e-20)
(1.00001 0.00354754 -3.01342e-20)
(1.02978 0.0318678 -2.8254e-20)
(1.06382 0.0659927 -1.06493e-20)
(1.22111 0.205119 0)
(1.4533 0.148092 1.63894e-23)
(1.34327 -0.000907054 -1.36053e-19)
(0.763237 -0.0795674 -1.54247e-22)
(0.261692 -0.0599736 0)
(0.128797 -0.0267418 9.17162e-20)
(0.119017 -0.0472419 -1.47079e-21)
(0.0473436 -0.00064193 -8.72988e-20)
(-0.00228175 -0.0102186 -1.44091e-21)
(0.00610908 0.0032947 1.74875e-21)
(0.0757934 -0.0236473 -1.7866e-21)
(0.0246917 -0.00790015 -1.02361e-21)
(0.123737 -0.0395303 4.22558e-24)
(0.192624 -0.0615105 -2.14145e-21)
(0.126253 -0.0404024 0)
(0.263811 -0.0837257 7.66035e-21)
(0.383051 -0.125241 -2.19359e-21)
(0.251185 -0.0811673 -2.96722e-23)
(0.182187 -0.0581902 1.17182e-23)
(0.53945 -0.181314 -2.01908e-24)
(0.66821 -0.229856 0)
(0.765389 -0.268542 1.35842e-20)
(0.826924 -0.295471 1.21163e-23)
(0.849857 -0.309385 1.17419e-20)
(0.83382 -0.309015 -1.16162e-20)
(0.780907 -0.294458 -1.17864e-20)
(0.695989 -0.267004 6.05873e-24)
(0.586287 -0.228878 -1.3139e-20)
(0.460312 -0.182925 9.93715e-26)
(0.32657 -0.132171 1.62063e-20)
(0.192214 -0.0792654 4.54567e-24)
(0.0621307 -0.0262486 8.00486e-24)
(1.00008 0.000609231 3.05997e-20)
(1.02774 0.0220695 2.64969e-20)
(1.06628 0.047928 9.03961e-22)
(1.19387 0.156439 -3.71568e-21)
(1.41582 0.12809 -6.13408e-20)
(1.4542 0.00923772 2.87935e-23)
(1.11206 -0.0784892 7.12973e-23)
(0.573671 -0.0923586 1.85373e-22)
(0.0719408 -0.0215236 1.26505e-22)
(0.230343 -0.0501337 0)
(0.0458008 -0.0136153 -1.76092e-20)
(0.0195226 -0.0147342 5.6652e-20)
(-0.000375848 0.00936037 5.48788e-20)
(0.0078861 -0.000351474 -2.41292e-20)
(0.0742284 -0.0234036 0)
(0.0246411 -0.00761355 1.20179e-21)
(0.120944 -0.0382815 -4.1884e-24)
(0.0725216 -0.0229262 9.58712e-22)
(0.11816 -0.0373416 -2.10263e-21)
(0.164027 -0.0510132 -4.03666e-21)
(0.242509 -0.0779071 -3.67415e-21)
(0.368693 -0.120345 4.50837e-21)
(0.237506 -0.0760513 7.42601e-21)
(0.149943 -0.0477536 1.2762e-23)
(0.107648 -0.0341211 0)
(0.113705 -0.0360855 4.06247e-24)
(0.522212 -0.175228 1.86003e-23)
(0.649902 -0.22296 -1.48369e-20)
(0.747966 -0.261577 1.35644e-20)
(0.811216 -0.289558 -6.02783e-24)
(0.836267 -0.304198 1.15874e-20)
(0.822081 -0.304416 5.6356e-24)
(0.770768 -0.290428 -1.15871e-20)
(0.687348 -0.263539 0)
(0.579122 -0.22599 0)
(0.45467 -0.180646 -1.40776e-20)
(0.322523 -0.130538 -1.18699e-25)
(0.189831 -0.0782905 -1.83883e-20)
(0.0613761 -0.0259286 -8.09258e-24)
(1.00017 -0.00216462 0)
(1.02583 0.0123376 -4.0459e-20)
(1.06736 0.0315547 1.04023e-20)
(1.17396 0.114813 3.94575e-21)
(1.36854 0.103417 1.02305e-20)
(1.47553 0.0114199 2.35084e-23)
(1.32933 -0.0722225 -8.19234e-23)
(0.914014 -0.10949 -1.28264e-22)
(0.475201 -0.0873265 0)
(0.0724965 -0.0178671 5.40872e-20)
(0.0145853 -0.000365275 -1.81491e-20)
(0.00676672 -0.00901881 -7.42414e-23)
(0.205048 -0.0432449 -2.04147e-19)
(0.0158779 -0.0024334 8.76182e-23)
(0.0116208 -0.00684178 -1.59586e-22)
(-0.0106162 -0.00435607 2.57132e-20)
(0.00200158 -0.000126924 0)
(-0.00727819 0.00233426 -1.30649e-20)
(0.000332968 0.000249087 -9.3018e-22)
(0.0240465 -0.00745273 -6.03359e-24)
(0.0708698 -0.0222218 3.48883e-24)
(0.0234219 -0.00730026 -1.92447e-21)
(0.0692952 -0.0217425 8.88864e-22)
(0.0946482 -0.0273989 1.86315e-23)
(0.0812185 -0.0263954 1.14072e-21)
(0.14383 -0.0454553 -1.56736e-21)
(0.232652 -0.0744451 -7.49607e-21)
(0.356081 -0.116189 -1.79725e-23)
(0.229258 -0.0733486 7.66505e-21)
(0.140755 -0.0443341 -1.57731e-21)
(0.0708883 -0.0224166 2.56587e-23)
(0.0744219 -0.0235512 -1.12945e-21)
(0.0618049 -0.0194741 0)
(0.0662797 -0.0208913 8.9864e-22)
(0.505062 -0.169149 -8.32106e-24)
(0.631864 -0.21579 -1.48359e-20)
(0.730996 -0.25543 1.30508e-20)
(0.796235 -0.28396 0)
(0.823084 -0.299093 1.15506e-20)
(0.810533 -0.299856 1.12419e-20)
(0.760766 -0.286436 -2.72664e-24)
(0.678828 -0.260119 1.17087e-20)
(0.57206 -0.223153 1.24473e-20)
(0.44912 -0.17843 0)
(0.318585 -0.128957 1.54857e-20)
(0.187536 -0.0773406 0)
(0.0606068 -0.0256086 0)
(1.00023 -0.00479817 -4.55976e-25)
(1.02417 0.00279077 2.72668e-20)
(1.06725 0.0161819 0)
(1.16007 0.0791089 6.14622e-21)
(1.32523 0.0780798 1.06326e-19)
(1.45237 0.00774847 -2.43523e-23)
(1.42953 -0.0652527 -9.91e-20)
(1.18294 -0.113406 5.93309e-23)
(0.774685 -0.115392 1.4436e-22)
(0.413986 -0.078001 0)
(0.0661777 -0.015392 2.04352e-19)
(0.0173484 -1.38535e-05 -8.43881e-20)
(0.0161247 -0.00802288 1.67038e-20)
(0.00251915 0.00193091 1.19342e-20)
(0.000929578 -0.00023259 2.11684e-20)
(-5.49266e-05 -4.49692e-06 1.42234e-20)
(-0.00124085 -0.0024287 -1.29739e-20)
(0.00316411 -3.42727e-05 1.47033e-22)
(0.185047 -0.0384166 0)
(0.000800171 0.00112165 1.62986e-20)
(-0.00942825 0.000862741 1.49862e-20)
(-0.00291343 0.00185354 0)
(0.0228884 -0.00710946 1.24394e-21)
(0.0224888 -0.00699493 1.21986e-21)
(0.0429362 -0.0108793 5.36129e-22)
(0.0280108 -0.00930067 3.32525e-22)
(0.0691655 -0.0216377 -8.44466e-24)
(0.0683711 -0.0213796 2.16196e-21)
(0.13831 -0.0435673 0)
(0.225126 -0.0720832 -1.53092e-20)
(0.342244 -0.111702 3.68692e-23)
(0.221538 -0.0709179 1.54601e-20)
(0.136322 -0.0429554 -4.72441e-21)
(0.0673992 -0.0210399 -2.19209e-21)
(0.0677324 -0.0211393 2.17743e-21)
(0.0227936 -0.00714761 -5.00305e-24)
(0.0245949 -0.00784518 7.68126e-22)
(0.0199148 -0.00654936 -7.81916e-23)
(0.0213804 -0.00674009 -1.20011e-21)
(0.48705 -0.162042 -2.50789e-23)
(0.614289 -0.209763 -1.43481e-20)
(0.715246 -0.249716 1.89794e-23)
(0.78192 -0.278522 -1.19131e-20)
(0.810199 -0.294071 0)
(0.799177 -0.29536 0)
(0.750922 -0.282499 -1.10386e-20)
(0.670417 -0.256753 -1.14115e-20)
(0.565096 -0.220394 0)
(0.44371 -0.176286 0)
(0.31476 -0.127407 0)
(0.185264 -0.0764054 0)
(0.0598653 -0.0252969 -7.50365e-24)
(1.00027 -0.00730832 0)
(1.02277 -0.00650419 -1.39609e-20)
(1.06636 0.00140073 0)
(1.15021 0.0479515 -6.46646e-21)
(1.29073 0.0533032 -6.23363e-21)
(1.41433 0.000571423 8.04348e-20)
(1.45291 -0.0605209 5.80867e-21)
(1.3453 -0.10972 5.2108e-23)
(1.05279 -0.12974 5.47239e-23)
(0.676441 -0.110008 0)
(0.369944 -0.069863 -1.53306e-22)
(0.0611792 -0.0138918 4.69706e-20)
(0.0170918 0.000380999 0)
(0.014676 -0.00712511 0)
(0.00306537 0.00130702 6.89599e-23)
(0.00334012 -0.00113622 1.97784e-20)
(0.00439798 -0.000568572 -1.90295e-20)
(0.00354483 -0.00237109 0)
(0.000300581 0.00031315 0)
(-0.00115369 -0.000233819 -1.65363e-21)
(0.168245 -0.0340247 0)
(-0.000234149 0.000360656 7.13939e-22)
(0.0118704 -0.003019 -3.0937e-22)
(0.0221647 -0.00688325 -1.25241e-21)
(0.0219182 -0.00680044 1.25601e-21)
(0.0667496 -0.0208375 -2.18255e-21)
(0.0665018 -0.0207604 0)
(0.134239 -0.0423091 6.31643e-21)
(0.216448 -0.0694477 0)
(0.323792 -0.104746 -3.76868e-23)
(0.210548 -0.0675271 3.89355e-21)
(0.132115 -0.0416592 -6.38946e-21)
(0.0657501 -0.0205291 -8.64302e-24)
(0.0659959 -0.0206151 -2.18976e-21)
(0.0216231 -0.00670271 2.52944e-21)
(0.0217384 -0.00673671 1.26501e-21)
(0.469302 -0.156361 1.68436e-23)
(0.598754 -0.204312 -1.41571e-23)
(0.700534 -0.244268 -1.30067e-20)
(0.768065 -0.27323 -2.85878e-24)
(0.797597 -0.289151 -1.11953e-20)
(0.788035 -0.290933 0)
(0.741211 -0.278623 0)
(0.662119 -0.253482 0)
(0.558271 -0.217718 2.83199e-24)
(0.438422 -0.17418 6.21709e-24)
(0.31102 -0.12589 0)
(0.183062 -0.0754921 4.10238e-24)
(0.0591545 -0.0249953 1.49155e-23)
(1.00027 -0.00970278 0)
(1.02158 -0.0155213 0)
(1.06506 -0.013011 6.29782e-21)
(1.1429 0.0200865 0)
(1.265 0.0292945 -6.92802e-20)
(1.37704 -0.00885732 -7.37637e-21)
(1.43756 -0.0586898 9.43377e-20)
(1.41616 -0.103653 0)
(1.25261 -0.132873 -4.8411e-23)
(0.944304 -0.131608 -5.9215e-23)
(0.604213 -0.101774 -1.26975e-22)
(0.335114 -0.0627076 1.59087e-22)
(0.0558045 -0.0118326 1.13378e-21)
(0.0156131 0.000186474 -5.84879e-22)
(0.0140306 -0.00661865 0)
(-0.00035685 0.00127512 -1.27322e-20)
(0.00344996 -0.000297375 -1.73779e-23)
(0.00216436 -0.00255669 0)
(-0.00122955 0.0011706 1.35759e-20)
(-0.000269846 -7.2437e-05 -1.1559e-20)
(0.000388035 3.96723e-05 -1.04993e-20)
(-2.80221e-06 -0.000593033 0)
(0.153204 -0.0296228 -1.74483e-19)
(0.0214556 -0.00664937 -2.60891e-24)
(0.0213656 -0.00662272 1.27646e-21)
(0.0651379 -0.0203427 -8.6571e-24)
(0.0648892 -0.0202587 1.74088e-23)
(0.129413 -0.04085 6.25442e-23)
(0.201287 -0.0646973 7.85124e-24)
(0.304768 -0.0989654 -2.3442e-21)
(0.189014 -0.0592745 4.34458e-21)
(0.125505 -0.0397124 -4.83656e-21)
(0.0640683 -0.0200075 2.25338e-21)
(0.0643736 -0.0201188 -8.7251e-24)
(0.0211261 -0.0065479 1.29829e-21)
(0.0212254 -0.00658092 6.27781e-25)
(0.455187 -0.1515 1.62835e-23)
(0.584795 -0.19929 1.43672e-20)
(0.686466 -0.239034 0)
(0.754585 -0.268079 1.15844e-20)
(0.785288 -0.284319 -2.62583e-24)
(0.777075 -0.286575 5.0443e-24)
(0.731621 -0.274862 0)
(0.653956 -0.250314 0)
(0.551596 -0.215097 -2.83947e-24)
(0.433251 -0.17211 -6.23684e-24)
(0.307382 -0.124401 0)
(0.180923 -0.0745974 -4.12545e-24)
(0.0584514 -0.0247019 -1.4575e-23)
(1.00022 -0.0119766 0)
(1.02051 -0.0242479 0)
(1.06353 -0.0271825 -6.50203e-21)
(1.1374 -0.00551973 -6.49527e-26)
(1.2464 0.00601886 2.2498e-20)
(1.34654 -0.0197943 -7.92582e-20)
(1.40936 -0.0594002 0)
(1.429 -0.0981589 -2.2013e-23)
(1.36316 -0.12954 0)
(1.16199 -0.141458 3.91948e-24)
(0.856016 -0.126955 0)
(0.547933 -0.0932045 1.33033e-22)
(0.305683 -0.0560384 1.50365e-19)
(0.0501828 -0.00951692 1.72024e-19)
(0.0128953 0.000918348 1.26768e-19)
(0.012337 -0.00518137 -6.44867e-20)
(-0.000956269 0.00154857 -5.94918e-20)
(-0.00173288 -0.00029035 1.29767e-20)
(-0.00168766 0.00121653 1.18439e-20)
(-0.00029258 0.000503411 9.96989e-23)
(-0.00132661 -0.000123053 -8.30668e-23)
(-0.00152016 0.00112711 -9.70677e-23)
(0.139949 -0.0256239 0)
(0.0209641 -0.00649723 -2.45587e-24)
(0.0208675 -0.00646729 -7.97151e-26)
(0.0634096 -0.0198184 0)
(0.062959 -0.0196657 0)
(0.118299 -0.0376682 7.8777e-22)
(0.176213 -0.0561617 3.86703e-21)
(0.293737 -0.0950142 4.76818e-21)
(0.170984 -0.0545962 -3.89952e-21)
(0.100145 -0.0306942 -4.63117e-21)
(0.0610645 -0.019128 0)
(0.0621745 -0.0194771 2.22068e-21)
(0.0206102 -0.00638707 2.61912e-24)
(0.0207274 -0.00642804 0)
(0.443369 -0.147389 -2.46811e-23)
(0.571697 -0.194562 1.45106e-20)
(0.672831 -0.233969 0)
(0.741444 -0.26302 0)
(0.773214 -0.279554 2.63454e-24)
(0.766269 -0.282367 -5.05906e-24)
(0.722199 -0.271245 4.86914e-24)
(0.645966 -0.247214 0)
(0.545056 -0.212511 0)
(0.4282 -0.170071 5.86946e-24)
(0.303807 -0.12293 0)
(0.178824 -0.0737283 0)
(0.0577637 -0.0244136 7.23527e-24)
(1.00012 -0.014116 -2.31182e-24)
(1.01951 -0.0326748 -1.59732e-24)
(1.06182 -0.0411949 8.40547e-21)
(1.13332 -0.0297247 0)
(1.23333 -0.0167187 6.89199e-24)
(1.32371 -0.0317775 0)
(1.38181 -0.0620821 4.24695e-20)
(1.41448 -0.0943382 2.17076e-23)
(1.40478 -0.123814 2.28127e-23)
(1.30207 -0.14242 -9.2703e-20)
(1.079 -0.141736 9.67135e-23)
(0.783692 -0.119677 -1.104e-19)
(0.501423 -0.0848322 -2.53068e-19)
(0.280079 -0.0498922 0)
(0.0455736 -0.00729854 -1.43906e-22)
(0.00961008 0.00225753 1.16947e-22)
(0.00966076 -0.00375003 0)
(-0.00314166 0.00218673 -4.75489e-20)
(-0.00284049 0.000622161 0)
(-0.00371628 0.00216289 1.52837e-20)
(-0.00289369 0.000592715 2.33824e-22)
(-0.0023729 0.000155271 0)
(-0.00233935 0.00175925 -1.30633e-20)
(-0.000804481 8.78562e-05 -1.14695e-21)
(-0.000549842 0.000332159 -8.43323e-21)
(0.127294 -0.0223234 -3.8234e-23)
(0.0204388 -0.00633674 1.32363e-21)
(0.0202895 -0.00628746 -1.3309e-21)