/*--------------------------------*- C++ -*----------------------------------*\
| =========                 |                                                 |
| \\      /  F ield         | OpenFOAM: The Open Source CFD Toolbox           |
|  \\    /   O peration     | Version:  v1912                                 |
|   \\  /    A nd           | Website:  www.openfoam.com                      |
|    \\/     M anipulation  |                                                 |
\*---------------------------------------------------------------------------*/
FoamFile
{
    version     2.0;
    format      ascii;
    class       volScalarField;
    location    "20";
    object      p;
}
// * * * * * * * * * * * * * * * * * * * * * * * * * * * * * * * * * * * * * //

dimensions      [0 2 -2 0 0 0 0];


internalField   nonuniform List<scalar> 
3675
(
-0.579304
-0.58109
-0.572931
-0.585126
-0.575293
-0.553973
-0.591082
-0.580318
-0.55795
-0.519203
-0.598564
-0.587564
-0.565794
-0.526629
-0.46235
-0.607133
-0.596465
-0.576574
-0.540364
-0.477474
-0.371883
-0.616345
-0.606436
-0.589227
-0.558248
-0.503404
-0.404555
-0.255616
-0.275316
-0.625837
-0.616933
-0.602783
-0.578019
-0.534839
-0.454532
-0.309002
-0.364016
-0.152073
-0.18203
-0.63524
-0.627525
-0.616471
-0.597912
-0.566769
-0.513434
-0.420914
-0.2373
-0.298358
-0.0763363
-0.091537
-0.154372
-0.116312
-0.644328
-0.637832
-0.629763
-0.616877
-0.596213
-0.56536
-0.530666
-0.452149
-0.549315
-0.193031
-0.262973
-0.353908
-0.0444042
-0.0645308
-0.167003
-0.113738
-0.652832
-0.647613
-0.642262
-0.634381
-0.622288
-0.606845
-0.602547
-0.700518
-0.629976
-0.596662
-0.772855
-0.193362
-0.295914
-0.549802
-0.532377
-0.660671
-0.656623
-0.653757
-0.650136
-0.64494
-0.640333
-0.650485
-0.737231
-1.10012
-1.03572
-0.833761
-0.82899
-1.04822
-1.03147
-0.224714
-0.431958
-0.610032
-0.667646
-0.664778
-0.664065
-0.664072
-0.664307
-0.667519
-0.685732
-0.755924
-1.04623
-1.30279
-1.15439
-1.2224
-0.969534
-1.06724
-0.673789
-0.671921
-0.673165
-0.676167
-0.680717
-0.689441
-0.712101
-0.770878
-0.967445
-1.18006
-1.26886
-1.35069
-1.29992
-1.22391
-1.32393
-0.67894
-0.678068
-0.680963
-0.686553
-0.69447
-0.707142
-0.731994
-0.783279
-0.917125
-1.0876
-1.13073
-1.21861
-1.31192
-1.23356
-1.30404
-0.68322
-0.683099
-0.68752
-0.695271
-0.705943
-0.721463
-0.74735
-0.792759
-0.887668
-1.01325
-1.0778
-1.09585
-1.15565
-1.17645
-1.19416
-1.24202
-1.26252
-0.686483
-0.687107
-0.692761
-0.702471
-0.715396
-0.73313
-0.759489
-0.800255
-0.870877
-0.964081
-1.02766
-1.06376
-1.07141
-1.11254
-1.13021
-1.16305
-1.21423
-1.19911
-0.688921
-0.689992
-0.696791
-0.708143
-0.723129
-0.742636
-0.769364
-0.806546
-0.861656
-0.931685
-0.987557
-1.02697
-1.05356
-1.0423
-1.07373
-1.08855
-1.11718
-1.14114
-1.17012
-1.1695
-0.690395
-0.691892
-0.69953
-0.712432
-0.729217
-0.750452
-0.777543
-0.81211
-0.857164
-0.910803
-0.957355
-0.994048
-1.02659
-1.0338
-1.00812
-1.0371
-1.05156
-1.0738
-1.09227
-1.11265
-1.12341
-1.15064
-1.1383
-1.17161
-1.16333
-0.69114
-0.692712
-0.701105
-0.715267
-0.73384
-0.75674
-0.784569
-0.817349
-0.85576
-0.898098
-0.936033
-0.968108
-0.999752
-1.01757
-1.00589
-0.971293
-0.999074
-1.01397
-1.0347
-1.05244
-1.06866
-1.07694
-1.09747
-1.08826
-1.11233
-1.12365
-1.15111
-1.13848
-0.691044
-0.692644
-0.701425
-0.716773
-0.736948
-0.761704
-0.790591
-0.822493
-0.856579
-0.891232
-0.922072
-0.949239
-0.977624
-0.999351
-0.998901
-0.972901
-0.935012
-0.961052
-0.976042
-0.995884
-1.01352
-1.02917
-1.03668
-1.05545
-1.04773
-1.06724
-1.07632
-1.09733
-1.08741
-0.690381
-0.69163
-0.700659
-0.716836
-0.73864
-0.7653
-0.795857
-0.827764
-0.859172
-0.888623
-0.914037
-0.936652
-0.961163
-0.983244
-0.989608
-0.972637
-0.937819
-0.90283
-0.925927
-0.940122
-0.958577
-0.975438
-0.990805
-0.998009
-1.01613
-1.00878
-1.02756
-1.03599
-1.05492
-1.04633
-0.689053
-0.689899
-0.698742
-0.715596
-0.738783
-0.767592
-0.800221
-0.833101
-0.863307
-0.88936
-0.910711
-0.929487
-0.950176
-0.970903
-0.980862
-0.970902
-0.941292
-0.904494
-0.876604
-0.896482
-0.908907
-0.924946
-0.940115
-0.954567
-0.961477
-0.978524
-0.971363
-0.989718
-0.997719
-1.01577
-1.00756
-0.687325
-0.687423
-0.69588
-0.712936
-0.737462
-0.768422
-0.803824
-0.838586
-0.868902
-0.892969
-0.911325
-0.926887
-0.944141
-0.962762
-0.97429
-0.969257
-0.94488
-0.908716
-0.876045
-0.855995
-0.873662
-0.884054
-0.897167
-0.90967
-0.922112
-0.928509
-0.943769
-0.93694
-0.954268
-0.961749
-0.978614
-0.970738
-0.68513
-0.684446
-0.692024
-0.709019
-0.734519
-0.767832
-0.806423
-0.844054
-0.87591
-0.899334
-0.915469
-0.928323
-0.942468
-0.958649
-0.970472
-0.968806
-0.948976
-0.91487
-0.879
-0.85374
-0.84098
-0.856341
-0.863982
-0.876512
-0.885942
-0.895422
-0.900964
-0.913514
-0.907358
-0.922465
-0.929137
-0.944235
-0.936915
-0.682731
-0.680955
-0.687377
-0.703705
-0.730035
-0.765642
-0.808224
-0.849657
-0.884415
-0.908439
-0.923136
-0.933537
-0.944768
-0.958265
-0.969401
-0.969928
-0.953917
-0.922524
-0.88518
-0.854718
-0.837533
-0.826085
-0.839871
-0.848872
-0.860082
-0.866361
-0.876919
-0.881057
-0.889633
-0.88465
-0.896218
-0.901679
-0.914097
-0.907761
-0.680097
-0.677177
-0.681865
-0.697088
-0.72375
-0.761918
-0.809049
-0.855393
-0.894718
-0.920537
-0.934333
-0.942527
-0.95087
-0.961465
-0.971046
-0.972564
-0.959645
-0.931225
-0.893902
-0.85926
-0.836339
-0.823246
-0.810773
-0.823745
-0.83219
-0.841608
-0.851198
-0.860402
-0.865717
-0.87289
-0.865509
-0.879232
-0.882071
-0.890144
-0.885468
-0.677541
-0.673117
-0.675615
-0.688878
-0.715557
-0.756353
-0.809269
-0.861812
-0.90766
-0.936111
-0.949207
-0.955251
-0.960792
-0.96826
-0.975499
-0.976752
-0.965912
-0.940411
-0.904217
-0.867011
-0.838568
-0.821405
-0.809163
-0.794369
-0.807183
-0.815749
-0.824208
-0.832947
-0.839996
-0.844682
-0.854871
-0.849897
-0.862147
-0.870606
-0.877537
-0.86529
-0.675164
-0.669033
-0.668487
-0.67896
-0.704827
-0.748666
-0.80858
-0.869361
-0.924752
-0.956387
-0.968037
-0.971649
-0.974411
-0.978666
-0.982946
-0.98275
-0.972718
-0.949555
-0.91512
-0.876888
-0.844204
-0.82207
-0.80781
-0.794273
-0.775859
-0.789349
-0.79843
-0.806784
-0.815615
-0.82165
-0.826098
-0.835136
-0.83061
-0.840091
-0.845042
-0.855834
-0.850354
-0.862454
-0.870487
-0.862276
-0.673433
-0.665087
-0.660625
-0.666814
-0.691046
-0.737833
-0.806863
-0.879322
-0.948825
-0.983533
-0.991646
-0.991541
-0.991435
-0.992559
-0.993523
-0.990924
-0.980332
-0.95853
-0.925828
-0.887685
-0.85226
-0.82564
-0.807936
-0.794034
-0.777974
-0.760636
-0.765354
-0.779547
-0.788907
-0.797852
-0.803765
-0.808187
-0.817026
-0.812614
-0.821051
-0.825585
-0.834871
-0.830167
-0.840147
-0.845109
-0.856194
-0.85063
-0.672689
-0.661782
-0.652142
-0.652223
-0.672885
-0.722621
-0.802176
-0.892862
-0.984488
-1.02114
-1.02159
-1.01508
-1.01137
-1.00958
-1.00718
-1.0015
-0.989225
-0.967561
-0.936109
-0.898471
-0.861537
-0.831446
-0.810092
-0.794391
-0.778994
-0.761862
-0.759062
-0.745471
-0.774887
-0.778919
-0.786142
-0.790643
-0.799188
-0.794789
-0.802996
-0.807378
-0.816222
-0.811759
-0.82073
-0.825175
-0.834624
-0.829918
-0.673541
-0.659637
-0.643781
-0.635209
-0.648678
-0.699634
-0.793114
-0.912259
-1.03876
-1.07429
-1.06033
-1.04303
-1.03386
-1.02902
-1.02354
-1.01455
-0.99978
-0.977134
-0.946065
-0.908892
-0.871093
-0.838522
-0.813917
-0.79583
-0.77997
-0.763082
-0.745679
-0.74549
-0.757355
-0.763733
-0.729132
-0.771594
-0.78106
-0.772344
-0.786281
-0.790248
-0.798408
-0.79419
-0.802641
-0.806847
-0.815697
-0.811316
-0.676425
-0.659463
-0.636627
-0.616997
-0.617015
-0.661765
-0.776569
-0.94299
-1.12317
-1.14951
-1.11087
-1.07686
-1.05906
-1.0501
-1.04187
-1.02985
-1.01216
-0.987653
-0.956044
-0.918944
-0.88054
-0.846057
-0.818745
-0.798187
-0.781172
-0.764215
-0.746284
-0.728365
-0.730197
-0.743632
-0.750465
-0.756924
-0.760101
-0.763435
-0.766439
-0.71173
-0.769899
-0.773723
-0.78123
-0.782062
-0.786462
-0.790079
-0.797972
-0.793986
-0.681842
-0.66193
-0.632231
-0.599923
-0.580019
-0.603882
-0.738575
-0.992153
-1.25212
-1.25284
-1.17542
-1.11806
-1.08791
-1.07244
-1.06107
-1.04664
-1.02623
-0.999364
-0.966405
-0.928826
-0.889744
-0.853674
-0.823982
-0.801088
-0.782552
-0.765132
-0.746922
-0.72808
-0.710031
-0.71338
-0.727836
-0.735485
-0.742849
-0.746278
-0.750029
-0.753239
-0.693418
-0.778892
-0.78195
-0.689984
-0.667653
-0.631906
-0.587548
-0.543837
-0.535815
-0.650557
-1.05284
-1.42784
-1.38513
-1.25194
-1.1668
-1.12129
-1.09639
-1.0802
-1.06373
-1.04139
-1.01223
-0.977385
-0.93868
-0.898732
-0.861179
-0.829351
-0.804167
-0.783969
-0.765765
-0.747307
-0.727981
-0.708815
-0.691048
-0.695993
-0.710587
-0.718747
-0.726725
-0.730455
-0.734719
-0.738328
-0.673973
-0.700972
-0.676892
-0.636664
-0.582695
-0.517707
-0.462002
-0.560675
-0.470615
-0.905087
-0.842388
-0.532722
-1.49916
-1.2583
-1.64287
-1.516
-1.62858
-1.32455
-1.21806
-1.1582
-1.12223
-1.09894
-1.07978
-1.05647
-1.02577
-0.988961
-0.94864
-0.907498
-0.868494
-0.834634
-0.80725
-0.785253
-0.766088
-0.747281
-0.727755
-0.707927
-0.689119
-0.671752
-0.676067
-0.693805
-0.701563
-0.709155
-0.71312
-0.717648
-0.721532
-0.656306
-0.714567
-0.689712
-0.646791
-0.58688
-0.507738
-0.410404
-0.403061
-0.341373
-0.431015
-0.673664
-0.808746
-1.15005
-1.09424
-0.632505
-1.49798
-1.42831
-1.33355
-1.85416
-1.55397
-1.62325
-1.58635
-1.37017
-1.54328
-1.70838
-1.25619
-1.19322
-1.14835
-1.11707
-1.09381
-1.06988
-1.03892
-1.0008
-0.958705
-0.916003
-0.875446
-0.839681
-0.810166
-0.786348
-0.766026
-0.746798
-0.727169
-0.707092
-0.68754
-0.669525
-0.653568
-0.658652
-0.675443
-0.682184
-0.693212
-0.696551
-0.700111
-0.70406
-0.637945
-0.730476
-0.705781
-0.662121
-0.6
-0.514989
-0.396932
-0.303801
-0.271728
-0.34075
-0.263334
-0.442968
-0.588736
-0.846723
-0.870858
-1.71767
-1.64483
-1.62627
-1.42535
-1.26792
-1.36191
-1.56434
-1.51829
-1.21442
-1.16919
-1.133
-1.10523
-1.08012
-1.05012
-1.01204
-0.968625
-0.924153
-0.88189
-0.84427
-0.812779
-0.787129
-0.765575
-0.745791
-0.726122
-0.706036
-0.686171
-0.667522
-0.650944
-0.635752
-0.639395
-0.654707
-0.664565
-0.674433
-0.680255
-0.680864
-0.689103
-0.620511
-0.748045
-0.724652
-0.681913
-0.620782
-0.537635
-0.417461
-0.273384
-0.306306
-0.215077
-0.235765
-0.150077
-0.435233
-0.343932
-0.176349
-0.179671
-0.253114
-0.463287
-0.744328
-1.67661
-1.63664
-1.442
-1.40285
-1.29266
-1.21688
-1.25081
-1.37029
-1.33496
-1.56464
-1.51367
-1.17765
-1.14281
-1.11272
-1.08598
-1.05739
-1.02115
-0.977736
-0.931799
-0.887687
-0.848207
-0.814839
-0.787498
-0.764673
-0.744283
-0.724516
-0.704602
-0.684736
-0.665785
-0.648621
-0.633361
-0.618969
-0.621393
-0.635118
-0.644288
-0.652306
-0.657084
-0.66267
-0.667709
-0.674364
-0.68098
-0.678001
-0.604764
-0.766697
-0.745535
-0.705306
-0.647222
-0.570809
-0.468473
-0.331158
-0.165679
-0.209085
-0.129707
-0.0950211
-0.0836244
-0.120726
-1.43046
-1.39458
-1.29733
-1.26987
-1.2193
-1.17429
-1.19312
-1.25172
-1.23033
-1.36178
-1.32744
-1.1424
-1.11374
-1.08624
-1.05902
-1.02606
-0.98474
-0.938471
-0.892699
-0.851315
-0.816179
-0.787278
-0.763292
-0.742233
-0.722363
-0.702651
-0.68304
-0.66408
-0.646612
-0.63107
-0.617045
-0.603764
-0.605076
-0.617139
-0.625792
-0.632576
-0.637103
-0.641954
-0.646673
-0.652428
-0.657402
-0.662609
-0.667937
-0.590136
-0.785598
-0.767634
-0.73116
-0.677577
-0.609282
-0.527561
-0.441018
-0.357818
-0.444887
-0.128489
-0.159459
-0.256217
-0.202702
-0.0918698
-1.28947
-1.26054
-1.21374
-1.19627
-1.17214
-1.1347
-1.15165
-1.18208
-1.24387
-1.22085
-1.10724
-1.07989
-1.0537
-1.02458
-0.987588
-0.943119
-0.896633
-0.853547
-0.816684
-0.786367
-0.761308
-0.739663
-0.719655
-0.700193
-0.680921
-0.662207
-0.644694
-0.628967
-0.615
-0.602278
-0.589713
-0.589992
-0.600556
-0.608714
-0.614447
-0.618723
-0.623187
-0.627667
-0.632499
-0.637047
-0.641583
-0.646439
-0.57647
-0.80419
-0.789892
-0.758381
-0.710216
-0.64998
-0.584032
-0.528157
-0.601246
-0.330817
-0.563875
-0.543499
-0.657647
-0.185632
-0.299049
-1.24841
-1.20255
-1.19419
-1.16133
-1.13093
-1.09585
-1.11275
-1.14197
-1.17002
-1.18156
-1.23444
-1.21305
-1.0673
-1.04115
-1.01516
-0.984096
-0.94412
-0.898874
-0.854841
-0.816401
-0.784697
-0.758702
-0.73654
-0.716462
-0.697229
-0.678379
-0.660011
-0.642679
-0.626912
-0.612953
-0.600505
-0.588729
-0.576481
-0.576075
-0.585458
-0.593022
-0.597679
-0.601668
-0.605802
-0.610043
-0.614153
-0.618413
-0.622595
-0.627115
-0.563745
-0.821903
-0.811448
-0.785613
-0.743842
-0.691103
-0.636518
-0.596834
-0.64769
-0.846254
-0.820469
-0.398942
-0.651401
-0.836515
-0.832293
-1.1942
-1.18637
-1.15921
-1.14873
-1.11961
-1.09087
-1.05258
-1.07133
-1.10156
-1.13144
-1.14015
-1.02404
-0.998524
-0.972987
-0.939793
-0.898397
-0.854978
-0.81546
-0.782427
-0.7555
-0.732916
-0.712794
-0.693854
-0.675427
-0.657501
-0.640435
-0.624782
-0.61084
-0.598555
-0.587283
-0.575964
-0.563992
-0.563289
-0.571828
-0.578821
-0.582787
-0.586424
-0.590037
-0.593924
-0.597209
-0.601099
-0.604966
-0.609215
-0.551975
-0.838559
-0.831543
-0.811674
-0.77696
-0.731595
-0.685165
-0.654402
-0.685845
-0.831831
-0.884506
-0.88492
-0.869843
-0.832619
-0.873888
-1.11594
-1.10851
-1.07888
-1.04772
-1.00753
-1.02801
-1.05889
-1.08685
-1.09728
-0.978599
-0.955662
-0.929582
-0.894293
-0.853565
-0.814055
-0.779894
-0.751948
-0.728867
-0.708757
-0.690119
-0.672171
-0.654697
-0.637987
-0.622495
-0.608626
-0.596418
-0.585484
-0.574885
-0.563804
-0.552272
-0.551585
-0.559387
-0.565918
-0.569542
-0.572893
-0.5761
-0.579656
-0.582429
-0.585847
-0.589163
-0.592914
-0.541283
-0.854034
-0.849954
-0.835571
-0.808214
-0.770316
-0.730314
-0.703845
-0.720929
-0.814667
-0.884865
-0.895778
-0.908199
-0.895366
-0.88657
-0.905306
-1.10698
-1.10172
-1.0742
-1.06456
-1.03698
-1.00466
-0.960955
-0.983723
-1.01759
-1.04496
-1.05451
-1.07976
-1.09029
-0.937161
-0.915555
-0.886526
-0.850297
-0.812269
-0.777563
-0.748481
-0.724694
-0.704474
-0.686147
-0.668667
-0.651696
-0.635358
-0.620096
-0.606295
-0.59414
-0.583378
-0.573314
-0.563039
-0.552227
-0.541438
-0.540999
-0.547987
-0.554069
-0.5574
-0.56055
-0.563503
-0.56682
-0.5694
-0.572496
-0.575413
-0.578753
-0.531672
-0.868718
-0.866639
-0.857113
-0.836318
-0.806126
-0.77195
-0.747417
-0.753315
-0.810042
-0.866851
-0.906384
-0.902938
-0.908652
-0.910313
-0.910452
-0.918723
-1.06733
-1.05795
-1.03384
-1.02493
-0.996782
-0.959046
-0.922531
-0.934944
-0.975644
-1.00738
-1.01689
-1.03894
-1.04816
-0.901748
-0.876709
-0.845435
-0.810217
-0.775864
-0.74577
-0.720892
-0.700235
-0.682052
-0.665026
-0.648554
-0.632643
-0.61762
-0.603923
-0.591766
-0.581079
-0.571327
-0.56172
-0.551667
-0.541346
-0.531572
-0.53162
-0.537737
-0.543308
-0.546186
-0.54911
-0.551833
-0.554954
-0.557383
-0.560293
-0.562996
-0.566094
-0.523221
-0.883324
-0.881912
-0.876699
-0.86082
-0.837663
-0.809725
-0.786478
-0.783773
-0.815271
-0.855764
-0.892958
-0.929888
-0.923137
-0.915518
-0.915889
-0.920888
-0.918886
-0.916132
-0.917163
-1.02827
-1.02059
-0.997971
-0.98749
-0.951597
-0.912574
-0.892113
-0.935403
-0.965683
-0.976431
-1.00499
-1.01503
-0.86812
-0.840083
-0.808148
-0.775095
-0.744427
-0.71817
-0.696502
-0.678086
-0.661352
-0.645367
-0.629886
-0.615159
-0.601561
-0.589403
-0.578685
-0.569082
-0.55992
-0.550562
-0.540836
-0.531265
-0.52271
-0.523388
-0.528718
-0.533746
-0.536152
-0.538819
-0.541234
-0.544096
-0.546198
-0.548875
-0.551389
-0.554312
-0.515535
-0.895485
-0.897149
-0.89512
-0.882003
-0.864086
-0.842556
-0.821585
-0.81261
-0.826287
-0.852304
-0.883342
-0.922524
-0.947429
-0.939118
-0.933786
-0.928087
-0.924206
-0.925433
-0.923595
-0.920016
-0.997224
-0.984963
-0.952717
-0.939726
-0.916279
-0.8865
-0.905267
-0.86222
-0.930131
-0.963035
-0.973907
-1.00119
-0.835452
-0.806285
-0.775312
-0.744781
-0.7172
-0.693963
-0.674664
-0.657846
-0.642202
-0.627163
-0.612754
-0.599309
-0.587123
-0.576333
-0.566722
-0.557808
-0.548961
-0.53985
-0.530662
-0.522075
-0.514635
-0.51626
-0.52079
-0.525345
-0.527353
-0.529759
-0.531852
-0.534435
-0.536215
-0.538613
-0.54084
-0.543467
-0.508229
-0.893393
-0.91508
-0.913094
-0.90057
-0.885198
-0.869296
-0.852132
-0.839859
-0.840958
-0.85427
-0.87777
-0.914503
-0.945765
-0.955054
-0.949946
-0.946303
-0.94045
-0.935293
-0.930959
-0.929685
-0.925962
-0.927606
-0.994293
-0.982853
-0.950957
-0.942999
-0.91829
-0.913188
-0.892018
-0.858636
-0.87941
-0.908189
-0.904347
-0.832428
-0.931957
-0.925323
-0.961288
-0.971945
-0.804956
-0.776124
-0.746567
-0.718283
-0.693276
-0.672381
-0.654828
-0.639209
-0.624525
-0.610479
-0.59721
-0.585032
-0.574114
-0.564411
-0.555546
-0.54702
-0.538405
-0.529684
-0.521262
-0.513682
-0.507093
-0.509367
-0.514181
-0.518026
-0.519545
-0.521756
-0.523601
-0.525945
-0.527459
-0.529587
-0.531523
-0.533849
-0.501054
-0.874538
-0.933714
-0.931045
-0.91648
-0.90132
-0.889124
-0.876682
-0.86421
-0.857597
-0.86042
-0.875808
-0.907538
-0.941565
-0.956885
-0.954684
-0.954638
-0.952496
-0.949017
-0.945502
-0.940911
-0.939893
-0.935392
-0.936345
-0.932449
-0.930339
-0.949122
-0.940607
-0.895917
-0.892097
-0.863377
-0.830003
-0.849156
-0.882795
-0.874728
-0.803331
-0.77645
-0.748704
-0.72096
-0.69472
-0.671829
-0.652803
-0.636643
-0.622082
-0.608356
-0.595329
-0.583179
-0.572144
-0.562252
-0.553314
-0.5449
-0.536626
-0.528318
-0.520189
-0.512636
-0.50594
-0.499939
-0.502206
-0.508577
-0.512082
-0.513179
-0.514997
-0.516381
-0.518444
-0.519666
-0.521595
-0.523313
-0.525397
-0.494483
-0.940275
-0.947918
-0.928252
-0.912311
-0.901877
-0.893758
-0.883995
-0.874323
-0.869551
-0.877073
-0.902577
-0.936158
-0.956759
-0.956961
-0.948837
-0.954278
-0.953495
-0.953476
-0.951457
-0.948756
-0.947834
-0.944299
-0.945397
-0.940947
-0.93932
-0.935128
-0.936634
-0.893888
-0.891443
-0.865539
-0.858594
-0.834134
-0.801636
-0.821512
-0.850732
-0.843403
-0.882484
-0.873878
-0.775641
-0.749893
-0.723904
-0.697768
-0.673285
-0.652298
-0.634906
-0.620003
-0.606457
-0.593677
-0.581624
-0.570468
-0.560364
-0.551222
-0.542776
-0.534653
-0.526652
-0.518815
-0.511416
-0.504701
-0.498676
-0.49318
-0.495452
-0.501998
-0.505525
-0.50919
-0.510567
-0.511252
-0.512653
-0.513374
-0.51484
-0.516141
-0.517925
-0.487253
-0.960289
-0.935051
-0.917444
-0.907729
-0.9026
-0.897079
-0.88859
-0.880125
-0.880994
-0.899786
-0.930697
-0.954522
-0.958536
-0.948441
-0.935555
-0.950086
-0.950458
-0.953898
-0.953697
-0.95373
-0.952909
-0.950569
-0.951593
-0.948513
-0.947273
-0.943592
-0.945155
-0.86407
-0.85715
-0.834996
-0.828712
-0.8075
-0.773301
-0.794657
-0.82286
-0.816915
-0.849693
-0.841823
-0.748783
-0.725352
-0.700952
-0.676244
-0.653555
-0.634422
-0.618601
-0.604896
-0.592299
-0.580369
-0.569147
-0.558797
-0.549389
-0.540761
-0.53265
-0.524805
-0.5172
-0.509977
-0.503336
-0.49732
-0.49181
-0.486324
-0.48777
-0.493252
-0.498074
-0.50153
-0.504221
-0.507137
-0.506625
-0.512429
-0.511391
-0.511461
-0.512269
-0.480541
-0.938711
-0.917852
-0.907461
-0.9037
-0.90208
-0.897655
-0.889807
-0.886669
-0.899099
-0.925831
-0.950693
-0.958376
-0.948679
-0.933153
-0.923287
-0.93736
-0.940642
-0.953088
-0.951657
-0.954979
-0.954665
-0.954139
-0.954883
-0.953937
-0.952995
-0.950311
-0.951632
-0.832592
-0.826493
-0.811089
-0.804452
-0.777994
-0.745723
-0.761092
-0.798465
-0.790186
-0.821173
-0.816064
-0.724585
-0.702727
-0.679331
-0.656112
-0.635404
-0.618202
-0.603881
-0.591241
-0.579433
-0.568184
-0.557617
-0.547876
-0.538974
-0.530723
-0.522918
-0.515439
-0.50836
-0.501811
-0.495847
-0.490369
-0.485105
-0.479798
-0.480699
-0.485371
-0.489494
-0.491874
-0.494236
-0.496706
-0.499248
-0.502069
-0.505281
-0.509668
-0.506257
-0.474294
-0.916498
-0.903901
-0.899096
-0.899402
-0.899515
-0.895699
-0.892329
-0.900109
-0.921986
-0.94596
-0.956252
-0.948281
-0.931162
-0.917939
-0.910653
-0.927136
-0.930876
-0.939978
-0.943158
-0.949392
-0.958145
-0.952818
-0.951593
-0.955704
-0.955714
-0.954755
-0.955558
-0.812048
-0.804048
-0.780052
-0.771637
-0.746391
-0.721983
-0.735342
-0.761467
-0.750299
-0.800323
-0.789366
-0.70205
-0.680821
-0.658668
-0.63744
-0.618935
-0.603604
-0.590623
-0.578835
-0.567596
-0.556838
-0.546759
-0.537487
-0.528989
-0.521089
-0.513651
-0.506644
-0.500161
-0.494243
-0.488824
-0.483707
-0.478706
-0.473761
-0.474373
-0.478329
-0.482092
-0.483872
-0.485912
-0.487866
-0.490011
-0.491756
-0.494113
-0.496565
-0.499237
-0.502198
-0.505078
-0.509152
-0.503438
-0.468654
-0.900283
-0.892629
-0.89158
-0.894222
-0.895452
-0.895401
-0.901615
-0.919257
-0.940981
-0.952492
-0.946456
-0.928803
-0.912447
-0.903232
-0.896676
-0.915155
-0.919564
-0.930891
-0.935275
-0.941763
-0.942761
-0.945564
-0.944472
-0.962652
-0.954686
-0.951818
-0.801485
-0.778528
-0.769282
-0.741664
-0.724086
-0.699816
-0.713026
-0.73167
-0.759815
-0.753208
-0.798972
-0.788083
-0.680046
-0.659801
-0.639367
-0.620363
-0.604076
-0.590521
-0.578614
-0.567376
-0.55648
-0.546066
-0.536387
-0.527529
-0.519423
-0.511915
-0.504926
-0.498457
-0.49255
-0.487159
-0.482144
-0.477349
-0.472744
-0.468234
-0.468639
-0.472042
-0.475413
-0.476672
-0.478576
-0.480365
-0.482312
-0.483502
-0.485436
-0.487355
-0.489485
-0.491601
-0.493974
-0.496489
-0.499193
-0.463411
-0.887629
-0.882865
-0.884175
-0.88865
-0.893422
-0.901376
-0.916839
-0.936084
-0.947638
-0.943135
-0.925625
-0.906676
-0.894721
-0.887949
-0.880656
-0.901696
-0.906615
-0.919414
-0.924679
-0.932754
-0.93413
-0.938392
-0.937217
-0.777043
-0.767591
-0.741995
-0.737077
-0.721115
-0.702936
-0.677332
-0.691256
-0.710133
-0.726743
-0.732057
-0.757911
-0.749844
-0.658601
-0.639776
-0.621398
-0.604828
-0.590834
-0.578766
-0.567532
-0.556538
-0.54583
-0.535715
-0.526431
-0.518
-0.51032
-0.503262
-0.496771
-0.490831
-0.485421
-0.480444
-0.475779
-0.471387
-0.467271
-0.463143
-0.46341
-0.466672
-0.469657
-0.470544
-0.472145
-0.473597
-0.475347
-0.476164
-0.477958
-0.479707
-0.481597
-0.483211
-0.485101
-0.487047
-0.489159
-0.458459
-0.876752
-0.873867
-0.877529
-0.885704
-0.897064
-0.912931
-0.9308
-0.942004
-0.938616
-0.92158
-0.900738
-0.885697
-0.877587
-0.871367
-0.861477
-0.88631
-0.891972
-0.906353
-0.912279
-0.921429
-0.923078
-0.928283
-0.926821
-0.72098
-0.716264
-0.701041
-0.679316
-0.655792
-0.667942
-0.68854
-0.705929
-0.713325
-0.638176
-0.620901
-0.604796
-0.591018
-0.579109
-0.568009
-0.557006
-0.546048
-0.535508
-0.525741
-0.5169
-0.508933
-0.501718
-0.495139
-0.489135
-0.483662
-0.478658
-0.474039
-0.469771
-0.465875
-0.462207
-0.458223
-0.458418
-0.461928
-0.464644
-0.46583
-0.467232
-0.468285
-0.469706
-0.470222
-0.471561
-0.472924
-0.474543
-0.475864
-0.477583
-0.479339
-0.481179
-0.866869
-0.866391
-0.87393
-0.887693
-0.905384
-0.923588
-0.935145
-0.932964
-0.916824
-0.894792
-0.876829
-0.866426
-0.860189
-0.852674
-0.840479
-0.864584
-0.872259
-0.890411
-0.8968
-0.89849
-0.908483
-0.910338
-0.916286
-0.914555
-0.702737
-0.695675
-0.675916
-0.657292
-0.63523
-0.646989
-0.664566
-0.682691
-0.68899
-0.702424
-0.618374
-0.602901
-0.590159
-0.579191
-0.568623
-0.557825
-0.546734
-0.535789
-0.525509
-0.516172
-0.50782
-0.500341
-0.493598
-0.487481
-0.481913
-0.476833
-0.472188
-0.467957
-0.464169
-0.460747
-0.457273
-0.459908
-0.461652
-0.462895
-0.463904
-0.465219
-0.466089
-0.467123
-0.468033
-0.469163
-0.470074
-0.471279
-0.472616
-0.474147
-0.858783
-0.862262
-0.874821
-0.893394
-0.912725
-0.925799
-0.925743
-0.91126
-0.888966
-0.868582
-0.855442
-0.848033
-0.841597
-0.832233
-0.818437
-0.842828
-0.850687
-0.86687
-0.870817
-0.876646
-0.880945
-0.892979
-0.892057
-0.902749
-0.901271
-0.700415
-0.693135
-0.675623
-0.669826
-0.653821
-0.637029
-0.61498
-0.627071
-0.64382
-0.658657
-0.664174
-0.680584
-0.686989
-0.599108
-0.58757
-0.578338
-0.56897
-0.55879
-0.547829
-0.536584
-0.525771
-0.515872
-0.507028
-0.499181
-0.492179
-0.485882
-0.480176
-0.474986
-0.470263
-0.466001
-0.462232
-0.458923
-0.45576
-0.459648
-0.460972
-0.462319
-0.463294
-0.464198
-0.465275
-0.4663
-0.467168
-0.468005
-0.468979
-0.854219
-0.862375
-0.878561
-0.897764
-0.912587
-0.915737
-0.9043
-0.883038
-0.861184
-0.845355
-0.835999
-0.829366
-0.821637
-0.810656
-0.795962
-0.820735
-0.82867
-0.845
-0.848743
-0.85432
-0.85846
-0.86976
-0.874785
-0.880403
-0.885931
-0.895385
-0.897574
-0.673225
-0.667361
-0.653173
-0.648064
-0.634188
-0.617511
-0.593561
-0.606115
-0.624815
-0.638422
-0.643412
-0.656311
-0.661726
-0.583193
-0.576086
-0.568559
-0.559563
-0.549162
-0.537888
-0.526592
-0.516059
-0.50662
-0.498282
-0.490917
-0.484356
-0.478455
-0.473113
-0.468274
-0.463933
-0.460129
-0.456844
-0.453826
-0.460249
-0.461417
-0.46273
-0.463647
-0.464537
-0.465476
-0.853921
-0.864979
-0.880883
-0.895676
-0.90194
-0.894864
-0.876446
-0.854497
-0.836541
-0.82491
-0.817198
-0.80986
-0.800631
-0.78872
-0.774915
-0.797703
-0.806117
-0.823273
-0.827062
-0.832719
-0.836814
-0.848109
-0.852633
-0.85775
-0.862902
-0.871709
-0.877019
-0.882606
-0.888528
-0.650591
-0.64579
-0.633821
-0.629551
-0.61589
-0.594088
-0.577748
-0.579239
-0.603944
-0.621094
-0.62634
-0.636401
-0.641186
-0.572584
-0.566915
-0.559662
-0.550361
-0.539544
-0.528009
-0.516819
-0.50666
-0.497705
-0.489852
-0.482929
-0.476759
-0.471212
-0.466215
-0.461759
-0.457881
-0.454568
-0.451605
-0.460583
-0.461734
-0.856298
-0.866481
-0.877785
-0.884848
-0.882009
-0.868058
-0.847925
-0.828963
-0.815254
-0.805994
-0.798196
-0.78951
-0.779115
-0.76737
-0.753316
-0.77608
-0.783326
-0.799593
-0.803742
-0.810261
-0.8146
-0.826729
-0.831447
-0.836632
-0.841643
-0.850284
-0.854948
-0.859869
-0.865213
-0.631566
-0.628203
-0.617973
-0.612077
-0.591255
-0.571285
-0.568359
-0.582047
-0.598703
-0.605293
-0.620035
-0.627024
-0.564187
-0.558691
-0.551015
-0.541232
-0.529954
-0.518252
-0.507263
-0.497526
-0.489045
-0.481639
-0.475109
-0.469292
-0.46409
-0.45948
-0.45549
-0.452112
-0.449154
-0.85794
-0.863359
-0.867434
-0.866401
-0.857008
-0.840481
-0.822233
-0.807155
-0.796266
-0.78754
-0.778663
-0.768625
-0.757718
-0.745955
-0.734649
-0.755313
-0.762511
-0.775576
-0.781917
-0.785809
-0.790035
-0.802384
-0.808016
-0.814159
-0.819749
-0.829146
-0.834099
-0.8391
-0.844251
-0.618853
-0.610985
-0.591345
-0.585033
-0.569315
-0.564273
-0.565977
-0.560693
-0.571295
-0.579229
-0.596829
-0.603941
-0.616914
-0.556572
-0.550609
-0.542439
-0.532084
-0.520328
-0.50855
-0.497863
-0.488574
-0.480545
-0.473544
-0.467373
-0.46191
-0.457101
-0.452963
-0.449487
-0.4465
-0.855448
-0.854017
-0.850805
-0.843665
-0.83116
-0.815382
-0.800288
-0.788159
-0.778357
-0.768935
-0.758661
-0.747641
-0.736604
-0.726556
-0.717035
-0.737911
-0.744737
-0.75791
-0.760965
-0.765144
-0.768755
-0.77511
-0.78677
-0.786084
-0.794169
-0.804462
-0.810566
-0.816589
-0.822502
-0.616791
-0.609295
-0.589262
-0.582564
-0.574357
-0.568533
-0.566753
-0.564219
-0.557363
-0.560653
-0.565818
-0.56355
-0.553833
-0.576615
-0.595309
-0.602456
-0.549097
-0.542724
-0.533923
-0.522813
-0.510586
-0.498875
-0.488567
-0.479733
-0.472124
-0.465499
-0.459694
-0.454635
-0.450313
-0.446712
-0.443656
-0.846995
-0.83894
-0.830325
-0.820054
-0.807412
-0.793852
-0.7815
-0.770801
-0.760663
-0.749903
-0.738341
-0.726846
-0.716766
-0.708347
-0.699505
-0.720565
-0.727366
-0.741009
-0.744107
-0.748586
-0.751996
-0.760928
-0.764202
-0.767887
-0.771529
-0.791871
-0.788327
-0.796866
-0.587475
-0.58081
-0.570978
-0.563326
-0.561468
-0.557479
-0.551055
-0.553953
-0.560902
-0.560695
-0.546635
-0.574771
-0.541761
-0.534794
-0.525115
-0.513133
-0.500648
-0.489193
-0.479337
-0.470943
-0.46373
-0.457491
-0.45211
-0.447558
-0.443795
-0.44064
-0.832837
-0.820136
-0.808831
-0.797977
-0.786721
-0.775461
-0.76463
-0.753896
-0.742564
-0.730365
-0.717942
-0.706742
-0.697875
-0.690458
-0.682067
-0.703103
-0.70994
-0.723778
-0.726923
-0.731519
-0.734904
-0.744292
-0.747787
-0.751822
-0.755736
-0.557036
-0.557753
-0.550755
-0.544039
-0.545843
-0.554025
-0.550685
-0.539987
-0.534548
-0.526656
-0.515726
-0.50309
-0.490626
-0.479559
-0.470145
-0.462167
-0.455363
-0.449575
-0.444725
-0.440753
-0.43747
-0.814734
-0.799899
-0.788148
-0.778285
-0.768882
-0.759042
-0.748403
-0.736648
-0.72381
-0.710427
-0.697758
-0.687308
-0.679475
-0.672889
-0.664805
-0.685612
-0.692464
-0.706257
-0.709453
-0.714104
-0.717548
-0.727094
-0.73071
-0.734901
-0.738893
-0.553964
-0.556253
-0.549295
-0.546918
-0.54347
-0.538135
-0.539719
-0.545023
-0.542679
-0.552358
-0.54912
-0.533179
-0.526931
-0.517558
-0.505692
-0.492794
-0.480581
-0.469934
-0.46095
-0.453408
-0.447087
-0.44186
-0.437622
-0.434167
-0.794922
-0.780031
-0.769264
-0.760887
-0.75272
-0.743239
-0.731775
-0.718566
-0.704375
-0.690353
-0.677986
-0.668411
-0.661632
-0.655741
-0.647862
-0.668206
-0.675044
-0.68866
-0.691857
-0.696526
-0.700009
-0.709522
-0.713201
-0.717463
-0.721557
-0.54698
-0.545122
-0.542042
-0.54021
-0.538309
-0.531964
-0.535383
-0.53918
-0.53745
-0.543455
-0.541435
-0.526532
-0.518439
-0.507886
-0.495419
-0.482476
-0.470543
-0.460299
-0.451765
-0.444742
-0.439024
-0.434449
-0.43076
-0.775193
-0.761347
-0.751895
-0.744691
-0.737037
-0.726971
-0.714253
-0.699661
-0.684548
-0.670438
-0.658741
-0.650296
-0.644552
-0.639114
-0.631363
-0.651082
-0.657815
-0.671117
-0.674321
-0.678962
-0.682446
-0.691845
-0.695526
-0.699812
-0.703956
-0.539972
-0.538734
-0.537498
-0.536154
-0.533859
-0.526242
-0.530971
-0.535762
-0.534479
-0.53791
-0.536695
-0.518273
-0.509025
-0.497775
-0.484943
-0.472032
-0.460425
-0.450636
-0.442666
-0.436299
-0.431278
-0.42729
-0.756499
-0.743942
-0.73556
-0.728821
-0.720786
-0.709785
-0.695798
-0.680161
-0.664695
-0.651062
-0.640481
-0.633284
-0.628317
-0.623072
-0.615363
-0.634415
-0.640957
-0.653873
-0.65704
-0.661573
-0.665051
-0.674223
-0.677896
-0.682162
-0.686293
-0.536041
-0.535368
-0.534663
-0.533933
-0.529488
-0.518091
-0.524778
-0.532732
-0.53334
-0.535138
-0.53458
-0.509559
-0.499626
-0.487516
-0.474258
-0.461456
-0.45025
-0.441056
-0.4338
-0.428184
-0.423797
-0.738972
-0.727245
-0.71918
-0.712297
-0.703707
-0.691688
-0.676728
-0.660589
-0.64542
-0.632829
-0.623626
-0.617511
-0.612937
-0.607574
-0.599776
-0.618305
-0.624603
-0.637141
-0.640209
-0.644594
-0.648006
-0.656925
-0.660542
-0.664705
-0.66881
-0.53471
-0.536479
-0.532299
-0.529935
-0.520571
-0.509677
-0.514993
-0.527381
-0.524671
-0.533273
-0.536628
-0.500593
-0.489447
-0.476589
-0.463172
-0.450687
-0.4401
-0.431691
-0.425264
-0.420349
-0.72217
-0.71066
-0.702478
-0.695152
-0.685806