/*--------------------------------*- C++ -*----------------------------------*\
| =========                 |                                                 |
| \\      /  F ield         | OpenFOAM: The Open Source CFD Toolbox           |
|  \\    /   O peration     | Version:  v1912                                 |
|   \\  /    A nd           | Website:  www.openfoam.com                      |
|    \\/     M anipulation  |                                                 |
\*---------------------------------------------------------------------------*/
FoamFile
{
    version     2.0;
    format      ascii;
    class       surfaceScalarField;
    location    "20";
    object      phi;
}
// * * * * * * * * * * * * * * * * * * * * * * * * * * * * * * * * * * * * * //

dimensions      [0 3 -1 0 0 0 0];
oriented        oriented;


internalField   nonuniform List<scalar> 
7200
(
-0.000141848
0.0100476
-0.000233682
0.0100548
3.04371e-05
0.0100184
-0.000333117
0.0100676
4.45871e-05
0.0100391
0.000238166
0.00984134
-0.000441496
0.0100843
3.40469e-05
0.0100756
0.00038446
0.00989214
0.00051132
0.00943279
-0.000558812
0.0101025
-6.24747e-06
0.010122
0.000478163
0.00998045
0.000854255
0.00954911
0.000966449
0.00860424
-0.000686269
0.0101199
-7.75428e-05
0.0101714
0.000508348
0.0100901
0.00108879
0.00974504
0.00162906
0.0088861
0.00184487
0.00342395
0.00350898
-0.000819933
0.0101348
-0.000178702
0.010218
0.000474674
0.0102037
0.00119605
0.00998157
0.00205573
0.00931725
0.00301667
0.00375763
0.00395603
0.000939582
0.00260627
0.00165094
0.00279756
-0.000962292
0.010147
-0.000304517
0.0102588
0.000382146
0.0103084
0.00118393
0.0102148
0.00222414
0.00981102
0.00373957
0.00859145
0.00228036
0.00312824
0.0027736
0.00346151
0.00137042
0.000675617
0.000694311
0.00245565
0.000928597
0.000784304
-0.00110743
0.0101561
-0.000452581
0.010292
0.000242271
0.0103976
0.00107299
0.0104176
0.00218022
0.010257
0.00386
0.00968764
-0.00375187
0.00724515
0.00366071
0.00420972
0.00319601
0.00115026
0.00123745
0.00290562
0.000468516
0.000277749
0.000862828
0.000300692
-0.00126789
0.00158038
0.000617026
0.000379361
-0.00125966
0.0101625
-0.000615886
0.0103182
6.26031e-05
0.0104694
0.000888179
0.0105815
0.00198805
0.0106069
0.00362295
0.0104904
0.00667941
0.0102487
0.00585771
-0.00530553
0.00170847
0.00139989
0.00571411
0.00435228
0.00190425
0.000826594
0.00216354
0.000978155
-0.00214624
0.00105806
0.000852049
0.000316261
0.000617317
-0.000996677
0.00161433
-0.00140992
0.0101655
-0.00079423
0.0103376
-0.000144519
0.0105248
0.000647128
0.0107084
0.00170006
0.0108675
0.00321247
0.011013
0.00573228
0.0114351
-0.00541751
0.0101156
0.00529993
0.00596303
-0.00265626
0.00283003
0.00153455
-0.00222844
0.000972229
-0.00211861
0.00212493
0.00175809
0.00178734
0.000653796
0.00061932
-0.00212545
0.00095535
-0.00127321
-0.00156782
0.0101685
-0.000980431
0.0103514
-0.000375565
0.0105663
0.000368197
0.0108034
0.00134855
0.0110564
0.00271477
0.0113608
0.00475336
0.0119862
0.00823789
0.0133102
0.00448122
-0.00201715
0.00438041
-0.00154521
0.00453071
0.00591333
-0.00192756
0.00134327
-0.00095535
-0.00168241
0.00179003
-0.00134327
0.00141874
0.000653894
-0.00172095
0.0101688
-0.00117651
0.0103615
-0.000621603
0.0105978
5.93019e-05
0.0108729
0.000960277
0.0111896
0.00217576
0.0115898
0.00385523
0.0122554
0.00644583
0.0137765
-0.00318308
0.00736407
0.0136602
0.00250023
0.00312667
-0.000538781
-0.000707943
-0.000983952
0.00122867
0.00523067
0.00043478
-0.00187883
0.0101672
-0.00137394
0.0103668
-0.000882187
0.0106197
-0.000265494
0.0109228
0.000546798
0.0112822
0.00162399
0.0117364
0.0030319
0.0124065
0.00496427
0.0137343
0.0061654
0.0149762
-0.0019378
0.0045255
0.0122946
-0.00121833
0.00112804
-0.000141848
0.002218
-7.64233e-05
-0.00095547
0.000416695
-0.00043478
0.00442109
-0.0020312
0.010167
-0.00158125
0.0103709
-0.00115115
0.0106369
-0.00060681
0.0109584
0.000123323
0.0113444
0.00107227
0.0118273
0.0022726
0.0124913
0.00377329
0.0135954
0.00489427
0.0150068
0.00451139
0.0149934
0.00239996
0.0106233
-0.000221844
-0.000505142
-0.000501228
0.00370511
0.000274876
0.00175296
-7.77462e-06
-2.78142e-05
0.000198502
-0.00218812
0.010165
-0.00178653
0.0103735
-0.00143192
0.010649
-0.000956471
0.0109874
-0.000311462
0.0113885
0.000527319
0.0118841
0.00156113
0.0125314
0.00278194
0.0134801
0.00377296
0.0147184
0.0038892
0.0156321
0.00302403
0.0143709
0.00126976
0.00948298
-8.54527e-05
-5.13876e-05
-0.00326017
0.00296259
7.60125e-05
-5.95328e-05
0.00159847
1.91012e-05
7.63828e-05
-0.000170688
0.000163026
-0.00233723
0.0101626
-0.00199983
0.0103747
-0.00171618
0.0106593
-0.00131881
0.0110083
-0.000748478
0.0114229
-1.15982e-05
0.0119196
0.000891882
0.0125482
0.0019206
0.0133904
0.00280829
0.0144466
0.00313068
0.0154806
0.00288808
0.01577
0.00201514
0.0136233
0.000787531
0.0088245
-8.8977e-05
-5.20123e-05
-0.00285448
0.00277072
-4.876e-06
5.54664e-05
0.00150935
7.33736e-05
9.1778e-05
0.000182177
0.000258709
-0.00249065
0.0101593
-0.00221066
0.0103749
-0.00201117
0.0106665
-0.00168584
0.0110274
-0.00119552
0.0114501
-0.00054024
0.0119461
0.000252939
0.0125502
0.00114851
0.0133179
0.00195968
0.0142413
0.00239151
0.0151895
0.00243174
0.0159396
0.00213924
0.0156451
0.0014026
0.0130053
0.000565161
0.00839589
-7.94527e-05
-6.25837e-05
-0.00272047
0.00265143
-2.39736e-05
-4.64637e-06
-0.00152641
0.00152286
-5.3866e-06
1.2209e-06
3.34459e-05
4.11347e-06
-0.000287633
0.000334092
2.69308e-05
6.30837e-05
-0.00263451
0.0101557
-0.00242977
0.0103742
-0.0023092
0.0106745
-0.00206717
0.0110442
-0.00164472
0.0114751
-0.00107139
0.0119728
-0.000362479
0.0125559
0.000433968
0.0132624
0.00118994
0.0140899
0.00169223
0.0149448
0.00189131
0.0157325
0.00188495
0.0161938
0.00161245
0.0154331
0.00104225
0.0125259
0.00043449
0.00809241
-5.63127e-05
-7.94064e-05
-0.00260337
0.00255095
-2.82042e-05
-1.64092e-05
-0.00151407
0.00149086
-2.56358e-06
-1.81054e-06
2.28941e-06
-1.11722e-07
-0.000362496
0.000357797
-1.79327e-06
-0.000361725
-1.93113e-07
0.00035886
8.29947e-06
8.77342e-07
-6.30837e-05
8.99973e-05
-0.00278189
0.0101512
-0.00264444
0.0103718
-0.00261695
0.0106782
-0.00245036
0.0110587
-0.00210653
0.0115001
-0.00160139
0.0119995
-0.000968155
0.0125694
-0.000240938
0.0132282
0.000475875
0.0139787
0.00102877
0.0147572
0.00134573
0.0154936
0.00148642
0.0161314
0.00147946
0.0163252
0.00126156
0.0152121
0.00081066
0.0121478
0.000336831
0.00787337
-2.16397e-05
-0.000100978
-0.00249607
0.00246443
-2.51649e-05
-2.52858e-05
-0.00147313
0.00145041
-1.89555e-06
-4.95405e-06
4.11306e-08
-9.98117e-08
-0.000354143
0.000351379
-1.07278e-06
-0.000356605
-3.96839e-07
0.000357968
1.08771e-06
4.94003e-07
-9.88335e-05
9.67866e-05
-9.91027e-05
9.82253e-05
-0.00291674
0.0101478
-0.00286775
0.0103706
-0.00292764
0.0106839
-0.00284856
0.0110721
-0.0025741
0.0115245
-0.00214363
0.0120333
-0.00156959
0.0125954
-0.000895936
0.0132217
-0.000203002
0.0139094
0.00039028
0.0146221
0.000800777
0.0153052
0.001049
0.0159314
0.0011813
0.0164279
0.00119576
0.0163891
0.00102203
0.0149989
0.000636178
0.0118457
0.00023531
0.00772338
2.54306e-05
-0.000118295
-0.00239497
0.00238895
-1.6734e-05
-3.2461e-05
-0.00142761
0.00140937
1.23359e-06
-8.89019e-06
-4.18317e-06
1.42777e-06
-0.000344798
0.000343699
-9.72553e-07
-0.000349136
-1.03163e-06
0.000350108
5.13354e-07
4.07783e-07
-9.7648e-05
9.62906e-05
-9.82075e-05
9.77135e-05
-0.00305596
0.0101427
-0.00308561
0.0103676
-0.00324705
0.0106858
-0.00324931
0.0110852
-0.00305826
0.0115496
-0.0026942
0.0120692
-0.00218081
0.0126349
-0.00154434
0.0132416
-0.000859698
0.0138814
-0.000230474
0.0145338
0.000261297
0.015164
0.000602775
0.0157516
0.000826361
0.0162852
0.000965078
0.0166565
0.00100169
0.0164073
0.000839621
0.0147934
0.000479541
0.0115989
9.69015e-05
0.00762963
0.000101412
-0.00011105
-0.00230577
0.00233185
-2.20605e-06
-3.64552e-05
-0.00138058
0.00136929
5.37005e-06
-1.22427e-05
-8.84617e-06
4.52343e-06
-0.000333051
0.000334651
-4.5249e-07
-0.000340172
-1.81946e-06
0.000339623
-2.59484e-07
7.63128e-07
-9.59762e-05
9.49393e-05
-9.71102e-05
9.67025e-05
-0.00318302
0.0101398
-0.0033113
0.0103645
-0.00356554
0.0106875
-0.00366413
0.0110958
-0.00355006
0.011575
-0.00326637
0.0121123
-0.00280444
0.0126873
-0.0022006
0.0132889
-0.00151401
0.0138979
-0.000844626
0.0144991
-0.000277827
0.0150754
0.00015158
0.0156163
0.00045847
0.016118
0.000672213
0.0165755
0.000822512
0.016833
0.000859501
0.016385
0.000682164
0.0145881
0.000317203
0.0113754
-9.14791e-05
0.00751245
0.000237768
-3.72596e-05
-0.00224784
0.00231676
3.08598e-05
-2.83683e-05
-0.00133753
0.00133871
9.7903e-06
-1.47686e-05
-1.32488e-05
7.80606e-06
-0.000319523
0.000324271
2.71434e-07
-0.000329567
-2.54263e-06
0.00032665
-1.20054e-06
1.32374e-06
-9.35715e-05
9.30735e-05
-9.54171e-05
9.46539e-05
-0.00331392
0.0101348
-0.00352842
0.0103599
-0.00389067
0.0106853
-0.00407734
0.0111011
-0.0040612
0.0115999
-0.00385827
0.0121608
-0.00345789
0.012756
-0.00287743
0.0133622
-0.00217599
0.0139537
-0.00145587
0.0145127
-0.00081418
0.0150384
-0.000301852
0.0155287
8.32259e-05
0.0159891
0.000361779
0.0164253
0.000579104
0.0168164
0.000731707
0.016958
0.000744461
0.0163203
0.000537157
0.0143657
0.000158179
0.0111237
-0.000204116
0.00732295
0.000287276
0.000101678
-0.00225334
0.00234664
0.000142968
2.47365e-05
-0.00131413
0.00134284
1.57026e-05
-1.5339e-05
-1.63183e-05
1.16256e-05
-0.000306154
0.000314446
1.11641e-06
-0.000318273
-2.98513e-06
0.000312666
-2.05808e-06
1.89661e-06
-9.0524e-05
9.06879e-05
-9.3132e-05
9.18082e-05
-0.00343101
0.0101302
-0.00375015
0.010353
-0.00420545
0.0106765
-0.00449788
0.0111011
-0.00458223
0.0116202
-0.00448248
0.0122141
-0.00414371
0.0128411
-0.00359191
0.0134684
-0.00286221
0.0140511
-0.00207557
0.0145772
-0.00135376
0.0150533
-0.000759482
0.015495
-0.000296273
0.0159062
4.96589e-05
0.0162991
0.000317396
0.0166838
0.000530482
0.0170144
0.000668381
0.0170309
0.00064655
0.0162085
0.000413596
0.014108
7.06674e-05
0.0108468
-0.000118199
0.00723262
0.0001446
5.92776e-05
-0.00227902
0.00235316
0.000212569
0.000168201
-0.00135656
0.00142883
6.38346e-05
5.30135e-06
-1.44139e-05
2.46851e-05
-0.00029631
0.000309441
2.1743e-06
-0.000309078
-3.01042e-06
0.000300281
-2.66943e-06
2.46277e-06
-8.73986e-05
8.83939e-05
-9.04554e-05
8.85588e-05
-0.00355573
0.0101252
-0.00395893
0.0103427
-0.00451738
0.0106611
-0.00490976
0.0110893
-0.00511886
0.0116301
-0.00513406
0.0122659
-0.00487984
0.0129417
-0.00435763
0.013607
-0.00358294
0.0141932
-0.0027124
0.0146903
-0.00189846
0.0151235
-0.00121669
0.0155104
-0.000674998
0.0158723
-0.000264014
0.0162164
5.23102e-05
0.0165602
0.000306229
0.0169041
0.000512788
0.0171675
0.000624856
0.0170496
0.000569332
0.016051
0.00034361
0.0138335
9.66356e-05
0.0106312
2.44295e-05
0.0071834
6.81937e-05
-4.43665e-05
-0.00232237
0.00239665
7.04416e-05
8.9169e-05
-0.00142886
0.00148341
7.01968e-05
8.59734e-05
5.91933e-05
0.000107789
-0.000315778
0.000354207
2.52729e-05
-0.000315754
4.97988e-06
0.000296684
-2.09052e-06
5.32594e-06
-8.50001e-05
8.70476e-05
-8.80993e-05
8.56366e-05
-0.0036667
0.0101193
-0.00416343
0.0103262
-0.00480455
0.0106325
-0.00531243
0.0110587
-0.00565571
0.0116243
-0.00582333
0.0123087
-0.00567203
0.0130524
-0.00519905
0.0137811
-0.0043628
0.0143895
-0.00337721
0.0148621
-0.00245153
0.015245
-0.00167479
0.0155808
-0.00105529
0.0158876
-0.000577922
0.0161823
-0.00020951
0.0164744
8.45512e-05
0.0167794
0.000326149
0.0170871
0.000513552
0.0172759
0.000597136
0.017019
0.000526872
0.0158664
0.000337802
0.0135912
0.000179115
0.0104759
0.000113758
0.00710988
4.19578e-05
-8.30575e-05
-0.00235293
0.00240221
1.98696e-05
-9.66084e-07
-0.00151941
0.00157154
1.53059e-05
1.8557e-06
2.57099e-05
2.74375e-05
-0.000423218
0.000456242
3.8063e-05
-0.000399637
6.16125e-05
0.000365069
4.72222e-05
7.25359e-05
-9.5115e-05
0.000120096
-9.02107e-05
8.48848e-05
-0.00378415
0.0101091
-0.00434297
0.0103026
-0.0050705
0.0105881
-0.00568404
0.0110053
-0.00619471
0.0115897
-0.00653757
0.012333
-0.00653969
0.0131691
-0.00614086
0.0139985
-0.00521533
0.0146418
-0.00407819
0.0150947
-0.00301713
0.0154294
-0.00213526
0.0157037
-0.00143395
0.0159567
-0.000888471
0.0161955
-0.000467728
0.016438
-0.000137168
0.0166919
0.000135185
0.0169665
0.000363083
0.0172335
0.000529728
0.0173414
0.00058951
0.0169541
0.000518278
0.0156851
0.000373212
0.0133966
0.000250125
0.0103412
0.000162925
0.0070141
3.4198e-05
-0.000101142
-0.00234349
0.00238133
5.52472e-06
-2.44791e-05
-0.0015692
0.00158886
1.0175e-05
-1.06199e-05
-9.59675e-06
1.11604e-05
-0.000481556
0.000493591
4.74425e-06
-0.000481954
1.50018e-06
0.000466483
1.45512e-05
1.19203e-05
-0.000232905
0.000261222
9.24396e-06
-0.000194365
2.25722e-05
0.00016698
4.46703e-05
-0.00388265
0.0100949
-0.00450381
0.010266
-0.00528643
0.0105216
-0.00601717
0.0109161
-0.00670299
0.0115119
-0.0072777
0.0123186
-0.00749716
0.0132867
-0.00723801
0.0142662
-0.00617713
0.0149641
-0.00482661
0.0153938
-0.00359741
0.0156754
-0.00259508
0.015888
-0.00180562
0.0160738
-0.00119405
0.0162592
-0.000721765
0.0164449
-0.000349641
0.0166461
-4.94886e-05
0.0168725
0.000203975
0.0171236
0.000412105
0.0173477
0.000557053
0.0173718
0.000598219
0.0168721
0.000533028
0.0155249
0.000412112
0.0132348
0.000292346
0.0102122
0.000218881
0.00691799
7.60644e-07
-0.000127695
-0.00231236
0.00234652
1.36159e-06
-3.15987e-05
-0.00156966
0.00157881
9.38634e-06
-1.31883e-05
-1.42187e-05
9.34681e-06
-0.000484722
0.000494415
2.2507e-06
-0.000492922
-3.16755e-06
0.000485339
-2.2454e-06
3.5915e-06
-0.000283219
0.000287052
3.65468e-07
-0.000282047
2.17761e-07
0.000272345
3.21382e-06
2.14302e-06
-6.71825e-05
7.63062e-05
-4.46703e-05
-0.00398325
0.0100779
-0.00462137
0.0102159
-0.00544912
0.0104241
-0.00627128
0.0107765
-0.00716714
0.0113711
-0.00801799
0.0122463
-0.00859862
0.0134108
-0.00856
0.0146139
-0.00727999
0.0153798
-0.00563501
0.0157784
-0.00419167
0.0159926
-0.00305383
0.0161344
-0.00217209
0.016252
-0.00149325
0.0163691
-0.000968183
0.0165019
-0.000556812
0.0166488
-0.000227644
0.0168221
4.46622e-05
0.0170274
0.000277981
0.0172543
0.000466438
0.0174349
0.000590079
0.017379
0.000616478
0.0167872
0.000552942
0.0153846
0.000435087
0.0130924
0.000324224
0.010109
0.000235201
-0.000143298
0.00679204
-0.00225761
0.00218337
6.68394e-05
-3.97081e-05
-0.00155456
0.00156127
1.20974e-05
-1.73665e-05
-1.64356e-05
9.7146e-06
-0.000480366
0.000489862
1.86599e-06
-0.000490236
-3.90943e-06
0.000483247
-3.78809e-06
2.54489e-06
-0.000285064
0.000286967
-9.19318e-08
-0.000287706
-5.83464e-07
0.000284749
-9.89767e-08
6.01604e-07
-8.18404e-05
8.21349e-05
-8.16432e-05
7.95002e-05
-0.00406338
0.0100602
-0.00470238
0.0101539
-0.00552149
0.0102904
-0.00642388
0.0105711
-0.00753258
0.0111394
-0.00875769
0.012098
-0.00989867
0.0135454
-0.0102172
0.0150703
-0.0085824
0.0159222
-0.00652053
0.0162704
-0.00480805
0.016396
-0.00351214
0.0164484
-0.00252898
0.0164885
-0.00178095
0.0165364
-0.00120355
0.0166018
-0.000755088
0.0166971
-0.000399315
0.0168155
-0.000105625
0.0169684
0.000143809
0.0171577
0.000357244
0.0173624
0.000523327
0.0174989
0.000622181
0.0173722
0.000631548
0.0167075
0.000559422
0.0152611
0.000441956
0.0129759
0.000323577
0.0100206
-0.00161236
0.00365231
5.23347e-05
-6.52072e-05
0.000223502
-0.000142428
0.00672861
-0.00153537
-2.10153e-05
-2.2667e-05
6.2829e-06
-0.00047106
0.000482392
3.37887e-06
-0.000484313
-4.59338e-06
0.000477
-4.28866e-06
2.67104e-06
-0.000282717
0.000284331
-1.06809e-07
-0.000285826
-6.62909e-07
0.000283587
-3.58664e-07
4.09274e-07
-8.20353e-05
8.19181e-05
-8.26282e-05
8.20266e-05
-0.00414351
0.0100466
-0.00472951
0.01009
-0.00550255
0.0101304
-0.00641852
0.010286
-0.00773812
0.0107675
-0.00943115
0.0118081
-0.0114397
0.013625
-0.0122534
0.0155794
-0.0100517
0.0165463
-0.00744902
0.0168573
-0.00542522
0.0168917
-0.00396076
0.0168454
-0.00287365
0.0167922
-0.00205122
0.0167572
-0.00142451
0.016754
-0.000943424
0.0167854
-0.000560324
0.0168546
-0.000249361
0.0169559
1.37342e-05
0.0170972
0.000239312
0.0172715
0.000431622
0.0174515
0.000574197
0.0175441
0.000647407
0.0173563
0.000637057
0.0166294
0.000550483
0.0151536
0.000419166
0.0128792
0.000279158
0.00996308
0.00351917
5.15921e-05
-7.90157e-05
-0.000649064
0.000689526
9.17265e-06
-3.88123e-06
-0.000716328
3.5808e-06
-8.51804e-06
0.000135897
-0.000102291
0.00666701
-0.000443774
8.75463e-06
-9.14865e-06
-0.000302663
0.000460794
-2.84411e-06
2.22439e-05
-0.000278909
0.000281749
5.01911e-07
-0.000282725
-5.00127e-07
0.000280498
-3.39368e-07
6.14809e-07
-8.13659e-05
8.12789e-05
-8.19986e-05
8.15894e-05
-0.00420748
0.0100392
-0.00472364
0.0100363
-0.00537787
0.009967
-0.00622727
0.00993283
-0.0076601
0.0102031
-0.0098765
0.0111946
-0.0130451
0.0134118
-0.0144499
0.0158247
-0.0114054
0.01694
-0.00823144
0.0173387
-0.00594773
0.0173834
-0.00435789
0.0172879
-0.00318543
0.0171552
-0.00230349
0.0170398
-0.00163129
0.0169602
-0.00111593
0.0169234
-0.000710551
0.0169329
-0.00038242
0.0169854
-0.000109882
0.0170744
0.000126926
0.0172061
0.000328611
0.0173711
0.000497148
0.0175283
0.000612123
0.0175775
0.000660339
0.0173328
0.000624071
0.0165553
0.00051661
0.0150565
0.000360355
0.012797
0.000189551
0.00990704
0.00343505
5.26408e-05
-7.71264e-05
-0.000619321
0.000662093
9.48492e-06
-4.96355e-06
3.06163e-06
-1.03022e-05
-6.5958e-05
7.44253e-05
-6.99858e-05
-6.68038e-05
-7.65924e-05
3.78819e-05
-8.63456e-06
0.00666854
-6.86069e-05
-7.81751e-05
-0.000278819
-3.06229e-06
-2.60927e-07
-8.11555e-05
8.16032e-05
-8.16048e-05
8.099e-05
-0.00427775
0.0100387
-0.00468521
0.010003
-0.00518459
0.00983833
-0.00583832
0.00957898
-0.00719392
0.00946116
-0.00976549
0.0100959
-0.0142275
0.0123687
-0.0160388
0.0149997
-0.0118397
0.0162608
-0.00836435
0.0170693
-0.00609361
0.0174784
-0.00455463
0.0175802
-0.00339896
0.0175002
-0.00250247
0.0173533
-0.00180619
0.0172132
-0.00126725
0.0171094
-0.00084394
0.0170539
-0.000505217
0.0170506
-0.000222886
0.0170953
1.85424e-05
0.0171797
0.000230082
0.0173043
0.00040883
0.0174559
0.000548481
0.0175901
0.000635318
0.0176005
0.000654386
0.017303
0.000589161
0.016482
0.000452834
0.0149634
0.000270257
0.0127139
8.35839e-05
0.00986385
0.00343716
5.92913e-05
-7.31698e-05
-0.000591431
0.000634635
8.93465e-06
-4.45951e-06
3.36503e-06
-1.05424e-05
-6.26283e-05
7.15138e-05
-6.72403e-05
-6.41231e-05
-0.000113685
0.000141263
0.00663948
-8.13422e-05
-0.00434154
0.0100464
-0.00464144
0.00999098
-0.00494347
0.00976355
-0.00533002
0.00932476
-0.00631674
0.00869823
-0.00887266
0.00445705
0.00409502
-0.00664284
0.00534538
0.00471848
-0.00755097
-0.00888752
0.00657074
-0.00680269
0.00545548
-0.00591046
0.0131633
-0.00408805
-0.00695979
0.0148649
-0.00535238
0.0163377
-0.00425868
0.0171923
-0.00336389
0.0175444
-0.00258265
0.017577
-0.00192401
0.0174685
-0.00138799
0.0173301
-0.000957556
0.0172187
-0.000610031
0.0171562
-0.00032381
0.0171489
-7.82625e-05
0.0171908
0.000134218
0.0172705
0.000319846
0.0173904
0.000471478
0.0175302
0.000585637
0.0176402
0.000642484
0.0176111
0.000626589
0.0172653
0.000530285
0.016403
0.000365476
0.0148674
0.00016746
0.0126303
-3.9432e-05
0.00979231
0.00350571
0.000137886
-5.05986e-05
-0.000570725
0.000628647
8.98434e-06
-4.7848e-06
2.99002e-06
-1.00359e-05
-5.96896e-05
6.81936e-05
-6.40879e-05
-6.09714e-05
-0.000207254
0.000294562
0.00659084
-0.00441894
0.0100584
-0.00459198
0.00999916
-0.00469738
0.00974066
-0.00477186
0.00920629
-0.00524175
0.00824647
-0.00699357
0.00355234
0.00327525
-0.00620974
0.00401678
-0.00557509
0.00346593
-0.00880269
0.00526186
-0.00417778
-0.00335604
0.00150231
0.00194957
-0.00707487
0.0018947
0.00164949
-0.00503986
0.00570472
-0.00312099
0.00181944
0.00154636
-0.00178345
-0.00201562
-0.0013521
0.0018097
0.00197788
-0.00206874
0.00959334
-0.00132059
-0.00146873
0.004064
-0.000975223
-0.00335549
0.0128579
-0.00316552
0.0152355
-0.00286602
0.0166846
-0.00240457
0.0173647
-0.00190914
0.0175607
-0.00144231
0.0175213
-0.00103478
0.0174066
-0.000693688
0.0173001
-0.000407467
0.0172374
-0.000164293
0.0172293
4.87999e-05
0.0172737
0.000233544
0.0173541
0.000394227
0.0174679
0.000518484
0.0175944
0.000602681
0.0176787
0.000626132
0.0176096
0.000577176
0.017218
0.000451803
0.0163149
0.000269442
0.0147653
6.0979e-05
0.0125301
-0.00011853
0.0097072
0.0035284
0.000203156
7.55361e-05
-0.000586652
0.000706765
2.71873e-05
-1.39287e-06
5.10081e-06
-1.03677e-05
-5.69625e-05
6.62243e-05
-6.12749e-05
-5.81577e-05
-0.000173949
0.000174086
0.00658873
-0.00449979
0.0100769
-0.00456293
0.0100256
-0.00446575
0.00976879
-0.00424414
0.00920898
-0.00417883
0.00814327
-0.00478481
0.00303506
0.00299135
-0.00476682
0.00273834
-0.00367944
0.002195
-0.00626635
0.00127074
0.00138567
0.00163134
-0.00391447
-0.00317384
0.00145128
0.00295459
-0.00145128
0.00178345
-0.00343358
0.001169
-0.00154636
0.0013521
0.00107367
0.000736968
0.00158311
0.00270301
-0.000404795
-0.000299068
-0.000528222
0.00689646
-0.000130716
0.00170526
-0.000187672
-0.000135863
-0.000422716
0.00103227
-0.00132006
0.011025
-0.00179069
0.0141698
-0.00183463
0.0161202
-0.00165773
0.0171125
-0.00136894
0.0174854
-0.00104383
0.0175274
-0.000737273
0.0174467
-0.000468684
0.0173568
-0.00023113
0.0173025
-2.43763e-05
0.0172999
0.000160742
0.0173456
0.000317914
0.0174258
0.000448785
0.0175353
0.000546468
0.0176485
0.000600009
0.0177052
0.000592589
0.0175923
0.000513168
0.0171555
0.000363902
0.0162188
0.000172672
0.0146541
-1.6773e-05
0.0124294
-0.000127977
0.00966244
0.00362638
8.78133e-05
-3.40588e-06
-0.000705998
0.00082445
4.00065e-05
4.92732e-05
5.76066e-05
2.51283e-05
-6.05241e-05
8.90306e-05
-6.12304e-05
-5.58566e-05
-9.63576e-05
7.70105e-05
0.00663676
-0.00460221
0.0100974
-0.00454747
0.0100633
-0.00427726
0.00983339
-0.00378996
0.00931584
-0.00325852
0.00828574
-0.00283218
0.00301555
0.00318001
-0.00273975
0.00103389
0.00105381
-0.00165496
0.00190933
-0.00492285
0.000870449
0.000526968
-0.00179473
-0.00157766
0.00030745
0.00033773
0.00298311
-0.00277749
0.00106746
0.000935563
-0.00200364
0.000314631
0.000753596
-0.000123508
0.000530494
-7.43372e-05
0.00125228
-6.57682e-05
-8.58668e-06
-2.89046e-05
0.00540096
0.000205353
0.00113162
-3.86225e-05
2.88463e-05
0.00038357
-4.10155e-05
0.000281312
-3.33534e-05
-0.000541635
0.00976547
-0.00094648
0.013273
-0.00112617
0.0155801
-0.0011002
0.0168424
-0.000934587
0.0173755
-0.000714931
0.0175035
-0.000487234
0.0174652
-0.000273454
0.0173968
-7.83114e-05
0.0173541
9.58571e-05
0.0173588
0.000250839
0.0174102
0.000381936
0.0174904
0.000488709
0.0175935
0.000556588
0.017689
0.000579792
0.017716
0.00054076
0.0175624
0.000436169
0.0170827
0.000274317
0.0161159
9.2213e-05
0.0145454
-5.61604e-05
0.0123571
-9.92203e-05
0.00966665
0.00369852
7.63842e-05
-6.8939e-05
-0.000819141
0.000899159
1.53489e-05
-5.65619e-06
8.75433e-06
-2.56971e-06
-0.000175501
0.000206624
9.39962e-06
-0.000142182
1.70892e-05
-0.000114159
3.3121e-05
-6.38211e-05
3.43836e-05
0.00666563
-0.00471508
0.0101193
-0.00456185
0.0101082
-0.00413064
0.00991794
-0.00344554
0.00948534
-0.00256788
0.00862625
-0.00127731
0.00672758
-0.000683294
0.00204085
0.00022381
0.00227595
0.00143901
-0.00102735
0.000623412
0.000698171
-0.00045046
0.000811855
0.000268836
0.000251781
-0.00190653
-0.0013793
-0.00116648
0.000287249
0.00104157
-0.00073375
0.00106808
0.000191435
0.000117081
0.000218209
-1.19042e-06
0.000209824
2.64205e-07
0.00100067
1.87741e-05
8.45238e-05
-5.31785e-05
0.00482274
9.16211e-05
0.00109241
4.85733e-05
6.30512e-05
0.000178873
-8.8478e-06
0.0001996
8.01145e-06
7.60387e-05
4.29056e-05
-0.000132792
0.00896056
-0.000421479
0.0125752
-0.000630842
0.0151176
-0.000668823
0.0165767
-0.000588533
0.0172482
-0.000444399
0.0174583
-0.0002758
0.0174649
-0.00010693
0.0174201
5.31653e-05
0.0173945
0.000197425
0.0174098
0.00032655
0.0174653
0.000428801
0.0175459
0.000507663
0.01764
0.000549931
0.0177167
0.000545538
0.0177112
0.000479917
0.0175168
0.000356973
0.0169996
0.000193664
0.0160134
3.27451e-05
0.0144562
-6.68602e-05
0.0123241
-8.32277e-05
0.00968518
0.00373325
8.22656e-05
-7.62189e-05
-0.000843814
0.000912301
1.7599e-05
-8.50642e-06
6.77995e-06
-1.74433e-05
-0.000210435
0.000223445
1.97526e-06
-0.000213757
-1.59679e-06
-0.000205049
2.40096e-06
1.87409e-07
-5.05215e-05
6.02599e-05
-3.3121e-05
-5.43181e-05
3.50288e-05
0.00670693
-0.00485384
0.0101427
-0.00459574
0.0101545
-0.00403773
0.0100117
-0.00320168
0.00967502
-0.00212736
0.00904209
-0.000484364
0.00783592
-0.00128635
0.00309182
0.00227461
0.00286779
0.000658105
0.000398905
0.000535014
0.000868934
0.000778868
0.000268785
-7.40449e-05
0.000343603
0.000177725
-0.000446511
4.18702e-05
4.19832e-05
0.000191225
2.79386e-05
0.000229962
4.6338e-05
0.00101361
1.84288e-06
2.44855e-05
-6.62308e-05
0.00458454
0.000171834
0.00110106
3.47359e-06
0.000245765
3.1228e-05
0.000280249
2.81371e-05
3.29819e-05
4.11587e-05
9.66393e-05
0.0084303
-0.000128938
0.012062
-0.000285937
0.0147239
-0.000347294
0.0163345
-0.000312409
0.0171165
-0.000219112
0.0174003
-9.46979e-05
0.0174528
3.58714e-05
0.0174354
0.000163895
0.0174268
0.00027951
0.0174515
0.000379885
0.0175117
0.000460426
0.0175912
0.000513841
0.0176765
0.000529221
0.0177311
0.000497717
0.0176929
0.000411923
0.0174602
0.000280508
0.0169123
0.000125283
0.0159194
-6.86743e-06
0.0143954
-7.62854e-05
0.0123157
-8.36002e-05
0.00971529
0.00376869
8.36848e-05
-7.8824e-05
-0.000846357
0.00091819
1.8799e-05
-7.6501e-06
8.88333e-06
-1.79169e-05
-0.000209297
0.00022351
2.3781e-06
-0.000215664
-1.91824e-06
-0.000209219
1.84802e-06
-2.57432e-06
-6.21161e-05
6.42528e-05
-6.32222e-05
-6.04473e-05
-6.86055e-05
3.63418e-05
0.00673914
-0.00500524
0.010163
-0.00465585
0.0101994
-0.00398352
0.0101013
-0.0030516
0.00985802
-0.00187725
0.00942561
-0.000197321
0.00875188
0.00295804
0.00797
0.0032528
-0.00131421
-0.00111246
0.000882318
0.000567992
0.00333611
0.0027817
0.00074308
0.000880645
0.000398243
-0.00111689
0.000672174
0.000542847
6.93548e-05
9.6393e-05
1.93645e-05
0.000268612
1.36666e-05
0.000259582
3.39362e-05
0.00103729
-5.91658e-07
5.14575e-05
0.00445626
0.000171048
0.00111361
9.63924e-05
-0.000179301
0.000444812
7.98556e-06
-1.05284e-05
0.0001179
8.74138e-06
0.000139221
6.27393e-06
0.000172602
0.00813889
9.7355e-05
0.0116898
-2.5062e-05
0.0144134
-9.47031e-05
0.0161185
-9.04794e-05
0.016988
-2.81149e-05
0.0173321
6.05372e-05
0.0174261
0.000157633
0.0174361
0.000256098
0.0174472
0.000345456
0.0174837
0.000422628
0.0175494
0.00047827
0.0176245
0.000507542
0.0176983
0.000499601
0.0177283
0.000446574
0.0176582
0.000343833
0.0173954
0.00020934
0.0168276
6.94125e-05
0.0158416
-3.83691e-05
0.0143561
-9.20016e-05
0.0123229
-0.000101463
0.00974684
0.00380287
8.8109e-05
-8.0635e-05
-0.000851269
0.000928583
1.86625e-05
-8.68431e-06
8.62776e-06
-1.82802e-05
-0.00020944
0.000224721
2.6735e-06
-0.000215684
-1.6717e-06
-0.000208323
2.149e-06
-2.61897e-06
-6.21261e-05
6.43932e-05
-6.37402e-05
-6.16785e-05
-8.43015e-05
5.04132e-05
0.00678543
-0.00517515
0.0101781
-0.00473233
0.0102403
-0.00397358
0.0101859
-0.00297268
0.0100231
-0.00177042
0.00974791
-0.000162956
0.00939205
0.00239565
0.00931124
-0.00227503
0.00532283
0.00379583
0.00446348
-0.000941465
0.000502058
-0.00107019
0.000998304
0.000953909
-0.000502058
-0.000661052
0.00127428
0.000891329
0.000398618
1.92835e-05
0.000147895
5.53817e-06
2.90497e-06
0.000444292
-9.93707e-06
1.1523e-05
0.00107665
8.55301e-05
2.20648e-05
0.00447557
0.000130836
0.00115819
8.87856e-05
0.000502283
4.01967e-05
-1.65112e-06
-3.23414e-05
4.03765e-05
-4.27843e-05
2.79164e-05
3.42631e-05
0.000269938
0.00795012
0.000225848
0.0114227
0.000135626
0.0141703
9.3461e-05
0.0159364
9.71723e-05
0.0168643
0.000133209
0.0172577
0.000193392
0.0173895
0.000261065
0.017429
0.000333152
0.0174586
0.000396328
0.0175069
0.000451282
0.0175772
0.000485713
0.0176472
0.000493227
0.0177061
0.000461539
0.0177124
0.000388546
0.0176132
0.000277382
0.017326
0.000147123
0.0167489
2.06009e-05
0.0157809
-7.02912e-05
0.0143332
-0.00011704
0.0123374
-0.000124934
0.00978781
0.00383902
9.09913e-05
-7.79695e-05
-0.000859821
0.000937907
1.97315e-05
-8.52736e-06
9.31689e-06
-1.93664e-05
-0.000210922
0.000227325
2.80808e-06
-0.000217167
-1.6676e-06
-0.000209476
2.12581e-06
-2.65951e-06
-6.24276e-05
6.50264e-05
-6.39607e-05
-6.17743e-05
-0.000106434
5.61226e-05
0.00683381
-0.00535233
0.0101899
-0.00483042
0.0102729
-0.00399197
0.0102593
-0.00295521
0.0101649
-0.00175632
0.0100092
-0.000267456
0.00984902
0.00180281
0.00998479
0.00421281
0.0104165
0.00179702
-0.0006826
0.00318481
-0.000504404
0.00201452
0.00424392
0.000292814
-0.000505555
0.00109676
-0.000292814
0.00067824
3.98794e-05
3.05552e-05
4.21949e-05
0.000523479
1.81239e-05
4.50883e-05
0.001151
3.11522e-05
4.40063e-05
0.00449953
0.00020198
0.00122911
5.35791e-05
0.000586472
1.88073e-05
6.35445e-06
-4.05438e-05
8.08576e-05
0.000334435
0.0078585
0.000307353
0.0112702
0.000284925
0.0139966
0.000262018
0.0157739
0.000257337
0.0167408
0.000271354
0.0171783
0.000303108
0.0173452
0.000346078
0.0174121
0.000395453
0.0174598
0.000439434
0.0175209
0.000474524
0.0175917
0.000485992
0.0176546
0.000470849
0.0176969
0.000417142
0.0176828
0.000331458
0.0175587
0.000216402
0.0172554
9.01227e-05
0.0166783
-2.31052e-05
0.0157322
-0.000105386
0.0143202
-0.00014771
0.0123592
-0.000155219
0.00983513
0.00388035
9.10306e-05
-7.48684e-05
-0.000869314
0.000947369
2.01295e-05
-7.66367e-06
1.01261e-05
-1.88066e-05
-0.00021304
0.000229611
2.94841e-06
-0.000219498
-1.66847e-06
-0.000211304
2.14112e-06
-2.86048e-06
-6.3225e-05
6.62636e-05
-6.46231e-05
-6.23669e-05
-0.000127944
6.87353e-05
0.00690418
-0.00554164
0.0101971
-0.00494069
0.0103004
-0.00404616
0.0103239
-0.00298144
0.0102859
-0.0018118
0.0102166
-0.000437753
0.0101789
0.00126766
0.0103804
0.00317675
0.0110219
-0.00128646
0.00344925
0.0102659
0.000960133
0.00265192
-0.000153115
-0.000277114
-0.00031773
0.0009096
0.00391702
0.00036044
8.11865e-05
1.76444e-05
0.000113057
1.28143e-05
0.000611691
-6.54637e-06
1.35432e-05
0.00120888
6.16177e-05
7.20363e-05
0.00456342
0.000194031
0.00128238
0.000129416
0.00065978
1.68349e-05
-1.10014e-05
-0.000117897
0.000132759
3.49645e-06
1.16582e-06
0.000275928
0.00784514
0.000338757
0.0111731
0.000387381
0.0138547
0.000403721
0.0156292