/*--------------------------------*- C++ -*----------------------------------*\
| =========                 |                                                 |
| \\      /  F ield         | OpenFOAM: The Open Source CFD Toolbox           |
|  \\    /   O peration     | Version:  v1912                                 |
|   \\  /    A nd           | Website:  www.openfoam.com                      |
|    \\/     M anipulation  |                                                 |
\*---------------------------------------------------------------------------*/
FoamFile
{
    version     2.0;
    format      ascii;
    class       surfaceScalarField;
    location    "390";
    object      phi;
}
// * * * * * * * * * * * * * * * * * * * * * * * * * * * * * * * * * * * * * //

dimensions      [0 3 -1 0 0 0 0];
oriented        oriented;


internalField   nonuniform List<scalar> 
7354
(
-3.55976e-06
0.00134717
-1.32627e-05
0.00413228
-2.80465e-06
0.00134998
-3.39115e-05
0.00695005
-1.35444e-05
0.00414302
-3.84389e-06
0.00135382
-6.14427e-05
0.00968762
-3.36045e-05
0.00697011
-1.42338e-05
0.0041534
-2.79472e-06
0.00135661
-9.49318e-05
0.0121654
-6.04451e-05
0.00971446
-3.20711e-05
0.00698795
-1.15733e-05
0.00416218
-2.83289e-06
0.00135944
-0.00014346
0.0141812
-9.47766e-05
0.0121997
-5.59641e-05
0.00973835
-3.04176e-05
0.00700679
-1.15218e-05
0.00417087
-2.81829e-06
0.00136225
-0.000184837
0.0155119
-0.000136907
0.0142234
-9.18501e-05
0.0122356
-5.55701e-05
0.0097635
-2.59664e-05
0.00702123
-1.13616e-05
0.00417941
-1.82191e-06
0.00136408
-0.000236614
0.0160072
-0.000186016
0.015561
-0.000132877
0.0142644
-8.61362e-05
0.0122661
-4.5824e-05
0.00978336
-2.27882e-05
0.00703266
-9.3729e-06
0.00418696
-1.7684e-06
0.00136584
-0.000276628
0.0155677
-0.000230336
0.0160515
-0.000177338
0.0156054
-0.000120652
0.0142989
-7.13541e-05
0.0122917
-4.15661e-05
0.00980213
-1.97868e-05
0.00704307
-7.31479e-06
0.00419251
-1.66642e-06
0.00136751
-0.000314273
0.0142472
-0.000279156
0.0156165
-0.000218798
0.0160929
-0.000150751
0.0156355
-9.96537e-05
0.0143272
-6.40665e-05
0.0123142
-3.72686e-05
0.00981962
-1.82765e-05
0.00705403
-6.43972e-06
0.00419728
-1.72091e-06
0.00136923
-0.00033952
0.012163
-0.000321116
0.0142892
-0.000258812
0.0156566
-0.00018624
0.0161284
-0.000130051
0.0156659
-8.27712e-05
0.0143459
-5.23274e-05
0.0123292
-2.7795e-05
0.00982914
-1.53128e-05
0.00706291
-6.94861e-06
0.00420251
-1.73936e-06
0.00137097
-0.000343402
0.00952544
-0.00035198
0.0121939
-0.000277169
0.0143076
-0.000206199
0.0156765
-0.000148271
0.0161467
-0.000104244
0.0156874
-6.93126e-05
0.0143629
-4.26394e-05
0.0123441
-2.73228e-05
0.00984115
-1.19582e-05
0.00706792
-4.34829e-06
0.00420512
-1.34207e-06
0.00137231
-0.000114254
0.00654719
-0.000193728
-0.000372544
0.00954601
-0.000286791
0.0122035
-0.000211566
0.0143129
-0.000159292
0.0156875
-0.000112741
0.0161552
-7.88871e-05
0.015697
-5.1245e-05
0.0143715
-3.56636e-05
0.0123524
-1.81545e-05
0.00984734
-1.20226e-05
0.00707559
-6.06766e-06
0.00420984
-7.18139e-07
0.00137303
0.00215249
-8.41523e-05
-0.000200845
0.00655265
-0.000177157
0.00211079
-0.000152028
-0.000259675
0.00951889
-0.000190784
0.0121827
-0.000150848
0.0143045
-0.000110125
0.0156849
-8.72054e-05
0.0161635
-6.4886e-05
0.0157106
-4.53018e-05
0.0143811
-3.07676e-05
0.012365
-2.27685e-05
0.00985809
-1.15413e-05
0.00708106
-4.83661e-06
0.00421396
-1.45146e-06
0.00137448
0.00137932
-2.49708e-05
0.00209311
-0.000183171
-0.000130128
0.00648278
-5.96739e-05
0.00206935
-0.00015339
0.00132125
-6.22221e-05
-3.17344e-05
-0.000141104
0.00946921
-0.000119148
0.012151
-9.51793e-05
0.0142895
-7.91179e-05
0.0156768
-6.23716e-05
0.016161
-4.58595e-05
0.0157112
-3.94845e-05
0.0143899
-2.56446e-05
0.0123679
-1.72587e-05
0.0098638
-1.24014e-05
0.00708863
-5.61306e-06
0.00421812
-2.22856e-06
0.00137671
0.000431493
-9.7048e-06
0.00130404
-8.34057e-05
-8.2553e-05
0.00202104
-8.18236e-05
-4.5732e-05
0.00639821
-1.07989e-05
0.00199769
-3.63241e-05
0.00125954
-3.8921e-05
-6.99708e-05
-0.000417674
0.000390696
-3.52445e-05
-1.79151e-05
-6.78091e-05
0.00941787
-6.50567e-05
0.0121209
-6.19877e-05
0.0142724
-5.0766e-05
0.0156652
-4.33526e-05
0.0161585
-3.77333e-05
0.0157094
-3.18998e-05
0.0143961
-2.50932e-05
0.0123757
-2.17244e-05
0.00987313
-1.34984e-05
0.00709651
-7.66944e-06
0.00422356
-1.20914e-06
0.00137792
0.000252786
-1.55738e-06
0.000365233
-5.7942e-05
0.00034395
-6.127e-05
0.00120669
-2.19437e-05
-7.0292e-06
0.00196915
-1.71877e-05
-1.65064e-05
0.00634737
-4.63675e-07
0.00196454
-6.18934e-06
0.00117637
-7.97972e-07
-5.20342e-06
-0.000320936
0.000301988
-1.9973e-05
-4.69571e-05
-0.000238836
0.000213355
-9.76316e-06
-3.96495e-06
-3.50056e-05
0.00938782
-3.85747e-05
0.0120975
-3.70567e-05
0.0142587
-3.79861e-05
0.0156599
-3.20057e-05
0.0161527
-3.35432e-05
0.0157111
-2.63845e-05
0.0143974
-2.87091e-05
0.0123827
-2.10925e-05
0.00988072
-1.55128e-05
0.00710436
-7.4352e-06
0.00422979
-2.885e-06
0.0013808
7.47103e-05
0.00017609
-2.0677e-05
0.000155125
-4.03052e-05
0.00028673
-6.68558e-06
0.000281813
-2.11222e-06
0.00116064
-1.79083e-06
3.30352e-07
0.00195148
-3.45368e-06
-6.86904e-06
0.00631521
4.02415e-06
0.00195206
-1.03492e-06
0.00115445
1.05005e-06
-1.04739e-06
-0.00027711
0.000276715
-4.03269e-07
-5.00474e-07
-0.000108168
8.81948e-05
-7.07454e-05
6.09822e-05
-1.4612e-05
0.00936386
-2.3536e-05
0.012084
-2.47631e-05
0.0142455
-2.2464e-05
0.0156503
-2.9249e-05
0.0161484
-2.58968e-05
0.0157106
-3.69653e-05
0.0144057
-3.37165e-05
0.0123953
-2.71963e-05
0.00989241
-1.85847e-05
0.00711551
-1.03496e-05
0.00423725
-1.9591e-06
0.00138276
4.03052e-05
8.15092e-05
7.93969e-05
0.000274965
-4.10341e-08
0.000275429
-1.32965e-07
0.00115101
-5.00853e-07
4.81554e-07
0.00194589
-7.04521e-07
-4.21701e-06
0.00630114
3.67452e-06
0.00194903
8.84889e-07
0.0011497
2.59689e-07
2.46484e-08
-0.000274236
0.000275082
2.03482e-07
1.4591e-07
-7.88965e-05
7.84932e-05
-6.19118e-06
0.00934651
-6.76259e-06
0.012066
-1.25291e-05
0.0142355
-2.00678e-05
0.0156411
-2.53982e-05
0.0161479
-3.70208e-05
0.0157106
-3.4228e-05
0.0144062
-3.68175e-05
0.012405
-3.09146e-05
0.00990474
-2.02855e-05
0.00712544
-1.07649e-05
0.00424605
-2.66195e-06
0.00138542
7.84522e-05
7.83192e-05
0.000274807
-2.25327e-07
0.000275098
1.89794e-07
0.00114868
-8.8408e-08
4.014e-07
0.00194489
-7.24039e-08
-9.1142e-07
0.00629396
1.89805e-06
0.00194796
6.02573e-07
0.00114945
-1.59655e-07
2.7085e-07
-0.000274986
0.00027518
6.57009e-08
1.3688e-07
-7.84651e-05
7.86686e-05
-1.67695e-07
0.00933992
-6.40991e-06
0.0120599
-1.08497e-05
0.0142263
-1.4812e-05
0.0156305
-2.77769e-05
0.0161387
-4.11293e-05
0.0157175
-5.07854e-05
0.0144201
-4.38316e-05
0.0124179
-3.6634e-05
0.00992108
-2.5714e-05
0.00714039
-1.12246e-05
0.00425462
-3.42848e-06
0.00138885
7.84433e-05
7.86331e-05
0.000275081
1.09346e-08
0.000275404
7.82326e-08
0.00114883
2.11836e-07
3.32963e-07
0.00194719
-1.37459e-07
6.18343e-07
0.00629119
1.98781e-06
0.00194771
1.36983e-06
0.00114944
1.40849e-07
-1.48091e-07
-0.000275719
0.000275525
3.45757e-08
-4.36151e-08
-7.87699e-05
7.88356e-05
-3.38811e-07
0.00933385
4.11256e-07
0.0120486
-6.23984e-06
0.0142178
-2.54105e-05
0.0156282
-3.88452e-05
0.0161364
-4.98821e-05
0.0157166
-5.85828e-05
0.0144349
-5.77494e-05
0.012439
-4.66309e-05
0.009942
-2.7204e-05
0.00715637
-1.12824e-05
0.00426247
-2.36744e-06
0.00139121
7.88466e-05
7.89249e-05
0.000275785
-4.83346e-08
0.000275995
1.23106e-07
0.00114858
3.32073e-07
3.91171e-07
0.00194809
2.46408e-07
4.79247e-07
0.00628846
1.91184e-06
0.00194862
1.44996e-06
0.00115002
2.53499e-07
-3.19651e-07
-0.000275687
0.00027587
-4.24506e-08
1.59508e-07
-7.88813e-05
7.89159e-05
5.51069e-06
0.00932875
6.62876e-07
0.0120417
-1.01281e-05
0.0142025
-2.46969e-05
0.015614
-4.95174e-05
0.016136
-6.68174e-05
0.0157249
-7.22628e-05
0.0144494
-6.79027e-05
0.0124603
-4.96201e-05
0.00996441
-2.96569e-05
0.00717474
-1.42987e-05
0.0042744
-3.08114e-06
0.00139429
7.88675e-05
7.89906e-05
0.000276189
1.37189e-08
0.000276719
-1.38561e-07
0.0011503
-3.10248e-07
2.72871e-07
0.00194819
9.17719e-07
2.01477e-06
0.00628946
2.49117e-06
0.0019498
2.9505e-07
0.00115123
1.96957e-07
3.29407e-07
-0.000276256
0.00027647
4.01991e-08
1.42933e-07
-7.91501e-05
7.91077e-05
2.27344e-06
0.00932714
-2.67692e-06
0.0120343
-1.94047e-05
0.0141972
-4.26845e-05
0.0156072
-6.95606e-05
0.0161388
-9.10252e-05
0.0157436
-9.60668e-05
0.0144776
-7.91596e-05
0.0124898
-5.44632e-05
0.00998922
-3.01215e-05
0.00719056
-1.22479e-05
0.00428356
-3.39856e-06
0.00139769
7.91215e-05
7.89829e-05
0.000276229
-6.98352e-08
0.000276403
9.95456e-08
0.00115198
-1.5654e-07
3.24171e-07
0.00195052
1.29616e-06
1.98797e-06
0.00628936
3.87706e-07
0.00195186
1.15306e-06
0.00115183
2.60933e-07
1.79405e-07
-0.000276572
0.000277013
-2.44506e-07
1.60083e-07
-7.91259e-05
7.91661e-05
2.13857e-06
0.00932232
-5.91104e-06
0.0120208
-2.30093e-05
0.0141775
-5.86141e-05
0.0155963
-9.05901e-05
0.0161383
-0.000111003
0.0157586
-0.000106559
0.014505
-8.61469e-05
0.0125215
-5.9364e-05
0.0100185
-3.2816e-05
0.00721113
-1.35617e-05
0.00429373
-2.85894e-06
0.00140055
7.90963e-05
7.91958e-05
0.000276856
9.5117e-10
0.000277035
1.45021e-07
0.00115307
-2.75401e-07
3.3106e-07
0.00195364
2.12541e-07
1.95036e-06
0.00628758
1.9748e-06
0.00195267
1.35395e-06
0.00115424
-2.8439e-07
2.75471e-07
-0.000277121
0.000277353
2.94845e-08
9.37513e-08
-7.93559e-05
7.91114e-05
-1.8432e-07
0.0093166
-1.33195e-05
0.0120111
-4.54385e-05
0.0141643
-8.76806e-05
0.0155933
-0.000128074
0.0161554
-0.000138004
0.01579
-0.000128935
0.0145478
-9.53302e-05
0.0125575
-5.89992e-05
0.0100446
-3.19635e-05
0.00722953
-1.14482e-05
0.00430232
-1.94087e-06
0.0014025
7.91124e-05
7.92574e-05
0.000277069
8.04195e-09
0.000277291
1.08679e-07
0.00115377
3.24796e-07
3.53973e-07
0.00195375
8.67537e-07
1.86897e-06
0.00628503
4.9309e-07
0.00195532
4.02698e-07
0.00115514
-1.75235e-07
1.59605e-07
-0.000277463
0.000277443
-2.63917e-07
1.03782e-07
-7.93512e-05
7.93807e-05
-2.43124e-06
0.00930571
-2.39499e-05
0.0119896
-6.98223e-05
0.0141465
-0.000126209
0.0155915
-0.000162781
0.0161802
-0.000170186
0.0158313
-0.000135699
0.0145881
-9.82943e-05
0.0125968
-6.07216e-05
0.0100734
-2.84979e-05
0.00724658
-1.09803e-05
0.00431136
-1.79209e-06
0.00140429
7.93887e-05
7.94974e-05
0.00027774
2.77835e-08
0.000277919
1.75228e-07
0.00115549
3.444e-07
1.75054e-07
0.00195605
1.14853e-06
1.94715e-06
0.00628009
5.66116e-07
0.00195615
3.86249e-07
0.00115593
1.61511e-07
-2.05362e-07
-0.000278018
0.000277811
3.18142e-08
6.05675e-08
-7.96011e-05
7.93372e-05
-8.51845e-06
0.00929028
-4.51974e-05
0.011965
-0.000109406
0.0141297
-0.000170425
0.0155991
-0.000205082
0.0162151
-0.000182807
0.0158784
-0.000142617
0.0146324
-9.59198e-05
0.012632
-5.14859e-05
0.0100964
-2.41064e-05
0.00725971
-8.76545e-06
0.00431834
-1.44248e-06
0.00140573
7.9365e-05
7.95403e-05
0.000278092
6.34308e-08
0.000278209
5.74001e-08
0.00115644
3.33323e-07
3.06332e-07
0.00195711
9.89665e-07
1.92811e-06
0.00627044
-7.99958e-07
0.00195729
3.89136e-07
0.0011569
2.65851e-07
-3.37432e-07
-0.000277918
0.000278321
-2.41801e-07
8.65409e-08
-7.96009e-05
7.96327e-05
-1.77764e-05
0.00926286
-7.66769e-05
0.0119322
-0.000161543
0.0141208
-0.00022862
0.0156227
-0.000230247
0.0162625
-0.000196569
0.0159323
-0.000142147
0.0146787
-8.60237e-05
0.0126665
-4.67614e-05
0.0101191
-2.06556e-05
0.0072716
-5.81749e-06
0.00432271
-3.87129e-07
0.00140612
7.96962e-05
7.97536e-05
0.000278596
5.86718e-08
0.000278789
1.12935e-07
0.00115782
3.47526e-07
-2.76232e-07
0.00195795
1.26861e-06
2.026e-06
0.00625315
-2.51259e-06
0.00195704
1.06027e-07
0.00115772
1.55029e-07
3.34806e-07
-0.000278367
0.000278659
-2.53792e-08
8.49432e-08
-7.98401e-05
7.95983e-05
-3.84701e-05
0.00922465
-0.000130415
0.0119011
-0.00023454
0.0141267
-0.000275446
0.0156679
-0.000248689
0.0163147
-0.000187802
0.015978
-0.000126254
0.0147189
-7.31884e-05
0.0126929
-3.87719e-05
0.0101372
-1.70656e-05
0.00728285
-3.4577e-06
0.00432578
-2.29475e-07
0.00140635
7.9657e-05
7.977e-05
0.000278936
6.97266e-08
0.00027854
1.20452e-07
0.00115881
3.08084e-07
-1.27438e-07
0.00195874
3.24735e-07
2.02974e-06
0.00622102
-8.37026e-06
0.00195604
1.90147e-07
0.00115893
-1.46964e-07
1.31295e-07
-0.000279018
0.000279104
6.90083e-08
-1.44003e-07
-7.9855e-05
7.98296e-05
-7.69881e-05
0.00917122
-0.000204994
0.0118716
-0.000299086
0.0141503
-0.000296123
0.0157153
-0.00023444
0.0163613
-0.000168945
0.0160207
-0.000107314
0.014753
-6.33043e-05
0.0127175
-3.24565e-05
0.0101526
-9.90612e-06
0.0072893
-2.65184e-06
0.0043282
7.77613e-07
0.00140557
7.98994e-05
8.00198e-05
0.000279403
9.4925e-09
0.000279231
4.51238e-08
0.00115878
3.13288e-07
1.63811e-07
0.0019576
4.67711e-07
-8.47155e-07
0.00616375
-1.88637e-05
0.00195092
-1.69213e-06
0.00115893
-2.90241e-07
3.30908e-07
-0.000279245
0.00027909
8.13444e-09
1.16691e-07
-7.98758e-05
7.99448e-05
-0.000146449
0.00911268
-0.000312946
0.0118854
-0.000341503
0.0141957
-0.000284362
0.0157652
-0.000209194
0.0164015
-0.00014122
0.0160546
-8.72403e-05
0.014777
-4.79708e-05
0.012733
-1.99018e-05
0.0101626
-5.99423e-06
0.00729264
1.33464e-06
0.00432765
1.16649e-06
0.0014044
7.99543e-05
7.99995e-05
0.000279391
1.25e-08
0.00027945
1.05133e-07
0.00115917
3.18979e-07
-9.63639e-08
0.00195165
-1.57452e-06
-1.06484e-05
0.00607421
-4.62647e-05
0.00193695
-4.1646e-06
0.00115744
-1.04987e-07
1.44832e-07
-0.000279913
0.000279562
5.98461e-08
-1.32253e-07
-8.01161e-05
8.01243e-05
-0.000277857
0.00907759
-0.000369781
0.0119137
-0.000318369
0.0142297
-0.000237693
0.0157937
-0.000169036
0.0164294
-0.000107453
0.0160748
-6.40745e-05
0.0147931
-3.41229e-05
0.0127472
-1.15069e-05
0.0101681
-1.20463e-06
0.00729518
2.92989e-06
0.00432588
1.5152e-06
0.00140289
8.01368e-05
8.02419e-05
0.000279865
1.68314e-08
0.000279715
5.36326e-08
0.0011558
3.09822e-07
-2.47437e-07
0.0019336
-7.29129e-06
-5.41466e-05
0.00597256
-0.000122062
0.00190357
-1.62346e-05
0.00115156
-2.35562e-07
3.11813e-07
-0.00027974
0.000279828
-1.92615e-07
1.19412e-07
-8.01096e-05
8.01695e-05
-0.000386353
0.00909417
-0.000337098
0.0119324
-0.000252614
0.0142447
-0.000183103
0.0158078
-0.000123422
0.0164453
-8.01072e-05
0.0160908
-4.26551e-05
0.0148016
-1.74275e-05
0.0127531
-4.95233e-06
0.0101718
2.89606e-06
0.00729522
3.46627e-06
0.00432393
2.81851e-06
0.00140007
8.01863e-05
8.024e-05
0.000280123
1.43266e-08
0.000279771
1.05106e-07
0.00114447
3.69184e-07
-5.66302e-07
0.00187921
-2.97912e-05
-0.00017125
0.00596728
-0.000209814
0.00182072
-6.35695e-05
0.00112967
-1.55531e-06
1.18611e-07
-0.000280018
0.000279713
6.95798e-08
6.47077e-08
-8.03594e-05
8.01668e-05
-0.000334018
0.00909109
-0.000238905
0.0119187
-0.000174904
0.0142365
-0.000128838
0.0158132
-8.85428e-05
0.0164538
-5.58522e-05
0.016104
-2.97203e-05
0.0148139
-1.08163e-05
0.012759
3.67271e-06
0.010171
6.42043e-06
0.00729226
7.07473e-06
0.00431967
3.37789e-06
0.00139669
8.01811e-05
8.02862e-05
0.00028003
5.2646e-08
0.000279576
-1.12652e-07
0.00110396
-4.32676e-07
-3.64453e-06
0.00178337
-0.000133906
-0.000180478
0.00591169
-9.79562e-05
0.00175143
-0.000177867
0.00105325
-1.08981e-05
-1.96756e-06
-0.000279524
0.000278215
-2.46579e-07
1.70747e-07
-8.03509e-05
8.04205e-05
-0.000182844
0.00903503
-0.000146763
0.0118906
-0.000116417
0.014224
-8.39432e-05
0.0158086
-5.73205e-05
0.0164552
-3.17194e-05
0.016106
-1.39212e-05
0.014817
-3.16634e-07
0.012763
7.81694e-06
0.0101696
1.28893e-05
0.00728645
9.99429e-06
0.00431305
3.79403e-06
0.00139289
8.04732e-05
8.03606e-05
0.000277992
-2.08945e-07
0.000274568
-2.21065e-07
0.000972021
-1.45746e-05
-3.80978e-05
0.00170678
-0.000135826
-6.22126e-05
0.00580891
-1.78508e-05
0.00166659
-5.77659e-05
0.000924581
-6.65127e-05
-6.39141e-05
-0.000273191
0.000264105
-1.8119e-06
-5.90679e-07
-8.05313e-05
8.02848e-05
-8.5252e-05
0.00897352
-8.11743e-05
0.0118553
-6.90371e-05
0.0142091
-5.21166e-05
0.0158034
-3.35503e-05
0.0164571
-1.52303e-05
0.0161073
-5.57579e-07
0.0148172
1.19571e-05
0.0127588
1.58079e-05
0.0101667
1.44776e-05
0.00728196
9.51032e-06
0.00430734
4.81537e-06
0.00138807
8.00758e-05
7.98548e-05
0.0002536
-4.06873e-06
0.000225711
-1.02092e-05
0.000857517
-4.90402e-05
-1.97221e-05
0.00162741
-2.3032e-05
-1.8342e-05
0.00574185
1.51051e-07
0.00161674
-7.18083e-06
0.000807851
-1.35274e-06
-6.74582e-06
-0.000184329
0.000158459
-4.06431e-05
-2.25313e-05
-7.92641e-05
7.74522e-05
-4.03589e-05
0.00893271
-4.28323e-05
0.0118291
-3.81156e-05
0.0141951
-2.89875e-05
0.0157988
-1.58189e-05
0.0164577
-2.89414e-06
0.0161097
1.294e-05
0.0148163
1.58465e-05
0.0127588
2.06585e-05
0.0101605
1.75335e-05
0.00727394
1.35911e-05
0.00429856
5.06542e-06
0.00138301
7.33836e-05
6.31744e-05
0.000109419
8.9697e-05
0.000785524
-7.31363e-07
2.67182e-08
0.00160205
-3.65449e-06
-7.2624e-06
0.00570546
3.29562e-06
0.00160256
-3.58024e-07
0.000778335
2.83373e-07
-2.74947e-07
-8.29512e-05
8.15986e-05
-4.06431e-05
-1.79757e-05
0.00890785
-2.16999e-05
0.0118127
-1.83856e-05
0.0141845
-7.3662e-06
0.0157904
4.95288e-07
0.0164543
1.27371e-05
0.0161099
1.58715e-05
0.0148162
2.52945e-05
0.0127542
2.4884e-05
0.0101532
2.31817e-05
0.00726435
1.5665e-05
0.00428796
5.87768e-06
0.00137713
8.08673e-05
8.08941e-05
0.000774605
-4.37456e-08
1.201e-07
0.00159631
-1.00897e-06
-4.36523e-06
0.00568797
3.88559e-06
0.00159848
1.1223e-06
0.000774188
1.15437e-07
-5.61726e-08
-8.06191e-05
8.09026e-05
-4.52625e-06
0.00889068
-8.26919e-06
0.0118026
-3.49487e-06
0.0141807
3.47038e-06
0.0157874
1.41799e-05
0.0164528
1.99233e-05
0.0161058
3.17968e-05
0.0148097
3.25744e-05
0.0127465
3.24623e-05
0.0101439
2.77552e-05
0.00725225
1.74086e-05
0.00427643
6.80526e-06
0.00137033
8.08589e-05
8.0979e-05
0.000772917
1.00713e-07
1.62073e-07
0.00159403
9.03554e-08
-2.1037e-06
0.00568208
3.46972e-06
0.00159783
7.92043e-08
0.000773962
1.91869e-07
-1.1379e-07
-8.09229e-05
8.10384e-05
-2.39919e-07
0.00888265
2.23473e-06
0.0117969
5.50406e-06
0.0141786
1.18382e-05
0.0157898
2.39685e-05
0.0164488
3.06589e-05
0.016107
3.19379e-05
0.0148104
3.61858e-05
0.0127427
3.4907e-05
0.0101368
3.11419e-05
0.00723852
2.06912e-05
0.00426254
7.79399e-06
0.00136253
8.11392e-05
8.13014e-05
0.000773891
8.66151e-08
7.44688e-08
0.00159538
3.56066e-07
-9.76126e-07
0.00568006
2.75266e-06
0.00159797
8.72965e-07
0.000774084
3.2885e-08
-1.4606e-07
-8.11876e-05
8.13796e-05
2.70958e-06
0.00888218
8.89266e-06
0.0117935
1.57465e-05
0.0141747
2.31763e-05
0.0157906
2.70811e-05
0.0164524
4.05433e-05
0.0160984
4.6283e-05
0.0148003
4.84014e-05
0.0127292
4.27532e-05
0.0101251
3.59413e-05
0.00722327
2.31353e-05
0.0042472
8.76389e-06
0.00135377
8.14662e-05
8.15407e-05
0.000774324
5.7757e-08
5.94201e-08
0.00159717
-1.73866e-07
5.12013e-08
0.00567994
2.78936e-06
0.00159903
8.97276e-07
0.000775271
4.71883e-08
-1.20023e-07
-8.13947e-05
8.14277e-05
7.17138e-06
0.0088839
1.39552e-05
0.0117953
1.83139e-05
0.0141796
3.22063e-05
0.0157854
4.2165e-05
0.0164507
4.70211e-05
0.0160976
4.95959e-05
0.0147991
5.36405e-05
0.0127184
5.06881e-05
0.0101104
4.1348e-05
0.00720506
2.69306e-05
0.00422904
9.64323e-06
0.00134413
8.14855e-05
8.15451e-05
0.000774965
6.30389e-08
6.9516e-08
0.00159842
6.56674e-07
1.4383e-07
0.00568408
2.88473e-06
0.00160061
6.07023e-07
0.000775835
-5.80538e-08
8.54387e-08
-8.1425e-05
8.14724e-05
8.47966e-06
0.00888938
1.5404e-05
0.0117982
2.78816e-05
0.0141839
3.53885e-05
0.0157922
4.4163e-05
0.0164536
5.44323e-05
0.0160928
6.17315e-05
0.014791
6.07052e-05
0.0127083
5.82836e-05
0.0100935
4.52197e-05
0.00718677
3.00175e-05
0.00420866
1.09813e-05
0.00133315
8.15355e-05
8.1605e-05
0.000776352
6.54662e-08
7.54583e-08
0.00160006
6.91585e-07
1.33445e-06
0.00568817
3.05902e-06
0.0016023
6.43101e-07
0.000776849
5.17102e-08
5.91855e-08
-8.16905e-05
8.16326e-05
1.04518e-05
0.00889433
1.98625e-05
0.0118062
2.90344e-05
0.0141903
4.19544e-05
0.0157944
5.52583e-05
0.0164528
6.28169e-05
0.0160917
7.10375e-05
0.0147807
7.01831e-05
0.0126964
6.58907e-05
0.0100728
5.39962e-05
0.00716279
3.2519e-05
0.00418712
1.18879e-05
0.00132126
8.16982e-05
8.17738e-05
0.000777606
-1.18027e-07
5.32239e-08
0.00160291
7.27842e-07
3.84685e-07
0.00569518
3.05931e-06
0.00160517
7.98506e-07
0.000778137
5.60672e-08
5.70841e-08
-8.18329e-05
8.18849e-05
1.17211e-05
0.00890247
2.18634e-05
0.0118134
3.53237e-05
0.0141969
4.67704e-05
0.0158029
6.17154e-05
0.0164539
7.23163e-05
0.0160904
7.78028e-05
0.014773
8.42751e-05
0.0126781
7.54818e-05
0.0100513
6.05084e-05
0.0071348
3.78332e-05
0.00416118
1.21819e-05
0.00130908
8.17669e-05
8.18201e-05
0.000778671
6.76643e-08
1.27733e-07
0.0016048
7.6263e-07
1.47492e-06
0.00570231
3.11111e-06
0.00160711
7.42779e-07
0.000779459
9.36623e-08
-8.28186e-08
-8.18772e-05
8.19335e-05
1.17742e-05
0.00891256
2.44617e-05
0.0118242
4.14457e-05
0.0142022
5.88321e-05
0.0158058
7.20847e-05
0.0164541
8.57186e-05
0.0160825
9.35075e-05
0.0147638
9.28835e-05
0.0126606
8.60884e-05
0.0100257
6.6321e-05
0.00710631
4.03029e-05
0.00413306
1.05983e-05
0.00129848
8.20012e-05
8.21291e-05
0.000780076
7.20495e-08
7.38922e-08
0.00160782
7.7407e-07
3.21978e-07
0.00571102
2.75099e-06
0.00161017
7.55666e-07
0.000780884
4.92245e-08
-1.13824e-07
-8.20463e-05
8.21401e-05
1.31185e-05
0.00892391
2.84722e-05
0.0118372
4.60474e-05
0.014215
6.52221e-05
0.0158126
8.08704e-05
0.0164589
9.39801e-05
0.016082
0.000105603
0.0147511
0.000101738
0.012645
9.52377e-05
0.00999681
7.55017e-05
0.00707112
4.30597e-05
0.0041006
1.31951e-05
0.00128528
8.22122e-05
8.22861e-05
0.000781521
6.7693e-08
7.0806e-08
0.00160982
6.71436e-07
8.65124e-07
0.00572212
1.14603e-06
0.00161211
4.61699e-07
0.000782332
-1.12078e-07
5.69237e-08
-8.21723e-05
8.22217e-05
1.62594e-05
0.00893611
3.29455e-05
0.0118503
5.53259e-05
0.0142249
7.16255e-05
0.0158219
9.24909e-05
0.0164604
0.000107915
0.0160797
0.000117139
0.0147357
0.000120094
0.0126201
0.000106863
0.00996545
8.14168e-05
0.00703276
4.36303e-05
0.00407016
3.16928e-05
0.00125359
8.22895e-05
8.23604e-05
0.000782861
6.3082e-08
8.00053e-08
0.00161311
-1.34857e-07
2.05735e-06
0.00573372
2.60611e-06
0.00161606
-1.80446e-06
0.000783124
1.12839e-07
8.61114e-08
-8.24173e-05
8.23054e-05
1.99773e-05
0.00894909
3.97057e-05
0.0118659
5.89616e-05
0.0142376
8.28529e-05
0.0158315
0.000105775
0.0164626
0.000123739
0.0160731
0.000132852
0.0147229
0.000128778
0.0125982
0.000116232
0.00993063
8.68096e-05
0.00698958
7.42603e-05
0.00402759
7.38899e-05
8.23685e-05
8.24485e-05
0.000783084
3.34641e-08
-1.27851e-07
0.00162163
-3.50877e-06
4.16679e-06
0.00574405
5.47531e-06
0.0016192
6.51404e-06
-1.47466e-06
0.000781277
1.10616e-08
-8.53199e-09
-8.25346e-05
8.26476e-05
2.44162e-05
0.00896437
4.17521e-05
0.0118831
6.68616e-05
0.0142536
9.21018e-05
0.0158452
0.000115618
0.0164707
0.000134946
0.016071
0.000146829
0.0147049
0.000148038
0.0125664
0.000129942
0.0098875
0.000114892
0.00694895
0.000135801
8.26811e-05
8.25533e-05
0.000461022
-1.00585e-08
-2.47194e-07
0.000317003
0.00162192
-5.57306e-07
2.00239e-06
5.22963e-06
0.00575776
5.48038e-06
0.00162366
1.40502e-06
2.32564e-06
0.000486256
-1.87209e-05
0.000491646
-6.86418e-06
-8.25448e-05
8.25559e-05
2.40904e-05
0.00898204
4.88091e-05
0.0119012
7.501e-05
0.0142706
0.000107852
0.015853
0.00013549
0.0164702
0.000154928
0.0160629
0.000165278
0.0146876
0.000162119
0.0125342
0.000155087
0.00984731
0.000179177
8.25458e-05
8.22985e-05
0.000295214
3.06858e-06
0.000493468
-2.37974e-06
0.000496175
-7.04298e-07
0.00162578
1.25557e-06
1.85529e-06
4.38268e-06
0.00577316
4.3085e-06
0.00162907
7.74179e-07
1.41618e-06
0.000497019
5.6094e-07
0.000498131
1.21364e-06
0.000289714
-1.36445e-06
2.74285e-05
0.00900341
5.34427e-05
0.0119228
8.57177e-05
0.0142928
0.000117198
0.0158713
0.000145859
0.0164792
0.000171581
0.0160566
0.000177905
0.0146718
0.000187167
0.0125022
0.00021083
8.53671e-05
0.000288397
-1.0629e-06
0.000288062
-3.6972e-07
0.00049873
6.57031e-07
0.000499786
7.99474e-07
0.0016315
6.1554e-07
1.3421e-06
5.59867e-06
0.00579023
4.76207e-06
0.00163411
6.48842e-07
1.04589e-06
0.000500332
2.27428e-07
0.000500951
7.97692e-07
0.000288568
5.52831e-08
0.000289688
9.40264e-08
8.40026e-05
3.02072e-05
0.00902665
6.17813e-05
0.0119467
9.72552e-05
0.0143127
0.000134745
0.0158824
0.000165866
0.0164849
0.000183238
0.0160513
0.000208092
0.0146509
0.000229194
8.29397e-05
8.257e-05
0.00029008
2.64945e-07
0.000290629
2.50271e-07
0.000500911
6.54922e-07
0.000502036
2.17418e-07
0.00163781
7.50095e-07
1.14621e-06
6.08549e-06
0.00580912
5.22968e-06
0.00164068
7.35738e-07
1.15914e-06
0.000502277
4.07688e-07
0.000502786
5.37362e-07
0.000290668
1.88692e-07
0.000291303
1.62555e-07
8.26253e-05
8.27194e-05
3.62404e-05
0.00905219
6.82786e-05
0.0119757
0.000109702
0.0143378
0.000147996
0.0159002
0.00017632
0.0164919
0.000211666
0.0160477
0.000234778
8.29843e-05
8.32346e-05
0.0002918
1.58562e-07
0.000292061
-4.44011e-08
0.000503213
3.2315e-07
0.000503905
4.53642e-07
0.0016447
8.33174e-07
1.23532e-06
5.72291e-06
0.00583371
5.92978e-06
0.00164792
8.14727e-07
1.19599e-06
0.000504175
4.65894e-07
0.000505123
2.11564e-07
0.000292351
1.17898e-07
0.000292773
1.15402e-07
8.34233e-05
8.35859e-05
3.89746e-05
0.0090815
8.07488e-05
0.0120046
0.000124762
0.014361
0.000161369
0.0159152
0.000200218
0.0165033
0.000223852
8.37445e-05
8.37001e-05
0.000292975
1.21914e-07
0.000293298
1.29706e-07
0.000505178
7.77427e-07
0.000505911
5.0304e-07
0.0016512
9.14766e-07
1.52349e-06
7.53879e-06
0.0058586
6.54114e-06
0.00165507
7.31321e-07
1.3273e-06
0.000506644
8.09369e-08
0.000507236
6.03997e-07
0.000293804
-3.96236e-08
0.000293878
1.36909e-07
8.3818e-05
8.39334e-05
4.67128e-05
0.00911553
9.13647e-05
0.012038
0.00013461
0.0143878
0.000175596
0.0159398
0.000199055
8.40553e-05
8.4185e-05
0.00029447
1.86302e-07
0.000294823
1.498e-07
0.000507375
7.75729e-07
0.000508755
1.43984e-07
0.00165984
1.09114e-06
1.67732e-06
8.98087e-06
0.00588858
7.75951e-06
0.00166392
9.30089e-07
1.52881e-06
0.000508981
5.04898e-07
0.000509634
6.74527e-07
0.00029478
1.2355e-07
0.000295445
-6.13624e-08
8.41453e-05
8.42823e-05
5.56026e-05
0.00915129
0.000106915
0.0120657
0.000146635
0.0144167
0.000160397
8.44686e-05
8.46184e-05
0.000296081
1.40459e-07
0.000296096
1.28398e-07
0.000510261
4.64206e-07
0.000511328
6.0958e-07
0.0016697
1.30165e-06
1.90128e-06
1.00684e-05
0.00592422
9.89278e-06
0.00167458
1.16265e-06
1.72423e-06
0.000511648
6.10425e-07
0.000512668
5.08968e-07
0.000296406
1.95393e-07
0.000297108
-2.73865e-08
8.47419e-05
8.46805e-05
7.01749e-05
0.00918803
0.000111973
0.0121004
0.000117718
8.4821e-05
8.49494e-05
0.000297418
1.53603e-07
0.000297862
1.65367e-07
0.000513116
8.5398e-07
0.000514286
7.30507e-07
0.00168096
2.10683e-06
1.57919e-06
1.37009e-05
0.00596607
1.46199e-05
0.00168753
1.9265e-06
1.39288e-06
0.000515133
3.15398e-07
0.000515894
9.63374e-07
0.000298298
1.74346e-07
0.000298629
1.78103e-07
8.51447e-05
8.51174e-05
8.20192e-05
0.00921799
7.3963e-05
8.52709e-05
8.54363e-05
0.000299258
2.2511e-07
0.00029996
2.84284e-08
0.000517057
9.44141e-07
0.000518226
4.10433e-07
0.00169623
2.51366e-06
2.48633e-06
1.9181e-05
0.0060056
2.33109e-05
0.00170453
2.88045e-06
3.44593e-06
0.000519346
8.06384e-07
0.000519703
1.03656e-06
0.000300094
1.81354e-07
0.000300869
1.88438e-07
8.56106e-05
8.57888e-05
4.43946e-05
8.60139e-05
8.60423e-05
0.000301607
2.06901e-07
0.000301812
2.04817e-07
0.000521133
1.08334e-06
0.000522986
6.33106e-07
0.00171548
4.08757e-06
4.13752e-06
4.24947e-05
1.56805e-05
0.0017264
4.9251e-06
7.46926e-06
0.00052464
1.22683e-06
0.000526146
1.93959e-06
0.00030259
2.91659e-08
0.00030343
1.96633e-07
8.62237e-05
8.64121e-05
8.6619e-05
8.68239e-05
0.000304286
2.26569e-07
0.000304678
2.41628e-07
0.000528509
1.7249e-06
0.00053038
2.2674e-06
0.00174406
1.00098e-05
1.48229e-05
2.1444e-05
8.86899e-06
0.000532833
2.47141e-06
0.000536571
3.73165e-06
0.000305603
3.0146e-07
0.00030716
3.83119e-07
8.6853e-05
8.70497e-05
8.72763e-05
8.7518e-05
0.000308458
4.27122e-07
0.000310122
6.02877e-07
0.00053966
6.9218e-06
0.000544142
1.03416e-05
0.000550333
1.52528e-05
1.33531e-05
0.000311992
6.0232e-07
0.000314736
9.8733e-07
8.78194e-05
8.82026e-05
8.86298e-05
8.92327e-05
0.000319617
2.04098e-06
0.000325215
4.74444e-06
0.000330458
1.00105e-05
2.05824e-05
8.98351e-05
9.08225e-05
9.28636e-05
9.76082e-05
0.000107619
1.377e-05
-1.37709e-05
-5.9062e-05
2.00895e-05
5.27403e-05
7.10665e-06
-2.08784e-05
-7.13874e-05
1.94309e-05
-0.000117762
2.69413e-05
0.000110908
1.63234e-05
3.64152e-05
3.5195e-06
-2.43988e-05
1.19052e-05
-7.9774e-05
-0.000128077
2.97441e-05
-2.29866e-05
-0.00040846
6.40729e-05
0.000394307
0.000104244
6.88538e-06
2.95279e-05
1.55873e-06
-2.59577e-05
1.87402e-05
-0.000134913
7.01082e-06
-8.52269e-05
6.74536e-05
-0.000427434
-4.15475e-05
-0.00142788
0.00138159
0.000151885
-1.47759e-05
0.00037431
-6.77931e-06
9.63532e-05
2.37602e-06
2.71507e-05
8.16043e-07
-2.67738e-05
1.45301e-05
-0.000142434
4.07198e-06
-8.84835e-05
-4.33221e-05
0.000161866
-0.00147898
-7.6967e-06
-0.000448532
-2.4961e-05
0.000108662
-1.16377e-05
-0.00200167
0.00194754
0.000206001
0.000355616
-4.41283e-06
-1.85928e-06
9.19495e-05
1.05589e-06
2.60942e-05
3.08328e-07
-2.70823e-05
-0.000146058
2.32189e-06
-9.04976e-05
0.000218748
-0.00205856
-3.13649e-05
0.000133438
-0.00156153
-1.95432e-05
-6.49022e-06
-0.000469799
-3.61072e-06
0.000179949
-1.45422e-06
-0.0023293
0.00227068
0.000264599
8.85924e-05
-4.82953e-07
8.7215e-05
2.56109e-05
3.42831e-07
-2.74254e-05
-0.000150227
1.62247e-06
-9.1778e-05
0.000279045
-0.0023896
0.000213718
-0.00213885
0.000119192
-0.00164635
-1.62531e-05
-1.81544e-05
-0.000482802
-2.61968e-06
-3.92337e-06
-0.000152216
0.000246428
-2.17856e-07
-0.00239921
0.00234497
0.000318827
2.95684e-07
-2.77216e-05
1.53573e-06
-9.30191e-05
0.000333062
-0.00245323
0.000286934
-0.00246282
0.000212067
-0.00223174
0.000127146
-0.00173406
-2.09965e-05
-1.8473e-05
0.000495156
-0.000505533
-1.57306e-06
-4.30753e-06
-3.01202e-06
-2.78981e-06
0.000154603
-1.28855e-06
-0.000155935
0.000303977
-0.00219433
0.00215391
0.000359229
2.906e-07
-2.80122e-05
-9.40171e-05
0.000371266
-0.00223254
0.000346379
-0.00251268
0.00029609
-0.00254686
0.000225265
-0.00232988
0.000152507
-0.00183234
-3.25124e-05
-2.17692e-05
0.000517177
-0.000530175
-8.00756e-06
-6.83084e-06
0.000159556
-0.000151248
-9.88162e-06
0.000158945
-3.69774e-06