/*--------------------------------*- C++ -*----------------------------------*\
| =========                 |                                                 |
| \\      /  F ield         | OpenFOAM: The Open Source CFD Toolbox           |
|  \\    /   O peration     | Version:  v1912                                 |
|   \\  /    A nd           | Website:  www.openfoam.com                      |
|    \\/     M anipulation  |                                                 |
\*---------------------------------------------------------------------------*/
FoamFile
{
    version     2.0;
    format      ascii;
    class       surfaceScalarField;
    location    "70";
    object      phi;
}
// * * * * * * * * * * * * * * * * * * * * * * * * * * * * * * * * * * * * * //

dimensions      [0 3 -1 0 0 0 0];
oriented        oriented;


internalField   nonuniform List<scalar> 
7354
(
-3.66246e-06
0.0013567
-1.28231e-05
0.00411365
-2.86615e-06
0.00135951
-3.20008e-05
0.00686236
-1.29932e-05
0.00412372
-3.83907e-06
0.00136331
-5.70912e-05
0.00949695
-3.14865e-05
0.00688081
-1.35372e-05
0.00413338
-2.76165e-06
0.00136601
-8.73384e-05
0.0118529
-5.57743e-05
0.0095212
-2.97611e-05
0.006897
-1.0821e-05
0.00414139
-2.76826e-06
0.00136872
-0.000131884
0.0137499
-8.67048e-05
0.0118838
-5.1084e-05
0.0095425
-2.79826e-05
0.00691412
-1.07244e-05
0.00414928
-2.71737e-06
0.00137136
-0.000169805
0.0149899
-0.000124936
0.0137881
-8.34567e-05
0.0119161
-5.04811e-05
0.00956496
-2.35352e-05
0.00692688
-1.05223e-05
0.00415701
-1.69623e-06
0.00137297
-0.0002187
0.015444
-0.000170241
0.0150352
-0.00012056
0.0138252
-7.7628e-05
0.0119432
-4.08472e-05
0.00958223
-2.03572e-05
0.00693665
-8.51513e-06
0.00416375
-1.63316e-06
0.00137452
-0.000257763
0.0150247
-0.000211921
0.0154857
-0.000161359
0.0150759
-0.000108414
0.0138559
-6.31028e-05
0.0119655
-3.66127e-05
0.00959843
-1.7368e-05
0.00694543
-6.4603e-06
0.00416849
-1.54364e-06
0.00137597
-0.000296153
0.0137809
-0.000259472
0.0150722
-0.000200306
0.0155246
-0.000135365
0.0151029
-8.78979e-05
0.0138807
-5.59252e-05
0.0119847
-3.23762e-05
0.00961337
-1.58773e-05
0.00695478
-5.60216e-06
0.00417246
-1.63696e-06
0.00137752
-0.000324177
0.0118123
-0.000302187
0.0138235
-0.000239427
0.0151113
-0.000168601
0.0155578
-0.000115178
0.0151301
-7.14477e-05
0.0138961
-4.44802e-05
0.0119968
-2.31289e-05
0.00962057
-1.2979e-05
0.00696208
-6.15858e-06
0.00417689
-1.72019e-06
0.00137914
-0.000332061
0.0093023
-0.000335647
0.0118458
-0.00025931
0.0138434
-0.000188385
0.015131
-0.000131788
0.0155744
-9.0147e-05
0.0151488
-5.83762e-05
0.01391
-3.50701e-05
0.0120087
-2.2694e-05
0.00963022
-9.75145e-06
0.0069656
-3.67673e-06
0.00417875
-1.37966e-06
0.00138043
-0.000111559
0.00643605
-0.000189887
-0.000360085
0.00932663
-0.000272129
0.0118585
-0.000195664
0.0138506
-0.000142952
0.0151421
-9.74165e-05
0.0155816
-6.56279e-05
0.015156
-4.09021e-05
0.0139158
-2.83379e-05
0.0120143
-1.38218e-05
0.00963423
-9.90815e-06
0.00697176
-5.48151e-06
0.00418276
-8.03096e-07
0.00138114
0.00212437
-8.27089e-05
-0.000196671
0.00644611
-0.000173542
0.00208413
-0.000149665
-0.000249772
0.00930422
-0.000178698
0.0118415
-0.000136766
0.0138444
-9.53835e-05
0.0151401
-7.27438e-05
0.0155887
-5.21162e-05
0.0151671
-3.51932e-05
0.0139226
-2.36578e-05
0.012024
-1.84256e-05
0.00964268
-9.5669e-06
0.00697577
-4.35943e-06
0.00418623
-1.54498e-06
0.00138261
0.00136589
-2.47011e-05
0.00206782
-0.000180393
-0.000127347
0.00638158
-5.79538e-05
0.00204536
-0.000151115
0.00130917
-6.15932e-05
-3.13519e-05
-0.00013388
0.00925932
-0.000108984
0.0118136
-8.27904e-05
0.0138317
-6.54146e-05
0.0151327
-4.87982e-05
0.0155853
-3.38049e-05
0.0151657
-2.96478e-05
0.0139285
-1.88009e-05
0.0120244
-1.31909e-05
0.00964624
-1.05289e-05
0.00698187
-5.18384e-06
0.0041898
-2.30592e-06
0.00138485
0.000428179
-9.61331e-06
0.00129318
-8.26371e-05
-8.17916e-05
0.00199853
-8.05294e-05
-4.42773e-05
0.0063017
-9.79104e-06
0.00197607
-3.55259e-05
0.00125001
-3.85754e-05
-6.93949e-05
-0.000414589
0.000387953
-3.4963e-05
-1.77629e-05
-6.21511e-05
0.00921242
-5.63081e-05
0.0117871
-5.06154e-05
0.0138169
-3.80376e-05
0.0151219
-3.05019e-05
0.015582
-2.60485e-05
0.0151621
-2.24293e-05
0.0139321
-1.83978e-05
0.0120295
-1.76705e-05
0.00965332
-1.17031e-05
0.00698833
-7.23651e-06
0.00419467
-1.27479e-06
0.00138605
0.000251304
-1.54148e-06
0.000362867
-5.75576e-05
0.00034191
-6.0844e-05
0.00119818
-2.17691e-05
-6.94853e-06
0.00194842
-1.66591e-05
-1.54538e-05
0.00625449
4.44764e-07
0.00194432
-5.71838e-06
0.00116847
-7.19071e-07
-5.11158e-06
-0.000319233
0.000300514
-1.98693e-05
-4.67246e-05
-0.000237488
0.00021223
-9.70849e-06
-3.9485e-06
-3.00212e-05
0.00918605
-3.0526e-05
0.0117669
-2.64711e-05
0.0138052
-2.57445e-05
0.0151171
-1.96374e-05
0.0155755
-2.21141e-05
0.0151617
-1.72264e-05
0.0139309
-2.20305e-05
0.0120338
-1.71688e-05
0.00965874
-1.37393e-05
0.00699478
-7.01523e-06
0.00420033
-2.94102e-06
0.00138889
7.44475e-05
0.000175279
-2.06108e-05
0.000154605
-4.0178e-05
0.000285405
-6.66493e-06
0.000280548
-2.0968e-06
0.00115316
-1.74073e-06
3.69073e-07
0.0019319
-3.05723e-06
-5.91693e-06
0.00622541
4.91006e-06
0.0019329
-5.86033e-07
0.00114729
1.11815e-06
-9.83874e-07
-0.000275923
0.000275574
-3.77638e-07
-4.90325e-07
-0.000107881
8.80077e-05
-7.0499e-05
6.07895e-05
-1.00306e-05
0.00916548
-1.58968e-05
0.0117563
-1.46011e-05
0.0137941
-1.08214e-05
0.0151082
-1.70899e-05
0.0155704
-1.48595e-05
0.0151593
-2.75698e-05
0.0139364
-2.70016e-05
0.0120436
-2.32078e-05
0.00966816
-1.68064e-05
0.00700451
-9.91774e-06
0.00420722
-2.04213e-06
0.00139084
4.0178e-05
8.13418e-05
7.92441e-05
0.000273864
-3.78632e-08
0.000274346
-1.22257e-07
0.00114415
-4.63756e-07
5.20256e-07
0.00192726
-3.0898e-07
-3.29559e-06
0.00621403
4.57561e-06
0.0019308
1.33856e-06
0.00114313
3.36427e-07
8.26001e-08
-0.000273202
0.000274083
2.26441e-07
1.54197e-07
-7.87538e-05
7.83739e-05
-1.77244e-06
0.00915129
4.23273e-07
0.0117412
-2.80257e-06
0.013786
-8.60995e-06
0.0150997
-1.34843e-05
0.015569
-2.5705e-05
0.0151574
-2.50437e-05
0.0139344
-3.01149e-05
0.0120505
-2.69241e-05
0.00967822
-1.85404e-05
0.00701305
-1.03749e-05
0.00421545
-2.78437e-06
0.00139351
7.83344e-05
7.82105e-05
0.000273836
-2.22619e-07
0.00027415
1.99787e-07
0.0011424
-5.11178e-08
4.46865e-07
0.00192715
3.27964e-07
-2.95799e-08
0.0062094
2.8218e-06
0.00193064
1.06575e-06
0.00114347
-7.6027e-08
3.30051e-07
-0.000274083
0.00027432
9.08534e-08
1.45893e-07
-7.83647e-05
7.85881e-05
4.10654e-06
0.00914753
7.06574e-07
0.0117376
-1.26317e-06
0.0137786
-3.63581e-06
0.0150898
-1.58968e-05
0.0155592
-2.9777e-05
0.0151621
-4.11412e-05
0.0139454
-3.70254e-05
0.0120605
-3.2599e-05
0.00969221
-2.39459e-05
0.00702654
-1.08994e-05
0.00422347
-3.57393e-06
0.00139701
7.83644e-05
7.8563e-05
0.000274248
1.38419e-08
0.000274597
8.96917e-08
0.00114315
2.48184e-07
3.81963e-07
0.00193031
2.64443e-07
1.47373e-06
0.00620907
2.90009e-06
0.00193128
1.82938e-06
0.00114405
2.25544e-07
-8.71538e-08
-0.000274956
0.000274809
6.08009e-08
-3.38792e-08
-7.87089e-05
7.87972e-05
3.90681e-06
0.00914427
7.30799e-06
0.011729
3.1231e-06
0.0137718
-1.39829e-05
0.0150879
-2.66782e-05
0.015556
-3.83285e-05
0.0151592
-4.87929e-05
0.0139571
-5.0642e-05
0.0120785
-4.24616e-05
0.00971066
-2.55172e-05
0.00704109
-1.10215e-05
0.00423084
-2.53833e-06
0.00139947
7.88096e-05
7.88978e-05
0.000275096
-4.5093e-08
0.000275336
1.35352e-07
0.00114349
3.6849e-07
4.417e-07
0.00193208
6.42404e-07
1.32808e-06
0.00620877
2.82109e-06
0.00193305
1.902e-06
0.00114522
3.38202e-07
-2.58818e-07
-0.000275075
0.000275306
-1.53533e-08
1.69613e-07
-7.88639e-05
7.89218e-05
9.6003e-06
0.0091419
7.46663e-06
0.0117246
-7.5202e-07
0.0137585
-1.34004e-05
0.0150745
-3.7082e-05
0.0155548
-5.47769e-05
0.0151652
-6.21448e-05
0.0139685
-6.06349e-05
0.0120966
-4.55241e-05
0.0097306
-2.80366e-05
0.00705803
-1.40588e-05
0.00424229
-3.25196e-06
0.00140267
7.88754e-05
7.90094e-05
0.000275651
1.69868e-08
0.000276211
-1.26071e-07
0.00114579
-2.7273e-07
3.24047e-07
0.00193305
1.30519e-06
2.84221e-06
0.00621209
3.37467e-06
0.00193509
7.52492e-07
0.001147
2.80988e-07
3.87003e-07
-0.000275795
0.000276056
6.69087e-08
1.52961e-07
-7.91791e-05
7.91609e-05
6.37674e-06
0.00914295
4.13528e-06
0.0117197
-9.84748e-06
0.0137549
-3.09003e-05
0.0150683
-5.65378e-05
0.0155565
-7.82563e-05
0.0151812
-8.5293e-05
0.0139931
-7.17249e-05
0.0121228
-5.04068e-05
0.00975292
-2.86039e-05
0.00707253
-1.20843e-05
0.00425107
-3.56337e-06
0.0014062
7.91765e-05
7.90489e-05
0.000275843
-6.62622e-08
0.000276048
1.12066e-07
0.00114803
-1.20699e-07
3.74534e-07
0.00193623
1.6791e-06
2.80696e-06
0.00621433
1.27949e-06
0.00193799
1.59423e-06
0.00114818
3.44343e-07
2.37859e-07
-0.00027626
0.00027675
-2.1821e-07
1.69849e-07
-7.92019e-05
7.92659e-05
6.19434e-06
0.00914082
8.87149e-07
0.0117089
-1.34595e-05
0.0137374
-4.64286e-05
0.0150582
-7.69624e-05
0.0155551
-9.76849e-05
0.0151936
-9.56211e-05
0.014017
-7.86943e-05
0.012151
-5.53491e-05
0.00977962
-3.13585e-05
0.00709176
-1.34176e-05
0.0042609
-3.01619e-06
0.0014092
7.91981e-05
7.93087e-05
0.000276618
4.15527e-09
0.000276829
1.57045e-07
0.0011497
-2.38516e-07
3.81129e-07
0.00194018
5.94663e-07
2.76858e-06
0.00621487
2.8362e-06
0.00193964
1.78899e-06
0.00115115
-2.02771e-07
3.32074e-07
-0.000276959
0.000277238
5.57795e-08
1.03906e-07
-7.94786e-05
7.92574e-05
3.86273e-06
0.0091378
-6.43047e-06
0.0117018
-3.53513e-05
0.0137263
-7.4675e-05
0.0150558
-0.000113284
0.0155707
-0.000123904
0.0152218
-0.000117439
0.0140557
-8.78171e-05
0.0121834
-5.51857e-05
0.00980342
-3.06368e-05
0.00710896
-1.13718e-05
0.00426925
-2.08061e-06
0.0014113
7.92602e-05
7.94159e-05
0.000276981
1.18775e-08
0.000277234
1.20873e-07
0.00115096
3.5983e-07
4.02434e-07
0.00194114
1.24606e-06
2.67856e-06
0.00621464
1.35882e-06
0.00194312
8.33936e-07
0.00115262
-9.59541e-08
2.16607e-07
-0.000277448
0.000277475
-2.3878e-07
1.13371e-07
-7.95198e-05
7.95727e-05
1.58038e-06
0.00912971
-1.6932e-05
0.0116833
-5.91869e-05
0.0137108
-0.000112095
0.0150546
-0.00014694
0.0155937
-0.000155146
0.0152595
-0.000124227
0.0140921
-9.09449e-05
0.0122192
-5.7068e-05
0.00982984
-2.73726e-05
0.00712496
-1.09442e-05
0.00427813
-1.9148e-06
0.00141323
7.95831e-05
7.97025e-05
0.000277798
3.11617e-08
0.000278008
1.86913e-07
0.00115324
3.80941e-07
2.22753e-07
0.00194426
1.52038e-06
2.74794e-06
0.006212
1.41563e-06
0.00194478
8.13478e-07
0.00115397
2.39084e-07
-1.48689e-07
-0.000278151
0.00027799
5.70348e-08
7.05162e-08
-7.98159e-05
7.95743e-05
-4.48264e-06
0.00911723
-3.78045e-05
0.0116619
-9.7781e-05
0.0136964
-0.00015503
0.0150627
-0.000187947
0.0156265
-0.000167568
0.0153028
-0.000131208
0.0141323
-8.89439e-05
0.0122511
-4.83199e-05
0.00985079
-2.32078e-05
0.00713724
-8.793e-06
0.00428503
-1.55086e-06
0.00141481
7.96042e-05
7.97899e-05
0.000278297
6.76302e-08
0.000278444
6.86227e-08
0.00115475
3.69165e-07
3.52586e-07
0.00194614
1.36183e-06
2.70417e-06
0.00620471
4.74877e-08
0.00194673
8.08838e-07
0.00115549
3.41826e-07
-2.81329e-07
-0.000278196
0.000278644
-2.17995e-07
9.6345e-08
-7.98604e-05
7.99149e-05
-1.36935e-05
0.00909304
-6.8731e-05
0.0116328
-0.000148623
0.01369
-0.000211514
0.0150862
-0.000212466
0.0156713
-0.000181157
0.0153527
-0.000131121
0.0141745
-7.97071e-05
0.0122824
-4.39813e-05
0.00987157
-1.99699e-05
0.00714843
-5.92237e-06
0.00428942
-5.08807e-07
0.00141533
7.99811e-05
8.00483e-05
0.000278945
6.27125e-08
0.000279169
1.23865e-07
0.00115667
3.85034e-07
-2.29256e-07
0.00194778
1.62915e-06
2.78265e-06
0.00618986
-1.67073e-06
0.00194729
5.17824e-07
0.00115685
2.3059e-07
3.90493e-07
-0.00027879
0.000279126
-1.4531e-09
9.50293e-08
-8.01447e-05
7.99241e-05
-3.41782e-05
0.00905846
-0.000121418
0.0116056
-0.000219724
0.0136982
-0.000257023
0.0151307
-0.000230564
0.0157207
-0.000173109
0.0153947
-0.000116213
0.014211
-6.76675e-05
0.0123061
-3.6488e-05
0.0098881
-1.66078e-05
0.00715913
-3.65297e-06
0.00429257
-3.56346e-07
0.00141569
7.99857e-05
8.01084e-05
0.00027943
7.45062e-08
0.000279062
1.31763e-07
0.0011582
3.43136e-07
-8.17878e-08
0.00194937
6.79856e-07
2.75777e-06
0.00616038
-7.50794e-06
0.00194709
5.91552e-07
0.00115859
-7.37216e-08
1.84701e-07
-0.000279583
0.000279712
9.26257e-08
-1.34832e-07
-8.02035e-05
8.01995e-05
-7.22636e-05
0.00900923
-0.000194539
0.0115804
-0.000282668
0.0137238
-0.000277309
0.0151775
-0.000217232
0.0157649
-0.000155416
0.0154339
-9.84222e-05
0.0142418
-5.85164e-05
0.0123282
-3.06447e-05
0.00990214
-9.76717e-06
0.00716525
-2.91386e-06
0.00429513
6.28752e-07
0.00141507
8.02725e-05
8.04026e-05
0.000280036
1.3484e-08
0.000279893
5.59145e-08
0.00115869
3.48177e-07
2.0981e-07
0.00194902
8.07318e-07
-1.20785e-07
0.00610617
-1.79668e-05
0.00194279
-1.29832e-06
0.0011591
-2.17794e-07
3.83057e-07
-0.000279948
0.000279835
3.13746e-08
1.26561e-07
-8.02678e-05
8.03575e-05
-0.000140878
0.00895556
-0.000300294
0.011598
-0.00032412
0.0137706
-0.000266333
0.0152266
-0.000193376
0.0158028
-0.000129237
0.0154647
-7.95835e-05
0.0142628
-4.41215e-05
0.0123416
-1.87428e-05
0.00991111
-6.0968e-06
0.00716843
9.67485e-07
0.0042948
1.02214e-06
0.00141406
8.03698e-05
8.04245e-05
0.00028016
1.67451e-08
0.000280247
1.15781e-07
0.0011596
3.50365e-07
-5.27481e-08
0.00194389
-1.24343e-06
-9.90672e-06
0.00602042
-4.52579e-05
0.00192969
-3.78138e-06
0.00115812
-3.46596e-08
1.94218e-07
-0.00028075
0.000280441
8.27038e-08
-1.23725e-07
-8.05511e-05
8.05798e-05
-0.000270548
0.00892576
-0.000356075
0.0116299
-0.000302041
0.0138063
-0.000221672
0.0152549
-0.000155189
0.0158288
-9.72867e-05
0.0154824
-5.77984e-05
0.0142765
-3.11745e-05
0.0123541
-1.08736e-05
0.00991589
-1.53948e-06
0.00717094
2.51828e-06
0.00429331
1.38131e-06
0.00141267
8.0595e-05
8.07091e-05
0.000280765
2.03568e-08
0.000280644
6.376e-08
0.00115673
3.40878e-07
-2.04896e-07
0.00192674
-6.97791e-06
-5.3198e-05
0.00592374
-0.000120696
0.00189734
-1.58669e-05
0.00115274
-1.66381e-07
3.60183e-07
-0.000280707
0.000280838
-1.71386e-07
1.28604e-07
-8.05854e-05
8.06652e-05
-0.000377526
0.00894722
-0.000324478
0.0116523
-0.000238553
0.0138232
-0.000169354
0.015269
-0.000111771
0.0158432
-7.15562e-05
0.0154962
-3.77071e-05
0.014283
-1.54547e-05
0.0123586
-4.75039e-06
0.0099191
2.38263e-06
0.00717108
3.05597e-06
0.00429164
2.69243e-06
0.00140997
8.06844e-05
8.07472e-05
0.000281155
1.7901e-08
0.000280829
1.15184e-07
0.00114588
3.97209e-07
-5.26759e-07
0.0018736
-2.94822e-05
-0.000169682
0.00592386
-0.000207986
0.0018161
-6.3201e-05
0.00113133
-1.49372e-06
1.63587e-07
-0.000281112
0.000280846
9.17467e-08
7.35289e-08
-8.08758e-05
8.07021e-05
-0.000326394
0.00894907
-0.000228823
0.0116425
-0.000163433
0.0138172
-0.000117368
0.0152746
-7.87348e-05
0.0158504
-4.88078e-05
0.0155073
-2.57707e-05
0.0142933
-9.44108e-06
0.0123633
3.4394e-06
0.00991804
5.79775e-06
0.00716834
6.64373e-06
0.00428768
3.26284e-06
0.00140669
8.07185e-05
8.08323e-05
0.000281184
5.57348e-08
0.000280758
-1.04048e-07
0.00110586
-4.07615e-07
-3.61743e-06
0.00177993
-0.000133521
-0.000179172
0.00587368
-9.70654e-05
0.0017493
-0.000177364
0.00105547
-1.08821e-05
-1.93856e-06
-0.00028074
0.000279468
-2.27031e-07
1.79517e-07
-8.09058e-05
8.0995e-05
-0.000177658
0.00889792
-0.000138929
0.0116181
-0.000106935
0.0138068
-7.44418e-05
0.0152703
-4.92227e-05
0.0158508
-2.61612e-05
0.0155076
-1.1031e-05
0.0142949
4.02081e-07
0.0123664
7.35089e-06
0.00991649
1.21458e-05
0.00716282
9.57982e-06
0.00428133
3.69702e-06
0.00140297
8.10499e-05
8.0945e-05
0.000279263
-2.07563e-07
0.000275854
-2.13453e-07
0.000974797
-1.46226e-05
-3.82253e-05
0.00170576
-0.000135649
-6.1641e-05
0.00577502
-1.73825e-05
0.00166635
-5.76603e-05
0.000928337
-6.67438e-05
-6.41695e-05
-0.000274502
0.000265423
-1.80783e-06
-5.89306e-07
-8.11245e-05
8.08956e-05
-8.15762e-05
0.00884049
-7.49849e-05
0.011586
-6.12508e-05
0.0137935
-4.41645e-05
0.0152652
-2.6879e-05
0.0158515
-1.08262e-05
0.0155074
1.4342e-06
0.0142939
1.20476e-05
0.0123617
1.50885e-05
0.00991353
1.37801e-05
0.0071586
9.18647e-06
0.00427583
4.73637e-06
0.00139823
8.06867e-05
8.04722e-05
0.000254901
-4.10252e-06
0.000226962
-1.02868e-05
0.000861899
-4.93643e-05
-1.98587e-05
0.00162768
-2.29674e-05
-1.79434e-05
0.00571079
5.83871e-07
0.00161735
-7.06727e-06
0.000812375
-1.35048e-06
-6.79095e-06
-0.000185503
0.000159728
-4.09721e-05
-2.27114e-05
-7.98828e-05
7.80733e-05
-3.73318e-05
0.00880285
-3.76274e-05
0.0115624
-3.15293e-05
0.0137809
-2.22702e-05
0.0152605
-1.03149e-05
0.0158509
5.79145e-07
0.0155083
1.41291e-05
0.0142918
1.57022e-05
0.012361
1.98631e-05
0.00990742
1.69108e-05
0.00715085
1.33207e-05
0.00426723
5.0325e-06
0.00139319
7.39706e-05
6.36836e-05
0.000110362
9.05019e-05
0.000790115
-7.38345e-07
3.04447e-08
0.00160295
-3.55773e-06
-6.87825e-06
0.00567653
3.76717e-06
0.00160375
-2.12051e-07
0.000783009
3.0147e-07
-2.71383e-07
-8.37109e-05
8.23591e-05
-4.09722e-05
-1.53194e-05
0.00878045
-1.71836e-05
0.011548
-1.27094e-05
0.0137713
-1.80743e-06
0.015252
4.94617e-06
0.0158466
1.52535e-05
0.0155071
1.67613e-05
0.0142907
2.48449e-05
0.012356
2.41345e-05
0.00990017
2.26491e-05
0.0071415
1.55334e-05
0.00425672
5.92862e-06
0.00138727
8.16207e-05
8.16509e-05
0.000779363
-4.67014e-08
1.25949e-07
0.00159775
-8.83153e-07
-3.98112e-06
0.00566081
4.36607e-06
0.0016002
1.30137e-06
0.000779062
1.33893e-07
-5.2032e-08
-8.13795e-05
8.16802e-05
-2.10442e-06
0.00876539
-4.20402e-06
0.0115395
1.46119e-06
0.013768
8.27555e-06
0.0152487
1.77544e-05
0.015844
2.19151e-05
0.015502
3.20484e-05
0.0142835
3.20329e-05
0.0123481
3.17861e-05
0.00989101
2.7437e-05
0.00712958
1.74949e-05
0.00424514
6.97199e-06
0.00138029
8.16318e-05
8.17565e-05
0.00077791
9.83824e-08
1.71014e-07
0.00159597
2.37118e-07
-1.75577e-06
0.00565647
3.94689e-06
0.00160007
2.64983e-07
0.000779096
2.14205e-07
-1.09498e-07
-8.17045e-05
8.18372e-05
2.00993e-06
0.00875907
5.8462e-06
0.011535
9.89304e-06
0.0137663
1.60264e-05
0.0152504
2.69106e-05
0.015839
3.21326e-05
0.0155018
3.22933e-05
0.0142832
3.58374e-05
0.012344
3.4594e-05
0.00988384
3.11825e-05
0.00711589
2.1056e-05
0.00423106
8.11186e-06
0.00137218
8.19354e-05
8.21061e-05
0.000779151
8.4962e-08
8.55228e-08
0.00159781
4.98088e-07
-6.51913e-07
0.0056559
3.21838e-06
0.00160069
1.05739e-06
0.000779494
5.61163e-08
-1.42485e-07
-8.19966e-05
8.22097e-05
4.84054e-06
0.00876011
1.22196e-05
0.0115327
1.9623e-05
0.0137627
2.67427e-05
0.0152505
2.97619e-05
0.0158413
4.17012e-05
0.0154924
4.641e-05
0.0142726
4.81476e-05
0.0123304
4.28223e-05
0.00987219
3.64441e-05
0.00710049
2.38759e-05
0.00421529
9.25932e-06
0.00136292
8.22927e-05
8.23766e-05
0.000779868
5.3714e-08
7.13947e-08
0.00160006
-3.93692e-08
3.40011e-07
0.00565712
3.24776e-06
0.0016022
1.0786e-06
0.000780963
7.10785e-08
-1.18173e-07
-8.22341e-05
8.22886e-05
9.12995e-06
0.00876308
1.69695e-05
0.0115353
2.18907e-05
0.0137675
3.53249e-05
0.0152449
4.43127e-05
0.0158387
4.81925e-05
0.0154906
5.01271e-05
0.0142706
5.39378e-05
0.0123193
5.13292e-05
0.00985729
4.24457e-05
0.00708191
2.81165e-05
0.00419643
1.0351e-05
0.00135257
8.23421e-05
8.24133e-05
0.000780772
5.83635e-08
8.3081e-08
0.00160176
7.83694e-07
4.13399e-07
0.0056625
3.32584e-06
0.00160422
7.80455e-07
0.000781791
-3.38308e-08
8.81053e-08
-8.22951e-05
8.23654e-05
1.03551e-05
0.00876974
1.82923e-05
0.0115389
3.10939e-05
0.0137717
3.83882e-05
0.0152508
4.64433e-05
0.0158404
5.58222e-05
0.0154849
6.25973e-05
0.0142619
6.17404e-05
0.0123089
5.97164e-05
0.00984001
4.70972e-05
0.00706292
3.17449e-05
0.00417503
1.19416e-05
0.00134063
8.24217e-05
8.25033e-05
0.000782431
5.83352e-08
8.94035e-08
0.0016038
8.13818e-07
1.57471e-06
0.00566775
3.49196e-06
0.00160632
8.10654e-07
0.000783066
7.71218e-08
5.9883e-08
-8.25914e-05
8.25565e-05
1.22016e-05
0.00877571
2.25134e-05
0.0115473
3.21547e-05
0.0137779
4.48897e-05
0.0152523
5.75757e-05
0.0158386
6.4662e-05
0.0154828
7.26304e-05
0.014251
7.21419e-05
0.0122964
6.83307e-05
0.00981877
5.67019e-05
0.00703796
3.49058e-05
0.00415206
1.31762e-05
0.00132745
8.2615e-05
8.27045e-05
0.000783931
-1.27446e-07
6.7967e-08
0.00160706
8.39709e-07
6.14564e-07
0.00567586
3.47404e-06
0.00160959
9.59793e-07
0.000784598
8.22721e-08
5.68356e-08
-8.27643e-05
8.28412e-05
1.3404e-05
0.00878486
2.44656e-05
0.011555
3.83998e-05
0.0137843
4.99182e-05
0.0152599
6.45069e-05
0.0158388
7.48828e-05
0.0154805
8.05306e-05
0.0142426
8.72778e-05
0.0122775
7.90949e-05
0.00979637
6.42682e-05
0.00700859
4.09894e-05
0.00412424
1.39578e-05
0.00131349
8.27117e-05
8.27782e-05
0.000785243
5.80574e-08
1.43241e-07
0.00160932
8.72042e-07
1.67893e-06
0.00568404
3.5063e-06
0.0016119
8.97644e-07
0.00078616
1.20238e-07
-8.56932e-08
-8.28351e-05
8.29166e-05
1.33458e-05
0.00879585
2.70023e-05
0.0115663
4.46142e-05
0.0137896
6.21847e-05
0.0152622
7.55059e-05
0.0158381
8.91963e-05
0.0154718
9.73704e-05
0.0142325
9.74063e-05
0.0122592
9.10839e-05
0.00976955
7.13617e-05
0.00697822
4.45116e-05
0.00409369
1.3188e-05
0.0013003
8.29749e-05
8.31184e-05
0.000786872
6.25794e-08
8.97151e-08
0.00161271
8.72486e-07
4.98656e-07
0.00569379
3.08706e-06
0.00161532
8.96842e-07
0.000787808
7.55118e-08
-1.17735e-07
-8.30327e-05
8.3153e-05
1.46462e-05
0.00880825
3.11642e-05
0.0115798
4.95906e-05
0.0138022
6.92428e-05
0.0152685
8.53169e-05
0.015842
9.89285e-05
0.0154703
0.000111079
0.0142188
0.000108067
0.0122422
0.000101908
0.00973899
8.20354e-05
0.00694069
4.87665e-05
0.0040581
1.70817e-05
0.00128321
8.32135e-05
8.33017e-05
0.000788546
5.67148e-08
8.60605e-08
0.00161505
7.55084e-07
9.44585e-07
0.00570608
1.35297e-06
0.00161757
5.68252e-07
0.00078947
-8.86627e-08
5.39233e-08
-8.3184e-05
8.32589e-05
1.77865e-05
0.00882148
3.58544e-05
0.0115934
5.92912e-05
0.0138121
7.66073e-05
0.0152771
9.82284e-05
0.0158427
0.000114495
0.0154668
0.000124587
0.0142023
0.000128196
0.0122159
0.000115455
0.00970557
8.99635e-05
0.00689949
5.17564e-05
0.00402342
3.72443e-05
0.00124596
8.33161e-05
8.34025e-05
0.00079007
5.26192e-08
9.50358e-08
0.00161864
-1.27368e-07
2.03497e-06
0.00571895
2.85113e-06
0.00162184
-1.85819e-06
0.000790411
1.37796e-07
8.2938e-08
-8.34564e-05
8.3368e-05
2.17506e-05
0.00883563
4.30297e-05
0.0116097
6.37933e-05
0.0138249
8.89959e-05
0.0152864
0.000113132
0.015844
0.000132263
0.0154591
0.000142459
0.014188
0.000139304
0.012192
0.000127198
0.00966833
9.8133e-05
0.00685311
8.5742e-05
0.00397492
8.01571e-05
8.34185e-05
8.35118e-05
0.000790387
1.98632e-08
-1.19184e-07
0.00162767
-3.83198e-06
4.21762e-06
0.0057306
5.8281e-06
0.00162554
6.46349e-06
-1.4808e-06
0.000788497
3.03503e-08
-1.53365e-08
-8.35948e-05
8.37316e-05
2.64443e-05
0.00885209
4.56646e-05
0.0116278
7.26847e-05
0.0138412
9.98247e-05
0.0152997
0.000125128
0.0158511
0.000145972
0.0154556
0.000158983
0.0141683
0.000160953
0.0121583
0.000143674
0.00962279
0.000130181
0.00680866
0.000149131
8.37514e-05
8.36317e-05
0.000464666
-2.57152e-09
-2.12651e-07
0.00032019
0.00162837
-6.18298e-07
1.9958e-06
5.44138e-06
0.00574565
5.94736e-06
0.00163038
1.41054e-06
2.39439e-06
0.000489922
-1.88068e-05
0.000495302
-6.86098e-06
-8.36164e-05
8.36446e-05
2.6577e-05
0.00887125
5.35144e-05
0.011647
8.21796e-05
0.0138588
0.000117359
0.0153074
0.000147201
0.0158499
0.00016847
0.0154461
0.000180098
0.0141492
0.000177936
0.012124
0.000172596
0.00958037
0.000197302
8.36383e-05
8.34227e-05
0.000298272
3.10437e-06
0.000497087
-2.40837e-06
0.000499816
-7.34719e-07
0.00163262
1.26849e-06
1.90939e-06
4.71463e-06
0.00576259
4.88157e-06
0.00163623
8.30272e-07
1.52391e-06
0.00050066
5.59535e-07
0.000501808
1.24891e-06
0.000292743
-1.34019e-06
3.03767e-05
0.00889427
5.91204e-05
0.01167
9.44801e-05
0.0138817
0.000129122
0.0153255
0.000160521
0.0158579
0.000188065
0.0154382
0.000195841
0.0141313
0.00020632
0.0120903
0.000231677
8.6524e-05
0.000291399
-1.06533e-06
0.000291036
-3.7687e-07
0.000502415
6.58372e-07
0.000503517
8.06479e-07
0.00163884
6.64342e-07
1.42774e-06
6.05713e-06
0.00578146
5.44245e-06
0.0016418
7.32851e-07
1.1779e-06
0.000504087
2.52126e-07
0.000504758
8.56085e-07
0.000291543
5.0988e-08
0.000292685
1.02906e-07
8.51829e-05
3.38169e-05
0.00891964
6.87278e-05
0.0116958
0.000108052
0.0139028
0.000149285
0.0153367
0.000183467
0.0158625
0.000203006
0.015431
0.000228787
0.0141088
0.000251853
8.41161e-05
8.37383e-05
0.000293082
2.6425e-07
0.000293633
2.50565e-07
0.000504739
6.80494e-07
0.000505926
2.39981e-07
0.00164575
8.28732e-07
1.25838e-06
6.67465e-06
0.00580252
6.04117e-06
0.00164904
8.47671e-07
1.31814e-06
0.000506202
4.50585e-07
0.000506774
6.07558e-07
0.000293691
1.92576e-07
0.000294363
1.7977e-07
8.37879e-05
8.38913e-05
4.05742e-05
0.0089477
7.67967e-05
0.011727
0.000122969
0.0139291
0.000165724
0.0153545
0.000197409
0.015868
0.000234099
0.0154257
0.000259152
8.41547e-05
8.44047e-05
0.000294881
1.63787e-07
0.000295157
-4.12729e-08
0.000507237
3.59875e-07
0.000508001
4.91458e-07
0.00165338
9.39501e-07
1.37417e-06
6.4588e-06
0.00582976
6.88484e-06
0.00165708
9.51441e-07
1.37881e-06
0.000508318
5.2213e-07
0.000509347
2.91106e-07
0.000295481
1.25793e-07
0.000295947
1.35992e-07
8.45955e-05
8.47754e-05
4.43494e-05
0.00898022
9.12796e-05
0.0117587
0.000141018
0.0139537
0.000182606
0.0153692
0.000224171
0.0158779
0.000250224
8.49382e-05
8.48961e-05
0.000296178
1.30665e-07
0.000296525
1.38092e-07
0.000509452
8.31754e-07
0.00051027
5.53857e-07
0.00166078
1.04978e-06
1.69306e-06
8.46138e-06
0.00585794
7.68833e-06
0.00166524
8.97552e-07
1.54103e-06
0.00051107
1.45102e-07
0.000511752
6.97525e-07
0.000297076
-3.06037e-08
0.000297201
1.60722e-07
8.50202e-05
8.51563e-05
5.33656e-05
0.00901804
0.000104496
0.0117951
0.000154494
0.0139818
0.000200273
0.0153931
0.000227393
8.52857e-05
8.54228e-05
0.000297835
1.99154e-07
0.000298221
1.61752e-07
0.000511955
8.41984e-07
0.000513442
2.03543e-07
0.00167055
1.2613e-06
1.88136e-06
1.01482e-05
0.00589202
9.15354e-06
0.00167532
1.13166e-06
1.77799e-06
0.000513746
5.86327e-07
0.000514507
7.82317e-07
0.000298227
1.37566e-07
0.000298958
-3.79509e-08
8.53904e-05
8.5551e-05
6.41535e-05
0.00905843
0.000123439
0.0118262
0.000170429
0.0140116
0.000190161
8.5749e-05
8.59098e-05
0.000299646
1.55058e-07
0.000299701
1.42896e-07
0.000515222
5.42859e-07
0.000516413
6.89041e-07
0.00168179
1.51592e-06
2.15009e-06
1.15966e-05
0.00593286
1.16906e-05
0.00168752
1.4146e-06
2.02282e-06
0.000516831
7.08273e-07
0.000517982
6.29167e-07
0.000300073
2.13286e-07
0.000300851
-5.91313e-10
8.60457e-05
8.60078e-05
8.14517e-05
0.00910035
0.000132925
0.0118637
0.000147537
8.61617e-05
8.6304e-05
0.000301223
1.7225e-07
0.000301723
1.83934e-07
0.00051854
9.54524e-07
0.00051986
8.29546e-07
0.00169484
2.39131e-06
1.88689e-06
1.58607e-05
0.00598129
1.71894e-05
0.00170251
2.25845e-06
1.76244e-06
0.00052084
4.30053e-07
0.000521756
1.10953e-06
0.000302235
1.95546e-07
0.00030265
2.11077e-07
8.65156e-05
8.6515e-05
9.77965e-05
0.00913552
0.00010202
8.66862e-05
8.68696e-05
0.000303358
2.48511e-07
0.000304136
4.88291e-08
0.000523075
1.07255e-06
0.00052443
5.3254e-07
0.00171254
2.90851e-06
2.91509e-06
2.28194e-05
0.00602844
2.78784e-05
0.0017224
3.36322e-06
3.99477e-06
0.00052573
9.58796e-07
0.000526278
1.21779e-06
0.00030436
2.07109e-07
0.000305241
2.26184e-07
8.70639e-05
8.72755e-05
6.81996e-05
8.75236e-05
8.75726e-05
0.000306079
2.35275e-07
0.000306378
2.34201e-07
0.000527928
1.25931e-06
0.000530036
8.07616e-07
0.00173558
4.76026e-06
4.89382e-06
4.97666e-05
2.44373e-05
0.0017489
5.91444e-06
8.67054e-06
0.000531954
1.44422e-06
0.000533751
2.20163e-06
0.000307278
5.91742e-08
0.000308255
2.41979e-07
8.77791e-05
8.80053e-05
8.82405e-05
8.84751e-05
0.000309251
2.65727e-07
0.000309775
2.83515e-07
0.000536496
2.01869e-06
0.000538783
2.6115e-06
0.00176981
1.18224e-05
1.70643e-05
2.45735e-05
1.22912e-05
0.00054177
2.93223e-06
0.000546103
4.34781e-06
0.000310871
3.49118e-07
0.000312629
4.44879e-07
8.85344e-05
8.8777e-05
8.9043e-05
8.9327e-05
0.000314159
4.91739e-07
0.000316091
6.81794e-07
0.000550067
7.86895e-06
0.000555428
1.17165e-05
0.000562625
1.73878e-05
1.62216e-05
0.000318322
7.06136e-07
0.000321531
1.14249e-06
8.96762e-05
9.01218e-05
9.06142e-05
9.12974e-05
0.000327107
2.30253e-06
0.000333592
5.24425e-06
0.000339945
1.10441e-05
2.27252e-05
9.20045e-05
9.31492e-05
9.54558e-05
0.000100705
0.000111751
2.93102e-05
-2.91291e-05
-0.0001229
3.81976e-05
0.000114332
1.31741e-05
-4.20989e-05
-0.000141376
3.19161e-05
-0.000243382
4.4574e-05
0.00023741
3.34541e-05
8.11442e-05
6.06162e-06
-4.81644e-05
1.73336e-05
-0.000152316
-0.000256046
4.49094e-05
-4.17915e-05
-0.00086288
7.76883e-05
0.000873028
0.000229186
1.40235e-05
6.73921e-05
2.49707e-06
-5.06256e-05
2.18553e-05
-0.000260334
9.4852e-06
-0.000159235
6.8667e-05
-0.000863944
-6.12214e-05
-0.00295033
0.00297884
0.000114453
-2.59868e-05
0.000849956
-1.10412e-05
0.000217356
4.02855e-06
6.36904e-05
7.3594e-07
-5.14716e-05
1.66331e-05
-0.000267092
2.97508e-06
-0.000161504
-1.46191e-05
-2.10147e-07
-0.00286456
-2.02526e-06
-0.000860183
-3.10261e-05
0.000176162
-2.66163e-05
-0.00352986
0.00357435
7.17471e-05
0.000829628
-5.7243e-06
-3.51761e-06
0.000210527
1.95986e-06
6.21179e-05
-2.04231e-06
-4.96064e-05
-0.000266278
-4.82619e-06
-0.000159215
-0.000120281
-0.00340948
1.89306e-05
-0.000143972
-0.00277264
3.30074e-05
5.30353e-06
-0.000855705
8.9897e-06
0.000246872
-6.41905e-07
-0.00321239
0.00327654
9.3607e-06
0.000206895
-1.15776e-06
0.000204909
6.10173e-05
-8.70535e-07
-4.92361e-05
-0.00026591
-4.02089e-06
-0.000156328
-0.000253958
-0.00307918
-0.00031336
-0.00324009
-0.000247186
-0.00260101
2.15382e-05
5.60135e-05
-0.000835374
6.71691e-06
5.65334e-06
-0.000260913
0.000262416
1.27106e-08
-0.00208439
0.00218077
-8.67578e-05
-1.45221e-07
-4.91281e-05
-1.61993e-06
-0.000154869
-0.000402498
-0.00193616
-0.00050783
-0.00288579
-0.000490373
-0.00299646
-0.000341554
-0.00234172
3.16115e-05
5.44685e-05
0.000803149
-0.000779342
-4.65121e-06
1.73719e-06
8.93667e-06
1.40045e-05
0.000256879
2.0837e-06
-0.000252614
0.000218643
-0.000139403
0.000291187
-0.000237678
-3.07062e-07
-4.91841e-05
-0.000153273
-0.000583114
4.01566e-05
-0.000705551
-0.00173917
-0.000748452
-0.00262783
-0.000663362
-0.00267109
-0.000465138
-0.00202653
5.16477e-05
0.000107136
0.00072724
-0.000701585
6.24304e-06
1.59135e-06
0.000235585
-0.000224855
-1.58904e-05
0.000240985