/*--------------------------------*- C++ -*----------------------------------*\
| =========                 |                                                 |
| \\      /  F ield         | OpenFOAM: The Open Source CFD Toolbox           |
|  \\    /   O peration     | Version:  v1912                                 |
|   \\  /    A nd           | Website:  www.openfoam.com                      |
|    \\/     M anipulation  |                                                 |
\*---------------------------------------------------------------------------*/
FoamFile
{
    version     2.0;
    format      ascii;
    class       surfaceScalarField;
    location    "500";
    object      phi;
}
// * * * * * * * * * * * * * * * * * * * * * * * * * * * * * * * * * * * * * //

dimensions      [0 3 -1 0 0 0 0];
oriented        oriented;


internalField   nonuniform List<scalar> 
7191
(
-1.94938e-06
0.0013244
-9.06714e-06
0.00397747
-2.10225e-06
0.0013265
-2.41681e-05
0.00659083
-9.45415e-06
0.00398482
-2.10599e-06
0.00132861
-4.4825e-05
0.00907718
-2.40372e-05
0.00660541
-9.45824e-06
0.00399218
-1.9873e-06
0.00133059
-7.51373e-05
0.0113242
-4.81029e-05
0.00910125
-2.35598e-05
0.00661951
-9.33329e-06
0.00399952
-2.03003e-06
0.00133262
-0.000115981
0.0131944
-7.91808e-05
0.0113553
-4.53914e-05
0.00912308
-2.41784e-05
0.00663436
-9.71927e-06
0.00400721
-1.71354e-06
0.00133434
-0.000162523
0.0145598
-0.000119661
0.0132349
-7.90762e-05
0.011389
-4.63806e-05
0.00914528
-2.17558e-05
0.00664639
-8.07528e-06
0.00401357
-1.58992e-06
0.00133593
-0.000207121
0.0153068
-0.000165454
0.0146056
-0.000118008
0.0132739
-7.3388e-05
0.011416
-4.14479e-05
0.00916498
-1.95566e-05
0.00665787
-7.25561e-06
0.00401924
-1.48658e-06
0.00133741
-0.000250325
0.015369
-0.000215984
0.0153574
-0.000162791
0.0146504
-0.000112704
0.0133132
-7.07859e-05
0.0114453
-3.78024e-05
0.00918322
-1.82188e-05
0.00666884
-6.63314e-06
0.00402439
-1.16047e-06
0.00133857
-0.000280809
0.0147065
-0.00025927
0.0154123
-0.000212084
0.0154066
-0.000156278
0.014694
-0.000101167
0.0133436
-6.18007e-05
0.0114693
-3.35657e-05
0.00919857
-1.55228e-05
0.00667773
-4.55996e-06
0.00402779
-1.17499e-06
0.00133975
-0.000293536
0.0133576
-0.00030175
0.014749
-0.000259198
0.0154594
-0.000198396
0.0154488
-0.000137384
0.0147302
-9.22601e-05
0.013374
-5.43668e-05
0.0114901
-2.99458e-05
0.00921299
-1.41688e-05
0.00668734
-5.18905e-06
0.0040318
-8.42235e-07
0.00134059
-0.000286739
0.0114072
-0.00033295
0.0133888
-0.000298531
0.0147883
-0.000238098
0.0154991
-0.00017488
0.0154863
-0.000122872
0.0147608
-7.86212e-05
0.0133983
-4.75962e-05
0.0115078
-2.56678e-05
0.00922449
-1.0885e-05
0.00669303
-4.56803e-06
0.00403553
-7.48009e-07
0.00134134
-0.000246702
0.00898818
-0.000353396
0.0114276
-0.00032809
0.0134184
-0.000264622
0.0148149
-0.000201723
0.0155259
-0.000148898
0.0155123
-0.000102679
0.0147849
-6.59124e-05
0.0134166
-3.95223e-05
0.0115216
-2.14514e-05
0.00923506
-1.13696e-05
0.00669983
-4.16279e-06
0.00403894
-7.84555e-07
0.00134212
0.00625385
-0.000110391
-5.04917e-05
-0.000358377
0.00899316
-0.000344748
0.0114443
-0.000278029
0.0134318
-0.00021742
0.0148306
-0.000167191
0.0155442
-0.000119976
0.0155296
-8.44233e-05
0.0148034
-5.80852e-05
0.0134351
-3.63845e-05
0.0115366
-2.06513e-05
0.00924434
-1.02375e-05
0.00670591
-4.00243e-06
0.00404216
-7.69543e-07
0.00134289
0.00623943
-0.000201582
-0.000142372
-0.00212238
0.00207578
-6.37855e-05
-3.27707e-05
-0.0021401
-0.000350527
0.00899894
-0.000269934
0.0114362
-0.000211612
0.013426
-0.000167561
0.0148309
-0.000129967
0.0155542
-0.000101522
0.0155467
-7.38039e-05
0.0148191
-4.78798e-05
0.0134466
-3.03008e-05
0.0115462
-1.7427e-05
0.00925153
-8.68246e-06
0.00671059
-3.88074e-06
0.00404527
-8.37835e-07
0.00134373
0.00622535
-0.000140338
-0.000196108
-0.002045
0.00201773
-0.00017431
-0.000111592
-0.00139903
0.00135571
-1.5543e-05
-4.91823e-06
-9.15966e-07
-0.00142422
-6.6662e-06
-2.01499e-05
-0.000228876
0.00895788
-0.000184304
0.0114089
-0.00015459
0.013413
-0.000129156
0.0148301
-0.000105593
0.0155583
-8.0927e-05
0.0155538
-5.76348e-05
0.0148288
-4.24236e-05
0.0134588
-2.77543e-05
0.0115565
-1.88169e-05
0.00926166
-1.02229e-05
0.00671693
-3.42457e-06
0.00404786
-1.08063e-06
0.00134481
0.00613893
-4.20049e-05
-0.000100453
-0.00199361
0.00196279
-0.000109516
-0.000171992
-0.00130089
0.00126678
-8.71135e-05
-5.30897e-05
-1.70208e-05
-3.97503e-05
-0.000439586
0.000429545
-5.50224e-06
-0.000441856
-2.64756e-06
0.000446761
-0.000446907
-7.70317e-07
-3.6158e-06
-6.29972e-08
-1.76115e-06
-0.000125566
0.00889914
-0.000117487
0.0113718
-0.000107915
0.0133918
-9.64059e-05
0.0148209
-8.03405e-05
0.0155577
-6.40587e-05
0.0155602
-5.22421e-05
0.0148387
-3.85013e-05
0.0134695
-2.7135e-05
0.0115648
-1.71692e-05
0.00926861
-1.07631e-05
0.00672427
-4.98522e-06
0.00405176
-1.14167e-06
0.00134595
0.00605825
-8.26474e-06
-3.66172e-05
-0.00191691
0.00189928
-2.43705e-05
-5.45752e-05
-0.00123863
0.00118666
-1.70478e-05
-4.04992e-05
-8.01544e-05
-6.36853e-05
-0.000380451
0.000353389
-6.00515e-05
-0.000400283
-3.32582e-05
0.000421731
-9.20689e-06
-1.83021e-05
-0.000257922
0.000253183
-7.63597e-07
-0.000260155
-4.14417e-07
-0.000449457
-1.06564e-06
0.00026164
-0.000262348
-6.24261e-08
-1.97864e-08
-2.76395e-07
-6.72836e-05
0.00884894
-7.49647e-05
0.0113388
-7.6464e-05
0.0133718
-7.27407e-05
0.0148133
-6.51818e-05
0.0155588
-5.81554e-05
0.0155661
-4.69092e-05
0.0148471
-3.68114e-05
0.0134792
-2.91865e-05
0.0115769
-2.05641e-05
0.00927841
-1.06074e-05
0.00672989
-5.30976e-06
0.00405593
-1.20901e-06
0.00134716
0.00600696
-6.3772e-07
-1.53614e-05
-0.00187524
0.00187242
-5.45041e-06
-1.25756e-05
-0.00114508
0.00112403
-1.76667e-07
-3.14459e-06
-1.04212e-05
-2.57668e-06
-0.000289869
0.000279145
-6.32437e-06
-0.000311663
-1.87045e-05
0.000331762
-5.85273e-05
-4.35866e-05
-0.000207676
0.000168955
-2.13298e-05
-0.00023119
-9.74491e-06
0.000245704
-1.72796e-06
-3.78761e-06
-7.50808e-05
7.43172e-05
-7.54952e-05
-0.000263299
-1.14478e-07
7.57716e-05
-7.5834e-05
-4.51449e-08
-3.74039e-05
0.00881138
-4.91376e-05
0.0113115
-5.44894e-05
0.0133536
-5.48568e-05
0.014803
-5.43339e-05
0.015555
-4.91606e-05
0.0155684
-4.32572e-05
0.0148535
-3.80621e-05
0.0134881
-2.95592e-05
0.0115859
-2.03662e-05
0.00928817
-1.36297e-05
0.00673821
-6.1578e-06
0.00406088
-1.53347e-06
0.0013487
0.00597653
9.45927e-07
-7.91341e-06
-0.00186061
0.00186098
-1.01073e-06
-3.54717e-06
-0.00111244
0.00110708
5.50412e-07
-6.39907e-07
-1.20409e-06
2.16822e-07
-0.000266333
0.00026625
-9.32646e-08
-0.000269102
-3.75755e-07
0.000271006
-2.28221e-06
-6.72604e-07
-8.58633e-05
7.95389e-05
-0.000104568
0.000148154
-3.7727e-05
-5.90567e-05
3.7727e-05
-6.88016e-05
7.25892e-05
-7.59485e-05
-2.21273e-05
0.00878437
-3.36344e-05
0.0112907
-4.07839e-05
0.0133395
-4.69064e-05
0.0147956
-4.77927e-05
0.0155536
-4.68476e-05
0.015572
-4.5994e-05
0.0148614
-4.07035e-05
0.0134992
-3.26266e-05
0.0115981
-2.51231e-05
0.00929966
-1.51242e-05
0.00674718
-6.92694e-06
0.00406627
-1.57178e-06
0.00135027
0.00595778
1.64219e-06
-5.01932e-06
-0.00185449
0.00185607
-6.32654e-07
-1.4229e-06
-0.00110365
0.00110256
4.03425e-07
-3.24195e-07
-3.35258e-07
2.24541e-07
-0.000264715
0.000265206
5.93151e-08
-0.000265412
5.65672e-08
0.000265219
-1.73491e-07
2.46032e-08
-7.62084e-05
7.61151e-05
-7.65841e-05
7.72567e-05
-1.41016e-05
0.00876484
-2.50353e-05
0.0112749
-3.21611e-05
0.0133247
-3.79406e-05
0.0147857
-4.45808e-05
0.0155514
-4.78253e-05
0.0155738
-4.94107e-05
0.0148701
-4.54211e-05
0.013512
-3.94143e-05
0.0116124
-2.8554e-05
0.00931309
-1.70176e-05
0.00675727
-7.77529e-06
0.00407247
-1.93556e-06
0.0013522
0.00594588
9.55408e-07
-3.16336e-06
-0.00185171
0.00185339
-3.56527e-08
-6.62873e-07
-0.00110117
0.00110044
2.63363e-07
-1.62432e-07
-1.89206e-07
1.51616e-07
-0.000264722
0.000265092
3.29183e-08
-0.000265126
8.06623e-08
0.000264958
-8.64994e-08
5.5694e-08
-7.60228e-05
7.60821e-05
-7.59662e-05
7.59416e-05
-1.0232e-05
0.00875003
-1.73633e-05
0.0112601
-2.75914e-05
0.0133144
-3.56865e-05
0.0147768
-4.3927e-05
0.0155475
-5.35557e-05
0.015578
-5.58552e-05
0.0148806
-5.43147e-05
0.0135269
-4.52715e-05
0.0116291
-3.4043e-05
0.00933012
-2.04425e-05
0.00676994
-9.34574e-06
0.00407988
-2.03623e-06
0.00135424
0.0059368
7.2989e-07
-1.87672e-06
-0.00185078
0.00185151
2.19411e-07
-5.51432e-07
-0.00109988
0.00109969
2.52607e-07
-9.66042e-08
-1.529e-07
4.64849e-08
-0.000264862
0.000265115
1.04579e-08
-0.000265091
6.57068e-08
0.000264972
-6.87169e-08
3.26238e-08
-7.6132e-05
7.61649e-05
-7.60513e-05
7.59956e-05
-7.12917e-06
0.0087398
-1.43828e-05
0.0112469
-2.51066e-05
0.0133038
-3.64841e-05
0.0147694
-4.93616e-05
0.0155433
-5.92426e-05
0.0155813
-6.5979e-05
0.0148922
-6.36017e-05
0.0135452
-5.34537e-05
0.0116485
-3.59312e-05
0.00934561
-2.07764e-05
0.00678137
-8.88696e-06
0.00408674
-1.84807e-06
0.00135609
0.00593001
1.15311e-06
-1.49338e-06
-0.00185003
0.00185059
1.75476e-07
-3.95279e-07
-0.00109919
0.00109936
1.63783e-07
-1.09068e-07
-8.86285e-08
3.41678e-08
-0.000264904
0.000265149
8.09115e-09
-0.000265072
7.10134e-08
0.000265042
-7.97837e-08
1.67071e-08
-7.61945e-05
7.6205e-05
-7.61288e-05
7.60962e-05
-5.9821e-06
0.0087314
-1.30994e-05
0.0112349
-2.41092e-05
0.0132914
-4.22613e-05
0.0147623
-6.10655e-05
0.0155451
-7.58227e-05
0.0155912
-7.96789e-05
0.0149083
-7.32989e-05
0.0135651
-5.87796e-05
0.0116714
-4.11591e-05
0.00936599
-2.29292e-05
0.00679541
-8.79385e-06
0.00409368
-1.91848e-06
0.00135801
0.00592425
9.62863e-07
-1.18953e-06
-0.00184931
0.00185024
2.20867e-07
-2.16958e-07
-0.00109903
0.00109908
1.62128e-07
-4.40844e-08
-2.07316e-08
-4.51061e-08
-0.000264984
0.000265146
1.92728e-09
-0.000265161
6.83088e-08
0.000265141
-8.0653e-08
1.39479e-08
-7.62129e-05
7.6221e-05
-7.61419e-05
7.61252e-05
-4.1597e-06
0.00872246
-1.28186e-05
0.0112236
-2.85915e-05
0.0132778
-4.74847e-05
0.0147487
-7.10518e-05
0.0155403
-8.9705e-05
0.0156012
-9.75996e-05
0.0149326
-8.70543e-05
0.0135934
-6.65315e-05
0.0116968
-4.34604e-05
0.00938652
-2.2429e-05
0.00680904
-9.49449e-06
0.00410126
-2.49987e-06
0.00136051
0.00591993
8.16803e-07
-6.55616e-07
-0.00184924
0.00184998
2.29898e-07
-1.89226e-07
-0.00109893
0.00109901
1.65886e-07
-3.21907e-08
-1.92458e-08
-3.91792e-08
-0.00026501
0.000265167
5.33614e-09
-0.000265152
9.71284e-08
0.000265205
-8.03137e-08
8.41496e-09
-7.62226e-05
7.62245e-05
-7.61543e-05
7.61403e-05
-4.72573e-06
0.00871437
-1.52044e-05
0.0112102
-3.50415e-05
0.0132653
-6.51653e-05
0.0147428
-9.44444e-05
0.0155451
-0.000113274
0.0156169
-0.000113439
0.014959
-9.74879e-05
0.0136243
-7.1533e-05
0.0117248
-4.46895e-05
0.00940878
-2.27733e-05
0.00682232
-7.73638e-06
0.00410649
-7.22618e-07
0.00136123
0.00591512
4.33259e-07
-3.49036e-07
-0.00184931
0.00184986
2.64821e-07
7.35902e-09
-0.00109889
0.00109897
1.64586e-07
-2.29885e-08
-1.19896e-08
-4.93697e-08
-0.000265079
0.000265239
5.91411e-09
-0.000265176
6.53933e-08
0.000265232
-8.37698e-08
1.61606e-08
-7.62498e-05
7.62551e-05
-7.61526e-05
7.61442e-05
-4.77713e-06
0.00870394
-2.04451e-05
0.0111956
-4.76111e-05
0.0132478
-8.49857e-05
0.0147334
-0.000118969
0.0155508
-0.000137081
0.0156405
-0.000130352
0.0149919
-0.00010697
0.0136597
-7.51816e-05
0.0117553
-4.20871e-05
0.00942809
-2.1362e-05
0.00683595
-6.71382e-06
0.00411248
-6.53788e-07
0.00136188
0.00591093
-7.58887e-07
1.73963e-07
-0.00184946
0.00184976
1.33228e-07
5.4836e-08
-0.00109903
0.00109914
1.68375e-07
-1.71117e-08
-7.27576e-09
-3.92012e-08
-0.000265148
0.000265319
-6.66618e-09
-0.000265157
-1.35731e-08
0.000265315
-8.82208e-08
1.08647e-07
-7.62529e-05
7.62588e-05
-7.61875e-05
7.61713e-05
-7.6006e-06
0.00869109
-2.78922e-05
0.0111759
-6.51171e-05
0.0132279
-0.000114039
0.0147284
-0.000151817
0.0155655
-0.000164003
0.0156742
-0.000145287
0.0150302
-0.000111261
0.0136958
-7.23852e-05
0.0117856
-4.11645e-05
0.0094479
-1.74527e-05
0.00684669
-6.208e-06
0.00411804
-4.03044e-07
0.00136229
0.00590333
-1.05142e-06
1.05249e-06
-0.00184984
0.00184894
1.41204e-07
9.40759e-08
-0.00109923
0.0010992
1.70268e-07
-1.3593e-08
2.92477e-09
-3.32383e-08
-0.000265202
0.000265376
-5.63009e-09
-0.000265207
-1.16749e-08
0.000265358
-4.66626e-08
1.12013e-07
-7.62656e-05
7.6259e-05
-7.62792e-05
7.61706e-05
-1.12558e-05
0.00867446
-4.07616e-05
0.0111515
-9.55935e-05
0.0132095
-0.000152179
0.0147288
-0.000189621
0.0155911
-0.00018629
0.0157152
-0.000155392
0.0150743
-0.000110576
0.013734
-6.83115e-05
0.0118128
-3.64501e-05
0.00946689
-1.59913e-05
0.00685647
-2.99533e-06
0.00412063
-1.82112e-07
0.00136247
0.0058927
-2.01719e-06
1.38891e-06
-0.00184982
0.00184897
-1.94994e-07
1.67728e-07
-0.00109932
0.00109931
1.6529e-07
-2.06928e-08
3.24143e-09
-2.41289e-08
-0.000265308
0.000265484
-5.52998e-09
-0.000265312
-1.02143e-08
0.000265458
-7.9138e-08
1.12816e-07
-7.63127e-05
7.6307e-05
-7.63243e-05
7.62123e-05
-1.84e-05
0.0086521
-6.48728e-05
0.0111208
-0.000135997
0.0131933
-0.000200141
0.0147393
-0.000223338
0.0156282
-0.000198148
0.0157579
-0.000154058
0.0151178
-0.000102806
0.0137685
-6.11265e-05
0.0118374
-3.10084e-05
0.00948191
-1.07025e-05
0.00686418
-2.74029e-06
0.00412319
1.91332e-07
0.00136228
0.00587686
-3.4653e-06
9.03022e-07
-0.0018499
0.00184829
-4.16034e-07
4.62042e-07
-0.00109951
0.00109914
1.78952e-07
2.26626e-09
-9.4005e-10
-3.03514e-08
-0.000265384
0.000265558
-8.46867e-09
-0.000265427
2.20903e-08
0.000265531
-4.37853e-08
7.98257e-08
-7.63305e-05
7.6325e-05
-7.63407e-05
7.62279e-05
-3.09716e-05
0.00861819
-0.000101229
0.0110861
-0.000192489
0.0131856
-0.000249847
0.0147658
-0.000242091
0.0156721
-0.000200663
0.0158045
-0.00014309
0.0151581
-9.29654e-05
0.0138004
-5.19359e-05
0.0118584
-2.28926e-05
0.0094941
-6.49796e-06
0.00686794
7.60658e-07
0.00412262
1.74633e-06
0.00136053
0.00585018
-5.91611e-06
1.62921e-06
-0.00184866
0.00184584
-6.47453e-07
5.40532e-07
-0.00109959
0.00109906
1.08135e-07
6.47195e-09
1.77759e-08
-1.23676e-08
-0.000265513
0.000265689
2.41122e-09
-0.00026552
9.33581e-09
0.000265641
-8.41902e-08
9.13809e-08
-7.63831e-05
7.63746e-05
-7.6361e-05
7.62812e-05
-5.56193e-05
0.00857258
-0.000161841
0.0110554
-0.00026098
0.0131968
-0.00028225
0.014806
-0.000245721
0.0157172
-0.00018596
0.0158474
-0.000126929
0.015192
-7.73854e-05
0.0138258
-4.13702e-05
0.0118769
-1.57176e-05
0.00950332
-3.04887e-06
0.00687175
1.66217e-06
0.0041227
2.07807e-06
0.00135845
0.00580685
-1.20941e-05
-1.96395e-07
-0.00184751
0.00184255
-9.54826e-07
-4.46976e-08
-0.00109957
0.0010988
4.99002e-08
8.05026e-08
9.35188e-08
-6.38257e-08
-0.00026567
0.00026578
-1.76349e-09
-0.000265676
1.17681e-08
0.000265785
-7.7937e-08
9.67137e-08
-7.63911e-05
7.63936e-05
-7.63818e-05
7.62904e-05
-0.000104729
0.00851547
-0.000244049
0.0110385
-0.000311903
0.0132264
-0.00028892
0.0148492
-0.000225779
0.015757
-0.000159316
0.0158798
-0.000104058
0.0152187
-6.17241e-05
0.0138462
-2.87576e-05
0.0118899
-9.36382e-06
0.00950964
1.01329e-06
0.00687239
5.27949e-06
0.0041195
2.47577e-06
0.00135598
0.0057352
-2.78452e-05
-5.2355e-06
-0.00184317
0.00183396
-2.88994e-06
-8.13477e-07
-0.0010987
0.00109765
-7.61686e-10
9.87351e-08
1.77273e-07
-1.26856e-07
-0.000265821
0.000265866
5.47545e-09
-0.000265786
4.55152e-08
0.000265919
-4.54159e-08
6.90986e-08
-7.64241e-05
7.64223e-05
-7.64123e-05
7.63156e-05
-0.000192989
0.00846441
-0.00033037
0.0110569
-0.000323729
0.0132612
-0.000256466
0.0148799
-0.000189354
0.015787
-0.000131157
0.0159069
-8.25908e-05
0.0152396
-4.38805e-05
0.0138613
-1.84834e-05
0.011899
-2.34776e-06
0.009513
3.68013e-06
0.00687399
7.32961e-06
0.00411465
2.85612e-06
0.00135312
0.00563961
-7.1829e-05
-2.55696e-05
-0.00183203
0.00181297
-8.77678e-06
-3.30533e-06
-0.00109681
0.00109414
-3.14294e-07
9.75706e-08
1.92578e-07
-1.71266e-07
-0.00026597
0.000265999
-3.0014e-08
-0.000265886
1.5231e-08
0.000266116
-7.29201e-08
1.02741e-07
-7.64915e-05
7.6497e-05
-7.6446e-05
7.63769e-05
-0.000324385
0.00845843
-0.000350359
0.0110836
-0.000276627
0.0132814
-0.000207847
0.0148984
-0.000147894
0.0158038
-9.92976e-05
0.0159236
-5.89077e-05
0.0152546
-2.93265e-05
0.0138721
-8.56216e-06
0.0119052
4.00619e-06
0.00951267
1.08521e-05
0.00687047
7.65335e-06
0.00410985
3.33056e-06
0.00134979
0.00558655
-0.000175508
-9.58193e-05
-0.0018015
0.0017608
-3.11307e-05
-1.41041e-05
-0.00109088
0.00108275
-8.08153e-07
1.58436e-07
4.47123e-07
-4.92247e-07
-0.000266016
0.000265736
-3.45176e-08
-0.00026597
5.16952e-08
0.00026622
-2.78265e-08
7.79111e-08
-7.65421e-05
7.65121e-05
-7.65268e-05
7.64241e-05
-0.000363908
0.00847198
-0.000276328
0.0110833
-0.000206942
0.0132805
-0.000154662
0.0149051
-0.00010886
0.0158133
-7.05707e-05
0.0159353
-3.9515e-05
0.0152648
-1.38889e-05
0.0138774
2.855e-06
0.0119064
1.15215e-05
0.009512
1.19875e-05
0.00686614
9.21394e-06
0.00410397
3.86816e-06
0.00134592
0.00558009
-0.000161203
-0.000196239
-0.00172455
0.00167578
-0.000126738
-5.95698e-05
-0.00106995
0.00104268
-3.60087e-06
-2.55759e-07
1.39645e-07
-1.4417e-06
-0.000265794
0.000265063
-7.70383e-08
-0.000265661
2.49117e-08
0.000266231
-4.72389e-08
7.80296e-08
-7.66138e-05
7.65793e-05
-7.65621e-05
7.64842e-05
-0.000240333
0.00843598
-0.000179661
0.011056
-0.000139796
0.0132656
-0.000104144
0.0149004
-7.44377e-05
0.0158172
-4.70143e-05
0.0159428
-2.07595e-05
0.0152717
-3.67274e-06
0.013884
1.08428e-05
0.0119071
1.53958e-05
0.00950859
1.95287e-05
0.00685582
1.07519e-05
0.00409708
4.59786e-06
0.00134132
0.00548951
-4.27914e-05
-0.00010696
-0.0016484
0.00161454
-0.000127345
-0.000168855
-0.000995794
0.000920515
-3.71308e-05
-1.43282e-05
-2.10535e-06
-1.05811e-05
-0.000263703
0.000260627
-5.24732e-07
-0.000263889
-6.99148e-08
0.000265304
-1.01501e-07
-2.6638e-08
-7.6635e-05
7.6558e-05
-7.66101e-05
7.65321e-05
-0.000121561
0.00837788
-0.000106951
0.0110232
-8.99768e-05
0.0132514
-6.97943e-05
0.0148958
-4.87955e-05
0.015819
-2.50021e-05
0.015947
-6.10766e-06
0.0152741
8.30295e-06
0.0138865
1.81314e-05
0.0119043
2.16254e-05
0.0095065
1.75142e-05
0.00684906
1.51997e-05
0.00408648
6.31655e-06
0.00133501
0.00540505
-5.31223e-06
-3.17939e-05
-0.00156251
0.00153985
-2.01278e-05
-5.49303e-05
-0.000874957
0.000811296
-1.86793e-05
-4.50041e-05
-5.95667e-05
-6.373e-05
-0.000239777
0.000212629
-9.98362e-06
-0.000250249
-3.85524e-06
0.000259127
-6.05559e-07
-1.70339e-06
-7.63599e-05
7.58352e-05
-7.64298e-05
7.64565e-05
-5.71215e-05
0.00832805
-5.97087e-05
0.0109929
-5.33924e-05
0.013235
-4.13099e-05
0.0148883
-2.3441e-05
0.0158174
-7.24903e-06
0.0159482
5.96221e-06
0.0152765
2.06239e-05
0.013884
2.57875e-05
0.0119002
2.82958e-05
0.00949572
2.55761e-05
0.00683868
1.53502e-05
0.00407745
5.77243e-06
0.00132923
0.00535723
1.76474e-06
-1.10656e-05
-0.00151654
0.00151383
-2.60105e-06
-8.4923e-06
-0.00076398
0.000744634
9.83891e-08
-8.79844e-07
-6.36972e-06
-1.24539e-06
-0.000104016
8.53366e-05
-0.00014902
0.000175168
-2.21049e-05
-3.75825e-05
-6.9671e-05
5.96874e-05
-7.35262e-05
7.52296e-05
-2.70872e-05
0.00829543
-3.25669e-05
0.0109721
-2.85707e-05
0.0132223
-1.95127e-05
0.0148844
-9.08849e-06
0.0158193
4.29958e-06
0.0159498
1.70011e-05
0.0152801
2.73695e-05
0.0138824
3.15724e-05
0.0118969
3.28066e-05
0.00948848
2.79829e-05
0.00682605
1.91207e-05
0.0040641
6.59158e-06
0.00132264
0.00533201
3.14994e-06
-5.01777e-06
-0.00150413
0.0015058
1.0043e-07
-1.36706e-06
-0.000736191
0.000733528
1.46226e-07
-8.42267e-08
-1.95044e-07
1.4564e-07
-7.68417e-05
7.694e-05
-7.77215e-05
7.89669e-05
3.75825e-05
-1.13664e-05
0.00827423
-1.39498e-05
0.0109574
-1.23069e-05
0.0132151
-4.15895e-06
0.0148794
6.64107e-06
0.0158169
1.82567e-05
0.0159486
2.92389e-05
0.0152782
3.53992e-05
0.0138786
3.9812e-05
0.0118899
4.12427e-05
0.00947523
3.18412e-05
0.00681333
2.15102e-05
0.00404918
8.51089e-06
0.00131413
0.00532057
2.89728e-06
-2.81894e-06
-0.00150092
0.00150364
4.26678e-07
-1.35142e-07
-0.000732054
0.000732089
9.5472e-08
-3.06357e-08
-1.84842e-08
1.2575e-07
-7.68064e-05
7.69527e-05
-7.68906e-05
7.6745e-05
-3.40134e-06
0.00826368
-3.3057e-06
0.0109484
9.34292e-07
0.01321
8.60853e-06
0.0148775
1.91723e-05
0.015816
2.8411e-05
0.0159494
3.84887e-05
0.0152751
4.40623e-05
0.0138744
4.84947e-05
0.0118826
4.35603e-05
0.00946351
3.72607e-05
0.00679758
2.15703e-05
0.00403612
8.06259e-06
0.00130607
0.00531564
2.72383e-06
-1.20093e-06
-0.00150071
0.00150308
5.2549e-07
1.11291e-07
-0.000731895
0.000732278
6.3755e-08
-1.98071e-08
-3.06928e-08
9.01593e-08
-7.70293e-05
7.71248e-05
-7.70599e-05
7.69342e-05
1.82772e-06
0.00825855
3.77327e-06
0.0109456
9.39622e-06
0.0132092
1.6735e-05
0.0148799
2.67441e-05
0.0158177
3.84196e-05
0.0159495
4.56402e-05
0.0152735
5.40294e-05
0.0138688
5.55585e-05
0.0118706
4.96446e-05
0.00945112
4.07923e-05
0.00677836
2.43641e-05
0.00401982
8.96238e-06
0.00129711
0.00531467
3.06875e-06
-2.70166e-07
-0.00150155
0.00150369
5.83578e-07
3.27251e-07
-0.00073231
0.000732811
5.27682e-08
-2.78612e-08
-4.29149e-09
8.27651e-08
-7.71644e-05
7.72282e-05
-7.71842e-05
7.70941e-05
4.2782e-06
0.00825804
9.05617e-06
0.0109459
1.68756e-05
0.0132091
2.62273e-05
0.0148804
3.61435e-05
0.0158199
4.69278e-05
0.0159482
5.62536e-05
0.0152713
6.08137e-05
0.0138636
5.76459e-05
0.0118626
5.5051e-05
0.00943686
4.2473e-05
0.00676025
2.98836e-05
0.0039989
9.36349e-06
0.00128774
0.0053161
2.96122e-06
-1.07876e-07
-0.001503
0.00150547
5.96825e-07
4.23883e-07
-0.00073306
0.000733533
3.30324e-08
7.76048e-08
2.82612e-08
4.95009e-08
-7.72788e-05
7.73316e-05
-7.73067e-05
7.72239e-05
7.48478e-06
0.00825961
1.43547e-05
0.0109485
2.24936e-05
0.0132128
3.38444e-05
0.0148827
4.607e-05
0.0158208
5.54822e-05
0.0159489
6.35983e-05
0.0152685
6.92372e-05
0.013852
7.20325e-05
0.0118456
6.27768e-05
0.00941656
5.28215e-05
0.00673731
3.05099e-05
0.00397775
9.93442e-06
0.00127781
0.00532026
2.50559e-06
8.1321e-07
-0.00150493
0.00150726
6.23914e-07
4.36288e-07
-0.000733871
0.000734448
2.03564e-08
-1.07594e-09
3.12711e-08
5.50727e-08
-7.74869e-05
7.752e-05
-7.74093e-05
7.73598e-05
8.97878e-06
0.00826499
1.70394e-05
0.0109539
2.74246e-05
0.0132192
4.08058e-05
0.014888
5.21553e-05
0.0158241
6.48705e-05
0.0159477
7.52321e-05
0.0152625
7.91438e-05
0.0138449
8.15063e-05
0.0118269
7.23786e-05
0.009397
5.43831e-05
0.00671344
3.42781e-05
0.00395341
1.34034e-05
0.00126441
0.00532557
2.57617e-06
1.09331e-06
-0.00150746
0.0015093
6.71779e-07
6.14804e-07
-0.000734835
0.000735405
2.43378e-08
2.92149e-08
7.22239e-09
4.29269e-08
-7.76052e-05
7.76256e-05
-7.76063e-05
7.75512e-05
1.04104e-05
0.00827162
2.09983e-05
0.0109603
3.3488e-05
0.0132265
4.66752e-05
0.0148935
6.09335e-05
0.0158281
7.44175e-05
0.0159485
8.31162e-05
0.0152586
8.74805e-05
0.0138389
8.46374e-05
0.0118147
8.00792e-05
0.00937131
6.13074e-05
0.00668641
3.76945e-05
0.00392912
2.76472e-05
0.00123676
0.0053324
2.32264e-06
1.25601e-06
-0.00150973
0.00151137
9.39041e-07
6.60658e-07
-0.000735929
0.000736568
2.78518e-08
4.98777e-09
3.33298e-08
5.77283e-08
-7.7705e-05
7.77293e-05
-7.76757e-05
7.76328e-05
1.15251e-05
0.00828109
2.4903e-05
0.0109689
4.13054e-05
0.0132319
5.54749e-05
0.0148989
7.17691e-05
0.0158307
8.2304e-05
0.0159493
9.27477e-05
0.0152533
9.7758e-05
0.0138258
9.61511e-05
0.0117986
8.5917e-05
0.0093467
6.79291e-05
0.00665617
5.81708e-05
0.0038986
5.46161e-05
0.00534119
1.60856e-06
1.13282e-06
-0.00151187
0.00151364
5.49224e-07
7.53771e-07
-0.000737134
0.000737962
1.05712e-07
5.87481e-09
3.47559e-08
5.90582e-08
-7.78253e-05
7.78532e-05
-7.78203e-05
7.77626e-05
1.30355e-05
0.00829296
2.79583e-05
0.0109823
4.5022e-05
0.0132424
6.32413e-05
0.0149075
7.90901e-05
0.0158339
9.39073e-05
0.0159481
0.000102928
0.0152481
0.000106473
0.0138155
0.000103849
0.0117807
9.12991e-05
0.00932333
8.76221e-05
0.00662672
9.95095e-05
0.00535233
1.13647e-06
7.58015e-07
-0.00151447
0.00151629
-2.06633e-07
3.00148e-07
-0.000738612
0.000739104
3.09942e-08
2.65349e-08
7.18698e-08
3.15165e-08
-7.79529e-05
7.80586e-05
-7.7947e-05
7.78879e-05
1.71593e-05
0.00830376
3.38369e-05
0.0109935
5.11556e-05
0.0132545
6.94698e-05
0.0149171
8.68125e-05
0.015841
0.000102768
0.0159483
0.000112384
0.0152422
0.000119677
0.0137996
0.000116674
0.0117553
0.000113908
0.00929704
0.000129441
0.00536289
5.12858e-06
1.47291e-06
-0.00151839
0.00152147
-1.93918e-06
-1.34404e-06
-0.000739339
0.000739184
-1.0706e-09
-5.01925e-08
1.57824e-08
4.90431e-08
-7.81885e-05
7.82195e-05
-7.8162e-05
7.81305e-05
2.07873e-05
0.00831681
3.69274e-05
0.0110077
5.79265e-05
0.013266
7.84401e-05
0.0149254
9.81671e-05
0.0158456
0.000110839
0.0159498
0.00012292
0.015239
0.000128188
0.0137881
0.000133743
0.0117354
0.000150995
0.00537314
5.21931e-06
5.31749e-06
-0.00151947
0.00152377
1.23e-06
-4.06276e-07
-1.73811e-06
5.21229e-06
-0.000737795
0.000436415
0.000299667
-2.21345e-07
-4.8243e-09
2.31209e-08
2.21426e-08
-7.82341e-05
7.82331e-05
-7.82843e-05
7.82353e-05
2.23396e-05
0.0083314
4.23214e-05
0.0110233
6.31026e-05
0.0132813
8.6706e-05
0.0149369
0.000104506
0.015852
0.000121269
0.0159515
0.000130124
0.015237
0.000142978
0.0137789
0.000159643
0.00538639
4.47721e-06
4.60547e-06
-0.00152603
0.0015285
1.50632e-06
1.23874e-06
1.82193e-06
1.23954e-06
-0.000465126
0.000467283
-9.27162e-07
-0.000462458
-3.07377e-06
-0.000457374
-6.8221e-06
-1.57472e-05
0.000281075
2.84451e-06
-7.82735e-05
7.80521e-05
-7.82783e-05
7.82562e-05
2.42286e-05
0.00834949
4.66091e-05
0.0110398
7.12823e-05
0.0132968
9.44728e-05
0.0149469
0.000113537
0.0158597
0.000129869
0.0159518
0.000146038
0.015234
0.000164353
0.00540126
4.5246e-06
4.83502e-06
-0.0015308
0.00153344
1.07567e-06
7.65456e-07
1.2842e-06
1.01851e-06
-0.000470111
0.000470804
8.13385e-07
-0.000469515
6.42643e-07
-0.000468219
5.25834e-07
3.03267e-07
-0.000273118
0.000272707
-5.16235e-07
-0.000275143
-1.04874e-06
-8.8997e-07
8.08966e-05
2.76348e-05
0.00836846
5.13452e-05
0.0110597
7.90281e-05
0.0133122
0.000100694
0.0149598
0.0001204
0.0158692
0.000138629
0.0159592
0.000157741
0.00541875
4.95375e-06
5.1979e-06
-0.0015365
0.00153915
8.19384e-07
1.05549e-06
9.99701e-07
7.77712e-07
-0.000472445
0.000472954
5.66794e-07
-0.000472091
4.11767e-07
-0.000471226
4.1884e-07
5.96638e-07
-0.000273913
0.000274581
1.46291e-07
-0.000273432
1.61169e-07
-0.000273011
1.04816e-07
-5.46167e-10
-7.89579e-05
7.84417e-05
-8.00067e-05
3.04557e-05
0.00838935
5.78525e-05
0.0110809
8.42171e-05
0.0133287
0.000106523
0.0149737
0.000127
0.0158808
0.000140995
0.00543795
5.3653e-06
5.88671e-06
-0.0015425
0.00154554
7.91915e-07
1.11849e-06
8.03662e-07
1.04271e-06
-0.000474533
0.000474982
3.71296e-07
-0.000473854
3.75746e-07
-0.000473316
4.61774e-07
4.15815e-07
-0.000275591
0.000276059
9.89749e-08
-0.000275277
9.7734e-08
-0.000274992
1.34399e-07
1.84944e-07
-7.87071e-05
7.88534e-05
-7.8546e-05
-7.84412e-05
3.49793e-05
0.00841223
6.45149e-05
0.0111006
9.00166e-05
0.0133452
0.000109957
0.0149907
0.000117259
0.00546011
6.18818e-06
6.62906e-06
-0.0015493
0.00155257
8.82187e-07
1.21707e-06
8.97579e-07
1.22984e-06
-0.000476652
0.000477042
4.01882e-07
-0.000475866
3.32578e-07
-0.000475444
3.81736e-07
5.79796e-07
-0.000277035
0.000277314
9.20836e-08
-0.000276716
5.62567e-08
-0.000276381
1.26672e-07
9.38521e-08
-7.92705e-05
7.93695e-05
-7.91728e-05
-7.90384e-05
4.05196e-05
0.00843622
7.13157e-05
0.0111193
9.08267e-05
0.0133643
9.11678e-05
0.00548552
7.08733e-06
8.02414e-06
-0.00155655
0.00156033
1.28495e-06
1.1252e-06
1.2836e-06
1.3636e-06
-0.000478981
0.00047925
6.12796e-07
-0.000478134
3.70418e-07
-0.000477651
4.14044e-07
6.21257e-07
-0.000278294
0.000278596
1.00505e-07
-0.000278058
9.65777e-08
-0.000277769
9.2706e-08
1.24855e-07
-7.96462e-05
7.97383e-05
-7.959e-05
-7.94633e-05
4.92187e-05
0.00845832
7.23717e-05
0.0111378
6.45262e-05
0.00551405
1.02169e-05
1.04703e-05
-0.00156558
0.00156976
1.49039e-06
1.41972e-06
1.46727e-06
1.30557e-06
-0.000481546
0.00048215
6.81049e-07
-0.000480909
4.88353e-07
-0.000480099
4.7373e-07
5.15075e-07
-0.000279616
0.000280118
1.11354e-07
-0.000279328
8.21042e-08
-0.000279121
2.07355e-07
9.55987e-08
-8.00525e-05
8.0153e-05
-7.99559e-05
-7.98632e-05
5.38928e-05
0.0084768
4.18864e-05
0.00553763
1.57694e-05
1.45417e-05
-0.00157654
0.00158224
2.36154e-06
2.16328e-06
1.95493e-06
1.72778e-06
-0.000484682
0.000485333
8.39769e-07
-0.000483777
5.15263e-07
-0.00048287
5.60057e-07
5.84859e-07
-0.000281218
0.00028182
7.8492e-08
-0.000280847
1.17291e-07
-0.000280489
1.16089e-07
1.43646e-07
-8.0538e-05
8.06494e-05
-8.04559e-05
-8.02486e-05
2.78881e-05
1.22667e-05
3.10898e-05
-0.00159064
0.00159763
4.96382e-06
3.81592e-06
3.36509e-06
2.76723e-06
-0.000488761
0.000489806
1.3165e-06
-0.000487553
9.55374e-07
-0.000486341
7.42957e-07
7.19088e-07
-0.000283056
0.000283752
1.4314e-07
-0.000282678
1.37816e-07
-0.000282253
1.34459e-07
1.52327e-07
-8.10264e-05
8.11049e-05
-8.09091e-05
-8.0793e-05
-0.00160989
7.81844e-06
1.61025e-05
1.07797e-05
8.05142e-06
-0.000494941
0.00049708
2.82445e-06
-0.00049293
1.80441e-06
-0.000491167
1.60236e-06
1.40644e-06
-0.000285592
0.000286617
2.91066e-07
-0.000284853
2.1698e-07
-0.000284285
1.75049e-07
1.86275e-07
-8.15294e-05
8.16726e-05
-8.13916e-05
-8.12572e-05
-0.000507884
1.12496e-05
-0.000503495
1.17135e-05
-0.000500212
7.49592e-06
4.92019e-06
-0.000290213
0.000292309
7.28596e-07
-0.000288891
4.82715e-07
-0.000287673
3.84096e-07
3.50609e-07
-8.22509e-05
8.25419e-05
-8.20339e-05
-8.18589e-05
-0.00030412
1.53246e-05
-0.000299861
7.45462e-06
-0.00029575
3.38483e-06
1.47841e-06
-8.37593e-05
8.44879e-05
-8.32766e-05
-8.28925e-05
-9.68058e-05
-8.93512e-05
-8.59663e-05
3.62214e-06
-3.62224e-06
1.37721e-05
4.31685e-06
-1.44672e-05
2.10656e-06
-5.72887e-06
9.97685e-06
3.79508e-06
2.32451e-05
5.2473e-06
-2.41759e-05
4.47147e-06
-1.68323e-05
1.0649e-06
-6.7939e-06
1.87054e-06
8.10626e-06
2.2257e-05
4.78296e-06
-5.17438e-06
5.96311e-05
9.58529e-06
-5.87963e-05
-2.4879e-05
3.02202e-06
-1.87897e-05
5.5257e-07
-7.34655e-06
3.04441e-06
2.1083e-05
7.07444e-07
7.39875e-06
9.00917e-06
5.84486e-05
-9.3496e-06
1.09693e-05
2.30859e-05
-1.5125e-05
-4.57824e-06
-6.06003e-05
-2.96794e-06
-2.64353e-05
1.93831e-06
-2.01756e-05
2.39311e-07
-7.58596e-06
1.90791e-06
1.98824e-05
2.34902e-07
7.16375e-06
-6.59379e-06
2.55586e-06
2.40129e-05
-9.51827e-07
5.4714e-05
-0.000553459
4.47119e-05
0.000531828
-9.08237e-06
3.31752e-05
-3.13307e-05
-7.8917e-06
-6.53891e-05
-2.54071e-06
-1.75365e-06