/*--------------------------------*- C++ -*----------------------------------*\
| =========                 |                                                 |
| \\      /  F ield         | OpenFOAM: The Open Source CFD Toolbox           |
|  \\    /   O peration     | Version:  v1912                                 |
|   \\  /    A nd           | Website:  www.openfoam.com                      |
|    \\/     M anipulation  |                                                 |
\*---------------------------------------------------------------------------*/
FoamFile
{
    version     2.0;
    format      ascii;
    class       surfaceScalarField;
    location    "160";
    object      phi;
}
// * * * * * * * * * * * * * * * * * * * * * * * * * * * * * * * * * * * * * //

dimensions      [0 3 -1 0 0 0 0];
oriented        oriented;


internalField   nonuniform List<scalar> 
7196
(
0.00510654
0.00490046
0.0062304
0.00888414
0.0024593
0.00244116
0.00618677
0.0100506
0.00447167
0.00687177
0.000926296
0.00151487
0.00596277
0.010233
0.00522538
0.00929692
0.00258576
0.00521231
0.000294579
0.00122029
0.00577481
0.010197
0.0052731
0.0101853
0.00374038
0.0081423
0.00128741
0.00421947
7.81396e-05
0.00114215
0.00563034
0.0101555
0.00511159
0.0103585
0.00419626
0.0097294
0.0023314
0.00709832
0.000565438
0.00373218
6.74707e-07
0.00114147
0.00550576
0.0101356
0.00494451
0.0103225
0.00423514
0.0103196
0.00296866
0.00909214
0.0012848
0.00637895
0.000194795
0.00353806
-2.90815e-05
0.00117056
0.00539041
0.0101274
0.00481208
0.010268
0.00412796
0.0104297
0.00319225
0.010096
0.00186989
0.00850705
0.000601351
0.0059724
1.33995e-05
0.00349557
-3.8322e-05
0.00120888
0.00528215
0.0101203
0.00471105
0.0102284
0.0040066
0.0103894
0.00318179
0.0104402
0.00216081
0.00980509
0.00101843
0.00808997
0.000193385
0.00579241
-6.76153e-05
0.00352487
-3.64283e-05
0.00124531
0.00517806
0.0101141
0.00463103
0.0102003
0.00390861
0.0103264
0.00308824
0.0104829
0.00220769
0.0103933
0.00126717
0.00955634
0.000430482
0.00785287
-2.31108e-05
0.00574791
-9.24025e-05
0.00358084
-2.9905e-05
0.00127521
0.00508068
0.0101054
0.00457183
0.0101733
0.00384087
0.010268
0.0029869
0.0104277
0.00212698
0.0105636
0.00131483
0.0103456
0.000586471
0.00940036
7.40271e-05
0.00775574
-0.000118824
0.00577433
-9.08509e-05
0.00364179
-2.33678e-05
0.00129858
0.00499117
0.0100935
0.00453522
0.010142
0.00380503
0.0102091
0.00290766
0.0103472
0.00200295
0.0105518
0.00121929
0.0106592
0.000593492
0.0103386
0.000136365
0.00933802
-0.000109089
0.007746
-0.00014685
0.00583033
-7.86996e-05
0.00369712
-1.71688e-05
0.00131575
0.00490814
0.010082
0.00452059
0.0101081
0.00380312
0.0101439
0.0028613
0.0102555
0.00187797
0.0104722
0.00104713
0.0107239
0.000460503
0.0107922
9.30795e-05
0.0103819
-0.00011395
0.00934288
-0.000185203
0.00778435
-0.000144379
0.00589601
-6.39994e-05
0.00374395
-1.14979e-05
0.00132725
0.00483145
0.0100697
0.00453037
0.0100722
0.00384374
0.0100675
0.00285965
0.0101455
0.00177254
0.0103609
0.000840331
0.010679
0.000229105
0.0109553
-6.90276e-05
0.0109543
-0.000187888
0.0104558
-0.000229932
0.00938761
-0.000205562
0.00784554
-0.000127969
0.00595998
-4.908e-05
0.00378153
-7.21708e-06
0.00133446
0.00475907
0.0100574
0.00456408
0.010036
0.00393126
0.00998473
0.00291458
0.0100126
0.00170474
0.0102133
0.00062342
0.0105778
-7.14968e-05
0.0109796
-0.000335349
0.0112216
-0.000356891
0.0111233
-0.000322525
0.0105484
-0.000274241
0.00945629
-0.00019828
0.00791585
-0.0001073
0.0060182
-3.55141e-05
0.00380983
-3.58122e-06
0.00133805
0.00468815
0.0100499
0.00461656
0.0100049
0.00407147
0.00989577
0.00304598
0.00985333
0.00169948
0.0100178
0.000414068
0.0104227
-0.000428638
0.010935
-0.000689474
0.0113338
-0.000613309
0.0114781
-0.000484296
0.011285
-0.000379078
0.0106533
-0.000280723
0.00953873
-0.000178304
0.00798685
-8.49646e-05
0.00606765
-2.45532e-05
0.0038308
-1.39647e-06
0.00133944
0.00461514
0.010046
0.00468329
0.0099832
0.00426241
0.00981395
0.0032691
0.00967265
0.0017882
0.00976461
0.000231949
0.0102
-0.000844193
0.0108383
-0.0011317
0.0113772
-0.000944986
0.0116654
-0.000716331
0.0117101
-0.000537961
0.0114439
-0.000391712
0.0107643
-0.000264426
0.00962485
-0.000152733
0.00805462
-6.63365e-05
0.00610943
-1.57584e-05
0.00384517
5.86587e-07
0.00133886
0.00453631
0.0100498
0.00475062
0.00997867
0.00449533
0.00975028
0.00360096
0.0094821
0.00201476
0.00944609
0.000114776
0.00988179
-0.0013233
0.0106791
-0.00167654
0.0113831
-0.00134831
0.0117805
-0.00100407
0.0119532
-0.000749066
0.0119212
-0.00054633
0.0115985
-0.000378475
0.0108783
-0.000239198
0.00971132
-0.000127835
0.00811612
-4.97769e-05
0.00614345
-8.98596e-06
0.00385474
1.76151e-06
0.00133709
0.00444727
0.010061
0.00480666
0.00999379
0.004752
0.00972201
0.00404242
0.00930882
0.00243554
0.00906132
0.000126862
0.009434
-0.00187367
0.0104322
-0.00235717
0.0113597
-0.00182355
0.0118583
-0.00133557
0.012112
-0.00100479
0.0122089
-0.000745715
0.0121206
-0.00052888
0.0117489
-0.00035108
0.0109902
-0.00021135
0.00979483
-0.000105858
0.0081722
-3.70412e-05
0.00617151
-4.57396e-06
0.00386107
2.41094e-06
0.00133468
0.00434465
0.0100786
0.00483724
0.0100305
0.00500142
0.00974437
0.00456739
0.00919704
0.00310633
0.00863803
0.000389364
0.00879882
-0.00248477
0.0100451
-0.00321081
0.0112858
-0.00237423
0.0119104
-0.00170471
0.0122275
-0.00128809
0.0123953
-0.000975764
0.012439
-0.000716122
0.0123078
-0.000497396
0.0118953
-0.000322224
0.0111011
-0.000185465
0.00987444
-8.75463e-05
0.00822271
-2.70533e-05
0.00619399
-5.79048e-07
0.00386406
3.15797e-06
0.00133153
0.00422658
0.0101011
0.00482758
0.0100883
0.0052129
0.00981898
0.00512156
0.00919019
0.0040197
0.00828367
0.00114956
0.00787783
-0.00305799
0.00937204
-0.00424111
0.0110754
-0.00296846
0.01188
-0.00208121
0.0122869
-0.00157556
0.012515
-0.00122086
0.0126404
-0.000928678
0.0126515
-0.000675958
0.0124864
-0.000463417
0.0120365
-0.000291527
0.0112071
-0.00016122
0.00994811
-7.13856e-05
0.00826704
-1.88068e-05
0.00621222
1.88483e-06
0.00386534
3.42845e-06
0.0013281
0.00409474
0.0101228
0.00477077
0.0101579
0.00535268
0.0099485
0.00563473
0.00930581
0.00507009
0.0081398
0.00270812
0.00672512
-0.00318471
0.00800455
-0.00530619
0.0104371
-0.00343115
0.0115381
-0.00237012
0.0121689
-0.00181353
0.0125249
-0.00144492
0.012739
-0.00114484
0.0128566
-0.000877057
0.0128526
-0.000634545
0.0126575
-0.000427678
0.0121726
-0.000261988
0.0113079
-0.000140682
0.0100174
-5.82282e-05
0.00830646
-1.30664e-05
0.00622717
3.17129e-06
0.00386559
3.5512e-06
0.00132455
0.00394996
0.0101418
0.00466692
0.0102267
0.00539607
0.0101145
0.00602557
0.00955765
0.00613733
0.00823858
0.00463478
0.0031774
0.00303573
-0.000203828
0.0028793
-0.00140832
0.00227326
-0.00324199
0.00448835
-0.00235573
0.00380773
-0.00189483
0.0102911
-0.0013903
-0.00233453
0.0115025
-0.00187365
0.0122291
-0.0015756
0.0126555
-0.00132296
0.0129171
-0.00107285
0.0130524
-0.000823348
0.0130414
-0.000591072
0.0128209
-0.000393462
0.0123041
-0.000236998
0.0114042
-0.000123277
0.0100825
-4.87579e-05
0.00834215
-8.82875e-06
0.00623917
4.54595e-06
0.0038646
3.3145e-06
0.00132123
0.00379655
0.0101554
0.00452391
0.0102848
0.00534316
0.0102796
0.00622945
0.00991062
0.0070104
0.00868458
0.00682748
0.00299372
0.00305216
0.000605325
0.00236825
0.00155654
0.00208452
-0.0032135
0.00285082
-0.000691279
0.000871785
0.000779417
-0.00127169
-0.00113032
0.000569756
0.000892014
-0.00175305
0.00434656
-0.000991272
0.00127691
0.000886221
-0.000676767
-0.000646031
0.00322586
-0.000525145
-0.000919625
0.00956274
-0.000686533
-0.000995703
0.00395196
-0.00155255
0.0111814
-0.00148443
0.0121379
-0.0013861
0.0127187
-0.00122393
0.0130682
-0.00100457
0.0132336
-0.000766387
0.0132167
-0.000546358
0.0129738
-0.00035989
0.012427
-0.000215019
0.011496
-0.000108328
0.010142
-4.12009e-05
0.00837452
-6.51418e-06
0.00625023
4.5597e-06
0.00386335
3.35869e-06
0.00131787
0.0036378
0.0101638
0.00434998
0.0103293
0.00520763
0.0104203
0.00624369
0.0102654
0.00748504
0.00943598
0.00867723
0.00327545
0.00355938
0.00262815
0.00192211
0.00358437
0.00105866
0.00103728
0.000461482
0.000397983
0.000533777
-0.00108995
0.000690049
-0.000858533
0.000547995
-0.000934836
0.000494561
0.00106432
-0.000494561
0.000965059
-0.000491173
0.00112205
0.00068334
-0.000288292
0.000288292
-0.000171688
0.00266689
-0.000265044
-0.000323097
0.000919999
0.00356388
-0.000531542
-0.000427672
0.00876773
-0.000329872
0.00322825
-0.000350898
-0.00105855
0.0107555
-0.00122835
0.0119802
-0.00125389
0.0127486
-0.00113494
0.0131986
-0.000929574
0.0133968
-0.000707039
0.0133774
-0.000502386
0.0131163
-0.000329204
0.0125412
-0.00019455
0.0115822
-9.7272e-05
0.0101981
-3.62074e-05
0.00840422
-4.58369e-06
0.00625937
4.69843e-06
0.00386201
2.92608e-06
0.00131495
0.00347564
0.0101692
0.00415372
0.01036
0.00501134
0.0105256
0.00610943
0.0105546
0.00757735
0.010173
0.00958702
0.00407947
0.00444672
0.0046578
0.00220202
0.00546576
0.00275142
0.00105237
0.000269945
0.000251696
0.000809576
-0.00143709
0.00177608
0.000719677
0.000652556
0.000711596
-0.000313613
0.000386841
-0.000386841
0.000360242
-0.000771131
0.000653278
-5.38361e-05
0.00227407
-8.12552e-05
-5.74667e-05
-0.000116176
0.0030142
-0.000213624
-0.000215362
0.0081099
-0.000185358
0.00284057
-0.000156248
0.00200462
-3.79796e-05
-4.34664e-05
-0.000809664
0.0103368
-0.0010893
0.0118156
-0.00115935
0.012773
-0.00103778
0.0133068
-0.000849154
0.0135389
-0.000648195
0.0135232
-0.000461004
0.0132481
-0.000303677
0.0126503
-0.000179159
0.0116641
-8.9794e-05
0.0102517
-3.22344e-05
0.00843187
-4.17354e-06
0.00626824
4.3996e-06
0.00386054
2.79322e-06
0.00131215
0.00331062
0.010173
0.00394091
0.010382
0.00477142
0.0105999
0.00586929
0.0107658
0.00739226
0.0107397
0.00970727
0.0100528
0.00607333
0.00347191
0.00648998
0.00403007
0.00496204
-0.00162766
0.00030368
0.000340044
0.00629871
0.000881231
0.000533521
-4.36687e-05
0.000208027
0.00119277
0.000269365
0.000284779
0.000244067
0.000591432
-1.94091e-05
0.00019023
0.000547102
-1.31365e-05
0.00184101
-2.68311e-05
-2.31864e-05
0.00272435
-9.9138e-05
-0.000138132
0.00758317
-0.000144794
0.00261921
-8.02238e-05
0.00172214
-1.80457e-05
-1.93281e-05
-0.000512551
0.000484028
-9.45595e-06
-8.91575e-06
-0.000723604
0.00997113
-0.0010289
0.0116851
-0.00104496
0.0127802
-0.000930642
0.0133883
-0.000766355
0.013657
-0.000591279
0.0136535
-0.00042625
0.0133707
-0.000282765
0.0127539
-0.000167383
0.0117417
-8.36049e-05
0.0103031
-3.05653e-05
0.00845826
-4.08628e-06
0.00627673
3.76312e-06
0.00385957
2.2512e-06
0.0013099
0.00314291
0.0101757
0.00371807
0.0103959
0.00450215
0.0106512
0.00555761
0.0109116
0.00703853
0.0111195
0.00928982
0.0111571
-0.0075971
0.0140912
0.00470146
0.00534725
0.00710791
0.00126927
0.00139343
0.00189775
0.00164312
0.00106585
-0.000762171
0.0014059
-0.00193942
0.00282065
0.000477392
0.000170821
0.000157685
0.000462889
-5.69241e-06
0.000444976
-5.27365e-06
0.00164527
-1.17203e-05
-1.05564e-05
0.00254108
-6.00014e-05
-0.000121669
0.00713926
-0.000158029
0.00245595
-5.96556e-05
0.00158279
-8.78856e-06
-8.9551e-06
-0.000429796
0.00041629
-4.53952e-06
-4.14754e-06
-0.000148769
0.000139313
-0.000749303
0.00969152
-0.000933762
0.0115739
-0.000914645
0.0127642
-0.000818987
0.0134409
-0.000686256
0.013752
-0.000540575
0.0137678
-0.000396546
0.0134845
-0.000266332
0.0128528
-0.000158558
0.0118166
-7.96266e-05
0.0103521
-2.90793e-05
0.00848325
-4.29069e-06
0.00628478
2.9848e-06
0.00385884
2.08365e-06
0.00130782
0.00297537
0.0101755
0.00348946
0.0104043
0.00421256
0.0106854
0.00520197
0.0110069
0.00659169
0.0113584
0.00863555
0.0117738
0.0128791
0.0123692
0.00879694
-0.00418319
-0.00338153
0.00196203
0.00150721
0.00885379
0.0052904
0.00301082
0.0010791
0.00345858
0.000945668
-0.00392469
0.00163925
0.00117702
0.000133621
0.000128347
0.000407053
-2.48352e-06
0.000398774
-2.27802e-06
0.00153535
-6.11721e-06
-6.44039e-06
0.00238884
-5.45636e-05
-0.000162804
0.00679548
-0.000242715
0.00229772
-6.69088e-05
0.00148802
-6.52971e-06
-5.79041e-06
-0.000391666
0.00038492
-2.04223e-06
-1.84697e-06
-0.0001242
0.00011966
-0.000747264
0.00950503
-0.000785998
0.0114453
-0.000770311
0.0127155
-0.000713972
0.0134686
-0.000619173
0.0138306
-0.000501477
0.0138727
-0.00037523
0.0135933
-0.000254838
0.0129491
-0.000152859
0.0118898
-7.63061e-05
0.0103993
-2.83746e-05
0.00850734
-4.76032e-06
0.00629253
2.40875e-06
0.00385851
1.74e-06
0.00130608
0.00280762
0.0101767
0.00325622
0.0104088
0.00391206
0.0107048
0.00482199
0.0110654
0.0060934
0.0115052
0.00792095
0.0120731
0.0112719
0.0133809
-0.00683856
0.0160077
0.0054734
0.00658047
-0.00320179
0.00145951
-0.00296672
0.00313492
0.00179383
-0.00145951
-0.00179383
0.00182824
0.00155235
0.0010791
0.00202477
0.000117177
0.000114899
0.000380162
-1.3595e-06
0.000374861
-1.13877e-06
0.00144394
-4.64105e-06
-5.84987e-06
0.00221904
-8.41252e-05
-0.000292167
0.00661891
-0.000278526
0.00211381
-0.000137481
0.00138898
-7.259e-06
-4.68412e-06
-0.00037032
0.000365263
-1.4734e-06
-1.2493e-06
-0.000113052
0.000111009
-0.000576966
0.00929599
-0.000614276
0.0112892
-0.00064349
0.0126451
-0.000628613
0.0134781
-0.000568786
0.0138979
-0.00047373
0.0139712
-0.000359561
0.0136981
-0.000244947
0.0130412
-0.000146403
0.0119599
-7.27413e-05
0.0104437
-2.7628e-05
0.0085302
-5.76536e-06
0.0063007
1.53032e-06
0.00385872
1.59689e-06
0.00130448
0.00264012
0.0101765
0.00302261
0.0104104
0.00360463
0.0107162
0.00442674
0.0111001
0.00557118
0.0115876
0.00719462
0.0122315
0.00976319
0.0135818
0.014375
0.0150136
0.00504606
-0.00201724
-0.00136335
0.00198027
0.00182767
0.00589853
0.005728
-0.00155235
0.00136335
0.00010965
0.000108511
0.000361682
-1.06018e-06
0.000356875
-1.04225e-06
0.00132017
-4.89423e-06
-1.042e-05
0.00204076
-0.000219114
-0.000212407
0.00637267
-0.000118324
0.00198426
-0.000222031
0.00121942
-2.6472e-05
-1.02676e-05
-0.000353176
0.00034729
-1.37277e-06
-9.85677e-07
-0.000107262
0.000105788
-0.000380103
0.00906182
-0.000478757
0.0111245
-0.000547682
0.0125641
-0.000567533
0.0134768
-0.000535118
0.0139593
-0.000456469
0.0140682
-0.000349938
0.0138031
-0.00023776
0.0131326
-0.000141443
0.0120286
-7.12561e-05
0.0104873
-2.7848e-05
0.00855229
-5.90423e-06
0.00630814
9.78316e-07
0.00385934
1.11061e-06
0.00130337
0.00247215
0.010177
0.0027882
0.0104109
0.00329545
0.0107195
0.00402813
0.0111148
0.00504568
0.0116256
0.0064718
0.0123105
0.00848989
0.0135048
0.0121581
0.0157987
-0.00413559
0.011862
0.0131857
-0.0010811
0.00147788
0.00158349
0.00074657
-0.000984302
0.00405459
0.000104728
0.000103686
0.000343553
-1.15693e-06
0.000334739
-1.60648e-06
0.00112362
-4.07389e-05
-8.25728e-05
0.00189575
-0.000123895
-8.2359e-05
0.00611962
-4.46895e-05
0.00183244
-5.50146e-05
0.0010468
-6.53757e-05
-7.9839e-05
-0.000326772
0.000305509
-5.20939e-06
-2.3003e-06
-0.0001027
0.000101328
-0.000264201
0.00884726
-0.000389262
0.0109661
-0.00048577
0.0124824
-0.000532353
0.0134741
-0.000517766
0.0140206
-0.000444694
0.0141629
-0.000338009
0.0139033
-0.000228381
0.0132195
-0.000135334
0.0120927
-6.86764e-05
0.0105282
-2.70018e-05
0.00857338
-7.02846e-06
0.00631614
1.39986e-07
0.00386031
8.39008e-07
0.00130253
0.00230595
0.0101772
0.00255611
0.0104091
0.00298827
0.0107181
0.00363072
0.0111169
0.00452669
0.0116338
0.00576812
0.0123293
0.00742016
0.0133802
0.0101327
0.0155302
0.0114107
0.01625
-0.00200724
0.00704546
0.00955299
-0.00140549
-0.000428353
0.00102754
0.000318217
0.00273932
-0.000390656
-0.000301308
0.000100171
9.85642e-05
0.000277172
-1.24016e-05
0.000222164
-2.75647e-05
0.000954122
-2.44882e-05
-6.72394e-06
0.00177806
-2.79804e-05
-4.34124e-05
0.0059281
-2.92739e-05
0.00174975
-1.63798e-05
0.000902513
-6.36654e-07
-2.76909e-06
-0.000193413
0.000128037
-5.10882e-05
-9.62639e-05
9.10545e-05
-0.000205019
0.00866302
-0.000337535
0.0108179
-0.000455472
0.0124055
-0.000521784
0.0134781
-0.000511103
0.014087
-0.00043329
0.0142582
-0.000323892
0.0139988
-0.000217231
0.0133014
-0.000128029
0.0121521
-6.52261e-05
0.0105664
-2.76052e-05
0.00859396
-7.91303e-06
0.0063242
-9.60041e-07
0.00386211
7.70375e-07
0.00130176
0.00213972
0.0101772
0.00232508
0.0104082
0.00268174
0.0107156
0.00323573
0.0111131
0.00401804
0.0116256
0.00509413
0.0123078
0.00648382
0.0132656
0.00849406
0.0150188
0.010045
0.0168959
0.00847946
0.014816
0.00349485
0.00675752
-0.000266502
-0.000432882
0.00167231
-0.000160878
-0.000177611
-0.000122943
0.000759832
0.000195273
0.000534751
-7.62277e-05
7.86529e-05
5.10882e-05
0.000103549
9.68252e-05
0.000875992
-1.03313e-06
-4.26085e-07
0.00171949
-1.31503e-05
-3.18993e-05
0.00578238
-2.73966e-05
0.00170078
-1.05661e-05
0.000860667
-3.51808e-07
-7.03711e-07
-9.40561e-05
9.34195e-05
-0.000172051
0.00849754
-0.000316857
0.0106792
-0.000454774
0.0123385
-0.000526681
0.0134937
-0.000502391
0.0141561
-0.000414871
0.0143492
-0.000306008
0.0140876
-0.000204184
0.0133776
-0.000121988
0.0122088
-6.33702e-05
0.0106022
-2.7817e-05
0.00861387
-8.85185e-06
0.00633209
-1.37066e-06
0.00386425
1.5257e-07
0.00130161
0.00197565
0.0101771
0.00209672
0.0104056
0.00238102
0.0107089
0.00284798
0.0111033
0.00352441
0.0116067
0.00445313
0.0122666
0.00563609
0.0131555
0.00719096
0.0145687
0.00857166
0.0164922
0.00835572
0.0170197
0.00558304
0.0127278
0.00148586
0.00516121
4.82683e-05
6.21938e-05
-0.00129968
0.00106927
-9.42094e-06
-2.66724e-05
-2.47784e-05
-3.54705e-05
-0.000396362
0.000274465
-3.89806e-05
-3.92217e-05
0.000119046
9.23863e-05
9.19603e-05
0.000848465
-5.65193e-07
-3.82138e-07
0.00167964
-1.07548e-05
-2.49072e-05
0.00565588
-2.06474e-05
0.00166393
-1.16922e-05
0.000838734
-3.4583e-07
-4.89882e-07
-9.12565e-05
9.09047e-05
-0.000160578
0.00834126
-0.000330222
0.0105547
-0.000481831
0.0122936
-0.000532968
0.0135242
-0.000482739
0.014224
-0.000388717
0.0144319
-0.000286646
0.0141701
-0.000191025
0.0134466
-0.000115747
0.0122612
-6.27158e-05
0.0106371
-2.81973e-05
0.00863321
-1.06904e-05
0.00634141
-2.73127e-06
0.00386714
1.42753e-07
0.00130147
0.00181197
0.0101767
0.00187161
0.0104022
0.00208273
0.0107039
0.0024661
0.0110908
0.00304469
0.0115831
0.00384362
0.0122162
0.00485857
0.0130441
0.00611524
0.0142313
0.00727501
0.0158654
0.00754973
0.0172981
0.0063528
0.0162499
0.00343697
0.0107767
0.000709341
0.0044889
-3.90643e-05
2.03275e-06
-0.00102028
0.00099901
2.19366e-05
4.76018e-05
6.13848e-05
4.97987e-05
-0.000194798
0.000186738
-1.36017e-06
-0.000214954
-6.51737e-06
-0.000235689
-4.04281e-06
3.30569e-06
-7.98238e-05
4.08432e-05
9.03395e-05
8.99574e-05
0.000828906
-4.72597e-07
-4.54352e-07
0.00164872
-9.69849e-06
-1.77525e-05
0.00553338
-2.03243e-05
0.00163321
1.71164e-06
-6.84462e-06
0.000818197
-4.83667e-07
-4.99411e-07
-8.94675e-05
8.91217e-05
-0.000177069
0.00818811
-0.000379097
0.010452
-0.000517596
0.0122782
-0.00051485
0.0135563
-0.000448584
0.0142839
-0.00035735
0.0145026
-0.000262645
0.0142417
-0.000178446
0.0135093
-0.000111263
0.0123098
-6.18976e-05
0.0106708
-3.07657e-05
0.00865329
-1.26937e-05
0.00635137
-3.35931e-06
0.00387064
-4.28888e-07
0.0013019
0.00165096
0.010175
0.00165036
0.0103979
0.00179055
0.0106944
0.0020922
0.0110778
0.00257646
0.0115591
0.00326217
0.0121645
0.00413799
0.0129368
0.00518777
0.0139716
0.00617998
0.0153263
0.00660049
0.0168146
0.00619277
0.0174582
0.0046132
0.0150737
0.00208
0.00940602
0.000312684
0.0041506
3.48919e-05
-9.28378e-06
-0.000986345
0.000978017
-3.07362e-05
-1.88413e-06
1.6582e-05
-0.000243002
0.000251372
1.35672e-05
-0.000224145
2.87447e-05
-0.00020319
4.04294e-05
3.33468e-05
-3.35887e-05
3.22285e-05
-4.01061e-05
-4.41489e-05
8.86491e-05
8.81947e-05
0.00047409
-2.71466e-07
-2.46929e-07
0.000334927
0.00162219
-4.21142e-06
-2.51754e-06
-1.5585e-05
0.00539904
-2.71449e-05
0.0016065
-2.01848e-06
-2.61858e-06
0.000504608
-2.88065e-05
0.000506182
-8.41824e-06
-8.76953e-05
8.72117e-05
-0.000236521
0.00804553
-0.000462237
0.0103966
-0.000509654
0.0122731
-0.000471246
0.013579
-0.000403251
0.0143298
-0.000322563
0.0145625
-0.000242566
0.0143058
-0.000168967
0.013567
-0.000109466
0.0123573
-6.39187e-05
0.0107039
-3.29736e-05
0.00867357
-1.42873e-05
0.0063623
-4.28988e-06
0.0038745
-4.98497e-07
0.0013024
0.00149102
0.0101749
0.00143282
0.0103925
0.00150312
0.0106854
0.00172309
0.0110635
0.00211902
0.0115352
0.00270352
0.0121177
0.00346331
0.0128392
0.00436292
0.0137617
0.00523271
0.0149188
0.00570514
0.0162216
0.00562707
0.0173803
0.00490852
0.0171629
0.00324914
0.0139045
0.00123321
0.00848549
0.000101173
0.00394457
4.21025e-05
6.27611e-05
-0.000959444
0.000948374
4.59616e-05
9.29001e-06
-0.000234235
0.000355413
-1.48592e-06
-0.000149461
-9.66688e-07
-0.000254802
1.86828e-05
1.31516e-05
-0.000110076
0.000120802
2.84123e-06
-8.89975e-05
7.66616e-06
-6.55753e-05
1.70072e-05
8.69402e-05
8.66933e-05
0.000304332
1.78808e-06
0.000504756
-2.78585e-06
0.000503625
-1.38586e-06
0.00159579
-1.83575e-06
-3.03704e-06
-2.26195e-05
0.0052363
-5.11595e-05
0.00157512
-2.34008e-06
-4.13558e-06
0.000502568
-9.61805e-07
0.000500546
-5.96046e-07
0.000297974
-2.05997e-06
-0.000360756
0.00794405
-0.00048144
0.0103684
-0.000456515
0.0122583
-0.000409531
0.0135853
-0.000354662
0.0143619
-0.000292371
0.0146123
-0.00022574
0.0143626
-0.000164496
0.013622
-0.000109421
0.0124028
-6.666e-05
0.0107376
-3.57797e-05
0.00869506
-1.60326e-05
0.00637404
-5.38898e-06
0.00387939
-9.48119e-07
0.00130334
0.00133266
0.0101734
0.00122209
0.0103857
0.00122249
0.0106732
0.0013619
0.0110465
0.00167039
0.0115121
0.00216205
0.0120767
0.00282361
0.0127574
0.00360948
0.0135926
0.00439005
0.0146043
0.00489475
0.0157292
0.00497296
0.0168758
0.00467128
0.0176175
0.00378987
0.0166221
0.00223691
0.0129008
0.000723891
0.00786278
2.74488e-05
0.00386544
2.43028e-05
2.73723e-05
-0.000939646
0.000946696
3.50525e-05
7.14895e-05
-0.000362947
0.000385292
1.78862e-05
5.73017e-06
-6.98506e-08
1.82589e-06
-2.97232e-05
2.82373e-05
-0.000130199
-5.7901e-07
-3.06899e-05
3.75424e-06
-2.46734e-05
2.75146e-05
-1.70072e-05
8.84814e-05
0.000296146
-9.57852e-07
0.000295046
-2.85665e-07
0.000499416
-7.05902e-07
0.000497615
-1.23603e-06
0.0015592
-2.01949e-06
-4.68246e-06
-6.48257e-05
0.00507978
-0.000139407
0.00152023
-3.66133e-06
-8.5335e-06
0.000496531
-1.25628e-06
0.000493446
-1.05117e-06
0.000294271
-1.87112e-07
0.000293743
-6.78367e-08
8.64214e-05
-0.000446865
0.00790947
-0.000406128
0.010318
-0.000371892
0.0122207
-0.000345848
0.0135765
-0.000311335
0.0143808
-0.000267377
0.0146539
-0.000216338
0.0144144
-0.000162778
0.0136754
-0.000113293
0.0124495
-7.08732e-05
0.0107727
-3.89088e-05
0.00871794
-1.77117e-05
0.00638636
-6.28901e-06
0.00388473
-9.18944e-07
0.00130426
0.00117902
0.0101691
0.00101766
0.0103778
0.00094917
0.010659
0.00100806
0.011027
0.00122883
0.0114881
0.00163124
0.0120429
0.00220865
0.0126916
0.00290764
0.0134593
0.00362281
0.0143599
0.00414951
0.0153496
0.00433543
0.0163667
0.00422426
0.0173228
0.00379791
0.0176095
0.00286461
0.0159944
0.00153347
0.0120912
0.000428352
0.00746187
-5.58289e-05
0.00379944
7.07684e-05
5.10641e-05
-0.000956299
0.00096765
1.2952e-05
1.77688e-05
-0.000409747
0.000434327
1.04387e-06
9.42914e-06
2.58652e-05
2.1169e-05
-3.57235e-05
5.36097e-05
-2.99933e-05
2.81674e-05
-3.12689e-05
8.54635e-05
8.51779e-05
0.000293202
-1.65e-07
0.000292162
-1.96093e-07
0.000492468
-1.04109e-06
0.000489464
-1.67884e-06
0.00147924
-6.80783e-06
-1.70238e-05
-0.000202113
0.00503722
-0.000202194
0.0014033
-2.03741e-05
-4.30926e-05
0.000487664
-1.86068e-06
0.000481615
-2.48427e-06
0.000291143
-2.36619e-07
0.000290339
-2.47447e-07
8.49908e-05
8.49229e-05
-0.00032415
0.0078275
-0.000292342
0.0102384
-0.000293649
0.0121685
-0.000291793
0.0135569
-0.000279521
0.014393
-0.00025257
0.0146902
-0.00021376
0.0144654
-0.000167204
0.0137293
-0.000117604
0.0124962
-7.4196e-05
0.010808
-4.01015e-05
0.00874033
-1.84444e-05
0.00639852
-6.48378e-06
0.0038903
-1.28958e-06
0.00130555
0.0010282
0.0101653
0.00082152
0.0103653
0.000687459
0.0106395
0.000661718
0.0110053
0.00079195
0.0114639
0.00110818
0.0120112
0.0016088
0.0126428
0.00224162
0.0133577
0.00291199
0.0141701
0.00345287
0.0150565
0.00372713
0.0159579
0.00373437
0.0168566
0.00353081
0.0175899
0.00303914
0.017435
0.00214732
0.0153806
0.00105137
0.0114682
0.000233269
0.00717277
-8.57591e-05
0.00376495
4.75265e-05
7.27194e-05
-0.000975871
0.000982005
6.46346e-05
4.28438e-05
-0.000450305
0.000463423
7.7427e-07
-9.40594e-07
1.88728e-06
-9.66164e-08
-8.86723e-05
8.98877e-05
-1.7149e-07
-8.10743e-05
1.83114e-06
6.62841e-05
1.31909e-05
6.37873e-06
8.47579e-05
8.45618e-05
0.00028948
-1.82708e-07
0.000288116
-3.14276e-07
0.00047822
-3.41297e-06
0.000467714
-6.51819e-06
0.00135652
-5.79394e-05
-9.73896e-05
-0.000133942
0.00490141
-5.43952e-05
0.00131512
-8.73386e-05
-7.34623e-05
0.000457635
-1.02947e-05
0.000434229
-1.96869e-05
0.000286582
-3.26388e-07
0.000284501
-4.03976e-07
8.43252e-05
8.40778e-05
-0.000175015
0.00771017
-0.000204956
0.0101498
-0.000234552
0.0121112
-0.000255405
0.0135328
-0.000260926
0.0144013
-0.000249528
0.0147259
-0.000217999
0.0145162
-0.000172531
0.0137842
-0.000121861
0.0125439
-7.68254e-05
0.0108447
-4.2667e-05
0.00876455
-1.98956e-05
0.00641193
-7.09329e-06
0.0038961
-1.0752e-06
0.00130663
0.000882432
0.0101581
0.00063756
0.0103493
0.000437522
0.0106152
0.000326243
0.010975
0.000360429
0.0114369
0.000586035
0.0119861
0.00101388
0.0126061
0.00159541
0.013289
0.00223578
0.0140339
0.00279268
0.0148303
0.00314125
0.0156424
0.0032497
0.0164425
0.00316763
0.0172198
0.00291253
0.0177165
0.00240902
0.0171733
0.00160448
0.0148275
0.000718115
0.0109834
0.000120361
0.00696665
-7.86823e-05
0.0037924
1.60769e-05
3.51636e-05
-0.000990379
0.00100286
3.50402e-05
6.43455e-05
-0.00048607
0.000501358
2.66241e-05
2.27223e-05
6.01963e-06
1.41775e-05
-9.06692e-05
9.17044e-05
-2.6092e-07
-9.13003e-05
-3.09501e-07
9.11642e-05
6.10776e-07
-2.32654e-07
-2.14007e-05
2.12292e-05
-1.95696e-05
1.31909e-05
8.38951e-05
8.35808e-05
0.000281634
-5.45501e-07
0.000276141
-1.02515e-06
0.00041278
-3.64904e-05
0.00037851
-6.31195e-05
0.00124606
-4.51728e-05
-1.97089e-05
-3.22622e-05
0.0047671
-8.4507e-06
0.00120589
-1.10087e-05
-3.21485e-06
0.000356346
-6.5174e-05
0.000333374
-5.04905e-05
0.000267687
-1.84045e-06
0.000251988
-3.98862e-06
8.32544e-05
8.28504e-05
-0.000101176
0.00760639
-0.000152441
0.0100676
-0.000197356
0.0120532
-0.000235194
0.0135071
-0.000255644
0.0144074
-0.000253169
0.0147611
-0.000225933
0.0145696
-0.000178784
0.0138411
-0.000126827
0.0125939
-7.85466e-05
0.0108806
-4.33455e-05
0.008788
-1.97069e-05
0.00642455
-6.76744e-06
0.00390179
-1.17041e-06
0.0013078
0.00074267
0.0101484
0.000467835
0.0103278
0.000205741
0.0105811
4.20489e-06
0.0109373
-6.6099e-05
0.0114015
6.28064e-05
0.0119601
0.000417095
0.0125828
0.000955708
0.0132458
0.00158286
0.0139419
0.00216213
0.0146644
0.0025716
0.0153999
0.0027709
0.0161212
0.0027823
0.0168279
0.00265532
0.017477
0.0023848
0.0177407
0.00190183
0.0168759
0.00119976
0.0143458
0.000494337
0.0106094
5.38363e-05
0.00683414
-0.00010422
8.84928e-05
0.00380812
-0.0010088
0.000958981
6.58917e-05
2.92327e-05
-0.000520785
0.000541993
3.92499e-06
9.90744e-06
2.87471e-05
1.61714e-05
-0.000112379
0.000120585
1.84187e-05
-0.000104197
1.45401e-05
9.55537e-05
2.1704e-06
5.53399e-06
-2.12979e-05
2.1037e-05
-2.16074e-05
2.184e-05
8.23049e-05
8.12798e-05
0.0002258
-1.03022e-05
0.000185232
-2.25516e-05
0.000308898
-2.06969e-05
0.000296149
-6.95946e-06
0.00117766
-3.35663e-06
-6.70642e-07
-1.22906e-05
0.00468211
-3.89094e-06
0.00116999
-9.66486e-07
1.86783e-07
0.000287547
-2.40707e-06
0.000285029
-6.96751e-07
0.000162655
-4.2597e-05
0.000112165
7.94394e-05
7.54507e-05
-6.85885e-05
0.00752254
-0.000122471
0.00999276
-0.000178775
0.0119968
-0.000229483
0.0134809
-0.000264246
0.0144185
-0.000267709
0.0148029
-0.000237637
0.0146285
-0.000185401
0.0138997
-0.000128503
0.0126438
-7.88999e-05
0.0109161
-4.21149e-05
0.00881041
-1.94679e-05
0.00643725
-6.43295e-06
0.00390705
-1.05869e-06
0.00130886
0.000610185
0.0101357
0.000316433
0.0102998
-3.13193e-06
0.0105367
-0.000298949
0.0108842
-0.000483518
0.0113547
-0.000467333
0.0119316
-0.000192649
0.0125698
0.000309091
0.0132295
0.000937976
0.0138907
0.00154807
0.0145559
0.00201672
0.0152193
0.00229713
0.0158737
0.00239567
0.0165078
0.00235498
0.0171282
0.00220842
0.0176534
0.00194601
0.0176965
0.00150084
0.0165748
0.000900912
0.0139393
0.000340867
0.0103224
-2.90559e-06
0.00673282
-0.000638759
0.00161859
4.83811e-05
1.92642e-05
-0.000127223
0.000128101
0.00380725
-0.000563512
-9.35448e-06
6.34893e-06
1.36448e-06
-0.000144601
0.000146785
1.74066e-06
-0.000138848
4.15509e-06
0.000131727
1.76047e-05
9.05018e-06
-4.32815e-05
5.13662e-05
1.0334e-05
-2.87413e-05
2.32074e-05
6.51486e-05
4.2597e-05
9.14678e-05
8.45083e-05
0.000282071
-3.98371e-07
0.000281635
-2.35524e-07
0.00115917
-1.10005e-06
-3.79598e-07
-8.1378e-06
0.00462543
-3.77476e-06
0.00115605
-6.35811e-07
-1.32038e-07
0.000280815
-1.46135e-07
0.000280874
1.27629e-07
8.21012e-05
8.14045e-05
-5.33692e-05
0.00745344
-0.000107972
0.00992195
-0.000174526
0.0119418
-0.000240646
0.0134573
-0.000282522
0.0144333
-0.000283608
0.0148489
-0.00024606
0.0146891
-0.000187073
0.0139583
-0.000126537
0.0126915
-7.6864e-05
0.0109509
-4.16028e-05
0.00883254
-1.88403e-05
0.00644965
-6.2733e-06
0.00391227
-9.22519e-07
0.00130978
0.000486338
0.01012
0.000187611
0.0102645
-0.000181641
0.0104783
-0.000573621
0.0108113
-0.00088815
0.0112888
-0.00100471
0.0118921
-0.000821895
0.0125609
-0.000357387
0.0132363
0.000289789
0.0138776
0.000943697
0.0144951
0.00147201
0.0151007
0.00182659
0.0156898
0.00200579
0.0162636
0.00204401
0.0168188
0.00197594
0.0173607
0.00183261
0.0177668
0.00158648
0.0176109
0.00118688
0.0162889
0.000681442
0.0135987
0.000226405
0.0100931
-4.3633e-05
0.00664923
0.00165381
3.40695e-05
5.88075e-05
-0.00023793
0.000267593
1.36859e-05
5.03276e-06
-0.000220744
1.71942e-06
3.58339e-07
-0.000115271
8.38121e-05
0.00383871
-0.000138817
-2.51772e-07
-2.96523e-07
-9.07329e-05
0.000148517
4.61753e-06
1.1064e-05
-7.41576e-05
7.57761e-05
1.22204e-07
-7.06747e-05
6.72162e-07
6.36094e-05
5.36148e-06
1.98491e-06
1.0334e-05
8.10061e-05
8.07706e-05
0.000279823
-4.92501e-08
0.000279625
-1.81596e-07
0.00114919
-8.21579e-07
-4.53285e-07
-5.93609e-06