/*--------------------------------*- C++ -*----------------------------------*\
| =========                 |                                                 |
| \\      /  F ield         | OpenFOAM: The Open Source CFD Toolbox           |
|  \\    /   O peration     | Version:  v1912                                 |
|   \\  /    A nd           | Website:  www.openfoam.com                      |
|    \\/     M anipulation  |                                                 |
\*---------------------------------------------------------------------------*/
FoamFile
{
    version     2.0;
    format      ascii;
    class       volScalarField;
    location    "430";
    object      p;
}
// * * * * * * * * * * * * * * * * * * * * * * * * * * * * * * * * * * * * * //

dimensions      [0 2 -2 0 0 0 0];


internalField   nonuniform List<scalar> 
3675
(
0.0017285
0.00197892
0.00155588
0.00179996
0.00140635
0.00204382
0.00164071
0.00126489
0.0022564
0.00187743
0.00149364
0.00113542
0.00244503
0.0020874
0.00172257
0.00135794
0.00101898
0.00259887
0.00227688
0.00192676
0.0015859
0.0012372
0.000907024
0.00270628
0.00243159
0.002115
0.00178862
0.00145752
0.00111983
0.000805806
0.00275236
0.00254053
0.00227284
0.00196981
0.00165133
0.00133331
0.00101372
0.000713153
0.00273012
0.00259253
0.00238767
0.00212485
0.00183138
0.0015259
0.00122452
0.000917847
0.00062518
0.00264143
0.0025823
0.00245306
0.00224605
0.00198569
0.00170247
0.00141263
0.00112237
0.000823299
0.000548888
0.00249637
0.00250224
0.00246246
0.0023212
0.00210208
0.00185156
0.00158269
0.00130539
0.00102639
0.00074315
0.000476741
0.00231541
0.00235335
0.00241295
0.0023483
0.0021783
0.00196627
0.00172744
0.00147309
0.00120697
0.000939886
0.000666868
0.000412295
0.00215192
0.00212666
0.00230988
0.0023336
0.00221053
0.00203589
0.00183488
0.00161041
0.00136678
0.00111195
0.000860695
0.000597406
0.000348209
0.00207843
0.00182751
0.00215086
0.0022837
0.00219793
0.00205674
0.00189827
0.00171193
0.00150243
0.00127133
0.00103346
0.000786622
0.000532147
0.000295406
0.00209924
0.00155428
0.00184298
0.00189821
0.00221574
0.00214635
0.00203071
0.00191242
0.00177043
0.00160354
0.00140323
0.00118532
0.000950822
0.000716415
0.000475098
0.000247579
0.002111
0.00198064
0.00172404
0.00156801
0.00125455
0.00185706
0.00212554
0.00206168
0.00195563
0.0018751
0.00177955
0.00165677
0.00149486
0.00130787
0.00109897
0.000879487
0.000655337
0.000421915
0.000207045
0.00203846
0.00192811
0.00179992
0.00177021
0.00127092
0.0019599
0.00171855
0.00118712
0.00168631
0.00183468
0.00195515
0.00183621
0.0017913
0.0017389
0.00166053
0.00154387
0.00139692
0.00122098
0.00102479
0.000814226
0.000600124
0.000378485
0.000171865
0.00190366
0.0020264
0.00184846
0.00175972
0.00179804
0.00160863
0.000816237
0.00175382
0.00178863
0.00170299
0.00168167
0.00100698
0.00168764
0.00166078
0.00173376
0.00168666
0.00166824
0.00165458
0.00161528
0.0015451
0.00144223
0.00130686
0.00114101
0.000953413
0.000756229
0.00055161
0.00033932
0.000142807
0.00186668
0.00195783
0.00178361
0.00172723
0.00168147
0.00169886
0.000168484
0.0013096
0.00170707
0.0015333
0.0015206
0.00152489
0.00153619
0.00170844
0.00162892
0.00241341
0.00189957
0.00159926
0.00167325
0.00151173
0.00153194
0.00152684
0.00149805
0.00143871
0.00134791
0.00122059
0.00106658
0.000891648
0.000697982
0.000509376
0.00030675
0.000121176
0.00183611
0.00190444
0.00156615
0.00159536
-0.00114626
0.00274542
0.00153201
0.00153243
0.00142881
0.00137302
0.00134556
0.00135128
0.00138712
0.00142372
0.00140558
0.00163458
0.00193811
0.00214164
0.00155338
0.0013795
0.00140284
0.0014064
0.00138726
0.00134181
0.00125801
0.00114115
0.000995304
0.000827529
0.000656492
0.000472801
0.000281493
0.000104205
-0.0036586
0.00147777
0.00143218
0.0013501
0.00135149
0.00129695
0.00123145
0.00121163
0.00119552
0.00124075
0.00130273
0.0013071
0.00135891
0.00138198
0.00125224
0.00127867
0.00129604
0.00129022
0.00124987
0.00117498
0.00106599
0.000929655
0.0007814
0.000613638
0.000442494
0.000260664
9.56362e-05
0.00131229
0.00130407
0.00123712
0.00121907
0.00115053
0.00109769
0.00108315
0.0010591
0.00109306
0.00115495
0.00117647
0.00124784
0.0012819
0.00113085
0.00117324
0.00119815
0.00119736
0.0011641
0.00109555
0.000995709
0.000875337
0.000733558
0.000581807
0.000421596
0.000249885
8.89033e-05
0.0011986
0.00117814
0.00109633
0.00106975
0.00101482
0.000969361
0.000965243
0.000930356
0.000959627
0.00100665
0.0010338
0.00110228
0.00114852
0.00102671
0.00107257
0.00110327
0.00111041
0.00108153
0.00101946
0.000931868
0.00082243
0.000697246
0.000554201
0.000404693
0.000241315
9.47541e-05
0.00105537
0.00102931
0.000956697
0.000928944
0.000883757
0.000854648
0.000861398
0.000811037
0.000833624
0.000871597
0.000897641
0.000954778
0.00100175
0.00092255
0.000979913
0.00101762
0.00102421
0.0010014
0.000948153
0.000870833
0.000776326
0.000661118
0.000532942
0.000393534
0.000239772
0.0001028
0.000912484
0.00089064
0.000825905
0.000799604
0.000765939
0.000746916
0.000759251
0.000707718
0.000719097
0.00074645
0.000771845
0.000819783
0.000860887
0.000832241
0.000894075
0.000932344
0.000947071
0.000925862
0.000879828
0.000816735
0.000736673
0.000639673
0.000520876
0.000388666
0.000248261
0.000120674
0.000780937
0.000761537
0.000707447
0.000680607
0.000656974
0.00064559
0.000669131
0.000608162
0.000614543
0.000632213
0.000660015
0.000695342
0.000734548
0.000744061
0.000810367
0.000856372
0.000865355
0.000848702
0.00081636
0.000771517
0.000708333
0.000620991
0.000513311
0.000393081
0.000261094
0.000134432
0.000661146
0.000643175
0.00059744
0.000572234
0.000557342
0.000554798
0.000581211
0.000517805
0.000516897
0.000529765
0.000553289
0.000578893
0.000624426
0.000665478
0.000733055
0.000771873
0.000783959
0.000774946
0.000758456
0.000733521
0.000686205
0.000610968
0.000510541
0.000400165
0.000269588
0.00016068
0.000553688
0.000533194
0.000494895
0.00047929
0.000465769
0.00046999
0.000502142
0.00043201
0.000428027
0.000434822
0.000454127
0.000477561
0.000517676
0.000587299
0.000655085
0.000695603
0.000701692
0.000704249
0.000710065
0.000706089
0.000672244
0.000602332
0.000514064
0.000409289
0.000295725
0.000191232
0.000453336
0.000439749
0.000402636
0.000387999
0.00038132
0.000392154
0.00042624
0.000351794
0.00034478
0.000348212
0.00036534
0.000388124
0.000413774
0.0005164
0.000582218
0.000605477
0.000616727
0.000641696
0.000676245
0.000688428
0.000661045
0.000602988
0.000518637
0.000432029
0.000321171
0.000228262
0.000359922
0.000348746
0.000316554
0.000305343
0.000302826
0.000322321
0.000357411
0.000272881
0.000268019
0.000266951
0.000283308
0.000302409
0.000325448
0.000444353
0.000494372
0.000510316
0.000535815
0.000595688
0.000657928
0.000677204
0.000653143
0.000602301
0.000535812
0.000449437
0.000357273
0.000272314
0.00027377
0.000266618
0.000239233
0.000226117
0.000229554
0.000253851
0.000286148
0.000199724
0.000193049
0.000192381
0.000209071
0.000221268
0.00024399
0.000369534
0.000401228
0.000407978
0.000470935
0.000576744
0.000647346
0.000664962
0.000648128
0.000607235
0.000548393
0.00048231
0.000395144
0.000319963
0.000197731
0.000186643
0.000164828
0.000157124
0.000162519
0.000186814
0.000222152
0.000129559
0.000120708
0.000120044
0.000133038
0.000147646
0.000170825
0.000288954
0.000278819
0.000312365
0.000448137
0.000573515
0.000637459
0.000653557
0.000642639
0.000614933
0.000571547
0.000515475
0.000441201
0.000380206
0.000121188
0.000128002
9.53345e-05
8.93654e-05
9.57181e-05
0.000121437
0.000153489
5.61295e-05
5.19023e-05
5.08203e-05
6.53694e-05
7.52812e-05
8.9476e-05
0.000174037
0.000147152
0.000273358
0.000458494
0.000575113
0.000618772
0.000635271
0.00064043
0.000628299
0.00060203
0.000558994
0.0004964
0.000448812
5.18139e-05
6.00776e-05
3.22475e-05
1.94037e-05
2.81051e-05
5.7028e-05
7.52661e-05
-2.19955e-05
-1.52626e-05
-1.82891e-05
1.96648e-06
7.68946e-06
2.29195e-05
2.32678e-05
5.19318e-05
0.000307071
0.00048721
0.000553382
0.00058791
0.000619707
0.0006398
0.000648924
0.000635914
0.000609286
0.000559909
0.000527793
-8.96733e-06
-1.13652e-05
-3.46683e-05
-4.61563e-05
-4.02161e-05
-2.84115e-06
-2.65403e-05
-0.000109613
-9.26589e-05
-8.65277e-05
-6.43466e-05
-6.0865e-05
-3.77713e-05
-0.000192477
0.00010847
0.000387319
0.000468773
0.000507745
0.000556463
0.000604892
0.000647924
0.000673328
0.000680625
0.000663708
0.000636026
0.000617535
-7.63936e-05
-7.39943e-05
-0.000100192
-0.000116306
-0.000106729
-6.81061e-05
-0.000336991
-0.000199659
-0.000167705
-0.000162359
-0.000132594
-0.000126457
-0.000104158
-0.000185601
0.000288873
0.00037376
0.000402471
0.000458427
0.000526437
0.00059638
0.000656818
0.0007032
0.000723785
0.000740855
0.000720236
0.000719675
-0.000142323
-0.000143234
-0.000166177
-0.000194345
-0.000179457
-0.000181365
-0.000557347
-0.000524987
-0.000225411
-0.000247313
-0.000205288
-0.000198145
-0.000169975
0.0001946
0.0002819
0.0002828
0.000335729
0.00041252
0.000499454
0.000588521
0.000671165
0.000738255
0.000792091
0.000812423
0.000818985
0.00083514
-0.000213849
-0.000215453
-0.000245586
-0.000287737
-0.000160678
-0.000866808
6.67355e-05
-0.000423383
-0.000254739
-0.000350037
-0.000275332
-0.000280803
-0.00024552
0.000193022
0.00014655
0.000195663
0.000274334
0.000367805
0.000474303
0.000585942
0.000693457
0.000787675
0.000853658
0.000910723
0.000925035
0.000958141
-0.000290524
-0.000312928
-0.000271632
-0.000349048
-0.0014839
-7.33181e-05
5.70041e-05
-8.99453e-05
-0.000528336
-6.74099e-05
-0.000144744
-0.000387908
-0.000335274
3.1482e-06
4.44508e-05
0.000123952
0.000216982
0.000326605
0.000450676
0.000585218
0.000719831
0.000838422
0.000940945
0.00100277
0.00104756
0.00110725
-0.000372533
-0.000410557
0.000311669
-0.00233465
-6.17203e-05
-0.000216905
-0.00013832
-0.000187787
-0.000232528
-0.000118554
0.000499823
-0.00020503
-0.000342006
-0.000110612
-2.65078e-05
6.02698e-05
0.00016061
0.000281826
0.000428459
0.00058969
0.000753493
0.000903682
0.00102538
0.00112455
0.00118782
0.00126934
2.15547e-05
-0.00455924
-0.000224943
-0.000263428
-0.000310186
-0.000276744
-0.000248067
-0.000267639
-0.000303819
-0.000344047
-0.000383097
-0.000174846
-9.37e-05
-8.98032e-06
9.9717e-05
0.000239948
0.000409884
0.000600589
0.000795731
0.000978955
0.00112928
0.00125637
0.0013425
0.00144631
-0.0003714
-0.000351715
-0.000331312
-0.000340041
-0.000313556
-0.000343264
-0.000352804
-0.000349839
-0.000364244
-0.000239864
-0.000167936
-7.82852e-05
4.21428e-05
0.000198278
0.000392092
0.000614333
0.000845183
0.00105827
0.00125098
0.0014002
0.0015152
0.00164833
-0.000367883
-0.0003719
-0.000393615
-0.000404244
-0.000380774
-0.000414399
-0.000423051
-0.000396299
-0.000398872
-0.000312926
-0.000242187
-0.000149516
-2.13762e-05
0.000153915
0.000377379
0.000634936
0.000901416
0.0011587
0.00138046
0.00156742
0.00171305
0.00186824
-0.000424287
-0.000439294
-0.000460438
-0.000466942
-0.000447631
-0.00048597
-0.000491894
-0.000476013
-0.000465882
-0.000390026
-0.000320544
-0.00022511
-8.73994e-05
0.000110864
0.000366863
0.000660899
0.000971276
0.00127399
0.00153022
0.00175762
0.00192271
0.00210586
-0.000496047
-0.000509831
-0.000528527
-0.000532026
-0.000522488
-0.000555582
-0.000557755
-0.000543861
-0.00053494
-0.000465682
-0.000400401
-0.000306305
-0.000154654
6.91239e-05
0.000358476
0.000697689
0.00105756
0.00139452
0.00170346
0.00195056
0.002167
0.00236705
-0.000564604
-0.000578624
-0.000592007
-0.000602861
-0.000595469
-0.000627629
-0.000625638
-0.000614292
-0.00059703
-0.000547469
-0.00049267
-0.000395719
-0.000224832
2.61718e-05
0.000356538
0.000741154
0.0011431
0.00153351
0.00188122
0.00218941
0.00243566
0.00269097
-0.000630738
-0.000644395
-0.00066067
-0.000672494
-0.000673519
-0.000703356
-0.000696158
-0.000678207
-0.000665125
-0.00064086
-0.000594398
-0.00048995
-0.000298937
-1.31798e-05
0.000358159
0.000791075
0.00124671
0.00169443
0.0020951
0.00245453
0.00275677
0.00304229
-0.000691855
-0.000710469
-0.000731385
-0.000745533
-0.000759486
-0.000776452
-0.000768072
-0.000747981
-0.000732592
-0.000746016
-0.000704441
-0.000584805
-0.000369504
-5.01434e-05
0.000365364
0.00085208
0.00137217
0.00186731
0.00234168
0.00273265
0.00329391
0.00127053
-0.000766672
-0.000781737
-0.000803236
-0.000819505
-0.00085999
-0.000856074
-0.000838159
-0.000817489
-0.000803723
-0.00086961
-0.000823516
-0.000680021
-0.00044128
-8.82478e-05
0.000376771
0.000924042
0.00149914
0.00208131
0.00256084
0.00334082
0.00148183
-0.000836837
-0.000852264
-0.000876371
-0.000901636
-0.000985483
-0.000944758
-0.000912495
-0.000886721
-0.000873637
-0.00101116
-0.000930219
-0.000779084
-0.000520278
-0.00012594
0.000395838
0.00100221
0.00166197
0.00224047
0.00312693
0.00154158
-0.000910702
-0.000927621
-0.000946245
-0.00100644
-0.00112469
-0.00114636
-0.000976274
-0.000966407
-0.000946485
-0.00112497
-0.00103889
-0.000886045
-0.000600598
-0.000158606
0.00041866
0.00110648
0.00176181
0.00272703
0.00139749
-0.000985408
-0.00100581
-0.000973776
-0.0014572
-0.00126086
-0.00116961
-0.000952066
-0.001048
-0.00102524
-0.00122477
-0.00116386
-0.00100316
-0.000681435
-0.000191577
0.000461308
0.00115491
0.00215799
0.00112695
-0.00106966
-0.00109712
-0.00375681
-0.00215538
-0.00125122
-0.00135429
-0.00133753
-0.00159
-0.0014336
-0.00116912
0.00136096
-0.00113227
-0.00135514
-0.00130758
-0.00112561
-0.00076483
-0.000211483
0.000460347
0.00144306
0.000771392
-0.000992243
-0.00139195
-0.0013667
-0.0013856
-0.00147812
-0.00144227
-0.00138174
-0.00137916
-0.00139306
-0.00140873
-0.000717515
-0.00151206
-0.00146049
-0.00125037
-0.000842543
-0.000256124
0.00063041
0.000360242
-0.00131055
-0.00140342
-0.00140429
-0.00140267
-0.00142187
-0.00150191
-0.00163331
-0.00157431
-0.00145535
-0.00147679
-0.00140317
-0.00140838
-0.00147527
-0.00146785
-0.00168413
-0.00161986
-0.00137786
-0.000924509
-0.000206645
-6.65482e-05
-0.00144317
-0.00143444
-0.0014224
-0.00144326
-0.00151268
-0.0015414
-0.00164347
-0.00181083
-0.00172742
-0.00157785
-0.00161613
-0.00146807
-0.00149658
-0.00142169
-0.00142658
-0.00186645
-0.00178781
-0.00148981
-0.00099116
-0.000474349
-0.00143429
-0.00145929
-0.00152929
-0.00155836
-0.00164427
-0.00168737
-0.00180467
-0.00200452
-0.00190253
-0.00172396
-0.00176836
-0.00159745
-0.00162995
-0.00147734
-0.00150967
-0.00206824
-0.00192703
-0.00166095
-0.000829886
-0.00154057
-0.00157248
-0.00166005
-0.00170274
-0.00179944
-0.00184751
-0.00198584
-0.00223096
-0.00209578
-0.00189155
-0.00193625
-0.00174018
-0.00177886
-0.00160766
-0.0016413
-0.00224551
-0.00218505
-0.00111157
-0.00167285
-0.00171167
-0.00181646
-0.00185692
-0.00197512
-0.00202792
-0.0021964
-0.00246101
-0.00232876
-0.00207872
-0.00212578
-0.0019029
-0.0019444
-0.00175042
-0.00178747
-0.00257904
-0.00131665
-0.00182495
-0.00186213
-0.00198947
-0.00203522
-0.00217599
-0.00223219
-0.002426
-0.00291176
-0.00255467
-0.00229434
-0.00235043
-0.00208243
-0.002132
-0.00191398
-0.00195065
-0.0014568
-0.00199484
-0.00203937
-0.00218335
-0.00223624
-0.00240478
-0.00246846
-0.00273209
-0.00168098
-0.00302778
-0.00252384
-0.00258697
-0.00229288
-0.00234811
-0.00208828
-0.0021309
-0.00218258
-0.00223583
-0.00240665
-0.00246511
-0.00265986
-0.00275078
-0.00320379
-0.00159548
-0.00287863
-0.0029898
-0.00252303
-0.00258707
-0.00229155
-0.00234472
-0.00240018
-0.00245572
-0.00266447
-0.0027534
-0.00311003
-0.00335982
-0.00331159
-0.00136911
-0.00285827
-0.00296088
-0.00251352
-0.00257186
-0.002644
-0.00273178
-0.00307615
-0.00337437
-0.00363652
-0.00134206
-0.00283087
-0.00294319
-0.00306048
-0.00335392
-0.0039381
-0.00164768
-0.0170415
-0.0160009
-0.0168512
-0.0160929
-0.0157291
-0.0166715
-0.0167804
-0.0158094
-0.0154208
-0.0164739
-0.0172736
-0.0158021
-0.0172101
-0.0154859
-0.0150798
-0.0178577
-0.0167119
-0.0150174
-0.0179319
-0.0151168
-0.0175967
-0.0151722
-0.0147438
-0.0192628
-0.0181294
-0.0169541
-0.0153078
-0.0136423
-0.0144339
-0.0186781
-0.0179813
-0.0148289
-0.0144248
-0.0207149
-0.0195795
-0.0194136
-0.0183845
-0.0171813
-0.015557
-0.0139332
-0.0123059
-0.0130896
-0.0137675
-0.014159
-0.0145054
-0.0183829
-0.0187578
-0.0140797
-0.022088
-0.0210619
-0.020158
-0.0209022
-0.0198492
-0.0191085
-0.0194623
-0.0186144
-0.0173845
-0.0157813
-0.014186
-0.0125893
-0.0109926
-0.0117612
-0.0124289
-0.0128112
-0.0131527
-0.0134828
-0.0138211
-0.0137229
-0.0225797
-0.0216376
-0.0224106
-0.0230678
-0.023392
-0.0213412
-0.0198471
-0.0202289
-0.020586
-0.0209515
-0.0200794
-0.0188187
-0.0175679
-0.0159824
-0.0144101
-0.0128427
-0.0112737
-0.00969803
-0.0104515
-0.0111079
-0.0114834
-0.0118183
-0.0121444
-0.0124756
-0.0127276
-0.0130684
-0.0133903
-0.0241676
-0.022871
-0.0213364
-0.0217261
-0.0230981
-0.022107
-0.0224995
-0.0240778
-0.0242503
-0.0215729
-0.0202847
-0.0190044
-0.0177372
-0.0161621
-0.0146093
-0.0130672
-0.0115284
-0.00998216
-0.00841918
-0.00915785
-0.00980486
-0.0101748
-0.0105049
-0.010826
-0.0111519
-0.0113994
-0.0117343
-0.0120515
-0.0123778
-0.0257338
-0.024428
-0.023101
-0.0228843
-0.0232682
-0.023323
-0.0239989
-0.0242342
-0.0248795
-0.0250598
-0.0217824
-0.0204723
-0.0191797
-0.0178982
-0.0163247
-0.014786
-0.0132654
-0.011753
-0.0102411
-0.00871156
-0.00715141
-0.00787598
-0.00851546
-0.00888128
-0.00920758
-0.00952568
-0.00984608
-0.0100904
-0.0104213
-0.0107341
-0.0110555
-0.0273659
-0.0260098
-0.0258896
-0.0246624
-0.0233135
-0.023566
-0.0240206
-0.0245899
-0.0257077
-0.0249852
-0.0219763
-0.020651
-0.0193503
-0.0180588
-0.0164763
-0.0149444
-0.0134396
-0.0119492
-0.0104676
-0.00897805
-0.00745746
-0.00589921
-0.00660017
-0.00723309
-0.00759729
-0.00792062
-0.00823685
-0.00855405
-0.00879585
-0.00912333
-0.009435
-0.00975015
-0.0290531
-0.0276488
-0.026707
-0.027544
-0.0262592
-0.0248811
-0.0235113
-0.0239856
-0.0244724
-0.0257952
-0.0265342
-0.025383
-0.0248888
-0.02216
-0.0208314
-0.0195213
-0.0182219
-0.0166255
-0.015088
-0.013591
-0.012117
-0.01066
-0.00920706
-0.00773357
-0.00621623
-0.00469426
-0.00532217
-0.00595161
-0.00631686
-0.00663834
-0.00695358
-0.00726839
-0.00750876
-0.00783457
-0.00814504
-0.00845836
-0.0307756
-0.0293297
-0.0283774
-0.0292351
-0.0279015
-0.0273663
-0.026485
-0.0250845
-0.023703
-0.0243907
-0.0262088
-0.0257093
-0.0266281
-0.0252961
-0.0247934
-0.0223468
-0.0210151
-0.0196995
-0.0183877
-0.0167701
-0.0152207
-0.0137264
-0.0122607
-0.0108195
-0.00939441
-0.00796495
-0.00649923
-0.00498783
-0.00351291
-0.00412589
-0.00467623
-0.00503311
-0.00535263
-0.00567154
-0.00598425
-0.00622305
-0.00654803
-0.00685895
-0.00717114
-0.0325309
-0.0310466
-0.0300852
-0.0309746
-0.0295823
-0.0281982
-0.0290472
-0.0281294
-0.027452
-0.0270311
-0.0266943
-0.0252831
-0.0238957
-0.0261224
-0.0256083
-0.0265381
-0.0252034
-0.0225393
-0.0212082
-0.0198827
-0.0185526
-0.0169147
-0.0153488
-0.0138477
-0.012384
-0.0109513
-0.00954329
-0.00814605
-0.0067316
-0.00526345
-0.00377177
-0.00231137
-0.00291208
-0.00354133
-0.00380876
-0.00406042
-0.00436646
-0.00468316
-0.00492921
-0.0052579
-0.00557054
-0.00588546
-0.0343246
-0.0328106
-0.0318345
-0.0327205
-0.0313013
-0.0299162
-0.0308435
-0.0298134
-0.0278674
-0.0282937
-0.0291275
-0.0286968
-0.0283431
-0.0273641
-0.0269472
-0.0268967
-0.0254829
-0.0241007
-0.0260248
-0.0264349
-0.0227459
-0.0214093
-0.020068
-0.0187106
-0.0170584
-0.0154758
-0.0139618
-0.0124916
-0.0110567
-0.00965535
-0.00827793
-0.00690302
-0.00549047
-0.00401973
-0.00254901
-0.00121491
-0.00180271
-0.00230783
-0.00258229
-0.00287512
-0.00317558
-0.00359407
-0.00348093
-0.00387031
-0.00422848
-0.00457498
-0.0361576
-0.0346206
-0.0336144
-0.0345312
-0.0330684
-0.0316844
-0.0325315
-0.031536
-0.0295429
-0.0299877
-0.0309779
-0.030414
-0.0300295
-0.0277806
-0.0282006
-0.029027
-0.0286097
-0.0285506
-0.0272611
-0.0268519
-0.0271048
-0.0256961
-0.0243189
-0.0229636
-0.0216127
-0.0202477
-0.018859
-0.017197
-0.0155994
-0.0140703
-0.0125893
-0.0111463
-0.00973997
-0.00836758
-0.0070137
-0.00564737
-0.00422328
-0.00273763
-0.00133909
-0.000280864
-0.00087348
-0.00128902
-0.00152659
-0.00177421
-0.00202491
-0.00228981
-0.00244616
-0.00269031
-0.00291725
-0.00364601
-0.038039
-0.0364665
-0.0354445
-0.0363798
-0.034883
-0.0334288
-0.0343433
-0.033304
-0.0313145
-0.0317197
-0.0326051
-0.0321542
-0.0317552
-0.0294336
-0.0298291
-0.0310446
-0.0301994
-0.0302412
-0.0276839
-0.0280981
-0.0289277
-0.0285178
-0.0287644
-0.0273273
-0.0259267
-0.0245524
-0.0231879
-0.0218134
-0.0204168
-0.0189931
-0.0173258
-0.0157159
-0.0141723
-0.0126786
-0.0112234
-0.00980562
-0.00842669
-0.00707525
-0.00573235
-0.00435297
-0.00288434
-0.00140826
-0.000345288
-8.19272e-05
-0.000476143
-0.000666325
-0.00084669
-0.00105268
-0.00126718
-0.00140754
-0.00166067
-0.0019103
-0.00217211
-0.00233844
-0.00259584
-0.00284734
-0.00390363
-0.0399707
-0.0383561
-0.0373152
-0.0382709
-0.0367378
-0.0352633
-0.0361945
-0.0351188
-0.0330742
-0.0335265
-0.0344297
-0.0339759
-0.0335243
-0.0310417
-0.0315397
-0.032493
-0.0320229
-0.0319698
-0.0293409
-0.0297317
-0.0311652
-0.0300916
-0.0304598
-0.0289945
-0.0275698
-0.0261757
-0.0247947
-0.0234096
-0.022005
-0.0205716
-0.0191122
-0.0174415
-0.015824
-0.0142664
-0.0127611
-0.0112928
-0.0098595
-0.00846385
-0.00709948
-0.00575906
-0.00440244
-0.00296939
-0.00143824
-0.000399995
-8.01421e-06
-0.000227613
-0.000366771
-0.00049168
-0.000557725
-0.000739643
-0.000937534
-0.0011574
-0.00127725
-0.00153222
-0.00179292
-0.00205713
-0.0419595
-0.0402951
-0.0392299
-0.0402081
-0.0386338
-0.0371339
-0.0380852
-0.0369782
-0.034897
-0.0353592
-0.0362789
-0.0358145
-0.0353396
-0.0329649
-0.0334187
-0.0343208
-0.0338695
-0.033743
-0.0321961
-0.030699
-0.0292487
-0.0278327
-0.0264374
-0.0250372
-0.0236231
-0.0221813
-0.0207108
-0.019219
-0.0175431
-0.0159196
-0.0143513
-0.0128351
-0.0113535
-0.0099044
-0.00848993
-0.00710427
-0.00574615
-0.00438547
-0.00298309
-0.00141979
-0.00043724
1.75864e-05
-0.000198492
-0.000286712
-0.000397214
-0.000429967
-0.000608473
-0.000808831
-0.00102728
-0.0440064
-0.042286
-0.0411921
-0.0421951
-0.0405781
-0.0390462
-0.0400189
-0.038881
-0.0367561
-0.0372315
-0.0381726
-0.037695
-0.0372039
-0.0347877
-0.0352475
-0.0361665
-0.0357076
-0.0355617
-0.0339733
-0.0324425
-0.0309659
-0.0295286
-0.0281121
-0.0267019
-0.025274
-0.0238229
-0.0223414
-0.0208365
-0.0193141
-0.0176336
-0.0160019
-0.0144249
-0.0129003
-0.0114098
-0.00995112
-0.00851527
-0.00710399
-0.00571803
-0.00433137
-0.00293821
-0.00134455
-0.000463867
4.51484e-05
-0.000110393
-0.000176308
-0.000276409
-0.0460867
-0.0443207
-0.0432047
-0.0442418
-0.0425714
-0.0410014
-0.0419957
-0.0408303
-0.0386606
-0.0391479
-0.0401117
-0.0396213
-0.0391121
-0.0366455
-0.0371179
-0.038058
-0.0375857
-0.0374292
-0.0357983
-0.0342309
-0.0327211
-0.0312605
-0.0298273
-0.028398
-0.0269611
-0.0254974
-0.0240056
-0.0224875
-0.0209494
-0.0194036
-0.0177134
-0.0160751
-0.0144868
-0.0129532
-0.0114588
-0.00999243
-0.00854568
-0.00711118
-0.00569114
-0.00426541
-0.00286124
-0.00122303
-0.000479703
-0.0482211
-0.0463985
-0.0452706
-0.0463481
-0.0446065
-0.0429975
-0.0440227
-0.0428272
-0.0406108
-0.0411118
-0.0420988
-0.0415953
-0.0410673
-0.0385487
-0.039032
-0.0399962
-0.0395117
-0.0393433
-0.0376702
-0.0360632
-0.0345228
-0.0330334
-0.0315792
-0.0301358
-0.0286823
-0.0272086
-0.0257045
-0.0241742
-0.0226201
-0.0210557
-0.019497
-0.0177898
-0.0161389
-0.0145401
-0.0129967
-0.0114987
-0.0100294
-0.00857537
-0.00712412
-0.0056791
-0.00421239
-0.00278056
-0.00107919
-0.000488714
-0.0504005
-0.0485459
-0.0473882
-0.0484698
-0.046689
-0.045089
-0.0462202
-0.0448675
-0.042606
-0.0431181
-0.044114
-0.043604
-0.0430677
-0.0404989
-0.0409948
-0.0419836
-0.0414866
-0.0413038
-0.0395903
-0.0379434
-0.0363662
-0.03485
-0.0333718
-0.0319097
-0.0304438
-0.0289555
-0.0274399
-0.0258968
-0.0243283
-0.0227454
-0.0211639
-0.0196027
-0.01787
-0.0161999
-0.0145848
-0.0130327
-0.0115299
-0.010061
-0.00860666
-0.00715314
-0.00569013
-0.00418868
-0.00272883
-0.000952586
-0.000503839
-0.0526369
-0.0507456
-0.0495587
-0.0506717
-0.0488393
-0.0471727
-0.0482429
-0.0469557
-0.0446026
-0.0451124
-0.0461143
-0.0459061
-0.0451122
-0.0424968
-0.0430049
-0.0439974
-0.0435009
-0.0433076
-0.0415576
-0.0398702
-0.0382591
-0.03671
-0.0352078
-0.033725
-0.0322418
-0.0307414
-0.0292125
-0.0276564
-0.0260733
-0.0244743
-0.0228721
-0.0212839
-0.0197296
-0.0179629
-0.0162668
-0.0146287
-0.0130614
-0.0115531
-0.0100841
-0.00863475
-0.00718422
-0.00572061
-0.00420087
-0.00271554
-0.000876361
-0.000539217
-0.0549408
-0.0529945
-0.0517825
-0.052917
-0.0510458
-0.0493523
-0.0504592
-0.0491059
-0.0466748
-0.0472447
-0.0483515
-0.0478005
-0.0472047
-0.0444911
-0.0449275
-0.045935
-0.045359
-0.0435672
-0.0418471
-0.0401961
-0.038617
-0.0370872
-0.0355834
-0.0340821
-0.0325653
-0.0310233
-0.0294537
-0.0278569
-0.0262406
-0.0246206
-0.0230084
-0.0214254
-0.019883
-0.0180791
-0.0163489
-0.0146806
-0.0130889
-0.0115696
-0.0101005
-0.0086575
-0.00721795
-0.00576436
-0.00424675
-0.00275225
-0.000873494
-0.000597029
-0.0573084
-0.0553044
-0.0540552
-0.0552637
-0.0533063
-0.0515747
-0.0526865
-0.0513136
-0.0489263
-0.0494781
-0.0505614
-0.0500124
-0.0493583
-0.0474565
-0.0456255
-0.0438669
-0.0421845
-0.0405708
-0.0390127
-0.037485
-0.0359643
-0.0344311
-0.0328735
-0.0312898
-0.0296787
-0.0280474
-0.026407
-0.0247755
-0.0231653
-0.0215926
-0.0200619
-0.0182226
-0.0164551
-0.0147491
-0.0131245
-0.0115845
-0.010109
-0.00867248
-0.00724762
-0.00581345
-0.00431762
-0.0028326
-0.000952143
-0.000673604
-0.0597661
-0.0576851
-0.0564159
-0.0576115
-0.0556253
-0.0537363
-0.0547684
-0.0553527
-0.0535818
-0.0511394
-0.051703
-0.0528103
-0.0522478
-0.0515689
-0.0496142
-0.047734
-0.0459335
-0.044216
-0.0425731
-0.0409865
-0.0394328
-0.0378907
-0.0363386
-0.0347644
-0.0331653
-0.0315385
-0.0298916
-0.028235
-0.0265815
-0.0249496
-0.0233483
-0.021785
-0.0202587
-0.018393
-0.0165918
-0.0148458
-0.0131785
-0.0116074
-0.0101154
-0.00867806
-0.0072687
-0.00585834
-0.0043951
-0.00293456
-0.00109618
-0.000754003
-0.0622638
-0.0601299
-0.0588215
-0.0600638
-0.0580095
-0.0559479
-0.0565633
-0.0571478
-0.0577461
-0.0559101
-0.0533868
-0.0544125
-0.0539894
-0.0551754
-0.0538431
-0.0518315
-0.0498981
-0.0480528
-0.0462983
-0.0446209
-0.0430059
-0.0414271
-0.0398622
-0.0382896
-0.0366972
-0.035081
-0.0334382
-0.0317737
-0.0300993
-0.0284265
-0.0267719
-0.0251477
-0.0235576
-0.0219958
-0.0204586
-0.0185806
-0.0167573
-0.0149756
-0.0132621
-0.0116471
-0.0101268
-0.00868078
-0.00727988
-0.00589398
-0.00446836
-0.00304479
-0.00128238
-0.000827999
-0.0648294
-0.0626147
-0.0612963
-0.062591
-0.0604521
-0.0583575
-0.0589786
-0.0595783
-0.0601917
-0.0583
-0.0558283
-0.0564494
-0.057028
-0.0576234
-0.0561791
-0.0545296
-0.0550996
-0.0541107
-0.0521227
-0.0502289
-0.0484311
-0.046722
-0.0450751
-0.043469
-0.0418793
-0.0402858
-0.0386732
-0.0370386
-0.0353771
-0.033695
-0.032001
-0.0303085
-0.0286309
-0.0269825
-0.0253678
-0.0237823
-0.0222162
-0.0206513
-0.0187689
-0.0169454
-0.0151368
-0.0133791
-0.0117148
-0.0101527
-0.00868496
-0.00728369
-0.00591826
-0.0045299
-0.00315081
-0.00147836
-0.000896198
-0.0674607
-0.0651933
-0.063855
-0.065149
-0.0629465
-0.0608057
-0.0614392
-0.062044
-0.0627615
-0.0607457
-0.0582542
-0.0588725
-0.0594541
-0.0600576
-0.0585748
-0.0557169
-0.0563219
-0.0569124
-0.0574962
-0.0564536
-0.0544102
-0.0524627
-0.0506211
-0.0488714
-0.0471952
-0.0455611
-0.0439458
-0.0423278
-0.0406939
-0.0390389
-0.0373584
-0.0356562
-0.0339421
-0.0322267
-0.0305274
-0.0288541
-0.0272128
-0.0256018
-0.024012
-0.022435
-0.0208414
-0.0189423
-0.0171398
-0.0153192
-0.0135284
-0.0118164
-0.0102049
-0.00870076
-0.00728426
-0.00593079
-0.00457623
-0.00324422
-0.00165756
-0.000965002
-0.0701561
-0.0678532
-0.0664626
-0.0678096
-0.0655278
-0.0633483
-0.0639829
-0.0646164
-0.0652769
-0.0632512
-0.0606884
-0.0612992
-0.0618584
-0.0627796
-0.0610256
-0.0581294
-0.0587405
-0.0593394
-0.0599295
-0.0588554
-0.0567582
-0.054759
-0.0528697
-0.0510794
-0.0493664
-0.0477021
-0.0460608
-0.044418
-0.0427607
-0.0410838
-0.039382
-0.0376588
-0.0359222
-0.0341836
-0.0324584
-0.0307587
-0.0290914
-0.0274524
-0.0258358
-0.0242297
-0.0226306
-0.0214099
-0.0191074
-0.0204851
-0.0173268
-0.0155086
-0.0136993
-0.0119509
-0.0102907
-0.00873895
-0.00729214
-0.00593513
-0.00460643
-0.00332034
-0.00180547
-0.00104759
-0.0729353
-0.0705667
-0.0691538
-0.0705304
-0.0681933
-0.0659622
-0.0666427
-0.0672903
-0.067952
-0.0658332
-0.0631486
-0.0638099
-0.0644536
-0.0651131
-0.0635369
-0.0605627
-0.0611557
-0.0616898
-0.0626801
-0.0613113
-0.0591657
-0.0571185
-0.0551779
-0.0533454
-0.0515946
-0.0498974
-0.0482259
-0.0465574
-0.0448747
-0.0431742
-0.0414492
-0.0397038
-0.0379436
-0.0361804
-0.0344275
-0.0327007
-0.0310026
-0.0293345
-0.0276875
-0.0260491
-0.02441
-0.023185
-0.0222717
-0.0214817
-0.0196073
-0.0175041
-0.0188129
-0.0205642
-0.0156904
-0.0138794
-0.0121105
-0.0104113
-0.00880875
-0.00731903
-0.00594009
-0.00462321
-0.00337625
-0.001921
-0.00115404
-0.0758121
-0.07336
-0.0719119
-0.0733208
-0.0709214
-0.0686424
-0.0693378
-0.0699999
-0.0706772
-0.0684963
-0.0658426
-0.066523
-0.0671461
-0.067791
-0.0661229
-0.0638319
-0.0616311
-0.0595352
-0.0575498
-0.0556702
-0.0538794
-0.0521473
-0.0504446
-0.0487467
-0.0470379
-0.0453118
-0.0435622
-0.0417912
-0.0400067
-0.0382164
-0.036438
-0.0346786
-0.0329517
-0.0312512
-0.0295721
-0.0279017
-0.0262272
-0.0249823
-0.024054
-0.0232293
-0.0223398
-0.0217318
-0.0212832
-0.0196528
-0.0179995
-0.0158488
-0.0171832
-0.0188945
-0.020372
-0.0208538
-0.0140535
-0.012284
-0.0105607
-0.00891324
-0.00737303
-0.0059553
-0.00463213
-0.00341126
-0.00200933
-0.00127914
-0.0787722
-0.0762403
-0.0747471
-0.0761911
-0.0737259
-0.071388
-0.0721027
-0.0727808
-0.0734761
-0.0712347
-0.0685226
-0.0692171
-0.0698528
-0.0705118
-0.0687865
-0.0664223
-0.0641612
-0.0620127
-0.0599792
-0.0580572
-0.0562254
-0.0544542
-0.0527179
-0.0509892
-0.0492514
-0.0474982
-0.045722
-0.0439255
-0.042113
-0.0402954
-0.0384844
-0.0366982
-0.0349363
-0.0332044
-0.0314919
-0.0297889
-0.0280831
-0.0268131
-0.0258739
-0.0250348
-0.024121
-0.0234976
-0.0230426
-0.0221577
-0.0226138
-0.0217411
-0.0213072
-0.0198279
-0.019532
-0.0180661
-0.0163393
-0.0142064
-0.0155348
-0.0172231
-0.0187369
-0.0191277
-0.0205391
-0.0208892
-0.012455
-0.0107274