/*--------------------------------*- C++ -*----------------------------------*\
| =========                 |                                                 |
| \\      /  F ield         | OpenFOAM: The Open Source CFD Toolbox           |
|  \\    /   O peration     | Version:  v1912                                 |
|   \\  /    A nd           | Website:  www.openfoam.com                      |
|    \\/     M anipulation  |                                                 |
\*---------------------------------------------------------------------------*/
FoamFile
{
    version     2.0;
    format      ascii;
    class       surfaceScalarField;
    location    "430";
    object      phi;
}
// * * * * * * * * * * * * * * * * * * * * * * * * * * * * * * * * * * * * * //

dimensions      [0 3 -1 0 0 0 0];
oriented        oriented;


internalField   nonuniform List<scalar> 
7194
(
-1.80265e-06
0.00132145
0.00396694
-1.95327e-06
0.0013234
-9.07618e-06
0.00397406
-2.10553e-06
0.00132551
-2.41743e-05
0.00658468
-9.46184e-06
0.00398142
-2.109e-06
0.00132762
-4.48163e-05
0.00906816
-2.40419e-05
0.00659926
-9.46483e-06
0.00398877
-1.99019e-06
0.00132961
-7.50916e-05
0.0113124
-4.80885e-05
0.0090922
-2.35633e-05
0.00661336
-9.33909e-06
0.00399612
-2.03267e-06
0.00133164
-0.000115872
0.0131801
-7.91282e-05
0.0113434
-4.53776e-05
0.00911402
-2.41797e-05
0.0066282
-9.72397e-06
0.00400381
-1.7163e-06
0.00133336
-0.000162329
0.0145436
-0.000119545
0.0132205
-7.90213e-05
0.0113771
-4.63636e-05
0.0091362
-2.17578e-05
0.00664024
-8.08081e-06
0.00401018
-1.59262e-06
0.00133495
-0.000208626
0.0152903
-0.000165257
0.0145893
-0.000117893
0.0132594
-7.33365e-05
0.011404
-4.14336e-05
0.00915588
-1.95594e-05
0.00665172
-7.26125e-06
0.00401585
-1.48915e-06
0.00133644
-0.000249957
0.0153504
-0.000214808
0.0153399
-0.000162597
0.014634
-0.000112591
0.0132987
-7.07344e-05
0.0114333
-3.77898e-05
0.00917411
-1.82217e-05
0.00666268
-6.63871e-06
0.004021
-1.16315e-06
0.0013376
-0.000280379
0.0146896
-0.0002589
0.0153945
-0.000211799
0.0153891
-0.000156088
0.0146775
-0.000101064
0.013329
-6.17563e-05
0.0114573
-3.35558e-05
0.00918944
-1.5527e-05
0.00667157
-4.56673e-06
0.0040244
-1.17743e-06
0.00133878
-0.000293818
0.0133431
-0.000301323
0.014732
-0.000258837
0.0154416
-0.000198123
0.0154311
-0.000137213
0.0147136
-9.21644e-05
0.0133594
-5.43285e-05
0.0114781
-2.99379e-05
0.00920385
-1.41732e-05
0.00668117
-5.19464e-06
0.00402842
-8.44742e-07
0.00133962
-0.000286958
0.0113943
-0.000331784
0.0133735
-0.000297297
0.0147705
-0.000237758
0.0154812
-0.000173765
0.0154677
-0.000122714
0.0147442
-7.85393e-05
0.0133836
-4.75633e-05
0.0114957
-2.56626e-05
0.00921534
-1.08914e-05
0.00668687
-4.57353e-06
0.00403215
-7.50388e-07
0.00134038
-0.000246408
0.00897785
-0.000351724
0.0114142
-0.000327618
0.0134038
-0.000264248
0.014797
-0.000201415
0.0155089
-0.000149547
0.0154945
-0.000102544
0.0147682
-6.5843e-05
0.0134019
-3.94962e-05
0.0115095
-2.14488e-05
0.0092259
-1.13744e-05
0.00669367
-4.16805e-06
0.00403557
-7.86779e-07
0.00134116
-5.07219e-05
0.00624707
-0.000109979
-0.00035834
0.00898446
-0.000344894
0.0114315
-0.000276931
0.0134165
-0.000217877
0.0148134
-0.000166928
0.0155262
-0.000119795
0.0155118
-8.43084e-05
0.0147867
-5.80227e-05
0.0134204
-3.63599e-05
0.0115244
-2.0648e-05
0.00923518
-1.02424e-05
0.00669974
-4.00731e-06
0.00403879
-7.71627e-07
0.00134193
0.00212008
-0.00213827
-3.25262e-05
-0.000141981
0.00623292
-0.000202207
0.00207402
-6.39247e-05
-0.000350136
0.0089897
-0.000269564
0.0114241
-0.000211998
0.0134106
-0.000167292
0.0148138
-0.000129751
0.0155362
-0.000101362
0.0155288
-7.36999e-05
0.0148023
-4.78271e-05
0.0134319
-3.02811e-05
0.0115341
-1.74255e-05
0.00924236
-8.68772e-06
0.00670442
-3.88522e-06
0.0040419
-8.3974e-07
0.00134277
-2.01119e-05
0.0013979
-0.00142286
-9.10493e-07
-6.65571e-06
0.00204332
-0.000111281
-0.000195636
0.00621859
-0.000140166
0.00201548
-0.000174364
0.00135442
-1.55314e-05
-4.91627e-06
-0.000228585
0.00894872
-0.000184052
0.0113962
-0.000154342
0.0133977
-0.000128931
0.014813
-0.000105405
0.0155402
-8.07892e-05
0.0155359
-5.75484e-05
0.0148121
-4.23756e-05
0.013444
-2.77358e-05
0.0115444
-1.88127e-05
0.00925248
-1.02257e-05
0.00671077
-3.42893e-06
0.00404449
-1.08218e-06
0.00134386
-3.6099e-06
-6.10984e-08
0.000446345
-0.000446488
-7.67966e-07
0.000441446
-1.75698e-06
0.00129985
-1.68838e-05
-3.98276e-05
0.00199166
-0.000171817
-0.000100583
0.00613229
-4.17075e-05
0.00196088
-0.000109391
0.00126557
-8.70363e-05
-5.30447e-05
-0.000439176
0.000429145
-5.50076e-06
-2.64544e-06
-0.000124964
0.00888964
-0.000117297
0.0113591
-0.000107717
0.0133765
-9.62189e-05
0.0148038
-8.01824e-05
0.0155396
-6.39405e-05
0.0155423
-5.21611e-05
0.0148219
-3.84563e-05
0.0134547
-2.71155e-05
0.0115527
-1.71653e-05
0.00925942
-1.07644e-05
0.0067181
-4.98772e-06
0.00404839
-1.14305e-06
0.001345
-0.000449034
-1.06372e-06
-1.89135e-08
0.0002614
-0.000262106
-6.20595e-08
0.000259918
-2.7525e-07
0.000421457
-9.19629e-06
0.000399915
-1.82849e-05
0.00123746
-8.00795e-05
-6.36249e-05
0.00191482
-5.45152e-05
-3.65731e-05
0.00605215
-8.2507e-06
0.00189745
-2.43395e-05
0.00118556
-1.70291e-05
-4.04586e-05
-0.000380098
0.00035306
-5.9998e-05
-3.32279e-05
-0.000257687
0.00025295
-7.64059e-07
-4.13913e-07
-6.71768e-05
0.00883952
-7.48214e-05
0.0113263
-7.63042e-05
0.0133566
-7.25828e-05
0.0147962
-6.50425e-05
0.0155407
-5.80441e-05
0.0155482
-4.68336e-05
0.0148302
-3.6767e-05
0.0134644
-2.91634e-05
0.0115647
-2.05554e-05
0.00926921
-1.06079e-05
0.00672372
-5.31147e-06
0.00405256
-1.21019e-06
0.00134621
-0.000263056
-1.14211e-07
-4.49178e-08
7.57037e-05
-7.57657e-05
7.54284e-05
0.000245481
-1.72656e-06
0.000230979
-3.78343e-06
0.000331454
-5.84734e-05
0.000311376
-4.35468e-05
0.00114402
-1.041e-05
-2.57294e-06
0.00187344
-1.25632e-05
-1.53422e-05
0.00600095
-6.32711e-07
0.00187063
-5.4443e-06
0.001123
-1.75769e-07
-3.14096e-06
-0.000289604
0.000278893
-6.3178e-06
-1.86869e-05
-0.000207487
0.000168801
-2.13112e-05
-9.73629e-06
-7.50145e-05
7.42505e-05
-3.73311e-05
0.00880203
-4.9026e-05
0.011299
-5.43574e-05
0.0133383
-5.47215e-05
0.0147859
-5.42084e-05
0.0155369
-4.90599e-05
0.0155504
-4.31851e-05
0.0148366
-3.8015e-05
0.0134732
-2.95342e-05
0.0115737
-2.03563e-05
0.00927896
-1.36264e-05
0.00673204
-6.15827e-06
0.00405751
-1.53425e-06
0.00134774
-7.58799e-05
7.25239e-05
6.87405e-05
0.00014802
-3.76931e-05
0.000104474
0.000270762
-2.27976e-06
0.000268861
-6.71697e-07
0.00111142
-1.20284e-06
2.16665e-07
0.00185883
-3.54227e-06
-7.9002e-06
0.00597057
9.51127e-07
0.00185921
-1.00798e-06
0.00110607
5.49919e-07
-6.39352e-07
-0.000266096
0.000266013
-9.29441e-08
-3.75253e-07
-8.57867e-05
7.94689e-05
-5.90042e-05
3.76931e-05
-2.20697e-05
0.00877507
-3.35423e-05
0.0112782
-4.06695e-05
0.0133243
-4.67818e-05
0.0147784
-4.76758e-05
0.0155355
-4.67497e-05
0.015554
-4.59182e-05
0.0148446
-4.06523e-05
0.0134843
-3.25968e-05
0.0115859
-2.51071e-05
0.00929044
-1.51185e-05
0.006741
-6.92625e-06
0.0040629
-1.57238e-06
0.00134932
7.71892e-05
7.65175e-05
0.000264983
-1.73328e-07
0.000265175
2.45696e-08
0.00110264
-3.34925e-07
2.24415e-07
0.00185273
-1.41939e-06
-5.00749e-06
0.00595186
1.64772e-06
0.00185431
-6.29319e-07
0.00110155
4.03293e-07
-3.237e-07
-0.00026448
0.00026497
5.92564e-08
5.64721e-08
-7.61422e-05
7.60493e-05
-1.4053e-05
0.00875558
-2.49545e-05
0.0112624
-3.20584e-05
0.0133096
-3.78279e-05
0.0147686
-4.44686e-05
0.0155332
-4.77265e-05
0.0155558
-4.93304e-05
0.0148532
-4.53634e-05
0.0134971
-3.93757e-05
0.0116002
-2.8533e-05
0.00930386
-1.70092e-05
0.00675108
-7.7733e-06
0.0040691
-1.93569e-06
0.00135125
7.5876e-05
7.59005e-05
0.000264722
-8.64514e-08
0.000264891
5.56544e-08
0.00110017
-1.88853e-07
1.51684e-07
0.00184996
-6.59122e-07
-3.15311e-06
0.00594
9.6149e-07
0.00185164
-3.22203e-08
0.00109944
2.63506e-07
-1.61938e-07
-0.000264486
0.000264857
3.2959e-08
8.06189e-08
-7.5957e-05
7.60163e-05
-1.01886e-05
0.00874081
-1.72928e-05
0.0112477
-2.74955e-05
0.0132992
-3.5578e-05
0.0147597
-4.38168e-05
0.0155293
-5.34505e-05
0.0155599
-5.57669e-05
0.0148636
-5.42456e-05
0.013512
-4.52251e-05
0.0116169
-3.40151e-05
0.00932086
-2.04298e-05
0.00676374
-9.34182e-06
0.00407651
-2.03614e-06
0.00135329
7.59298e-05
7.59855e-05
0.000264736
-6.86346e-08
0.000264855
3.26401e-08
0.00109888
-1.52431e-07
4.67948e-08
0.00184903
-5.47565e-07
-1.86803e-06
0.00593094
7.35893e-07
0.00184977
2.22572e-07
0.00109869
2.52865e-07
-9.60576e-08
-0.000264628
0.000264881
1.05593e-08
6.57166e-08
-7.60661e-05
7.60991e-05
-7.08998e-06
0.00873061
-1.43169e-05
0.0112345
-2.50157e-05
0.0132887
-3.63758e-05
0.0147523
-4.92461e-05
0.0155251
-5.91316e-05
0.0155633
-6.58779e-05
0.0148753
-6.35207e-05
0.0135303
-5.33969e-05
0.0116362
-3.59e-05
0.00933633
-2.07623e-05
0.00677516
-8.8829e-06
0.00408336
-1.84794e-06
0.00135514
7.60304e-05
7.60631e-05
0.000264808
-7.96518e-08
0.000264838
1.67774e-08
0.0010982
-8.8172e-08
3.45217e-08
0.0018483
-3.91709e-07
-1.4852e-06
0.00592418
1.15865e-06
0.00184885
1.78506e-07
0.00109837
1.64108e-07
-1.08515e-07
-0.000264671
0.000264916
8.224e-09
7.10493e-08
-7.61288e-05
7.61394e-05
-5.9459e-06
0.00872224
-1.30395e-05
0.0112225
-2.40181e-05
0.0132763
-4.21467e-05
0.0147452
-6.09396e-05
0.0155269
-7.56913e-05
0.0155731
-7.95609e-05
0.0148913
-7.32058e-05
0.0135501
-5.87155e-05
0.0116591
-4.1121e-05
0.00935669
-2.29119e-05
0.00678919
-8.78924e-06
0.0040903
-1.91808e-06
0.00135705
7.60597e-05
7.60765e-05
0.000264908
-8.05084e-08
0.000264928
1.40293e-08
0.00109804
-2.03589e-08
-4.47079e-08
0.00184758
-2.13643e-07
-1.18206e-06
0.00591845
9.68143e-07
0.00184852
2.23932e-07
0.0010981
1.62427e-07
-4.36192e-08
-0.000264752
0.000264914
2.06225e-09
6.83462e-08
-7.61475e-05
7.61558e-05
-4.1265e-06
0.00871333
-1.27457e-05
0.0112113
-2.85003e-05
0.0132627
-4.73777e-05
0.0147316
-7.09117e-05
0.0155222
-8.95567e-05
0.0155831
-9.74604e-05
0.0149156
-8.69441e-05
0.0135783
-6.6457e-05
0.0116844
-4.34183e-05
0.0093772
-2.2411e-05
0.00680281
-9.48874e-06
0.00409787
-2.49871e-06
0.00135955
7.60753e-05
7.60893e-05
0.000264973
-8.01757e-08
0.00026492
8.49408e-09
0.00109794
-1.88897e-08
-3.87974e-08
0.00184752
-1.86002e-07
-6.46596e-07
0.00591414
8.24371e-07
0.00184826
2.32307e-07
0.00109803
1.66206e-07
-3.1717e-08
-0.00026478
0.000264937
5.45932e-09
9.7133e-08
-7.61576e-05
7.61597e-05
-5.0787e-06
0.00870566
-1.5156e-05
0.0111979
-3.43074e-05
0.0132496
-6.50216e-05
0.0147257
-9.42774e-05
0.0155269
-0.000113099
0.0155987
-0.00011328
0.0149419
-9.73646e-05
0.0136092
-7.1451e-05
0.0117124
-4.46441e-05
0.00939943
-2.27543e-05
0.00681607
-7.73127e-06
0.0041031
-7.22681e-07
0.00136028
7.60795e-05
7.6088e-05
0.000265001
-8.36337e-08
0.000264946
1.62285e-08
0.00109791
-1.16284e-08
-4.89859e-08
0.0018476
1.06454e-08
-3.47658e-07
0.00590898
4.31739e-07
0.00184815
2.69251e-07
0.001098
1.64762e-07
-2.26457e-08
-0.000264849
0.000265009
6.04448e-09
6.54309e-08
-7.61852e-05
7.61906e-05
-4.35837e-06
0.00869486
-2.03687e-05
0.011184
-4.81374e-05
0.0132327
-8.48277e-05
0.0147163
-0.000118775
0.0155326
-0.000136877
0.0156223
-0.000130174
0.0149747
-0.000106833
0.0136446
-7.50918e-05
0.0117429
-4.2044e-05
0.00941872
-2.13426e-05
0.00682968
-6.70883e-06
0.00410909
-6.53637e-07
0.00136093
7.6107e-05
7.61232e-05
0.000265086
-8.80743e-08
0.000264928
1.08642e-07
0.00109806
-6.96832e-09
-3.88165e-08
0.00184775
5.69298e-08
1.80699e-07
0.00590519
-7.48251e-07
0.00184805
1.32117e-07
0.00109817
1.68992e-07
-1.63929e-08
-0.000264919
0.00026509
-6.57712e-09
-1.3499e-08
-7.61887e-05
7.61947e-05
-7.55984e-06
0.00868205
-2.78217e-05
0.0111637
-6.49924e-05
0.0132129
-0.00011385
0.0147113
-0.000151583
0.0155473
-0.000163772
0.0156559
-0.000145087
0.015013
-0.000111119
0.0136806
-7.23027e-05
0.0117731
-4.11194e-05
0.0094385
-1.74355e-05
0.00684041
-6.20276e-06
0.00411464
-4.02818e-07
0.00136133
7.61067e-05
7.62153e-05
0.00026513
-4.65764e-08
0.000264979
1.11982e-07
0.00109826
3.33179e-09
-3.28992e-08
0.00184814
9.50329e-08
1.05975e-06
0.00589761
-1.04356e-06
0.00184724
1.45374e-07
0.00109823
1.69879e-07
-1.37352e-08
-0.000264974
0.000265149
-5.3814e-09
-1.15027e-08
-7.62018e-05
7.61952e-05
-1.12172e-05
0.00866545
-4.06778e-05
0.0111393
-9.54343e-05
0.0131945
-0.000151949
0.0147117
-0.000188581
0.0155721
-0.000186023
0.0156968
-0.000155181
0.015057
-0.000111137
0.0137195
-6.82238e-05
0.0118002
-3.64077e-05
0.00945747
-1.59745e-05
0.00685018
-2.99204e-06
0.00411723
-1.8172e-07
0.00136151
7.61487e-05
7.62606e-05
0.000265231
-7.89624e-08
0.000265085
1.12833e-07
0.00109835
3.08917e-09
-2.41801e-08
0.00184813
1.72191e-07
1.39305e-06
0.00588701
-2.01051e-06
0.00184728
-1.91076e-07
0.00109835
1.65742e-07
-2.01878e-08
-0.000265082
0.000265257
-5.60728e-09
-1.02558e-08
-7.62491e-05
7.62438e-05
-1.83587e-05
0.00864313
-6.47631e-05
0.0111087
-0.000135794
0.0131783
-0.000199851
0.014723
-0.000223784
0.0156098
-0.000197872
0.0157395
-0.000153837
0.0150997
-0.000101961
0.0137532
-6.10479e-05
0.0118249
-3.09706e-05
0.00947247
-1.06891e-05
0.00685788
-2.73615e-06
0.00411978
1.91777e-07
0.00136132
7.61648e-05
7.62776e-05
0.000265304
-4.38265e-08
0.0002652
7.96979e-08
0.00109855
-3.26748e-10
-2.97079e-08
0.00184821
4.64262e-07
9.06708e-07
0.00587121
-3.45757e-06
0.00184661
-4.13426e-07
0.00109818
1.79361e-07
2.84939e-09
-0.000265158
0.000265332
-8.2938e-09
2.21635e-08
-7.62674e-05
7.62618e-05
-3.09174e-05
0.00860929
-0.000101082
0.011074
-0.000192221
0.0131707
-0.000249506
0.0147487
-0.000241754
0.0156537
-0.000201146
0.0157868
-0.000142892
0.0151407
-9.2835e-05
0.013785
-5.18657e-05
0.0118458
-2.28606e-05
0.00948464
-6.48661e-06
0.00686163
7.62863e-07
0.00411921
1.74603e-06
0.00135958
7.6218e-05
7.62977e-05
0.000265416
-8.39787e-08
0.000265295
9.14664e-08
0.00109864
1.80834e-08
-1.20664e-08
0.00184697
5.42043e-07
1.63232e-06
0.00584456
-5.90604e-06
0.00184416
-6.44757e-07
0.00109811
1.08341e-07
6.76672e-09
-0.000265288
0.000265465
2.57592e-09
9.4685e-09
-7.63198e-05
7.63115e-05
-5.55409e-05
0.00856375
-0.000161632
0.0110434
-0.000260651
0.0131818
-0.000281864
0.0147888
-0.000246123
0.0156987
-0.000184927
0.0158289
-0.000126745
0.0151746
-7.72714e-05
0.0138104
-4.1308e-05
0.0118642
-1.56902e-05
0.00949384
-3.03865e-06
0.00686543
1.66504e-06
0.00411929
2.07808e-06
0.0013575
7.62276e-05
7.6319e-05
0.000265561
-7.78027e-08
0.000265452
9.67016e-08
0.00109862
9.36311e-08
-6.35821e-08
0.00184584
-4.25745e-08
-1.9085e-07
0.00580129
-1.20778e-05
0.00184088
-9.51908e-07
0.00109785
5.01543e-08
8.07173e-08
-0.000265447
0.000265557
-1.67402e-09
1.18175e-08
-7.63285e-05
7.63311e-05
-0.000104611
0.00850672
-0.000243264
0.011026
-0.000311487
0.0132114
-0.000288531
0.0148312
-0.000224705
0.0157385
-0.000159841
0.015862
-0.000103898
0.0152012
-6.16246e-05
0.0138307
-2.87058e-05
0.0118772
-9.33995e-06
0.00950014
1.02206e-06
0.00686608
5.2807e-06
0.00411609
2.47599e-06
0.00135502
7.62533e-05
7.635e-05
0.000265696
-4.53475e-08
0.000265563
6.9081e-08
0.00109775
1.7734e-07
-1.26535e-07
0.0018415
-8.10571e-07
-5.2287e-06
0.00572994
-2.80318e-05
0.00183231
-2.88503e-06
0.0010967
-4.76647e-10
9.89302e-08
-0.000265598
0.000265643
5.5596e-09
4.55318e-08
-7.63618e-05
7.63601e-05
-0.000192772
0.00845623
-0.00033096
0.0110455
-0.000323321
0.0132462
-0.000256793
0.0148633
-0.000189078
0.0157677
-0.000130192
0.0158883
-8.24509e-05
0.015222
-4.37984e-05
0.0138458
-1.84393e-05
0.0118863
-2.32763e-06
0.00950349
3.68919e-06
0.00686767
7.33078e-06
0.00411123
2.85665e-06
0.00135217
7.63148e-05
7.63839e-05
0.000265893
-7.28202e-08
0.000265664
1.02705e-07
0.00109587
1.92635e-07
-1.70894e-07
0.00183038
-3.30036e-06
-2.60984e-05
0.00563448
-7.12157e-05
0.00181112
-8.77177e-06
0.0010932
-3.13697e-07
9.78033e-08
-0.000265748
0.000265777
-2.99069e-08
1.52729e-08
-7.64294e-05
7.6435e-05
-0.000324059
0.00844933
-0.000349466
0.0110716
-0.000276273
0.0132657
-0.000206869
0.0148811
-0.000147663
0.0157852
-9.98779e-05
0.0159057
-5.87954e-05
0.015237
-2.92572e-05
0.0138566
-8.5246e-06
0.0118925
4.02359e-06
0.00950316
1.08573e-05
0.00686414
7.65616e-06
0.00410643
3.33137e-06
0.00134884
7.63622e-05
7.64649e-05
0.000265998
-2.77653e-08
0.000265749
7.78995e-08
0.00108994
4.46917e-07
-4.91734e-07
0.00179912
-1.40951e-05
-9.57004e-05
0.00558128
-0.000175152
0.00175899
-3.10869e-05
0.00108182
-8.07524e-07
1.58285e-07
-0.000265795
0.000265516
-3.44032e-08
5.17224e-08
-7.64801e-05
7.64502e-05
-0.000363521
0.00846339
-0.000275993
0.0110713
-0.000206656
0.0132655
-0.000154424
0.0148878
-0.000108671
0.015794
-6.96783e-05
0.0159166
-3.94211e-05
0.0152472
-1.38319e-05
0.0138619
2.88446e-06
0.0118937
1.15356e-05
0.00950248
1.19953e-05
0.0068598
9.21754e-06
0.00410055
3.86934e-06
0.00134497
7.64225e-05
7.65004e-05
0.00026601
-4.71808e-08
0.00026544
7.80144e-08
0.00106903
1.39245e-07
-1.44045e-06
0.00172309
-5.98013e-05
-0.000196046
0.00557466
-0.000160856
0.00167415
-0.000126214
0.00104179
-3.59542e-06
-2.52756e-07
-0.000265573
0.000264843
-7.68545e-08
2.48649e-08
-7.65521e-05
7.65177e-05
-0.000240055
0.00842745
-0.000179429
0.0110441
-0.000139588
0.0132507
-0.000103966
0.0148831
-7.4289e-05
0.0157986
-4.68977e-05
0.015924
-2.06853e-05
0.015254
-3.6242e-06
0.0138684
1.08692e-05
0.0118943
1.54111e-05
0.00949907
1.95331e-05
0.00684949
1.07566e-05
0.00409366
4.5993e-06
0.00134037
7.64705e-05
7.65486e-05
0.000265083
-1.01418e-07
0.00026367
-2.71283e-08
0.000994668
-2.17461e-06
-1.05052e-05
0.00164682
-0.000168718
-0.000107049
0.00548441
-4.27567e-05
0.00161331
-0.000127347
0.000919867
-3.70958e-05
-1.43172e-05
-0.000263487
0.000260414
-5.22325e-07
-6.95694e-08
-7.65734e-05
7.64966e-05
-0.000121416
0.00836944
-0.000106808
0.0110113
-8.98351e-05
0.0132365
-6.96531e-05
0.0148785
-4.86747e-05
0.0158004
-2.49107e-05
0.0159283
-6.76749e-06
0.0152572
8.34554e-06
0.013871
1.81561e-05
0.0118916
2.16398e-05
0.00949696
1.75252e-05
0.00684272
1.52033e-05
0.00408306
6.31761e-06
0.00133405
7.63952e-05
7.6368e-05
0.000258845
-6.06237e-07
0.000250074
-1.73416e-06
0.000874343
-5.95701e-05
-6.36242e-05
0.00156115
-5.4885e-05
-3.17651e-05
0.00540006
-5.30587e-06
0.0015385
-2.01111e-05
0.00081063
-1.86652e-05
-4.49688e-05
-0.000239578
0.000212457
-9.97389e-06
-3.82128e-06
-7.62985e-05
7.57761e-05
-5.67216e-05
0.00831935
-5.91429e-05
0.0109806
-5.32745e-05
0.0132202
-4.12004e-05
0.014871
-2.33482e-05
0.0157988
-7.17034e-06
0.0159287
6.74195e-06
0.0152588
2.06579e-05
0.0138685
2.58106e-05
0.0118874
2.831e-05
0.00948617
2.55844e-05
0.00683234
1.53567e-05
0.00407402
5.77514e-06
0.00132827
7.51699e-05
7.34357e-05
0.000174975
-2.20884e-05
0.000148903
-3.75521e-05
0.000763354
-6.36458e-06
-1.24415e-06
0.00151522
-8.48528e-06
-1.10481e-05
0.00535262
1.77235e-06
0.00151252
-2.59923e-06
0.000744024
9.83532e-08
-8.79081e-07
-0.000103934
8.52689e-05
-6.96145e-05
5.96406e-05
-2.73555e-05
0.00828756
-3.29539e-05
0.0109603
-2.84882e-05
0.0132074
-1.94283e-05
0.0148671
-9.00805e-06
0.0158006
4.36456e-06
0.0159311
1.70524e-05
0.0152624
2.74036e-05
0.0138669
3.15974e-05
0.0118841
3.28237e-05
0.00947894
2.7995e-05
0.0068197
1.91277e-05
0.00406067
6.595e-06
0.00132168
3.75521e-05
7.89043e-05
7.76602e-05
0.000735588
-1.94912e-07
1.45475e-07
0.00150283
-1.36426e-06
-5.00948e-06
0.00532712
3.14886e-06
0.0015045
1.04131e-07
0.000732927
1.46045e-07
-8.42098e-08
-7.67811e-05
7.68794e-05
-1.13421e-05
0.00826595
-1.39026e-05
0.0109457
-1.22425e-05
0.0132003
-4.08917e-06
0.0148622
6.7072e-06
0.0157983
1.8312e-05
0.0159298
2.92829e-05
0.0152605
3.54336e-05
0.013863
3.98375e-05
0.0118771
4.12596e-05
0.00946567
3.18562e-05
0.00680697
2.15192e-05
0.00404574
8.51444e-06
0.00131316
7.66845e-05
7.683e-05
0.000731455
-1.84521e-08
1.25671e-07
0.00149962
-1.32198e-07
-2.81369e-06
0.0053157
2.89774e-06
0.00150235
4.27373e-07
0.000731494
9.56714e-08
-3.0362e-08
-7.67458e-05
7.68918e-05
-3.37912e-06
0.00825543
-3.26571e-06
0.0109367
9.86939e-07
0.0131952
8.66707e-06
0.0148602
1.9228e-05
0.0157974
2.84624e-05
0.0159306
3.8531e-05
0.0152574
4.40975e-05
0.0138588
4.85214e-05
0.0118699
4.35845e-05
0.00945394
3.72781e-05
0.00679121
2.15843e-05
0.00403267
8.06869e-06
0.0013051
7.68734e-05
7.69991e-05
0.000731302
-3.04836e-08
9.02677e-08
0.00149942
1.11806e-07
-1.19659e-06
0.00531079
2.72474e-06
0.00150179
5.25906e-07
0.000731686
6.37827e-08
-1.97054e-08
-7.69687e-05
7.70644e-05
1.84778e-06
0.00825031
3.80739e-06
0.0109339
9.44168e-06
0.0131944
1.67877e-05
0.0148627
2.67975e-05
0.015799
3.84681e-05
0.0159307
4.5685e-05
0.0152558
5.40653e-05
0.0138532
5.55897e-05
0.0118579
4.96736e-05
0.00944155
4.0815e-05
0.00677198
2.43814e-05
0.00401636
8.97037e-06
0.00129613
7.70339e-05
7.71242e-05
0.000731719
-4.29688e-09
8.26833e-08
0.00150027
3.28165e-07
-2.66035e-07
0.00530983
3.06975e-06
0.00150241
5.84372e-07
0.00073222
5.27764e-08
-2.77955e-08
-7.71045e-05
7.71683e-05
4.29543e-06
0.00824983
9.08552e-06
0.0109343
1.69152e-05
0.0131943
2.62739e-05
0.0148632
3.61936e-05
0.0158013
4.69765e-05
0.0159294
5.62983e-05
0.0152536
6.08558e-05
0.013848
5.76887e-05
0.0118498
5.50868e-05
0.00942728
4.25044e-05
0.00675386
2.99029e-05
0.00399543
9.37501e-06
0.00128675
7.7164e-05
7.72467e-05
0.00073247
2.82768e-08
4.94964e-08
0.00150172
4.24986e-07
-1.0393e-07
0.00531127
2.96224e-06
0.00150419
5.97767e-07
0.000732944
3.30987e-08
7.76272e-08
-7.72189e-05
7.72717e-05
7.49878e-06
0.00825141
1.43798e-05
0.0109368
2.25303e-05
0.013198
3.38885e-05
0.0148655
4.61177e-05
0.0158022
5.55328e-05
0.0159301
6.36489e-05
0.0152508
6.92861e-05
0.0138364
7.20749e-05
0.0118329
6.28188e-05
0.00940696
5.28545e-05
0.00673091
3.05376e-05
0.00397426
9.95189e-06
0.0012768
7.72999e-05
7.73494e-05
0.000733283
3.13031e-08
5.5082e-08
0.00150365
4.37364e-07
8.16186e-07
0.00531545
2.5069e-06
0.00150599
6.2478e-07
0.000733861
2.04405e-08
-9.83046e-10
-7.74271e-05
7.74602e-05
8.99179e-06
0.0082568
1.70637e-05
0.0109423
2.74602e-05
0.0132044
4.08494e-05
0.0148708
5.22066e-05
0.0158055
6.49245e-05
0.0159289
7.52836e-05
0.0152448
7.91975e-05
0.0138292
8.1556e-05
0.0118141
7.24269e-05
0.00938739
5.44289e-05
0.00670701
3.43145e-05
0.0039499
1.34291e-05
0.00126337
7.74915e-05
7.75465e-05
0.000734248
7.27187e-09
4.2944e-08
0.00150619
6.15666e-07
1.09602e-06
0.00532076
2.57741e-06
0.00150802
6.7254e-07
0.000734819
2.44142e-08
2.92797e-08
-7.75456e-05
7.7566e-05
1.04227e-05
0.00826344
2.10208e-05
0.0109487
3.35224e-05
0.0132118
4.67211e-05
0.0148763
6.09877e-05
0.0158094
7.44752e-05
0.0159297
8.24904e-05
0.0152415
8.75465e-05
0.0138232
8.47039e-05
0.0118018
8.01383e-05
0.00936168
6.13637e-05
0.00667997
3.77483e-05
0.00392558
2.76791e-05
0.00123569
7.75733e-05
7.76162e-05
0.000735344
3.33554e-08
5.77295e-08
0.00150845
6.61457e-07
1.25857e-06
0.0053276
2.32404e-06
0.00151009
9.3957e-07
0.000735983
2.79192e-08
5.06635e-09
-7.76455e-05
7.76699e-05
1.1537e-05
0.00827293
2.4925e-05
0.0109573
4.13383e-05
0.0132172
5.55217e-05
0.0148817
7.18249e-05
0.0158121
8.23752e-05
0.0159298
9.35095e-05
0.0152355
9.78335e-05
0.0138101
9.62269e-05
0.0117858
8.59919e-05
0.00933705
6.8003e-05
0.00664971
5.82446e-05
0.00389502
5.46365e-05
7.77032e-05
7.7761e-05
0.000736551
3.47786e-08
5.90569e-08
0.0015106
7.54474e-07
1.13529e-06
0.0053364
1.61024e-06
0.00151237
5.50002e-07
0.000737379
1.05718e-07
5.9522e-09
-7.7766e-05
7.7794e-05
1.30474e-05
0.0082848
2.7982e-05
0.0109707
4.50591e-05
0.0132276
6.32918e-05
0.0148903
7.91555e-05
0.0158153
9.39813e-05
0.0159293
0.000103014
0.0152304
0.000106563
0.0137998
0.000103941
0.0117678
9.13947e-05
0.00931366
8.77225e-05
0.00662023
9.95728e-05
7.78287e-05
7.78878e-05
0.00073803
7.18638e-08
3.15363e-08
0.0015132
3.01065e-07
7.60382e-07
0.00534754
1.13849e-06
0.00151502
-2.05552e-07
0.000738522
3.10553e-08
2.65932e-08
-7.78937e-05
7.79994e-05
1.71703e-05
0.00829562
3.38603e-05
0.0109819
5.11959e-05
0.0132397
6.95283e-05
0.0148999
8.68888e-05
0.0158224
0.000102855
0.0159295
0.000112484
0.0152244
0.00011978
0.0137839
0.000116781
0.0117424
0.000114025
0.00928736
0.00012954
7.80713e-05
7.81029e-05
0.000738758
1.58142e-08
4.90454e-08
0.00151712
-1.34241e-06
1.47543e-06
0.00535811
5.12757e-06
0.0015202
-1.93849e-06
0.000738604
-1.00219e-09
-5.00942e-08
-7.81294e-05
7.81605e-05
2.07981e-05
0.00830868
3.69546e-05
0.0109961
5.79714e-05
0.0132513
7.85061e-05
0.0149083
9.82517e-05
0.015827
0.000110945
0.015931
0.000123036
0.0152212
0.000128311
0.0137724
0.000133872
0.0117226
0.000151117
7.81763e-05
7.82254e-05
0.000737216
2.31058e-08
2.2136e-08
0.0015182
5.20818e-06
-1.73646e-06
5.3168e-06
0.00536837
5.21905e-06
0.00152251
-4.05565e-07
1.2292e-06
0.000436069
-2.2093e-07
0.000299435
-4.64714e-09
-7.81753e-05
7.81743e-05
2.23527e-05
0.00832328
4.23516e-05
0.0110117
6.31555e-05
0.0132666
8.67815e-05
0.0149197
0.00010461
0.0158333
0.000121391
0.0159327
0.000130261
0.0152192
0.000143121
0.0137632
0.000159786
7.81974e-05
7.82195e-05
0.000457011
-1.57339e-05
0.00046209
-6.81602e-06
0.00152477
1.23876e-06
1.82066e-06
4.60642e-06
0.00538164
4.47854e-06
0.00152724
1.2382e-06
1.50566e-06
0.000464756
-3.07097e-06
0.000466911
-9.26205e-07
-7.82149e-05
7.79939e-05
0.000280859
2.8423e-06
2.42448e-05
0.00834139
4.66444e-05
0.0110282
7.13436e-05
0.0132821
9.45701e-05
0.0149298
0.000113656
0.0158411
0.000130011
0.0159329
0.000146192
0.0152162
0.000164509
0.000274931
-8.88924e-07
0.000467847
3.03055e-07
0.000469142
5.25383e-07
0.00152954
1.01834e-06
1.28383e-06
4.83679e-06
0.00539652
4.52682e-06
0.00153218
7.65684e-07
1.0757e-06
0.000469738
6.42263e-07
0.000470431
8.12983e-07
0.000272908
-1.04768e-06
0.000272498
-5.15692e-07
8.08362e-05
2.76532e-05
0.00836038
5.13924e-05
0.0110482
7.85705e-05
0.0132981
0.000100798
0.0149426
0.000120548
0.0158505
0.000138793
0.0159403
0.000157913
7.99473e-05
0.000272801
-5.34499e-10
0.000273222
1.04716e-07
0.000470853
5.96361e-07
0.000471718
4.18702e-07
0.00153524
7.78044e-07
9.9984e-07
5.20034e-06
0.00541402
4.9566e-06
0.00153789
1.05572e-06
8.19845e-07
0.000472072
4.1179e-07
0.000472581
5.66785e-07
0.000273703
1.61037e-07
0.00027437
1.46236e-07
7.88996e-05
7.83839e-05
3.04804e-05
0.00838129
5.78988e-05
0.0110689
8.48421e-05
0.013314
0.000106047
0.0149571
0.000127161
0.0158622
0.000141183
7.83834e-05
7.84881e-05
0.000274781
1.8482e-07
0.000275066
1.34327e-07
0.000472943
4.15858e-07
0.000473481
4.6176e-07
0.00154125
1.04303e-06
8.04158e-07
5.89009e-06
0.00543324
5.36947e-06
0.00154429
1.11886e-06
7.92586e-07
0.000474161
3.75928e-07
0.000474609
3.71554e-07
0.00027538
9.77119e-08
0.000275848
9.90147e-08
7.86492e-05
7.87954e-05
3.50079e-05
0.00840418
6.45848e-05
0.0110891
9.01298e-05
0.0133299
0.000110725
0.0149736
0.000117459
7.89802e-05
7.91145e-05
0.00027617
9.38511e-08
0.000276505
1.26653e-07
0.000475072
5.79813e-07
0.000475494
3.81878e-07
0.00154805
1.23027e-06
8.98279e-07
6.63339e-06
0.00545542
6.19326e-06
0.00155132
1.21769e-06
8.83115e-07
0.00047628
3.32876e-07
0.000476671
4.02197e-07
0.000276824
5.63047e-08
0.000277104
9.21603e-08
7.92123e-05
7.93113e-05
4.05578e-05
0.00842821
7.14027e-05
0.0111078
9.09698e-05
0.0133497
9.13733e-05
7.94051e-05
7.95318e-05
0.000277559
1.24857e-07
0.000277848
9.27356e-08
0.00047728
6.21351e-07
0.000477764
4.14284e-07
0.00155531
1.36423e-06
1.28428e-06
8.03006e-06
0.00548085
7.09499e-06
0.00155909
1.12617e-06
1.28585e-06
0.000478611
3.70833e-07
0.000478881
6.13101e-07
0.000278084
9.66151e-08
0.000278386
1.00592e-07
7.95881e-05
7.96802e-05
4.92721e-05
0.00845034
7.24821e-05
0.0111263
6.4721e-05
7.98051e-05
7.98978e-05
0.000278912
9.56463e-08
0.000279118
2.07328e-07
0.000479729
5.15395e-07
0.00048054
4.74054e-07
0.00156434
1.3067e-06
1.46831e-06
1.04791e-05
0.00550942
1.0228e-05
0.00156852
1.42109e-06
1.49182e-06
0.000481177
4.88797e-07
0.000481781
6.81424e-07
0.000279407
8.21881e-08
0.000279909
1.11471e-07
7.99944e-05
8.0095e-05
5.3966e-05
0.00846885
4.20573e-05
8.01907e-05
8.0398e-05
0.00028028
1.43695e-07
0.000280638
1.16161e-07
0.000482503
5.85308e-07
0.000483411
5.60536e-07
0.00157532
1.72952e-06
1.95661e-06
1.45558e-05
0.00553304
1.57874e-05
0.00158102
2.16539e-06
2.36374e-06
0.000484316
5.15961e-07
0.000484967
8.4034e-07
0.00028101
1.17373e-07
0.000281613
7.86556e-08
8.04802e-05
8.05917e-05
2.80202e-05
8.07354e-05
8.08515e-05
0.000282045
1.52407e-07
0.000282471
1.34566e-07
0.000485977
7.19846e-07
0.00048719
7.43775e-07
0.00158943
2.77001e-06
3.36777e-06
3.11111e-05
1.23089e-05
0.00159643
3.81953e-06
4.96748e-06
0.000488399
9.56341e-07
0.000489445
1.31742e-06
0.000282849
1.37946e-07
0.000283546
1.43329e-07
8.09689e-05
8.10476e-05
8.12e-05
8.13345e-05
0.00028408
1.86425e-07
0.000284648
1.75239e-07
0.000490807
1.40757e-06
0.000492572
1.60359e-06
0.0016087
8.05603e-06
1.07841e-05
1.6107e-05
7.83098e-06
0.000494585
1.80613e-06
0.000496726
2.82616e-06
0.000285387
2.17193e-07
0.000286414
2.91317e-07
8.14725e-05
8.16158e-05
8.18022e-05
8.19774e-05
0.00028747
3.50853e-07
0.000288689
3.84396e-07
0.00049986
4.92191e-06
0.000503147
7.49762e-06
0.000507539
1.17153e-05
1.12554e-05
0.000290012
4.83089e-07
0.00029211
7.29052e-07
8.21946e-05
8.24859e-05
8.28368e-05
8.32212e-05
0.000295553
1.47883e-06
0.000299665
3.38482e-06
0.000303927
7.4538e-06
1.53224e-05
8.37043e-05
8.44333e-05
8.59121e-05
8.92969e-05
9.67507e-05
-7.01874e-06
7.01877e-06
4.22425e-06
-1.12432e-05
-3.13536e-05
1.0708e-05
2.76645e-05
1.01147e-05
-3.72438e-05
1.97978e-06
-1.32229e-05
2.69628e-05
0.000141285
-0.000147425
8.09787e-06
1.95664e-05
6.51577e-06
-4.17799e-05
8.64249e-07
-1.40871e-05
-1.91319e-05
0.000492668
4.95276e-05
-0.000496103
-3.51542e-06
2.13579e-05
0.00013154
-2.80972e-06
-0.000157231
1.60511e-05
-4.37253e-05
3.92732e-07
-1.44798e-05
-9.42738e-06
0.000478459
4.49967e-05
0.000386997
5.86903e-05
-0.000396145
-1.23193e-05
4.15758e-05
-0.000519364
-5.99198e-06
-1.32338e-06
0.00012382
-3.84167e-07
-2.11532e-06
-0.000166608
-8.2713e-07
1.47276e-05
-4.5448e-05
1.86013e-07
-1.46659e-05
-5.49258e-06
0.000451709
3.49091e-05
-2.67304e-06
0.000373764
5.82245e-05
-0.000111733
7.65957e-05
9.38226e-05
5.92494e-05
-0.000413822
3.39816e-05
-0.00054437
-3.4457e-06
-5.53205e-06
-0.000171223
-4.46727e-07
-9.3037e-07
0.000118724
-2.70697e-07
-1.25515e-07
1.43434e-05
-4.60892e-05
2.03805e-07
-1.48699e-05
0.000424221
3.22114e-05
-2.81753e-06