/*--------------------------------*- C++ -*----------------------------------*\
| =========                 |                                                 |
| \\      /  F ield         | OpenFOAM: The Open Source CFD Toolbox           |
|  \\    /   O peration     | Version:  v1912                                 |
|   \\  /    A nd           | Website:  www.openfoam.com                      |
|    \\/     M anipulation  |                                                 |
\*---------------------------------------------------------------------------*/
FoamFile
{
    version     2.0;
    format      ascii;
    class       surfaceScalarField;
    location    "420";
    object      phi;
}
// * * * * * * * * * * * * * * * * * * * * * * * * * * * * * * * * * * * * * //

dimensions      [0 3 -1 0 0 0 0];
oriented        oriented;


internalField   nonuniform List<scalar> 
7351
(
-3.55981e-06
0.00134703
-1.32639e-05
0.00413205
-2.80492e-06
0.00134984
-3.39151e-05
0.00694985
-1.35459e-05
0.00414279
-3.84336e-06
0.00135368
-6.14496e-05
0.00968747
-3.36083e-05
0.00696991
-1.42338e-05
0.00415318
-2.79343e-06
0.00135647
-9.49432e-05
0.0121653
-6.0452e-05
0.00971432
-3.20725e-05
0.00698775
-1.15716e-05
0.00416195
-2.83125e-06
0.00135929
-0.000143475
0.0141811
-9.47873e-05
0.0121996
-5.59671e-05
0.00973821
-3.04166e-05
0.00700659
-1.15189e-05
0.00417064
-2.81682e-06
0.00136211
-0.00018486
0.0155118
-0.000136921
0.0142233
-9.18544e-05
0.0122355
-5.55698e-05
0.00976336
-2.59634e-05
0.00702103
-1.13579e-05
0.00417918
-1.82107e-06
0.00136393
-0.000236651
0.0160071
-0.000186034
0.0155609
-0.000132881
0.0142643
-8.61368e-05
0.012266
-4.58213e-05
0.00978321
-2.27834e-05
0.00703245
-9.36925e-06
0.00418672
-1.76832e-06
0.00136569
-0.000276722
0.0155676
-0.000230356
0.0160514
-0.000177341
0.0156053
-0.000120654
0.0142988
-7.1352e-05
0.0122916
-4.15607e-05
0.00980199
-1.97811e-05
0.00704286
-7.31193e-06
0.00419227
-1.66685e-06
0.00136736
-0.000311046
0.0142455
-0.00027916
0.0156164
-0.000218797
0.0160929
-0.000150754
0.0156354
-9.96523e-05
0.0143271
-6.40607e-05
0.0123141
-3.72613e-05
0.00981947
-1.82709e-05
0.00705382
-6.43775e-06
0.00419704
-1.72137e-06
0.00136908
-0.000335459
0.0121645
-0.000322742
0.0142891
-0.000258809
0.0156564
-0.000186244
0.0161283
-0.000130051
0.0156658
-8.27652e-05
0.0143458
-5.2319e-05
0.0123291
-2.77873e-05
0.00982899
-1.5308e-05
0.00706269
-6.94717e-06
0.00420226
-1.73928e-06
0.00137082
-0.00034332
0.00952528
-0.000351985
0.0121938
-0.00027718
0.0143074
-0.000206207
0.0156764
-0.000148273
0.0161466
-0.000104238
0.0156873
-6.93032e-05
0.0143628
-4.263e-05
0.012344
-2.73154e-05
0.00984099
-1.19542e-05
0.0070677
-4.34693e-06
0.00420487
-1.34136e-06
0.00137216
0.00654706
-0.000193714
-0.000114257
-0.000372532
0.00954583
-0.000286803
0.0122034
-0.000211579
0.0143128
-0.000159295
0.0156874
-0.000112736
0.0161551
-7.88774e-05
0.0156969
-5.12341e-05
0.0143714
-3.56541e-05
0.0123523
-1.81479e-05
0.00984719
-1.20192e-05
0.00707537
-6.06584e-06
0.00420959
-7.17182e-07
0.00137287
0.00655251
-0.000177143
-0.000200843
-0.00215243
0.00211072
-0.000151999
-8.41591e-05
-0.000259701
0.00951872
-0.000190792
0.0121826
-0.000150852
0.0143044
-0.000110122
0.0156848
-8.71965e-05
0.0161634
-6.48744e-05
0.0157105
-4.52904e-05
0.014381
-3.07586e-05
0.0123649
-2.27627e-05
0.00985793
-1.15381e-05
0.00708084
-4.83458e-06
0.00421371
-1.45096e-06
0.00137432
0.00648262
-5.96798e-05
-0.000130128
-0.00209308
0.00206931
-0.000153371
-0.000183204
-0.00137928
0.0013214
-6.22927e-05
-3.18237e-05
-2.48911e-05
-0.000141116
0.00946905
-0.00011915
0.0121509
-9.5178e-05
0.0142894
-7.9111e-05
0.0156767
-6.23605e-05
0.0161609
-4.5847e-05
0.0157111
-3.94732e-05
0.0143898
-2.56366e-05
0.0123678
-1.72538e-05
0.00986364
-1.23986e-05
0.0070884
-5.61156e-06
0.00421787
-2.2288e-06
0.00137655
0.00639804
-1.08023e-05
-4.57359e-05
-0.002021
0.00199764
-3.63263e-05
-8.1817e-05
-0.00130372
0.0012595
-3.89363e-05
-7.02177e-05
-8.31195e-05
-8.24108e-05
-0.000417584
0.000390542
-3.52507e-05
-0.000431475
-1.79329e-05
-9.68755e-06
-6.78093e-05
0.0094177
-6.50561e-05
0.0121208
-6.19834e-05
0.0142723
-5.07566e-05
0.0156651
-4.334e-05
0.0161584
-3.77206e-05
0.0157093
-3.18895e-05
0.014396
-2.50866e-05
0.0123756
-2.17206e-05
0.00987296
-1.34965e-05
0.00709629
-7.66899e-06
0.00422331
-1.21002e-06
0.00137776
0.0063472
-4.62562e-07
-1.65064e-05
-0.0019691
0.00196448
-6.1911e-06
-1.71894e-05
-0.00120666
0.00117634
-7.98039e-07
-5.20345e-06
-2.19447e-05
-7.02961e-06
-0.000320945
0.000301983
-1.99741e-05
-0.000344203
-4.69599e-05
0.000365353
-5.79313e-05
-6.12601e-05
-0.000238832
0.000213341
-9.7602e-06
-0.000252865
-3.90074e-06
-1.63079e-06
-3.50038e-05
0.00938765
-3.85721e-05
0.0120974
-3.70498e-05
0.0142586
-3.79748e-05
0.0156598
-3.19925e-05
0.0161526
-3.35312e-05
0.015711
-2.63758e-05
0.0143973
-2.87041e-05
0.0123826
-2.10903e-05
0.00988056
-1.55123e-05
0.00710413
-7.43592e-06
0.00422953
-2.88569e-06
0.00138065
0.00631503
4.02526e-06
-6.86782e-06
-0.00195143
0.001952
-1.0344e-06
-3.45347e-06
-0.00116061
0.00115441
1.04973e-06
-1.04768e-06
-1.79081e-06
3.30274e-07
-0.000277103
0.000276708
-4.03311e-07
-0.000281806
-5.00429e-07
0.000286724
-6.68577e-06
-2.11227e-06
-0.000108167
8.81926e-05
-0.000155127
0.000176084
-2.0674e-05
-4.03026e-05
-7.07369e-05
6.09766e-05
-7.46377e-05
-1.46096e-05
0.00936369
-2.3531e-05
0.0120839
-2.47539e-05
0.0142454
-2.24516e-05
0.0156502
-2.92361e-05
0.0161483
-2.58863e-05
0.0157105
-3.69585e-05
0.0144056
-3.37135e-05
0.0123952
-2.71959e-05
0.00989224
-1.85857e-05
0.00711528
-1.03508e-05
0.004237
-1.95937e-06
0.0013826
0.00630096
3.67606e-06
-4.21619e-06
-0.00194584
0.00194898
8.85432e-07
-7.03505e-07
-0.00115098
0.00114966
2.59694e-07
2.47794e-08
-5.00727e-07
4.81752e-07
-0.000274228
0.000275074
2.03297e-07
-0.000275421
1.45838e-07
0.000274958
-4.09966e-08
-1.32981e-07
-7.8894e-05
7.84907e-05
-7.93945e-05
8.15068e-05
4.03026e-05
-6.18739e-06
0.00934635
-6.75571e-06
0.0120659
-1.25188e-05
0.0142354
-2.00555e-05
0.015641
-2.53868e-05
0.0161478
-3.70125e-05
0.0157105
-3.42239e-05
0.0144061
-3.68169e-05
0.0124048
-3.0916e-05
0.00990457
-2.02876e-05
0.00712521
-1.07661e-05
0.0042458
-2.66178e-06
0.00138526
0.00629379
1.89967e-06
-9.10484e-07
-0.00194483
0.00194791
6.03133e-07
-7.15452e-08
-0.00114864
0.00114942
-1.59556e-07
2.70886e-07
-8.81519e-08
4.01689e-07
-0.000274978
0.000275172
6.5635e-08
-0.00027509
1.36922e-07
0.000274799
-2.25279e-07
1.89838e-07
-7.84625e-05
7.86658e-05
-7.83167e-05
7.84497e-05
-1.62616e-07
0.00933975
-6.40193e-06
0.0120597
-1.08391e-05
0.0142262
-1.48007e-05
0.0156305
-2.77675e-05
0.0161386
-4.11236e-05
0.0157174
-5.07839e-05
0.01442
-4.38334e-05
0.0124178
-3.66371e-05
0.00992092
-2.57166e-05
0.00714016
-1.12254e-05
0.00425436
-3.42815e-06
0.00138869
0.00629101
1.99017e-06
6.19487e-07
-0.00194713
0.00194766
1.37047e-06
-1.36608e-07
-0.0011488
0.00114941
1.40871e-07
-1.48003e-07
2.12041e-07
3.33285e-07
-0.000275711
0.000275516
3.45119e-08
-0.000275396
-4.35856e-08
0.000275073
1.1031e-08
7.83027e-08
-7.87672e-05
7.88328e-05
-7.86303e-05
7.84405e-05
-3.33183e-07
0.00933368
4.19339e-07
0.0120485
-6.22995e-06
0.0142177
-2.54008e-05
0.0156281
-3.88383e-05
0.0161363
-4.98795e-05
0.0157165
-5.85841e-05
0.0144348
-5.77531e-05
0.0124389
-4.66349e-05
0.00994184
-2.72067e-05
0.00715614
-1.1283e-05
0.00426222
-2.3673e-06
0.00139105
0.00628829
1.91383e-06
4.80534e-07
-0.00194803
0.00194857
1.45085e-06
2.47443e-07
-0.00114855
0.00114999
2.53634e-07
-3.19627e-07
3.32231e-07
3.91466e-07
-0.000275679
0.000275862
-4.25135e-08
-0.000275987
1.59536e-07
0.000275777
-4.82643e-08
1.23184e-07
-7.88786e-05
7.89131e-05
-7.89221e-05
7.88438e-05
5.51613e-06
0.00932858
6.70538e-07
0.0120416
-1.01194e-05
0.0142024
-2.46895e-05
0.0156139
-4.95135e-05
0.0161359
-6.68177e-05
0.0157248
-7.22664e-05
0.0144493
-6.79077e-05
0.0124602
-4.96247e-05
0.00996425
-2.96595e-05
0.00717452
-1.42991e-05
0.00427415
-3.08087e-06
0.00139413
0.00628929
2.49339e-06
2.01576e-06
-0.00194813
0.00194975
2.9587e-07
9.18725e-07
-0.00115027
0.00115119
1.97058e-07
3.29511e-07
-3.10035e-07
2.73245e-07
-0.000276248
0.000276462
4.01465e-08
-0.000276711
1.42948e-07
0.000276181
1.37911e-08
-1.3849e-07
-7.91475e-05
7.91049e-05
-7.89879e-05
7.88648e-05
2.27857e-06
0.00932698
-2.67003e-06
0.0120341
-1.93976e-05
0.0141971
-4.26797e-05
0.0156071
-6.95597e-05
0.0161387
-9.10281e-05
0.0157435
-9.6072e-05
0.0144775
-7.91655e-05
0.0124897
-5.4468e-05
0.00998906
-3.01239e-05
0.00719034
-1.2248e-05
0.00428331
-3.39802e-06
0.00139753
0.00628919
3.89544e-07
1.98878e-06
-0.00195047
0.00195181
1.15384e-06
1.29707e-06
-0.00115194
0.0011518
2.61084e-07
1.79428e-07
-1.56352e-07
3.24495e-07
-0.000276564
0.000277006
-2.4454e-07
-0.000276395
1.60119e-07
0.000276221
-6.97671e-08
9.96338e-08
-7.91232e-05
7.91633e-05
-7.89802e-05
7.91187e-05
2.1432e-06
0.00932216
-5.90524e-06
0.0120206
-2.30044e-05
0.0141774
-5.86121e-05
0.0155962
-9.05921e-05
0.0161382
-0.000111007
0.0157585
-0.000106565
0.0145049
-8.61532e-05
0.0125214
-5.93688e-05
0.0100183
-3.28178e-05
0.00721091
-1.35611e-05
0.00429348
-2.85819e-06
0.00140039
0.00628741
1.97688e-06
1.95094e-06
-0.00195358
0.00195262
1.35459e-06
2.13319e-07
-0.00115304
0.0011542
-2.8429e-07
2.75527e-07
-2.75222e-07
3.31408e-07
-0.000277113
0.000277345
2.94413e-08
-0.000277028
9.37722e-08
0.000276848
1.02657e-09
1.45091e-07
-7.93532e-05
7.91087e-05
-7.91932e-05
7.90935e-05
-1.8026e-07
0.00931644
-1.3315e-05
0.0120109
-4.54358e-05
0.0141642
-8.76822e-05
0.0155932
-0.000128078
0.0161553
-0.00013801
0.0157899
-0.000128941
0.0145476
-9.53369e-05
0.0125573
-5.90032e-05
0.0100445
-3.19641e-05
0.00722931
-1.14471e-05
0.00430207
-1.94013e-06
0.00140233
0.00628486
4.94781e-07
1.86945e-06
-0.0019537
0.00195527
4.03392e-07
8.68248e-07
-0.00115374
0.00115511
-1.75077e-07
1.59579e-07
3.24894e-07
3.54272e-07
-0.000277455
0.000277435
-2.6395e-07
-0.000277284
1.0381e-07
0.000277061
8.10006e-09
1.08762e-07
-7.93486e-05
7.9378e-05
-7.92548e-05
7.91097e-05
-2.42777e-06
0.00930555
-2.39472e-05
0.0119895
-6.98238e-05
0.0141464
-0.000126211
0.0155914
-0.000162787
0.0161801
-0.000170191
0.0158312
-0.000135707
0.014588
-9.83004e-05
0.0125966
-6.07239e-05
0.0100732
-2.84975e-05
0.00724637
-1.09788e-05
0.00431111
-1.79118e-06
0.00140413
0.00627992
5.68071e-07
1.94752e-06
-0.00195599
0.0019561
3.86849e-07
1.14913e-06
-0.00115545
0.0011559
1.61611e-07
-2.0533e-07
3.44496e-07
1.75397e-07
-0.00027801
0.000277803
3.17732e-08
-0.000277911
6.05793e-08
0.000277732
2.78409e-08
1.7529e-07
-7.95986e-05
7.93346e-05
-7.94948e-05
7.9386e-05
-8.51622e-06
0.00929012
-4.51959e-05
0.0119648
-0.000109408
0.0141296
-0.000170433
0.015599
-0.000205082
0.016215
-0.000182816
0.0158783
-0.000142625
0.0146323
-9.59236e-05
0.0126318
-5.14868e-05
0.0100962
-2.41052e-05
0.00725949
-8.76381e-06
0.00431808
-1.44141e-06
0.00140557
0.00627027
-7.98806e-07
1.92804e-06
-0.00195706
0.00195724
3.89804e-07
9.90271e-07
-0.00115641
0.00115687
2.66007e-07
-3.37459e-07
3.3338e-07
3.06633e-07
-0.00027791
0.000278313
-2.4183e-07
-0.000278202
8.65611e-08
0.000278084
6.34725e-08
5.74795e-08
-7.95983e-05
7.96301e-05
-7.95377e-05
7.93624e-05
-1.77719e-05
0.00926269
-7.66839e-05
0.0119321
-0.000161569
0.0141207
-0.000228607
0.0156225
-0.000230258
0.0162624
-0.000196579
0.0159322
-0.000142152
0.0146786
-8.60256e-05
0.0126664
-4.67611e-05
0.0101189
-2.06539e-05
0.00727138
-5.81551e-06
0.00432246
-3.85475e-07
0.00140596
0.00625298
-2.5101e-06
2.02659e-06
-0.0019579
0.00195699
1.06203e-07
1.26899e-06
-0.00115779
0.00115769
1.55141e-07
3.34826e-07
3.47605e-07
-2.75887e-07
-0.00027836
0.000278651
-2.54115e-08
-0.000278782
8.49519e-08
0.000278588
5.87171e-08
1.12997e-07
-7.98375e-05
7.95957e-05
-7.9751e-05
7.96935e-05
-3.84763e-05
0.00922448
-0.000130421
0.011901
-0.000234469
0.0141266
-0.000275466
0.0156678
-0.000248702
0.0163145
-0.000187806
0.0159779
-0.000126256
0.0147188
-7.3189e-05
0.0126928
-3.87707e-05
0.010137
-1.70633e-05
0.00728263
-3.45522e-06
0.00432553
-2.27393e-07
0.00140618
0.00622085
-8.37197e-06
2.02663e-06
-0.00195869
0.00195599
1.91453e-07
3.25295e-07
-0.00115878
0.0011589
-1.46892e-07
1.31179e-07
3.08128e-07
-1.27165e-07
-0.000279011
0.000279097
6.89778e-08
-0.000278532
-1.43976e-07
0.000278929
6.97631e-08
1.20526e-07
-7.98524e-05
7.9827e-05
-7.97674e-05
7.96544e-05
-7.69445e-05
0.00917101
-0.000208141
0.0118746
-0.000299157
0.0141503
-0.000296139
0.0157152
-0.000234444
0.0163612
-0.000168947
0.0160206
-0.000107315
0.0147529
-6.33035e-05
0.0127173
-3.24542e-05
0.0101524
-9.9032e-06
0.00728908
-2.64868e-06
0.00432795
7.80093e-07
0.0014054
0.0061636
-1.88517e-05
-8.40139e-07
-0.00195755
0.00195087
-1.69471e-06
4.67174e-07
-0.00115874
0.00115889
-2.89961e-07
3.31028e-07
3.13308e-07
1.64115e-07
-0.000279238
0.000279083
8.07701e-09
-0.000279223
1.16681e-07
0.000279396
9.53652e-09
4.51861e-08
-7.98732e-05
7.99422e-05
-8.00173e-05
7.98967e-05
-0.000146543
0.00910941
-0.000309822
0.0118853
-0.000341508
0.0141956
-0.000284364
0.0157651
-0.000209196
0.0164014
-0.000141221
0.0160545
-8.72396e-05
0.0147769
-4.79685e-05
0.0127329
-1.98986e-05
0.0101624
-5.99075e-06
0.00729242
1.33806e-06
0.00432739
1.16898e-06
0.00140424
0.00607399
-4.628e-05
-1.06593e-05
-0.0019516
0.00193691
-4.15671e-06
-1.57224e-06
-0.00115914
0.00115741
-1.055e-07
1.44153e-07
3.18951e-07
-9.61807e-08
-0.000279905
0.000279555
5.98778e-08
-0.000279442
-1.32197e-07
0.000279383
1.25219e-08
1.05192e-07
-8.01136e-05
8.01216e-05
-7.99969e-05
7.99517e-05
-0.000277818
0.0090774
-0.000369766
0.0119136
-0.000318367
0.0142296
-0.000237697
0.0157936
-0.000169038
0.0164293
-0.000107452
0.0160747
-6.40719e-05
0.014793
-3.41193e-05
0.0127471
-1.1503e-05
0.0101679
-1.20079e-06
0.00729496
2.93347e-06
0.00432563
1.51771e-06
0.00140272
0.00597239
-0.000122059
-5.41541e-05
-0.00193354
0.00190351
-1.62442e-05
-7.29284e-06
-0.00115577
0.00115153
-2.34074e-07
3.12902e-07
3.09701e-07
-2.46983e-07
-0.000279732
0.00027982
-1.92868e-07
-0.000279707
1.19265e-07
0.000279857
1.68747e-08
5.37087e-08
-8.01071e-05
8.01669e-05
-8.02393e-05
8.01341e-05
-0.000386342
0.00909398
-0.000337104
0.0119323
-0.00025262
0.0142446
-0.000183107
0.0158077
-0.000123422
0.0164452
-8.01042e-05
0.0160907
-4.26509e-05
0.0148015
-1.74231e-05
0.012753
-4.94812e-06
0.0101717
2.89985e-06
0.007295
3.46967e-06
0.00432368
2.82082e-06
0.0013999
0.0059671
-0.000209805
-0.000171243
-0.00187915
0.00182066
-6.35682e-05
-2.97964e-05
-0.00114444
0.00112963
-1.55681e-06
1.1696e-07
3.69361e-07
-5.65995e-07
-0.000280011
0.000279707
7.0022e-08
-0.000279763
6.5011e-08
0.000280115
1.4286e-08
1.05129e-07
-8.03568e-05
8.01639e-05
-8.02375e-05
8.01838e-05
-0.00033403
0.00909091
-0.000238914
0.0119186
-0.000174909
0.0142364
-0.000128838
0.0158131
-8.85395e-05
0.0164537
-5.58473e-05
0.0161039
-2.9715e-05
0.0148138
-1.08114e-05
0.0127589
3.67685e-06
0.0101709
6.42387e-06
0.00729204
7.07769e-06
0.00431942
3.38e-06
0.00139652
0.0059115
-9.79564e-05
-0.000180478
-0.00178332
0.00175137
-0.000177861
-0.000133901
-0.00110392
0.00105321
-1.08976e-05
-1.96795e-06
-4.34028e-07
-3.64515e-06
-0.000279517
0.000278207
-2.47089e-07
-0.00027957
1.70382e-07
0.000280024
5.28032e-08
-1.12468e-07
-8.03483e-05
8.04184e-05
-8.02833e-05
8.01782e-05
-0.000182854
0.00903485
-0.000146768
0.0118904
-0.000116419
0.0142239
-8.39405e-05
0.0158085
-5.73152e-05
0.0164551
-3.17131e-05
0.0161059
-1.39152e-05
0.0148169
-3.11759e-07
0.0127629
7.82054e-06
0.0101695
1.28919e-05
0.00728623
9.99664e-06
0.0043128
3.79577e-06
0.00139272
0.00580872
-1.78533e-05
-6.22151e-05
-0.00170672
0.00166653
-5.77656e-05
-0.000135824
-0.000971985
0.000924546
-6.65101e-05
-6.3912e-05
-1.45741e-05
-3.8096e-05
-0.000273181
0.000264096
-1.81188e-06
-0.000274559
-5.90753e-07
0.000277982
-2.09289e-07
-2.21311e-07
-8.05292e-05
8.02821e-05
-8.03587e-05
8.04712e-05
-8.5256e-05
0.00897334
-8.11759e-05
0.0118552
-6.90353e-05
0.014209
-5.21115e-05
0.0158033
-3.35433e-05
0.016457
-1.52232e-05
0.0161072
-5.51529e-07
0.0148171
1.19614e-05
0.0127587
1.58106e-05
0.0101666
1.44794e-05
0.00728175
9.51198e-06
0.00430709
4.81644e-06
0.00138791
0.00574166
1.50608e-07
-1.83436e-05
-0.00162735
0.00161668
-7.18198e-06
-2.30328e-05
-0.000857482
0.000807815
-1.35273e-06
-6.74568e-06
-4.90385e-05
-1.97213e-05
-0.000184321
0.000158453
-4.06415e-05
-0.000225703
-2.25303e-05
0.00025359
-4.06852e-06
-1.02087e-05
-7.92607e-05
7.74488e-05
-7.98515e-05
8.00728e-05
-4.03604e-05
0.00893252
-4.2832e-05
0.011829
-3.81117e-05
0.014195
-2.89807e-05
0.0157987
-1.58108e-05
0.0164575
-2.88662e-06
0.0161096
1.29456e-05
0.0148162
1.58498e-05
0.0127587
2.06599e-05
0.0101604
1.75341e-05
0.00727373
1.35916e-05
0.00429831
5.06572e-06
0.00138284
0.00570526
3.29564e-06
-7.26292e-06
-0.00160199
0.0016025
-3.58423e-07
-3.65514e-06
-0.000785488
0.000778298
2.83341e-07
-2.75121e-07
-7.31484e-07
2.6715e-08
-8.29473e-05
8.15946e-05
-8.9693e-05
0.000109414
-4.06414e-05
-6.31717e-05
7.33803e-05
-1.79755e-05
0.00890767
-2.16969e-05
0.0118126
-1.83792e-05
0.0141844
-7.35762e-06
0.0157903
5.04137e-07
0.0164542
1.27444e-05
0.0161098
1.58762e-05
0.0148161
2.52964e-05
0.012754
2.48839e-05
0.010153
2.31809e-05
0.00726414
1.56642e-05
0.00428772
5.87712e-06
0.00137697
0.00568777
3.88632e-06
-4.36548e-06
-0.00159625
0.00159842
1.12219e-06
-1.00905e-06
-0.000774566
0.000774149
1.15472e-07
-5.62808e-08
-4.38773e-08
1.2016e-07
-8.06148e-05
8.08982e-05
-8.08899e-05
8.08632e-05
-4.52435e-06
0.0088905
-8.26416e-06
0.0118025
-3.48692e-06
0.0141806
3.47985e-06
0.0157873
1.41889e-05
0.0164527
1.99299e-05
0.0161057
3.18001e-05
0.0148096
3.25746e-05
0.0127463
3.24603e-05
0.0101438
2.77525e-05
0.00725205
1.74063e-05
0.00427619
6.8039e-06
0.00137016
0.00568188
3.47074e-06
-2.10338e-06
-0.00159396
0.00159777
7.93267e-08
9.03713e-08
-0.000772878
0.000773923
1.91913e-07
-1.1388e-07
1.00628e-07
1.62166e-07
-8.09183e-05
8.10339e-05
-8.09745e-05
8.08544e-05
-2.35845e-07
0.00888247
2.24191e-06
0.0117967
5.51365e-06
0.0141785
1.18484e-05
0.0157896
2.39772e-05
0.0164487
3.06643e-05
0.0161068
3.19393e-05
0.0148103
3.61837e-05
0.0127426
3.49029e-05
0.0101366
3.11373e-05
0.00723832
2.06874e-05
0.0042623
7.79185e-06
0.00136237
0.00567986
2.75466e-06
-9.75152e-07
-0.00159531
0.00159791
8.73333e-07
3.56349e-07
-0.000773852
0.000774045
3.29366e-08
-1.46136e-07
8.65206e-08
7.45683e-08
-8.11829e-05
8.1375e-05
-8.12967e-05
8.11346e-05
2.71487e-06
0.008882
8.90073e-06
0.0117934
1.57567e-05
0.0141746
2.31865e-05
0.0157904
2.70889e-05
0.0164522
4.05469e-05
0.0160982
4.62819e-05
0.0148002
4.83968e-05
0.0127291
4.27467e-05
0.010125
3.59346e-05
0.00722307
2.31298e-05
0.00424696
8.76098e-06
0.00135361
0.00567973
2.79128e-06
5.28019e-08
-0.00159711
0.00159897
8.97927e-07
-1.7328e-07
-0.000774285
0.000775232
4.72871e-08
-1.20097e-07
5.76929e-08
5.95415e-08
-8.139e-05
8.14231e-05
-8.15361e-05
8.14615e-05
7.17778e-06
0.00888372
1.39646e-05
0.0117951
1.83251e-05
0.0141795
3.22164e-05
0.0157853
4.21712e-05
0.0164506
4.70222e-05
0.0160975
4.95921e-05
0.014799
5.36331e-05
0.0127182
5.06791e-05
0.0101103
4.13392e-05
0.00720486
2.69235e-05
0.0042288
9.63951e-06
0.00134397
0.00568388
2.88712e-06
1.45629e-07
-0.00159836
0.00160055
6.07842e-07
6.57509e-07
-0.000774926
0.000775796
-5.79349e-08
8.53972e-08
6.30028e-08
6.96458e-08
-8.14204e-05
8.14678e-05
-8.15404e-05
8.14808e-05
8.48654e-06
0.0088892
1.5414e-05
0.0117981
2.78929e-05
0.0141838
3.53976e-05
0.0157921
4.4167e-05
0.0164535
5.44302e-05
0.0160927
6.17244e-05
0.0147909
6.06948e-05
0.0127082
5.8272e-05
0.0100933
4.52086e-05
0.00718658
3.00085e-05
0.00420843
1.09766e-05
0.00133299
0.00568797
3.06103e-06
1.33638e-06
-0.0016
0.00160224
6.43973e-07
6.92492e-07
-0.000776313
0.00077681
5.18377e-08
5.91611e-08
6.54862e-08
7.55938e-08
-8.16858e-05
8.16279e-05
-8.16004e-05
8.15308e-05
1.04596e-05
0.00889415
1.98738e-05
0.0118061
2.90459e-05
0.0141902
4.19617e-05
0.0157943
5.52591e-05
0.0164526
6.28114e-05
0.0160916
7.1027e-05
0.0147805
7.01698e-05
0.0126963
6.58765e-05
0.0100727
5.39826e-05
0.0071626
3.25077e-05
0.0041869
1.18823e-05
0.00132111
0.00569498
3.06179e-06
3.86571e-07
-0.00160285
0.00160511
7.99377e-07
7.28819e-07
-0.000777567
0.000778098
5.61733e-08
5.70848e-08
-1.17991e-07
5.33488e-08
-8.18283e-05
8.18801e-05
-8.1769e-05
8.16935e-05
1.17299e-05
0.0089023
2.18755e-05
0.0118132
3.53343e-05
0.0141968
4.67748e-05
0.0158028
6.17124e-05
0.0164537
7.23067e-05
0.0160903
7.77891e-05
0.0147729
8.42587e-05
0.0126779
7.5465e-05
0.0100512
6.04914e-05
0.00713462
3.78196e-05
0.00416096
1.21752e-05
0.00130894
0.00570212
3.11362e-06
1.47702e-06
-0.00160474
0.00160705
7.43681e-07
7.63562e-07
-0.000778631
0.00077942
9.37676e-08
-8.282e-08
6.77112e-08
1.27851e-07
-8.18726e-05
8.19288e-05
-8.18155e-05
8.17621e-05
1.17852e-05
0.00891238
2.4475e-05
0.0118241
4.14542e-05
0.0142021
5.88322e-05
0.0158057
7.20772e-05
0.016454
8.5706e-05
0.0160824
9.34897e-05
0.0147637
9.28642e-05
0.0126605
8.60694e-05
0.0100256
6.63e-05
0.00710614
4.02871e-05
0.00413285
1.05934e-05
0.00129834
0.00571082
2.75506e-06
3.2478e-07
-0.00160776
0.00161011
7.5674e-07
7.7511e-07
-0.000780037
0.000780846
4.93171e-08
-1.13817e-07
7.2069e-08
7.40076e-08
-8.20416e-05
8.21355e-05
-8.21244e-05
8.19965e-05
1.31331e-05
0.00892373
2.84848e-05
0.0118371
4.60514e-05
0.0142149
6.52186e-05
0.0158125
8.08633e-05
0.0164588
9.39606e-05
0.0160819
0.000105582
0.014751
0.000101717
0.0126449
9.52121e-05
0.00999668
7.54681e-05
0.00707096
4.30528e-05
0.00410039
1.31797e-05
0.00128516
0.00572193
1.15343e-06
8.70402e-07
-0.00160977
0.00161206
4.63394e-07
6.72755e-07
-0.000781482
0.000782294
-1.11954e-07
5.69151e-08
6.77255e-08
7.09292e-08
-8.21677e-05
8.22171e-05
-8.22815e-05
8.22075e-05
1.62764e-05
0.00893593
3.29537e-05
0.0118502
5.53263e-05
0.0142248
7.16144e-05
0.0158218
9.24614e-05
0.0164603
0.000107895
0.0160796
0.000117118
0.0147356
0.000120063
0.01262
0.000106853
0.0099653
8.1442e-05
0.00703257
4.35981e-05
0.00406998
3.1674e-05
0.00125349
0.00573352
2.61642e-06
2.06729e-06
-0.00161306
0.00161601
-1.79994e-06
-1.32029e-07
-0.000782824
0.000783088
1.12946e-07
8.61403e-08
6.31081e-08
8.01308e-08
-8.24128e-05
8.23009e-05
-8.23558e-05
8.22849e-05
1.99893e-05
0.0089489
3.97092e-05
0.0118658
5.89536e-05
0.0142374
8.4113e-05
0.0158301
0.000105765
0.0164624
0.000123718
0.016073
0.000132823
0.0147228
0.000128771
0.0125981
0.000118847
0.00992789
8.67361e-05
0.00698943
7.42219e-05
0.00402743
7.38685e-05
0.00574386
5.48034e-06
4.17313e-06
-0.00162158
0.00161915
-1.47139e-06
6.51769e-06
-3.50118e-06
-0.00078305
0.000781247
1.12801e-08
-8.37366e-09
3.35821e-08
-1.27657e-07
-8.25303e-05
8.26433e-05
-8.24442e-05
8.2364e-05
2.4422e-05
0.00896418
4.17489e-05
0.011883
6.68583e-05
0.0142547
9.08297e-05
0.015845
0.000115599
0.0164706
0.000134917
0.0160709
0.000146805
0.0147048
0.00014796
0.012569
0.000127253
0.00988738
0.00011485
0.0069488
0.000135765
0.00575757
5.48266e-06
5.23172e-06
-0.00162187
0.00162362
2.3268e-06
1.40638e-06
2.00462e-06
-5.54964e-07
-0.000486245
0.000491636
-6.86251e-06
-0.000461009
-1.87185e-05
0.000316993
-9.84273e-09
-2.46969e-07
-8.25409e-05
8.25522e-05
-8.25493e-05
8.26769e-05
2.40908e-05
0.00898185
4.88051e-05
0.011901
7.49885e-05
0.0142705
0.000107822
0.0158528
0.000135461
0.01647
0.000154898
0.0160628
0.000165236
0.0146875
0.000162105
0.0125342
0.000155041
0.00984719
0.000179136
0.00577296
4.30898e-06
4.38254e-06
-0.00162574
0.00162903
1.41638e-06
7.74407e-07
1.85601e-06
1.25626e-06
-0.000497012
0.000498125
1.21418e-06
-0.000496167
5.61788e-07
-0.00049346
-7.03001e-07
-2.37829e-06
-0.000295206
0.000289707
-1.36422e-06
3.06868e-06
8.25423e-05
8.22952e-05
2.74266e-05
0.00900322
5.34333e-05
0.0119226
8.57026e-05
0.0142927
0.000117169
0.0158711
0.000145828
0.0164791
0.000171544
0.0160565
0.000177862
0.0146717
0.000187133
0.0125021
0.00021078
0.00579003
4.76226e-06
5.5977e-06
-0.00163146
0.00163407
1.04583e-06
6.48738e-07
1.34226e-06
6.15565e-07
-0.000500326
0.000500945
7.97706e-07
-0.00049978
2.27626e-07
-0.000498723
7.99927e-07
6.57553e-07
-0.000288564
0.000289684
9.4169e-08
-0.000288058
5.55726e-08
-0.000288392
-3.69329e-07
-1.06256e-06
-8.53639e-05
8.39996e-05
3.02026e-05
0.00902645
6.17664e-05
0.0119465
9.72364e-05
0.0143126
0.000134715
0.0158822
0.000165831
0.0164848
0.000183195
0.0160512
0.000208057
0.0146508
0.000229144
0.00580892
5.2293e-06
6.08407e-06
-0.00163777
0.00164064
1.15897e-06
7.35489e-07
1.14625e-06
7.49926e-07
-0.000502271
0.00050278
5.37253e-07
-0.000502031
4.0769e-07
-0.000500906
2.17564e-07
6.55036e-07
-0.000290665
0.0002913
1.62534e-07
-0.000290626
1.88783e-07
-0.000290077
2.50431e-07
2.6508e-07
-8.26233e-05
8.27175e-05
-8.25677e-05
-8.2937e-05
3.62325e-05
0.00905199
6.82633e-05
0.0119755
0.000109677
0.0143376
0.000147961
0.0159001
0.000176279
0.0164917
0.000211625
0.0160476
0.000234732
0.0058335
5.92925e-06
5.72115e-06
-0.00164466
0.00164787
1.19584e-06
8.14478e-07
1.23528e-06
8.32925e-07
-0.000504169
0.000505117
2.11399e-07
-0.000503899
4.65838e-07
-0.000503207
4.5373e-07
3.23189e-07
-0.000292348
0.00029277
1.15341e-07
-0.000292059
1.17927e-07
-0.000291797
-4.43335e-08
1.5857e-07
-8.34218e-05
8.35843e-05
-8.3233e-05
-8.29826e-05
3.89659e-05
0.00908129
8.07298e-05
0.0120045
0.000124731
0.0143609
0.000161329
0.015915
0.000200174
0.0165032
0.000223806
0.00585839
6.5403e-06
7.53675e-06
-0.00165116
0.00165503
1.32702e-06
7.30975e-07
1.52343e-06
9.1449e-07
-0.000506638
0.00050723
6.03853e-07
-0.000505904
8.08772e-08
-0.000505172
5.03082e-07
7.77401e-07
-0.000293801
0.000293875
1.36834e-07
-0.000293295
-3.96053e-08
-0.000292971
1.29758e-07
1.21901e-07
-8.38165e-05
8.39318e-05
-8.36985e-05
-8.37429e-05
4.67016e-05
0.00911531
9.13392e-05
0.0120378
0.000134572
0.0143876
0.000175551
0.0159397
0.000199006
0.00588835
7.75884e-06
8.97876e-06
-0.0016598
0.00166388
1.52856e-06
9.29766e-07
1.67718e-06
1.09079e-06
-0.000508974
0.000509627
6.74317e-07
-0.000508748
5.04794e-07
-0.000507369
1.44037e-07
7.75719e-07
-0.000294777
0.000295442
-6.14292e-08
-0.00029482
1.23562e-07
-0.000294466
1.49835e-07
1.8627e-07
-8.41438e-05
8.42806e-05
-8.41834e-05
-8.40537e-05
5.55872e-05
0.00915107
0.000106882
0.0120655
0.00014659
0.0144166
0.000160346
0.00592398
9.89169e-06
1.00659e-05
-0.00166966
0.00167453
1.72394e-06
1.16228e-06
1.90115e-06
1.3013e-06
-0.000511641
0.00051266
5.08784e-07
-0.000511321
6.10316e-07
-0.000510254
6.09583e-07
4.64134e-07
-0.000296402
0.000297104
-2.74716e-08
-0.000296093
1.95395e-07
-0.000296077
1.28436e-07
1.40437e-07
-8.47402e-05
8.46788e-05
-8.46167e-05
-8.44669e-05
7.01472e-05
0.0091878
0.000111931
0.0121002
0.000117665
0.00596581
1.46216e-05
1.3699e-05
-0.00168091
0.00168748
1.39243e-06
1.92598e-06
1.579e-06
2.10642e-06
-0.000515126
0.000515887
9.63156e-07
-0.000514279
3.15275e-07
-0.000513108
7.30515e-07
8.53922e-07
-0.000298295
0.000298625
1.78022e-07
-0.000297859
1.74347e-07
-0.000297414
1.65391e-07
1.53566e-07
-8.5143e-05
8.51155e-05
-8.49476e-05
-8.48192e-05
8.19842e-05
0.00921775
7.39114e-05
0.00600533
2.35957e-05
1.88676e-05
-0.00169618
0.00170448
3.44593e-06
2.88018e-06
2.48602e-06
2.51306e-06
-0.000519338
0.000519694
1.03619e-06
-0.000518218
8.06174e-07
-0.000517049
4.10423e-07
9.44028e-07
-0.00030009
0.000300865
1.88345e-07
-0.000299956
1.81354e-07
-0.000299254
2.84568e-08
2.25078e-07
-8.56088e-05
8.57868e-05
-8.54344e-05
-8.5269e-05
4.43507e-05
1.56588e-05
4.24811e-05
-0.00171512
0.00172632
7.47101e-06
4.92612e-06
4.1357e-06
4.0854e-06
-0.000524631
0.000526137
1.93991e-06
-0.000522977
1.22676e-06
-0.000521124
6.32947e-07
1.08308e-06
-0.000302585
0.000303425
1.96511e-07
-0.000301808
2.91527e-08
-0.000301602
2.0483e-07
2.06877e-07
-8.62217e-05
8.64101e-05
-8.60403e-05
-8.60119e-05
-0.00174398
8.85905e-06
2.14333e-05
1.48168e-05
1.0005e-05
-0.000532823
0.000536562
3.73208e-06
-0.000530367
2.47103e-06
-0.000528498
2.26651e-06
1.72477e-06
-0.000305599
0.000307155
3.83275e-07
-0.000304673
3.0146e-07
-0.000304282
2.4158e-07
2.26501e-07
-8.6851e-05
8.70476e-05
-8.68218e-05
-8.66169e-05
-0.000550312
1.33447e-05
-0.000544125
1.52471e-05
-0.000539647
1.03387e-05
6.92057e-06
-0.000311986
0.000314731
9.87491e-07
-0.000310117
6.02148e-07
-0.000308453
6.02641e-07
4.27251e-07
-8.78172e-05
8.82006e-05
-8.75157e-05
-8.72741e-05
-0.000330445
2.05768e-05
-0.000325206
1.00083e-05
-0.000319611
4.74365e-06
2.04083e-06
-8.98327e-05
9.08203e-05
-8.92305e-05
-8.86278e-05
-0.000107613
-9.76049e-05
-9.28611e-05
-1.37197e-05
1.3719e-05
7.07631e-06
-2.07979e-05
-5.88461e-05
5.2552e-05
2.00112e-05
1.93452e-05
-7.11176e-05
3.50243e-06
-2.43022e-05
1.62613e-05
3.62892e-05
-0.00011735
0.000110529
2.68295e-05
2.96055e-05
-0.000127613
1.18468e-05
-7.94646e-05
1.5493e-06
-2.58532e-05
2.28894e-05
0.000103899
6.85876e-06
2.9429e-05
-0.000407161
6.37581e-05
0.000393113
-1.86455e-05
6.70687e-05
-0.000425989
-0.000134413
6.97159e-06
-8.48896e-05
8.10014e-07
-2.66646e-05
1.47123e-05
9.60437e-05
2.364e-06
2.70638e-05
-4.13034e-05
-0.00142408
0.00137833
0.00015078
-6.74077e-06
0.000373258
-4.30516e-05
0.000160609
-0.0014746
-1.44503e-05
-0.000446949
-7.64802e-06
-0.000141892
4.04632e-06
-8.8128e-05
3.0314e-07
-2.69686e-05
9.16664e-05
1.05021e-06
2.60127e-05
-2.48094e-05
0.000107823
-0.00199761
0.00194408
0.000204291
-4.3894e-06
-1.84186e-06
0.000216922
-0.00205394
-3.10983e-05
0.000132213
-0.00155639
-1.93594e-05
-0.000468046
-6.43499e-06
-3.57259e-06
-0.000145494
2.29893e-06
-9.01252e-05
3.3806e-07
-2.73077e-05
8.83268e-05
4.78298e-07
2.55336e-05
0.000178444
-0.00232696
0.00226857
0.000262673
8.69627e-05
0.000276713
-0.00238677
0.000211812
-0.00213356
0.000117989
-1.7929e-05
-0.00164038
-1.60915e-05
-0.000480935
-3.88298e-06
-2.59207e-06
-0.000149631
-1.60508e-06
-0.0001516
-9.13928e-05
2.91894e-07
-2.76008e-05
2.14285e-07
0.000244275
-0.00240027
0.00234642
0.000316514
0.00033045
-0.00245402
0.000284308
-0.00245928
0.00020997
-0.00222555
-0.000493143
-2.74846e-06
-2.97662e-06
0.000125925
-1.82577e-05
-0.00172722
-2.08178e-05
-0.000503419
-4.26371e-06
-1.55372e-06
-0.000153965
-1.51989e-06
-0.000155283
-1.27526e-06
-9.26211e-05
2.87254e-07
-2.78889e-05
0.000301822
-0.00220085
0.00216028
0.000357074
0.000368935
-0.00223935
0.000343671