/*--------------------------------*- C++ -*----------------------------------*\
| =========                 |                                                 |
| \\      /  F ield         | OpenFOAM: The Open Source CFD Toolbox           |
|  \\    /   O peration     | Version:  v1912                                 |
|   \\  /    A nd           | Website:  www.openfoam.com                      |
|    \\/     M anipulation  |                                                 |
\*---------------------------------------------------------------------------*/
FoamFile
{
    version     2.0;
    format      ascii;
    class       volVectorField;
    location    "40";
    object      U;
}
// * * * * * * * * * * * * * * * * * * * * * * * * * * * * * * * * * * * * * //

dimensions      [0 1 -1 0 0 0 0];


internalField   nonuniform List<vector> 
3753
(
(0.438424 -0.052819 -7.41711e-21)
(0.788443 -0.0814286 3.35492e-20)
(0.114884 -0.0437788 -2.2443e-20)
(0.92733 -0.0725333 1.02474e-20)
(0.427688 -0.0976415 2.49835e-20)
(0.0778087 -0.0361511 0)
(0.977861 -0.0584521 -3.04401e-20)
(0.676022 -0.129935 2.81177e-24)
(0.273376 -0.102212 -2.41416e-24)
(0.0789964 -0.0355691 0)
(0.992554 -0.0486409 -1.19052e-24)
(0.831567 -0.141489 -3.70035e-20)
(0.488297 -0.15579 6.80402e-25)
(0.243795 -0.106224 0)
(0.0866581 -0.0367404 -4.74857e-20)
(0.99496 -0.042164 -5.75881e-20)
(0.914537 -0.141179 3.50706e-20)
(0.67192 -0.192365 -5.20651e-20)
(0.419138 -0.170972 -6.30108e-20)
(0.251235 -0.108001 0)
(0.0873768 -0.036981 -4.42902e-20)
(0.994383 -0.0371614 1.2406e-19)
(0.95272 -0.135467 0)
(0.800279 -0.212514 1.07166e-19)
(0.588553 -0.224316 5.74232e-20)
(0.412084 -0.174044 -7.27091e-24)
(0.254153 -0.107506 5.68479e-20)
(0.0867212 -0.0370485 -8.45346e-20)
(0.993692 -0.0327068 -6.66225e-20)
(0.967268 -0.127576 -6.75674e-20)
(0.876438 -0.220539 -5.64819e-20)
(0.727522 -0.263262 -6.61274e-20)
(0.567138 -0.232182 0)
(0.412482 -0.172263 5.25679e-20)
(0.253229 -0.107482 5.40507e-20)
(0.0867835 -0.0369493 0)
(0.993431 -0.0283071 -9.36333e-24)
(0.970814 -0.118741 6.7458e-20)
(0.914763 -0.221049 0)
(0.82447 -0.288816 6.32126e-20)
(0.704039 -0.279176 -7.0044e-24)
(0.560973 -0.230046 -4.82187e-20)
(0.410802 -0.171711 -6.28486e-24)
(0.25285 -0.107151 5.11808e-20)
(0.0861456 -0.0365393 0)
(0.993505 -0.0236501 8.75421e-20)
(0.969696 -0.109123 -8.98083e-20)
(0.929657 -0.217317 -1.06349e-23)
(0.882624 -0.304616 8.56932e-20)
(0.810606 -0.313873 1.30863e-23)
(0.693866 -0.278681 0)
(0.556603 -0.228941 0)
(0.409793 -0.170973 6.12314e-22)
(0.251575 -0.106012 6.00317e-24)
(0.0848571 -0.0359325 0)
(0.993756 -0.0185471 4.51316e-21)
(0.966594 -0.0984019 1.90325e-19)
(0.931189 -0.211058 1.13935e-19)
(0.912064 -0.314828 1.58993e-20)
(0.883978 -0.337938 0)
(0.802748 -0.316576 -5.71062e-24)
(0.686588 -0.277808 -5.06692e-24)
(0.554473 -0.227748 -8.54601e-20)
(0.40808 -0.169268 -5.45992e-24)
(0.248937 -0.104445 4.37201e-20)
(0.0834127 -0.0352303 -3.24382e-20)
(0.994099 -0.012893 -9.30014e-20)
(0.962443 -0.0860839 -1.00345e-19)
(0.92493 -0.202814 -1.14693e-19)
(0.922772 -0.322804 -2.2296e-19)
(0.929696 -0.35464 -1.15376e-23)
(0.883283 -0.344157 0)
(0.795105 -0.316975 0)
(0.683131 -0.276488 3.9752e-20)
(0.552321 -0.225574 -3.90959e-20)
(0.40484 -0.167107 4.42891e-22)
(0.245672 -0.102663 4.02489e-20)
(0.0818628 -0.0344665 -3.07934e-20)
(0.994542 -0.00663647 0)
(0.957515 -0.0716091 0)
(0.91333 -0.19239 -6.5134e-23)
(0.921632 -0.330766 2.60191e-19)
(0.956243 -0.367241 5.85408e-20)
(0.937834 -0.363632 1.14403e-23)
(0.878259 -0.346351 -9.28609e-24)
(0.79139 -0.316095 -8.7289e-24)
(0.68054 -0.27405 -6.86006e-23)
(0.548832 -0.22303 -3.58465e-20)
(0.400661 -0.164699 3.6806e-20)
(0.242051 -0.100715 3.79842e-20)
(0.0802741 -0.0336946 0)
(0.995158 0.000217852 0)
(0.951931 -0.0543764 1.24413e-19)
(0.897143 -0.179175 1.72911e-19)
(0.912189 -0.339939 -1.37325e-19)
(0.970819 -0.378101 -5.72335e-20)
(0.972674 -0.377715 2.10395e-24)
(0.936757 -0.367322 9.06035e-24)
(0.875984 -0.346254 9.29991e-24)
(0.788842 -0.313731 2.59763e-23)
(0.676968 -0.271286 -3.33155e-20)
(0.544345 -0.220295 -3.33445e-20)
(0.395885 -0.162061 -4.08326e-24)
(0.238217 -0.0987412 -3.67911e-20)
(0.0787602 -0.0329397 6.69963e-24)
(0.99606 0.00759685 4.8371e-20)
(0.945845 -0.0337853 -5.93035e-20)
(0.876533 -0.16225 2.05913e-20)
(0.8954 -0.350798 2.67234e-23)
(0.97758 -0.388281 4.94299e-23)
(0.993827 -0.388411 3.83651e-20)
(0.974824 -0.381838 -3.88863e-20)
(0.936734 -0.367725 -1.01378e-24)
(0.874263 -0.34417 7.30315e-23)
(0.785418 -0.310907 3.11677e-20)
(0.672493 -0.26838 -3.08893e-20)
(0.539113 -0.217319 0)
(0.390706 -0.159375 6.543e-20)
(0.234371 -0.096803 1.71101e-23)
(0.0773563 -0.0322247 -2.71769e-20)
(0.997339 0.0153341 -9.49027e-20)
(0.939674 -0.00936086 6.58714e-22)
(0.851775 -0.139996 -1.95043e-19)
(0.869618 -0.363396 0)
(0.976837 -0.39674 5.49945e-23)
(1.00385 -0.396063 -3.76736e-20)
(0.996524 -0.391036 3.81068e-20)
(0.976013 -0.381652 -8.90771e-24)
(0.935946 -0.36564 3.09683e-20)
(0.871207 -0.341301 0)
(0.781099 -0.307869 2.88793e-20)
(0.667196 -0.265235 1.4179e-23)
(0.533304 -0.214286 -2.9656e-20)
(0.385355 -0.156695 7.86817e-24)
(0.230591 -0.0949469 -8.42574e-24)
(0.0761148 -0.0315934 -2.60573e-20)
(0.998929 0.0230021 4.64537e-20)
(0.934718 0.0190981 -6.28454e-20)
(0.82326 -0.108981 3.7301e-22)
(0.828071 -0.375631 0)
(0.962554 -0.39913 6.12266e-20)
(0.998832 -0.397786 3.62725e-20)
(1.00161 -0.393822 3.80558e-20)
(0.995524 -0.388182 7.66877e-24)
(0.974597 -0.378538 -6.97972e-24)
(0.932818 -0.362332 -2.81479e-20)
(0.86693 -0.337986 -2.72052e-20)
(0.775829 -0.304547 2.68903e-20)
(0.66117 -0.262033 -1.34269e-23)
(0.527167 -0.211208 1.3941e-23)
(0.379929 -0.154076 3.02967e-20)
(0.226975 -0.0932909 -7.57523e-24)
(0.0751204 -0.0310647 0)
(1.00072 0.0298338 -3.99853e-20)
(0.934642 0.0516207 2.53135e-21)
(0.790657 -0.0624863 -7.75189e-22)
(0.75394 -0.372171 -1.40779e-19)
(0.915072 -0.387898 -6.21108e-20)
(0.963803 -0.385129 -1.03673e-21)
(0.98155 -0.385328 -3.82124e-20)
(0.992071 -0.384966 3.31014e-20)
(0.989653 -0.382158 -9.11962e-25)
(0.969506 -0.373767 2.74693e-20)
(0.927789 -0.358228 2.61859e-20)
(0.86138 -0.334243 -2.55022e-20)
(0.769636 -0.30116 0)
(0.654675 -0.25872 2.62657e-20)
(0.520786 -0.208112 -2.71618e-20)
(0.374515 -0.151688 7.2135e-24)
(0.223708 -0.0918891 1.47727e-23)
(0.0743657 -0.03065 5.35959e-24)
(1.00243 0.0350347 3.95638e-20)
(0.945534 0.0798753 -5.18618e-20)
(0.748619 0.0134631 2.04297e-20)
(0.613809 -0.317841 1.39775e-19)
(0.791283 -0.346288 0)
(0.866824 -0.344105 -3.7506e-20)
(0.916584 -0.355856 0)
(0.954347 -0.36629 -6.66878e-20)
(0.975734 -0.373476 -2.88938e-20)
(0.978909 -0.374272 -2.65452e-20)
(0.961724 -0.367872 -6.44202e-24)
(0.920958 -0.353495 1.19539e-23)
(0.854596 -0.330429 1.18204e-23)
(0.762819 -0.297584 -4.88655e-20)
(0.647757 -0.255265 -6.03886e-24)
(0.51422 -0.205216 -1.28061e-23)
(0.36934 -0.149623 0)
(0.220893 -0.0907419 -7.18763e-24)
(0.0737451 -0.0303156 -2.11552e-20)
(1.00386 0.0382562 0)
(0.957469 0.101815 9.44607e-20)
(0.821936 0.118601 -3.43381e-20)
(0.832777 0.139957 0)
(0.487743 -0.236558 2.29864e-21)
(0.364172 -0.151741 2.11067e-20)
(0.637962 0.065325 0)
(0.641173 -0.302481 1.31086e-22)
(0.297783 -0.211875 -3.43911e-20)
(0.471434 -0.203117 4.46593e-21)
(0.660409 -0.257672 -4.66308e-21)
(0.541485 -0.196679 0)
(0.778535 -0.293365 0)
(0.863611 -0.324185 3.47558e-20)
(0.92116 -0.347174 5.90717e-20)
(0.954565 -0.360703 2.68115e-20)
(0.965131 -0.365237 -6.31973e-24)
(0.951648 -0.361218 0)
(0.912496 -0.348734 -2.9459e-25)
(0.847003 -0.326345 2.31334e-20)
(0.755394 -0.293715 0)
(0.640438 -0.251931 6.06909e-24)
(0.507701 -0.202649 6.27503e-24)
(0.364593 -0.147867 2.58267e-20)
(0.218455 -0.0897665 0)
(0.0731267 -0.0300372 -1.91035e-20)
(1.00463 0.0395711 -2.59638e-20)
(0.973686 0.116139 -6.50331e-21)
(0.846639 0.16622 0)
(0.864823 0.192023 2.18178e-20)
(0.644734 0.148725 0)
(0.401731 -0.0140379 -1.74587e-21)
(0.145626 -0.0967586 -2.70595e-20)
(0.113621 -0.143081 -6.89412e-21)
(0.175263 -0.180783 3.81686e-20)
(0.37767 0.0414908 0)
(0.293913 -0.143377 -6.73898e-21)
(0.120208 -0.0569173 0)
(0.318918 -0.11306 0)
(0.235121 -0.0770102 1.92302e-23)
(0.432131 -0.158792 8.08491e-21)
(0.548155 -0.193294 -4.79632e-21)
(0.371605 -0.132477 3.68894e-24)
(0.702257 -0.253253 1.81549e-20)
(0.811548 -0.298076 -4.08392e-22)
(0.886178 -0.328868 -6.31677e-24)
(0.931385 -0.347456 0)
(0.94913 -0.355602 0)
(0.939677 -0.354768 0)
(0.903084 -0.343681 -1.08255e-23)
(0.838629 -0.32182 -5.54895e-24)
(0.747343 -0.289863 0)
(0.632958 -0.248889 2.34918e-20)
(0.501471 -0.200401 -2.29966e-20)
(0.360288 -0.146312 1.13612e-23)
(0.216207 -0.0888884 0)
(0.0724117 -0.0297759 0)
(1.00468 0.0391554 5.04299e-21)
(0.99218 0.122643 -3.63754e-20)
(0.886499 0.214952 -2.10089e-20)
(0.910258 0.229452 -1.58826e-20)
(0.668535 0.216421 0)
(0.701293 0.27299 -3.06102e-20)
(0.372145 0.157533 0)
(0.368063 0.0998911 0)
(0.101564 -0.0185419 3.06398e-21)
(0.043459 -0.0675753 0)
(0.0842885 -0.0270385 -1.7955e-22)
(0.0779749 -0.02689 2.06489e-22)
(0.222541 -0.0751248 0)
(0.129692 -0.0413109 1.50472e-21)
(0.330859 -0.112545 -3.77924e-24)
(0.471218 -0.159045 -2.36108e-20)
(0.30975 -0.101582 5.5072e-21)
(0.184916 -0.0623449 5.81438e-24)
(0.639113 -0.225841 -1.75358e-20)
(0.764588 -0.276282 1.66986e-24)
(0.852304 -0.311672 -2.49038e-20)
(0.907224 -0.334231 -2.28809e-20)
(0.931494 -0.346767 0)
(0.926882 -0.348158 2.13916e-20)
(0.892809 -0.338084 2.11622e-20)
(0.829418 -0.317219 -2.16403e-20)
(0.738926 -0.286247 -2.18008e-20)
(0.625597 -0.246152 2.21837e-20)
(0.495617 -0.198352 0)
(0.35629 -0.144847 2.14839e-20)
(0.213964 -0.088031 0)
(0.0715472 -0.0295155 0)
(1.00455 0.0372288 2.13083e-20)
(1.00737 0.122504 0)
(0.935797 0.24184 1.59251e-20)
(0.959825 0.238921 1.20941e-20)
(0.744783 0.319347 5.38726e-20)
(0.797557 0.346546 -2.34428e-20)
(0.387841 0.216688 0)
(0.410837 0.273699 -1.50106e-20)
(0.471564 0.380925 0)
(0.438649 0.328916 1.44394e-20)
(0.0883633 0.103343 4.6264e-20)
(0.0899173 0.0433856 -2.38611e-20)
(0.0378398 -0.0112109 -1.40239e-21)
(0.0567241 -0.0178895 -1.52152e-22)
(0.0509775 -0.0162211 -2.27468e-23)
(0.163364 -0.052312 -6.29929e-21)
(0.281322 -0.0926385 -1.7348e-21)
(0.410318 -0.137806 -2.30991e-20)
(0.254605 -0.0805475 9.5302e-21)
(0.19293 -0.0641334 2.16128e-21)
(0.189683 -0.0611135 -2.10989e-21)
(0.0426181 -0.0138596 0)
(0.0453281 -0.014678 0)
(0.589304 -0.20534 7.42632e-24)
(0.723104 -0.257499 2.70375e-20)
(0.819917 -0.295366 2.4121e-20)
(0.882512 -0.32288 2.26665e-20)
(0.913721 -0.338158 -2.15235e-20)
(0.913405 -0.341012 -2.08572e-20)
(0.881571 -0.332383 4.16732e-20)
(0.819667 -0.312812 -2.10755e-20)
(0.730464 -0.282912 -2.05632e-20)
(0.618493 -0.2436 0)
(0.490066 -0.19637 -1.90547e-20)
(0.352421 -0.143379 1.92638e-20)
(0.211583 -0.0871546 0)
(0.0705372 -0.0292374 -1.37533e-20)
(1.00422 0.0342522 5.97743e-23)
(1.01971 0.11827 7.47188e-23)
(0.97893 0.30792 -1.45097e-20)
(0.851222 0.359086 0)
(0.895211 0.379363 -1.55892e-20)
(0.509204 0.428199 -1.06595e-20)
(0.554818 0.465888 9.6584e-21)
(0.667859 0.525858 8.46019e-21)
(0.609256 0.499929 -7.09636e-21)
(0.0994001 0.170094 -2.2969e-20)
(0.118947 0.238846 2.00031e-20)
(0.182208 0.372778 3.28176e-20)
(0.146065 0.307253 -3.77538e-20)
(0.0388526 -0.0119855 2.75853e-21)
(0.0382755 -0.0120953 5.66317e-21)
(0.113792 -0.0377256 0)
(0.179624 -0.0581353 2.22673e-21)
(0.171122 -0.0548619 1.57209e-23)
(0.218435 -0.0718656 8.42363e-21)
(0.371118 -0.123378 8.18147e-21)
(0.202045 -0.0649956 -1.4732e-21)
(0.159316 -0.0518448 -2.0565e-21)
(0.140876 -0.0411468 -1.94817e-21)
(0.111393 -0.0355377 -1.76762e-21)
(0.547678 -0.188728 -7.66713e-24)
(0.685443 -0.239807 -6.46104e-24)
(0.788733 -0.282373 -2.40496e-20)
(0.859108 -0.312386 5.48224e-24)
(0.895915 -0.329181 0)
(0.899054 -0.333854 -2.05129e-20)
(0.869727 -0.326891 4.07723e-20)
(0.809756 -0.308682 -2.01757e-20)
(0.722145 -0.279752 -4.90544e-24)
(0.611623 -0.241103 1.85904e-20)
(0.484679 -0.194347 -1.70516e-20)
(0.348512 -0.141859 0)
(0.209011 -0.0862378 -1.71753e-20)
(0.0694353 -0.0289301 -1.25477e-20)
(1.00357 0.0306175 0)
(1.02819 0.109933 -5.54631e-23)
(1.03596 0.29157 1.80582e-20)
(0.910506 0.652108 -9.01758e-21)
(1.01546 0.663584 -7.19795e-22)
(0.726837 0.546951 -4.1553e-22)
(0.77609 0.557537 5.24299e-21)
(0.808686 0.642034 8.6239e-21)
(0.229295 0.430107 -1.48069e-20)
(0.289081 0.473896 2.96703e-22)
(0.442543 0.603729 -1.4543e-20)
(0.34765 0.498777 1.26127e-20)
(0.036981 -0.0119686 -4.92542e-24)
(0.105965 -0.0336103 0)
(0.10047 -0.0318128 -1.75287e-21)
(0.116406 -0.0379705 -2.23892e-21)
(0.105879 -0.0339253 0)
(0.19015 -0.0615515 -6.07649e-21)
(0.339727 -0.112415 0)
(0.183554 -0.0584621 -1.45552e-20)
(0.0992746 -0.0316684 0)
(0.0961201 -0.03034 3.85342e-21)
(0.0922479 -0.0294528 -1.7391e-21)
(0.0641453 -0.0167709 0)
(0.0360923 -0.0113733 2.36004e-21)
(0.508935 -0.171821 0)
(0.650753 -0.226897 0)
(0.760915 -0.270946 0)
(0.836822 -0.301806 0)
(0.87763 -0.320419 0)
(0.884232 -0.327011 -2.01736e-20)
(0.857717 -0.321726 3.92081e-20)
(0.799922 -0.304733 -1.88211e-20)
(0.713979 -0.276652 -1.72083e-20)
(0.604883 -0.238552 1.66204e-20)
(0.479305 -0.192228 3.60352e-24)
(0.344472 -0.140272 1.48089e-20)
(0.206266 -0.0852648 0)
(0.0683 -0.0285943 0)
(1.00272 0.0266157 5.16386e-21)
(1.03349 0.0992569 0)
(1.06307 0.255639 0)
(1.19278 0.562645 5.15694e-22)
(0.896707 0.683563 -4.34212e-21)
(0.70997 0.5681 3.42892e-21)
(0.971538 0.528901 -4.37818e-22)
(0.58721 0.675276 3.17898e-22)
(0.664025 0.677843 -5.25953e-21)
(0.57772 0.505503 7.18514e-23)
(0.518127 0.514879 -3.84918e-21)
(0.177873 0.317319 -2.7121e-22)
(0.0344459 -0.0107387 0)
(0.0327071 -0.0102714 1.18366e-21)
(0.0408229 -0.0134447 0)
(0.0353571 -0.0112673 0)
(0.0930212 -0.0296503 3.76463e-21)
(0.0917301 -0.0288822 3.66948e-21)
(0.174655 -0.0565702 0)
(0.300354 -0.0977958 -3.58782e-21)
(0.166021 -0.052818 -1.24191e-21)
(0.0898586 -0.0284071 7.01938e-21)
(0.0887433 -0.027853 0)
(0.0321157 -0.0101048 -4.32563e-24)
(0.0309704 -0.00966166 -3.22154e-21)
(0.0299462 -0.0097769 2.4039e-21)
(0.0177347 -0.00467834 7.97909e-22)
(0.474892 -0.160521 0)
(0.621831 -0.216245 0)
(0.735643 -0.259572 0)
(0.814657 -0.291725 2.05694e-20)
(0.859274 -0.31216 -4.88749e-24)
(0.869423 -0.32063 -1.95158e-20)
(0.845829 -0.316783 3.67295e-20)
(0.790208 -0.300869 3.91627e-24)
(0.705898 -0.273518 -1.53671e-20)
(0.598153 -0.235885 -3.37106e-24)
(0.473848 -0.190003 -3.6033e-25)
(0.340275 -0.138612 -3.18172e-25)
(0.203412 -0.084249 6.59926e-24)
(0.0672026 -0.0282402 0)
(1.00186 0.0224458 -5.24e-21)
(1.03671 0.0880638 4.27384e-21)
(1.0719 0.213344 6.51387e-21)
(1.314 0.514216 2.24113e-20)
(0.828218 0.154062 -6.87954e-20)
(1.12542 0.227512 1.83114e-19)
(0.487932 0.293296 -5.45736e-21)
(0.31092 0.276874 0)
(0.629992 0.203504 -3.27987e-20)
(0.283306 0.11006 0)
(0.381399 0.513218 7.13012e-22)
(0.457669 0.514422 4.45174e-21)
(0.0301167 -0.00941918 0)
(0.029655 -0.00919634 0)
(0.0865017 -0.0275823 3.38709e-21)
(0.0851757 -0.0268592 3.27193e-24)
(0.143514 -0.045045 -1.32494e-21)
(0.270589 -0.0880781 -4.02495e-21)
(0.117899 -0.038556 3.96935e-21)
(0.0829438 -0.0263958 0)
(0.0794857 -0.0250634 1.58374e-21)
(0.0290167 -0.00905574 -4.31567e-24)
(0.0286526 -0.00891278 0)
(0.449989 -0.152564 0)
(0.596813 -0.205146 0)
(0.710819 -0.248966 -2.20788e-20)
(0.792997 -0.282323 0)
(0.841328 -0.304598 2.04329e-25)
(0.854958 -0.314568 -1.8361e-20)
(0.834129 -0.311981 0)
(0.780569 -0.297023 -3.93095e-24)
(0.697799 -0.270288 -1.40374e-20)
(0.591344 -0.233092 1.32472e-20)
(0.468268 -0.187674 -3.27924e-24)
(0.335945 -0.1369 -3.25775e-24)
(0.200525 -0.0832034 -5.01395e-25)
(0.0661684 -0.027873 0)
(1.00113 0.0182645 -2.52975e-22)
(1.03821 0.0769185 -3.3758e-21)
(1.07278 0.174022 -6.78706e-21)
(1.35007 0.45069 -2.31118e-20)
(1.22789 0.17577 -1.07419e-19)
(0.229689 0.00872885 -1.65555e-20)
(0.48363 -0.0085855 4.70283e-20)
(0.276642 -0.0229933 -4.18337e-20)
(0.644718 0.00214233 8.84062e-20)
(0.0280991 -0.00879346 -3.87384e-21)
(0.0276127 -0.0085745 0)
(0.0723303 -0.023341 1.4702e-21)
(0.0513924 -0.0134119 -1.56585e-21)
(0.106734 -0.0339272 8.33884e-21)
(0.255317 -0.0833342 -4.94784e-24)
(0.104091 -0.0327861 2.64794e-21)
(0.0328082 -0.0104791 4.44761e-22)
(0.0275162 -0.00904047 1.21806e-21)
(0.0268803 -0.00843551 -1.8231e-21)
(0.0256888 -0.00810282 8.7614e-22)
(0.42968 -0.143954 0)
(0.571274 -0.195046 -5.79884e-24)
(0.686967 -0.239012 -5.42273e-24)
(0.772316 -0.273926 0)
(0.824146 -0.297498 9.20478e-24)
(0.840888 -0.308738 -1.70633e-20)
(0.822582 -0.307278 0)
(0.770917 -0.293147 2.68591e-20)
(0.689613 -0.266963 2.76428e-22)
(0.58443 -0.230166 0)
(0.462559 -0.185267 0)
(0.331535 -0.135172 0)
(0.197683 -0.0821471 -6.2023e-24)
(0.0652116 -0.0275022 -9.81008e-21)
(1.00063 0.0142006 2.57107e-22)
(1.03805 0.0658096 -1.01833e-21)
(1.07241 0.140042 1.14241e-23)
(1.33581 0.376496 -2.44135e-20)
(1.44235 0.187114 0)
(0.652592 -0.0238993 0)
(0.0679533 -0.0209074 2.70649e-20)
(0.269054 -0.00205043 2.28462e-22)
(0.111809 -0.00561985 -8.14923e-23)
(0.280673 -0.0486028 -1.47641e-19)
(0.0234145 -0.00781955 1.3569e-23)
(0.014114 -0.00370263 9.72968e-22)
(0.025279 -0.00798008 -2.57524e-25)
(0.024739 -0.00780985 -2.08364e-21)
(0.100977 -0.0323193 -2.6752e-21)
(0.289822 -0.0977503 9.90932e-24)
(0.0998485 -0.0314621 2.50701e-21)
(0.197234 -0.0655426 4.12245e-21)
(0.0245417 -0.0076818 -9.99661e-25)
(0.0244728 -0.00756798 -4.09591e-21)
(0.405214 -0.134477 3.00382e-21)
(0.285135 -0.0942566 0)
(0.54668 -0.185278 5.93214e-24)
(0.664786 -0.230413 0)
(0.753007 -0.266163 1.99118e-20)
(0.807705 -0.290748 3.5045e-20)
(0.827164 -0.303113 -7.03306e-24)
(0.8111 -0.302646 -1.31949e-20)
(0.761202 -0.289271 -1.18458e-20)
(0.681347 -0.263506 0)
(0.577392 -0.227122 0)
(0.456749 -0.182841 0)
(0.327118 -0.133453 0)
(0.194932 -0.0810765 1.11329e-20)
(0.0642811 -0.0271301 -4.23437e-24)
(1.00037 0.0103521 0)
(1.03654 0.0546564 -4.2464e-21)
(1.07327 0.111148 0)
(1.29979 0.305255 2.61229e-20)
(1.52057 0.187799 0)
(1.11401 -0.00425391 2.07597e-19)
(0.321885 -0.0670474 -1.52415e-19)
(0.178197 -0.00310898 1.46586e-19)
(0.0144733 -0.00497182 5.96735e-20)
(0.0426443 -0.0195619 1.31699e-19)
(0.0239932 -0.00762172 4.10238e-21)
(0.0239988 -0.00752679 2.01224e-21)
(0.122414 -0.0405187 6.5572e-23)
(0.0722544 -0.0236932 -5.3305e-21)
(0.0237259 -0.0074312 -7.82429e-24)
(0.0236933 -0.00732815 -1.96974e-21)
(0.190164 -0.0621623 3.19485e-23)
(0.122002 -0.0390658 -2.96895e-21)
(0.274125 -0.0895988 -4.89388e-21)
(0.380008 -0.125007 3.08738e-21)
(0.263309 -0.08545 -4.93788e-21)
(0.524789 -0.177226 0)
(0.644783 -0.222641 -2.16226e-20)
(0.734849 -0.258879 -1.8556e-20)
(0.791887 -0.284316 7.34293e-24)
(0.813678 -0.29768 7.07707e-24)
(0.799645 -0.298177 1.20447e-20)
(0.751471 -0.285313 1.05705e-23)
(0.672988 -0.259908 -1.03049e-20)
(0.570253 -0.224037 0)
(0.450909 -0.180443 -1.03985e-20)
(0.322754 -0.131735 0)
(0.192264 -0.080005 0)
(0.0633474 -0.0267574 -8.45702e-21)
(1.00028 0.00675807 4.90763e-21)
(1.03422 0.0434662 4.34819e-21)
(1.07493 0.0866246 2.11651e-20)
(1.26004 0.242298 0)
(1.51908 0.177684 2.9788e-23)
(1.39192 0.0136457 -1.79031e-19)
(0.761807 -0.0747291 -2.23017e-22)
(0.244091 -0.0567579 0)
(0.108353 -0.0216595 1.32995e-19)
(0.0946137 -0.0427147 -1.54361e-21)
(0.0299101 0.00487829 -1.18645e-19)
(-0.00923132 -0.00916656 -1.89957e-21)
(-0.000443214 0.00601584 2.30729e-21)
(0.0719896 -0.0226446 2.39937e-21)
(0.0235196 -0.00757218 1.78274e-21)
(0.117228 -0.0377543 -5.37157e-24)
(0.182332 -0.0585887 2.9807e-21)
(0.119705 -0.0386321 0)
(0.248832 -0.0793929 -1.00887e-20)
(0.360334 -0.118117 3.17756e-21)
(0.236667 -0.0767983 4.08254e-23)
(0.172118 -0.0553433 -1.50761e-23)
(0.506274 -0.170289 2.84417e-24)
(0.626308 -0.215477 0)
(0.717559 -0.251986 -1.70398e-20)
(0.776541 -0.278172 -1.4025e-23)
(0.800382 -0.29263 -1.20366e-20)
(0.788317 -0.293732 1.07796e-20)
(0.741717 -0.281223 9.75976e-21)
(0.664545 -0.256238 -4.84501e-24)
(0.563086 -0.220978 9.35044e-21)
(0.445091 -0.178078 -1.75844e-25)
(0.318468 -0.130026 -9.8864e-21)
(0.189633 -0.0789296 -2.36816e-24)
(0.0624308 -0.0263888 -3.81346e-24)
(1.00029 0.00341516 -4.98557e-21)
(1.03165 0.0323395 -7.79512e-21)
(1.07618 0.0654885 1.0923e-21)
(1.22575 0.1878 -3.2347e-20)
(1.47709 0.155655 -9.26559e-20)
(1.51664 0.0244437 3.93037e-23)
(1.13895 -0.0738748 9.78468e-23)
(0.565891 -0.0915365 2.71375e-22)
(0.0573905 -0.0179363 1.86421e-22)
(0.21858 -0.0487561 0)
(0.0305446 -0.0101163 -2.54527e-20)
(0.000794383 -0.0101492 8.03183e-20)
(-0.0104765 0.0131905 7.44222e-20)
(0.000333001 0.00164056 -3.24018e-20)
(0.0703592 -0.0223488 0)
(0.0234174 -0.00729 -1.6123e-21)
(0.114498 -0.0364974 5.32478e-24)
(0.0686828 -0.0219118 -1.15395e-21)
(0.111814 -0.0355406 2.76469e-21)
(0.154751 -0.0483106 5.1898e-21)
(0.228099 -0.0735669 5.37582e-21)
(0.346251 -0.113055 -6.34143e-21)
(0.223226 -0.0715606 -1.07633e-20)
(0.14128 -0.0452096 -1.68845e-23)
(0.101625 -0.0324226 0)
(0.107437 -0.0343389 -5.3572e-24)
(0.489548 -0.1641 -2.4171e-23)
(0.608724 -0.208703 1.85811e-20)
(0.700926 -0.245371 -1.54643e-20)
(0.761592 -0.272684 6.67354e-24)
(0.787456 -0.287757 -1.07823e-20)
(0.777107 -0.289207 -4.96354e-24)
(0.731945 -0.277046 9.07656e-21)
(0.656083 -0.252568 0)
(0.555923 -0.21797 0)
(0.43933 -0.17575 8.64457e-21)
(0.314249 -0.128322 1.54738e-25)
(0.187056 -0.0778606 9.71294e-21)
(0.061529 -0.0260266 3.85593e-24)
(1.00034 0.00029174 0)
(1.02921 0.0214116 1.24521e-20)
(1.07634 0.0466751 -2.38041e-20)
(1.19984 0.141087 3.45289e-20)
(1.42218 0.128056 1.15955e-20)
(1.54215 0.0262451 3.24743e-23)
(1.37903 -0.0680754 -1.15326e-22)
(0.929009 -0.111345 -1.92382e-22)
(0.47057 -0.0892622 0)
(0.0611666 -0.0154625 8.49255e-20)
(0.00714532 0.00178141 -2.75803e-20)
(-0.0001992 -0.00723578 -1.08888e-22)
(0.199443 -0.0445711 -3.28852e-19)
(0.00586987 0.000288067 1.28382e-22)
(0.00201897 -0.00488392 -1.86275e-22)
(-0.0212123 -0.00147844 3.59778e-20)
(-0.00802872 0.00289099 0)
(-0.0109903 0.00364294 -1.77979e-20)
(-0.00186069 0.000857343 -1.25733e-21)
(0.0227939 -0.00711682 7.7194e-24)
(0.0671103 -0.0211724 -4.66405e-24)
(0.0221818 -0.00698575 2.30367e-21)
(0.0655751 -0.0207049 -1.15895e-21)
(0.0892781 -0.025967 -2.25961e-23)
(0.0766471 -0.0249819 -1.51348e-21)
(0.135311 -0.0429094 2.19086e-21)
(0.218262 -0.0700404 1.04424e-20)
(0.334061 -0.108867 -9.16175e-23)
(0.215045 -0.068692 -1.03214e-20)
(0.132292 -0.0417414 2.17415e-21)
(0.066769 -0.0212103 -3.58868e-23)
(0.0701504 -0.0223178 1.57871e-21)
(0.0583262 -0.0185167 0)
(0.062635 -0.0198603 -1.15411e-21)
(0.473247 -0.158175 1.17937e-23)
(0.591666 -0.20193 1.68857e-20)
(0.68486 -0.239731 -1.43406e-20)
(0.747376 -0.267546 0)
(0.774875 -0.282897 -9.92888e-21)
(0.765995 -0.284617 -8.8385e-21)
(0.722207 -0.272851 1.99232e-24)
(0.647652 -0.24895 -8.32551e-21)
(0.548805 -0.215028 -8.33344e-21)
(0.433633 -0.173459 0)
(0.310113 -0.126635 -8.2384e-21)
(0.184533 -0.076802 0)
(0.0606051 -0.0256586 0)
(1.00039 -0.00264324 1.19065e-25)
(1.02708 0.0107891 -9.35277e-21)
(1.07539 0.02934 0)
(1.18138 0.101123 3.82443e-20)
(1.37034 0.0995987 1.73042e-19)
(1.51605 0.0214796 -3.43321e-23)
(1.49191 -0.0615242 -1.40003e-19)
(1.22214 -0.11754 8.54241e-23)
(0.78759 -0.121713 2.18006e-22)
(0.416322 -0.0832313 0)
(0.0582026 -0.0147429 3.2867e-19)
(0.0100655 0.00184425 -1.3178e-19)
(0.00878892 -0.00621456 2.5841e-20)
(-0.000576145 0.00263808 1.80798e-20)
(-0.00115918 0.000374882 3.18341e-20)
(-0.00203927 0.000667775 2.12144e-20)
(-0.00305043 -0.00196696 -1.91724e-20)
(-0.00291426 0.00164163 2.12328e-22)
(0.186524 -0.0427315 0)
(-0.00391085 0.00217376 2.33659e-20)
(-0.013295 0.00208699 2.10455e-20)
(-0.00658254 0.00305647 0)
(0.021687 -0.00678034 -1.56464e-21)
(0.0212954 -0.0066656 -1.56509e-21)
(0.0404942 -0.0103096 -3.60426e-22)
(0.0264445 -0.00880994 -3.76985e-22)
(0.0650642 -0.020445 1.17911e-23)
(0.0643035 -0.0201621 -3.01126e-21)
(0.129752 -0.0409999 0)
(0.210797 -0.0676736 1.98786e-20)
(0.321045 -0.104586 -4.12395e-23)
(0.207556 -0.0662112 -1.96223e-20)
(0.127862 -0.0402743 6.34951e-21)
(0.0633118 -0.019779 2.98266e-21)
(0.0636437 -0.0199278 -2.99078e-21)
(0.0214711 -0.0067638 6.88715e-24)
(0.0231957 -0.00743051 -1.07667e-21)
(0.0187911 -0.00623314 8.75137e-23)
(0.0202162 -0.00640574 1.53002e-21)
(0.456474 -0.15155 2.81369e-23)
(0.575206 -0.196488 1.57365e-20)
(0.670045 -0.23461 -1.90889e-23)
(0.733814 -0.262542 1.02548e-20)
(0.762559 -0.278026 0)
(0.755024 -0.280009 0)
(0.712562 -0.268696 7.88493e-21)
(0.639276 -0.245417 7.68063e-21)
(0.541748 -0.212172 0)
(0.428046 -0.171214 0)
(0.306063 -0.12496 0)
(0.182015 -0.0757499 0)
(0.0597175 -0.0252926 3.42888e-24)
(1.00041 -0.00541721 0)
(1.02528 0.000531774 4.90457e-21)
(1.07369 0.0129371 0)
(1.16815 0.0665027 -4.0391e-20)
(1.32801 0.0718867 -7.14425e-21)
(1.471 0.0128595 1.16442e-19)
(1.51835 -0.0572059 7.02874e-21)
(1.40156 -0.11529 7.50123e-23)
(1.08754 -0.140092 8.43768e-23)
(0.693846 -0.120544 0)
(0.381135 -0.078913 -2.55676e-22)
(0.0575266 -0.0150725 7.81748e-20)
(0.0112393 0.00145357 0)
(0.00783354 -0.00596115 0)
(-0.00123798 0.00231541 6.3679e-23)
(-0.000900129 -0.000176262 3.07462e-20)
(0.00022187 0.000714132 -2.9322e-20)
(-0.000260717 -0.00128621 0)
(-0.000590605 0.000546938 0)
(-0.0031593 0.000351412 -2.39426e-21)
(0.17733 -0.0412558 0)
(-0.00154163 0.000673895 1.03238e-21)
(0.0111913 -0.00286985 2.70045e-22)
(0.0208508 -0.00650097 1.71958e-21)
(0.0206219 -0.00641487 -1.7176e-21)
(0.0625978 -0.0196222 2.9315e-21)
(0.0623429 -0.0195071 0)
(0.125673 -0.0397652 -8.13827e-21)
(0.202511 -0.0651917 0)
(0.304136 -0.0982227 4.21969e-23)
(0.197299 -0.0629897 -4.50797e-21)
(0.123776 -0.0389557 7.99169e-21)
(0.0616353 -0.0192062 1.13246e-23)
(0.0618414 -0.0193627 2.88642e-21)
(0.0203194 -0.00629827 -3.43034e-21)
(0.0204377 -0.00634471 -1.71495e-21)
(0.440103 -0.146523 -1.85799e-23)
(0.56079 -0.191722 1.49658e-23)
(0.656279 -0.229757 1.15771e-20)
(0.720725 -0.257605 2.17707e-24)
(0.750525 -0.273159 8.20843e-21)
(0.744243 -0.275426 0)
(0.703018 -0.264627 0)
(0.630974 -0.242015 0)
(0.534793 -0.209398 -1.69617e-24)
(0.422556 -0.168992 -3.46106e-24)
(0.302083 -0.123311 0)
(0.179569 -0.0747121 -1.97807e-24)
(0.0588829 -0.0249313 -6.79719e-24)
(1.0004 -0.00804324 0)
(1.02376 -0.00934704 0)
(1.0716 -0.00285436 -1.29492e-20)
(1.15829 0.0358487 0)
(1.2959 0.045299 -1.22937e-19)
(1.42541 0.0019035 -8.42181e-21)
(1.49931 -0.0558299 1.34585e-19)
(1.47992 -0.109837 0)
(1.30497 -0.14603 -7.41009e-23)
(0.980711 -0.147379 -9.17081e-23)
(0.630065 -0.116821 -2.10416e-22)
(0.356256 -0.0756474 2.63931e-22)
(0.0567549 -0.0147868 1.26339e-21)
(0.0117345 0.000226376 -6.35481e-22)
(0.00953285 -0.00651754 0)
(-0.00398508 0.00187671 -2.05481e-20)
(-0.00161358 0.0010224 -2.78024e-23)
(-0.0024193 -0.00167954 0)
(-0.00287454 0.00154594 2.12466e-20)
(-0.00181668 0.000293965 -1.79545e-20)
(-0.00108731 0.000500127 -1.62098e-20)
(-0.00129438 -0.00014933 0)
(0.169934 -0.0395081 -3.00395e-19)
(0.0201263 -0.00625558 -7.99398e-25)
(0.020039 -0.00622439 -1.6954e-21)
(0.060944 -0.0191333 1.09707e-23)
(0.0606816 -0.0189991 -2.18946e-23)
(0.121055 -0.0384102 -7.36952e-23)
(0.188571 -0.0608583 -7.95528e-24)
(0.286805 -0.093188 2.56829e-21)
(0.177622 -0.0554014 -4.00254e-21)
(0.117629 -0.0371098 5.56359e-21)
(0.059999 -0.0186529 -2.73974e-21)
(0.0602084 -0.0188571 1.08862e-23)
(0.0198222 -0.00612152 -1.68132e-21)
(0.0199032 -0.00617569 -8.27316e-25)
(0.427239 -0.14238 -1.5543e-23)
(0.547945 -0.187394 -1.2754e-20)
(0.643197 -0.225059 0)
(0.708051 -0.252705 -8.50318e-21)
(0.7388 -0.268312 1.77313e-24)
(0.733641 -0.270915 -3.35571e-24)
(0.693571 -0.260719 0)
(0.622773 -0.238745 0)
(0.52796 -0.206681 1.70161e-24)
(0.417172 -0.166804 3.47371e-24)
(0.298207 -0.121685 0)
(0.177208 -0.0736866 1.98975e-24)
(0.0580921 -0.0245759 6.60058e-24)
(1.00034 -0.0105253 0)
(1.02242 -0.0188432 0)
(1.06937 -0.01823 1.3389e-20)
(1.15073 0.00797587 1.06357e-24)
(1.27234 0.0198496 4.11325e-20)
(1.38716 -0.0104536 -1.18039e-19)
(1.46398 -0.0570298 0)
(1.49227 -0.104402 -3.26126e-23)
(1.42485 -0.144032 0)
(1.21446 -0.161188 3.89448e-24)
(0.898923 -0.148037 0)
(0.58457 -0.112898 2.19583e-22)
(0.337322 -0.0726525 2.57387e-19)
(0.0556269 -0.0139957 2.9751e-19)
(0.0116597 -0.000171692 2.15851e-19)
(0.0100984 -0.00609445 -1.08889e-19)
(-0.00443983 0.00180545 -9.84969e-20)
(-0.00501188 0.000217837 2.12629e-20)
(-0.00270663 0.00144376 1.9139e-20)
(-0.00356613 0.0013729 1.58224e-22)
(-0.0022828 1.56405e-05 -1.33914e-22)
(-0.00390518 0.00163682 -1.5425e-22)
(0.164399 -0.0377355 0)
(0.0196291 -0.0061024 3.14908e-24)
(0.0195272 -0.00606568 1.00486e-25)
(0.059267 -0.01865 0)
(0.0588179 -0.0184367 0)
(0.110825 -0.0355081 -8.65371e-22)
(0.165635 -0.0531308 -4.19121e-21)
(0.276914 -0.0898731 -4.75041e-21)
(0.16118 -0.0512457 4.14479e-21)
(0.0943495 -0.0288388 4.30295e-21)
(0.057234 -0.0178055 0)
(0.0581405 -0.0182511 -2.54471e-21)
(0.0193322 -0.0059482 1.18513e-24)
(0.0194028 -0.00602004 0)
(0.416585 -0.138961 2.27147e-23)
(0.536 -0.183304 -1.17156e-20)
(0.630611 -0.220422 0)
(0.69576 -0.247812 0)
(0.727336 -0.263505 -1.77999e-24)
(0.72319 -0.266591 3.36742e-24)
(0.684263 -0.257003 -3.05344e-24)
(0.614711 -0.235573 0)
(0.521247 -0.204009 0)
(0.411912 -0.164648 -3.15097e-24)
(0.294413 -0.120075 0)
(0.174921 -0.0726858 0)
(0.057363 -0.02423 -3.26517e-24)
(1.00023 -0.0128506 2.03074e-25)
(1.02119 -0.02796 9.82226e-25)
(1.06703 -0.0333129 -1.23506e-20)
(1.14494 -0.0181064 0)
(1.2554 -0.00470011 1.17015e-23)
(1.35791 -0.023648 0)
(1.42854 -0.0601687 6.27093e-20)
(1.47233 -0.100357 3.23114e-23)
(1.46789 -0.138452 3.4055e-23)
(1.36342 -0.164271 -1.44041e-19)
(1.13583 -0.167604 1.55937e-22)
(0.836551 -0.146088 -1.83702e-19)
(0.550266 -0.109054 -4.31632e-19)
(0.322358 -0.069615 0)
(0.0559886 -0.0134463 -2.48593e-22)
(0.0111639 0.00020778 2.04455e-22)
(0.00979337 -0.00577963 0)
(-0.00541577 0.00185921 -8.07586e-20)
(-0.0054414 0.000729004 0)
(-0.00571422 0.00243268 2.54023e-20)
(-0.00485591 0.000754628 3.8778e-22)
(-0.00331693 0.000367051 0)
(-0.00382871 0.00203368 -2.14391e-20)
(-0.00191266 0.000398567 -1.82502e-21)
(-0.00124833 0.000496669 -1.33796e-20)
(0.158997 -0.035897 -6.75032e-23)
(0.0191314 -0.00595181 -1.55722e-21)
(0.0189718 -0.00589334 1.53799e-21)