/*--------------------------------*- C++ -*----------------------------------*\
| =========                 |                                                 |
| \\      /  F ield         | OpenFOAM: The Open Source CFD Toolbox           |
|  \\    /   O peration     | Version:  v1912                                 |
|   \\  /    A nd           | Website:  www.openfoam.com                      |
|    \\/     M anipulation  |                                                 |
\*---------------------------------------------------------------------------*/
FoamFile
{
    version     2.0;
    format      ascii;
    class       surfaceScalarField;
    location    "50";
    object      phi;
}
// * * * * * * * * * * * * * * * * * * * * * * * * * * * * * * * * * * * * * //

dimensions      [0 3 -1 0 0 0 0];
oriented        oriented;


internalField   nonuniform List<scalar> 
7351
(
-3.07833e-06
0.00133514
-1.05235e-05
0.00404519
-2.38953e-06
0.0013373
-2.70723e-05
0.00674129
-1.08144e-05
0.00405339
-3.46653e-06
0.00134067
-4.88867e-05
0.00932203
-2.66829e-05
0.00675704
-1.15208e-05
0.00406134
-2.58512e-06
0.00134319
-7.53554e-05
0.0116292
-4.76798e-05
0.00934291
-2.52046e-05
0.00677067
-9.13643e-06
0.0040678
-2.79117e-06
0.0013459
-0.000116172
0.0134881
-7.48281e-05
0.0116563
-4.33014e-05
0.00936096
-2.37926e-05
0.0067853
-9.37732e-06
0.0040743
-2.90148e-06
0.00134869
-0.000151235
0.0147055
-0.000109368
0.0135225
-7.1843e-05
0.0116849
-4.30791e-05
0.00938019
-1.98493e-05
0.00679571
-9.53084e-06
0.00408079
-1.99011e-06
0.00135051
-0.000198569
0.0151554
-0.000151672
0.0147478
-0.000105229
0.0135559
-6.64983e-05
0.0117083
-3.41159e-05
0.00939438
-1.71981e-05
0.00680329
-7.86883e-06
0.00408651
-1.92047e-06
0.00135225
-0.000237932
0.0147514
-0.000191901
0.0151955
-0.000143087
0.0147856
-9.36605e-05
0.013583
-5.27782e-05
0.0117269
-3.05184e-05
0.00940761
-1.47475e-05
0.00681005
-6.08496e-06
0.0040905
-1.74231e-06
0.0013538
-0.000274919
0.013539
-0.000239536
0.014799
-0.000180611
0.015233
-0.000117901
0.0148098
-7.40773e-05
0.0136042
-4.63874e-05
0.0117427
-2.69888e-05
0.00941972
-1.37705e-05
0.00681759
-5.39476e-06
0.00409397
-1.69783e-06
0.00135529
-0.000305257
0.0116202
-0.000285743
0.0135849
-0.000220099
0.0148384
-0.000149816
0.0152648
-9.86238e-05
0.0148343
-5.8645e-05
0.0136164
-3.59385e-05
0.0117515
-1.86275e-05
0.00942445
-1.14079e-05
0.00682344
-6.01709e-06
0.00409811
-1.61522e-06
0.00135669
-0.000320672
0.00916289
-0.000320672
0.0116552
-0.000242276
0.0136071
-0.000170286
0.0148589
-0.000114173
0.0152803
-7.47767e-05
0.0148503
-4.67039e-05
0.0136271
-2.76235e-05
0.0117604
-1.8979e-05
0.00943188
-8.71208e-06
0.00682597
-3.60854e-06
0.00409991
-1.13192e-06
0.0013576
0.00635122
-0.00018622
-0.000108168
-0.000348989
0.00919083
-0.000258817
0.0116714
-0.00018021
0.0136168
-0.000126162
0.0148708
-8.11125e-05
0.0152866
-5.16433e-05
0.0148552
-3.06388e-05
0.01363
-2.20841e-05
0.0117634
-1.11472e-05
0.00943418
-9.31334e-06
0.0068315
-5.38837e-06
0.00410397
-4.92345e-07
0.00135789
0.00636508
-0.000170437
-0.000192596
-0.00209922
0.00206009
-0.000147145
-8.07175e-05
-0.000240922
0.00917292
-0.00016721
0.0116584
-0.00012267
0.0136133
-8.00007e-05
0.0148696
-5.77635e-05
0.0152926
-3.95202e-05
0.014864
-2.62994e-05
0.0136341
-1.87e-05
0.0117708
-1.65639e-05
0.00944128
-9.42211e-06
0.00683537
-4.35618e-06
0.00410766
-1.26626e-06
0.00135897
0.00630509
-5.65132e-05
-0.000124568
-0.00204508
0.00202348
-0.00014899
-0.000177668
-0.0013513
0.00129595
-6.09512e-05
-3.08933e-05
-2.42524e-05
-0.000127118
0.00913251
-9.90461e-05
0.0116345
-7.01208e-05
0.0136033
-5.13245e-05
0.014863
-3.53392e-05
0.0152883
-2.29148e-05
0.0148605
-2.23136e-05
0.0136376
-1.52699e-05
0.0117694
-1.24009e-05
0.00944413
-1.0851e-05
0.00684171
-5.35579e-06
0.0041116
-2.14149e-06
0.00136095
0.00622935
-8.93567e-06
-4.26207e-05
-0.00197806
0.00195625
-3.47826e-05
-7.91696e-05
-0.00128044
0.00123847
-3.82265e-05
-6.88983e-05
-8.13714e-05
-8.08378e-05
-0.000410662
0.000384283
-3.45808e-05
-0.000424036
-1.75213e-05
-9.43675e-06
-5.658e-05
0.00908998
-4.74361e-05
0.0116118
-3.90175e-05
0.0135909
-2.53456e-05
0.014853
-1.86825e-05
0.015284
-1.68672e-05
0.0148549
-1.68595e-05
0.013639
-1.63022e-05
0.0117732
-1.78035e-05
0.00945097
-1.25679e-05
0.00684879
-7.65969e-06
0.00411697
-1.27173e-06
0.00136204
0.00618562
1.1741e-06
-1.41484e-05
-0.00192958
0.00192581
-5.28915e-06
-1.60189e-05
-0.00118766
0.0011585
-6.92325e-07
-4.98702e-06
-2.1488e-05
-6.88485e-06
-0.000316682
0.000298122
-1.9705e-05
-0.000339284
-4.63358e-05
0.000359856
-5.69739e-05
-6.02912e-05
-0.000235433
0.000210444
-9.60239e-06
-0.000249125
-3.82978e-06
-1.58355e-06
-2.50475e-05
0.00906735
-2.24635e-05
0.011595
-1.59962e-05
0.0135814
-1.43993e-05
0.0148486
-9.52173e-06
0.0152765
-1.475e-05
0.0148527
-1.35238e-05
0.0136362
-2.13734e-05
0.0117766
-1.83932e-05
0.00945669
-1.52003e-05
0.0068562
-7.75715e-06
0.0041233
-2.97212e-06
0.0013648
0.00615949
5.61029e-06
-4.69456e-06
-0.0019142
0.00191552
-2.01741e-07
-2.56307e-06
-0.00114367
0.00113805
1.13197e-06
-8.83104e-07
-1.62245e-06
3.84524e-07
-0.00027389
0.000273545
-3.67392e-07
-0.000278412
-4.71115e-07
0.000283222
-6.59698e-06
-2.07907e-06
-0.000107099
8.73809e-05
-0.000153446
0.000173881
-2.04308e-05
-3.98736e-05
-6.99123e-05
6.0307e-05
-7.37433e-05
-5.49215e-06
0.00905025
-8.49078e-06
0.0115874
-5.17425e-06
0.0135721
-1.03477e-06
0.01484
-8.70133e-06
0.0152704
-9.53253e-06
0.0148486
-2.55136e-05
0.0136402
-2.78137e-05
0.011786
-2.54126e-05
0.0094668
-1.88308e-05
0.00686713
-1.08358e-05
0.00413097
-2.08535e-06
0.00136665
0.00615078
5.25821e-06
-2.16567e-06
-0.00191059
0.00191438
1.71746e-06
1.85423e-07
-0.00113531
0.00113454
3.51185e-07
1.68276e-07
-3.65102e-07
5.28551e-07
-0.000271321
0.000272191
2.30836e-07
-0.000272402
1.69034e-07
0.000271916
-1.84914e-08
-1.18608e-07
-7.82313e-05
7.78584e-05
-7.87036e-05
8.07827e-05
3.98736e-05
2.40842e-06
0.00903917
7.01381e-06
0.0115751
5.43506e-06
0.0135655
-3.26723e-07
0.0148315
-6.99552e-06
0.0152678
-2.21745e-05
0.0148452
-2.49758e-05
0.0136373
-3.24441e-05
0.0117929
-3.01186e-05
0.00947796
-2.107e-05
0.00687718
-1.14242e-05
0.00414007
-2.79659e-06
0.00136919
0.00614856
3.50777e-06
9.77917e-07
-0.00191139
0.00191515
1.43561e-06
7.96473e-07
-0.00113418
0.00113546
-4.96145e-08
4.15754e-07
5.32939e-08
4.63854e-07
-0.000272342
0.000272582
9.69842e-08
-0.000272342
1.62168e-07
0.00027202
-2.02577e-07
2.02239e-07
-7.78802e-05
7.81033e-05
-7.77162e-05
7.78348e-05
7.87612e-06
0.00903814
6.59159e-06
0.0115738
5.79833e-06
0.0135593
2.96822e-06
0.0148215
-1.12992e-05
0.0152568
-2.82386e-05
0.0148484
-4.26647e-05
0.0136474
-4.07274e-05
0.0118034
-3.66321e-05
0.00949337
-2.67879e-05
0.00689235
-1.20313e-05
0.0041491
-3.60187e-06
0.00137259
0.00615044
3.56028e-06
2.32165e-06
-0.00191539
0.00191664
2.17516e-06
7.06607e-07
-0.00113549
0.00113664
2.4933e-07
-8.07401e-09
3.3845e-07
4.04505e-07
-0.000273355
0.000273213
6.72852e-08
-0.000272942
-1.7336e-08
0.000272584
3.45801e-08
9.42215e-08
-7.82625e-05
7.83554e-05
-7.81016e-05
7.78994e-05
7.2789e-06
0.00903732
1.23234e-05
0.0115671
8.86643e-06
0.0135533
-8.89941e-06
0.014819
-2.38868e-05
0.0152524
-3.87031e-05
0.0148443
-5.2024e-05
0.0136586
-5.54498e-05
0.0118221
-4.71062e-05
0.00951352
-2.86718e-05
0.0069088
-1.22812e-05
0.00415758
-2.67464e-06
0.00137506
0.00615212
3.43337e-06
2.03504e-06
-0.0019179
0.00191918
2.22139e-06
1.02393e-06
-0.0011364
0.00113834
3.67591e-07
-1.92626e-07
4.53411e-07
4.6674e-07
-0.00027362
0.000273861
-8.19177e-09
-0.000273822
1.84396e-07
0.000273566
-2.63898e-08
1.41566e-07
-7.84596e-05
7.85203e-05
-7.84806e-05
7.83864e-05
1.24339e-05
0.00903705
1.16015e-05
0.0115642
3.71491e-06
0.0135406
-1.00692e-05
0.0148051
-3.61024e-05
0.0152497
-5.68424e-05
0.014849
-6.68367e-05
0.0136699
-6.64695e-05
0.0118413
-5.08037e-05
0.0095355
-3.14628e-05
0.00692781
-1.54381e-05
0.00417018
-3.48938e-06
0.00137839
0.00615715
3.93257e-06
3.36439e-06
-0.00191956
0.00192189
1.03865e-06
1.63168e-06
-0.00113919
0.00114061
3.07914e-07
4.434e-07
-2.03265e-07
3.5518e-07
-0.00027447
0.000274745
7.32314e-08
-0.000274842
1.6505e-07
0.000274266
3.5272e-08
-1.17652e-07
-7.88155e-05
7.88027e-05
-7.86333e-05
7.84917e-05
8.73867e-06
0.0090398
7.39409e-06
0.0115605
-6.61774e-06
0.013537
-2.90295e-05
0.0147979
-5.71611e-05
0.0152499
-8.17628e-05
0.0148638
-9.10826e-05
0.0136943
-7.84055e-05
0.0118687
-5.61903e-05
0.0095601
-3.23304e-05
0.00694457
-1.37044e-05
0.00418025
-3.94173e-06
0.00138221
0.00616082
1.77636e-06
3.18374e-06
-0.0019233
0.00192533
1.83675e-06
1.92963e-06
-0.00114188
0.00114223
3.69231e-07
2.79497e-07
-5.69277e-08
3.99109e-07
-0.000275059
0.000275562
-2.11677e-07
-0.000274808
1.80229e-07
0.000274581
-5.19024e-08
1.20036e-07
-7.88798e-05
7.89475e-05
-7.87176e-05
7.88352e-05
8.01239e-06
0.00903903
3.2385e-06
0.0115505
-1.15429e-05
0.0135194
-4.60055e-05
0.0147867
-7.90772e-05
0.0152471
-0.000102569
0.0148752
-0.000102601
0.0137184
-8.61598e-05
0.0118986
-6.15515e-05
0.00958922
-3.53217e-05
0.0069661
-1.5218e-05
0.00419146
-3.57042e-06
0.00138574
0.00616249
3.25854e-06
2.98128e-06
-0.00192769
0.00192743
1.98341e-06
7.97586e-07
-0.00114392
0.00114552
-1.78727e-07
3.67799e-07
-1.94102e-07
4.07204e-07
-0.000275861
0.000276156
5.9825e-08
-0.000275704
1.12109e-07
0.000275476
1.81208e-08
1.64245e-07
-7.91906e-05
7.89741e-05
-7.9013e-05
7.8893e-05
5.15956e-06
0.00903701
-4.93281e-06
0.0115438
-3.44463e-05
0.0135078
-7.5421e-05
0.0147829
-0.000116465
0.0152609
-0.000129851
0.0149024
-0.000125178
0.0137573
-9.58537e-05
0.0119328
-6.18079e-05
0.00961565
-3.48566e-05
0.00698569
-1.34226e-05
0.0042013
-2.82561e-06
0.00138857
0.00616306
1.69841e-06
2.77911e-06
-0.00192901
0.00193121
9.95796e-07
1.37282e-06
-0.00114549
0.00114726
-7.13936e-08
2.35472e-07
3.96145e-07
4.22743e-07
-0.000276438
0.000276478
-2.34406e-07
-0.000276201
1.199e-07
0.000275929
2.12452e-08
1.27775e-07
-7.92639e-05
7.93193e-05
-7.91541e-05
7.89899e-05
2.36109e-06
0.00902958
-1.61933e-05
0.0115254
-5.91964e-05
0.0134914
-0.000113741
0.0147801
-0.000151079
0.0152821
-0.000161844
0.014939
-0.000132822
0.0137943
-9.95012e-05
0.0119705
-6.39485e-05
0.00964474
-3.18419e-05
0.00700412
-1.31933e-05
0.0042117
-2.79221e-06
0.00139137
0.00616092
1.66499e-06
2.72828e-06
-0.00193235
0.00193306
9.29204e-07
1.60226e-06
-0.00114798
0.00114879
2.65703e-07
-1.36813e-07
3.92981e-07
2.48413e-07
-0.000277198
0.000277053
6.00775e-08
-0.000277047
7.46784e-08
0.000276824
4.01133e-08
1.93144e-07
-7.95832e-05
7.93442e-05
-7.94658e-05
7.9338e-05
-4.13883e-06
0.00901742
-3.76659e-05
0.0115038
-9.84177e-05
0.013476
-0.000157357
0.0147863
-0.000192694
0.0153128
-0.000175163
0.0149813
-0.000140409
0.0138352
-9.79192e-05
0.0120045
-5.55328e-05
0.00966845
-2.78607e-05
0.00701881
-1.11949e-05
0.00422012
-2.4893e-06
0.00139387
0.00615384
1.9035e-07
2.64528e-06
-0.00193438
0.0019351
8.82117e-07
1.38175e-06
-0.00114962
0.00115041
3.71756e-07
-2.85776e-07
3.75198e-07
3.77415e-07
-0.000277284
0.000277747
-2.13043e-07
-0.000277531
9.85114e-08
0.000277364
7.10846e-08
7.53368e-08
-7.96476e-05
7.97033e-05
-7.95752e-05
7.9382e-05
-1.37032e-05
0.00899334
-6.89777e-05
0.0114742
-0.000149597
0.0134682
-0.000214083
0.0148076
-0.000217916
0.0153556
-0.000189341
0.0150302
-0.000140801
0.013878
-8.90299e-05
0.012038
-5.12717e-05
0.00969188
-2.46486e-05
0.00703228
-8.34123e-06
0.004226
-1.40685e-06
0.00139529
0.00613898
-1.63122e-06
2.68357e-06
-0.00193609
0.00193567
5.50002e-07
1.62509e-06
-0.00115161
0.00115181
2.57025e-07
3.77977e-07
3.68387e-07
-2.00427e-07
-0.00027789
0.000278243
2.87599e-09
-0.000278283
9.42273e-08
0.000278044
6.55544e-08
1.30543e-07
-7.99435e-05
7.97252e-05
-7.98474e-05
7.9772e-05
-3.44146e-05
0.00895866
-0.000121751
0.0114463
-0.000220513
0.0134745
-0.000259869
0.0148495
-0.000236552
0.0154028
-0.000182017
0.0150714
-0.000126387
0.0139154
-7.71259e-05
0.0120638
-4.36938e-05
0.00971094
-2.11121e-05
0.00704506
-5.9151e-06
0.00423052
-1.12704e-06
0.00139643
0.00610937
-7.56512e-06
2.67022e-06
-0.00193768
0.0019354
5.83011e-07
6.45112e-07
-0.00115315
0.00115353
-5.13502e-08
1.69162e-07
3.3158e-07
-6.13906e-08
-0.000278688
0.000278834
9.65459e-08
-0.000278184
-1.36715e-07
0.000278528
7.18901e-08
1.37719e-07
-8.00098e-05
8.00075e-05
-7.99185e-05
7.97879e-05
-7.2452e-05
0.00890926
-0.00019761
0.0114233
-0.000283432
0.013498
-0.000280585
0.0148936
-0.000224064
0.0154448
-0.00016491
0.0151099
-0.000108806
0.0139471
-6.77506e-05
0.0120879
-3.74602e-05
0.00972729
-1.39264e-05
0.00705308
-4.82539e-06
0.00423426
4.21435e-08
0.00139642
0.00605509
-1.80615e-05
-2.01855e-07
-0.00193728
0.00193099
-1.33979e-06
7.67065e-07
-0.00115361
0.00115398
-2.08187e-07
3.73508e-07
3.29821e-07
2.22234e-07
-0.000279046
0.000278944
3.39156e-08
-0.000279012
1.23016e-07
0.000279141
1.22945e-08
6.07067e-08
-8.00755e-05
8.01672e-05
-8.02147e-05
8.00769e-05
-0.000140894
0.00885245
-0.000296537
0.0114364
-0.000324793
0.0135422
-0.000270321
0.0149398
-0.000200918
0.0154808
-0.000139112
0.0151402
-8.98328e-05
0.0139692
-5.28931e-05
0.0121033
-2.49877e-05
0.00973837
-9.6282e-06
0.0070579
-5.22419e-07
0.00423485
6.38488e-07
0.0013958
0.00596938
-4.53173e-05
-9.95475e-06
-0.00193206
0.00191778
-3.83907e-06
-1.29492e-06
-0.00115443
0.00115289
-3.71409e-08
1.88986e-07
3.47896e-07
-5.38625e-08
-0.000279838
0.000279531
8.33534e-08
-0.000279349
-1.26172e-07
0.00027925
1.27393e-08
1.1776e-07
-8.03577e-05
8.03862e-05
-8.02374e-05
8.01767e-05
-0.000269462
0.00882528
-0.000354962
0.0114664
-0.000303456
0.0135753
-0.000226705
0.0149656
-0.00016336
0.0155051
-0.000107261
0.0151577
-6.75749e-05
0.0139838
-3.91003e-05
0.0121175
-1.61827e-05
0.00974494
-4.27023e-06
0.00706167
1.56261e-06
0.00423397
1.21461e-06
0.0013946
0.00587316
-0.000120309
-5.29941e-05
-0.00191482
0.00188538
-1.59275e-05
-7.01754e-06
-0.00115146
0.00114739
-1.7984e-07
3.6365e-07
3.37509e-07
-2.13877e-07
-0.000279775
0.000279894
-1.72694e-07
-0.000279724
1.26143e-07
0.000279848
1.98004e-08
6.37933e-08
-8.03855e-05
8.04638e-05
-8.05142e-05
8.03964e-05
-0.000375537
0.0088458
-0.000324033
0.011487
-0.000241148
0.0135898
-0.000175248
0.0149775
-0.000120293
0.0155181
-8.1086e-05
0.0151712
-4.65787e-05
0.0139913
-2.22555e-05
0.0121235
-8.86096e-06
0.00974955
5.80973e-07
0.00706267
2.67058e-06
0.00423254
2.69415e-06
0.00139191
0.00587317
-0.000206974
-0.000168649
-0.00186181
0.0018045
-6.30342e-05
-2.94441e-05
-0.0011405
0.00112589
-1.51273e-06
1.58035e-07
4.02946e-07
-5.45744e-07
-0.000280152
0.000279868
8.89029e-08
-0.000279872
7.27912e-08
0.000280205
1.58027e-08
1.12705e-07
-8.06681e-05
8.04899e-05
-8.05447e-05
8.04809e-05
-0.000325038
0.00884666
-0.000229748
0.0114755
-0.000167197
0.0135817
-0.000123817
0.014981
-8.70151e-05
0.015524
-5.74327e-05
0.015182
-3.32101e-05
0.0140023
-1.46425e-05
0.0121293
6.65041e-07
0.00974949
4.99277e-06
0.00706037
6.76113e-06
0.00422851
3.42502e-06
0.00138848
0.00582307
-9.68283e-05
-0.000178138
-0.00176873
0.00173824
-0.00017651
-0.000132889
-0.00110047
0.00105021
-1.08842e-05
-1.92393e-06
-4.06944e-07
-3.63309e-06
-0.000279731
0.000278437
-2.33046e-07
-0.00027976
1.76194e-07
0.000280204
5.6327e-08
-1.06973e-07
-8.06861e-05
8.07699e-05
-8.06159e-05
8.05032e-05
-0.000177819
0.00879473
-0.000140989
0.0114493
-0.000111306
0.0135692
-8.09392e-05
0.0149749
-5.68081e-05
0.0155234
-3.34886e-05
0.0151823
-1.67743e-05
0.0140044
-3.07489e-06
0.0121331
6.06544e-06
0.00974843
1.22734e-05
0.00705488
1.0161e-05
0.00422178
3.97404e-06
0.00138448
0.00572435
-1.7729e-05
-6.14448e-05
-0.00169509
0.00165574
-5.74923e-05
-0.000135
-0.000969974
0.000923828
-6.64946e-05
-6.38923e-05
-1.45382e-05
-3.81176e-05
-0.000273473
0.000264393
-1.81278e-06
-0.000274814
-5.90165e-07
0.000278232
-2.10258e-07
-2.19773e-07
-8.08903e-05
8.06525e-05
-8.07167e-05
8.08237e-05
-8.27449e-05
0.00873629
-7.77976e-05
0.0114156
-6.58885e-05
0.013554
-5.01731e-05
0.0149683
-3.32654e-05
0.0155232
-1.63968e-05
0.0151819
-2.34373e-06
0.0140037
1.0388e-05
0.0121288
1.52531e-05
0.00974547
1.48762e-05
0.00705018
1.02194e-05
0.00421554
5.05891e-06
0.00137938
0.00565955
1.27895e-07
-1.80616e-05
-0.00161724
0.00160671
-7.1959e-06
-2.29504e-05
-0.000857786
0.000808403
-1.36175e-06
-6.76409e-06
-4.91759e-05
-1.97936e-05
-0.000184808
0.000159142
-4.08373e-05
-0.000226075
-2.26284e-05
0.000253936
-4.08515e-06
-1.02596e-05
-7.96283e-05
7.78127e-05
-8.02205e-05
8.04402e-05
-3.88467e-05
0.00869742
-4.0573e-05
0.0113904
-3.58356e-05
0.0135397
-2.72951e-05
0.0149623
-1.50612e-05
0.0155218
-2.8746e-06
0.0151825
1.24836e-05
0.0140016
1.60552e-05
0.012128
2.14759e-05
0.00973888
1.88614e-05
0.00704154
1.46259e-05
0.00420595
5.32545e-06
0.00137398
0.00562437
3.31043e-06
-7.06167e-06
-0.0015923
0.00159281
-3.73854e-07
-3.6578e-06
-0.000786167
0.000778948
2.76804e-07
-2.65073e-07
-7.2857e-07
1.1103e-08
-8.34038e-05
8.20394e-05
-9.01701e-05
0.000109964
-4.08377e-05
-6.3467e-05
7.37266e-05
-1.69681e-05
0.00867355
-2.00287e-05
0.0113743
-1.6365e-05
0.0135287
-5.54937e-06
0.0149528
2.12716e-06
0.0155168
1.40102e-05
0.0151809
1.75129e-05
0.0140001
2.70841e-05
0.0121224
2.71269e-05
0.00973063
2.52882e-05
0.00703087
1.70185e-05
0.00419424
6.10389e-06
0.0013678
0.00560765
3.97989e-06
-4.19099e-06
-0.00158674
0.00158892
1.14542e-06
-9.82121e-07
-0.000775219
0.000774777
1.04562e-07
-4.07446e-08
-3.62259e-08
1.01361e-07
-8.1056e-05
8.13308e-05
-8.13215e-05
8.13104e-05
-3.58219e-06
0.00865726
-6.45363e-06
0.0113645
-1.08489e-06
0.0135243
6.28539e-06
0.0149487
1.71106e-05
0.0155137
2.31726e-05
0.0151753
3.49543e-05
0.0139923
3.61162e-05
0.0121134
3.59518e-05
0.00971997
3.06154e-05
0.00701725
1.90092e-05
0.00418127
6.94511e-06
0.00136074
0.00560229
3.65395e-06
-1.98941e-06
-0.00158459
0.00158844
1.42244e-07
1.37849e-07
-0.000773544
0.000774602
1.89902e-07
-1.02237e-07
1.10527e-07
1.46399e-07
-8.13531e-05
8.14581e-05
-8.13949e-05
8.12935e-05
7.63905e-07
0.00864969
4.15531e-06
0.011359
8.60936e-06
0.0135219
1.60054e-05
0.0149498
2.86485e-05
0.0155083
3.58391e-05
0.0151744
3.76001e-05
0.0139908
4.16918e-05
0.0121077
3.98399e-05
0.00971073
3.47306e-05
0.00700149
2.24255e-05
0.00416573
7.85254e-06
0.00135278
0.00560089
3.07911e-06
-8.75063e-07
-0.00158605
0.00158876
9.61067e-07
4.12704e-07
-0.000774575
0.000774813
3.87973e-08
-1.38088e-07
9.07353e-08
6.86175e-08
-8.16155e-05
8.18057e-05
-8.17164e-05
8.157e-05
4.11098e-06
0.00865
1.15913e-05
0.0113563
1.99409e-05
0.0135181
2.88196e-05
0.0149497
3.40872e-05
0.0155101
4.78521e-05
0.0151642
5.37012e-05
0.0139788
5.54022e-05
0.0120921
4.88195e-05
0.00969661
4.01268e-05
0.00698373
2.4987e-05
0.0041485
8.78004e-06
0.00134389
0.00560151
3.21773e-06
1.3711e-07
-0.00158797
0.00159002
1.02515e-06
-1.0762e-07
-0.000775119
0.000776129
6.73289e-08
-1.25882e-07
5.27591e-08
6.37525e-08
-8.18249e-05
8.18655e-05
-8.1964e-05
8.18954e-05
8.77785e-06
0.00865241
1.72343e-05
0.0113587
2.38868e-05
0.013523
3.95944e-05
0.0149442
5.09788e-05
0.015507
5.67365e-05
0.0151612
5.94173e-05
0.0139748
6.24634e-05
0.0120784
5.78133e-05
0.00967887
4.60575e-05
0.0069626
2.88917e-05
0.00412833
9.73874e-06
0.00133407
0.0056067
3.44767e-06
2.44539e-07
-0.00158943
0.0015919
7.66297e-07
7.36279e-07
-0.000775874
0.000776826
-3.11665e-08
7.84339e-08
4.96056e-08
8.58034e-08
-8.18606e-05
8.19271e-05
-8.19842e-05
8.19205e-05
1.07283e-05
0.00865931
2.00019e-05
0.0113629
3.49886e-05
0.0135278
4.50524e-05
0.0149502
5.56418e-05
0.0155082
6.65502e-05
0.015154
7.34271e-05
0.0139638
7.12045e-05
0.012065
6.64366e-05
0.00965843
5.05231e-05
0.0069409
3.22178e-05
0.00410578
1.12997e-05
0.00132271
0.00561217
3.72701e-06
1.42607e-06
-0.00159135
0.00159398
8.36057e-07
7.81771e-07
-0.000777427
0.000778052
8.78628e-08
4.2427e-08
4.72142e-08
9.71727e-08
-8.21352e-05
8.21036e-05
-8.20596e-05
8.19738e-05
1.31204e-05
0.00866575
2.53271e-05
0.0113722
3.79085e-05
0.0135348
5.37735e-05
0.0149521
6.89406e-05
0.0155057
7.72747e-05
0.0151502
8.4736e-05
0.0139502
8.21972e-05
0.0120492
7.50847e-05
0.00963382
5.97941e-05
0.00691327
3.52043e-05
0.00408186
1.26593e-05
0.00131006
0.00562106
3.90263e-06
5.27336e-07
-0.0015946
0.00159739
1.02313e-06
8.32777e-07
-0.000778882
0.000779572
9.51609e-08
4.12912e-08
-1.42937e-07
8.28431e-08
-8.2295e-05
8.23829e-05
-8.22503e-05
8.21531e-05
1.5267e-05
0.0086763
2.89736e-05
0.0113816
4.62097e-05
0.0135426
6.10034e-05
0.0149601
7.79007e-05
0.0155051
8.90469e-05
0.0151458
9.36361e-05
0.0139387
9.75439e-05
0.0120266
8.56785e-05
0.00960788
6.70955e-05
0.00688134
4.12342e-05
0.00405328
1.37086e-05
0.00129641
0.00563045
4.11431e-06
1.65299e-06
-0.00159703
0.00159999
1.01593e-06
8.88405e-07
-0.000780228
0.000781252
1.41175e-07
-1.0901e-07
3.81379e-08
1.61329e-07
-8.23587e-05
8.24572e-05
-8.23201e-05
8.22373e-05
1.59877e-05
0.00868872
3.27899e-05
0.0113945
5.41113e-05
0.0135493
7.5028e-05
0.0149629
9.0519e-05
0.0155036
0.000104473
0.015135
0.000110956
0.0139252
0.000107777
0.0120045
9.74222e-05
0.00957752
7.40531e-05
0.00684851
4.49711e-05
0.0040221
1.34067e-05
0.00128317
0.00564199
4.01551e-06
6.43027e-07
-0.00160076
0.00160391
1.082e-06
9.32034e-07
-0.000781989
0.000783076
1.03278e-07
-1.41301e-07
3.43908e-08
1.18041e-07
-8.25593e-05
8.27085e-05
-8.26625e-05
8.25011e-05
1.86206e-05
0.00870339
3.8726e-05
0.0114103
6.09018e-05
0.0135636
8.37501e-05
0.0149697
0.000101683
0.0155064
0.000115117
0.0151308
0.000124969
0.013908
0.000118375
0.0119835
0.00010802
0.00954353
8.46928e-05
0.00680884
4.96883e-05
0.00398598
1.79199e-05
0.00126546
0.00565616
2.76323e-06
1.39055e-06
-0.00160367
0.00160689
8.70103e-07
8.83069e-07
-0.000783896
0.00078506
-4.64794e-08
1.91573e-08
2.28518e-08
1.22556e-07
-8.27208e-05
8.28343e-05
-8.28615e-05
8.27435e-05
2.27045e-05
0.00871856
4.43179e-05
0.0114262
7.17551e-05
0.0135754
9.24253e-05
0.014979
0.00011556
0.015506
0.000131159
0.0151246
0.000138537
0.0138878
0.000138128
0.0119534
0.000121401
0.00950685
9.29387e-05
0.00676571
5.35385e-05
0.00395055
3.89011e-05
0.00122669
0.00567108
4.75596e-06
3.07451e-06
-0.00160816
0.00161226
-1.28334e-06
1.68065e-07
-0.000785787
0.000786446
1.87052e-07
5.20279e-08
1.41137e-08
1.43877e-07
-8.30169e-05
8.29812e-05
-8.29887e-05
8.28661e-05
2.76652e-05
0.00873585
5.28225e-05
0.0114457
7.76233e-05
0.0135905
0.000107052
0.0149876
0.000131151
0.015506
0.000149127
0.015114
0.000156217
0.0138697
0.000149083
0.0119257
0.000135641
0.00946426
0.000101623
0.00671778
8.85469e-05
0.00390103
8.24156e-05
0.00568538
7.65498e-06
5.26492e-06
-0.00161847
0.00161739
-1.04291e-06
6.80031e-06
-3.1863e-06
-0.000786718
0.000785362
9.97468e-08
-3.757e-08
-1.44066e-08
-5.88719e-08
-8.31928e-05
8.33896e-05
-8.314e-05
8.29961e-05
3.25854e-05
0.0087552
5.59313e-05
0.0114667
8.72441e-05
0.0136102
0.000116273
0.0150025
0.000143648
0.0155115
0.000162892
0.0151073
0.000172453
0.0138463
0.000170263
0.0118912
0.000147198
0.00941882
0.00013465
0.00667178
0.000152472
0.00570384
7.87091e-06
6.4076e-06
-0.00162067
0.00162387
2.76482e-06
1.67638e-06
2.35671e-06
-3.39904e-07
-0.000488339
0.000493938
-6.6362e-06
-0.000463103
-1.84739e-05
0.000319153
2.12239e-09
-1.49168e-07
-8.32957e-05
8.33952e-05
-8.33248e-05
8.33837e-05
3.35005e-05
0.00877849
6.48637e-05
0.0114898
9.76834e-05
0.013629
0.000135504
0.0150107
0.000165802
0.0155087
0.000185132
0.0150948
0.00019311
0.0138236
0.000187092
0.0118514
0.000179145
0.0093744
0.000201729
0.00572437
6.87636e-06
5.61702e-06
-0.00162654
0.00163139
1.91589e-06
1.07905e-06
2.27499e-06
1.48317e-06
-0.000499754
0.000501157
1.41264e-06
-0.000498779
7.10409e-07
-0.000495839
-5.44856e-07
-2.23314e-06
-0.000297542
0.000292189
-1.31199e-06
3.11785e-06
8.33809e-05
8.32189e-05
3.73209e-05
0.00880506
7.06156e-05
0.0115161
0.000110352
0.013654
0.000147683
0.0150289
0.000179246
0.0155148
0.000204441
0.0150837
0.000208573
0.0138024
0.000215492
0.0118152
0.0002376
0.00574741
7.54083e-06
6.94025e-06
-0.00163438
0.00163867
1.58277e-06
9.70957e-07
1.80038e-06
8.60753e-07
-0.000503857
0.0005048
1.02077e-06
-0.000503172
3.91992e-07
-0.000501847
9.83873e-07
8.01092e-07
-0.000291406
0.000292667
1.36551e-07
-0.000290768
9.84601e-08
-0.000290978
-3.22101e-07
-1.02221e-06
-8.63368e-05
8.50123e-05
4.14294e-05
0.00883524
8.1158e-05
0.0115461
0.000124589
0.0136776
0.00016803
0.0150403
0.00020195
0.0155172
0.000218924
0.0150731
0.000240934
0.0137769
0.000259974
0.00577261
8.19507e-06
7.49282e-06
-0.00164298
0.00164766
1.7278e-06
1.08212e-06
1.6391e-06
1.01353e-06
-0.000506652
0.000507505
7.7385e-07
-0.000506269
5.87338e-07
-0.000504849
4.17568e-07
8.17345e-07
-0.000294039
0.000294822
2.08761e-07
-0.000293859
2.34276e-07
-0.000293165
2.98892e-07
3.0219e-07
-8.377e-05
8.39086e-05
-8.36679e-05
-8.39901e-05
4.80758e-05
0.00886734
8.91861e-05
0.0115809
0.0001396
0.013706
0.000184536
0.0150576
0.000215703
0.0155203
0.000249528
0.0150646
0.000270255
0.00580463
9.14201e-06
7.26463e-06
-0.00165233
0.00165749
1.8055e-06
1.17774e-06
1.75386e-06
1.10786e-06
-0.000509446
0.000510766
4.55965e-07
-0.000509028
6.55825e-07
-0.000508029
6.67638e-07
4.92819e-07
-0.000296294
0.000296866
1.63208e-07
-0.000295851
1.66191e-07
-0.000295436
5.49024e-09
1.98196e-07
-8.47445e-05
8.49508e-05
-8.45093e-05
-8.42108e-05
5.25658e-05
0.0089054
0.000104499
0.0116171
0.000158061
0.0137324
0.000201269
0.0150715
0.000242093
0.0155275
0.000264832
0.00583767
1.00168e-05
9.14304e-06
-0.00166146
0.00166746
1.96757e-06
1.1186e-06
2.08716e-06
1.21325e-06
-0.000512874
0.000513849
8.68979e-07
-0.000511978
2.77944e-07
-0.000510917
7.31672e-07
9.62364e-07
-0.00029834
0.000298568
1.87554e-07
-0.000297672
8.56916e-09
-0.000297189
1.84022e-07
1.63423e-07
-8.53162e-05
8.54746e-05
-8.51514e-05
-8.5149e-05
6.14092e-05
0.00894743
0.000117312
0.0116563
0.000171127
0.0137614
0.000218939
0.0150943
0.000245107
0.00587717
1.16968e-05
1.07711e-05
-0.001673
0.00167945
2.21241e-06
1.33034e-06
2.26297e-06
1.39213e-06
-0.000516206
0.000517279
9.51754e-07
-0.000515818
7.1771e-07
-0.000514088
3.81405e-07
9.73528e-07
-0.000299937
0.000300764
-1.29858e-08
-0.000299816
1.78286e-07
-0.000299292
2.08894e-07
2.31968e-07
-8.58239e-05
8.60064e-05
-8.58174e-05
-8.56381e-05
7.30455e-05
0.00899289
0.000136823
0.011691
0.000187521
0.0137928
0.000209292
0.00592301
1.45604e-05
1.22176e-05
-0.0016861
0.00169371
2.4858e-06
1.60264e-06
2.53596e-06
1.62e-06
-0.000519956
0.00052144
7.93994e-07
-0.000519461
8.31717e-07
-0.000518015
8.63821e-07
6.63771e-07
-0.00030221
0.000303093
2.40927e-08
-0.000301725
2.54372e-07
-0.00030154
1.89438e-07
1.86391e-07
-8.66181e-05
8.65953e-05
-8.64425e-05
-8.62383e-05
9.03181e-05
0.00903854
0.000146201
0.0117317
0.000165246
0.00597665
2.05302e-05
1.65228e-05
-0.00170112
0.00171084
2.33923e-06
2.5111e-06
2.33519e-06
2.50731e-06
-0.000524661
0.000525949
1.28309e-06
-0.000523595
5.44735e-07
-0.000522004
1.00031e-06
1.06901e-06
-0.000304813
0.00030533
2.34047e-07
-0.000304184
2.35626e-07
-0.000303547
2.30581e-07
2.02981e-07
-8.72129e-05
8.72321e-05
-8.6963e-05
-8.67817e-05
0.000106946
0.0090786
0.000115765
0.00602972
3.18167e-05
2.26678e-05
-0.00172081
0.00173294
4.74298e-06
3.69329e-06
3.49142e-06
3.08722e-06
-0.000530308
0.000531244
1.44186e-06
-0.000528906
1.12463e-06
-0.000527268
7.30821e-07
1.19833e-06
-0.000307404
0.000308411
2.49747e-07
-0.000307046
2.4975e-07
-0.00030612
9.46402e-08
2.77426e-07
-8.78944e-05
8.8129e-05
-8.76607e-05
-8.74351e-05
7.66483e-05
2.88439e-05
4.75249e-05
-0.00174516
0.00176171
9.54649e-06
6.08116e-06
5.57382e-06
4.91241e-06
-0.000537292
0.000539507
2.52571e-06
-0.000535297
1.69616e-06
-0.000532885
1.08472e-06
1.44243e-06
-0.000310835
0.000311962
2.87325e-07
-0.000309788
1.12771e-07
-0.000309339
2.87729e-07
2.66322e-07
-8.87554e-05
8.90162e-05
-8.84995e-05
-8.84064e-05
-0.00178029
1.32532e-05
2.36793e-05
1.77125e-05
1.13129e-05
-0.00054764
0.000552604
4.65804e-06
-0.000544727
3.19094e-06
-0.000542133
2.97224e-06
2.26255e-06
-0.000315013
0.000316912
5.34272e-07
-0.00031377
4.3794e-07
-0.000313073
3.66225e-07
3.19875e-07
-8.96775e-05
8.99636e-05
-8.9567e-05
-8.92825e-05
-0.000568297
1.60814e-05
-0.000561812
1.72587e-05
-0.000556009
1.1951e-05
7.91298e-06
-0.000322977
0.000326357
1.25359e-06
-0.00032065
8.39534e-07
-0.000318552
8.20076e-07
5.9149e-07
-9.1066e-05
9.15611e-05
-9.0641e-05
-9.02835e-05
-0.000344835
2.25523e-05
-0.000338559
1.10014e-05
-0.000331907
5.3043e-06
2.35799e-06
-9.37648e-05
9.5002e-05
-9.29484e-05
-9.21525e-05
-0.000113662
-0.000102661
-9.736e-05
-2.61554e-05
2.59204e-05
1.37074e-05
-3.97145e-05
-0.000111833
0.000100957
3.64454e-05
3.72078e-05
-0.000135152
6.78857e-06
-4.6218e-05
3.077e-05
6.98162e-05
-0.000219606
0.00020991
4.5724e-05
5.84904e-05
-0.000240746
2.19023e-05
-0.000150001
3.07848e-06
-4.91047e-05
4.33013e-05
0.000196901
1.27523e-05
5.67678e-05
-0.000733469
0.000103347
0.000719001
-3.2622e-05
0.000139127
-0.000780876
-0.000251386
1.33877e-05
-0.000160071
1.39266e-06
-5.0363e-05
2.64142e-05
0.000183037
5.01439e-06
5.16861e-05
-9.49473e-05
-0.0023478
0.00222229
0.000322797
-1.59815e-05
0.000666403
-6.37186e-05
0.000326149
-0.00246882
-2.79051e-05
-0.000806266
-9.74342e-06
-0.000265856
6.39792e-06
-0.000164984
8.95044e-07
-5.13201e-05
0.000172113
1.54188e-06
5.02688e-05
-4.06464e-05
0.000276005
-0.0027567
0.0026087
0.000469707
-5.80325e-06
-5.59212e-06
0.00045569
-0.00288395
-7.89078e-05
0.000284998
-0.00264193
-2.86933e-05
-0.000862342
-1.64627e-05
-6.2756e-06
-0.000269148
5.65792e-06
-0.000169647
9.29009e-07
-5.22425e-05
0.000167893
1.31257e-06
4.90249e-05
0.00046681
-0.00234355
0.00220295
0.000609755
0.000163625
0.00057255
-0.00245807
0.00042796
-0.00302343
0.000267916
-6.30057e-05
-0.00280795
-3.40949e-05
-0.00087696
-1.04765e-05
-3.21828e-06
-0.000279967
-3.42461e-06
-0.000282844
-0.000172148
9.28096e-07
-5.32271e-05
5.85638e-07
0.000627748
-0.00114985
0.00104312
0.000715157
0.000657641
-0.00123266
0.000528907
-0.00255452
0.000402325
-0.00315344
-0.000918751
-1.24813e-05
-8.49974e-06
0.000254974
-6.3347e-05
-0.0029554
-3.78136e-05
-0.000930691
-1.56529e-05
-5.79007e-06
-0.000289098
-4.27449e-06
-0.000289582
-2.73097e-06
-0.000175529
7.587e-07
-5.40372e-05
0.000741609
0.000770697
-0.000823417
0.000766714
0.000692804
0.000738309
0.000586689
-0.00128571
0.000481214