/*--------------------------------*- C++ -*----------------------------------*\
| =========                 |                                                 |
| \\      /  F ield         | OpenFOAM: The Open Source CFD Toolbox           |
|  \\    /   O peration     | Version:  v1912                                 |
|   \\  /    A nd           | Website:  www.openfoam.com                      |
|    \\/     M anipulation  |                                                 |
\*---------------------------------------------------------------------------*/
FoamFile
{
    version     2.0;
    format      ascii;
    class       volScalarField;
    location    "20";
    object      p;
}
// * * * * * * * * * * * * * * * * * * * * * * * * * * * * * * * * * * * * * //

dimensions      [0 2 -2 0 0 0 0];


internalField   nonuniform List<scalar> 
3675
(
-0.2555
-0.26102
-0.245487
-0.250804
-0.236199
-0.259071
-0.24133
-0.227932
-0.267166
-0.249124
-0.232929
-0.220783
-0.272273
-0.256559
-0.240325
-0.225677
-0.214717
-0.273591
-0.260976
-0.24715
-0.232785
-0.219497
-0.209599
-0.272469
-0.261705
-0.250906
-0.239126
-0.226394
-0.214251
-0.205209
-0.270675
-0.260191
-0.251083
-0.242334
-0.232426
-0.220985
-0.209709
-0.201291
-0.269272
-0.258219
-0.249211
-0.242044
-0.235268
-0.226832
-0.216297
-0.205618
-0.197617
-0.268681
-0.256861
-0.247089
-0.239872
-0.234667
-0.2295
-0.222057
-0.212062
-0.201746
-0.193982
-0.269262
-0.256499
-0.24579
-0.237645
-0.232298
-0.228753
-0.224686
-0.217775
-0.208015
-0.197897
-0.190264
-0.271343
-0.257448
-0.245657
-0.236423
-0.229999
-0.22629
-0.223927
-0.220444
-0.21368
-0.203962
-0.193955
-0.18636
-0.274652
-0.259945
-0.24692
-0.236509
-0.228837
-0.22395
-0.221456
-0.219755
-0.216416
-0.209555
-0.199798
-0.189841
-0.182226
-0.27816
-0.263614
-0.249699
-0.238055
-0.229091
-0.222793
-0.21908
-0.21733
-0.215842
-0.212353
-0.205283
-0.195458
-0.185501
-0.177816
-0.28442
-0.26711
-0.27926
-0.253541
-0.241051
-0.23086
-0.2231
-0.217858
-0.21493
-0.213502
-0.211905
-0.208119
-0.200822
-0.190897
-0.180908
-0.173151
-0.291578
-0.288089
-0.272137
-0.257062
-0.26742
-0.281709
-0.244943
-0.234068
-0.224951
-0.218087
-0.2136
-0.211099
-0.209681
-0.207801
-0.203675
-0.196123
-0.186081
-0.176071
-0.168264
-0.294729
-0.292613
-0.289908
-0.274605
-0.26156
-0.248525
-0.257209
-0.268741
-0.282922
-0.285715
-0.238128
-0.22824
-0.219853
-0.213658
-0.209657
-0.207308
-0.205703
-0.203456
-0.198951
-0.191137
-0.181015
-0.171032
-0.163239
-0.29668
-0.299203
-0.295502
-0.29213
-0.27817
-0.275229
-0.263664
-0.253103
-0.241955
-0.250169
-0.258737
-0.268518
-0.270652
-0.284685
-0.288306
-0.232379
-0.223045
-0.215221
-0.209514
-0.205785
-0.20339
-0.201481
-0.198807
-0.193907
-0.18587
-0.175742
-0.165867
-0.158152
-0.299127
-0.302152
-0.297257
-0.293692
-0.280386
-0.276378
-0.266112
-0.262808
-0.255372
-0.246974
-0.236295
-0.244236
-0.25264
-0.259316
-0.260706
-0.267346
-0.271837
-0.286035
-0.289889
-0.227094
-0.218203
-0.210828
-0.205458
-0.201829
-0.199249
-0.196936
-0.193779
-0.188512
-0.180364
-0.170351
-0.160666
-0.153099
-0.300819
-0.303982
-0.281753
-0.277508
-0.268154
-0.261338
-0.258017
-0.256706
-0.249793
-0.241284
-0.230927
-0.238647
-0.246993
-0.254178
-0.255453
-0.26046
-0.26122
-0.268686
-0.273306
-0.222036
-0.213535
-0.206513
-0.201358
-0.197683
-0.19478
-0.191973
-0.18835
-0.182833
-0.174713
-0.164941
-0.155511
-0.148148
-0.2722
-0.259321
-0.258125
-0.252744
-0.251414
-0.244161
-0.235732
-0.225663
-0.233139
-0.241343
-0.248662
-0.249961
-0.255734
-0.256942
-0.21708
-0.208919
-0.20217
-0.1971
-0.193225
-0.189883
-0.186563
-0.18257
-0.176962
-0.169049
-0.159606
-0.150477
-0.14336
-0.254339
-0.252973
-0.247115
-0.245762
-0.238481
-0.230213
-0.220434
-0.227639
-0.235645
-0.242889
-0.244211
-0.250254
-0.251589
-0.212137
-0.204258
-0.197692
-0.192561
-0.188349
-0.184516
-0.180763
-0.176572
-0.171075
-0.163487
-0.154415
-0.145598
-0.138767
-0.248721
-0.247264
-0.24128
-0.239919
-0.232763
-0.224708
-0.215191
-0.222158
-0.229935
-0.237014
-0.238337
-0.244379
-0.245777
-0.207136
-0.199482
-0.192972
-0.187636
-0.183022
-0.178757
-0.174729
-0.170534
-0.165296
-0.158103
-0.149402
-0.140908
-0.134388
-0.242788
-0.241306
-0.235393
-0.234041
-0.227071
-0.219218
-0.20991
-0.216699
-0.224276
-0.231153
-0.232464
-0.238385
-0.239793
-0.202048
-0.194505
-0.187925
-0.182319
-0.177331
-0.172763
-0.168648
-0.164621
-0.159742
-0.152944
-0.144583
-0.136411
-0.130238
-0.236795
-0.235318
-0.229553
-0.228225
-0.221443
-0.213754
-0.204594
-0.211266
-0.218693
-0.2254
-0.226682
-0.232426
-0.233824
-0.196827
-0.189304
-0.182581
-0.1767
-0.171442
-0.166739
-0.162697
-0.158944
-0.154437
-0.147992
-0.139941
-0.132108
-0.12632
-0.230869
-0.229426
-0.223833
-0.222541
-0.215906
-0.208335
-0.199242
-0.20588
-0.213212
-0.219785
-0.22103
-0.226616
-0.227974
-0.191505
-0.183921
-0.177032
-0.170949
-0.165543
-0.160842
-0.156986
-0.153553
-0.149391
-0.143239
-0.135468
-0.128001
-0.122647
-0.225106
-0.223708
-0.218258
-0.217003
-0.210474
-0.202963
-0.193894
-0.200548
-0.207834
-0.214322
-0.215536
-0.220985
-0.222292
-0.186118
-0.17845
-0.17143
-0.165218
-0.159775
-0.155184
-0.151573
-0.148441
-0.144558
-0.138649
-0.131163
-0.124114
-0.119202
-0.219518
-0.218171
-0.212836
-0.211603
-0.205143
-0.197656
-0.188572
-0.19528
-0.202553
-0.20899
-0.210179
-0.21553
-0.216801
-0.180739
-0.172985
-0.165872
-0.159613
-0.15422
-0.149798
-0.146444
-0.143576
-0.13992
-0.134222
-0.127042
-0.120418
-0.115936
-0.21411
-0.212793
-0.207534
-0.20633
-0.199903
-0.192406
-0.18329
-0.190064
-0.197348
-0.203763
-0.20493
-0.210212
-0.21147
-0.175393
-0.167581
-0.160433
-0.154181
-0.148897
-0.144684
-0.141571
-0.138916
-0.135441
-0.129965
-0.123102
-0.116898
-0.112714
-0.208832
-0.207542
-0.202328
-0.201143
-0.19472
-0.187193
-0.178035
-0.184879
-0.192184
-0.198604
-0.199753
-0.205006
-0.206244
-0.170095
-0.16226
-0.155109
-0.148922
-0.143799
-0.139812
-0.136917
-0.13445
-0.131157
-0.125907
-0.11936
-0.113423
-0.109448
-0.20365
-0.202374
-0.19717
-0.196003
-0.189563
-0.181985
-0.172786
-0.179682
-0.187027
-0.193466
-0.194607
-0.199858
-0.201086
-0.164815
-0.156991
-0.149891
-0.143828
-0.138918
-0.135166
-0.132473
-0.130189
-0.127098
-0.122059
-0.11567
-0.109895
-0.106023
-0.198506
-0.197244
-0.192027
-0.190861
-0.184382
-0.176748
-0.167491
-0.174438
-0.181835
-0.188315
-0.189459
-0.194722
-0.195948
-0.15952
-0.151766
-0.144768
-0.138895
-0.134243
-0.130732
-0.128256
-0.126186
-0.123275
-0.118319
-0.111978
-0.106278
-0.102552
-0.193373
-0.192087
-0.186853
-0.185683
-0.179153
-0.171441
-0.162112
-0.169108
-0.176573
-0.183109
-0.184257
-0.189563
-0.190811
-0.15419
-0.146565
-0.139741
-0.134153
-0.129805
-0.12656
-0.124326
-0.122468
-0.119705
-0.114805
-0.108393
-0.102583
-0.0986278
-0.188198
-0.186899
-0.181612
-0.180447
-0.173833
-0.166012
-0.156596
-0.16364
-0.171195
-0.177827
-0.178979
-0.184341
-0.185604
-0.148833
-0.141428
-0.13488
-0.129657
-0.125646
-0.12269
-0.120768
-0.119229
-0.116542
-0.111365
-0.10458
-0.0984372
-0.0941826
-0.18295
-0.18165
-0.176286
-0.175102
-0.168377
-0.160388
-0.150925
-0.157946
-0.16566
-0.172414
-0.173589
-0.179039
-0.180314
-0.143578
-0.136383
-0.130258
-0.12546
-0.121827
-0.119335
-0.11783
-0.116381
-0.113512
-0.107961
-0.100542
-0.093746
-0.0888144
-0.177617
-0.176283
-0.170815
-0.16961
-0.162696
-0.154469
-0.145403
-0.151894
-0.159829
-0.166827
-0.16803
-0.173602
-0.174914
-0.138394
-0.13153
-0.126006
-0.121737
-0.118602
-0.116502
-0.115297
-0.113946
-0.110585
-0.103997
-0.0956194
-0.0881653
-0.082655
-0.172138
-0.17077
-0.165128
-0.16388
-0.156632
-0.148204
-0.140218
-0.145766
-0.153468
-0.1609
-0.162173
-0.167985
-0.169343
-0.133223
-0.127263
-0.1223
-0.118433
-0.115813
-0.114289
-0.113193
-0.111234
-0.106927
-0.0993671
-0.0900469
-0.081808
-0.0755627
-0.166448
-0.165001
-0.159024
-0.157678
-0.149807
-0.142838
-0.134782
-0.140027
-0.146394
-0.154318
-0.155712
-0.162003
-0.163469
-0.128873
-0.123422
-0.118884
-0.115668
-0.11358
-0.112099
-0.110648
-0.108013
-0.102531
-0.0935996
-0.083341
-0.074608
-0.0679481
-0.160303
-0.158718
-0.152029
-0.150531
-0.144589
-0.13717
-0.130446
-0.135423
-0.140924
-0.146233
-0.147984
-0.155258
-0.156947
-0.125002
-0.119967
-0.115908
-0.113026
-0.111181
-0.109692
-0.107542
-0.103539
-0.0967193
-0.0868973
-0.0760663
-0.066923
-0.0598122
-0.153206
-0.151343
-0.14334
-0.145305
-0.138357
-0.133279
-0.126594
-0.131428
-0.13674
-0.1405
-0.140279
-0.147039
-0.149137
-0.121343
-0.116512
-0.112819
-0.110416
-0.108551
-0.106247
-0.102962
-0.0978789
-0.0899445
-0.0791894
-0.0680236
-0.0588442
-0.0516636
-0.1446
-0.148847
-0.139684
-0.138977
-0.134858
-0.12926
-0.122697
-0.127456
-0.132885
-0.13734
-0.138115
-0.117559
-0.113102
-0.109692
-0.107129
-0.104755
-0.101693
-0.0972351
-0.090787
-0.081984
-0.0710632
-0.0599524
-0.0508014
-0.0435104
-0.136259
-0.135441
-0.130836
-0.125184
-0.118674
-0.123296
-0.128803
-0.133507
-0.13433
-0.113633
-0.109192
-0.105783
-0.103079
-0.0999658
-0.0956271
-0.0900319
-0.082918
-0.0736829
-0.0625661
-0.0517108
-0.0428456
-0.0357815
-0.132278
-0.131429
-0.12661
-0.120877
-0.114207
-0.11889
-0.124413
-0.129318
-0.130217
-0.109147
-0.104833
-0.101249
-0.0977823
-0.0937375
-0.0886321
-0.0822426
-0.0743799
-0.0649788
-0.0543278
-0.0439192
-0.0353048
-0.0283737
-0.127933
-0.127039
-0.122014
-0.116097
-0.109266
-0.113865
-0.119611
-0.124707
-0.12565
-0.104181
-0.0995839
-0.0955901
-0.0916712
-0.0868783
-0.0808142
-0.0738358
-0.0659424
-0.0566754
-0.0462365
-0.036284
-0.0281073
-0.021553
-0.123139
-0.122181
-0.116927
-0.110797
-0.103782
-0.108474
-0.114267
-0.119632
-0.120619
-0.0985418
-0.0938455
-0.0894479
-0.0847539
-0.0793448
-0.0730152
-0.0657563
-0.0575798
-0.048507
-0.0387035
-0.0292743
-0.0214005
-0.0151127
-0.117882
-0.116848
-0.11139
-0.105156
-0.0979906
-0.102692
-0.108647
-0.114101
-0.11512
-0.0926024
-0.0875044
-0.082738
-0.0778527
-0.072108
-0.0652683
-0.0577957
-0.0498111
-0.0409558
-0.0313912
-0.0224032
-0.0150342
-0.00903492
-0.112238
-0.11117
-0.105671
-0.0993109
-0.0919762
-0.0968943
-0.102858
-0.108383
-0.109411
-0.0863974
-0.0812543
-0.076312
-0.070997
-0.0649922
-0.0581494
-0.0505181
-0.0422394
-0.0334997
-0.0245049
-0.0160492
-0.00906166
-0.00318273
-0.106488
-0.105419
-0.0998738
-0.09345
-0.086063
-0.0909958
-0.0971119
-0.102614
-0.103632
-0.0803971
-0.0750173
-0.0699787
-0.0647747
-0.0586335
-0.0512885
-0.0433131
-0.0350647
-0.0264535
-0.0176948
-0.00983102
-0.00304069
-0.000694094
-0.100725
-0.0996697
-0.0941477
-0.0876541
-0.0802661
-0.0853505
-0.0913833
-0.096924
-0.0979203
-0.0745164
-0.0693569
-0.0643778
-0.0588638
-0.0524105
-0.0448273
-0.0364323
-0.0277764
-0.0192808
-0.0112331
-0.00363214
-0.000628233
-0.0950582
-0.0940186
-0.0884859
-0.0820656
-0.0747123
-0.0798274
-0.0858297
-0.0912755
-0.0922586
-0.0690394
-0.0639229
-0.058984
-0.0534775
-0.0465466
-0.038109
-0.0292015
-0.0205791
-0.0124862
-0.00470548
-0.000798984
-0.089428
-0.0884214
-0.0830171
-0.0766822
-0.0690558
-0.0747205
-0.0804345
-0.0857675
-0.0867049
-0.0637257
-0.0590671
-0.0540767
-0.0479099
-0.0401823
-0.0312073
-0.0219494
-0.0133857
-0.00568101
-0.00117011
-0.0839607
-0.0830053
-0.0778032
-0.071326
-0.0635669
-0.0681
-0.07558
-0.0804417
-0.0813094
-0.0588175
-0.0541555
-0.0488142
-0.0421166
-0.0334942
-0.0237165
-0.0144401
-0.00645802
-0.00155473
-0.0787333
-0.0779119
-0.0767453
-0.0726299
-0.0644828
-0.0581479
-0.0621337
-0.0697693
-0.0680663
-0.0757442
-0.0704305
-0.0764278
-0.0538541
-0.049257
-0.0433377
-0.0354307
-0.0258589
-0.0159998
-0.00731847
-0.00190272
-0.0716548
-0.0657995
-0.0642821
-0.0584782
-0.0528782
-0.05611
-0.0624835
-0.0611289
-0.0701358
-0.0682446
-0.0735326
-0.0488114
-0.0436659
-0.0368184
-0.0279587
-0.0178676
-0.0084294
-0.00230319
-0.0722944
-0.0662515
-0.064417
-0.0590052
-0.0576524
-0.0525501
-0.0474042
-0.0503749
-0.0559178
-0.0546648
-0.0625794
-0.0608475
-0.0704071
-0.0683771
-0.0432229
-0.0375553
-0.0295731
-0.0196392
-0.00973226
-0.00279827
-0.0663314
-0.0643878
-0.0590106
-0.0573279
-0.0525936
-0.0513419
-0.0467447
-0.0418194
-0.044552
-0.0497029
-0.0485809
-0.0556302
-0.0540215
-0.0624546
-0.0606134
-0.037265
-0.0304373
-0.021205
-0.0111072
-0.0033462
-0.0587658
-0.0570141
-0.0522927
-0.0507249
-0.0465545
-0.0453874
-0.0410238
-0.0359557
-0.0390566
-0.0437931
-0.0427238
-0.0491655
-0.0477014
-0.0552532
-0.0535649
-0.0305649
-0.022542
-0.0125812
-0.00389382
-0.0518622
-0.0502454
-0.0461104
-0.0446936
-0.0407843
-0.0397285
-0.0355533
-0.0299158
-0.0335897
-0.0383061
-0.0373903
-0.0432477
-0.0418939
-0.048655
-0.0471375
-0.0233108
-0.0140977
-0.00449823
-0.0456197
-0.0441882
-0.0404215
-0.0391313
-0.0356019
-0.0346703
-0.0301895
-0.023475
-0.0283827
-0.0333492
-0.0325083
-0.037859
-0.0366916
-0.0427573
-0.041376
-0.0153782
-0.00521095
-0.0399865
-0.0386824
-0.0354284
-0.0343345
-0.0308355
-0.0300064
-0.0250331
-0.0165599
-0.0232344
-0.02886
-0.0281863
-0.0332397
-0.0322416
-0.0374221
-0.0362231
-0.00578226
-0.0350513
-0.0339753
-0.0311489
-0.0302531
-0.0267495
-0.0261046
-0.0199951
-0.00637423
-0.0178919
-0.0251893
-0.0246775
-0.0294108
-0.0287089
-0.0329251
-0.031944
-0.0310021
-0.0301954
-0.0279818
-0.0274704
-0.0234787
-0.0228633
-0.012673
-0.00542258
-0.0217877
-0.0207598
-0.027037
-0.0267004
-0.0294749
-0.0289068
-0.0284472
-0.0281761
-0.026266
-0.0258244
-0.018147
-0.0158623
-0.0109363
-0.00431282
-0.0250993
-0.0238201
-0.0280141
-0.027958
-0.027883
-0.0277135
-0.0214207
-0.0180753
-0.012971
-0.004071
-0.0271406
-0.0257959
-0.0231202
-0.0189585
-0.013465
-0.00385486
-0.0129239
-0.0150906
-0.016162
-0.0167821
-0.0128279
-0.0170147
-0.0201849
-0.0141678
-0.0105482
-0.0179219
-0.0213283
-0.0148719
-0.0208437
-0.0121544
-0.0082833
-0.0253387
-0.0218338
-0.0114117
-0.0244637
-0.0106349
-0.0222269
-0.00956896
-0.00630921
-0.0326064
-0.0296274
-0.0273517
-0.0144717
-0.00452636
-0.00728337
-0.0281178
-0.0234474
-0.00784495
-0.00437359
-0.0395574
-0.0377476
-0.0310415
-0.0360526
-0.0337694
-0.0191791
-0.00743058
0.00129512
-0.000780058
-0.00357271
-0.0041819
-0.00582453
-0.0254657
-0.0268924
-0.00260041
-0.0462444
-0.0456847
-0.03493
-0.0377824
-0.0447942
-0.0287177
-0.0300365
-0.0432805
-0.0399715
-0.0245153
-0.0113434
-0.00103852
0.00572997
0.00432579
0.00207174
0.00195016
0.000609223
-0.000879678
-0.00229711
-0.000827456
-0.0544209
-0.0413275
-0.0436388
-0.0531145
-0.0514579
-0.0537181
-0.0323033
-0.033704
-0.0355577
-0.0368153
-0.0528546
-0.0503659
-0.0456693
-0.0297512
-0.0157698
-0.00427152
0.0040804
0.008676
0.00784792
0.00622778
0.00645485
0.00544239
0.00442377
0.00330625
0.00344852
0.0020856
0.00067335
-0.064907
-0.0629885
-0.0389499
-0.0402022
-0.0469414
-0.0417224
-0.0426361
-0.0559926
-0.0597761
-0.0624942
-0.0608068
-0.0568899
-0.050994
-0.0346379
-0.0200435
-0.0076711
0.00189973
0.00794286
0.0102493
0.00976251
0.00879537
0.00917094
0.00852602
0.0079907
0.00723475
0.0076552
0.00673663
0.00581022
0.00473764
-0.0771216
-0.0735212
-0.0724135
-0.0442105
-0.0454294
-0.0512214
-0.0477908
-0.0526962
-0.062656
-0.0673615
-0.0711791
-0.0680614
-0.0628125
-0.0561507
-0.0393551
-0.0240972
-0.010969
-0.000476889
0.00674316
0.0103561
0.0105039
0.0101675
0.00982919
0.0101674
0.00987647
0.00979805
0.00939282
0.00993766
0.00948357
0.00904491
0.00843889
-0.0894306
-0.0849016
-0.0731015
-0.0829034
-0.0815902
-0.0477468
-0.051397
-0.0570415
-0.0688893
-0.0599682
-0.0790655
-0.0745478
-0.0683497
-0.0613429
-0.0441488
-0.0282135
-0.0142156
-0.00281251
0.0055025
0.0102742
0.0115521
0.00972008
0.00928092
0.0094688
0.00957861
0.00960882
0.00994534
0.00988374
0.0104024
0.0103723
0.0103902
0.0102145
-0.102068
-0.0968744
-0.0802777
-0.0858866
-0.0941531
-0.0924611
-0.0901155
-0.0497006
-0.054273
-0.0664796
-0.07545
-0.0636629
-0.0572835
-0.0861319
-0.0804818
-0.0737473
-0.0666436
-0.0491639
-0.032643
-0.0177572
-0.00530209
0.00411275
0.0100464
0.0123593
0.0115793
0.00826968
0.00731097
0.00799173
0.00771217
0.00799951
0.00865236
0.0088768
0.00922297
0.00957085
0.00999075
0.0102223
-0.114442
-0.10917
-0.0932253
-0.0989406
-0.105864
-0.0818021
-0.103657
-0.101198
-0.0975576
-0.0525701
-0.0702926
-0.0637404
-0.0731043
-0.0605462
-0.0555965
-0.0924459
-0.0861085
-0.0791387
-0.0720086
-0.0543771
-0.037457
-0.0218234
-0.00832252
0.00231386
0.00953325
0.0130726
0.0132392
0.0107984
0.00611209
0.0046625
0.00560712
0.00483284
0.00535624
0.00627123
0.00672161
0.00675011
0.00737416
0.00809903
0.00865537
-0.12703
-0.121694
-0.106171
-0.111272
-0.118077
-0.0886219
-0.0953137
-0.1154
-0.0797555
-0.0768934
-0.112681
-0.109075
-0.10426
-0.0671453
-0.0620366
-0.0704255
-0.0587807
-0.0983225
-0.0916198
-0.084556
-0.077388
-0.0596919
-0.0425566
-0.0264117
-0.0120434
-0.000237093
0.00837228
0.0133183
0.0146097
0.0128891
0.00903119
0.00360695
0.00123946
0.00276583
0.000832295
0.00160168
0.00280188
0.00357859
0.00331279
0.00418544
0.00512551
0.00591844
-0.139689
-0.134425
-0.11813
-0.123443
-0.130541
-0.102193
-0.107579
-0.127451
-0.0838128
-0.0867303
-0.0937758
-0.0908395
-0.124377
-0.0773202
-0.0739127
-0.120655
-0.11602
-0.110421
-0.0654002
-0.068777
-0.104013
-0.0971107
-0.0899845
-0.0827424
-0.0650144
-0.0477834
-0.0313496
-0.0163793
-0.00361662
0.00627002
0.0127251
0.0154356
0.0147238
0.011467
0.00666009
0.0025995
-0.000316577
-5.20177e-05
-0.00317619
-0.002782
-0.00182122
-0.000229012
-0.00278842
-0.000762953
0.000878158
0.00216942
-0.15245
-0.147328
-0.130236
-0.135656
-0.143409
-0.113552
-0.119265
-0.140053
-0.0981023
-0.100989
-0.105832
-0.10457
-0.136626
-0.0810034
-0.0845296
-0.0919111
-0.0883173
-0.13261
-0.0758224
-0.0722594
-0.127857
-0.122398
-0.11627
-0.109596
-0.102592
-0.0954069
-0.0880435
-0.070282
-0.0530062
-0.0364315
-0.0210998
-0.00766415
0.00324697
0.0110586
0.0153155
0.0159199
0.0134696
0.00909281
0.00483269
0.00117544
-0.000280954
-0.00059452
-0.00405828
-0.0040291
-0.00386444
-0.00368942
-0.0065078
-0.00622732
-0.00570795
-0.00254147
-0.165549
-0.160404
-0.142707
-0.148287
-0.156529
-0.125149
-0.131017
-0.152974
-0.109486
-0.111868
-0.117027
-0.114715
-0.149169
-0.0958539
-0.0997225
-0.103642
-0.103789
-0.144825
-0.0795094
-0.0832057
-0.0907476
-0.0869949
-0.139863
-0.134363
-0.12841
-0.121991
-0.115166
-0.108086
-0.100814
-0.0932673
-0.0754558
-0.0581432
-0.0414987
-0.0259669
-0.0121031
-0.000463774
0.00841989
0.014059
0.0161372
0.0148131
0.0109751
0.00650608
0.0019627
0.000220017
0.000372603
-0.00314897
-0.00356336
-0.00391213
-0.00405113
-0.00707326
-0.0070927
-0.00700512
-0.00681145
-0.00809054
-0.00764659
-0.0070261
-0.00253092
-0.179069
-0.173699
-0.155618
-0.161351
-0.169777
-0.137351
-0.143537
-0.166133
-0.120148
-0.122694
-0.12858
-0.125967
-0.162115
-0.108922
-0.110271
-0.114901
-0.112536
-0.15752
-0.0945601
-0.0982557
-0.0998345
-0.102006
-0.152317
-0.146598
-0.140549
-0.134246
-0.127636
-0.120723
-0.113577
-0.106176
-0.0983853
-0.0805114
-0.0631502
-0.0464537
-0.0308071
-0.0166789
-0.00455199
0.00509975
0.0118281
0.0152389
0.0152181
0.0122014
0.00772039
0.00245705
-0.000159973
-6.10539e-05
-0.0013954
-0.0023452
-0.00542852
-0.00611768
-0.00661108
-0.00690058
-0.00872885
-0.00876865
-0.00867597
-0.0084528
-0.193122
-0.187313
-0.16897
-0.174852
-0.183202
-0.150144
-0.156548
-0.179484
-0.132137
-0.134801
-0.141076
-0.138361
-0.175334
-0.117704
-0.120429
-0.126285
-0.123403
-0.170499
-0.165018
-0.159048
-0.152804
-0.14644
-0.139972
-0.133279
-0.126302
-0.119054
-0.111461
-0.103365
-0.0854302
-0.0680026
-0.0512469
-0.0355155
-0.0212148
-0.00875871
0.00142941
0.00894569
0.0134187
0.0146032
0.0126099
0.00845285
0.00272087
-0.000521348
-0.00102594
-0.00294948
-0.00439267
-0.00680635
-0.00760581
-0.00817321
-0.00852345
-0.207421
-0.201294
-0.182796
-0.188849
-0.196836
-0.1634
-0.170018
-0.192934
-0.144844
-0.147593
-0.154109
-0.151326
-0.188641
-0.129489
-0.132466
-0.138769
-0.135698
-0.183639
-0.178014
-0.171887
-0.165428
-0.158831
-0.15225
-0.145664
-0.138904
-0.131852
-0.124461
-0.116615
-0.108163
-0.0901919
-0.0726882
-0.0558561
-0.0400399
-0.0256065
-0.0129142
-0.00233658
0.00574964
0.011006
0.0131755
0.0121842
0.00865071
0.00282181
-0.000943781
-0.00198881
-0.00405348
-0.00564758
-0.221338
-0.215417
-0.197138
-0.203467
-0.210681
-0.17715
-0.183985
-0.206501
-0.158041
-0.160892
-0.167666
-0.164772
-0.202029
-0.142153
-0.145256
-0.151807
-0.148654
-0.196898
-0.191171
-0.184915
-0.178246
-0.171392
-0.164585
-0.157929
-0.151323
-0.144521
-0.137355
-0.12975
-0.121589
-0.112735
-0.0947692
-0.0771956
-0.0602738
-0.0443604
-0.0298043
-0.0169237
-0.00604722
0.00247918
0.00832565
0.0112477
0.0111198
0.00832249
0.00276886
-0.235944
-0.22958
-0.211523
-0.217036
-0.224662
-0.191477
-0.198903
-0.220187
-0.171802
-0.174749
-0.181813
-0.178818
-0.215476
-0.155343
-0.158573
-0.165398
-0.162099
-0.210176
-0.204335
-0.198013
-0.191273
-0.184269
-0.177217
-0.170311
-0.163609
-0.156954
-0.150058
-0.142722
-0.134848
-0.126328
-0.117041
-0.0991257
-0.0815116
-0.0644985
-0.0484768
-0.0337925
-0.0207412
-0.00961628
-0.00073124
0.00559485
0.00911084
0.00968428
0.00760623
0.00256751
-0.250677
-0.244243
-0.225224
-0.231265
-0.238873
-0.206435
-0.21193
-0.234011
-0.186174
-0.189206
-0.196857
-0.193656
-0.228994
-0.169124
-0.172496
-0.179647
-0.176192
-0.223477
-0.217494
-0.211132
-0.204397
-0.197305
-0.190018
-0.182813
-0.175881
-0.169192
-0.162503
-0.155481
-0.14791
-0.139706
-0.13079
-0.121071
-0.103231
-0.0856119
-0.0685246
-0.052394
-0.0375785
-0.02436
-0.0130079
-0.00381473
0.0029242
0.00694761
0.00810967
0.00667999
0.00226318
-0.26609
-0.259189
-0.239285
-0.245615
-0.253465
-0.219733
-0.226097
-0.248079
-0.201906
-0.205247
-0.212151
-0.206975
-0.242625
-0.183555
-0.187044
-0.194654
-0.191003
-0.236817
-0.230645
-0.224193
-0.217446
-0.21035
-0.202994
-0.195605
-0.188401
-0.181472
-0.174738
-0.167931
-0.160703
-0.152837
-0.144272
-0.134966
-0.124882
-0.107081
-0.0894721
-0.0723381
-0.0561115
-0.041169
-0.0277885
-0.0162204
-0.00674233
0.000362391
0.00484249
0.00653366
0.00569328
0.00191353
-0.282889
-0.274734
-0.254185
-0.26063
-0.26842
-0.233146
-0.24012
-0.262499
-0.215382
-0.21783
-0.224085
-0.22138
-0.25647
-0.198873
-0.202927
-0.202065
-0.250237
-0.243804
-0.237212
-0.230432
-0.223375
-0.216038
-0.208534
-0.201064
-0.193836
-0.186906
-0.180123
-0.173173
-0.165693
-0.157485
-0.148547
-0.138891
-0.128484
-0.110682
-0.0930878
-0.0759229
-0.0596222
-0.0445654
-0.0310336
-0.0192643
-0.00951683
-0.00207144
0.0028261
0.00501006
0.00472568
0.00156407
-0.301952
-0.291481
-0.269864
-0.277833
-0.284024
-0.24766
-0.254493
-0.277356
-0.228327
-0.231101
-0.238189
-0.235366
-0.270649
-0.263827
-0.257011
-0.2502
-0.243337
-0.236291
-0.22899
-0.221468
-0.213884
-0.20645
-0.199273
-0.19231
-0.185386
-0.178197
-0.170393
-0.161836
-0.152582
-0.142622
-0.131815
-0.114132
-0.0964962
-0.0792833
-0.0629122
-0.0477633
-0.0340984
-0.0221455
-0.0121508
-0.00438374
0.000905618
0.00355257
0.00380083
0.00123461
-0.322193
-0.309901
-0.290152
-0.298801
-0.300705
-0.261451
-0.265614
-0.272859
-0.292933
-0.242875
-0.245618
-0.252524
-0.249961
-0.285331
-0.27774
-0.270352
-0.263201
-0.256179
-0.249099
-0.241829
-0.23436
-0.226784
-0.219219
-0.211776
-0.204552
-0.197506
-0.19042
-0.182964
-0.174827
-0.165941
-0.156414
-0.146199
-0.135177
-0.117425
-0.0997329
-0.0824394
-0.0659869
-0.0507494
-0.036979
-0.0248691
-0.0146491
-0.00658451
-0.000924076
0.0021629
0.00292124
0.000927265
-0.342232
-0.329363
-0.311112
-0.320015
-0.318715
-0.280273
-0.284902
-0.290633
-0.29511
-0.30955
-0.256743
-0.26757
-0.25895
-0.269304
-0.300804
-0.292202
-0.284003
-0.276308
-0.268993
-0.261808
-0.254544
-0.247118
-0.239565
-0.231959
-0.224411
-0.217028
-0.209802
-0.202614
-0.195268
-0.187482
-0.179018
-0.169837
-0.159967
-0.149405
-0.137968
-0.120427
-0.102792
-0.0854712
-0.0688975
-0.0535331
-0.0396591
-0.0274277
-0.0170175
-0.0086798
-0.00267081
0.00083548
0.00208313
0.000639012
-0.362134
-0.349001
-0.332765
-0.34069
-0.337674
-0.302132
-0.306619
-0.312621
-0.317148
-0.327319
-0.274675
-0.279858
-0.285272
-0.290594
-0.317315
-0.262507
-0.266237
-0.307506
-0.298229
-0.289716
-0.281883
-0.274454
-0.26713
-0.259731
-0.252227
-0.244671
-0.237138
-0.229658
-0.222229
-0.214862
-0.207475
-0.199853
-0.191745
-0.182995
-0.173569
-0.163377
-0.152295
-0.140546
-0.123355
-0.105846
-0.0884638
-0.0717005
-0.0561529
-0.0421433
-0.0298023
-0.0192474
-0.0106769
-0.00434367
-0.000436038
0.00128146
0.000366209
-0.381226
-0.368653
-0.35255
-0.360563
-0.357054
-0.324698
-0.329239
-0.335136
-0.338003
-0.345981
-0.296628
-0.302101
-0.30784
-0.31338
-0.334907
-0.271486
-0.276807
-0.282257
-0.287788
-0.323865
-0.31333
-0.30371
-0.295058
-0.287144
-0.279619
-0.272195
-0.264735
-0.257232
-0.24973
-0.242238
-0.234764
-0.227329
-0.219863
-0.212211
-0.204222
-0.195732
-0.186598
-0.17678
-0.166135
-0.154644
-0.142851
-0.126028
-0.108713
-0.0913209
-0.0744537
-0.0587226
-0.0444967
-0.0319984
-0.0213166
-0.012565
-0.00594874
-0.00166164
0.000511757
0.000105876
-0.399882
-0.387766
-0.371486
-0.379243
-0.376451
-0.345252
-0.349265
-0.354132
-0.357993
-0.365114
-0.319784
-0.32573
-0.332274
-0.334003
-0.353333
-0.293691
-0.29942
-0.305223
-0.31104
-0.341265
-0.329495
-0.318596
-0.308823
-0.300096
-0.292116
-0.284532
-0.27708
-0.269638
-0.262204
-0.254794
-0.247399
-0.239952
-0.232372
-0.224614
-0.216602
-0.208247
-0.199436
-0.189934
-0.179568
-0.168351
-0.156611
-0.148271
-0.128706
-0.142375
-0.111598
-0.0942652
-0.0773587
-0.0613688
-0.0468175
-0.0340644
-0.0232226
-0.0143201
-0.00747485
-0.00284564
-0.000233257
-0.000143066
-0.418456
-0.406268
-0.390531
-0.398302
-0.39535
-0.36401
-0.367871
-0.372934
-0.376832
-0.384233
-0.342664
-0.346057
-0.350509
-0.354896
-0.37219
-0.317137
-0.322937
-0.329108
-0.328561
-0.359443
-0.346676
-0.334549
-0.32349
-0.313635
-0.304852
-0.296842
-0.289265
-0.281865
-0.274523
-0.267209
-0.259894
-0.252497
-0.244964
-0.237254
-0.229249
-0.220838
-0.211984
-0.202643
-0.192587
-0.181579
-0.169825
-0.160929
-0.1553
-0.150341
-0.134728
-0.114378
-0.128886
-0.144091
-0.0971183
-0.0802198
-0.0640628
-0.0492202
-0.03614
-0.0250236
-0.015935
-0.00889869
-0.00397944
-0.000958354
-0.000384013
-0.436899
-0.424404
-0.409777
-0.417377
-0.413586
-0.383302
-0.387179
-0.392425
-0.396342
-0.402858
-0.360129
-0.364633
-0.36943
-0.373996
-0.390995
-0.377983
-0.364581
-0.351493
-0.33922
-0.328074
-0.318161
-0.309365
-0.301394
-0.293906
-0.286643
-0.279463
-0.272288
-0.265045
-0.257649
-0.249974
-0.241915
-0.233456
-0.224591
-0.215252
-0.20532
-0.194586
-0.182906
-0.173651
-0.167953
-0.162111
-0.156261
-0.152857
-0.150484
-0.137361
-0.120397
-0.0997461
-0.113656
-0.130969
-0.144569
-0.147468
-0.0830572
-0.0669754
-0.0519421
-0.0384226
-0.0268456
-0.0174459
-0.0102035
-0.00504141
-0.00165828
-0.000619223
-0.454365
-0.442142
-0.428825
-0.436156
-0.431262
-0.402995
-0.406846
-0.412097
-0.415944
-0.420776
-0.379557
-0.384179
-0.389154
-0.393818
-0.409311
-0.396431
-0.382779
-0.369114
-0.355927
-0.34358
-0.332372
-0.322441
-0.313693
-0.305846
-0.298549
-0.291502
-0.284513
-0.27746
-0.27022
-0.262668
-0.254723
-0.246315
-0.237377
-0.22791
-0.217894
-0.207222
-0.195762
-0.186488
-0.180782
-0.174497
-0.168361
-0.164076
-0.161495
-0.155852
-0.158357
-0.15368
-0.151318
-0.140273
-0.138907
-0.12292
-0.105068
-0.0854519
-0.0984984
-0.114926
-0.131174
-0.134439
-0.147118
-0.148984
-0.0697592
-0.054768
-0.0409264
-0.0288617
-0.018999
-0.011425
-0.00601231
-0.00231696
-0.000846924
-0.469038
-0.458766
-0.447482
-0.454418
-0.448293
-0.422656
-0.426419
-0.431592
-0.435287
-0.437985
-0.399514
-0.404165
-0.409183
-0.413815
-0.426916
-0.414415
-0.400848
-0.38697
-0.373265
-0.360043
-0.34765
-0.336422
-0.326536
-0.31792
-0.310291
-0.303267
-0.296489
-0.289694
-0.282697
-0.275353
-0.267542
-0.259164
-0.25019
-0.240649
-0.230536
-0.219833
-0.208455
-0.199279
-0.193623
-0.187176
-0.180941
-0.176241
-0.173551
-0.16748
-0.170123
-0.164596
-0.161806
-0.156344
-0.158985
-0.141036
-0.141259
-0.126158
-0.12269
-0.106831
-0.090299
-0.0720653
-0.0839705
-0.0992295
-0.114261
-0.11778
-0.132074
-0.136495
-0.05756
-0.043768
-0.0313322
-0.0208266
-0.012679
-0.00690293
-0.00291442
-0.00105961
-0.483329
-0.473758
-0.463155
-0.469827
-0.464337
-0.441982
-0.445547
-0.450757
-0.454354
-0.454436
-0.419575
-0.424188
-0.429157
-0.433684
-0.443729
-0.431707
-0.41846
-0.404654
-0.390793
-0.377106
-0.363866
-0.35146
-0.340272
-0.330514
-0.322131
-0.314815
-0.30812
-0.301619
-0.294971
-0.287927
-0.280327
-0.272063
-0.263081
-0.253429
-0.243165
-0.232313
-0.220963
-0.211915
-0.206343
-0.19991
-0.193675
-0.188805
-0.186074
-0.179826
-0.182546
-0.176609
-0.173633
-0.167635
-0.170533
-0.137681
-0.140442
-0.127552
-0.123316
-0.109433
-0.105946
-0.0915948
-0.0764254
-0.0597193
-0.0705649
-0.0844866
-0.0980456
-0.101418
-0.114605
-0.118832
-0.132356
-0.136451
-0.0464785
-0.0340242
-0.0229932
-0.0141482
-0.00781382
-0.00345302
-0.00124605
-0.49468
-0.488095
-0.478324
-0.483215
-0.479343
-0.461232
-0.460745
-0.46828
-0.470137
-0.470027
-0.439375
-0.443795
-0.448624
-0.452924
-0.459712
-0.448184
-0.435406
-0.421866
-0.4081
-0.39431
-0.380652
-0.367424
-0.355059
-0.343984
-0.334446
-0.326396
-0.319473
-0.313141
-0.306873
-0.300257
-0.29301
-0.284964
-0.276056
-0.266328
-0.255902
-0.244901
-0.233409
-0.224394
-0.218892
-0.212539
-0.20637
-0.201472
-0.198747
-0.192459
-0.19519
-0.189102
-0.186055
-0.179835
-0.182852
-0.128063
-0.123697
-0.110206
-0.106115
-0.0936705
-0.0904205
-0.0775028
-0.0637167
-0.0486036
-0.0583191
-0.0710223
-0.0832719
-0.086368
-0.0980781
-0.101964
-0.114854
-0.119238
-0.0366905
-0.0255795
-0.0161049
-0.00895322
-0.00399635
-0.00140117
-0.500913
-0.489838
-0.493954
-0.505936
-0.502712
-0.493388
-0.475198
-0.477637
-0.48098
-0.483054
-0.484731
-0.458646
-0.456293
-0.474873
-0.463779
-0.451549
-0.438418
-0.424904
-0.411246
-0.397527
-0.383915
-0.370751
-0.358498
-0.347623
-0.33841
-0.330776
-0.324288
-0.318302
-0.312174
-0.305418
-0.297746
-0.289032
-0.279318
-0.268753
-0.257528
-0.245868
-0.236755
-0.23129
-0.225018
-0.218928
-0.214073
-0.211369
-0.205123
-0.20784
-0.201729
-0.198673
-0.192391
-0.195436
-0.110483
-0.106267
-0.0941209
-0.0904462
-0.0793822
-0.0764098
-0.0647028
-0.0522732
-0.0387107
-0.0474417