/*--------------------------------*- C++ -*----------------------------------*\
| =========                 |                                                 |
| \\      /  F ield         | OpenFOAM: The Open Source CFD Toolbox           |
|  \\    /   O peration     | Version:  v1912                                 |
|   \\  /    A nd           | Website:  www.openfoam.com                      |
|    \\/     M anipulation  |                                                 |
\*---------------------------------------------------------------------------*/
FoamFile
{
    version     2.0;
    format      ascii;
    class       volScalarField;
    location    "400";
    object      p;
}
// * * * * * * * * * * * * * * * * * * * * * * * * * * * * * * * * * * * * * //

dimensions      [0 2 -2 0 0 0 0];


internalField   nonuniform List<scalar> 
3753
(
-0.00635738
0.022926
0.0167
0.0475298
0.0159006
0.0271762
0.0696795
0.0242898
0.0291919
0.0358158
0.0932435
0.0408657
0.0340373
0.0364637
0.0252962
0.117137
0.0624764
0.044012
0.0384768
0.0263699
0.0158304
0.140039
0.0865369
0.0594937
0.0432443
0.0272563
0.0169167
0.00988589
0.161544
0.111585
0.0795469
0.0518671
0.0281991
0.0177735
0.0109319
0.00368629
0.181496
0.136899
0.103028
0.0646055
0.0296833
0.0182663
0.0119614
0.0046926
-0.00192321
0.199692
0.16205
0.129122
0.0811856
0.0319756
0.0184821
0.0128914
0.00563036
-0.00101832
-0.00619546
0.21587
0.186695
0.157411
0.101315
0.0349787
0.0185099
0.0137724
0.00641133
-0.000204925
-0.0054015
-0.00949831
0.229716
0.210477
0.187771
0.124957
0.0383326
0.0183729
0.0146263
0.00707613
0.000405047
-0.00466254
-0.0088041
-0.0120819
0.240863
0.232938
0.220233
0.152361
0.0415245
0.0180057
0.015446
0.00762888
0.000834334
-0.00408352
-0.00814486
-0.011481
-0.0140037
0.248899
0.253475
0.25487
0.184047
0.0439176
0.0172768
0.016184
0.00805751
0.00108404
-0.00365186
-0.00761324
-0.010905
-0.0134858
-0.0154108
0.253396
0.271273
0.291789
0.220674
0.0447783
0.0159931
0.0167522
0.00832689
0.00115872
-0.00337973
-0.00719799
-0.0104381
-0.0129796
-0.0149641
-0.0164096
0.253951
0.285276
0.331174
0.262571
0.0434189
0.0139267
0.0170213
0.00837701
0.00106772
-0.00327691
-0.00691805
-0.0100692
-0.0125595
-0.0145234
-0.0160255
-0.0170429
0.250281
0.29421
0.372763
0.310346
0.0386223
0.0110616
0.0167858
0.00813965
0.000817235
-0.00334219
-0.00679644
-0.00981438
-0.0122123
-0.0141589
-0.0156428
-0.0167122
-0.0173918
0.242694
0.29611
0.413844
0.369331
0.0267175
0.00777711
0.0158032
0.00754763
0.000420001
-0.00357098
-0.00684855
-0.00969659
-0.0119472
-0.01386
-0.0153314
-0.0163749
-0.017107
-0.0175428
0.23187
0.287734
0.446863
0.444799
0.00804805
0.00365147
0.0140771
0.00653174
-8.224e-05
-0.00395069
-0.00708216
-0.00973463
-0.0117777
-0.0136382
-0.0150891
-0.0160942
-0.0168072
-0.0172949
-0.017545
0.218626
0.273772
0.378459
0.378809
0.569883
0.627507
0.535216
0.058408
0.408391
0.0360789
-0.00263001
-0.0319624
0.0119943
0.00510487
-0.000613881
-0.00444442
-0.00749235
-0.0099421
-0.0117103
-0.0135108
-0.0149311
-0.0158675
-0.0165485
-0.0170286
-0.0173282
-0.0174299
0.203816
0.253788
0.372163
0.354059
0.523287
0.610836
0.705132
0.559107
0.494888
0.62825
0.0920843
0.096627
-0.0357356
-0.0179268
-0.00578114
0.00927504
-0.00830753
0.00357908
-0.00110817
-0.00497751
-0.00804872
-0.0103206
-0.0117398
-0.0134882
-0.0148804
-0.0157106
-0.0163277
-0.0167956
-0.0170921
-0.0172395
-0.0172197
0.188393
0.231205
0.331572
0.304867
0.500901
0.474594
0.636814
0.636681
0.71996
0.648275
-0.014233
-0.0364119
-0.0064663
-0.0376009
0.00407502
0.00239677
0.0034879
-0.0113439
-0.00156245
-0.00545004
-0.00868991
-0.0108542
-0.0118439
-0.01357
-0.014957
-0.0156461
-0.0161565
-0.0165916
-0.0168869
-0.0170289
-0.0170508
-0.0169407
0.173303
0.209185
0.277723
0.243953
0.440681
0.396307
0.628126
0.612681
0.567944
0.593785
0.733127
0.730736
-0.0397905
-0.0144372
-0.00960394
0.00219978
0.00401929
-0.00206097
-0.0012101
-7.96186e-05
0.00188684
-0.0124493
-0.0137503
-0.00581261
-0.00932921
-0.0115144
-0.0119817
-0.0137392
-0.0151721
-0.0156924
-0.0160545
-0.0164258
-0.01671
-0.0168466
-0.0168599
-0.0167907
-0.0166091
0.159177
0.185964
0.22916
0.353035
0.322112
0.53881
0.505237
0.435551
0.478345
0.723089
0.699676
0.627867
0.672612
-0.00222044
0.00201515
0.00519325
0.00415274
0.00276146
-0.0012262
-0.00623543
-0.00382873
0.00192146
-0.00492346
0.00158968
-0.00981535
-0.0123079
-0.0121019
-0.013959
-0.0155225
-0.0158583
-0.016039
-0.0163133
-0.0165701
-0.0166935
-0.0166947
-0.0166166
-0.016474
-0.0162486
0.146482
0.165345
0.169842
0.239898
0.180764
0.382365
0.330726
0.309956
0.580065
0.511189
0.476356
0.45877
0.00316529
0.00363851
0.00245942
-5.65133e-05
-0.00244476
-0.0058105
-0.0100278
-0.00799469
-0.00369389
-0.0046784
0.00354145
-0.00742491
0.00123281
-0.013347
-0.0121659
-0.0141916
-0.01598
-0.0161401
-0.0161205
-0.0162675
-0.0164823
-0.0165802
-0.0165567
-0.0164624
-0.0163134
-0.0161268
-0.0158683
0.135418
0.148542
0.128928
0.0319296
0.0436802
0.0299634
-0.206861
0.413113
0.357167
-0.0329712
0.0384123
0.387295
0.00313492
0.00209301
0.00176256
-0.0026937
-0.00564851
-0.00688256
-0.00950453
-0.014607
-0.0112224
-0.00791703
-0.00863449
-0.00385243
-0.00481368
0.00311815
-0.00800049
-0.0121991
-0.0144163
-0.0164788
-0.0165216
-0.0162987
-0.0162947
-0.0164591
-0.0165219
-0.0164572
-0.0163308
-0.016169
-0.0159794
-0.0157567
-0.0154704
0.126049
0.134626
0.100167
0.015305
-0.871443
-0.730834
-0.43044
-0.180211
-0.754169
-0.724258
0.141039
0.0738014
-0.00591239
-0.00711102
-0.00940658
-0.0104903
-0.0151656
-0.0123876
-0.0144845
-0.0109256
-0.0114523
-0.00805467
-0.00864076
-0.0145224
-0.0170031
-0.0169567
-0.0165691
-0.0163894
-0.0165055
-0.0165323
-0.0164142
-0.0162333
-0.0160419
-0.0158472
-0.0156212
-0.0153683
-0.0150596
0.118391
0.122984
0.0785204
0.0039473
-0.743578
-1.04111
-0.897467
-0.919624
-0.87014
-0.00967356
-0.0107425
-0.0116273
-0.0186615
-0.0129791
-0.0142988
-0.013164
-0.0137851
-0.0145659
-0.0111928
-0.0114157
-0.0179985
-0.0173515
-0.0169328
-0.0165377
-0.0166173
-0.0166179
-0.0164433
-0.0161873
-0.0159399
-0.0157318
-0.0155034
-0.0152434
-0.0149656
-0.0146357
0.112424
0.11335
0.0626076
0.00287419
-0.599343
-0.626915
-0.948259
-0.857844
-0.860829
-0.682104
-0.0113686
-0.0197107
-0.013523
-0.0132426
-0.0141744
-0.0192221
-0.0151474
-0.0155117
-0.0134374
-0.0135373
-0.0177384
-0.0190213
-0.0173834
-0.0167269
-0.0167813
-0.0167738
-0.0165543
-0.0162097
-0.015875
-0.015641
-0.0154064
-0.015136
-0.0148479
-0.0145498
-0.0142132
0.108101
0.105581
0.0515437
-0.000384009
-0.481049
-0.59296
-0.472512
-0.604452
-0.862259
-0.675365
-0.0141173
-0.0146936
-0.0177861
-0.014958
-0.0151384
-0.0156456
-0.0190103
-0.0177453
-0.0180784
-0.0178932
-0.0182969
-0.0169532
-0.0169824
-0.0169837
-0.0167469
-0.0163137
-0.0158582
-0.015586
-0.0153383
-0.0150513
-0.0147471
-0.0144407
-0.0141331
-0.013787
0.105358
0.0995902
0.0442314
-0.0066787
-0.39222
-0.546807
-0.470604
-0.407285
-0.453613
-0.503624
-0.604696
-0.711438
-0.648114
-0.0183337
-0.0161295
-0.0193226
-0.0183666
-0.0188203
-0.018709
-0.0172409
-0.0177335
-0.0184118
-0.0172125
-0.0172228
-0.0170107
-0.0165067
-0.0158955
-0.0155767
-0.0153105
-0.0149977
-0.0146689
-0.014347
-0.014028
-0.0137123
-0.0133558
0.104133
0.0953216
0.0397419
-0.0132219
-0.322196
-0.49392
-0.459057
-0.407281
-0.404294
-0.366062
-0.456845
-0.498244
-0.57604
-0.627529
-0.0190208
-0.0183194
-0.0186555
-0.0194527
-0.0186312
-0.0193719
-0.0175536
-0.0174955
-0.0176249
-0.0177832
-0.0183798
-0.0185173
-0.0174612
-0.017322
-0.0167918
-0.0159856
-0.0156182
-0.0153338
-0.0149891
-0.0146249
-0.0142755
-0.0139373
-0.0136125
-0.0132873
-0.0129403
0.104364
0.0927328
0.0374542
-0.0187169
-0.268303
-0.441052
-0.43866
-0.402917
-0.366571
-0.364218
-0.391001
-0.415579
-0.331418
-0.444774
-0.466304
-0.509613
-0.481722
-0.572484
-0.619263
-0.019128
-0.0188795
-0.0196179
-0.0187254
-0.0209206
-0.0181
-0.017748
-0.0177436
-0.0177039
-0.0178533
-0.0178644
-0.0178369
-0.0179456
-0.0172236
-0.0186833
-0.0176315
-0.0171764
-0.0161194
-0.0157113
-0.0154126
-0.0150343
-0.0146286
-0.0142375
-0.0138673
-0.0135241
-0.013193
-0.0128753
-0.0125383
0.105998
0.0917903
0.0369782
-0.0227376
-0.228256
-0.393672
-0.414473
-0.394037
-0.365511
-0.332301
-0.329993
-0.353413
-0.371745
-0.386575
-0.396475
-0.405985
-0.419856
-0.444037
-0.303464
-0.465951
-0.501794
-0.481617
-0.0190904
-0.0188502
-0.022379
-0.0170587
-0.0179575
-0.0179694
-0.0179356
-0.0179022
-0.0178791
-0.0180133
-0.0180429
-0.0180155
-0.0180585
-0.018008
-0.0179112
-0.0173966
-0.0189684
-0.0176789
-0.016286
-0.0158538
-0.0155467
-0.0151364
-0.0146867
-0.0142469
-0.0138301
-0.013451
-0.0131068
-0.0127864
-0.0124773
-0.0121329
0.108979
0.0924627
0.0380667
-0.0250731
-0.19866
-0.353677
-0.39
-0.381894
-0.362222
-0.332477
-0.304275
-0.302222
-0.321218
-0.336172
-0.348552
-0.357626
-0.365514
-0.374432
-0.385643
-0.442016
-0.280254
-0.461154
-0.0230662
-0.018067
-0.0180918
-0.0180595
-0.0180991
-0.01809
-0.0179931
-0.0182608
-0.0181212
-0.0181799
-0.0181873
-0.0181679
-0.0181062
-0.0181432
-0.0164843
-0.0160427
-0.0157291
-0.0152915
-0.0148026
-0.0143156
-0.0138398
-0.0134045
-0.0130342
-0.0127066
-0.0123908
-0.0120748
-0.0117467
0.113258
0.0947274
0.0405781
-0.0256696
-0.176646
-0.320734
-0.367127
-0.368215
-0.356427
-0.331683
-0.304684
-0.281035
-0.279153
-0.294984
-0.307264
-0.320515
-0.330538
-0.338664
-0.349423
-0.357559
-0.364354
-0.371584
-0.260545
-0.0181374
-0.0181737
-0.0182027
-0.0182643
-0.0181661
-0.0181932
-0.0167261
-0.0189339
-0.0181604
-0.0183408
-0.0182919
-0.0182656
-0.0182441
-0.0162736
-0.015951
-0.015491
-0.0149704
-0.0144483
-0.0139105
-0.013399
-0.0129838
-0.0126394
-0.0123148
-0.0119941
-0.0116914
-0.011366
0.118782
0.0985652
0.0444479
-0.0245853
-0.160235
-0.29405
-0.346697
-0.354534
-0.348835
-0.329548
-0.304689
-0.28158
-0.261275
-0.259486
-0.272936
-0.283457
-0.294544
-0.305739
-0.3166
-0.329945
-0.323874
-0.338044
-0.243714
-0.0182865
-0.0183343
-0.0182969
-0.0183753
-0.0180488
-0.0170769
-0.0165608
-0.01688
-0.0198042
-0.0183565
-0.0182872
-0.0184186
-0.0183739
-0.0162043
-0.0157223
-0.0151786
-0.0146391
-0.0140513
-0.0134462
-0.0129637
-0.0125922
-0.0122548
-0.0119245
-0.0116151
-0.0113133
-0.0109932
0.125492
0.103959
0.0496771
-0.0218819
-0.148072
-0.272897
-0.328979
-0.341784
-0.340531
-0.326147
-0.304145
-0.281957
-0.261873
-0.244367
-0.242788
-0.253773
-0.263166
-0.272506
-0.282162
-0.291019
-0.297032
-0.307933
-0.302246
-0.329488
-0.336127
-0.229211
-0.0183966
-0.0184567
-0.0181471
-0.0176302
-0.0169605
-0.0169267
-0.0164826
-0.0167996
-0.0170576
-0.018038
-0.0213117
-0.0184589
-0.0184184
-0.0159732
-0.015412
-0.0148725
-0.014263
-0.0135535
-0.0129833
-0.0125769
-0.0122183
-0.0118713
-0.0115494
-0.0112379
-0.0109431
-0.0106293
0.133322
0.1109
0.0563282
-0.0175722
-0.13925
-0.256658
-0.313985
-0.330346
-0.332341
-0.321948
-0.302952
-0.28215
-0.262449
-0.244947
-0.229801
-0.24148
-0.228459
-0.253832
-0.262141
-0.269752
-0.274438
-0.283892
-0.278749
-0.290735
-0.296161
-0.301439
-0.216374
-0.0184995
-0.017382
-0.0172272
-0.0170063
-0.0171065
-0.0167496
-0.0162637
-0.0166331
-0.0169846
-0.0172223
-0.0172703
-0.0220788
-0.0156481
-0.0151229
-0.0145396
-0.0137238
-0.0130472
-0.0126005
-0.0122152
-0.0118417
-0.011498
-0.0111728
-0.0108706
-0.0105817
-0.0102733
0.142188
0.11937
0.0645068
-0.0115973
-0.133204
-0.244867
-0.301652
-0.320319
-0.324706
-0.317447
-0.301219
-0.282075
-0.26304
-0.245572
-0.230333
-0.21693
-0.22751
-0.237024
-0.244676
-0.215686
-0.253397
-0.263692
-0.259106
-0.270192
-0.273992
-0.282944
-0.278477
-0.205132
-0.017241
-0.01719
-0.0168938
-0.0164544
-0.0158847
-0.0168705
-0.0167936
-0.0170587
-0.0171496
-0.0153545
-0.0148702
-0.0139569
-0.0131546
-0.0126672
-0.012253
-0.0118455
-0.0114718
-0.0111265
-0.0108089
-0.0105124
-0.0102276
-0.00992761
0.151985
0.129351
0.0743629
-0.00378189
-0.129672
-0.23722
-0.291927
-0.311711
-0.317822
-0.312994
-0.299158
-0.281705
-0.263607
-0.246322
-0.230929
-0.217437
-0.205627
-0.21485
-0.223472
-0.229959
-0.234959
-0.238605
-0.242339
-0.245701
-0.204519
-0.250648
-0.255013
-0.258756
-0.262889
-0.269179
-0.195117
-0.0170214
-0.0169782
-0.016419
-0.0162056
-0.0155459
-0.0160487
-0.0180204
-0.0171619
-0.0168725
-0.0169663
-0.0152189
-0.0142596
-0.013297
-0.0127779
-0.0123373
-0.0118912
-0.0114814
-0.0111075
-0.0107659
-0.0104533
-0.0101591
-0.00988318
-0.0095953
0.162577
0.140816
0.0861154
0.00617532
-0.128704
-0.233563
-0.284773
-0.304524
-0.311768
-0.30879
-0.296964
-0.281091
-0.264075
-0.247209
-0.231701
-0.218012
-0.206084
-0.195573
-0.203754
-0.211161
-0.217131
-0.221823
-0.224697
-0.227606
-0.230849
-0.235037
-0.23834
-0.241606
-0.194559
-0.258741
-0.261965
-0.186235
-0.0166543
-0.0165589
-0.0153403
-0.0164752
-0.01629
-0.0158249
-0.0155038
-0.0157097
-0.01622
-0.016123
-0.0170868
-0.0146597
-0.0134619
-0.0129308
-0.0124679
-0.0119816
-0.0115326
-0.0111236
-0.0107484
-0.0104068
-0.010097
-0.00981683
-0.00955422
-0.00927114
0.173783
0.153717
0.100072
0.0186684
-0.130629
-0.233897
-0.280168
-0.298762
-0.306587
-0.304949
-0.294767
-0.280311
-0.2644
-0.248161
-0.232697
-0.218774
-0.20661
-0.195993
-0.186645
-0.193871
-0.200585
-0.205648
-0.210664
-0.214993
-0.217963
-0.222396
-0.224563
-0.227154
-0.229982
-0.18573
-0.17832
-0.0162496
-0.0165813
-0.0163864
-0.0159848
-0.0159485
-0.0155557
-0.0151381
-0.0156839
-0.0158506
-0.0157941
-0.0163026
-0.0162029
-0.0171669
-0.0136421
-0.0131183
-0.0126417
-0.0121157
-0.0116274
-0.0111824
-0.0107686
-0.0103868
-0.0100501
-0.00975697
-0.00948985
-0.00922959
-0.00896479
0.185375
0.167963
0.116621
0.03415
-0.136071
-0.238381
-0.278102
-0.294437
-0.302313
-0.301538
-0.29265
-0.279433
-0.264574
-0.249085
-0.233876
-0.219798
-0.207324
-0.196475
-0.187022
-0.17869
-0.185105
-0.190983
-0.195593
-0.200372
-0.204923
-0.209067
-0.214308
-0.211956
-0.21711
-0.22176
-0.17787
-0.171249
-0.0166751
-0.0164584
-0.0160672
-0.0160223
-0.0156527
-0.0156645
-0.0158374
-0.0138681
-0.0148874
-0.0156376
-0.0155988
-0.0159382
-0.0158604
-0.0163708
-0.0162691
-0.0133301
-0.0128524
-0.0122887
-0.0117628
-0.011286
-0.0108362
-0.0104082
-0.0100272
-0.00970648
-0.00943171
-0.00916822
-0.00892562
-0.00865876
0.197046
0.183397
0.13627
0.0532259
-0.14605
-0.247326
-0.278576
-0.291564
-0.29897
-0.298608
-0.290666
-0.278508
-0.264616
-0.249914
-0.235134
-0.221071
-0.208317
-0.197133
-0.187455
-0.179029
-0.17158
-0.177305
-0.182556
-0.18662
-0.19064
-0.194918
-0.198433
-0.201871
-0.205636
-0.203178
-0.214352
-0.21644
-0.170842
-0.164892
-0.0161333
-0.0160838
-0.0157635
-0.0156976
-0.0167205
-0.0151838
-0.0143384
-0.013568
-0.0140059
-0.0150549
-0.0148361
-0.0156891
-0.0147899
-0.0160047
-0.0159248
-0.0130872
-0.0124938
-0.0119326
-0.0114278
-0.0109512
-0.0104771
-0.0100364
-0.00967405
-0.00938299
-0.00911298
-0.00886567
-0.00862113
-0.00836862
0.208376
0.199807
0.159751
0.0765001
-0.16204
-0.261235
-0.281595
-0.290167
-0.296579
-0.296194
-0.288859
-0.277574
-0.26455
-0.250616
-0.236369
-0.222502
-0.209599
-0.198067
-0.18805
-0.17941
-0.171881
-0.165198
-0.170297
-0.174849
-0.178695
-0.18231
-0.186084
-0.189254
-0.191499
-0.19559
-0.193381
-0.198101
-0.201414
-0.164513
-0.159166
-0.0158559
-0.0157687
-0.0177038
-0.0144512
-0.0146006
-0.0144014
-0.0138915
-0.0133294
-0.0137005
-0.0142732
-0.014086
-0.0150327
-0.0149898
-0.0158846
-0.0149044
-0.012724
-0.0121308
-0.0115986
-0.011107
-0.0105998
-0.0100935
-0.00966893
-0.00934655
-0.00906833
-0.00881477
-0.00856527
-0.00833193
-0.00807786
0.218797
0.216918
0.188191
0.10373
-0.185752
-0.280807
-0.287204
-0.290274
-0.295153
-0.294315
-0.287258
-0.276661
-0.264404
-0.25119
-0.237511
-0.223973
-0.211097
-0.199309
-0.188906
-0.179936
-0.172216
-0.165467
-0.159447
-0.169566
-0.164037
-0.17439
-0.178231
-0.180838
-0.183294
-0.186694
-0.184651
-0.189081
-0.191222
-0.195159
-0.19323
-0.158815
-0.154
-0.0184496
-0.0146756
-0.0144936
-0.0140218
-0.0139421
-0.0135931
-0.0129706
-0.0134241
-0.0138728
-0.0137553
-0.0143504
-0.0141712
-0.0123534
-0.0117874
-0.0112897
-0.010776
-0.0102053
-0.00969728
-0.00933346
-0.00904254
-0.00877669
-0.00851891
-0.00827456
-0.0080424
-0.00779993
0.227582
0.234242
0.223079
0.134772
-0.219632
-0.30654
-0.295544
-0.291897
-0.294702
-0.292975
-0.285887
-0.275796
-0.264203
-0.251651
-0.238531
-0.22539
-0.212692
-0.200807
-0.190074
-0.180705
-0.172674
-0.165757
-0.159688
-0.154257
-0.163467
-0.167755
-0.17065
-0.158376
-0.174237
-0.178811
-0.17704
-0.180511
-0.183463
-0.18631
-0.184375
-0.153681
-0.149279
-0.0140614
-0.0139918
-0.0137005
-0.0136495
-0.0132514
-0.0125963
-0.0130665
-0.0135884
-0.0134687
-0.0139335
-0.0138204
-0.0119918
-0.0114796
-0.0109937
-0.010376
-0.0097649
-0.00934954
-0.00904049
-0.00875731
-0.00848691
-0.00822882
-0.00799106
-0.00776664
-0.0075229
0.233937
0.250588
0.265565
0.17688
-0.269566
-0.33832
-0.306668
-0.295057
-0.295211
-0.292165
-0.284757
-0.274995
-0.263966
-0.252019
-0.23943
-0.226701
-0.214274
-0.202449
-0.191523
-0.181777
-0.173352
-0.166151
-0.159942
-0.154472
-0.149519
-0.157846
-0.161538
-0.164448
-0.167251
-0.168103
-0.169433
-0.171037
-0.153289
-0.173149
-0.174951
-0.176457
-0.178468
-0.180261
-0.183083
-0.14898
-0.145011
-0.0137408
-0.0137022
-0.0133751
-0.0133067
-0.0128765
-0.0122214
-0.0126965
-0.0132317
-0.0131102
-0.0136546
-0.013539
-0.0116651
-0.0112238
-0.0106094
-0.00987213
-0.00939613
-0.00906724
-0.00876456
-0.0084752
-0.00820088
-0.00794955
-0.00771394
-0.00749009
-0.00725185
0.237251
0.263774
0.313007
0.238981
-0.337837
-0.376836
-0.319957
-0.299766
-0.296626
-0.29186
-0.283872
-0.274274
-0.26371
-0.252317
-0.24022
-0.227891
-0.215772
-0.204119
-0.193155
-0.183142
-0.174316
-0.166738
-0.160278
-0.15469
-0.149718
-0.145231
-0.15283
-0.156122
-0.158708
-0.160664
-0.162102
-0.163346
-0.16467
-0.167174
-0.148604
-0.176551
-0.178191
-0.144735
-0.141097
-0.0134236
-0.0133604
-0.0130066
-0.0129315
-0.0124943
-0.0118683
-0.0123306
-0.0128505
-0.0127409
-0.0132971
-0.0131782
-0.0114057
-0.0109155
-0.0100141
-0.00947361
-0.00912472
-0.00880268
-0.00849257
-0.00819777
-0.00792123
-0.00767151
-0.00744006
-0.00722114
-0.00698915
0.270906
0.354893
0.318135
0.384925
-0.264512
0.221103
-0.321642
-0.41804
-0.482523
-0.334012
-0.305716
-0.298827
-0.292013
-0.283237
-0.273641
-0.263447
-0.252564
-0.240921
-0.228965
-0.217157
-0.205732
-0.194852
-0.184716
-0.17557
-0.167589
-0.16078
-0.154972
-0.149912
-0.14541
-0.141304
-0.148142
-0.15123
-0.153676
-0.155244
-0.156582
-0.157731
-0.159046
-0.160638
-0.162021
-0.163145
-0.164116
-0.144397
-0.140838
-0.137532
-0.013059
-0.0129844
-0.0126246
-0.0125525
-0.0121233
-0.0115107
-0.0120024
-0.0124748
-0.0123776
-0.0129137
-0.0128063
-0.0113045
-0.0101859
-0.00957683
-0.00921543
-0.00887527
-0.00854292
-0.00822495
-0.00791922
-0.00764563
-0.00739973
-0.00717271
-0.00696034
-0.00672905
0.37735
0.451074
0.506742
0.427681
0.379265
-0.202775
-0.221962
0.13533
-0.521378
-0.465482
-0.436709
-0.347337
-0.424446
-0.311546
-0.301592
-0.292543
-0.282857
-0.273108
-0.263187
-0.252782
-0.241553
-0.229935
-0.218425
-0.207247
-0.196522
-0.18639
-0.177052
-0.168721
-0.161517
-0.155395
-0.150153
-0.145578
-0.14147
-0.137725
-0.143999
-0.146675
-0.148824
-0.150588
-0.15168
-0.152591
-0.154197
-0.155038
-0.156463
-0.157514
-0.158696
-0.140516
-0.137288
-0.134267
-0.0126752
-0.0126031
-0.0122519
-0.012189
-0.0117568
-0.0117041
-0.0115884
-0.0121298
-0.0120584
-0.0125364
-0.0124394
-0.0104002
-0.00970103
-0.00933944
-0.00897809
-0.0086258
-0.00828927
-0.00795167
-0.00764248
-0.00737347
-0.00713139
-0.00691152
-0.00670146
0.539876
0.554861
0.503928
0.460351
0.568429
0.515164
0.123313
-0.4526
-0.16818
-0.546624
-0.438668
-0.529421
-0.372097
-0.315304
-0.348332
-0.425382
-0.304306
-0.293377
-0.282739
-0.27269
-0.262937
-0.252995
-0.242137
-0.230818
-0.219584
-0.208651
-0.198113
-0.188065
-0.17866
-0.170087
-0.162519
-0.156026
-0.150507
-0.145779
-0.141619
-0.137877
-0.134448
-0.140128
-0.142726
-0.14461
-0.146424
-0.148398
-0.150038
-0.151531
-0.152236
-0.154305
-0.136983
-0.134039
-0.131263
-0.0123024
-0.012239
-0.0119223
-0.0118607
-0.011436
-0.0106519
-0.0121561
-0.0117229
-0.0116651
-0.012184
-0.0121109
-0.00984635
-0.00949271
-0.00910671
-0.00873701
-0.00839188
-0.00802637
-0.00767354
-0.00736922
-0.00710363
-0.00687141
-0.00665594
0.643314
0.614651
0.673861
0.665513
0.377289
0.205112
-0.551329
-0.463395
-0.554397
-0.440241
-0.375925
-0.326587
-0.305973
-0.313315
-0.351612
-0.420143
-0.434092
-0.294397
-0.282925
-0.272414
-0.262709
-0.253235
-0.242697
-0.231629
-0.220647
-0.20995
-0.199606
-0.189681
-0.180294
-0.171596
-0.163754
-0.156897
-0.151038
-0.146069
-0.141787
-0.13801
-0.134589
-0.131433
-0.136617
-0.138887
-0.140718
-0.142624
-0.144276
-0.145735
-0.146821
-0.14875
-0.147693
-0.150138
-0.151394
-0.152101
-0.154104
-0.13376
-0.131051
-0.128489
-0.0119859
-0.0119234
-0.011484
-0.0114479
-0.0110019
-0.0100463
-0.0105967
-0.0110997
-0.0130804
-0.0117961
-0.0117315
-0.00966593
-0.00925537
-0.00886837
-0.00852678
-0.00814597
-0.00774277
-0.00739445
-0.00709868
-0.00684593
-0.00661821
-0.464877
-0.44531
-0.387285
-0.370969
-0.328357
-0.309931
-0.294894
-0.303961
-0.313683
-0.346882
-0.358695
-0.424223
-0.436279
-0.283577
-0.272324
-0.262528
-0.253543
-0.243257
-0.232382
-0.221628
-0.211154
-0.201002
-0.191213
-0.181887
-0.173153
-0.165142
-0.157991
-0.151783
-0.146506
-0.142024
-0.138149
-0.134704
-0.131565
-0.128653
-0.133433
-0.135488
-0.137147
-0.138677
-0.140377
-0.141573
-0.143336
-0.144471
-0.143456
-0.130795
-0.128283
-0.125947
-0.0116218
-0.0115444
-0.0106361
-0.0108816
-0.0104069
-0.00985851
-0.0101894
-0.0108324
-0.0107126
-0.0110783
-0.013918
-0.00941846
-0.00900895
-0.00868417
-0.00831092
-0.0078523
-0.00745423
-0.00712288
-0.00683928
-0.00659045
-0.386724
-0.372465
-0.333595
-0.325192
-0.31116
-0.298503
-0.284604
-0.291039
-0.304716
-0.309688
-0.319612
-0.347801
-0.358446
-0.272543
-0.26243
-0.253975
-0.243846
-0.233094
-0.222538
-0.212273
-0.202311
-0.192659
-0.183409
-0.174686
-0.166595
-0.159244
-0.152736
-0.14713
-0.142377
-0.138336
-0.134817
-0.13167
-0.128779
-0.126102
-0.130515
-0.132365
-0.133965
-0.135282
-0.136872
-0.138094
-0.13898
-0.140586
-0.139721
-0.141381
-0.143253
-0.128027
-0.125754
-0.123576
-0.0105834
-0.0104413
-0.0100947
-0.00959967
-0.00994601
-0.0103492
-0.0102389
-0.00913517
-0.00886446
-0.00850363
-0.00800367
-0.00754951
-0.00717993
-0.00686278
-0.00658463
-0.333036
-0.325925
-0.313834
-0.309574
-0.299165
-0.285575
-0.273203
-0.297257
-0.303743
-0.306608
-0.307972
-0.321883
-0.262449
-0.254595
-0.244485
-0.23378
-0.223386
-0.213315
-0.203545
-0.194026
-0.184852
-0.176159
-0.168041
-0.160573
-0.153844
-0.14794
-0.142885
-0.138612
-0.134961
-0.131764
-0.128875
-0.12622
-0.123726
-0.127693
-0.129575
-0.130984
-0.132182
-0.133784
-0.134694
-0.13551
-0.1371
-0.136273
-0.137998
-0.138847
-0.140407
-0.139642
-0.125521
-0.12339
-0.121381
-0.0101856
-0.0101245
-0.00983012
-0.0092466
-0.00967351
-0.0100665
-0.00998363
-0.00904142
-0.0087104
-0.00819039
-0.0076781
-0.00726904
-0.00692183
-0.00660764
-0.316298
-0.309706
-0.300672
-0.298342
-0.289488
-0.274335
-0.283388
-0.262537
-0.292863
-0.297005
-0.304101
-0.306827
-0.306885
-0.255463
-0.245193
-0.234452
-0.224181
-0.21428
-0.204713
-0.195326
-0.186221
-0.17756
-0.169439
-0.16191
-0.155036
-0.148897
-0.143555
-0.139011
-0.135167
-0.13187
-0.128953
-0.126305
-0.12384
-0.121525
-0.127237
-0.125261
-0.129002
-0.130777
-0.131662
-0.132407
-0.133803
-0.133404
-0.134554
-0.13537
-0.136937
-0.136175
-0.123164
-0.1212
-0.119339
-0.00992238
-0.00986449
-0.00951539
-0.00898552
-0.00933291
-0.00980045
-0.00971402
-0.00919626
-0.00835172
-0.00784083
-0.00738377
-0.00701576
-0.0066647
-0.315882
-0.309744
-0.300922
-0.29859
-0.296861
-0.291146
-0.288038
-0.277831
-0.262765
-0.272812
-0.285611
-0.282386
-0.256549
-0.296461
-0.304431
-0.306957
-0.245974
-0.235135
-0.224928
-0.215162
-0.205816
-0.196568
-0.187523
-0.17889
-0.170771
-0.163209
-0.156246
-0.14994
-0.144357
-0.139541
-0.135464
-0.132014
-0.129028
-0.126365
-0.123922
-0.121636
-0.119478
-0.124993
-0.126392
-0.12766
-0.122892
-0.128998
-0.130993
-0.130407
-0.13156
-0.132088
-0.133501
-0.133604
-0.120981
-0.119169
-0.117425
-0.00962966
-0.00955605
-0.0091615
-0.0104724
-0.00906817
-0.00803499
-0.00947442
-0.00937663
-0.00849082
-0.00956265
-0.00801783
-0.00752603
-0.00713481
-0.00675935
-0.301123
-0.298933
-0.295632
-0.279026
-0.276711
-0.264559
-0.257652
-0.26319
-0.275068
-0.272346
-0.2468
-0.296557
-0.235862
-0.225647
-0.215944
-0.206849
-0.19775
-0.188762
-0.180153
-0.172038
-0.164452
-0.157429
-0.151008
-0.145241
-0.140184
-0.135862
-0.132215
-0.129115
-0.126411
-0.123974
-0.121712
-0.119585
-0.11756
-0.122565
-0.124034
-0.125434
-0.125941
-0.126587
-0.127184
-0.127835
-0.120719
-0.128621
-0.129309
-0.129796
-0.130816
-0.131496
-0.131929
-0.133587
-0.118968
-0.11726
-0.115636
-0.0092815
-0.00921199
-0.0097794
-0.00812291
-0.00919326
-0.00918135
-0.00935688
-0.00914969
-0.00893043
-0.00817763
-0.00862888
-0.00769219
-0.00726798
-0.00688554
-0.268931
-0.261651
-0.260151
-0.247619
-0.255988
-0.265611
-0.26275
-0.236639
-0.22638
-0.216618
-0.207802
-0.198862
-0.189933
-0.181351
-0.173241
-0.165634
-0.158563
-0.152058
-0.146155
-0.1409
-0.136345
-0.132483
-0.12923
-0.12645
-0.123997
-0.121754
-0.119657
-0.117665
-0.115767
-0.120414
-0.121778
-0.122861
-0.123596
-0.12411
-0.125238
-0.125275
-0.118745
-0.129931
-0.130698
-0.117067
-0.115477
-0.113956
-0.00936126
-0.00883705
-0.00944665
-0.00914361
-0.00941043
-0.0084408
-0.00785817
-0.00825705
-0.00879918
-0.00740769
-0.00703003
-0.26029
-0.260997
-0.259481
-0.250675
-0.237418
-0.245752
-0.25757
-0.255138
-0.266148
-0.262654
-0.227182
-0.21719
-0.208672
-0.199885
-0.191018
-0.182475
-0.174379
-0.166755
-0.159643
-0.15307
-0.147058
-0.141645
-0.136886
-0.132808
-0.129376
-0.126486
-0.123994
-0.121759
-0.119693
-0.117737
-0.11587
-0.114086
-0.118511
-0.119677
-0.1207
-0.121415
-0.12196
-0.122432
-0.122975
-0.123588
-0.123973
-0.12526
-0.116841
-0.115288
-0.113798
-0.112378
-0.00949176
-0.00937647
-0.00928341
-0.00949528
-0.00917143
-0.00856097
-0.00807045
-0.00755519
-0.00792219
-0.00835878
-0.00884754
-0.00898454
-0.00717144
-0.260934
-0.259606
-0.252
-0.249746
-0.240494
-0.228029
-0.235627
-0.247549
-0.244879
-0.257912
-0.255632
-0.217683
-0.209469
-0.200801
-0.191991
-0.183507
-0.175445
-0.167813
-0.160666
-0.154034
-0.147932
-0.142385
-0.137449
-0.133168
-0.129545
-0.126517
-0.123957
-0.121717
-0.119681
-0.117768
-0.115941
-0.114188
-0.112505
-0.116576
-0.11785
-0.118734
-0.119319
-0.119827
-0.120305
-0.120818
-0.121371
-0.121903
-0.122334
-0.12282
-0.115064
-0.113612
-0.112228
-0.110884
-0.00951084
-0.00935732
-0.00955683
-0.00923492
-0.00870807
-0.00859056
-0.00816741
-0.00774536
-0.00729782
-0.00763413
-0.00801081
-0.00838166
-0.00848336
-0.00891069
-0.00905871
-0.251886
-0.249877
-0.24181
-0.239502
-0.230885
-0.218164
-0.226271
-0.237344
-0.234781
-0.24787
-0.24537
-0.210205
-0.201608
-0.192833
-0.184429
-0.176419
-0.168796
-0.161627
-0.154948
-0.148766
-0.143101
-0.138006
-0.133539
-0.129724
-0.126535
-0.123879
-0.121616
-0.119608
-0.117744
-0.115969
-0.114257
-0.112607
-0.111009
-0.114806
-0.115902
-0.116822
-0.117353
-0.118144
-0.118311
-0.118798
-0.119259
-0.119772
-0.120206
-0.120674
-0.113397
-0.112057
-0.110738
-0.109471
-0.00943487
-0.00930973
-0.00876682
-0.00864157
-0.00828069
-0.00819207
-0.00784303
-0.00746162
-0.00737716
-0.00771435
-0.00803922
-0.00811137
-0.00843065
-0.00853053
-0.00897297
-0.00912226
-0.241663
-0.239589
-0.232054
-0.229865
-0.221368
-0.210909
-0.216096
-0.227898
-0.225431
-0.237623
-0.23522
-0.202306
-0.193549
-0.185228
-0.177286
-0.169689
-0.162515
-0.155809
-0.149562
-0.143786
-0.138544
-0.1339
-0.129897
-0.126531
-0.12375
-0.121439
-0.11945
-0.117642
-0.115936
-0.114283
-0.112676
-0.111111
-0.109595
-0.113155
-0.114168
-0.115112
-0.115607
-0.116042
-0.116437
-0.116896
-0.117138
-0.118332
-0.118041
-0.118644
-0.111869
-0.11057
-0.109327
-0.108129
-0.00881824
-0.00868818
-0.00832609
-0.00823722
-0.00794572
-0.00788058
-0.00756008
-0.00743734
-0.00775055
-0.0078028
-0.008083
-0.00815619
-0.00847672
-0.00857032
-0.231901
-0.229926
-0.222751
-0.220458
-0.213407
-0.202887
-0.209365
-0.218483
-0.214419
-0.228126
-0.22584
-0.194168
-0.185912
-0.178041
-0.170477
-0.163312
-0.156606
-0.150318
-0.144439
-0.139054
-0.134244
-0.130052
-0.126499
-0.123565
-0.121171
-0.119179
-0.117431
-0.115811
-0.114241
-0.1127
-0.111182
-0.109697
-0.108253
-0.111669
-0.11256
-0.113353
-0.113989
-0.114943
-0.115234
-0.115556
-0.115985
-0.116351
-0.116755
-0.117051
-0.118369
-0.110378
-0.109162
-0.107986
-0.106852
-0.00836784
-0.00827981
-0.00799333
-0.00792173
-0.00765738
-0.0076107
-0.00749114
-0.00752191
-0.00779013
-0.00784902
-0.00812552
-0.00819312
-0.222578
-0.220661
-0.214886
-0.212559
-0.205218
-0.194708
-0.201187
-0.210637
-0.208533
-0.219746
-0.213833
-0.1865
-0.178698
-0.171159
-0.164004
-0.157325
-0.151029
-0.145061
-0.139537
-0.134563
-0.130189
-0.12644
-0.123327
-0.120808
-0.118776
-0.117074
-0.115554
-0.114095
-0.112652
-0.111206
-0.109769
-0.108356
-0.106975
-0.110159
-0.11108
-0.111913
-0.112392
-0.113191
-0.113743
-0.114321
-0.114147
-0.11508
-0.115491
-0.115909
-0.116297
-0.116677
-0.108971
-0.107824
-0.106713
-0.105632
-0.00803505
-0.00796102
-0.00770813
-0.00764871
-0.00737957
-0.00752832
-0.00757634
-0.00782993
-0.00788712
-0.21595
-0.212609
-0.206253
-0.204338
-0.197125
-0.187017
-0.192834
-0.202462
-0.20039
-0.210845
-0.208781
-0.213019
-0.179269
-0.171761
-0.164589
-0.157951
-0.151687
-0.145649
-0.139995
-0.134861
-0.130304
-0.126358
-0.123045
-0.12036
-0.118237
-0.116544
-0.115116
-0.113795
-0.112488
-0.111153
-0.109794
-0.10843
-0.10708
-0.105755
-0.108755
-0.10962
-0.110342
-0.110932
-0.111865
-0.112077
-0.112485
-0.113289
-0.112892
-0.114467
-0.114998
-0.107641
-0.106559
-0.105495
-0.104465
-0.0077516
-0.00768372
-0.00744636
-0.00756708
-0.00761675
-0.215687
-0.212599
-0.206236
-0.20441
-0.198171
-0.196239
-0.189208
-0.179752
-0.185502
-0.194122
-0.191196
-0.202653
-0.200666
-0.210901
-0.208959
-0.172313
-0.165083
-0.158481
-0.152289