/*--------------------------------*- C++ -*----------------------------------*\
| =========                 |                                                 |
| \\      /  F ield         | OpenFOAM: The Open Source CFD Toolbox           |
|  \\    /   O peration     | Version:  v1912                                 |
|   \\  /    A nd           | Website:  www.openfoam.com                      |
|    \\/     M anipulation  |                                                 |
\*---------------------------------------------------------------------------*/
FoamFile
{
    version     2.0;
    format      ascii;
    class       surfaceScalarField;
    location    "400";
    object      phi;
}
// * * * * * * * * * * * * * * * * * * * * * * * * * * * * * * * * * * * * * //

dimensions      [0 3 -1 0 0 0 0];
oriented        oriented;


internalField   nonuniform List<scalar> 
7352
(
0.00711965
0.00289235
0.0107433
0.00638836
0.00176674
0.00112561
0.0123517
0.00840358
0.00424346
0.00391165
0.000165535
0.000960079
0.0129134
0.0094513
0.00623483
0.00641221
0.000978394
0.00309879
-0.000116463
0.00107654
0.0129919
0.00993555
0.00747464
0.00821149
0.00205499
0.00533561
-0.000143868
0.0031262
-5.34789e-05
0.00113002
0.0128759
0.010132
0.00810246
0.00930773
0.00296808
0.00729841
3.73585e-05
0.00515438
-0.00017704
0.00324976
-1.04162e-05
0.00114044
0.0126953
0.0101986
0.0083468
0.00988762
0.00353093
0.00874487
0.000279287
0.00705648
-0.000277361
0.0052547
-7.79064e-05
0.00331725
-1.99355e-05
0.00116037
0.0125023
0.010211
0.00839472
0.0101507
0.00376261
0.00965594
0.000396645
0.00862751
-0.000335565
0.00711468
-0.000187722
0.00536452
-8.15599e-05
0.00337888
-1.57483e-05
0.00117612
0.012318
0.0102023
0.00836377
0.010242
0.0037593
0.010154
0.000290259
0.00976232
-0.000428635
0.00872058
-0.000312119
0.00723908
-0.00018735
0.00547031
-6.93503e-05
0.00343248
-5.61754e-06
0.00118174
0.0121508
0.0101853
0.00832323
0.0102428
0.00361839
0.0103829
-4.66341e-05
0.0104909
-0.000632153
0.00996585
-0.000463323
0.00887179
-0.000330989
0.00738272
-0.000166514
0.00556748
-4.23549e-05
0.00346922
-2.63212e-06
0.00118438
0.0120044
0.0101624
0.00831529
0.0101932
0.00340999
0.0104512
-0.000590467
0.0109267
-0.000979815
0.0108386
-0.00068327
0.0101858
-0.000514392
0.00905519
-0.000309185
0.00752539
-0.00012188
0.00564701
-2.92337e-05
0.00349582
-2.18719e-06
0.00118657
0.0118857
0.0101317
0.00836832
0.0101093
0.00318247
0.0104207
-0.00131622
0.011177
-0.00146058
0.0114075
-0.000999408
0.0111547
-0.000753558
0.010425
-0.000495972
0.00924198
-0.000249232
0.00765275
-9.43183e-05
0.00571209
-2.44172e-05
0.00351805
-1.47317e-06
0.00118804
0.0117948
0.0100989
0.0085115
0.00998848
0.00297466
0.0103171
-0.00221583
0.0113203
-0.00205588
0.0117723
-0.00141408
0.0118221
-0.00106499
0.0114661
-0.000734248
0.0106632
-0.000426038
0.00941879
-0.000206581
0.00776501
-7.99425e-05
0.00576762
-2.0466e-05
0.00353705
-1.75588e-06
0.0011898
0.0117339
0.0100619
0.00877545
0.00983497
0.00281938
0.0101438
-0.00329577
0.0113971
-0.00274221
0.0120067
-0.00190541
0.0122636
-0.00144668
0.0122038
-0.00102854
0.0117604
-0.00065452
0.0108917
-0.000370789
0.009583
-0.000180507
0.00786557
-7.011e-05
0.00581727
-1.96143e-05
0.00355491
-1.9321e-06
0.00119173
0.0116975
0.0100285
0.0091913
0.00964604
0.00276686
0.00988749
-0.00455852
0.0114065
-0.00348477
0.0121396
-0.00244249
0.0125438
-0.00187561
0.0126925
-0.00137052
0.0125458
-0.00093232
0.0120382
-0.000584963
0.0111059
-0.00033055
0.00973304
-0.000160251
0.00795572
-6.57181e-05
0.00586337
-1.91433e-05
0.00357212
-1.66537e-06
0.0011934
0.0116693
0.0100062
0.00978534
0.00943441
0.00291074
0.00950217
-0.00596199
0.011291
-0.00421181
0.0121336
-0.0029669
0.012664
-0.0022997
0.0129678
-0.00172895
0.013051
-0.001244
0.0128575
-0.000844013
0.0122973
-0.000529661
0.011305
-0.000297176
0.00986997
-0.000149868
0.00803987
-6.20985e-05
0.00590633
-1.73692e-05
0.00358782
-2.09094e-06
0.00119549
0.0116177
0.00999359
0.0105673
0.00922428
0.00347346
0.00887168
-0.00734054
0.0108807
-0.00476033
0.0118395
-0.00335721
0.0125239
-0.00263292
0.0129973
-0.00204596
0.0132849
-0.00155472
0.0133617
-0.00112805
0.0131415
-0.00076567
0.0125333
-0.000478503
0.0114863
-0.000277545
0.00999765
-0.000141191
0.00811896
-5.82226e-05
0.00594718
-1.78063e-05
0.00360354
-2.92073e-06
0.00119841
0.0115934
0.00988822
0.0114374
0.00912348
0.00490811
0.00778962
-0.00822927
0.00976041
-0.00479258
0.010913
-0.00340177
0.011884
-0.00273372
0.0126247
-0.00222678
0.0131781
-0.00180222
0.0135324
-0.00139779
0.0136314
-0.00101842
0.0133943
-0.000693609
0.0127484
-0.000446303
0.0116551
-0.000261126
0.0101176
-0.000131101
0.00819184
-5.58117e-05
0.00598519
-1.93423e-05
0.00361996
-3.75381e-06
0.00120216
0.0115545
0.00985394
0.0123146
0.00456768
0.00444335
0.00482074
0.00330325
0.00304523
0.00286237
-0.00417008
0.00392964
-0.00338596
0.00318677
-0.00222555
0.00881046
-0.00161708
-0.00283528
0.0103465
-0.00242498
0.0115753
-0.00215895
0.0125569
-0.00190091
0.0132768
-0.00159116
0.0137257
-0.00124732
0.0138603
-0.000914373
0.0136151
-0.000643311
0.0129454
-0.000417867
0.0118118
-0.000240563
0.010227
-0.000124303
0.00826033
-5.70183e-05
0.00602286
-2.12561e-05
0.00363747
-4.21727e-06
0.00120638
0.0113955
0.010019
0.0131807
0.00445308
0.00453472
0.00553565
0.00385277
0.00619387
0.00378513
-0.0034443
0.00257747
-0.000506154
-0.00155621
0.000766024
0.000897272
0.00396534
0.00145703
0.00129277
-0.00185888
0.00356297
-0.00237411
0.000910747
0.000654876
-0.000540352
0.00227018
-0.000401933
-0.000940494
0.00751556
-0.000599878
-0.00103732
0.00298321
-0.00161466
0.00953617
-0.00177282
0.0111892
-0.00177021
0.0124262
-0.00163477
0.0133204
-0.00139471
0.0138731
-0.00110226
0.0140482
-0.000842407
0.0138142
-0.000597919
0.0131255
-0.000383774
0.011955
-0.000226017
0.0103288
-0.000122212
0.00832553
-5.90245e-05
0.00606063
-2.24745e-05
0.00365572
-4.41828e-06
0.0012108
0.0110954
0.0102571
0.0136088
0.00466217
0.00492869
0.00686833
0.00377862
0.00743883
0.00396422
0.00541756
0.00115947
0.00117344
0.000944954
5.92052e-06
-0.00132208
0.000710815
0.00147684
-0.000710815
0.000542243
0.000756451
-0.000388917
0.000759313
0.000265959
-0.000180094
0.0016585
-0.000245553
-0.000141169
0.000498549
0.00250547
-0.000462748
-0.000288849
0.00641752
-0.000227776
0.00214792
-0.000242331
-0.00115521
0.00891856
-0.00139855
0.0108175
-0.00147939
0.0122708
-0.00140912
0.0133348
-0.00120879
0.0139797
-0.00100537
0.0142112
-0.000776981
0.0139932
-0.000546774
0.0132885
-0.000357583
0.0120866
-0.000217738
0.0104243
-0.000122307
0.00838881
-5.98629e-05
0.00609802
-2.27671e-05
0.00367407
-4.73552e-06
0.00121554
0.0106875
0.0104498
0.0136099
0.00504766
0.0052084
0.00797748
0.00412352
0.00821251
0.00469366
0.00673458
0.0012159
0.00124569
0.00809601
0.00131783
0.00128497
-0.00115863
0.00175697
0.000561131
0.000557053
-0.000565626
0.00012479
-0.000377786
0.000197692
0.00126587
-5.38839e-05
-1.62304e-05
-0.00012479
0.00194348
-8.44107e-05
-0.000273919
0.00584051
-0.000304274
0.00178869
-2.75851e-05
-4.53916e-05
0.00104381
-8.61161e-06
-1.16578e-05
-0.000894464
0.00841448
-0.00112558
0.0104637
-0.00126207
0.0121237
-0.00119092
0.0133169
-0.00108693
0.0140612
-0.000918964
0.0143531
-0.000705104
0.0141516
-0.000504906
0.0134358
-0.000339352
0.0122082
-0.000213485
0.0105155
-0.000121581
0.00845053
-5.95655e-05
0.00613482
-2.32328e-05
0.00369257
-4.97031e-06
0.00122051
0.0102503
0.0105052
0.0132594
0.0108004
0.00849394
0.00476623
0.00878029
0.00492205
0.00921937
0.00139199
0.00160817
0.00961563
0.00231248
0.00198493
0.00237545
0.000597421
0.00298951
0.000631628
-0.00360789
0.00422896
0.000696759
0.000666596
8.5722e-06
0.000552556
0.000143808
0.000127578
0.000557135
-3.59293e-06
-8.50058e-07
0.000406707
0.001655
-5.56173e-05
-8.46157e-05
-0.000279929
0.00537524
-0.000149267
0.00157121
-0.000112709
-0.000107771
0.000588958
-5.94086e-05
0.000564123
-2.05555e-05
-0.00011592
0.000107309
-0.000645674
0.00793457
-0.00098572
0.0101874
-0.00104594
0.0119787
-0.00105633
0.0132863
-0.00098464
0.0141269
-0.000824347
0.0144724
-0.000645895
0.0142925
-0.000474164
0.0135706
-0.000327597
0.0123223
-0.000208369
0.0106023
-0.000119526
0.00851049
-5.96359e-05
0.00617122
-2.33818e-05
0.00371098
-5.41137e-06
0.00122592
0.00980303
0.0105073
0.0127966
0.010968
-0.0105511
0.0190998
0.00534511
0.00568688
0.00989639
0.00233185
0.00215361
0.00426737
0.00486758
0.000753359
0.0054689
0.00100685
-0.00579753
0.00589414
0.00221587
0.0016563
0.00114998
0.0017816
-0.0024482
0.00314496
0.000103716
0.000102866
0.000348873
-1.57381e-06
0.000533714
-2.52087e-05
0.000492667
-4.3568e-05
0.00146229
-0.000114163
-5.68506e-05
-8.80818e-05
0.00489061
-7.29603e-05
0.00135843
-3.10089e-05
-1.4399e-05
0.000458073
-7.81146e-05
0.000429384
-7.90821e-05
0.00033206
-3.74271e-06
-0.000637744
0.00758659
-0.000817856
0.00995927
-0.000906144
0.0118286
-0.000945575
0.0132473
-0.000874654
0.0141772
-0.000750407
0.0145769
-0.000599751
0.0144181
-0.000452945
0.0136959
-0.000316832
0.0124308
-0.000202127
0.0106849
-0.000116498
0.00856735
-5.91656e-05
0.00620701
-2.45515e-05
0.00373012
-5.40826e-06
0.00123133
0.00934154
0.0105045
0.0122322
0.0110717
0.0181793
0.0118884
0.0157855
-0.0156461
0.00274985
0.00245588
0.0154017
0.00607063
0.00617883
0.00204716
0.00655121
0.00178123
-0.00758975
0.00170886
0.00105335
0.00389832
0.00490516
-0.00656146
0.00627258
0.00250475
0.000101292
0.000311325
-4.47309e-06
0.000278427
-1.06703e-05
0.000387286
-7.20651e-05
0.000357388
-2.69529e-05
0.00128599
-1.01203e-05
-5.51312e-06
-8.89068e-05
0.00451375
-0.000171979
0.00122375
-4.64873e-06
-6.07821e-06
0.000335309
-8.9295e-06
0.000323936
-3.02606e-06
0.000228365
-2.80527e-05
0.000203636
-5.43529e-05
9.7549e-05
-0.000590289
0.00735903
-0.00066448
0.00971761
-0.000797731
0.0116807
-0.000833631
0.0132062
-0.000792743
0.0142195
-0.000690581
0.0146677
-0.000567155
0.0145323
-0.000431684
0.0138108
-0.000303284
0.012532
-0.000195869
0.0107642
-0.000114811
0.008623
-6.00913e-05
0.00624255
-2.47151e-05
0.00374943
-5.24263e-06
0.00123657
0.00886808
0.0105045
0.0116108
0.0111258
0.0167447
0.0125064
-0.0142783
0.0300181
0.00525766
0.00629268
-0.00733893
0.00782715
0.00226162
-0.00777818
0.00289514
-0.00515676
0.00219463
0.00258162
0.00672099
0.00159874
0.000912478
-0.00606932
-0.00501597
0.00250475
9.30759e-05
8.24056e-05
0.000131571
0.000104618
0.000315457
-1.6414e-06
0.000311192
-1.24783e-06
0.00115189
-6.26939e-06
-1.07714e-05
-0.000210382
0.00432029
-0.000186436
0.00103411
-1.5412e-05
-3.87883e-05
0.000307658
-1.11465e-06
0.000302332
-7.52039e-07
9.56889e-05
9.26628e-05
5.43529e-05
-0.000378092
0.00707264
-0.000561126
0.00948101
-0.000702533
0.0115496
-0.000762612
0.0131761
-0.000723117
0.0142521
-0.000645159
0.0147457
-0.00053668
0.0146373
-0.000412592
0.0139201
-0.000291206
0.0126273
-0.00019016
0.0108396
-0.000114363
0.00867727
-6.02331e-05
0.00627807
-2.48528e-05
0.00376904
-5.32687e-06
0.0012419
0.00838862
0.0105035
0.0109479
0.0111674
0.0151241
0.0127464
0.0281619
0.0143626
0.0070117
-0.00301234
-0.00140994
0.00154237
0.00112587
0.00849831
0.00480607
-0.00289514
-0.00258162
0.00176391
0.00410349
9.10214e-05
8.97736e-05
0.000297176
-1.11347e-06
0.000288394
-1.98899e-06
0.000962538
-6.76315e-05
-7.118e-05
-7.3914e-05
0.00403684
-2.07292e-05
0.000866306
-6.72024e-05
-2.30011e-05
0.000276539
-3.55718e-06
0.000247024
-9.27286e-06
8.86589e-05
8.79069e-05
-0.000255319
0.00676683
-0.000499056
0.00927753
-0.000668362
0.0114554
-0.000688378
0.0131414
-0.000667204
0.0142741
-0.00060784
0.0148169
-0.000509232
0.014734
-0.000391609
0.0140205
-0.000278904
0.012716
-0.000185751
0.010911
-0.000112886
0.00872992
-5.91346e-05
0.00631235
-2.35874e-05
0.0037873
-5.08864e-06
0.00124699
0.00790781
0.0105008
0.0102527
0.0111987
0.0135722
0.0127192
0.0252531
0.0156551
-0.00435122
0.0169267
0.0102854
0.00035397
-0.00078164
0.0012374
0.00108661
-0.000229498
0.000573723
-0.000895331
0.00258758
8.67934e-05
8.48044e-05
0.000203746
-2.43534e-05
0.000180187
-4.7621e-05
0.000800288
-6.83977e-06
-1.05612e-06
-1.38802e-05
0.00213179
-3.944e-06
0.00166756
0.000779936
-3.04205e-07
-7.30161e-08
0.000112984
8.99832e-05
8.12473e-05
7.19744e-05
-9.78865e-05
0.00653304
-0.00016738
-0.000541564
0.00915073
-0.000601993
0.011369
-0.000622685
0.0130969
-0.000622612
0.0142889
-0.000573572
0.0148812
-0.000481622
0.014824
-0.000371681
0.0141133
-0.000269492
0.0127998
-0.000182117
0.0109802
-0.000110403
0.00878119
-5.73965e-05
0.00634616
-2.29358e-05
0.00380515
-5.47399e-06
0.00125246
0.00743322
0.0104936
0.00953084
0.0112227
0.012182
0.0125889
0.0220627
0.0159097
0.0183696
0.0142122
-0.0014386
0.00678703
0.00593612
-0.000999118
0.000124472
-0.000393093
0.000584368
-0.000109936
0.000290566
0.00157967
-0.0004307
4.7621e-05
8.31435e-05
8.20873e-05
0.000766667
-5.62726e-07
-4.84481e-08
-0.00018871
0.00222261
0.000442597
0.000319504
1.20957e-07
5.01868e-07
-3.28975e-06
0.0014929
-1.0758e-05
8.17831e-05
8.17101e-05
-0.000183663
0.00640812
-0.000232973
-0.00011464
0.00216987
-0.000488745
0.00903749
-0.000514872
0.0112612
-0.000570169
0.0130444
-0.000589061
0.0143044
-0.000543052
0.0149427
-0.000452332
0.0149046
-0.000355849
0.0141996
-0.000262282
0.0128799
-0.000175211
0.011045
-0.00010629
0.00883008
-5.55272e-05
0.00637875
-2.20155e-05
0.00382169
-4.91278e-06
0.00125738
0.00696591
0.0104843
0.00878812
0.0112363
0.010952
0.0124526
0.0189879
0.0156637
0.0180222
0.0162571
0.00995719
0.0110421
0.00208812
0.00384004
2.96341e-05
-2.16802e-05
0.000929396
-0.000348843
1.45366e-05
0.000429832
-5.22451e-06
1.96258e-05
8.11474e-05
8.1099e-05
-3.58092e-05
0.000475116
0.000283219
4.76005e-07
8.12199e-05
8.17218e-05
-2.41663e-05
0.00141815
-1.5723e-05
-6.60727e-06
0.000470965
0.00211602
-0.000129812
-0.000209623
0.00630239
-0.000173391
0.00207461
-0.000191568
-0.000361018
0.00888363
-0.000451028
0.011142
-0.000544318
0.0129997
-0.00056361
0.0143249
-0.000507247
0.0149976
-0.000430503
0.0149793
-0.000341566
0.0142789
-0.000252492
0.0129572
-0.000170627
0.0111093
-0.000103518
0.00887807
-5.34546e-05
0.00641019
-2.18376e-05
0.00383862
-5.07439e-06
0.00126245
0.00650588
0.010476
0.00803669
0.0112357
0.00984065
0.0123477
0.0162329
0.0152077
0.016721
0.0169648
0.0115268
0.0146875
0.00479373
0.00833645
0.000655543
1.55392e-05
0.00316895
-0.000774963
0.000685278
0.000119317
0.000132751
0.000160409
-5.39006e-05
-2.55206e-05
9.31206e-06
2.89378e-05
0.000277926
-1.3148e-06
8.21978e-05
-0.000462455
0.000448331
-1.00423e-05
0.00134745
-1.99544e-05
-3.91667e-05
-7.21248e-06
0.00204444
-0.000179452
-0.000116852
0.00611969
-6.1467e-05
0.00199962
-0.000128567
0.00129918
-9.03013e-05
-5.29898e-05
-0.000277732
0.00871034
-0.000440842
0.0110386
-0.00054035
0.0129764
-0.000524661
0.0143423
-0.000476735
0.0150438
-0.000407198
0.0150449
-0.000326153
0.0143526
-0.000242666
0.0130293
-0.000166898
0.0111727
-9.94477e-05
0.00892407
-5.18071e-05
0.00644016
-2.16004e-05
0.00385514
-5.60196e-06
0.00126806
0.00605415
0.0104667
0.00728581
0.0112269
0.00880453
0.0122719
0.0138434
0.0147372
0.0150165
0.0169122
0.0118071
0.0166845
0.00689449
0.0125867
0.00227487
0.00671712
-0.000316179
0.000957054
3.18717e-05
2.80673e-05
0.000364727
-4.98834e-05
0.0028541
-0.000224541
2.75752e-06
2.49206e-05
2.42183e-05
4.44002e-05
-9.33014e-06
-2.35394e-05
-2.10314e-05
-5.91325e-06
0.000272312
-1.59775e-06
8.0883e-05
0.000438201
-9.82381e-06
0.000264303
-2.03345e-06
0.000416043
-1.70088e-05
0.00127731
-7.88239e-05
-7.87612e-05
0.00194595
-6.318e-05
-4.85462e-05
0.00592975
-3.925e-05
0.00191386
-2.93824e-05
0.001213
-1.8871e-05
-4.53839e-05
-0.00039462
0.000363876
-5.9557e-05
-3.1567e-05
-0.000285894
0.00855539
-0.000474215
0.0109724
-0.000506504
0.0129583
-0.000488015
0.0143536
-0.000445276
0.0150819
-0.000387072
0.0151058
-0.000313641
0.0144236
-0.000233569
0.0130959
-0.000158135
0.0112314
-9.58659e-05
0.00896813
-5.06359e-05
0.0064692
-2.16954e-05
0.00387124
-5.17507e-06
0.00127323
0.00560745
0.0104607
0.00654041
0.0112121
0.00781118
0.0122202
0.0117785
0.0143367
0.0132269
0.0165268
0.0112857
0.0174336
0.00799081
0.0155882
0.00406935
0.0107922
0.00125239
0.00582946
0.000908459
-1.63876e-05
1.50973e-05
-7.21271e-05
9.78519e-05
3.87778e-06
2.26805e-06
-3.84632e-05
3.29664e-06
2.5954e-06
-1.14896e-05
0.000300441
-7.02488e-05
0.00262391
-3.92554e-05
3.54954e-06
-2.38366e-05
9.50131e-06
-1.03349e-05
1.10133e-05
1.02284e-05
5.91325e-06
-2.69446e-05
7.92853e-05
0.000256072
-1.59313e-06
7.72518e-05
0.000242259
-3.19502e-06
0.000346148
-6.10955e-05
0.00032252
-5.51331e-05
0.00116335
-1.05678e-05
-2.95854e-06
0.0018837
-1.83804e-05
-3.98837e-05
0.00574711
-6.3368e-05
0.00185921
-1.47582e-05
0.00113739
-6.05454e-07
-2.81766e-06
-0.000297412
0.000285026
-6.48551e-06
-2.02759e-05
-0.000219172
0.000180828
-2.12131e-05
-8.48051e-06
-0.000373739
0.00845492
-0.000465528
0.0109315
-0.000462396
0.0129326
-0.000442565
0.0143509
-0.000413347
0.0151082
-0.000368888
0.0151611
-0.000302203
0.0144922
-0.000225863
0.0131637
-0.00015233
0.0112879
-9.31281e-05
0.00901062
-5.0793e-05
0.0064983
-2.10707e-05
0.00388713
-3.91194e-06
0.00127714
0.00516681
0.0104536
0.00580845
0.0111927
0.00684412
0.0121792
0.00996684
0.0140319
0.011499
0.0160646
0.0103621
0.0174504
0.00822003
0.0172044
0.0053854
0.0142721
0.00253538
0.00950925
0.000858193
0.0052717
0.000857204
-2.29754e-05
3.98e-06
-0.00010752
0.000104716
-8.42811e-06
-5.15647e-06
3.50895e-07
5.07872e-06
-4.01788e-06
8.39426e-06
-4.98894e-07
-1.74986e-06
1.54676e-06
4.14214e-06
-5.33174e-06
-2.60847e-06
0.000271544
-8.07367e-05
0.00243309
5.70297e-06
-1.53366e-06
-1.59313e-05
7.56587e-05
7.24637e-05
0.000162503
-4.27701e-05
0.00010737
0.00027649
-2.03159e-06
0.000274045
-5.13761e-07
0.00112063
-1.25139e-06
-3.73964e-07
0.00183577
-1.64515e-05
-8.28729e-05
0.00560524
-0.000148991
0.00179762
-2.52133e-05
0.00110732
-7.16091e-07
-7.31541e-07
-0.000271504
0.000271081
-1.82604e-07
-2.76242e-07
-8.70942e-05
8.06087e-05
-6.39832e-05
4.27701e-05
-0.000420525
0.00840991
-0.00040949
0.0108785
-0.000396839
0.0128869
-0.000402838
0.0143404
-0.000396742
0.015136
-0.000358629
0.0152175
-0.000294856
0.0145612
-0.000216446
0.0132278
-0.000147169
0.0113419
-9.37465e-05
0.00905357
-4.92608e-05
0.00652649
-2.03767e-05
0.0039036
-5.03423e-06
0.00128218
0.00473072
0.0104471
0.00508731
0.0111748
0.00589202
0.0121447
0.00834055
0.0138055
0.00987996
0.0156509
0.00928939
0.0171373
0.00789268
0.0177777
0.00601759
0.0165722
0.00372691
0.0130806
0.00175798
0.00860947
0.000684989
0.00485826
0.000805158
-2.61634e-05
-2.5292e-06
-0.000103417
0.000104073
-2.36319e-05
3.30554e-08
5.2456e-06
-1.06791e-05
8.17518e-06
-5.9243e-06
-1.29835e-05
-2.85225e-06
-1.21535e-05
-4.7906e-07
1.3194e-06
-4.98897e-07
1.53366e-06
0.00027405
-0.000108875
0.00226791
7.85771e-05
7.80634e-05
0.000270007
-1.76904e-07
0.000269618
1.49107e-08
0.00109236
-4.05022e-07
-1.08803e-06
0.00175833
-4.35802e-05
-0.00019523
0.00556804
-0.000188102
0.0016966
-8.7261e-05
0.00106989
-2.2455e-06
-4.92659e-07
-0.000268934
0.000268368
-1.49708e-07
-4.76483e-08
-7.77871e-05
7.76045e-05
-0.000335685
0.00833611
-0.000312839
0.0107945
-0.000343885
0.012828
-0.000380857
0.0143245
-0.000387812
0.0151652
-0.000348509
0.0152712
-0.000281286
0.014626
-0.000209983
0.0132906
-0.000142933
0.0113911
-8.92204e-05
0.00909353
-4.87122e-05
0.00655482
-2.11293e-05
0.00391969
-4.68308e-06
0.00128686
0.00429708
0.0104416
0.00437927
0.0111551
0.00495207
0.0121147
0.00684544
0.0136398
0.00836101
0.0153244
0.00818651
0.0167538
0.00727561
0.0177544
0.00607775
0.0177175
0.00449208
0.015807
0.00274015
0.0120984
0.00135425
0.0079402
0.000610423
0.00452188
0.000747621
-3.62209e-05
-1.51196e-05
-9.97225e-05
9.49196e-05
-2.13611e-05
1.82065e-06
-8.37371e-06
-1.08391e-05
-3.15859e-06
5.25667e-07
-1.7866e-06
-8.82687e-06
4.86005e-07
4.59411e-06
2.51081e-06
-8.4351e-06
-3.41437e-07
-8.205e-07
0.000295615
-0.00014467
0.00211696
7.74276e-05
7.74425e-05
0.000268088
-1.25334e-07
0.000267058
-5.78241e-08
0.0010324
-1.06362e-06
-5.02394e-06
0.00166153
-0.000160167
-0.000155159
0.00546003
-7.25096e-05
0.00163784
-0.000164411
0.000966991
-1.68289e-05
-5.02678e-06
-0.000266634
0.000264715
-3.26756e-07
-6.85875e-08
-7.73949e-05
7.72452e-05
-0.000196088
0.00821936
-0.000244302
0.010695
-0.000322655
0.0127698
-0.000379574
0.0143163
-0.000384648
0.0152013
-0.000339282
0.0153292
-0.000267736
0.0146838
-0.000200238
0.0133479
-0.00013891
0.0114408
-8.71345e-05
0.00913196
-4.75229e-05
0.00658122
-2.01101e-05
0.00393512
-4.55233e-06
0.00129142
0.0038703
0.0104338
0.00368624
0.0111347
0.00402003
0.0120872
0.00543603
0.0135241
0.00691868
0.0150822
0.007102
0.0164089
0.00654465
0.0174848
0.00577434
0.0180578
0.00476855
0.0174411
0.00349473
0.0150524
0.00215592
0.0112968
0.00114469
0.00740593
0.000586868
0.00423063
0.000691989
-6.34383e-05
-2.56021e-05
-8.79835e-05
7.91372e-05
-2.73756e-05
-8.18461e-06
6.2551e-06
-1.5505e-05
-6.63045e-06
-5.48103e-06
-2.12805e-06
-6.3554e-07
4.6159e-06
-7.77452e-06
2.21053e-06
-1.19895e-06
2.82929e-06
-1.63035e-06
0.000325795
-0.000181033
0.00197219
7.71199e-05
7.7062e-05
0.000263953
-3.01058e-07
0.000259492
-5.63219e-07
0.000899353
-2.84685e-05
-6.40607e-05
0.00157869
-9.6009e-05
-4.49898e-05
0.00532625
-1.73215e-05
0.00154175
-3.55621e-05
0.000853103
-5.58925e-05
-6.2269e-05
-0.000255469
0.000241724
-3.08367e-06
-1.00411e-06
-7.69934e-05
7.66667e-05
-0.00012897
0.00810403
-0.000223562
0.0105959
-0.000332542
0.0127227
-0.000394814
0.0143265
-0.000381171
0.0152432
-0.000319186
0.0153806
-0.000258799
0.0147424
-0.000192133
0.0134011
-0.000134045
0.0114877
-8.44198e-05
0.00916885
-4.35773e-05
0.00660468
-1.95392e-05
0.00395011
-4.41559e-06
0.00129583
0.00344818
0.0104271
0.00300445
0.0111156
0.00309147
0.0120632
0.00407674
0.0134465
0.00553355
0.0149093
0.00603934
0.0161448
0.00578122
0.0171724
0.00529047
0.0179686
0.00467416
0.0181522
0.00387569
0.0170601
0.00285493
0.0143534
0.00180999
0.0106315
0.00103762
0.00695518
0.000589195
0.00396722
-0.000119211
0.000630164
-6.72101e-05
3.95676e-05
-3.57965e-05
-1.36757e-05
1.99209e-05
-2.88589e-05
-9.64262e-06
-8.79598e-06
-7.18089e-07
-3.05138e-06
1.06801e-05
-1.49259e-05
-2.38469e-06
7.6803e-06
-2.48134e-06
-9.90258e-06
-2.85787e-06
1.63035e-06
0.000346365
-0.000196405
0.00182222
7.63656e-05
7.58024e-05
0.000221785
-8.52961e-06
0.000179028
-2.13034e-05
0.000781397
-1.96591e-05
-4.64388e-06
0.00151078
-1.40272e-05
-1.81436e-05
0.00522668
-1.12509e-05
0.00149941
-5.95022e-06
0.000747515
-8.83767e-08
-1.59072e-06
-0.000158641
0.000102748
-4.18817e-05
-7.47983e-05
7.17147e-05
-0.000109523
0.00798999
-0.000250259
0.0105136
-0.000372353
0.0127003
-0.000403068
0.0143484
-0.000357764
0.0152818
-0.000304535
0.0154264
-0.000240186
0.0147904
-0.000182049
0.0134491
-0.000129822
0.0115331
-8.11707e-05
0.00920645
-4.57093e-05
0.00663086
-1.88689e-05
0.00396456
-4.28153e-06
0.00130011
0.00303401
0.0104172
0.00233934
0.0110922
0.00216964
0.0120374
0.00273895
0.013401
0.00418038
0.0147996
0.00499185
0.0159568
0.00501501
0.016911
0.00473357
0.0177293
0.00435916
0.0182836
0.00390928
0.0181186
0.0032778
0.0166372
0.00244179
0.0137216
0.00160852
0.0100606
0.000987909
0.00655646
0.000596671
0.00371692
3.71584e-05
-7.7874e-05
-2.59054e-05
-1.30246e-05
-0.000112716
0.000546471
3.19151e-05
-3.05539e-05
-4.39387e-06
-6.2257e-06
1.94237e-05
-2.25294e-05
-6.53721e-06
1.67642e-05
-6.13683e-06
-1.58936e-05
2.49293e-07
-2.18099e-06
5.33922e-06
-7.72392e-06
2.85787e-06
0.000371944
-0.000221795
0.00167207
6.31851e-05
4.18817e-05
8.30893e-05
7.84455e-05
0.000733775
-3.57129e-07
6.94134e-08
0.00148591
-4.63946e-06
-1.12016e-05
0.00513383
-5.47092e-06
0.00147961
-4.95079e-06
0.000727919
4.62078e-08
-1.40097e-07
-7.68547e-05
7.67664e-05
-0.000136622
0.00787635
-0.000315106
0.0104563
-0.00040621
0.0127034
-0.00037549
0.0143661
-0.000328424
0.0153057
-0.000277568
0.0154637
-0.000229601
0.014838
-0.000177919
0.0134972
-0.000127179
0.0115791
-8.23487e-05
0.00924309
-4.53676e-05
0.00665735
-1.82116e-05
0.00397849
-4.33183e-06
0.00130445
0.00262917
0.0104054
0.00169092
0.0110656
0.00125174
0.0120101
0.00138645
0.0133899
0.00284346
0.0147379
0.0039557
0.0158358
0.00425096
0.0167208
0.00415564
0.017489
0.00394059
0.0181478
0.00370668
0.0184862
0.00339147
0.0180049
0.00287435
0.0162047
0.00217875
0.0131514
0.0014919
0.00955657
0.000961388
0.00619174
0.000610827
0.00347803
-0.00013071
-3.62596e-05
-2.36223e-05
7.42844e-05
-8.50272e-05
-6.70984e-06
-8.4535e-06
7.2567e-05
-5.26451e-06
-6.04334e-06
-0.000133654
0.000458328
2.4147e-05
-3.60968e-06
-1.62272e-06
2.30981e-05
-2.349e-05
-3.43332e-06
-5.56884e-06
1.57925e-05
-1.71408e-05
-5.1891e-06
9.65564e-06
-7.47465e-06
0.000389067
-0.000235727
0.00151873
7.64093e-05
7.64787e-05
0.000723416
-1.09857e-07
-2.59823e-08
0.00147127
-2.86676e-06
-7.58385e-06
0.00502565
-2.08644e-05
0.00146465
4.05155e-06
-2.8989e-06
0.000718793
-1.44579e-07
-1.83886e-07
-7.63386e-05
7.63848e-05
-0.00022704
0.00778828
-0.000399317
0.0104495
-0.000376061
0.012704
-0.000335904
0.0143736
-0.000297945
0.0153261
-0.000261417
0.0154956
-0.000220272
0.0148803
-0.000174264
0.0135443
-0.000125158
0.0116219
-7.9104e-05
0.00927682
-4.23953e-05
0.00668154
-1.80834e-05
0.00399225
-4.41028e-06
0.00130886
0.002235
0.0103925
0.00106542
0.0110309
0.000338792
0.0119785
-1.07442e-05
0.0134073
0.00150635
0.014727
0.00292279
0.0157708
0.00348746
0.0165993
0.00357038
0.0173061
0.003485
0.0179446
0.0033788
0.0184757
0.00326572
0.018612
0.00304211
0.0178372
0.00260746
0.015776
0.00201394
0.0126293
0.00142201
0.00909595
0.000952214
0.00585036
0.000623006
0.00324409
-0.000187974
-4.4041e-05
-3.23512e-05
9.91639e-05
-0.000109744
-1.31121e-05
-1.25686e-05
-6.41869e-06
-3.06765e-06
2.45555e-05
-2.88614e-05
-2.40411e-06
1.96429e-05
-3.54114e-06
1.95099e-05
-5.13167e-06
1.34665e-05
-0.000140556
0.000363155
9.85683e-06
8.2341e-06
1.88186e-05
-1.28943e-06
-1.75556e-06
-5.18911e-06
0.000408263
-0.000256085
0.00136655
7.62749e-05
7.6249e-05
0.000418381
5.97715e-08
1.42616e-07
0.000297343
0.00145877
-1.1797e-06
-5.26869e-07
-2.31969e-05
0.00488812
-6.63131e-05
0.00144069
-2.15863e-07
-2.56677e-06
0.000451147
-2.87142e-05
0.000453069
-4.82114e-06
-7.60651e-05
7.59205e-05
-0.000366963
0.00775593
-0.000367368
0.0104408
-0.000318041
0.0126861
-0.000286478
0.0143621
-0.000267317
0.015332
-0.000245114
0.0155204
-0.000213864
0.0149199
-0.000172729
0.0135919
-0.000123071
0.0116659
-7.65689e-05
0.009311
-4.17641e-05
0.00670522
-1.80057e-05
0.00400584
-4.26314e-06
0.00131312
0.00185657
0.0103753
0.000472864
0.010985
-0.000566911
0.0119366
-0.00148572
0.0134535
0.000148947
0.0147647
0.00189357
0.0157562
0.00272409
0.0165342
0.00298185
0.0171878
0.0030179
0.0177732
0.00299767
0.0183257
0.0029988
0.0187426
0.00297581
0.0186783
0.00280862
0.017636
0.00243313
0.0153568
0.0019082
0.0121432
0.00138028
0.00866788
0.000948526
0.00552483
0.000635425
0.00301693
-0.000248374
-4.36117e-05
-3.65442e-05
0.000121929
-0.000138818
-2.71518e-05
-9.52266e-06
-1.06439e-05
3.84665e-05
-4.22065e-05
-9.37234e-06
3.48274e-05
-8.92971e-06
3.15483e-05
-3.13988e-06
-3.81024e-07
8.67282e-06
-1.1077e-05
5.13167e-06
-0.000158883
0.000265951
6.94467e-06
0.00042134
-0.000269208
0.00121441
7.59803e-05
7.61229e-05
0.000267472
1.15724e-06
0.000452408
-5.18987e-07
0.000451978
-9.61157e-08
0.00142327
-8.00321e-07
-4.97128e-06
-0.000107903
0.00482298
-0.000193915
0.00137561
-4.74314e-06
-1.39167e-05
0.000451809
-4.69026e-08
0.000449588
-3.46065e-07
0.000264158
-1.50721e-06
-0.00035165
0.00774021
-0.00027429
0.010397
-0.000249588
0.0126492
-0.000245351
0.0143401
-0.000247211
0.0153341
-0.000242242
0.0155488
-0.000219468
0.0149667
-0.000174485
0.0136433
-0.000125728
0.0117151
-8.08612e-05
0.00935009
-4.12165e-05
0.00672843
-1.56774e-05
0.00401725
-4.28833e-06
0.00131741
0.00149803
0.0103561
-7.22866e-05
0.0109205
-0.00146085
0.011879
-0.00307302
0.0135239
-0.00124505
0.0148475
0.000862561
0.0157957
0.00195666
0.0165237
0.00238951
0.0171265
0.00254493
0.0176608
0.00260159
0.0181692
0.00266623
0.0186583
0.00275325
0.0189652
0.0027862
0.0187007
0.00265855
0.0174106
0.00231691
0.014948
0.00183892
0.0116845
0.00135314
0.00826326
0.000947421
0.00521284
0.000643364
0.0027949
-0.000316159
-5.05232e-05
-4.05768e-05
0.000151861
-0.000163804
-3.16688e-05
-2.3501e-05
4.6192e-05
-0.000108017
-1.80182e-06
3.76672e-05
-1.19262e-06
4.56859e-05
-9.01668e-06
-7.16471e-06
2.35276e-05
-2.59118e-05
-6.98835e-06
1.45979e-05
1.1458e-05
-0.000168994
0.000165735
0.000434097
-0.000285063
0.00106537
7.72802e-05
0.00026383
-1.90729e-07
0.000263552
1.82004e-07
0.000449143
-3.5463e-07
0.000445636
-1.46452e-06
0.00132221
-1.67183e-05
-3.77763e-05
-0.000181929
0.004772
-0.000118744
0.00126994
-5.38187e-05
-8.78274e-05
0.000443405
-2.51255e-06
0.000433877
-4.3886e-06
0.000263439
6.55924e-08
0.000263201
-1.0794e-07
7.5773e-05
-0.000196059
0.00766198
-0.000181697
0.0103291
-0.000194194
0.0125981
-0.000221601
0.0143145
-0.000247506
0.0153393
-0.00024822
0.0155775
-0.000219256
0.0150114
-0.000171299
0.0136889
-0.000116433
0.0117506
-7.33344e-05
0.00938221
-4.0904e-05
0.00675366
-1.75624e-05
0.00403053
-2.92594e-06
0.00132033
0.00116553
0.0103347
-0.000548839
0.0108327
-0.00233938
0.011799
-0.00481668
0.0136226
-0.00269569
0.0149746
-0.000172645
0.0158827
0.001188
0.0165644
0.00179229
0.0171209
0.00206694
0.0176045
0.00219991
0.0180625
0.00230957
0.0185259
0.00244971
0.0189618
0.00259915
0.0191522
0.00267173
0.0186875
0.00256007
0.0171674
0.00224025
0.0145467
0.00179254
0.0112451
0.00133428
0.0078764
0.000944814
0.00491138
0.000649854
0.00257915
-0.000384163
-5.47907e-05
-4.62017e-05
0.000179814
-0.000197286
-3.30522e-05
-2.45676e-05
0.000118752
-0.000129943
-1.07183e-05
-9.75894e-06
-3.23178e-06
-9.53445e-06
1.26071e-05
-1.4409e-05
3.01968e-05
-1.5463e-06
1.14145e-05
-2.87984e-06
-6.98836e-06
-0.000187092
6.77614e-05
0.000441381
-0.000295485
0.000919472
7.55822e-05
7.57642e-05
0.000262772
7.47176e-08
0.000261435
-1.27177e-07
0.000425289
-8.13033e-06
0.000404792
-1.72783e-05
0.00123794
-7.78733e-05
-7.20596e-05
-5.7555e-05
0.00464742
-1.39232e-05
0.00118153
-4.32002e-05
-1.91356e-05
0.000384031
-3.30584e-05
0.000353749