/*--------------------------------*- C++ -*----------------------------------*\
| =========                 |                                                 |
| \\      /  F ield         | OpenFOAM: The Open Source CFD Toolbox           |
|  \\    /   O peration     | Version:  v1912                                 |
|   \\  /    A nd           | Website:  www.openfoam.com                      |
|    \\/     M anipulation  |                                                 |
\*---------------------------------------------------------------------------*/
FoamFile
{
    version     2.0;
    format      ascii;
    class       volScalarField;
    location    "100";
    object      p;
}
// * * * * * * * * * * * * * * * * * * * * * * * * * * * * * * * * * * * * * //

dimensions      [0 2 -2 0 0 0 0];


internalField   nonuniform List<scalar> 
3675
(
0.00687056
0.00716709
0.00655536
0.00684543
0.00626479
0.00712235
0.00654493
0.00598365
0.00736622
0.00681421
0.00625827
0.00571619
0.0075858
0.00705463
0.00651951
0.00598461
0.00546329
0.00776982
0.00727407
0.00675353
0.00624506
0.00572743
0.00521636
0.00790695
0.007458
0.00697081
0.00647783
0.00598046
0.00547502
0.00498144
0.00798274
0.00759583
0.00715676
0.00668814
0.00620472
0.00572138
0.00523528
0.00475637
0.0079903
0.00767671
0.00729949
0.00687112
0.00641423
0.00594472
0.00547909
0.00500698
0.00453707
0.00793155
0.00769551
0.00739285
0.00701971
0.0065966
0.00615091
0.00569826
0.00524476
0.00478117
0.00433071
0.00781631
0.00764486
0.00743064
0.00712226
0.00674046
0.00632823
0.00589829
0.00545928
0.00501767
0.00457087
0.00412967
0.00766459
0.00752574
0.00741008
0.00717717
0.00684392
0.00647035
0.00607135
0.00565725
0.00523013
0.00480116
0.00436563
0.00393779
0.00752906
0.00732905
0.00733643
0.00719071
0.00690362
0.00656719
0.00620631
0.0058233
0.00542085
0.00500545
0.00459295
0.00416853
0.00374765
0.0074846
0.00705904
0.00720734
0.00716949
0.00691908
0.0066157
0.00629701
0.00595252
0.00558548
0.00519599
0.00479797
0.00439106
0.00397713
0.00357067
0.00756935
0.00681403
0.00723168
0.00698463
0.00713064
0.0068962
0.00661802
0.00633885
0.00603828
0.00571433
0.00535737
0.00498141
0.00458758
0.00419444
0.00379561
0.00340041
0.0076518
0.00746459
0.00704406
0.00668403
0.006497
0.00726374
0.00707018
0.00684105
0.00657213
0.00633005
0.00607505
0.00579498
0.00547729
0.0051339
0.00476737
0.00438948
0.0040085
0.00361984
0.0032394
0.00759703
0.00744261
0.0072736
0.00710306
0.00644691
0.00693538
0.00681992
0.00644481
0.00708525
0.00727389
0.00676476
0.00648264
0.00627558
0.00606287
0.00582644
0.00555384
0.00525151
0.00491955
0.00456636
0.00419898
0.00383023
0.0034557
0.00308558
0.00745355
0.0076175
0.0073692
0.00724174
0.00716227
0.00693238
0.00600408
0.00679065
0.00662933
0.00666679
0.00679975
0.00625764
0.0069777
0.00706825
0.00717911
0.00636351
0.00618241
0.00600777
0.00580955
0.00558268
0.00532458
0.00503431
0.00471285
0.00436932
0.00401731
0.00366067
0.00329776
0.00293977
0.00742485
0.0075547
0.00731244
0.00721863
0.00705255
0.00703205
0.00538389
0.00649182
0.00675808
0.00643371
0.00622821
0.00635293
0.00651744
0.00682237
0.00677914
0.00767315
0.00719724
0.00701594
0.00712667
0.00605611
0.00591491
0.0057502
0.00556383
0.00534883
0.00510342
0.00482164
0.00451265
0.00418338
0.00383751
0.00349931
0.00314827
0.00280307
0.00740345
0.00750924
0.00694531
0.00693822
0.0040695
0.00793681
0.00661267
0.00657616
0.00634267
0.00613866
0.00592054
0.00604548
0.0062319
0.0063988
0.00641723
0.00675887
0.00709803
0.00741506
0.00686057
0.00579241
0.00565585
0.00550115
0.00532561
0.00512521
0.00488742
0.00461655
0.0043169
0.00399698
0.00367623
0.00334559
0.0030079
0.00267266
0.00156784
0.00656604
0.0064851
0.00629286
0.00625781
0.00607551
0.00586389
0.00565507
0.00575734
0.00595129
0.00614169
0.00618211
0.00634312
0.00640077
0.00553497
0.00540291
0.00526316
0.00510182
0.00490733
0.0046789
0.00441674
0.00412833
0.00383028
0.00351583
0.00320002
0.00287354
0.00255207
0.0062622
0.00621946
0.00604443
0.00599036
0.00579579
0.00559827
0.0053963
0.00548978
0.00567109
0.00585982
0.005917
0.00609584
0.00616396
0.00528457
0.00516958
0.00503847
0.00488307
0.00469625
0.0044749
0.00422316
0.00395266
0.0036641
0.00336831
0.00306551
0.00275073
0.00243469
0.00601296
0.00595847
0.00577004
0.0057079
0.00552817
0.00533938
0.00514927
0.00523112
0.00540641
0.00557917
0.00564156
0.0058162
0.00589607
0.00505238
0.00494208
0.00481771
0.00467092
0.00448922
0.00427534
0.00403743
0.00378053
0.00351144
0.00322698
0.00293659
0.00263147
0.00233123
0.00573613
0.00567646
0.00549837
0.00543537
0.00526649
0.00509517
0.00491734
0.00498299
0.00515039
0.00531296
0.00537394
0.00553629
0.00561651
0.00482135
0.00472347
0.00460687
0.00446038
0.00428556
0.00408181
0.00385639
0.00361722
0.00336105
0.00309357
0.00281473
0.00252055
0.00223115
0.00546117
0.00540603
0.00523672
0.00517551
0.00501916
0.00485906
0.00468821
0.00475189
0.00490694
0.00505791
0.00511789
0.00527009
0.00534416
0.00460501
0.00451242
0.00439723
0.00425954
0.00408754
0.00389279
0.00368405
0.00346237
0.00322699
0.00297082
0.00270048
0.00242083
0.0021421
0.00519874
0.00514636
0.00498859
0.00492711
0.00478181
0.00463042
0.004472
0.0045256
0.00467455
0.00481477
0.0048769
0.00501567
0.00508752
0.00439168
0.0043044
0.00419752
0.00405528
0.00388928
0.00371024
0.00352249
0.00332059
0.00309736
0.00285386
0.00259667
0.00232671
0.00205016
0.00494923
0.00489854
0.00474994
0.00469044
0.00455483
0.00441327
0.00425893
0.00430945
0.00445008
0.0045846
0.0046421
0.00477028
0.00484822
0.00418872
0.00410339
0.00399042
0.00385243
0.00369583
0.00353503
0.00337002
0.00318682
0.00297778
0.00274299
0.00249667
0.00222933
0.00197192
0.00471314
0.0046602
0.0045199
0.00447029
0.00433691
0.004203
0.00405548
0.00409874
0.00423537
0.00436291
0.00441592
0.00454116
0.00461338
0.00398697
0.00390264
0.00379226
0.00365001
0.00350706
0.00337107
0.00322988
0.00306271
0.00286092
0.0026394
0.00239989
0.0021509
0.00189937
0.00448526
0.0044395
0.0043011
0.00425278
0.00412702
0.00400057
0.00385608
0.00389448
0.00402716
0.00415059
0.0042011
0.00432495
0.00438245
0.00379324
0.00370771
0.0035817
0.00344646
0.00332803
0.00322327
0.0031011
0.00294287
0.00275443
0.00253806
0.0023179
0.00207315
0.00183481
0.00426531
0.00422223
0.00408947
0.00404483
0.003924
0.00380694
0.00366454
0.00369233
0.00382635
0.00394444
0.00399394
0.00411348
0.00416809
0.00359922
0.00349916
0.00336755
0.00324856
0.00316709
0.00309257
0.00298031
0.0028276
0.00264773
0.00245032
0.00223195
0.0020076
0.00177862
0.00405361
0.00401478
0.00388745
0.00384121
0.00372704
0.00361553
0.00347148
0.00349679
0.00362812
0.00374597
0.00379549
0.00390744
0.00396152
0.00340347
0.00328647
0.00314794
0.00306815
0.00303443
0.00297122
0.00286009
0.00271632
0.00254773
0.00235942
0.00216302
0.00194524
0.00172733
0.00385291
0.0038104
0.00368928
0.0036487
0.00353715
0.00342643
0.00328663
0.00330509
0.0034334
0.00355049
0.00359606
0.00370988
0.00376417
0.00320297
0.00304651
0.00293674
0.00293072
0.00291911
0.00285231
0.00274194
0.00260576
0.00245172
0.00228061
0.00209587
0.00189218
0.0016892
0.00365263
0.00362829
0.00349682
0.00345827
0.00334836
0.0032399
0.00309819
0.00311118
0.00324309
0.00335905
0.00340588
0.00351437
0.00355946
0.00296981
0.00279919
0.00278279
0.00282771
0.00281028
0.00272618
0.00261832
0.00249961
0.00236265
0.00220995
0.00203957
0.00184892
0.00166129
0.00346033
0.00343768
0.00331167
0.00326647
0.00315971
0.00305541
0.00290137
0.00291359
0.00305542
0.00316852
0.00322083
0.00332455
0.00337042
0.00270253
0.00258961
0.00270202
0.00274447
0.00268024
0.00258952
0.0024984
0.00239569
0.00228126
0.00214403
0.0019918
0.00181588
0.00164499
0.00327752
0.00324438
0.00312355
0.00308003
0.00297139
0.00287658
0.00268182
0.00270783
0.00285859
0.00297992
0.00303383
0.00313456
0.00318812
0.00237316
0.00253134
0.00266884
0.00261693
0.00252818
0.00245269
0.00237936
0.00230146
0.00220535
0.00208968
0.00194904
0.00179664
0.0016415
0.00308893
0.00306087
0.00293788
0.00289
0.00278608
0.00269355
0.00225584
0.00250058
0.00266554
0.00278473
0.00284594
0.0029486
0.00300108
0.00226598
0.00259708
0.00254556
0.0024432
0.00237246
0.0023182
0.00226803
0.00220883
0.00213559
0.00203623
0.00193139
0.00178752
0.00165153
0.00290285
0.00287173
0.00275281
0.00269325
0.00259609
0.00246379
0.00192202
0.00205962
0.00249132
0.00258173
0.00265485
0.00275755
0.00281564
0.002531
0.00247952
0.00234654
0.0022699
0.00222159
0.00218713
0.00215792
0.00212379
0.00207365
0.00200858
0.00190893
0.001794
0.00167689
0.00271227
0.00268078
0.00255571
0.00248248
0.0024992
0.00166316
0.00243236
0.00204939
0.00234596
0.0023623
0.00246785
0.00255679
0.00262168
0.00241928
0.0022368
0.00215276
0.00210236
0.00207216
0.00205996
0.00205549
0.00204743
0.0020265
0.00197656
0.00191534
0.00180975
0.00171083
0.00251788
0.00246584
0.00241369
0.00230564
0.00105556
0.00234629
0.00231336
0.0022709
0.00195973
0.00253123
0.002484
0.00233286
0.00241484
0.00212184
0.00202689
0.00197425
0.00194066
0.00192866
0.00193513
0.00195523
0.00197737
0.00198324
0.00197089
0.00191629
0.001843
0.00177299
0.00231964
0.00225253
0.0028848
0.000194871
0.00237302
0.00209098
0.00200959
0.0020623
0.00214461
0.00237377
0.00302072
0.0024032
0.0022938
0.00189979
0.00184966
0.00180608
0.00178059
0.00178171
0.00181342
0.00186254
0.00191535
0.00195482
0.00196461
0.00194921
0.00189606
0.00184934
0.00260422
-0.00202765
0.00223761
0.00216752
0.00201114
0.00192141
0.00179173
0.00187322
0.00196173
0.0020296
0.00202085
0.00172876
0.00167664
0.00163235
0.00161771
0.00163979
0.00169586
0.00177657
0.00186397
0.00193873
0.00197841
0.00199274
0.0019647
0.00194267
0.00197578
0.00196588
0.00188008
0.00174949
0.00161876
0.00168979
0.00180347
0.00191321
0.00192804
0.00155763
0.00149844
0.00146071
0.00145844
0.00149807
0.00158111
0.00169595
0.00182046
0.00192723
0.00201187
0.00205072
0.00205325
0.00206233
0.00186942
0.00183619
0.00170915
0.00157771
0.00144575
0.0015115
0.00162514
0.00175799
0.0017841
0.00138026
0.00132043
0.0012869
0.00129505
0.00135607
0.00147008
0.00162235
0.00178571
0.00193875
0.00205391
0.00213262
0.00216825
0.00220225
0.00170448
0.00166045
0.00153473
0.00140867
0.00127404
0.00133458
0.00144923
0.0015703
0.00160901
0.00119927
0.00114023
0.00111108
0.00112958
0.00121524
0.00136497
0.0015564
0.00176489
0.00196525
0.00211814
0.00223975
0.0022971
0.00236177
0.001525
0.00148254
0.00136028
0.00123858
0.00109577
0.0011603
0.00127784
0.00139551
0.00143288
0.00102139
0.000958559
0.000929262
0.000964292
0.00107783
0.00126251
0.00150121
0.00176213
0.00199935
0.00220622
0.00235038
0.00246191
0.0025482
0.00134988
0.00130759
0.00119186
0.00106381
0.000920013
0.00098518
0.00110542
0.00121956
0.00126508
0.000837629
0.00076605
0.000741126
0.000796252
0.000939221
0.0011682
0.00145483
0.00175938
0.0020519
0.00230071
0.00250871
0.0026533
0.00280102
0.0011786
0.00113703
0.00101922
0.000891361
0.000740394
0.000806876
0.000931598
0.0010513
0.00109236
0.000643557
0.000563829
0.000547639
0.000625909
0.000806289
0.001078
0.00141513
0.00177615
0.00212773
0.00243101
0.00269338
0.00289861
0.00308709
0.00101345
0.0009672
0.000845672
0.000716335
0.0005532
0.000632594
0.000757205
0.000878334
0.000921428
0.000437456
0.000354522
0.000355377
0.000459348
0.000675823
0.000995292
0.00138856
0.0018145
0.00221502
0.00259419
0.00289192
0.0033613
0.00126805
0.00083563
0.000793236
0.000671809
0.000541287
0.000352147
0.000451971
0.000585729
0.000706544
0.000747725
0.000213975
0.000136124
0.000162531
0.000293358
0.000546744
0.000917597
0.00137297
0.00185564
0.00234294
0.00272856
0.00341637
0.00148441
0.000663361
0.00062086
0.000497657
0.000358549
0.000125789
0.00026303
0.000410595
0.000535989
0.000576205
-2.74265e-05
-6.84129e-05
-3.21447e-05
0.000120937
0.000418825
0.000849718
0.00136523
0.00193061
0.00241407
0.00320288
0.00154447
0.000488321
0.00044455
0.000327305
0.000152967
-0.000113102
-4.09221e-05
0.00024681
0.000355585
0.000402457
-0.000239914
-0.00027499
-0.000234666
-5.04455e-05
0.00029879
0.000786335
0.00138212
0.00194227
0.00280429
0.00139954
0.000312954
0.000265819
0.000200281
-0.000400601
-0.000348414
-0.000161559
0.000174587
0.000173673
0.00022322
-0.000438336
-0.000496367
-0.000444688
-0.000220747
0.000179817
0.000744083
0.00134409
0.00224128
0.00113078
0.000128028
7.32878e-05
-0.00268686
-0.00110356
-0.000289111
-0.000540376
-0.000428138
-0.000558557
-0.000427373
-5.21403e-05
0.00246741
1.43305e-05
-0.000666259
-0.000736037
-0.000658922
-0.000389984
7.70147e-05
0.000659155
0.00153834
0.000781681
7.22237e-05
-0.000408098
-0.000408752
-0.000522453
-0.000762555
-0.000631278
-0.000447493
-0.000470856
-0.000354888
-0.000394939
0.000375867
-0.000920633
-0.000982491
-0.00087151
-0.000550831
-4.85733e-05
0.000741752
0.000382497
-0.000242213
-0.000414128
-0.000439895
-0.000517131
-0.000562238
-0.000737161
-0.00101539
-0.000861743
-0.000619516
-0.000666745
-0.000462438
-0.000492284
-0.000430525
-0.000446577
-0.00118871
-0.00123385
-0.00108389
-0.000711063
-7.93551e-05
-2.86823e-05
-0.000446247
-0.00046186
-0.000530924
-0.000576685
-0.000725392
-0.000779811
-0.000976636
-0.00129051
-0.00111217
-0.000840024
-0.000904024
-0.000625264
-0.000678442
-0.000473154
-0.000502171
-0.00146637
-0.00148954
-0.0012743
-0.00085236
-0.000420636
-0.00053454
-0.000584047
-0.000735756
-0.000789606
-0.000954706
-0.00102335
-0.00123507
-0.00158121
-0.00138475
-0.00108352
-0.00115341
-0.000852426
-0.000909448
-0.000626248
-0.000682801
-0.00176084
-0.00171163
-0.00151752
-0.000763914
-0.000738406
-0.000794738
-0.000963948
-0.00103131
-0.00120684
-0.00128035
-0.00151328
-0.00190489
-0.0016749
-0.00134794
-0.00141812
-0.00109228
-0.00115531
-0.000854104
-0.000911847
-0.00202739
-0.0020432
-0.00103972
-0.000967904
-0.001031
-0.00121714
-0.00128204
-0.00147926
-0.0015575
-0.0018209
-0.00223084
-0.00200598
-0.00163179
-0.0017043
-0.00135152
-0.00141729
-0.00109377
-0.00115472
-0.00244138
-0.00124574
-0.00121655
-0.00127781
-0.00148655
-0.00155676
-0.00177667
-0.00185842
-0.00214846
-0.00277397
-0.00233138
-0.00194416
-0.00202604
-0.00162739
-0.00170123
-0.00135367
-0.00141412
-0.00139104
-0.0014826
-0.00155116
-0.00177667
-0.00185401
-0.00210237
-0.00219213
-0.00255495
-0.00161874
-0.00290907
-0.00227119
-0.00236109
-0.00193411
-0.00201369
-0.00162392
-0.00169023
-0.0017661
-0.00184336
-0.00209628
-0.00217935
-0.00245572
-0.00257474
-0.0031242
-0.0015597
-0.00272749
-0.00286952
-0.00226081
-0.00234955
-0.0019229
-0.00199984
-0.00207938
-0.00215887
-0.00245111
-0.00256551
-0.00301111
-0.003295
-0.00326609
-0.00134269
-0.0026951
-0.00282486
-0.00224043
-0.00232253
-0.00241856
-0.0025305
-0.00296676
-0.00329699
-0.00358692
-0.0013033
-0.00265376
-0.00279098
-0.00293407
-0.00325906
-0.00388185
-0.00160214
-0.0168496
-0.0162044
-0.0169369
-0.0163646
-0.0158493
-0.0168276
-0.0172114
-0.0159669
-0.0154535
-0.0166939
-0.0176644
-0.0159521
-0.0176387
-0.0155692
-0.0150266
-0.0184063
-0.0170274
-0.0150131
-0.0184973
-0.0151034
-0.0180745
-0.0151453
-0.014622
-0.0201427
-0.0187631
-0.0173328
-0.015354
-0.013365
-0.0142959
-0.0193938
-0.0185191
-0.0147425
-0.0142304
-0.0219035
-0.0205487
-0.0202779
-0.0190855
-0.0175901
-0.0156456
-0.0137089
-0.0117914
-0.0126919
-0.0134686
-0.0139314
-0.0143354
-0.0190045
-0.019456
-0.0138206
-0.0235948
-0.0223556
-0.0211847
-0.0220846
-0.0208864
-0.0198848
-0.0203128
-0.0193518
-0.0177821
-0.0158815
-0.0139877
-0.0121125
-0.0102818
-0.0111473
-0.0118969
-0.0123387
-0.0127279
-0.013121
-0.0135099
-0.0133936
-0.0242065
-0.0229855
-0.0239304
-0.025082
-0.0248807
-0.0227182
-0.0207895
-0.021248
-0.0216852
-0.0221257
-0.0211608
-0.0195552
-0.0179116
-0.0160584
-0.0142101
-0.0123782
-0.0105839
-0.00883652
-0.00966375
-0.0103834
-0.0108051
-0.0111784
-0.0115575
-0.011932
-0.0122277
-0.012624
-0.0130034
-0.0261174
-0.0245936
-0.0226023
-0.0230727
-0.0248615
-0.023534
-0.0239997
-0.026008
-0.0261273
-0.0230036
-0.0213744
-0.019695
-0.0179847
-0.0161752
-0.014371
-0.0125794
-0.0108241
-0.0091155
-0.00745415
-0.00824514
-0.00893338
-0.00933543
-0.0096921
-0.0100562
-0.010415
-0.0106976
-0.0110773
-0.0114421
-0.011818
-0.0280668
-0.0265054
-0.0248857
-0.024482
-0.0249654
-0.0253763
-0.0255896
-0.0260663
-0.0269832
-0.02719
-0.0232322
-0.021523
-0.0197782
-0.0180151
-0.0162388
-0.0144741
-0.0127219
-0.0110034
-0.00933638
-0.00771635
-0.00614255
-0.00689126
-0.00754841
-0.00793278
-0.00827213
-0.00862048
-0.00896305
-0.00923299
-0.00959582
-0.00994544
-0.0103059
-0.0300559
-0.0284361
-0.0282056
-0.026804
-0.0251259
-0.0254046
-0.0259321
-0.026576
-0.0279855
-0.0270681
-0.0233966
-0.021613
-0.0198155
-0.0180208
-0.0162649
-0.0145305
-0.0128095
-0.0111243
-0.00948886
-0.00790931
-0.00638328
-0.00490353
-0.00560084
-0.00622981
-0.00659822
-0.00692036
-0.00725235
-0.0075788
-0.00783663
-0.00818177
-0.00851621
-0.00885981
-0.0320966
-0.0304304
-0.0292225
-0.0302296
-0.0287593
-0.0270595
-0.025304
-0.0258403
-0.026442
-0.0280634
-0.0289919
-0.0275686
-0.0269427
-0.0234978
-0.0216594
-0.01982
-0.0180121
-0.0162739
-0.0145541
-0.0128518
-0.0111913
-0.00958427
-0.00803693
-0.0065535
-0.00512487
-0.00372509
-0.00436575
-0.00497251
-0.00532799
-0.00563485
-0.0059515
-0.00626295
-0.00650975
-0.006837
-0.00715523
-0.00748278
-0.0341537
-0.032463
-0.031258
-0.0322828
-0.030761
-0.0300023
-0.0290285
-0.0272512
-0.0254206
-0.0263188
-0.0285797
-0.0279461
-0.0290832
-0.0274434
-0.0268084
-0.0235502
-0.0216678
-0.0198066
-0.0179897
-0.0162685
-0.0145608
-0.012871
-0.011221
-0.00963088
-0.00810449
-0.00664868
-0.00526155
-0.00392102
-0.00262496
-0.00318806
-0.00376059
-0.00410868
-0.00440729
-0.00471052
-0.00501022
-0.00524917
-0.00556004
-0.00586314
-0.00617499
-0.0362705
-0.034522
-0.0333135
-0.0343535
-0.0327964
-0.0310205
-0.0320546
-0.031038
-0.0300882
-0.0295845
-0.0292362
-0.0273838
-0.0254811
-0.028457
-0.0278113
-0.0289646
-0.0273132
-0.0235602
-0.0216513
-0.0197746
-0.0179461
-0.0162541
-0.0145639
-0.0128817
-0.0112334
-0.00964808
-0.00813049
-0.00668768
-0.00532925
-0.00403965
-0.00280381
-0.00164635
-0.00214547
-0.0026167
-0.00291943
-0.00319949
-0.0034929
-0.00379541
-0.00403781
-0.00434061
-0.00463209
-0.00493228
-0.0384329
-0.0366446
-0.035409
-0.0364853
-0.0348637
-0.0331007
-0.0341599
-0.0330808
-0.0306069
-0.0311155
-0.0321336
-0.0316218
-0.0312548
-0.0299749
-0.0294678
-0.0293763
-0.0274528
-0.0254983
-0.0283261
-0.0288306
-0.0235413
-0.0216114
-0.0197186
-0.0178686
-0.0162231
-0.0145651
-0.0128983
-0.0112478
-0.009652
-0.00812921
-0.0066873
-0.00533756
-0.00407722
-0.00289321
-0.00176835
-0.000737554
-0.00129002
-0.00166264
-0.00191405
-0.00210986
-0.00234122
-0.00265647
-0.00273673
-0.00309501
-0.00341281
-0.00372201
-0.0406229
-0.0388213
-0.0375584
-0.0386576
-0.0369873
-0.0352044
-0.0362523
-0.0351572
-0.0326586
-0.0331786
-0.0342633
-0.0336886
-0.0333055
-0.030488
-0.0309983
-0.0320125
-0.0315028
-0.0314057
-0.0298442
-0.029342
-0.029456
-0.0274725
-0.025476
-0.0234935
-0.0215421
-0.0196275
-0.0177489
-0.0161615
-0.0145529
-0.0129191
-0.0112772
-0.00966952
-0.00812769
-0.00666935
-0.00530885
-0.00405497
-0.00289814
-0.00180508
-0.000754732
-0.000156504
-0.00053185
-0.000847483
-0.00109868
-0.00127377
-0.00148415
-0.00166979
-0.00184446
-0.00203817
-0.00221693
-0.00268309
-0.0428584
-0.0410267
-0.0397467
-0.0408636
-0.0391651
-0.0373246
-0.0384164
-0.0372834
-0.0347541
-0.0352652
-0.0363304
-0.035788
-0.0353919
-0.0325231
-0.0330291
-0.0342594
-0.0335234
-0.0334666
-0.0303622
-0.0308687
-0.0318848
-0.0313818
-0.0314935
-0.0294808
-0.0274488
-0.0254206
-0.023414
-0.0214373
-0.019494
-0.0175791
-0.0160567
-0.0145109
-0.0129311
-0.0113182
-0.00970903
-0.00814696
-0.00666205
-0.005272
-0.00399784
-0.00283602
-0.00176499
-0.000691998
-0.000165711
-3.60644e-05
-0.000238755
-0.000405828
-0.000540842
-0.000712867
-0.000873109
-0.00101987
-0.00121584
-0.00141775
-0.00162387
-0.00179795
-0.00200303
-0.0021755
-0.00273824
-0.0451432
-0.0432712
-0.0419754
-0.0431093
-0.0413813
-0.0395157
-0.040627
-0.0394608
-0.0368831
-0.0374293
-0.0385087
-0.0379629
-0.0375227
-0.0345491
-0.0350792
-0.0361869
-0.0356342
-0.0355614
-0.032396
-0.0328848
-0.0341601
-0.0333537
-0.0335618
-0.0315223
-0.029457
-0.0273873
-0.0253299
-0.0232961
-0.0212914
-0.0193133
-0.0173603
-0.0158991
-0.0144262
-0.0129167
-0.0113573
-0.00976878
-0.00819712
-0.00668218
-0.00525039
-0.00393751
-0.00274001
-0.00166531
-0.000561823
-0.000145986
4.11801e-06
-0.000111177
-0.00017647
-0.000265581
-0.000343662
-0.000483604
-0.000642729
-0.000816871
-0.000945366
-0.00114856
-0.00135889
-0.00157299
-0.0474857
-0.045563
-0.0442455
-0.0453982
-0.0436337
-0.0417454
-0.042875
-0.0416831
-0.0390668
-0.0396209
-0.0407182
-0.0401626
-0.0397021
-0.0367469
-0.0372918
-0.038372
-0.0378307
-0.037701
-0.0356686
-0.0335982
-0.0314999
-0.0293897
-0.0272874
-0.0251997
-0.0231377
-0.0211007
-0.0190881
-0.0171017
-0.0156874
-0.0142862
-0.0128594
-0.0113731
-0.00983124
-0.00827186
-0.00674091
-0.00526982
-0.00390209
-0.00264664
-0.00154056
-0.000385794
-0.000102772
1.95443e-05
-9.41846e-05
-0.000139698
-0.000219664
-0.000271375
-0.000407638
-0.000566587
-0.000742722
-0.0498731
-0.0479041
-0.0465607
-0.0477346
-0.045932
-0.0440136
-0.0451619
-0.043945
-0.0412865
-0.041852
-0.0429693
-0.0424027
-0.0419317
-0.0389312
-0.0394817
-0.040579
-0.0400294
-0.0398863
-0.0378139
-0.0357097
-0.0335787
-0.0314305
-0.0292811
-0.0271469
-0.0250306
-0.0229378
-0.0208691
-0.0188287
-0.01682
-0.0154297
-0.0140866
-0.0127442
-0.0113461
-0.00987694
-0.00836247
-0.00683651
-0.00533973
-0.00392024
-0.00259553
-0.0014326
-0.000200526
-4.42422e-05
3.07556e-05
-5.12587e-05
-8.45881e-05
-0.000155067
-0.0522592
-0.0502731
-0.0489212
-0.0501235
-0.0482741
-0.046321
-0.0474883
-0.0462494
-0.0435483
-0.0441245
-0.0452619
-0.0446846
-0.0442012
-0.0411494
-0.0417112
-0.0428283
-0.0422679
-0.0421203
-0.0400065
-0.0378645
-0.0356941
-0.0335081
-0.031317
-0.0291319
-0.026967
-0.0248216
-0.0227006
-0.0206086
-0.0185518
-0.016548
-0.0151424
-0.0138344
-0.0125638
-0.0112577
-0.0098812
-0.00843808
-0.00695311
-0.00545672
-0.00399859
-0.00260723
-0.00137741
-5.02641e-05
1.47095e-05
-0.0547468
-0.0526684
-0.0513041
-0.0525235
-0.0506431
-0.0486662
-0.0498719
-0.0485942
-0.0458526
-0.0464402
-0.0475983
-0.0470106
-0.0465128
-0.0434105
-0.0439826
-0.045121
-0.0445499
-0.0443972
-0.0422444
-0.0400616
-0.0378538
-0.0356247
-0.0333902
-0.0311599
-0.0289441
-0.02675
-0.0245788
-0.0224392
-0.0203362
-0.0182896
-0.0163296
-0.0148612
-0.0135443
-0.0123212
-0.0110987
-0.00982349
-0.00847521
-0.00705963
-0.00559506
-0.00413053
-0.00269119
-0.00139506
3.22048e-05
5.08096e-05
-0.0572621
-0.055157
-0.0537641
-0.0550227
-0.0530482
-0.0510879
-0.0523207
-0.0509691
-0.0481979
-0.0487931
-0.049969
-0.0493736
-0.0488607
-0.0457152
-0.0462984
-0.0474593
-0.0468774
-0.0467147
-0.0445269
-0.0423039
-0.0400528
-0.0377835
-0.0355045
-0.0332281
-0.0309652
-0.0287206
-0.026502
-0.0243155
-0.0221693
-0.0200825
-0.018082
-0.016204
-0.0146295
-0.0132501
-0.0120282
-0.010868
-0.00969067
-0.00845242
-0.00713348
-0.00573721
-0.00429778
-0.00283848
-0.00150032
1.66146e-05
3.83491e-05
-0.0598232
-0.0576921
-0.0562697
-0.0575543
-0.0555317
-0.0535176
-0.0547538
-0.053383
-0.0505623
-0.0511575
-0.0523152
-0.0518934
-0.051241
-0.0480633
-0.0486555
-0.0498247
-0.0492405
-0.049066
-0.0468505
-0.044589
-0.0422991
-0.0399844
-0.0376609
-0.0353371
-0.0330261
-0.0307341
-0.0284672
-0.0262361
-0.0240467
-0.0219214
-0.019885
-0.0179666
-0.0161952
-0.0144908
-0.0130002
-0.0117205
-0.0105765
-0.00947703
-0.00835233
-0.00714909
-0.00584822
-0.00447113
-0.00302742
-0.0016709
-9.91535e-05
-3.64173e-05
-0.0624505
-0.0602666
-0.0588235
-0.0601263
-0.0580699
-0.0560223
-0.0572952
-0.0558629
-0.0529551
-0.0536033
-0.0548641
-0.0542264
-0.053662
-0.0504058
-0.050943
-0.0517517
-0.0514556
-0.0492073
-0.0469186
-0.0445858
-0.0422297
-0.0398593
-0.0374889
-0.0351301
-0.0327901
-0.030476
-0.0281983
-0.0259674
-0.0238017
-0.0217305
-0.0197768
-0.0179651
-0.0163005
-0.0144736
-0.0128432
-0.0114483
-0.010256
-0.00919258
-0.00816569
-0.00708693
-0.00590605
-0.00462154
-0.00323053
-0.00188878
-0.000295863
-0.000163873
-0.0651362
-0.062898
-0.0614258
-0.062774
-0.0606574
-0.0585757
-0.0598521
-0.0583996
-0.05552
-0.0561595
-0.0574051
-0.056771
-0.0561453
-0.053884
-0.0516048
-0.0492833
-0.0469188
-0.0445189
-0.0421026
-0.0396838
-0.0372764
-0.0348879
-0.0325266
-0.030203
-0.0279288
-0.0257248
-0.0236146
-0.0216277
-0.0197788
-0.0180725
-0.0164896
-0.0145766
-0.012811
-0.0112648
-0.00996015
-0.00886582
-0.00789525
-0.0069333
-0.00588713
-0.00472379
-0.00342052
-0.00212334
-0.000546971
-0.000325112
-0.0679071
-0.0655972
-0.064102
-0.0654554
-0.0632984
-0.0610718
-0.0620471
-0.0628331
-0.0609951
-0.0580669
-0.0587154
-0.0599833
-0.0593369
-0.0586839
-0.0563718
-0.0540465
-0.0516873
-0.0492885
-0.0468525
-0.0443918
-0.0419237
-0.0394662
-0.0370284
-0.0346188
-0.0322498
-0.0299301
-0.0276853
-0.0255393
-0.023515
-0.0216317
-0.0198869
-0.0182624
-0.0167283
-0.0147708
-0.0129063
-0.0112103
-0.00974936
-0.00855193
-0.00756854
-0.00668435
-0.00577457
-0.00475305
-0.0035685
-0.0023424
-0.000817044
-0.000490799
-0.0706721
-0.0683485
-0.0668223
-0.0682211
-0.0660001
-0.0635453
-0.0642532
-0.0649176
-0.0655964
-0.0636466
-0.0606455
-0.0620195
-0.0613442
-0.0627033
-0.0612853
-0.0589176
-0.0565407
-0.0541389
-0.0517028
-0.0492268
-0.0467242
-0.0442094
-0.0417016
-0.039213
-0.036754
-0.0343362
-0.0319723
-0.0296831
-0.0274977
-0.0254375
-0.0235181
-0.0217374
-0.0200743
-0.0184951
-0.0169675
-0.0150083
-0.013098
-0.0112917
-0.00967018
-0.00831412
-0.00723827
-0.00636638
-0.00556049
-0.00468909
-0.00365225
-0.00252554
-0.00108195
-0.000641771
-0.0735481
-0.0711127
-0.0695949
-0.0709962
-0.0687474
-0.0662891
-0.0669878
-0.0676682
-0.0683565
-0.0663537
-0.0634204
-0.0641225
-0.064778
-0.0654524
-0.0639451
-0.0620048
-0.0625952
-0.0615238
-0.0590937
-0.0566437
-0.0541625
-0.0516486
-0.0491021
-0.0465409
-0.0439829
-0.0414427
-0.038932
-0.0364653
-0.0340528
-0.0317197
-0.0294908
-0.0273919
-0.0254351
-0.0236186
-0.02192
-0.0203045
-0.0187371
-0.017192
-0.0152521
-0.0133462
-0.0114827
-0.0097336
-0.00820576
-0.00697244
-0.00602706
-0.00526191
-0.00452111
-0.00364916
-0.00265347
-0.00132013
-0.000773877
-0.0764919
-0.0739949
-0.0724296
-0.0738963
-0.0715302
-0.0690509
-0.0697506
-0.0704177
-0.0711456
-0.0691037
-0.0661669
-0.0668641
-0.0675224
-0.0682032
-0.0666578
-0.0632856
-0.0639718
-0.0646418
-0.0653039
-0.0641911
-0.0617078
-0.0592035
-0.0566754
-0.0541146
-0.0515267
-0.0489196
-0.0463122
-0.0437193
-0.0411559
-0.0386371
-0.036176
-0.0337946
-0.0315213
-0.0293788
-0.0273837
-0.0255295
-0.0237938
-0.0221428
-0.0205409
-0.018963
-0.0173895
-0.0154725
-0.0135984
-0.0117297
-0.00991415
-0.008247
-0.00683277
-0.00573788
-0.00492378
-0.00425784
-0.00354635
-0.00270664
-0.00151588
-0.000889993
-0.0794785
-0.0769633
-0.0753552
-0.0768591
-0.0744097
-0.0718628
-0.072585
-0.0732911
-0.0740316
-0.0719032
-0.0689178
-0.069616
-0.0702729
-0.0711026
-0.0694145
-0.0660213
-0.0667112
-0.0673866
-0.0680534
-0.0669103
-0.0643787
-0.0618234
-0.0592435
-0.0566343
-0.053998
-0.0513443
-0.0486887
-0.0460443
-0.0434266
-0.0408543
-0.0383405
-0.0359098
-0.0335886
-0.0314012
-0.0293627
-0.027469
-0.0256978
-0.0240112
-0.0223742
-0.0207586
-0.0191517
-0.0179265
-0.0156635
-0.0170425
-0.0138286
-0.0119919
-0.0101673
-0.00841866
-0.00684745
-0.00556671
-0.00461937
-0.00393911
-0.00334327
-0.00266841
-0.00165525
-0.00099544
-0.0825467
-0.0799709
-0.0783428
-0.0798727
-0.0773783
-0.0747875
-0.0755498
-0.0762674
-0.0770073
-0.0747823
-0.0717174
-0.0724083
-0.0731102
-0.0738409
-0.072224
-0.0687674
-0.0694379
-0.0700642
-0.0708453
-0.069674
-0.0671031
-0.0645025
-0.0618681
-0.0592082
-0.0565217
-0.0538188
-0.0511131
-0.0484176
-0.0457461
-0.0431181
-0.0405496
-0.038067
-0.0356958
-0.0334611
-0.0313766
-0.0294414
-0.0276296
-0.0259077
-0.0242365
-0.0225847
-0.0209352
-0.0196961
-0.018797
-0.0179792
-0.016177
-0.0140135
-0.0153282
-0.0171301
-0.0122269
-0.0104358
-0.00866731
-0.00700051
-0.00555128
-0.00442279
-0.00363444
-0.00307001
-0.00253284
-0.00172081
-0.0010901
-0.0857147
-0.0830543
-0.0813942
-0.0829511
-0.0804022
-0.0777689
-0.078542
-0.0792741
-0.0800275
-0.0777451
-0.0746512
-0.0754112
-0.0761032
-0.0768222
-0.0751083
-0.0724962
-0.0698771
-0.0672324
-0.0645517
-0.0618367
-0.0590979
-0.0563438
-0.0535873
-0.0508396
-0.0481147
-0.045431
-0.0428057
-0.0402662
-0.0378432
-0.0355578
-0.0334285
-0.0314467
-0.029596
-0.0278364
-0.0261309
-0.0244464
-0.0227617
-0.0214998
-0.0205829
-0.0197412
-0.0188489
-0.0182232
-0.0177796
-0.0162679
-0.0144998
-0.0124037
-0.0136936
-0.0153936
-0.0169499
-0.017354
-0.0106801
-0.00894715
-0.00725131
-0.00568609
-0.00437749
-0.00341848
-0.00278662
-0.00232043
-0.00170099
-0.00116595
-0.0889444
-0.086221
-0.0845189
-0.0861073
-0.0834978
-0.0808098
-0.0815994
-0.0823459
-0.0831146
-0.0807801
-0.0776339
-0.0784038
-0.0791074
-0.079839
-0.0780697
-0.0753847
-0.0727086
-0.0700151
-0.0672864
-0.0645225
-0.0617302
-0.0589215
-0.0561125
-0.0533124
-0.0505329
-0.0477935
-0.0451105
-0.0425144
-0.0400338
-0.0376964
-0.0355148
-0.033491
-0.0315957
-0.0297988
-0.0280583
-0.0263416
-0.0246267
-0.0233405
-0.0224075
-0.0215515
-0.0206398
-0.0200033
-0.0195561
-0.0186726
-0.0191176
-0.018237
-0.0177782
-0.0165547
-0.0160335
-0.0145557
-0.0128803
-0.0108582
-0.0121122
-0.0137386
-0.0152108
-0.0156277
-0.016879
-0.0173154
-0.0092008
-0.00753484
-0.0059215
-0.00448183
-0.00334247
-0.00256758
-0.00208258
-0.00160208
-0.00121378
-0.0921224
-0.0894158
-0.0877062
-0.0893452
-0.0866626
-0.0839212
-0.0847292
-0.0854949
-0.0862782
-0.0838829
-0.0806726
-0.0814604
-0.0821779
-0.0829243
-0.0811094
-0.0783503
-0.0756038
-0.0728523
-0.0700769
-0.0672609
-0.0644161
-0.0615542
-0.0586905
-0.0558363
-0.0530028
-0.0502063
-0.0474655
-0.0448089
-0.0422718
-0.0398777
-0.0376456
-0.0355704
-0.0336341
-0.0317971
-0.0300218
-0.0282722
-0.0265273
-0.0252171
-0.0242672
-0.0233956
-0.0224672
-0.0218135
-0.0213569
-0.0204586
-0.0209109
-0.0200238
-0.0195781
-0.0186927
-0.0191369
-0.0167135
-0.0159929
-0.0147939
-0.0143889
-0.0129437
-0.0113292