/*--------------------------------*- C++ -*----------------------------------*\
| =========                 |                                                 |
| \\      /  F ield         | OpenFOAM: The Open Source CFD Toolbox           |
|  \\    /   O peration     | Version:  v1912                                 |
|   \\  /    A nd           | Website:  www.openfoam.com                      |
|    \\/     M anipulation  |                                                 |
\*---------------------------------------------------------------------------*/
FoamFile
{
    version     2.0;
    format      ascii;
    class       volVectorField;
    location    "100";
    object      U;
}
// * * * * * * * * * * * * * * * * * * * * * * * * * * * * * * * * * * * * * //

dimensions      [0 1 -1 0 0 0 0];


internalField   nonuniform List<vector> 
3675
(
(0.0783746 -0.026463 0)
(0.234078 -0.0776385 0)
(0.0778655 -0.0263014 2.73852e-21)
(0.232633 -0.0771693 2.83419e-21)
(0.0773645 -0.0261335 0)
(0.383901 -0.124901 -2.32199e-21)
(0.23122 -0.0767045 2.6569e-24)
(0.0768877 -0.0259724 0)
(0.526732 -0.168162 0)
(0.381653 -0.124174 0)
(0.229835 -0.0762446 0)
(0.0764113 -0.0258146 0)
(0.654761 -0.205209 0)
(0.523766 -0.167212 0)
(0.379434 -0.123453 0)
(0.228462 -0.0757947 0)
(0.0759464 -0.0256591 -2.36015e-21)
(0.760816 -0.234118 0)
(0.651127 -0.20405 -1.74164e-24)
(0.520806 -0.166266 0)
(0.377251 -0.12275 0)
(0.227125 -0.0753528 2.27535e-21)
(0.0754832 -0.0255037 0)
(0.837954 -0.253164 0)
(0.756588 -0.232767 -8.58807e-22)
(0.647537 -0.20291 1.74e-24)
(0.517889 -0.165335 0)
(0.375076 -0.122043 0)
(0.225777 -0.0749043 0)
(0.0750175 -0.0253494 0)
(0.880353 -0.261057 -8.28975e-22)
(0.833148 -0.25162 8.06497e-22)
(0.752404 -0.23144 0)
(0.643951 -0.201775 0)
(0.514978 -0.164404 0)
(0.372912 -0.121339 1.81655e-24)
(0.224428 -0.0744596 0)
(0.0745589 -0.0251968 4.09193e-21)
(0.884072 -0.257158 1.64959e-21)
(0.874923 -0.259308 0)
(0.828376 -0.250106 0)
(0.748237 -0.230128 -7.90656e-22)
(0.64039 -0.200651 0)
(0.512057 -0.163473 0)
(0.37074 -0.120635 -1.81625e-24)
(0.223092 -0.0740171 -1.9867e-21)
(0.0740963 -0.0250423 0)
(0.847688 -0.241649 -8.46526e-22)
(0.877944 -0.255188 -7.92336e-22)
(0.869523 -0.257596 7.67098e-22)
(0.82363 -0.248617 7.4229e-22)
(0.744058 -0.228818 1.43565e-24)
(0.636803 -0.199519 0)
(0.509129 -0.162538 0)
(0.368569 -0.119929 1.664e-24)
(0.221732 -0.0735681 0)
(0.0736379 -0.0248884 0)
(0.772791 -0.215651 -1.76553e-24)
(0.840806 -0.239451 8.14556e-22)
(0.871839 -0.253263 -7.67621e-22)
(0.864159 -0.255921 -7.36382e-22)
(0.818878 -0.247135 0)
(0.739879 -0.227509 -1.43477e-24)
(0.633197 -0.19838 0)
(0.506194 -0.161599 0)
(0.366396 -0.119224 -4.84822e-24)
(0.220395 -0.0731247 0)
(0.073183 -0.0247338 0)
(0.664014 -0.181166 -9.32335e-22)
(0.765136 -0.21323 0)
(0.833919 -0.237308 0)
(0.8658 -0.251402 5.08369e-24)
(0.858829 -0.254273 -8.23479e-24)
(0.81413 -0.245656 6.95845e-22)
(0.735669 -0.22619 -6.97517e-22)
(0.62958 -0.197236 0)
(0.503256 -0.160656 0)
(0.364198 -0.118507 4.70737e-24)
(0.219064 -0.0726825 0)
(0.0727294 -0.0245784 0)
(0.528554 -0.140834 1.06146e-21)
(0.655601 -0.178541 -3.63217e-24)
(0.757378 -0.210865 -6.38862e-24)
(0.827167 -0.235278 7.56539e-22)
(0.859877 -0.249596 -5.67333e-24)
(0.853535 -0.252635 -6.68233e-22)
(0.80937 -0.244174 6.5523e-22)
(0.731433 -0.224861 0)
(0.625937 -0.196082 1.37212e-21)
(0.500296 -0.159707 0)
(0.362035 -0.117802 -1.5606e-21)
(0.217743 -0.0722393 -1.7435e-21)
(0.0722852 -0.0244319 0)
(0.375313 -0.0974887 5.98237e-22)
(0.519334 -0.138062 8.07347e-24)
(0.646836 -0.175932 6.95029e-24)
(0.749902 -0.208699 6.39839e-24)
(0.820673 -0.233338 7.39848e-22)
(0.85407 -0.247819 5.22227e-24)
(0.848264 -0.251007 0)
(0.804591 -0.242688 2.43249e-24)
(0.727191 -0.223533 -1.25247e-21)
(0.622301 -0.194932 0)
(0.497357 -0.158763 1.32675e-21)
(0.359888 -0.117096 1.42104e-21)
(0.216431 -0.0718012 0)
(0.0718339 -0.0242829 1.53315e-21)
(0.253748 -0.0648597 -5.07901e-22)
(0.365118 -0.0947067 2.65257e-22)
(0.250518 -0.0639476 -4.85447e-22)
(0.50911 -0.135124 0)
(0.638621 -0.173664 8.7724e-22)
(0.742973 -0.206689 -7.82097e-22)
(0.814467 -0.23147 5.38378e-24)
(0.848371 -0.246077 -5.2286e-24)
(0.843018 -0.249389 -4.78053e-24)
(0.799817 -0.241205 -4.76502e-24)
(0.722934 -0.222199 3.59066e-24)
(0.618656 -0.193774 0)
(0.494423 -0.157815 0)
(0.357742 -0.11639 -1.4252e-21)
(0.215132 -0.071367 0)
(0.0713914 -0.024134 0)
(0.256104 -0.0653229 5.20831e-22)
(0.169565 -0.0427044 1.12177e-22)
(0.245561 -0.0628324 0)
(0.351554 -0.0911007 -2.74574e-22)
(0.238205 -0.060659 -4.39291e-22)
(0.167328 -0.042208 -1.18421e-23)
(0.500116 -0.132718 -1.0159e-21)
(0.631486 -0.171659 8.3829e-22)
(0.73657 -0.204795 -7.47067e-22)
(0.808484 -0.229666 -1.05566e-23)
(0.842761 -0.244365 -6.22714e-22)
(0.837803 -0.247783 4.78229e-24)
(0.795042 -0.239722 3.45247e-24)
(0.718689 -0.220865 -1.1635e-24)
(0.615031 -0.19262 -1.20589e-21)
(0.491529 -0.156879 1.21365e-21)
(0.355633 -0.115695 1.36246e-21)
(0.213832 -0.0709325 1.51839e-21)
(0.0709583 -0.0239887 0)
(0.170985 -0.0430336 0)
(0.105524 -0.0263348 -1.19501e-24)
(0.105127 -0.0262203 -1.50845e-22)
(0.163587 -0.0413102 -9.33495e-23)
(0.228209 -0.0578714 -4.19705e-22)
(0.341529 -0.0883381 2.81074e-22)
(0.220004 -0.0561896 9.23377e-22)
(0.155624 -0.0392284 0)
(0.103742 -0.0259482 1.47049e-22)
(0.10456 -0.0261363 -2.97421e-22)
(0.493202 -0.13078 -4.50465e-25)
(0.625276 -0.169853 8.33903e-22)
(0.730591 -0.203025 -7.0381e-22)
(0.802705 -0.227932 6.53427e-22)
(0.837241 -0.242687 5.95176e-22)
(0.83262 -0.24619 0)
(0.790287 -0.238244 -1.11865e-24)
(0.714458 -0.219535 1.0999e-21)
(0.611428 -0.191472 -1.15703e-21)
(0.488641 -0.155943 -1.16027e-21)
(0.353552 -0.115009 -1.23544e-21)
(0.212574 -0.0705094 1.45031e-21)
(0.0705328 -0.023846 2.70886e-21)
(0.105895 -0.0264071 1.19529e-24)
(0.10619 -0.0264922 1.55926e-22)
(0.0617654 -0.0152967 -1.36945e-22)
(0.0615396 -0.0152457 0)
(0.102552 -0.0257648 -4.52221e-24)
(0.100558 -0.025237 4.69657e-24)
(0.141423 -0.0352769 3.60836e-22)
(0.214871 -0.0546557 -4.67967e-22)
(0.335736 -0.0865435 -1.11294e-21)
(0.212074 -0.0537593 -7.04096e-24)
(0.131307 -0.0331527 -4.48562e-22)
(0.091152 -0.0225066 -1.2342e-23)
(0.0971402 -0.0245397 8.57207e-24)
(0.0608128 -0.0151043 -2.09709e-24)
(0.0612721 -0.0151901 1.38114e-22)
(0.487719 -0.129208 8.99221e-22)
(0.619689 -0.168234 7.80598e-22)
(0.724932 -0.201362 0)
(0.797092 -0.226253 -1.24568e-21)
(0.831806 -0.241038 2.3089e-24)
(0.827479 -0.24461 0)
(0.785559 -0.236775 -1.02769e-24)
(0.710257 -0.218212 1.05344e-21)
(0.607877 -0.190335 0)
(0.485821 -0.155024 -1.15766e-21)
(0.351483 -0.11432 -1.18227e-21)
(0.211337 -0.0700923 8.4322e-23)
(0.0701106 -0.0237048 -1.27064e-21)
(0.0619547 -0.0153472 1.38376e-22)
(0.0621208 -0.0153825 -1.42746e-22)
(0.0199122 -0.00489149 3.93714e-25)
(0.0198631 -0.00488404 1.05904e-22)
(0.0601168 -0.0149788 0)
(0.0588612 -0.0147357 1.31559e-22)
(0.0800884 -0.0188565 6.79644e-23)
(0.0703853 -0.0179593 -3.9819e-24)
(0.127335 -0.0319073 1.06484e-22)
(0.210091 -0.0531384 7.05018e-24)
(0.331854 -0.0854707 -1.06128e-21)
(0.208819 -0.0527636 6.7405e-24)
(0.125683 -0.0313643 -6.43281e-24)
(0.0623263 -0.0157229 -1.36156e-22)
(0.0649643 -0.0164345 1.42894e-22)
(0.0518263 -0.0121475 -1.42979e-23)
(0.0564156 -0.0141188 0)
(0.0196504 -0.00483416 8.09433e-25)
(0.0197703 -0.00485778 -8.09844e-25)
(0.483045 -0.1279 8.7352e-22)
(0.614556 -0.166763 -7.41216e-22)
(0.71954 -0.199784 6.61492e-22)
(0.791636 -0.224624 4.75991e-24)
(0.826447 -0.239413 5.53337e-22)
(0.82238 -0.243045 5.2978e-22)
(0.780863 -0.235313 1.02775e-24)
(0.706099 -0.216898 0)
(0.604365 -0.189204 1.02089e-21)
(0.483028 -0.154106 0)
(0.349477 -0.113651 -1.12767e-21)
(0.21012 -0.069681 0)
(0.0696982 -0.0235666 0)
(0.019962 -0.00490732 -1.4845e-25)
(0.020009 -0.00491559 -1.09978e-22)
(0.0194616 -0.00480028 9.98084e-23)
(0.0190856 -0.00474239 1.05224e-22)
(0.0347883 -0.00600611 1.20905e-23)
(0.0238839 -0.00629427 -3.14176e-23)
(0.0612149 -0.0152358 -1.41611e-22)
(0.0606469 -0.0150468 1.38776e-22)
(0.124659 -0.0310878 -9.42462e-23)
(0.207646 -0.0525193 -4.34976e-22)
(0.328723 -0.0846958 -1.23751e-21)
(0.206817 -0.0523127 6.58265e-24)
(0.123991 -0.0309039 -9.9386e-23)
(0.0601823 -0.0148886 1.33159e-22)
(0.0603744 -0.0149573 -2.12151e-24)
(0.0201771 -0.00508903 1.09412e-22)
(0.0215827 -0.00563977 -8.68334e-23)
(0.0169652 -0.00435124 7.21886e-23)
(0.0181767 -0.00465231 9.46881e-23)
(0.478883 -0.126758 8.50149e-22)
(0.609755 -0.165397 5.739e-24)
(0.714353 -0.198268 -6.25039e-22)
(0.786285 -0.223031 -4.59409e-24)
(0.821154 -0.23781 -5.30594e-22)
(0.817331 -0.241493 0)
(0.77622 -0.233864 0)
(0.702001 -0.215596 0)
(0.600907 -0.188086 -1.01117e-21)
(0.480297 -0.153207 -1.05878e-21)
(0.347511 -0.112992 0)
(0.20893 -0.0692768 0)
(0.0692919 -0.0234309 -1.15872e-21)
(0.00965234 -0.00153874 1.60644e-23)
(0.0196787 -0.00487157 0)
(0.0194723 -0.00479581 -1.94054e-22)
(0.0599952 -0.0148461 -1.30958e-22)
(0.0598808 -0.0148171 1.31218e-22)
(0.123425 -0.0307892 3.91658e-22)
(0.205856 -0.0521251 3.65092e-24)
(0.325973 -0.0840164 -2.48396e-22)
(0.205134 -0.0519336 3.95143e-22)
(0.122948 -0.0306767 0)
(0.0597062 -0.0147595 -1.27704e-22)
(0.0597715 -0.0147935 1.29398e-22)
(0.019329 -0.00474994 -1.89537e-22)
(0.0193877 -0.00477226 9.55199e-23)
(0.475061 -0.125716 -7.95122e-22)
(0.605184 -0.164102 1.36786e-21)
(0.709319 -0.196805 -6.0771e-22)
(0.781039 -0.221473 0)
(0.815927 -0.236229 -5.08069e-22)
(0.812334 -0.239956 0)
(0.771633 -0.232427 -4.745e-22)
(0.697958 -0.214307 4.47905e-22)
(0.597522 -0.186984 9.33434e-22)
(0.477629 -0.152321 0)
(0.345584 -0.112343 0)
(0.20776 -0.0688815 0)
(0.0688977 -0.0233006 0)
(0.0192832 -0.0047369 2.15385e-25)
(0.019234 -0.00472869 -9.27583e-23)
(0.0595755 -0.0147429 -1.25693e-22)
(0.0594928 -0.014722 -1.24636e-22)
(0.122482 -0.0305825 3.74965e-22)
(0.204246 -0.0517479 3.81579e-22)
(0.323437 -0.0833728 1.1596e-21)
(0.203584 -0.0515582 3.8804e-22)
(0.122033 -0.0304743 -4.57516e-22)
(0.0593252 -0.0146745 0)
(0.0593899 -0.0147085 1.23279e-22)
(0.0191972 -0.00471395 -3.83392e-25)
(0.0192119 -0.00472548 9.20841e-23)
(0.47144 -0.124735 -7.86458e-22)
(0.600792 -0.162866 6.56276e-22)
(0.7044 -0.195378 5.74572e-22)
(0.775873 -0.219939 4.81341e-24)
(0.810763 -0.234667 0)
(0.807395 -0.238432 -3.75423e-24)
(0.767108 -0.231004 4.45495e-22)
(0.693995 -0.213032 0)
(0.594212 -0.185898 0)
(0.475035 -0.151455 9.07175e-25)
(0.343717 -0.111712 0)
(0.206632 -0.0684978 -1.07039e-24)
(0.068507 -0.0231738 -1.05977e-21)
(0.019165 -0.00470692 9.07928e-23)
(0.0191231 -0.00470048 2.25025e-25)
(0.0591879 -0.0146567 -5.51997e-25)
(0.0591035 -0.0146338 9.56862e-25)
(0.121573 -0.0303703 -4.45417e-22)
(0.202746 -0.0513779 -3.68107e-22)
(0.321026 -0.0827556 -3.63939e-24)
(0.202105 -0.051191 -6.59403e-24)
(0.12114 -0.0302584 -8.66524e-23)
(0.0589257 -0.0145835 1.17126e-22)
(0.0589956 -0.014619 1.17508e-22)
(0.0190854 -0.00468701 -8.71445e-23)
(0.0191038 -0.00469922 -1.47972e-25)
(0.46797 -0.123795 -7.50302e-22)
(0.596522 -0.161663 -6.36358e-22)
(0.699579 -0.193981 5.56737e-22)
(0.770776 -0.218427 0)
(0.805654 -0.233117 4.66311e-22)
(0.802514 -0.236919 0)
(0.762656 -0.229591 0)
(0.690117 -0.211774 0)
(0.590995 -0.184831 0)
(0.472489 -0.150596 -9.28025e-22)
(0.341874 -0.111084 9.98318e-22)
(0.205509 -0.0681165 1.07014e-24)
(0.0681075 -0.0230382 1.01333e-24)
(0.0190503 -0.00467979 -1.72198e-22)
(0.0190063 -0.00467245 2.22508e-25)
(0.0587822 -0.014561 0)
(0.0586935 -0.014536 9.68641e-25)
(0.120703 -0.030157 2.57509e-22)
(0.201283 -0.0510107 -3.49734e-22)
(0.318701 -0.0821506 -2.08122e-22)
(0.200664 -0.0508285 3.42101e-22)
(0.120272 -0.0300462 -3.34533e-22)
(0.0585149 -0.0144829 0)
(0.0585848 -0.0145176 2.24348e-22)
(0.0189593 -0.00465712 -6.45617e-25)
(0.0189823 -0.00466998 -8.45746e-23)
(0.464611 -0.122882 -1.35531e-24)
(0.592344 -0.160487 5.95347e-22)
(0.69484 -0.192608 -5.24832e-22)
(0.765729 -0.216927 0)
(0.800588 -0.231576 -8.89809e-25)
(0.797698 -0.235416 4.22865e-22)
(0.758289 -0.228193 -7.84426e-25)
(0.686325 -0.210529 -4.12875e-22)
(0.587845 -0.183777 3.93887e-22)
(0.470019 -0.149759 -8.47793e-22)
(0.340087 -0.110474 0)
(0.204388 -0.0677337 0)
(0.0677193 -0.0229069 9.72858e-22)
(0.0189205 -0.00464886 -8.14594e-23)
(0.0188759 -0.0046414 1.62864e-22)
(0.0583738 -0.0144608 1.08855e-22)
(0.0582867 -0.0144364 1.08696e-22)
(0.119846 -0.0299444 4.86177e-22)
(0.199866 -0.0506494 3.37352e-22)
(0.316438 -0.0815589 1.92363e-22)
(0.199255 -0.0504666 3.26074e-22)
(0.119422 -0.0298366 -2.40228e-22)
(0.0581028 -0.014383 0)
(0.0581771 -0.0144178 1.06565e-22)
(0.0188266 -0.0046242 -7.94384e-23)
(0.0188521 -0.00463703 -2.11924e-25)
(0.461344 -0.121993 -1.71709e-23)
(0.588239 -0.15933 5.8253e-22)
(0.690138 -0.191246 0)
(0.760726 -0.215441 -4.54794e-22)
(0.795575 -0.230044 -4.22412e-22)
(0.792946 -0.233921 0)
(0.75401 -0.226807 -4.16475e-24)
(0.682631 -0.209306 3.85355e-22)
(0.584774 -0.182743 0)
(0.467587 -0.148932 0)
(0.338295 -0.109864 0)
(0.203286 -0.0673572 1.0207e-21)
(0.0673556 -0.0227802 -9.35189e-22)
(0.0187883 -0.00461652 -1.57057e-22)
(0.0187438 -0.00460912 0)
(0.0579638 -0.0143599 -1.45463e-24)
(0.0578758 -0.0143357 -2.0532e-22)
(0.119006 -0.0297337 7.67645e-23)
(0.198484 -0.0502951 0)
(0.31423 -0.0809776 -5.84629e-22)
(0.19788 -0.0501162 -3.16836e-22)
(0.118592 -0.0296264 -2.29302e-22)
(0.0577021 -0.0142839 0)
(0.0577701 -0.0143187 -1.02097e-22)
(0.0186932 -0.00459186 -7.58252e-23)
(0.0187198 -0.00460459 -2.16685e-25)
(0.45812 -0.121112 -6.3777e-22)
(0.584184 -0.158189 0)
(0.685468 -0.189892 4.87305e-22)
(0.755729 -0.213947 -8.3067e-25)
(0.790591 -0.228506 -1.61656e-24)
(0.788264 -0.232429 3.82017e-22)
(0.749816 -0.225434 0)
(0.679016 -0.208097 0)
(0.581768 -0.181724 -3.88577e-22)
(0.465199 -0.148117 0)
(0.336527 -0.109256 -8.28754e-22)
(0.202187 -0.0669715 -9.04854e-25)
(0.0669573 -0.0226439 1.8317e-21)
(0.0186554 -0.00458396 -1.49979e-22)
(0.0186093 -0.0045768 1.4846e-22)
(0.0575634 -0.0142607 -9.93869e-23)
(0.0574779 -0.0142357 -9.76499e-23)
(0.118185 -0.0295277 1.44633e-22)
(0.19713 -0.0499472 0)
(0.31207 -0.0804074 7.34078e-22)
(0.196541 -0.0497711 -6.31223e-24)
(0.117777 -0.0294223 7.27077e-23)
(0.0573023 -0.0141845 0)
(0.0573713 -0.0142179 -5.42543e-25)
(0.0185661 -0.00456037 0)
(0.0185897 -0.00457371 0)
(0.454951 -0.120247 6.07124e-22)
(0.580136 -0.157046 0)
(0.680787 -0.18853 0)
(0.750737 -0.212447 8.30372e-25)
(0.78564 -0.226961 0)
(0.783646 -0.230937 6.95957e-25)
(0.745708 -0.224071 0)
(0.675484 -0.206905 3.53762e-22)
(0.578823 -0.18072 0)
(0.462809 -0.147296 0)
(0.33477 -0.108645 0)
(0.201069 -0.0665819 -8.69183e-22)
(0.0665388 -0.0225062 9.03979e-22)
(0.0185271 -0.00455278 0)
(0.0184839 -0.00454509 2.16573e-25)
(0.0571645 -0.0141619 -6.24732e-25)
(0.0570956 -0.0141415 -9.28774e-25)
(0.117381 -0.0293243 6.9175e-23)
(0.195808 -0.0496063 1.12102e-24)
(0.309925 -0.0798391 -8.67834e-22)
(0.195222 -0.049433 -2.82168e-22)
(0.116982 -0.0292214 -2.08373e-22)
(0.0569083 -0.0140886 0)
(0.0569793 -0.0141189 -9.24694e-23)
(0.0184353 -0.00452835 0)
(0.0184603 -0.00454111 -2.06103e-25)
(0.451782 -0.119379 3.42275e-24)
(0.576065 -0.1559 0)
(0.676062 -0.187154 0)
(0.745711 -0.21092 3.88586e-22)
(0.780703 -0.225397 -1.38205e-24)
(0.779092 -0.229444 3.44308e-22)
(0.741676 -0.22272 0)
(0.672009 -0.205726 -6.59229e-25)
(0.575891 -0.179717 3.56568e-22)
(0.460443 -0.146478 0)
(0.33297 -0.108021 -8.14664e-22)
(0.199931 -0.0661893 -8.37837e-22)
(0.0661188 -0.022363 -3.25508e-24)
(0.0183966 -0.0045213 -2.48613e-25)
(0.0183568 -0.00451398 -6.78153e-23)
(0.0567777 -0.0140651 0)
(0.0567126 -0.0140454 -9.23332e-25)
(0.116596 -0.0291255 1.32218e-22)
(0.194505 -0.0492712 2.73893e-22)
(0.307816 -0.0792796 1.62486e-22)
(0.193924 -0.0490994 5.03185e-24)
(0.116201 -0.0290253 2.6324e-22)
(0.0565297 -0.0139943 0)
(0.0565984 -0.0140236 -8.79977e-23)
(0.0183054 -0.00449792 0)
(0.0183438 -0.00451147 6.68044e-23)
(0.448588 -0.118507 -2.24561e-24)
(0.571933 -0.154733 0)
(0.671236 -0.185735 -4.1993e-22)
(0.740627 -0.209352 0)
(0.77577 -0.223808 -3.45375e-22)
(0.774589 -0.227951 -3.28414e-22)
(0.737708 -0.221385 0)
(0.668575 -0.204559 6.09348e-24)
(0.572964 -0.178711 1.35105e-24)
(0.458053 -0.14565 6.90797e-22)
(0.331167 -0.10739 0)
(0.198749 -0.0657732 0)
(0.0656926 -0.0222191 8.44579e-22)
(0.0182735 -0.00449066 -6.50442e-23)
(0.0182349 -0.00448343 -1.29645e-22)
(0.0563997 -0.0139702 -6.56639e-25)
(0.0563337 -0.0139509 -9.04417e-25)
(0.115822 -0.0289302 -1.2985e-22)
(0.193216 -0.0489365 -2.62206e-22)
(0.3057 -0.0787153 0)
(0.192641 -0.0487644 2.52016e-22)
(0.115432 -0.0288335 3.11066e-22)
(0.0561539 -0.0139015 0)
(0.0562223 -0.0139299 0)
(0.0181856 -0.0044685 -6.28869e-23)
(0.0182224 -0.00448156 5.00969e-25)
(0.445323 -0.117611 0)
(0.567643 -0.153519 0)
(0.666253 -0.184253 3.86397e-22)
(0.735443 -0.207721 -3.42716e-22)
(0.770825 -0.22219 3.30073e-22)
(0.770131 -0.226467 3.14254e-22)
(0.733783 -0.220063 -3.13614e-22)
(0.665144 -0.203389 3.20037e-22)
(0.570025 -0.177697 3.28816e-22)
(0.455635 -0.144802 0)
(0.329315 -0.106736 7.56805e-22)
(0.197558 -0.0653533 -7.80652e-22)
(0.0652624 -0.0220705 0)
(0.0181519 -0.00446047 -1.24225e-22)
(0.0181116 -0.00445314 -6.1675e-23)
(0.0560298 -0.0138785 -8.14328e-23)
(0.0559646 -0.0138587 -8.08793e-23)
(0.115067 -0.0287395 1.19538e-22)
(0.191961 -0.0486092 -9.60087e-25)
(0.303532 -0.0781371 0)
(0.191381 -0.0484332 2.40441e-22)
(0.114684 -0.0286424 -1.79007e-22)
(0.0557902 -0.0138126 0)
(0.0558542 -0.0138395 -7.94995e-23)
(0.0180632 -0.00443861 -5.98937e-23)
(0.0181004 -0.00445149 0)
(0.441912 -0.116684 4.95151e-22)
(0.563103 -0.152229 -4.26344e-22)
(0.661028 -0.182661 3.67909e-22)
(0.730116 -0.206011 0)
(0.765877 -0.220566 -8.92595e-24)
(0.765711 -0.224999 -1.16468e-24)
(0.729876 -0.218749 4.80982e-24)
(0.661712 -0.202215 -2.97969e-22)
(0.567059 -0.176663 3.18112e-22)
(0.453169 -0.143933 -6.41599e-22)
(0.327423 -0.106062 7.32279e-22)
(0.196338 -0.0649173 -8.20989e-22)
(0.0647995 -0.0219146 -7.95817e-22)
(0.0180336 -0.00443159 -5.9068e-23)
(0.0179931 -0.0044236 -5.89366e-23)
(0.0556642 -0.0137889 -7.7902e-23)
(0.0556014 -0.013771 -1.72247e-25)
(0.114317 -0.0285473 1.13457e-22)
(0.190705 -0.0482804 0)
(0.301291 -0.0775414 -4.31782e-22)
(0.190107 -0.0481009 -2.26247e-22)
(0.113947 -0.028454 -1.14649e-22)
(0.0554294 -0.0137211 0)
(0.0554968 -0.013747 -7.53404e-23)
(0.0179487 -0.00441052 -5.74543e-23)
(0.0179817 -0.00442282 4.54615e-25)
(0.438201 -0.115677 0)
(0.558132 -0.150785 3.85169e-22)
(0.655439 -0.180915 0)
(0.72467 -0.204251 -6.22958e-22)
(0.760941 -0.218957 5.97068e-25)
(0.761331 -0.223555 -5.80515e-22)
(0.72598 -0.217435 -2.30309e-24)
(0.658251 -0.201021 -5.82893e-22)
(0.564052 -0.175607 0)
(0.450647 -0.143035 -6.19522e-22)
(0.325485 -0.105367 6.64538e-22)
(0.195075 -0.0644669 -6.34192e-23)
(0.0643098 -0.0217495 -3.37196e-23)
(0.0179116 -0.00440327 4.42013e-25)
(0.0178823 -0.00439958 -1.48375e-25)
(0.0553082 -0.0136984 -6.82963e-25)
(0.0552487 -0.0136816 -7.77161e-25)
(0.113585 -0.0283598 -5.34655e-23)
(0.189424 -0.0479432 -4.45886e-22)
(0.29883 -0.0768914 -4.02596e-24)
(0.188824 -0.0477609 0)
(0.11322 -0.0282684 2.13035e-22)
(0.0550778 -0.0136346 -7.07225e-23)
(0.0551475 -0.0136598 -7.13236e-23)
(0.0178294 -0.00437943 -5.41466e-23)
(0.0178656 -0.00439129 0)
(0.433932 -0.114517 -4.45861e-22)
(0.552535 -0.149112 3.48837e-22)
(0.649501 -0.179026 3.27061e-22)
(0.719169 -0.202497 -2.94413e-22)
(0.756069 -0.217394 5.73241e-22)
(0.756997 -0.222125 2.12219e-24)
(0.722079 -0.216109 2.72674e-22)
(0.654758 -0.199805 0)
(0.56098 -0.174518 0)
(0.44808 -0.142113 -1.22502e-24)
(0.323506 -0.104653 -3.88605e-23)
(0.193758 -0.0639951 7.20036e-22)
(0.0638093 -0.021579 7.30806e-22)
(0.0177948 -0.00437409 -1.06893e-22)
(0.0177674 -0.00437092 -1.4998e-25)
(0.0549639 -0.0136132 0)
(0.0549067 -0.0135945 6.88268e-23)
(0.112863 -0.0281741 1.56136e-22)
(0.188114 -0.0475994 2.12046e-22)
(0.29588 -0.0761418 1.33702e-22)
(0.187402 -0.0473899 -2.0562e-22)
(0.112481 -0.0280781 4.88715e-23)
(0.0547437 -0.0135498 -6.67338e-23)
(0.0548075 -0.0135752 6.74059e-23)
(0.0177147 -0.00435215 3.98308e-25)
(0.0177522 -0.00436335 0)
(0.428723 -0.113064 -4.07374e-22)
(0.546084 -0.1471 2.68256e-24)
(0.643334 -0.177105 3.18398e-22)
(0.713772 -0.200831 -7.52621e-24)
(0.751316 -0.215874 2.20006e-24)
(0.752706 -0.220697 -2.63587e-22)
(0.718169 -0.214766 4.1058e-24)
(0.651218 -0.19856 -2.05177e-24)
(0.557863 -0.173401 0)
(0.445463 -0.141164 -2.1998e-23)
(0.321487 -0.103916 -1.29659e-24)
(0.192388 -0.0634987 -1.45407e-24)
(0.0632951 -0.0214066 -3.34632e-23)
(0.0176858 -0.00434806 5.02173e-23)
(0.0176586 -0.00434332 5.01932e-23)
(0.0546289 -0.0135283 6.54425e-23)
(0.0545745 -0.0135112 0)
(0.11213 -0.0279818 -5.18064e-25)
(0.186579 -0.0472164 1.94922e-22)
(0.291894 -0.0751123 -1.49766e-23)
(0.185599 -0.0469531 -1.91026e-22)
(0.111701 -0.0278781 -4.56565e-23)
(0.0544102 -0.0134658 -8.72031e-25)
(0.0544786 -0.0134921 0)
(0.0176117 -0.00432578 0)
(0.0176433 -0.00433709 -4.92901e-23)
(0.421821 -0.111017 3.4147e-22)
(0.539014 -0.144931 -3.02639e-22)
(0.637337 -0.175347 -1.08241e-23)
(0.708632 -0.199252 0)
(0.746699 -0.214379 2.60616e-22)
(0.748452 -0.219264 0)
(0.714238 -0.213404 -2.00401e-24)
(0.64764 -0.197289 2.05159e-24)
(0.554703 -0.172255 5.3434e-22)
(0.442814 -0.140188 -1.15438e-24)
(0.319387 -0.103143 0)
(0.191006 -0.0630021 6.99319e-22)
(0.0627655 -0.0212262 -3.22583e-23)
(0.0175781 -0.00432093 0)
(0.0175529 -0.00431767 0)
(0.0543007 -0.0134444 6.1526e-23)
(0.0542476 -0.0134263 -6.09257e-23)
(0.111305 -0.0277717 -1.85037e-22)
(0.184342 -0.0467152 0)
(0.284927 -0.0732711 -4.86794e-22)
(0.18251 -0.0462291 0)
(0.110758 -0.0276513 -4.33018e-23)
(0.0540819 -0.0133847 0)
(0.0541511 -0.0134104 5.94778e-23)
(0.017504 -0.0042996 -4.56261e-23)
(0.0175396 -0.00431145 0)
(0.41325 -0.108461 4.48764e-23)
(0.532255 -0.143074 -3.38302e-22)
(0.631867 -0.173745 -4.37958e-24)
(0.703782 -0.19773 2.55404e-22)
(0.742203 -0.212903 1.96596e-24)
(0.74423 -0.217829 0)
(0.710296 -0.212021 0)
(0.644023 -0.195987 2.44173e-22)
(0.551492 -0.171076 5.23062e-22)
(0.440088 -0.139178 -1.10243e-24)
(0.317263 -0.102356 0)
(0.189593 -0.0624825 6.96244e-22)
(0.062218 -0.0210399 -7.62062e-22)
(0.0174743 -0.00429467 -4.53922e-23)
(0.0174488 -0.00429085 0)
(0.0539644 -0.0133583 0)
(0.0539158 -0.01334 5.60838e-23)
(0.110116 -0.0274997 -4.18846e-23)
(0.179688 -0.0456957 -4.92371e-24)
(0.272819 -0.0699598 2.84657e-22)
(0.174822 -0.0441728 1.48746e-22)
(0.109073 -0.0272936 0)
(0.0537269 -0.013297 5.36105e-23)
(0.053813 -0.0133262 5.54427e-23)
(0.0174044 -0.00427528 -4.28798e-23)
(0.0174371 -0.00428636 -4.37279e-23)
(0.40539 -0.10642 5.73949e-24)
(0.526581 -0.141495 0)
(0.626968 -0.172255 -2.70803e-22)
(0.699204 -0.196268 3.64926e-24)
(0.73782 -0.211447 0)
(0.740043 -0.216387 0)
(0.706344 -0.210618 -2.29743e-22)
(0.640384 -0.194661 -4.76253e-22)
(0.548239 -0.16987 -9.8292e-25)
(0.437337 -0.138141 1.10224e-24)
(0.315071 -0.101533 6.39811e-22)
(0.188152 -0.0619521 7.01983e-22)
(0.0616527 -0.0208428 -7.71928e-22)
(0.0173741 -0.00426935 0)
(0.0173482 -0.00426533 -4.18404e-23)
(0.0535934 -0.013271 6.98553e-25)
(0.0534922 -0.013237 -5.16105e-23)
(0.10744 -0.0269685 3.88704e-23)
(0.165847 -0.0415106 1.70033e-22)
(0.263013 -0.0674463 8.83097e-23)
(0.156426 -0.0397905 -7.15864e-23)
(0.103942 -0.0260755 0)
(0.0531358 -0.0131695 0)
(0.0533536 -0.0132196 -5.08117e-23)
(0.0172972 -0.00424932 -7.98442e-23)
(0.0173373 -0.00426091 0)
(0.399742 -0.104848 3.42962e-22)
(0.521889 -0.140095 2.8474e-22)
(0.622502 -0.170865 0)
(0.694833 -0.194856 -3.65464e-24)
(0.733535 -0.210008 0)
(0.735891 -0.214941 1.59704e-24)
(0.702392 -0.209195 8.244e-25)
(0.636716 -0.193304 0)
(0.544953 -0.168628 9.82564e-25)
(0.434521 -0.137069 -1.09429e-21)
(0.312883 -0.1007 -6.16484e-25)
(0.186652 -0.0613865 7.0849e-22)
(0.0610441 -0.0206425 0)
(0.0172731 -0.00424591 3.95183e-23)
(0.0172284 -0.00423346 1.22673e-25)
(0.0528584 -0.0131336 0)
(0.0523535 -0.0130376 -4.95771e-23)
(0.0924635 -0.0226876 -3.53968e-23)
(0.150652 -0.0381245 1.00142e-23)
(0.258202 -0.0658601 -3.09394e-22)
(0.148137 -0.0372857 -3.29319e-22)
(0.0781559 -0.0202155 6.84041e-23)
(0.049454 -0.0120652 -5.21437e-23)
(0.0514683 -0.0129389 0)
(0.0171389 -0.00420985 0)
(0.0172116 -0.00422697 3.91115e-25)
(0.395707 -0.103641 -3.18133e-22)
(0.517862 -0.138868 -3.90672e-25)
(0.618387 -0.169575 3.41029e-24)
(0.690648 -0.193491 2.00679e-22)
(0.72935 -0.208584 -1.49236e-24)
(0.731778 -0.213485 -3.09711e-24)
(0.698446 -0.20775 1.98127e-22)
(0.633025 -0.191916 0)
(0.54164 -0.167358 4.85747e-22)
(0.431677 -0.135967 0)
(0.310603 -0.0998234 6.40007e-22)
(0.185082 -0.0608053 0)
(0.060409 -0.0204292 1.60164e-21)
(0.0170601 -0.00419592 3.61162e-23)
(0.0168928 -0.00416917 3.44585e-23)
(0.0450796 -0.010299 -1.24138e-23)
(0.0303797 -0.00510067 0)
(0.0731816 -0.0184047 4.7532e-24)
(0.146686 -0.0367274 1.46936e-22)
(0.255544 -0.0650713 1.42966e-24)
(0.145866 -0.0364706 -1.54093e-22)
(0.0720542 -0.0178498 1.78678e-22)
(0.018531 -0.00497906 2.6384e-23)
(0.0207377 -0.00512609 -2.47196e-23)
(0.0158737 -0.00404486 7.79407e-23)
(0.0165922 -0.0041486 1.6831e-24)
(0.392455 -0.102688 -4.64424e-25)
(0.514252 -0.137776 -3.92257e-24)
(0.614536 -0.16836 -1.86871e-23)
(0.686624 -0.192159 0)
(0.725249 -0.207164 1.49318e-24)
(0.727705 -0.212018 -3.67959e-22)
(0.694507 -0.206281 -1.87765e-22)
(0.629328 -0.1905 0)
(0.538298 -0.166051 0)
(0.428789 -0.134834 3.1313e-24)
(0.308282 -0.0989229 -6.47543e-22)
(0.183468 -0.0602011 -1.53915e-21)
(0.0597706 -0.020209 -2.5646e-23)
(0.0147821 -0.00372309 -4.68759e-24)
(0.00836541 -0.00129465 3.26561e-23)
(0.0173918 -0.00439272 -4.11348e-23)
(0.0169688 -0.00423935 -3.60558e-23)
(0.0714929 -0.0176683 -1.38294e-22)
(0.145209 -0.0363499 -1.38947e-22)
(0.253597 -0.0646071 2.37128e-24)
(0.144782 -0.0362558 1.36732e-22)
(0.0711509 -0.0175702 0)
(0.0168376 -0.00413784 3.4478e-23)
(0.0169074 -0.00417589 -3.55234e-23)
(0.389691 -0.101898 -2.35196e-24)
(0.510992 -0.136787 -1.77314e-23)
(0.610896 -0.167195 0)
(0.682738 -0.190852 1.65171e-22)
(0.721232 -0.205749 3.36006e-22)
(0.723674 -0.210537 1.81919e-22)
(0.690575 -0.204786 -7.12369e-25)
(0.625618 -0.189049 0)
(0.534922 -0.164708 -4.78687e-22)
(0.425835 -0.133656 5.48048e-22)
(0.305895 -0.0979858 6.41465e-22)
(0.181804 -0.0595677 7.77561e-22)
(0.0590762 -0.0199761 1.75375e-21)
(0.0168162 -0.00413527 0)
(0.0168042 -0.00412832 3.33611e-23)
(0.0709277 -0.0175393 -3.15768e-23)
(0.144292 -0.0361848 0)
(0.251937 -0.0642117 -7.33131e-23)
(0.143948 -0.0360976 0)
(0.0707529 -0.0175011 0)
(0.0167768 -0.00411717 -3.22155e-23)
(0.0167828 -0.00412241 -3.29742e-23)
(0.387236 -0.101196 -2.45792e-22)
(0.507968 -0.135861 3.04153e-24)
(0.607436 -0.166072 -3.39422e-22)
(0.678971 -0.189562 -1.8348e-23)
(0.717292 -0.204331 1.44961e-22)
(0.719685 -0.209038 1.5068e-22)
(0.686661 -0.203262 1.66916e-22)
(0.621906 -0.187563 0)
(0.531494 -0.16332 4.55225e-22)
(0.422837 -0.13244 0)
(0.303426 -0.0970056 0)
(0.180075 -0.0589119 -8.15403e-22)
(0.0583645 -0.0197397 -9.42955e-22)
(0.0167564 -0.00411972 6.37726e-23)
(0.0167573 -0.00411567 -2.45759e-25)
(0.070583 -0.0174773 -2.8769e-23)
(0.143505 -0.036016 1.14146e-22)
(0.250486 -0.063843 0)
(0.143185 -0.0359199 0)
(0.0704101 -0.0174312 -4.16515e-25)
(0.0167313 -0.00410963 0)
(0.0167313 -0.00411378 -3.03013e-23)
(0.385017 -0.100555 -1.7438e-24)
(0.505119 -0.134974 1.55501e-23)
(0.604112 -0.164972 -1.84234e-23)
(0.675307 -0.188278 -1.51278e-22)
(0.713423 -0.202904 -1.5102e-22)
(0.715738 -0.207517 -2.99406e-22)
(0.682765 -0.201707 1.56759e-22)
(0.618168 -0.186036 -6.00483e-22)
(0.528039 -0.16189 0)
(0.419794 -0.131186 5.61293e-22)
(0.300907 -0.0959939 0)
(0.1783 -0.0582337 8.64103e-22)
(0.0576294 -0.0194932 9.83115e-22)
(0.0167016 -0.00410939 5.79322e-23)
(0.0166973 -0.00410212 2.82123e-23)
(0.0702378 -0.0173985 4.16423e-25)
(0.142758 -0.0358323 0)
(0.24916 -0.0634921 8.26306e-25)
(0.142463 -0.0357383 0)
(0.070064 -0.0173497 0)
(0.0166586 -0.00409006 0)
(0.0166685 -0.0040984 0)
(0.382929 -0.0999441 1.92654e-22)
(0.502411 -0.13412 -1.57544e-22)
(0.600918 -0.163893 0)
(0.67175 -0.186999 1.01456e-24)
(0.709625 -0.201465 1.38438e-22)
(0.711834 -0.205972 -1.52473e-22)
(0.678878 -0.200116 3.23478e-22)
(0.614417 -0.184468 1.82098e-22)
(0.524569 -0.160423 -4.9301e-22)
(0.416686 -0.129882 5.75233e-22)
(0.298357 -0.0949469 0)
(0.176431 -0.0575095 0)
(0.056843 -0.019241 -1.07822e-21)
(0.0166264 -0.00408963 2.59417e-23)
(0.0166229 -0.00408385 2.52231e-23)
(0.0698959 -0.0173134 0)
(0.142059 -0.035655 3.35548e-25)
(0.247907 -0.0631524 -4.7475e-25)
(0.141781 -0.0355616 -3.35429e-25)
(0.0697367 -0.0172701 0)
(0.0165815 -0.00407204 0)
(0.0165919 -0.00408014 -2.43916e-23)
(0.380964 -0.0993613 -1.31679e-24)
(0.499839 -0.133291 0)
(0.597833 -0.162822 9.80212e-23)
(0.668283 -0.185716 9.12743e-23)
(0.705901 -0.20001 -2.57671e-25)
(0.707972 -0.204397 -1.43803e-22)
(0.675006 -0.198488 -1.71566e-22)
(0.61067 -0.182855 0)
(0.52105 -0.158899 -5.05073e-22)
(0.41354 -0.128525 5.95283e-22)
(0.295665 -0.0938327 0)
(0.174476 -0.0567724 9.88083e-22)
(0.0560012 -0.0189363 -1.16933e-24)
(0.0165517 -0.00407064 -2.29942e-23)
(0.0165452 -0.00406484 2.22748e-23)
(0.0695753 -0.0172337 0)
(0.1414 -0.0354851 -2.86325e-25)
(0.246718 -0.0628225 -6.19079e-26)
(0.141121 -0.0353903 2.8622e-25)
(0.0694105 -0.0171897 0)
(0.0165158 -0.00405509 -2.07975e-23)
(0.0165158 -0.00406179 -2.15667e-23)
(0.379097 -0.0987976 -1.19679e-22)
(0.497371 -0.132474 -2.00917e-22)
(0.594861 -0.161754 -9.85278e-23)
(0.66491 -0.184421 0)
(0.702241 -0.198532 -2.02187e-25)
(0.704152 -0.202791 0)
(0.671146 -0.196813 0)
(0.606898 -0.181188 1.76971e-22)
(0.51747 -0.157311 -5.22538e-22)
(0.410285 -0.127108 0)
(0.292887 -0.0926734 0)
(0.172407 -0.0560028 -1.11236e-24)
(0.0552996 -0.0184735 1.2573e-21)
(0.0164832 -0.00405343 -1.99577e-23)
(0.0164781 -0.00404756 1.93992e-23)
(0.069253 -0.0171565 0)
(0.140761 -0.0353144 -4.74147e-25)
(0.24559 -0.0625092 1.07884e-22)
(0.140504 -0.0352241 6.86541e-25)
(0.0690946 -0.0171106 0)
(0.0164362 -0.00403753 1.79512e-23)
(0.0164487 -0.00404514 -1.88009e-23)
(0.377335 -0.0982556 1.06811e-22)
(0.49502 -0.131668 -3.36497e-25)
(0.591992 -0.160681 0)