/*--------------------------------*- C++ -*----------------------------------*\
| =========                 |                                                 |
| \\      /  F ield         | OpenFOAM: The Open Source CFD Toolbox           |
|  \\    /   O peration     | Version:  v1912                                 |
|   \\  /    A nd           | Website:  www.openfoam.com                      |
|    \\/     M anipulation  |                                                 |
\*---------------------------------------------------------------------------*/
FoamFile
{
    version     2.0;
    format      ascii;
    class       surfaceScalarField;
    location    "350";
    object      phi;
}
// * * * * * * * * * * * * * * * * * * * * * * * * * * * * * * * * * * * * * //

dimensions      [0 3 -1 0 0 0 0];
oriented        oriented;


internalField   nonuniform List<scalar> 
7196
(
0.00510601
0.00490099
0.0062293
0.00888471
0.00245862
0.00244237
0.00618537
0.0100509
0.00446972
0.00687361
0.000925736
0.00151663
0.00596123
0.0102331
0.0052223
0.00929835
0.00258374
0.0052156
0.000294099
0.00122253
0.00577316
0.0101971
0.00526929
0.0101861
0.00373662
0.00814547
0.00128557
0.00422413
7.77122e-05
0.00114482
0.00562856
0.0101556
0.00510731
0.0103591
0.00419106
0.0097317
0.00232761
0.00710343
0.000563854
0.00373798
3.27595e-07
0.00114449
0.00550382
0.0101357
0.00493984
0.0103231
0.00422894
0.0103212
0.00296293
0.00909639
0.00128139
0.00638589
0.000193503
0.00354481
-2.93184e-05
0.00117381
0.00538829
0.0101275
0.00480697
0.0102686
0.004121
0.010431
0.00318495
0.0100991
0.00186437
0.00851341
0.000598518
0.00598087
1.2444e-05
0.00350305
-3.84422e-05
0.00121225
0.00527986
0.0101204
0.00470545
0.010229
0.00399893
0.0103907
0.0031733
0.0104427
0.00215333
0.00981018
0.0010136
0.00809833
0.000191217
0.0058021
-6.82136e-05
0.00353282
-3.64446e-05
0.00124869
0.0051756
0.0101143
0.00462492
0.010201
0.00390015
0.0103278
0.0030787
0.0104853
0.0021986
0.0103974
0.00126028
0.00956351
0.000426637
0.0078629
-2.45849e-05
0.00575847
-9.2665e-05
0.00358904
-2.98441e-05
0.00127854
0.00507804
0.0101056
0.00456518
0.010174
0.00383154
0.0102696
0.00297627
0.0104303
0.00211649
0.0105674
0.00130607
0.0103516
0.000580703
0.00940944
7.1257e-05
0.00776706
-0.00011965
0.00578546
-9.0847e-05
0.00365004
-2.32581e-05
0.0013018
0.00498839
0.0100937
0.00452804
0.0101427
0.00379477
0.0102108
0.00289582
0.01035
0.00199107
0.0105557
0.00120887
0.0106646
0.000585832
0.0103465
0.000131986
0.00934871
-0.000110839
0.00775825
-0.000147146
0.00584175
-7.85049e-05
0.00370529
-1.70306e-05
0.00131883
0.00490523
0.0100822
0.0045129
0.0101088
0.00379189
0.0101456
0.00284811
0.0102585
0.00186455
0.0104765
0.0010351
0.0107294
0.000451087
0.0107993
8.70038e-05
0.0103915
-0.000116939
0.00935481
-0.000186107
0.00779721
-0.000144281
0.00590753
-6.36792e-05
0.00375194
-1.13458e-05
0.00133017
0.00482844
0.0100698
0.00452221
0.0100728
0.00383155
0.0100691
0.002845
0.0101487
0.00175738
0.0103657
0.000826538
0.0106851
0.000217962
0.0109626
-7.67296e-05
0.010963
-0.000192263
0.0104668
-0.000231741
0.00940045
-0.000205821
0.00785875
-0.000127592
0.00597144
-4.8685e-05
0.00378928
-7.06337e-06
0.00133724
0.004756
0.0100574
0.00455554
0.0100365
0.00391814
0.00998625
0.00289839
0.0100158
0.0016876
0.0102185
0.000607598
0.0105846
-8.44958e-05
0.0109876
-0.000344618
0.0112305
-0.000362642
0.0111334
-0.000325425
0.0105605
-0.000275134
0.00946976
-0.000198068
0.00792923
-0.000106741
0.0060295
-3.50836e-05
0.0038173
-3.43218e-06
0.00134067
0.00468506
0.0100499
0.00460773
0.0100052
0.00405751
0.0098971
0.00302822
0.00985641
0.00168016
0.0100232
0.000395881
0.0104302
-0.000443779
0.0109439
-0.000700359
0.0113433
-0.000620349
0.0114882
-0.000488318
0.0112963
-0.000380811
0.0106661
-0.000280932
0.00955262
-0.000177767
0.00800026
-8.42975e-05
0.00607871
-2.41158e-05
0.00383798
-1.25754e-06
0.00134193
0.00461209
0.010046
0.00467429
0.00998338
0.00424776
0.00981499
0.00324984
0.00967549
0.0017665
0.00977006
0.000211014
0.0102081
-0.000861926
0.0108483
-0.00114437
0.0113879
-0.000953264
0.0116762
-0.0007214
0.0117212
-0.000540601
0.0114561
-0.000392549
0.0107778
-0.000264143
0.009639
-0.000151986
0.00806795
-6.56214e-05
0.00612022
-1.53323e-05
0.00385206
7.14667e-07
0.00134121
0.00453334
0.0100497
0.00474161
0.00997866
0.0044802
0.00975094
0.00358033
0.00948449
0.00199059
0.0094514
9.06599e-05
0.00989042
-0.00134424
0.0106904
-0.00169127
0.0113952
-0.00135783
0.0117925
-0.00101009
0.0119649
-0.000752561
0.0119332
-0.000547888
0.0116114
-0.000378651
0.0108923
-0.000238582
0.0097256
-0.000126969
0.00812929
-4.90517e-05
0.00615394
-8.58181e-06
0.00386135
1.87746e-06
0.00133934
0.00444443
0.0100609
0.00479779
0.00999357
0.00473664
0.00972222
0.00402072
0.00931056
0.00240892
0.00906616
9.90837e-05
0.00944298
-0.00189866
0.0104448
-0.00237434
0.0113735
-0.00183438
0.0118718
-0.00134248
0.0121249
-0.00100905
0.0122214
-0.000747974
0.0121333
-0.000529626
0.0117624
-0.00035079
0.0110045
-0.000210524
0.00980915
-0.000104937
0.00818518
-3.63333e-05
0.00618169
-4.19892e-06
0.00386743
2.51507e-06
0.00133682
0.00434198
0.0100785
0.00482865
0.01003
0.00498612
0.00974409
0.00454499
0.00919794
0.00307753
0.00864195
0.00035742
0.00880782
-0.00251483
0.0100591
-0.00323083
0.0113013
-0.00238642
0.0119255
-0.00171246
0.0122417
-0.00129301
0.0124088
-0.00097864
0.0124521
-0.000717443
0.0123211
-0.000497558
0.0119092
-0.000321627
0.0111156
-0.00018452
0.00988873
-8.66168e-05
0.00823546
-2.63791e-05
0.00620387
-2.33845e-07
0.00387018
3.2517e-06
0.00133357
0.0042241
0.0101009
0.00481942
0.0100877
0.00519797
0.00981819
0.00509896
0.00919012
0.00398925
0.00828622
0.00111322
0.00788615
-0.00309403
0.00938703
-0.00426409
0.0110924
-0.00298179
0.0118967
-0.00208961
0.0123027
-0.00158101
0.0125297
-0.00122424
0.0126544
-0.00093051
0.0126651
-0.000676599
0.0125001
-0.000463178
0.0120507
-0.000290735
0.0112218
-0.000160219
0.00996234
-7.04758e-05
0.00827956
-1.81742e-05
0.00622181
2.19951e-06
0.00387123
3.5123e-06
0.00133006
0.00409247
0.0101226
0.00476315
0.0101572
0.00533841
0.00994725
0.00561247
0.00930469
0.00503879
0.00814058
0.00266773
0.00673171
-0.00322693
0.00801904
-0.00533127
0.0104542
-0.00344465
0.0115553
-0.00237862
0.0121857
-0.00181919
0.0125408
-0.00144863
0.0127541
-0.00114707
0.012871
-0.000878137
0.0128667
-0.000634711
0.0126717
-0.000427171
0.0121872
-0.000261083
0.0113227
-0.000139672
0.0100315
-5.73571e-05
0.00831874
-1.24803e-05
0.00623649
3.45656e-06
0.00387129
3.62615e-06
0.00132643
0.0039479
0.0101416
0.0046599
0.0102259
0.00538269
0.0101129
0.00600421
0.00955551
0.00610617
0.0082373
0.00459205
0.00317931
0.00303696
-0.000228003
0.00288592
-0.00143236
0.00227923
-0.00325831
0.00449626
-0.00236461
0.00381443
-0.00190149
0.010306
-0.00139497
-0.00234181
0.0115185
-0.00187882
0.0122453
-0.00157927
0.0126715
-0.00132541
0.0129325
-0.00107427
0.0130671
-0.000823897
0.0130559
-0.000590913
0.0128354
-0.00039279
0.0123189
-0.000236044
0.011419
-0.000122288
0.0100965
-4.79379e-05
0.0083542
-8.28945e-06
0.00624824
4.80487e-06
0.00387011
3.38123e-06
0.00132305
0.0037947
0.0101552
0.00451754
0.0102839
0.00533085
0.0102777
0.00620945
0.00990762
0.00698036
0.00868133
0.00678449
0.00299351
0.00305135
0.00057946
0.00237184
0.00152969
0.00208672
-0.00323034
0.00285795
-0.000717286
0.000874479
0.000782287
-0.00128085
-0.00113641
0.000571471
0.000894669
-0.00175858
0.00435334
-0.000994906
0.0012793
0.000887894
-0.000678952
-0.000647905
0.00323035
-0.000526594
-0.000922076
0.00957444
-0.000688153
-0.000998522
0.00395689
-0.00155609
0.0111957
-0.0014874
0.0121535
-0.00138842
0.0127345
-0.00122552
0.0130837
-0.00100542
0.0132486
-0.000766567
0.0132315
-0.000545986
0.0129886
-0.000359124
0.012442
-0.000214059
0.0115108
-0.000107379
0.0101559
-4.04364e-05
0.00838635
-6.02102e-06
0.00625907
4.79343e-06
0.0038687
3.41878e-06
0.00131963
0.00363615
0.0101636
0.00434424
0.0103285
0.00519645
0.0104183
0.00622537
0.0102618
0.00745706
0.00943091
0.00863578
0.00327356
0.00355648
0.0026009
0.0019223
0.00355719
0.00105815
0.00103691
0.000433466
0.000399757
0.000536214
-0.00109913
0.000692765
-0.000867433
0.000550587
-0.000940231
0.000496591
0.00106806
-0.000496591
0.000967824
-0.000492419
0.00112382
0.000684348
-0.000288872
0.000288872
-0.000172048
0.00266948
-0.000265608
-0.000323796
0.000921017
0.00356755
-0.000532734
-0.000428338
0.00877697
-0.000330286
0.00323096
-0.000351567
-0.00106009
0.0107684
-0.00123001
0.0119951
-0.00125533
0.0127643
-0.00113594
0.0132142
-0.000930025
0.0134121
-0.000706968
0.0133925
-0.000501883
0.0131314
-0.000328398
0.0125563
-0.00019361
0.011597
-9.63762e-05
0.0102118
-3.55004e-05
0.00841583
-4.13297e-06
0.00626799
4.91029e-06
0.00386721
2.98004e-06
0.00131665
0.00347418
0.010169
0.0041486
0.0103592
0.00500132
0.0105236
0.0060929
0.0105508
0.00755199
0.0101669
0.00954895
0.00407548
0.00444226
0.00463031
0.00220044
0.00543901
0.00274778
0.00103774
0.00027051
0.00025166
0.000795853
-0.00142221
0.00176121
0.000719149
0.000652444
0.000720863
-0.000321106
0.000389645
-0.000389645
0.000360552
-0.000771771
0.000653651
-5.39274e-05
0.00227564
-8.13572e-05
-5.75362e-05
-0.000116362
0.00301649
-0.000213864
-0.000215443
0.00811771
-0.000185382
0.00284257
-0.000156365
0.00200563
-3.80366e-05
-4.35191e-05
-0.000810281
0.0103487
-0.00109023
0.01183
-0.00116025
0.0127886
-0.00103837
0.0133226
-0.000849329
0.0135545
-0.000647965
0.0135386
-0.000460431
0.0132634
-0.000302869
0.0126656
-0.00017826
0.0116789
-8.89583e-05
0.0102653
-3.15828e-05
0.00844328
-3.76264e-06
0.00627667
4.59205e-06
0.00386559
2.84224e-06
0.00131381
0.00330932
0.0101729
0.00393636
0.0103812
0.0047625
0.010598
0.00585457
0.010762
0.0073697
0.0107331
0.00967356
0.0100423
0.0060477
0.00346679
0.00646555
0.00402441
0.00493226
-0.00161367
0.000303421
0.000339639
0.00626905
0.000878661
0.000532332
-5.05961e-05
0.000201064
0.0011791
0.000269198
0.000284575
0.00024419
0.00059171
-1.94169e-05
0.000190263
0.000547318
-1.31438e-05
0.00184182
-2.68473e-05
-2.31992e-05
0.00272623
-9.91052e-05
-0.000138061
0.00759022
-0.00014473
0.00262102
-8.01727e-05
0.00172284
-1.80525e-05
-1.93331e-05
-0.000512719
0.000484152
-9.46948e-06
-8.9194e-06
-0.000723847
0.00998231
-0.00102947
0.0116992
-0.00104549
0.0127957
-0.000930943
0.0134042
-0.000766347
0.0136728
-0.000590957
0.0136691
-0.000425655
0.0133862
-0.000281983
0.0127693
-0.000166536
0.0117565
-8.28296e-05
0.0103166
-2.99674e-05
0.00846948
-3.71097e-06
0.00628497
3.93823e-06
0.0038645
2.29538e-06
0.00131152
0.00314176
0.0101756
0.00371404
0.0103952
0.00449426
0.0106495
0.00554462
0.010908
0.00701868
0.011113
0.00926053
0.0111461
-0.00757041
0.0140464
0.00469317
0.00533866
0.00707973
0.00126592
0.0013902
0.00189401
0.00163972
0.00105826
-0.000754837
0.0013979
-0.00193023
0.00280889
0.000470262
0.000170846
0.000157702
0.000462996
-5.69127e-06
0.000445071
-5.27489e-06
0.00164598
-1.17067e-05
-1.05421e-05
0.00254288
-5.99132e-05
-0.000121581
0.00714593
-0.000157977
0.00245773
-5.95818e-05
0.00158352
-8.77684e-06
-8.94106e-06
-0.000429884
0.000416373
-4.54161e-06
-4.14583e-06
-0.000148783
0.000139314
-0.000749478
0.00970232
-0.000934105
0.0115878
-0.00091492
0.0127797
-0.000819093
0.013457
-0.000686135
0.013768
-0.00054021
0.0137837
-0.00039596
0.0135002
-0.000265592
0.0128683
-0.00015777
0.0118314
-7.89114e-05
0.0103655
-2.85301e-05
0.0084943
-3.94714e-06
0.00629285
3.14463e-06
0.00386365
2.12407e-06
0.00130939
0.00297436
0.0101754
0.00348591
0.0104037
0.00420562
0.0106838
0.00519058
0.0110035
0.00657438
0.0113523
0.00861044
0.0117631
0.0128407
0.0123519
0.00877396
-0.00417065
-0.00337231
0.00195809
0.00150408
0.00883152
0.0052811
0.00299956
0.00107524
0.00344662
0.000943136
-0.00391216
0.00163551
0.00117419
0.000133622
0.000128347
0.000407144
-2.47772e-06
0.000398876
-2.2734e-06
0.00153613
-6.09899e-06
-6.42302e-06
0.00239063
-5.44866e-05
-0.000162768
0.00680198
-0.000242757
0.00229951
-6.68535e-05
0.00148884
-6.51705e-06
-5.77571e-06
-0.000391777
0.000385039
-2.03935e-06
-1.84192e-06
-0.000124202
0.00011966
-0.000747455
0.00951567
-0.000786144
0.011459
-0.000770396
0.012731
-0.000713955
0.0134848
-0.000618998
0.0138468
-0.00050111
0.0138888
-0.000374676
0.0136093
-0.000254151
0.0129647
-0.000152133
0.0119047
-7.56475e-05
0.0104126
-2.787e-05
0.00851823
-4.44497e-06
0.00630044
2.55557e-06
0.00386322
1.77729e-06
0.00130762
0.00280673
0.0101766
0.0032531
0.0104082
0.00390597
0.0107033
0.00481205
0.0110623
0.0060784
0.0114995
0.00789951
0.0120632
0.0112398
0.0133639
-0.00682415
0.0159709
0.00546549
0.00657119
-0.00319257
0.00145577
-0.00295985
0.00312794
0.00179
-0.00145577
-0.00179
0.00182527
0.00154961
0.00107524
0.00201838
0.000117182
0.000114909
0.000380294
-1.35367e-06
0.000375005
-1.13379e-06
0.00144482
-4.626e-06
-5.83608e-06
0.00222083
-8.40902e-05
-0.000292282
0.00662545
-0.000278647
0.00211558
-0.0001375
0.00138989
-7.24936e-06
-4.67196e-06
-0.000370474
0.000365427
-1.47029e-06
-1.24483e-06
-0.000113067
0.000111028
-0.000577025
0.00930655
-0.000614261
0.0113029
-0.000643459
0.0126605
-0.000628536
0.0134943
-0.000568603
0.0139143
-0.00047339
0.0139875
-0.000359055
0.0137142
-0.000244317
0.0130569
-0.000145734
0.0119748
-7.2134e-05
0.0104569
-2.71631e-05
0.00854094
-5.4753e-06
0.00630848
1.66579e-06
0.00386333
1.63175e-06
0.00130598
0.00263933
0.0101764
0.00301987
0.0104099
0.0035993
0.0107149
0.00441809
0.0110973
0.00555824
0.0115825
0.00717634
0.0122227
0.00973691
0.0135661
0.0143413
0.0149935
0.00503708
-0.00201374
-0.00136114
0.00197789
0.0018254
0.00588749
0.00572078
-0.00154961
0.00136114
0.000109674
0.00010854
0.000361857
-1.05573e-06
0.000357059
-1.03838e-06
0.00132109
-4.88303e-06
-1.04127e-05
0.00204251
-0.000219218
-0.000212489
0.00637924
-0.000118324
0.00198603
-0.000222162
0.00122033
-2.64784e-05
-1.02619e-05
-0.000353369
0.00034749
-1.3702e-06
-9.82144e-07
-0.000107295
0.000105825
-0.000380017
0.00907231
-0.00047865
0.0111381
-0.000547602
0.0125796
-0.00056745
0.0134932
-0.000534962
0.0139759
-0.000456178
0.0140846
-0.00034949
0.0138193
-0.000237189
0.0131484
-0.00014083
0.0120434
-7.06975e-05
0.0105004
-2.74192e-05
0.00856289
-5.63497e-06
0.00631578
1.10456e-06
0.00386386
1.14316e-06
0.00130484
0.00247145
0.0101769
0.00278579
0.0104105
0.00329079
0.0107184
0.00402062
0.0111124
0.00503456
0.011621
0.00645622
0.0123026
0.0084684
0.0134912
0.0121294
0.015778
-0.00412843
0.011839
0.0131704
-0.00107957
0.0014756
0.00158187
0.000745826
-0.000982762
0.00405072
0.000104769
0.000103731
0.000343761
-1.15372e-06
0.000334952
-1.60396e-06
0.0011245
-4.07579e-05
-8.26242e-05
0.00189749
-0.000123952
-8.23411e-05
0.0061262
-4.46351e-05
0.00183419
-5.50168e-05
0.00104765
-6.54217e-05
-7.98957e-05
-0.000326989
0.00030572
-5.20979e-06
-2.2984e-06
-0.000102749
0.000101379
-0.000264058
0.00885771
-0.000389133
0.0109796
-0.000485697
0.0124978
-0.000532303
0.0134905
-0.000517663
0.0140374
-0.000444459
0.0141796
-0.000337616
0.0139198
-0.000227863
0.0132354
-0.00013477
0.0121075
-6.816e-05
0.0105412
-2.66034e-05
0.00858386
-6.77815e-06
0.00632366
2.58209e-07
0.00386474
8.69689e-07
0.00130397
0.00230533
0.0101771
0.00255398
0.0104087
0.00298419
0.0107171
0.00362421
0.0111148
0.00451715
0.0116298
0.00575488
0.0123223
0.00740246
0.0133685
0.0101092
0.0155113
0.0113878
0.0162293
-0.00200412
0.00703364
0.00954425
-0.00140341
-0.000427735
0.00102684
0.000318091
0.00273768
-0.000390148
-0.000300934
0.000100225
9.86209e-05
0.00027737
-1.24072e-05
0.000222327
-2.75814e-05
0.000954932
-2.45043e-05
-6.72625e-06
0.00177981
-2.79657e-05
-4.33741e-05
0.00593474
-2.92224e-05
0.00175153
-1.63558e-05
0.000903318
-6.34617e-07
-2.76906e-06
-0.000193555
0.000128134
-5.11241e-05
-9.63225e-05
9.11128e-05
-0.000204883
0.00867346
-0.00033743
0.0108313
-0.000455446
0.012421
-0.000521802
0.0134946
-0.000511067
0.014104
-0.000433113
0.0142751
-0.000323548
0.0140154
-0.00021676
0.0133174
-0.000127508
0.0121669
-6.47459e-05
0.0105793
-2.72347e-05
0.00860431
-7.67864e-06
0.0063316
-8.49023e-07
0.00386646
7.99817e-07
0.00130317
0.00213917
0.0101772
0.00232319
0.0104079
0.00267818
0.0107147
0.00323008
0.0111112
0.00400986
0.0116221
0.00508291
0.0123017
0.00646912
0.0132557
0.00847517
0.0150026
0.0100247
0.0168744
0.00846474
0.0147982
0.00349049
0.0067528
-0.000266392
-0.000432645
0.00167234
-0.000160678
-0.000177393
-0.000122816
0.00075951
0.000195274
0.000534723
-7.61473e-05
7.87056e-05
5.11241e-05
0.000103629
9.69031e-05
0.000876809
-1.032e-06
-4.24237e-07
0.00172129
-1.31298e-05
-3.18674e-05
0.00578908
-2.73617e-05
0.00170261
-1.05447e-05
0.000861506
-3.49982e-07
-7.02415e-07
-9.41341e-05
9.34995e-05
-0.000171947
0.00850798
-0.000316807
0.0106927
-0.00045483
0.012354
-0.000526784
0.0135104
-0.000502419
0.0141733
-0.000414742
0.0143663
-0.000305707
0.0141044
-0.000203754
0.0133936
-0.000121507
0.0122236
-6.29233e-05
0.010615
-2.74702e-05
0.0086241
-8.63115e-06
0.00633938
-1.26506e-06
0.00386853
1.80196e-07
0.00130299
0.00197515
0.010177
0.00209505
0.0104053
0.00237789
0.0107082
0.00284308
0.0111017
0.00351739
0.0116037
0.00444364
0.0122613
0.00562384
0.013147
0.00717569
0.0145551
0.00855479
0.0164725
0.00834121
0.0169979
0.00557554
0.0127131
0.00148562
0.00515752
4.78799e-05
6.17708e-05
-0.0013
0.00106967
-9.3922e-06
-2.66639e-05
-2.48042e-05
-3.55025e-05
-0.000396511
0.000274765
-3.8932e-05
-3.91816e-05
0.000119127
9.24675e-05
9.20433e-05
0.000849321
-5.64065e-07
-3.80641e-07
0.00168148
-1.07401e-05
-2.48872e-05
0.00566264
-2.06222e-05
0.0016658
-1.16808e-05
0.000839609
-3.44377e-07
-4.8882e-07
-9.13409e-05
9.09909e-05
-0.000160515
0.00835169
-0.00033026
0.0105681
-0.000481998
0.0123092
-0.000533154
0.0135411
-0.000482814
0.0142413
-0.000388621
0.0144492
-0.000286381
0.014187
-0.00019063
0.0134628
-0.0001153
0.012276
-6.22991e-05
0.0106498
-2.7871e-05
0.00864334
-1.04825e-05
0.0063486
-2.63147e-06
0.00387134
1.69545e-07
0.00130282
0.00181151
0.0101766
0.0018701
0.010402
0.00207996
0.0107032
0.00246182
0.0110894
0.00303866
0.0115804
0.00383558
0.0122117
0.00484836
0.0130368
0.00610282
0.0142199
0.00726133
0.0158486
0.00753708
0.0172767
0.00634434
0.0162291
0.00343482
0.0107639
0.000710985
0.0044844
-3.94596e-05
1.59509e-06
-0.00102039
0.00099886
2.18719e-05
4.75373e-05
6.131e-05
4.974e-05
-0.000195084
0.000187024
-1.33208e-06
-0.000215239
-6.5088e-06
-0.00023599
-4.05394e-06
3.27304e-06
-7.99454e-05
4.10134e-05
9.04268e-05
9.00462e-05
0.000829795
-4.71843e-07
-4.53368e-07
0.00165061
-9.69222e-06
-1.77319e-05
0.00554017
-2.03056e-05
0.00163511
1.72111e-06
-6.8437e-06
0.000819096
-4.82778e-07
-4.98764e-07
-8.95574e-05
8.9213e-05
-0.000177074
0.0081985
-0.000379263
0.0104654
-0.000517881
0.0122939
-0.000515085
0.0135734
-0.000448683
0.0143014
-0.000357277
0.0145201
-0.000262404
0.0142588
-0.000178082
0.0135255
-0.000110848
0.0123246
-6.15068e-05
0.0106835
-3.04595e-05
0.00866332
-1.2497e-05
0.00635846
-3.2637e-06
0.00387477
-4.03517e-07
0.00130323
0.00165055
0.010175
0.00164901
0.0103977
0.00178808
0.0106938
0.00208845
0.0110766
0.00257126
0.0115568
0.00325536
0.0121607
0.00412949
0.0129306
0.00517763
0.013962
0.00616895
0.0153123
0.00659013
0.0167955
0.006185
0.017436
0.00461009
0.0150538
0.00208144
0.00939348
0.000315533
0.00414437
3.42862e-05
-9.79048e-06
-0.000985931
0.000977329
-3.08584e-05
-1.9668e-06
1.6491e-05
-0.000243109
0.000251434
1.35468e-05
-0.000224305
2.87335e-05
-0.000203413
4.04174e-05
3.33516e-05
-3.37237e-05
3.23916e-05
-4.02325e-05
-4.42864e-05
8.87412e-05
8.82878e-05
0.000474621
-2.70981e-07
-2.46323e-07
0.000335299
0.0016241
-4.20903e-06
-2.51288e-06
-1.55687e-05
0.0054058
-2.71413e-05
0.00160842
-2.01324e-06
-2.61355e-06
0.000505178
-2.88359e-05
0.000506759
-8.42451e-06
-8.77891e-05
8.73063e-05
-0.000236641
0.00805588
-0.000462569
0.0104101
-0.000509994
0.0122889
-0.00047149
0.0135962
-0.000403356
0.0143475
-0.000322504
0.0145802
-0.00024235
0.0143231
-0.000168632
0.0135833
-0.000109081
0.0123721
-6.35534e-05
0.0107165
-3.26845e-05
0.00868351
-1.41e-05
0.0063693
-4.19833e-06
0.00387857
-4.73807e-07
0.0013037
0.00149063
0.0101749
0.00143157
0.0103924
0.0015009
0.0106849
0.00171978
0.0110625
0.00211451
0.0115334
0.00269773
0.0121145
0.00345621
0.0128339
0.00435463
0.0137536
0.00522384
0.0149071
0.0056969
0.0162055
0.00562075
0.0173598
0.00490562
0.0171405
0.00325042
0.0138849
0.00123717
0.00847184
0.000105017
0.00393613
4.12703e-05
6.19558e-05
-0.000958446
0.000947042
4.56898e-05
9.09222e-06
-0.000234216
0.000355299
-1.49172e-06
-0.000149475
-9.74059e-07
-0.000254819
1.86359e-05
1.31055e-05
-0.000110179
0.000120886
2.8397e-06
-8.91191e-05
7.67367e-06
-6.57432e-05
1.70414e-05
8.70353e-05
8.6789e-05
0.000304673
1.79089e-06
0.000505336
-2.78591e-06
0.000504207
-1.38413e-06
0.00159772
-1.8316e-06
-3.0341e-06
-2.26181e-05
0.00524297
-5.1192e-05
0.00157705
-2.33645e-06
-4.13361e-06
0.000503154
-9.59459e-07
0.000501133
-5.93092e-07
0.00029831
-2.06167e-06
-0.000361071
0.00795439
-0.000481851
0.0103819
-0.000456845
0.0122742
-0.000409757
0.0136026
-0.000354763
0.0143797
-0.000292325
0.0146302
-0.000225546
0.01438
-0.000164191
0.0136384
-0.000109063
0.0124176
-6.63178e-05
0.0107502
-3.55063e-05
0.00870492
-1.58537e-05
0.00638095
-5.30116e-06
0.00388339
-9.2454e-07
0.00130463
0.00133229
0.0101733
0.00122093
0.0103856
0.00122047
0.0106728
0.00135895
0.0110458
0.00166646
0.0115106
0.0021571
0.012074
0.00281768
0.012753
0.00360272
0.0135859
0.00438295
0.0145945
0.00488829
0.0157157
0.00496819
0.0168581
0.00466924
0.0175962
0.00379145
0.0165994
0.0022417
0.0128803
0.000729782
0.00784708
3.21341e-05
0.00385424
2.33154e-05
2.64369e-05
-0.000937919
0.000944542
3.46468e-05
7.10787e-05
-0.000362654
0.000384774
1.78554e-05
5.71448e-06
-7.97491e-08
1.81612e-06
-2.97324e-05
2.82407e-05
-0.00013025
-5.89009e-07
-3.07065e-05
3.74075e-06
-2.47151e-05
2.75548e-05
-1.70414e-05
8.85799e-05
0.000296482
-9.58359e-07
0.000295383
-2.85234e-07
0.000500006
-7.03987e-07
0.000498206
-1.23467e-06
0.00156113
-2.01666e-06
-4.6826e-06
-6.48826e-05
0.00508634
-0.000139556
0.00152213
-3.66032e-06
-8.53795e-06
0.000497125
-1.25488e-06
0.00049404
-1.0493e-06
0.00029461
-1.86513e-07
0.000294084
-6.70044e-08
8.65182e-05
-0.000447328
0.00791986
-0.000406486
0.0103316
-0.000372166
0.0122366
-0.000346045
0.0135939
-0.00031143
0.0143988
-0.000267343
0.014672
-0.00021617
0.014432
-0.000162502
0.0136919
-0.000112964
0.0124643
-7.0553e-05
0.0107852
-3.86495e-05
0.00872771
-1.75402e-05
0.00639319
-6.20442e-06
0.00388868
-8.95809e-07
0.00130552
0.00117866
0.0101691
0.00101657
0.0103777
0.0009473
0.0106587
0.00100539
0.0110264
0.00122535
0.0114869
0.00162698
0.0120407
0.00220367
0.012688
0.00290213
0.0134536
0.00361718
0.0143516
0.00414453
0.0153382
0.00433205
0.0163519
0.00422329
0.017304
0.00380014
0.0175875
0.0028702
0.0159709
0.0015411
0.012069
0.000435846
0.00744337
-5.01963e-05
0.00378518
6.9405e-05
4.98533e-05
-0.000953643
0.000964469
1.24888e-05
1.73354e-05
-0.000408957
0.000433237
9.9904e-07
9.36774e-06
2.57957e-05
2.10995e-05
-3.56915e-05
5.35468e-05
-2.9977e-05
2.81609e-05
-3.12955e-05
8.55599e-05
8.52746e-05
0.000293545
-1.64575e-07
0.000292506
-1.95682e-07
0.000493064
-1.04006e-06
0.00049006
-1.6785e-06
0.0014811
-6.81177e-06
-1.70401e-05
-0.000202352
0.0050438
-0.000202437
0.00140508
-2.03947e-05
-4.31412e-05
0.00048826
-1.86045e-06
0.000482206
-2.48455e-06
0.000291487
-2.36233e-07
0.000290685
-2.46961e-07
8.50881e-05
8.50211e-05
-0.000324483
0.00783786
-0.000292593
0.010252
-0.000293868
0.0121844
-0.000291968
0.0135744
-0.000279618
0.0144111
-0.000252556
0.0147084
-0.000213622
0.0144831
-0.000166961
0.0137459
-0.000117301
0.012511
-7.38944e-05
0.0108205
-3.98528e-05
0.00875003
-1.82785e-05
0.00640527
-6.40139e-06
0.00389418
-1.2673e-06
0.00130679
0.00102785
0.0101653
0.000820469
0.0103652
0.000685698
0.0106393
0.000659259
0.0110048
0.000788827
0.0114629
0.00110446
0.0120094
0.00160459
0.0126398
0.00223712
0.013353
0.00290756
0.0141632
0.00344914
0.015047
0.00372491
0.0159454
0.0037344
0.0168408
0.00353377
0.0175704
0.00304546
0.0174122
0.00215641
0.0153556
0.00106142
0.0114434
0.000242258
0.00715091
-7.92252e-05
0.0037473
4.59547e-05
7.11455e-05
-0.000972112
0.000977691
6.38262e-05
4.22101e-05
-0.00044888
0.000461638
7.184e-07
-9.88339e-07
1.83534e-06
-1.42822e-07
-8.84638e-05
8.96435e-05
-1.80769e-07
-8.09135e-05
1.81731e-06
6.61741e-05
1.31684e-05
6.36009e-06
8.48566e-05
8.46609e-05
0.000289828
-1.82425e-07
0.000288463
-3.1412e-07
0.00047881
-3.41522e-06
0.000468294
-6.52422e-06
0.00135825
-5.80087e-05
-9.75087e-05
-0.000134103
0.00490787
-5.44512e-05
0.00131681
-8.74472e-05
-7.3553e-05
0.000458205
-1.03053e-05
0.000434772
-1.9709e-05
0.000286929
-3.26212e-07
0.000284848
-4.03769e-07
8.44247e-05
8.41777e-05
-0.000175177
0.00772044
-0.000205128
0.0101633
-0.000234732
0.0121272
-0.000255571
0.0135503
-0.000261037
0.0144196
-0.000249543
0.0147443
-0.000217894
0.014534
-0.000172317
0.0138009
-0.000121581
0.0125587
-7.65397e-05
0.0108572
-4.24292e-05
0.00877418
-1.97356e-05
0.0064186
-7.0133e-06
0.00389993
-1.05301e-06
0.00130784
0.000882085
0.0101581
0.000636534
0.0103493
0.000435833
0.0106151
0.000323933
0.0109746
0.00035757
0.0114361
0.000582732
0.0119846
0.00101027
0.0126037
0.00159172
0.0132852
0.00223233
0.0140282
0.00278999
0.0148224
0.00314001
0.0156319
0.00325059
0.0164292
0.00317127
0.0172032
0.00291943
0.0176964
0.00241916
0.0171495
0.00161668
0.0148004
0.000730342
0.0109553
0.000130777
0.00694091
-7.12455e-05
0.0037708
1.43007e-05
3.3443e-05
-0.000985429
0.000997245
3.41382e-05
6.34075e-05
-0.000483857
0.000498748
2.64023e-05
2.25328e-05
5.93804e-06
1.4053e-05
-9.03116e-05
9.13024e-05
-2.72553e-07
-9.098e-05
-3.20026e-07
9.08799e-05
5.98888e-07
-2.42919e-07
-2.13458e-05
2.1165e-05
-1.95285e-05
1.31684e-05
8.39953e-05
8.36812e-05
0.000281979
-5.45744e-07
0.000276481
-1.02596e-06
0.000413298
-3.65345e-05
0.000378987
-6.31973e-05
0.00124767
-4.5229e-05
-1.9732e-05
-3.22945e-05
0.00477344
-8.4492e-06
0.00120746
-1.1021e-05
-3.21659e-06
0.000356795
-6.52556e-05
0.000333795
-5.05531e-05
0.000268017
-1.84223e-06
0.000252301
-3.9929e-06
8.3355e-05
8.29512e-05
-0.000101261
0.00761658
-0.000152571
0.0100811
-0.000197521
0.0120692
-0.000235368
0.0135247
-0.000255779
0.0144258
-0.000253218
0.0147796
-0.000225863
0.0145876
-0.000178599
0.0138579
-0.000126569
0.0126088
-7.82741e-05
0.010893
-4.31155e-05
0.00879756
-1.95505e-05
0.00643114
-6.68855e-06
0.00390556
-1.14852e-06
0.00130899
0.000742322
0.0101484
0.000466815
0.0103278
0.000204088
0.010581
1.98603e-06
0.010937
-6.8777e-05
0.011401
5.98085e-05
0.011959
0.000413953
0.012581
0.000952648
0.0132428
0.00158019
0.0139373
0.0021603
0.0146579
0.00257119
0.0153912
0.00277251
0.01611
0.00278653
0.0168139
0.00266267
0.01746
0.00239557
0.01772
0.00191554
0.0168506
0.00121479
0.0143159
0.000508618
0.0105775
6.57038e-05
0.00680396
-9.56612e-05
8.40993e-05
0.00378236
-0.00100243
0.000952153
6.45731e-05
2.82624e-05
-0.000517711
0.000538374
3.7623e-06
9.71244e-06
2.84798e-05
1.59646e-05
-0.000111755
0.000119876
1.82816e-05
-0.000103657
1.44347e-05
9.50926e-05
2.14781e-06
5.48842e-06
-2.12009e-05
2.09283e-05
-2.15209e-05
2.17639e-05
8.24055e-05
8.13795e-05
0.000226082
-1.03147e-05
0.000185464
-2.25796e-05
0.000309289
-2.07228e-05
0.000296525
-6.96775e-06
0.00117919
-3.35987e-06
-6.7004e-07
-1.23007e-05
0.00468837
-3.88797e-06
0.00117152
-9.66351e-07
1.88903e-07
0.000287914
-2.40963e-06
0.000285394
-6.96989e-07
0.000162858
-4.26501e-05
0.000112305
7.95373e-05
7.55444e-05
-6.86474e-05
0.00753265
-0.000122586
0.0100062
-0.000178943
0.0120127
-0.000229678
0.0134986
-0.00026442
0.014437
-0.000267801
0.0148216
-0.000237603
0.0146466
-0.000185242
0.0139166
-0.000128261
0.0126587
-7.86378e-05
0.0109285
-4.18899e-05
0.0088199
-1.93145e-05
0.00644377
-6.35482e-06
0.00391077
-1.03677e-06
0.00131003
0.000609832
0.0101357
0.000315407
0.0102998
-4.77854e-06
0.0105366
-0.000301128
0.0108841
-0.000486092
0.0113544
-0.000470131
0.0119309
-0.00019546
0.0125684
0.000306508
0.0132271
0.000935917
0.013887
0.00154693
0.0145507
0.00201698
0.0152121
0.00229934
0.0158644
0.00240038
0.0164961
0.00236268
0.0171139
0.00221953
0.0176361
0.00196055
0.017675
0.00151792
0.0165475
0.000918634
0.0139059
0.000357169
0.010286
1.05387e-05
0.00669776
-0.000633469
0.00160337
4.75612e-05
1.87926e-05
-0.000117568
0.000122959
0.00377697
-0.000559267
-9.62987e-06
6.1632e-06
1.20659e-06
-0.000143572
0.000145669
1.66526e-06
-0.000137927
4.06743e-06
0.000130903
1.74526e-05
8.9403e-06
-4.29992e-05
5.10238e-05
1.02569e-05
-2.85645e-05
2.30761e-05
6.52297e-05
4.26501e-05
9.15825e-05
8.46148e-05
0.000282433
-3.98606e-07
0.000281998
-2.35515e-07
0.0011607
-1.10089e-06
-3.79145e-07
-8.14616e-06
0.00463164
-3.77508e-06
0.00115758
-6.35894e-07
-1.30975e-07
0.000281178
-1.45978e-07
0.000281239
1.28328e-07
8.22052e-05
8.15082e-05
-5.34223e-05
0.00746349
-0.000108087
0.00993532
-0.000174712
0.0119578
-0.00024088
0.013475
-0.000282743
0.014452
-0.000283741
0.0148677
-0.000246056
0.0147074
-0.000186932
0.0139752
-0.000126305
0.0127064
-7.66086e-05
0.0109632
-4.13827e-05
0.00884196
-1.86889e-05
0.0064561
-6.19565e-06
0.00391593
-9.00432e-07
0.00131093
0.000485978
0.0101201
0.00018657
0.0102645
-0.000183305
0.0104783
-0.000575805
0.0108113
-0.000890693
0.0112887
-0.0010074
0.0118916
-0.000824496
0.01256
-0.000359635
0.0132346
0.000288188
0.0138748
0.000943085
0.0144909
0.00147281
0.0150949
0.00182929
0.0156822
0.00201089
0.0162539
0.00205198
0.0168068
0.00198722
0.0173462
0.00184747
0.0177491
0.00160468
0.0175882
0.00120718
0.0162589
0.000701779
0.0135613
0.000244763
0.0100518
-2.86277e-05
0.00660882
0.00163546
3.31501e-05
5.77147e-05
-0.000235169
0.000264306
1.34777e-05
4.94637e-06
-0.000218401
1.68374e-06
3.40575e-07
-0.000104648
7.83927e-05
0.00380322
-0.000137609
-2.61791e-07
-3.04652e-07
-8.98554e-05
0.00014731
4.52277e-06
1.09069e-05
-7.35623e-05
7.51215e-05
1.06007e-07
-7.01482e-05
6.53247e-07
6.31645e-05
5.31188e-06
1.9566e-06
1.02569e-05
8.11096e-05
8.08741e-05
0.000280187
-4.9175e-08
0.00027999
-1.81648e-07
0.00115071
-8.2261e-07
-4.53471e-07
-5.94391e-06
0.00458799
-3.82611e-06
0.00114784
-6.58633e-07