/*--------------------------------*- C++ -*----------------------------------*\
| =========                 |                                                 |
| \\      /  F ield         | OpenFOAM: The Open Source CFD Toolbox           |
|  \\    /   O peration     | Version:  v1912                                 |
|   \\  /    A nd           | Website:  www.openfoam.com                      |
|    \\/     M anipulation  |                                                 |
\*---------------------------------------------------------------------------*/
FoamFile
{
    version     2.0;
    format      ascii;
    class       volVectorField;
    location    "350";
    object      U;
}
// * * * * * * * * * * * * * * * * * * * * * * * * * * * * * * * * * * * * * //

dimensions      [0 1 -1 0 0 0 0];


internalField   nonuniform List<vector> 
3673
(
(0.648245 -0.0255975 -1.62846e-21)
(0.97471 -0.0153354 -5.26421e-20)
(0.298389 -0.0525654 -3.77e-24)
(1.01655 -0.0104647 2.45582e-20)
(0.76613 -0.0575765 -2.30846e-24)
(0.175563 -0.054381 1.96787e-20)
(1.00675 -0.0139251 -1.91739e-37)
(0.961669 -0.0541885 1.53709e-24)
(0.569172 -0.0967699 -1.79976e-20)
(0.124903 -0.0462836 2.42068e-20)
(0.999509 -0.0165158 -2.64559e-41)
(1.00911 -0.052404 0)
(0.84416 -0.104099 -2.36525e-20)
(0.436746 -0.110681 -2.39433e-20)
(0.10845 -0.0400836 2.82702e-20)
(0.997593 -0.0171032 -4.09133e-24)
(1.00895 -0.0522262 -7.00134e-24)
(0.969623 -0.10079 4.80854e-20)
(0.720937 -0.138506 2.52155e-20)
(0.365667 -0.111114 0)
(0.105161 -0.0375507 -3.10714e-20)
(0.997511 -0.0167308 -3.75611e-51)
(1.00226 -0.0523364 1.80322e-20)
(1.0044 -0.0969708 -2.58074e-20)
(0.899017 -0.145167 -2.21579e-20)
(0.626715 -0.156864 2.82192e-20)
(0.333475 -0.109529 3.37838e-20)
(0.105884 -0.0368895 0)
(0.997709 -0.0158869 0)
(0.998144 -0.0517124 1.79003e-21)
(1.00477 -0.0944319 0)
(0.97682 -0.143818 7.02487e-24)
(0.825389 -0.178287 3.78466e-21)
(0.568061 -0.165971 0)
(0.320976 -0.108764 0)
(0.107966 -0.036958 0)
(0.997862 -0.0147086 2.28641e-20)
(0.996141 -0.050002 -2.0116e-20)
(0.998397 -0.0922057 0)
(0.99717 -0.140649 1.73795e-20)
(0.936732 -0.18505 -2.60944e-20)
(0.767078 -0.200675 0)
(0.536435 -0.170453 -7.35586e-24)
(0.317755 -0.108701 0)
(0.110172 -0.0372251 0)
(0.997973 -0.0132225 -2.29858e-20)
(0.994853 -0.0472446 0)
(0.992987 -0.0893616 2.02831e-23)
(0.995531 -0.137419 -1.74234e-20)
(0.981022 -0.18529 0)
(0.897746 -0.217704 1.34764e-23)
(0.728227 -0.21468 6.70269e-24)
(0.521495 -0.172433 -3.08168e-20)
(0.318416 -0.108793 3.39411e-20)
(0.111845 -0.0374672 -6.8123e-24)
(0.998083 -0.0114125 0)
(0.993627 -0.0434837 0)
(0.988798 -0.0854296 -2.2602e-23)
(0.988842 -0.134009 -4.14878e-23)
(0.990087 -0.18355 -3.60537e-23)
(0.962619 -0.224341 0)
(0.867532 -0.241214 -1.41115e-23)
(0.705408 -0.22234 2.71676e-20)
(0.515561 -0.17289 5.44647e-22)
(0.320081 -0.108776 -3.21445e-20)
(0.112846 -0.0376109 1.32188e-23)
(0.998214 -0.00926417 -2.53868e-23)
(0.992314 -0.0386789 0)
(0.98489 -0.0801151 0)
(0.981818 -0.12982 2.35386e-23)
(0.985824 -0.181405 2.12779e-23)
(0.984748 -0.226596 1.82092e-23)
(0.947439 -0.255191 0)
(0.847522 -0.256014 0)
(0.693194 -0.225481 7.93537e-22)
(0.513681 -0.172489 -4.11458e-22)
(0.321463 -0.108602 0)
(0.11325 -0.0376317 -6.40607e-24)
(0.998377 -0.00678529 0)
(0.99095 -0.0327644 -2.79676e-20)
(0.980742 -0.0731356 0)
(0.974588 -0.124216 0)
(0.97759 -0.178831 0)
(0.986241 -0.227764 -2.21362e-20)
(0.982394 -0.262774 0)
(0.937649 -0.276411 1.28528e-23)
(0.835443 -0.263579 1.1164e-21)
(0.686881 -0.225954 2.45039e-20)
(0.513204 -0.171694 -2.59636e-20)
(0.322137 -0.108236 0)
(0.113129 -0.037528 0)
(0.99858 -0.00401565 2.7709e-20)
(0.989633 -0.025709 2.80473e-20)
(0.97627 -0.0642047 1.95993e-24)
(0.966522 -0.116559 0)
(0.967522 -0.175193 2.91796e-20)
(0.979435 -0.228906 2.24001e-20)
(0.992 -0.268481 3.94565e-23)
(0.983963 -0.288997 -1.35974e-23)
(0.932152 -0.288469 -3.70501e-20)
(0.82819 -0.266396 0)
(0.683475 -0.225173 4.6151e-20)
(0.512903 -0.170661 0)
(0.321977 -0.107661 0)
(0.112588 -0.037322 1.00459e-23)
(0.998828 -0.00103535 -5.57407e-20)
(0.988501 -0.0175646 -2.85761e-23)
(0.971651 -0.053078 3.1568e-20)
(0.957313 -0.106173 3.31088e-20)
(0.955285 -0.169615 -2.95172e-20)
(0.968469 -0.229875 0)
(0.989782 -0.274638 0)
(1.0029 -0.298809 1.71086e-20)
(0.987631 -0.304554 1.23746e-20)
(0.928804 -0.294083 1.13853e-20)
(0.823653 -0.266738 -2.11815e-20)
(0.681364 -0.223797 5.02099e-24)
(0.51221 -0.169433 -2.2253e-20)
(0.321013 -0.106907 -2.37701e-20)
(0.111725 -0.0370384 -8.86641e-25)
(0.999124 0.00203324 2.80517e-20)
(0.987727 -0.00850506 3.01223e-20)
(0.967247 -0.0396208 -3.14656e-20)
(0.947081 -0.092346 -6.8599e-20)
(0.940247 -0.161011 -6.70706e-23)
(0.953478 -0.229957 5.83489e-23)
(0.981488 -0.282067 0)
(1.00816 -0.309125 -1.67878e-20)
(1.0154 -0.31669 1.3657e-20)
(0.990858 -0.312383 -1.0929e-20)
(0.926519 -0.296164 0)
(0.820696 -0.265817 -1.98114e-20)
(0.679637 -0.222087 1.96084e-20)
(0.510857 -0.168062 2.01571e-20)
(0.319356 -0.106033 1.00899e-23)
(0.110651 -0.0366987 -9.28354e-24)
(0.999463 0.00503078 5.51381e-23)
(0.987499 0.00114228 -2.99625e-20)
(0.963593 -0.0239121 1.34981e-22)
(0.936362 -0.0743916 -2.07931e-21)
(0.922111 -0.148024 0)
(0.933331 -0.22805 -3.87574e-20)
(0.967912 -0.290905 -5.72033e-23)
(1.00683 -0.321684 3.31085e-23)
(1.02868 -0.328415 -1.34154e-20)
(1.02539 -0.325652 0)
(0.993102 -0.316 0)
(0.92505 -0.296306 9.15209e-21)
(0.818504 -0.264186 -1.81847e-20)
(0.67773 -0.22022 1.31187e-23)
(0.508816 -0.166626 0)
(0.317167 -0.105066 -1.01206e-23)
(0.109431 -0.0363201 0)
(0.999828 0.00777795 0)
(0.987972 0.010894 -5.72137e-23)
(0.961365 -0.0063655 -3.32449e-20)
(0.926194 -0.0518 7.56656e-20)
(0.901078 -0.128909 -9.20599e-24)
(0.906674 -0.222558 3.96986e-20)
(0.947622 -0.301056 0)
(1.00102 -0.337567 0)
(1.03554 -0.341705 -3.21926e-23)
(1.04464 -0.337345 0)
(1.03246 -0.330062 -9.16786e-24)
(0.994973 -0.317225 8.94957e-21)
(0.924032 -0.295283 1.69855e-20)
(0.816464 -0.262228 8.4813e-24)
(0.675416 -0.218333 -8.49689e-24)
(0.506163 -0.16515 0)
(0.314581 -0.104038 -8.43826e-24)
(0.108116 -0.0359162 -1.54177e-20)
(1.0002 0.0101023 0)
(0.989214 0.0201493 -1.18758e-22)
(0.961256 0.0121676 3.30905e-20)
(0.918239 -0.0245694 -7.66539e-20)
(0.878081 -0.101468 -4.72081e-20)
(0.872264 -0.211068 1.8638e-22)
(0.918137 -0.312363 0)
(0.990358 -0.357868 -2.37968e-20)
(1.03946 -0.357598 2.5444e-23)
(1.05695 -0.349445 0)
(1.05571 -0.341629 0)
(1.03805 -0.331889 9.07665e-25)
(0.996585 -0.31693 8.36665e-24)
(0.923022 -0.293667 -7.79168e-21)
(0.814264 -0.260197 -7.13104e-24)
(0.672644 -0.216476 0)
(0.503002 -0.163654 -7.28931e-24)
(0.311718 -0.102972 1.63087e-20)
(0.106758 -0.0354976 6.48486e-24)
(1.00054 0.0118681 2.48038e-20)
(0.991159 0.0282719 -2.75873e-20)
(0.963756 0.0304378 1.19429e-22)
(0.914657 0.00633181 7.59667e-20)
(0.855516 -0.0635456 4.57585e-20)
(0.829431 -0.189153 0)
(0.875699 -0.324719 0)
(0.973244 -0.383963 2.31802e-20)
(1.04123 -0.376541 2.50414e-23)
(1.06618 -0.362764 -4.68622e-24)
(1.07096 -0.352612 0)
(1.06431 -0.343333 0)
(1.04265 -0.331998 7.75883e-25)
(0.997711 -0.315808 1.7026e-23)
(0.921807 -0.291845 0)
(0.811793 -0.258205 1.39943e-20)
(0.669442 -0.214665 -6.50778e-24)
(0.499461 -0.162151 1.39621e-23)
(0.308674 -0.101881 -7.04168e-24)
(0.105374 -0.0350716 -1.2458e-23)
(1.00083 0.0130022 -4.8566e-20)
(0.99361 0.0347104 1.28907e-21)
(0.968908 0.0469768 2.94414e-20)
(0.917241 0.0386636 -3.71882e-20)
(0.838773 -0.0149942 -8.32796e-22)
(0.77943 -0.147873 -6.5505e-20)
(0.812788 -0.336166 5.21788e-20)
(0.944759 -0.416884 -7.79757e-23)
(1.0387 -0.397611 -4.77578e-23)
(1.07223 -0.376752 -1.05641e-20)
(1.08169 -0.363453 -2.02443e-23)
(1.08134 -0.353285 0)
(1.07122 -0.343243 -7.67986e-21)
(1.04616 -0.331152 7.18207e-21)
(0.99831 -0.314343 -6.92549e-24)
(0.920324 -0.289998 -1.30171e-20)
(0.809008 -0.256287 5.96323e-24)
(0.66586 -0.212897 6.5124e-24)
(0.495624 -0.160643 -6.67237e-24)
(0.305508 -0.100781 7.06457e-24)
(0.103987 -0.0346447 -1.18294e-20)
(1.00104 0.0135029 2.37731e-20)
(0.996274 0.039113 2.63256e-20)
(0.976197 0.0604028 -2.92603e-20)
(0.926698 0.0691359 1.26958e-22)
(0.835794 0.0404961 4.51886e-20)
(0.730245 -0.0765694 6.69295e-20)
(0.713431 -0.331052 -5.45302e-20)
(0.88697 -0.451049 -3.14763e-20)
(1.01927 -0.415379 7.75247e-23)
(1.06768 -0.387228 1.05196e-20)
(1.0854 -0.372257 -1.96427e-23)
(1.09163 -0.361594 0)
(1.08909 -0.35212 7.53665e-21)
(1.07637 -0.342149 6.57944e-25)
(1.0487 -0.329869 6.47628e-21)
(0.99843 -0.312762 0)
(0.918529 -0.288198 0)
(0.805903 -0.254446 1.16856e-20)
(0.661952 -0.211165 0)
(0.491575 -0.159144 0)
(0.302288 -0.0996865 1.2406e-20)
(0.102614 -0.0342206 5.46203e-24)
(1.00116 0.0134318 0)
(0.998842 0.0413994 -2.32881e-20)
(0.98462 0.06975 -5.03062e-23)
(0.942334 0.0942952 -2.99828e-20)
(0.849588 0.0962165 -8.38188e-20)
(0.701408 0.0232231 -6.29381e-20)
(0.561416 -0.267481 -4.19727e-20)
(0.752412 -0.455596 3.82255e-20)
(0.940529 -0.407285 0)
(1.0248 -0.381608 3.43584e-23)
(1.06778 -0.371425 8.63108e-21)
(1.08959 -0.364873 0)
(1.09728 -0.357808 7.17409e-21)
(1.09412 -0.349907 -6.26744e-24)
(1.08 -0.340553 -6.32736e-21)
(1.05042 -0.328392 0)
(0.998084 -0.311178 5.649e-21)
(0.916409 -0.286469 -5.40975e-21)
(0.802496 -0.252671 5.44469e-24)
(0.65779 -0.20947 -1.06905e-20)
(0.487393 -0.157659 -5.07296e-24)
(0.299044 -0.0986026 -5.24722e-25)
(0.101275 -0.0338063 -4.55196e-24)
(1.00122 0.0128873 0)
(1.00108 0.0417386 2.34928e-20)
(0.992996 0.074712 -9.36329e-23)
(0.961792 0.111523 2.93463e-20)
(0.879989 0.143905 7.20384e-20)
(0.708421 0.130675 5.76553e-20)
(0.530917 -0.0904062 3.71344e-20)
(0.497535 -0.00649064 9.3864e-22)
(0.539046 -0.467002 0)
(0.356329 -0.210123 7.3897e-20)
(0.384642 -0.384746 -3.67082e-22)
(0.809339 -0.385755 0)
(0.504294 -0.313102 -1.23529e-20)
(0.637135 -0.295426 0)
(0.876896 -0.328754 0)
(0.736824 -0.28989 0)
(0.990968 -0.343383 -9.08148e-21)
(1.05527 -0.353436 7.65778e-21)
(1.08712 -0.355672 -7.18453e-21)
(1.09876 -0.352953 3.03805e-24)
(1.09684 -0.347101 6.03394e-21)
(1.08235 -0.338678 1.66264e-23)
(1.05139 -0.326859 -5.43837e-21)
(0.997288 -0.309627 -5.17046e-21)
(0.913975 -0.284801 -4.9772e-21)
(0.798817 -0.250948 9.65117e-21)
(0.653431 -0.207806 0)
(0.483132 -0.156198 4.4724e-25)
(0.295829 -0.09754 -5.38817e-24)
(0.099969 -0.033402 -9.09041e-21)
(1.00122 0.0119791 -3.8593e-23)
(1.00286 0.0404526 0)
(1.00043 0.0756449 0)
(0.981741 0.120112 -1.99261e-22)
(0.920413 0.175832 -3.2948e-20)
(0.761344 0.226526 -4.00923e-22)
(0.490105 0.0998194 0)
(0.515107 0.199549 -2.46794e-20)
(0.279183 -0.0797511 -3.72776e-20)
(0.28951 -0.322956 3.21315e-22)
(0.202634 -0.25495 -1.15201e-20)
(0.198493 -0.236819 8.64504e-21)
(0.168885 -0.155506 4.12005e-21)
(0.302444 -0.251122 -2.00541e-22)
(0.460432 -0.215549 3.62842e-23)
(0.257008 -0.107344 0)
(0.165635 -0.11449 -5.69397e-22)
(0.509031 -0.18822 -6.15242e-22)
(0.359828 -0.146354 -9.9347e-22)
(0.654828 -0.232932 0)
(0.792513 -0.262223 0)
(0.587845 -0.194095 -1.2319e-23)
(0.949021 -0.310044 -8.21267e-21)
(1.03555 -0.335509 0)
(1.07914 -0.345836 0)
(1.09695 -0.347459 -1.54452e-22)
(1.09767 -0.343917 0)
(1.08356 -0.336706 -1.07255e-23)
(1.05168 -0.325309 -1.01462e-23)
(0.996059 -0.308094 9.43891e-21)
(0.911225 -0.283177 4.54666e-21)
(0.794902 -0.249273 0)
(0.648938 -0.206183 0)
(0.478843 -0.154763 4.64552e-24)
(0.292654 -0.0965044 9.45513e-21)
(0.0987072 -0.0330099 8.34144e-21)
(1.00118 0.0108079 -3.64863e-23)
(1.00419 0.037909 3.90068e-23)
(1.00648 0.0733243 0)
(0.999309 0.121097 0)
(0.961174 0.189569 1.90557e-22)
(0.848642 0.284692 7.12745e-22)
(0.558205 0.294443 2.3565e-20)
(0.621692 0.369383 -7.33278e-23)
(0.237207 0.0602609 0)
(0.34457 0.252632 8.29809e-23)
(0.318206 0.184621 0)
(0.0652009 -0.0959942 6.71205e-22)
(0.107367 -0.16834 7.84099e-21)
(0.116605 -0.15851 -3.79971e-21)
(0.077958 -0.0982881 0)
(0.148123 -0.058829 7.98806e-22)
(0.085004 -0.0375449 -2.51503e-21)
(0.24403 -0.0761794 6.57139e-22)
(0.421256 -0.131066 0)
(0.288441 -0.0994545 9.38408e-22)
(0.541016 -0.166773 3.23924e-21)
(0.726131 -0.219695 -1.91903e-21)
(0.506976 -0.149114 0)
(0.367398 -0.10854 -1.09302e-23)
(0.907047 -0.283701 7.16029e-21)
(1.01147 -0.318907 -1.1938e-23)
(1.06747 -0.335793 -5.91804e-21)
(1.09262 -0.341582 4.64859e-24)
(1.09687 -0.34064 0)
(1.0838 -0.334674 9.00664e-24)
(1.05134 -0.323719 -4.5476e-21)
(0.9944 -0.306571 -4.30906e-21)
(0.908178 -0.281593 4.15525e-21)
(0.790801 -0.247643 3.79035e-24)
(0.644349 -0.204592 8.16654e-21)
(0.474562 -0.153366 0)
(0.289543 -0.0954978 -8.65019e-21)
(0.0974903 -0.0326315 -3.50786e-24)
(1.00111 0.00945747 0)
(1.00513 0.0344526 -1.83756e-20)
(1.01105 0.0686204 0)
(1.01311 0.116327 -1.86213e-20)
(0.997172 0.187914 -1.92133e-20)
(0.937872 0.302258 2.11711e-20)
(0.698818 0.43071 0)
(0.78261 0.459237 -7.23355e-22)
(0.318098 0.350763 2.22981e-20)
(0.424465 0.463836 -2.03015e-20)
(0.0420595 -0.0458905 0)
(0.0313418 0.00858304 0)
(0.171058 0.152468 -1.17433e-20)
(0.193153 0.238231 1.1541e-20)
(0.0393168 -0.0788676 -1.46519e-20)
(0.105177 -0.0314275 5.2468e-22)
(0.214854 -0.0603187 1.35835e-23)
(0.0816357 -0.0223542 -4.02783e-23)
(0.199581 -0.0544965 8.73598e-22)
(0.33242 -0.0929943 -3.6794e-21)
(0.480644 -0.135978 -3.34952e-21)
(0.67559 -0.195105 -7.94053e-21)
(0.461076 -0.127313 2.03364e-22)
(0.307843 -0.0843735 0)
(0.175172 -0.0472823 7.26771e-24)
(0.185033 -0.0498416 -1.449e-23)
(0.866895 -0.262824 -6.70911e-21)
(0.985504 -0.303616 1.27915e-23)
(1.05343 -0.325781 -1.01359e-23)
(1.08636 -0.335845 -7.9865e-25)
(1.09482 -0.337318 8.78995e-24)
(1.08316 -0.332544 -1.72273e-23)
(1.05038 -0.322087 4.13045e-21)
(0.992331 -0.305059 -3.9384e-21)
(0.904873 -0.280044 7.42187e-24)
(0.786544 -0.246051 -1.48112e-20)
(0.63971 -0.203043 7.47121e-21)
(0.470319 -0.152007 0)
(0.286508 -0.0945249 -3.77013e-24)
(0.0963258 -0.0322674 3.52671e-24)
(1.00102 0.00799342 0)
(1.00574 0.0303723 1.09081e-21)
(1.0143 0.0622817 0)
(1.02316 0.107707 1.88891e-20)
(1.02465 0.176333 3.55212e-20)
(1.0067 0.28978 -4.80471e-21)
(0.898526 0.54456 -5.40318e-21)
(0.560461 0.554291 0)
(0.693601 0.608933 1.02644e-20)
(0.0643899 0.191953 2.68093e-21)
(0.100445 0.249387 0)
(0.207421 0.349051 -1.26325e-21)
(0.149237 0.302341 -8.89523e-22)
(0.031028 0.069709 -3.72772e-22)
(0.0412882 0.130622 0)
(0.0696619 -0.0176507 0)
(0.0645951 -0.0161867 -5.62271e-22)
(0.165046 -0.0433163 9.93226e-22)
(0.158975 -0.0416056 -7.55423e-24)
(0.290688 -0.0770414 3.77418e-21)
(0.443502 -0.120943 -3.297e-24)
(0.634156 -0.178967 5.60599e-21)
(0.429373 -0.115917 -3.24898e-21)
(0.278082 -0.0729478 2.27255e-21)
(0.147431 -0.038385 0)
(0.15209 -0.0395316 -9.653e-22)
(0.0566491 -0.0142475 -2.73166e-25)
(0.0601261 -0.0149796 2.7245e-25)
(0.828896 -0.245297 6.25166e-21)
(0.958844 -0.289252 -7.01611e-25)
(1.03799 -0.316703 -8.71572e-24)
(1.07895 -0.330283 -4.60616e-21)
(1.09176 -0.333903 -1.68533e-23)
(1.08171 -0.33033 -4.03482e-21)
(1.04885 -0.320424 3.87438e-24)
(0.989886 -0.303553 3.68179e-24)
(0.901335 -0.278525 1.03611e-20)
(0.782169 -0.2445 1.16324e-22)
(0.635052 -0.201536 2.94352e-25)
(0.466131 -0.150688 3.25434e-24)
(0.283567 -0.0935852 3.25203e-25)
(0.09521 -0.0319172 0)
(1.00092 0.00646502 0)
(1.0061 0.0258959 2.60597e-20)
(1.01646 0.0548814 0)
(1.03011 0.0967727 0)
(1.04332 0.159668 -2.47144e-21)
(1.05234 0.260287 -1.56356e-20)
(1.0507 0.492556 7.2027e-21)
(0.769525 0.692488 -1.64895e-22)
(0.962632 0.745416 2.67911e-21)
(0.278414 0.472287 -3.63847e-21)
(0.434245 0.584094 7.39832e-21)
(0.656515 0.683446 0)
(0.550695 0.634188 -2.93635e-21)
(0.0533027 -0.013237 0)
(0.0513098 -0.0127686 5.86877e-25)
(0.142456 -0.0363414 -2.34944e-23)
(0.139673 -0.0355502 -1.00515e-21)
(0.268019 -0.0694677 -7.51378e-22)
(0.415283 -0.111756 4.99581e-23)
(0.596367 -0.165799 -6.96076e-21)
(0.402795 -0.107591 0)
(0.2594 -0.0671369 2.93694e-21)
(0.133994 -0.0340029 1.01791e-21)
(0.136253 -0.0346065 3.96337e-24)
(0.0474668 -0.011854 2.4185e-24)
(0.0491757 -0.0122066 6.1529e-22)
(0.791821 -0.228964 -1.20905e-23)
(0.932685 -0.277293 -1.97922e-23)
(1.02251 -0.308416 4.76318e-21)
(1.07081 -0.324817 0)
(1.08781 -0.330435 8.06575e-24)
(1.07951 -0.328062 3.4561e-24)
(1.04678 -0.318735 0)
(0.987097 -0.302053 -3.28589e-21)
(0.897596 -0.277034 -3.11397e-21)
(0.7777 -0.242987 -6.25264e-21)
(0.6304 -0.200071 2.6727e-25)
(0.462022 -0.149408 -6.24399e-24)
(0.280716 -0.0926782 6.90454e-21)
(0.094139 -0.0315794 -2.71441e-24)
(1.00082 0.00490894 0)
(1.00629 0.021194 -8.48164e-21)
(1.0178 0.0468444 0)
(1.03462 0.0845734 1.41369e-20)
(1.05518 0.14074 -1.4295e-20)
(1.0807 0.226546 0)
(1.12244 0.405771 -1.21189e-20)
(1.17915 0.629851 -1.53696e-21)
(0.459526 0.473215 0)
(0.598071 0.47742 -5.73958e-21)
(0.381405 0.324799 4.43158e-21)
(0.808241 0.497472 -3.37148e-23)
(0.0999293 0.201107 0)
(0.253878 0.347961 0)
(0.345303 0.371617 0)
(0.045848 -0.011332 -1.26879e-21)
(0.0449639 -0.0111154 5.35401e-24)
(0.131166 -0.0330893 1.01294e-21)
(0.129577 -0.0325864 1.02047e-21)
(0.251543 -0.0647819 2.15132e-21)
(0.388937 -0.104006 0)
(0.554581 -0.15117 1.53248e-21)
(0.374287 -0.0992047 0)
(0.243968 -0.0628202 -6.56773e-22)
(0.125704 -0.0316452 -9.96202e-22)
(0.127271 -0.0321379 2.0024e-21)
(0.0431716 -0.0106739 0)
(0.0439636 -0.0108616 -3.11689e-25)
(0.75765 -0.216345 -4.38966e-23)
(0.909085 -0.267064 2.01252e-23)
(1.00748 -0.300696 0)
(1.06212 -0.319508 -3.69159e-24)
(1.0831 -0.326969 -3.60274e-21)
(1.07666 -0.32576 -3.44994e-24)
(1.04424 -0.317023 3.17163e-21)
(0.983997 -0.300558 -3.00948e-21)
(0.893674 -0.27557 5.76627e-21)
(0.773156 -0.241512 -2.9033e-24)
(0.625766 -0.198644 2.90533e-24)
(0.458 -0.148167 -5.74639e-21)
(0.27796 -0.0917988 2.90811e-24)
(0.0931071 -0.0312534 5.45002e-21)
(1.00072 0.00335112 0)
(1.00633 0.0163898 1.51061e-23)
(1.01851 0.0384808 -1.2568e-23)
(1.03728 0.0717729 -1.43546e-20)
(1.06225 0.120996 0)
(1.09749 0.194176 0)
(1.15076 0.323423 7.54459e-21)
(1.31967 0.541453 3.03396e-24)
(0.824842 0.26326 0)
(1.16896 0.394323 6.51463e-23)
(0.187015 0.21406 5.30412e-23)
(0.20891 0.139232 0)
(0.611245 0.280394 5.51183e-23)
(0.236807 0.120647 5.6228e-21)
(0.0423172 -0.0104319 -6.4561e-22)
(0.0418238 -0.0102899 0)
(0.123531 -0.0310966 -9.63111e-25)
(0.122234 -0.0306296 1.05985e-23)
(0.236028 -0.0606659 -1.32556e-21)
(0.354314 -0.0939079 -2.79335e-21)
(0.51618 -0.139878 0)
(0.32917 -0.0849916 -2.70508e-21)
(0.22638 -0.058265 1.02335e-23)
(0.118941 -0.0298366 5.4984e-24)
(0.120324 -0.0303288 3.6887e-24)
(0.0406127 -0.0100047 0)
(0.041177 -0.010157 -6.36973e-22)
(0.729986 -0.206168 4.49617e-23)
(0.888071 -0.258062 1.73019e-23)
(0.992893 -0.293563 3.78321e-24)
(1.05302 -0.3144 3.66636e-21)
(1.07776 -0.32353 0)
(1.07324 -0.323431 -3.1078e-21)
(1.04127 -0.315293 0)
(0.980607 -0.299072 2.82286e-24)
(0.889587 -0.274138 2.71787e-24)
(0.768564 -0.240075 5.26875e-21)
(0.621185 -0.197255 -2.44233e-24)
(0.45407 -0.146954 0)
(0.275287 -0.0909472 -5.59093e-21)
(0.0921188 -0.0309394 4.90411e-21)
(1.00063 0.00181012 0)
(1.00629 0.0115708 0)
(1.01879 0.0300057 -1.477e-23)
(1.03859 0.0587931 2.69477e-23)
(1.06602 0.101303 5.06932e-21)
(1.10612 0.163648 0)
(1.16269 0.258548 -2.96171e-21)
(1.33541 0.430877 0)
(1.34962 0.34934 -5.08892e-20)
(0.196621 0.0519457 4.83481e-21)
(0.659095 0.167109 0)
(0.312802 0.0779723 0)
(0.900893 0.166493 3.48305e-20)
(0.0399715 -0.0098456 -6.22405e-22)
(0.039544 -0.0097132 6.16649e-22)
(0.116988 -0.0294381 4.74589e-24)
(0.115488 -0.0289086 1.81498e-21)
(0.210942 -0.0543714 2.13182e-21)
(0.306017 -0.0799863 0)
(0.491621 -0.131672 0)
(0.294489 -0.0766551 0)
(0.176426 -0.0438433 0)
(0.110575 -0.0278044 1.74058e-21)
(0.113328 -0.028628 -3.75279e-24)
(0.0385232 -0.00947006 5.98488e-22)
(0.0390104 -0.00961458 -5.86765e-25)
(0.707395 -0.197866 1.94279e-23)
(0.868994 -0.250137 -1.75438e-23)
(0.978724 -0.286967 -3.8134e-24)
(1.04362 -0.309497 3.32831e-21)
(1.07189 -0.320126 0)
(1.06931 -0.321081 -2.67078e-24)
(1.0379 -0.313554 0)
(0.97695 -0.297606 -4.76933e-24)
(0.885363 -0.272735 -4.84467e-21)
(0.763949 -0.238663 -2.00135e-25)
(0.616647 -0.195885 2.02024e-25)
(0.450231 -0.145772 5.00411e-21)
(0.272702 -0.0901216 0)
(0.0911754 -0.0306388 -2.10562e-24)
(1.00054 0.000299328 0)
(1.00618 0.00679756 -7.71387e-21)
(1.01876 0.0215624 0)
(1.03898 0.045902 1.07176e-23)
(1.06754 0.0821695 -5.16038e-21)
(1.1092 0.134828 -3.00897e-21)
(1.16752 0.207886 -9.42265e-22)
(1.3077 0.332041 -3.03016e-23)
(1.48453 0.340051 3.62686e-20)
(1.03797 0.0990995 2.69712e-20)
(0.461079 0.0514544 4.70814e-22)
(0.179256 0.0101432 -1.06531e-20)
(0.605612 0.0139182 2.57907e-20)
(0.0379626 -0.00934667 3.33867e-24)
(0.0374768 -0.00920038 -1.15615e-21)
(0.105448 -0.0270246 -8.43205e-22)
(0.0970597 -0.0232741 4.21328e-22)
(0.151758 -0.0386992 6.02285e-22)
(0.286371 -0.0741428 0)
(0.474019 -0.126121 -1.46318e-21)
(0.280963 -0.0721652 0)
(0.145074 -0.0365133 -5.56937e-22)
(0.0431581 -0.0116974 -1.80473e-22)
(0.0651949 -0.0121088 -2.6496e-22)
(0.0360055 -0.00887399 -5.56438e-22)
(0.0368655 -0.00910304 -5.68942e-22)
(0.687993 -0.190932 -4.8349e-21)
(0.851419 -0.243058 0)
(0.964897 -0.280832 -3.49872e-21)
(1.03396 -0.304776 0)
(1.06556 -0.316745 0)
(1.06491 -0.318723 2.6655e-24)
(1.03416 -0.311828 0)
(0.973055 -0.296164 9.14425e-24)
(0.881024 -0.271347 0)
(0.759311 -0.237262 -2.24037e-24)
(0.61217 -0.194538 -4.32784e-21)
(0.446488 -0.144618 2.30978e-24)
(0.270215 -0.0893243 0)
(0.0902594 -0.0303468 2.11514e-24)
(1.00046 -0.00117056 0)
(1.00602 0.00211244 1.55616e-20)
(1.01852 0.0132405 -6.99217e-21)
(1.03875 0.0332541 0)
(1.06758 0.0638069 -1.75645e-23)
(1.10895 0.107903 3.07576e-21)
(1.1673 0.166309 9.83481e-22)
(1.27707 0.254257 6.36352e-21)
(1.47326 0.290037 3.27165e-23)
(1.41726 0.163374 -9.41158e-20)
(0.674445 -0.033399 -9.32781e-20)
(0.370349 -0.0178978 3.9455e-20)
(0.317593 -0.0143604 0)
(0.0974021 -0.0164102 1.00204e-20)
(0.231734 -0.0240504 1.44988e-20)
(0.0340451 -0.00868362 9.64767e-24)
(0.0315406 -0.00826853 0)
(0.0376125 -0.00957544 -4.93152e-22)
(0.0350522 -0.00889686 -6.11253e-22)
(0.141431 -0.0354275 -6.05898e-22)
(0.275468 -0.0710242 2.50457e-21)
(0.459512 -0.121887 5.47637e-21)
(0.271544 -0.0696648 0)
(0.138645 -0.0346436 5.60719e-22)
(0.0339645 -0.00832229 0)
(0.0343224 -0.00855335 5.79717e-22)
(0.0181583 -0.00320698 9.77019e-23)
(0.670876 -0.184841 0)
(0.834889 -0.23663 -7.025e-24)
(0.951277 -0.275073 0)
(1.02405 -0.300174 0)
(1.0588 -0.313389 0)
(1.06009 -0.316393 2.40933e-21)
(1.03008 -0.310137 2.27307e-21)
(0.968953 -0.29473 -4.37677e-24)
(0.876582 -0.269955 0)
(0.754663 -0.235865 1.89043e-24)
(0.607757 -0.19321 4.09961e-21)
(0.442845 -0.143489 0)
(0.267797 -0.0885504 -2.06749e-24)
(0.0893851 -0.0300672 1.77949e-24)
(1.00039 -0.00258968 8.06095e-21)
(1.00583 -0.00245317 -7.8524e-21)
(1.01814 0.00509544 7.10726e-21)
(1.03814 0.0209277 -5.88017e-21)
(1.0667 0.0462506 0)
(1.10691 0.0829358 6.92385e-24)
(1.16338 0.130624 0)
(1.2537 0.194789 -9.75026e-21)
(1.41666 0.233004 -1.22509e-23)
(1.53032 0.173279 8.00528e-21)
(1.20244 0.0310856 5.43139e-20)
(0.481642 -0.0737129 -7.93081e-20)
(0.193361 -0.0282661 4.98669e-20)
(0.234656 -0.0473638 -2.03973e-20)
(0.117653 -0.00994771 0)
(0.159004 -0.0225562 1.46385e-23)
(0.0613458 -0.0134546 3.92243e-23)
(0.0335374 -0.00828965 5.52103e-22)
(0.0333514 -0.00816306 -5.42985e-22)
(0.136208 -0.0340866 5.38777e-22)
(0.266926 -0.0688484 -2.31002e-21)
(0.447359 -0.117762 1.21746e-21)
(0.263458 -0.0677705 -1.68856e-23)
(0.134138 -0.0335272 5.36457e-22)
(0.0328304 -0.00802605 -5.25296e-22)
(0.0329549 -0.00813472 -2.06642e-24)
(0.655099 -0.179431 -4.19762e-21)
(0.818955 -0.230698 7.08138e-24)
(0.937699 -0.269534 -2.78289e-24)
(1.01387 -0.295638 0)
(1.05166 -0.310106 -2.41074e-21)
(1.05491 -0.314148 -2.23218e-21)
(1.02575 -0.308467 -3.92286e-24)
(0.964671 -0.293279 -3.70401e-24)
(0.872048 -0.268548 1.77674e-24)
(0.750024 -0.234473 -3.65674e-21)
(0.603411 -0.191898 -3.768e-21)
(0.439296 -0.142391 1.79006e-24)
(0.265469 -0.0878036 1.71806e-25)
(0.0885457 -0.0297971 -3.42314e-24)
(1.00032 -0.00394744 -8.12725e-21)
(1.00559 -0.00687155 0)
(1.01763 -0.00283734 8.1215e-25)
(1.03727 0.00895349 3.49905e-23)
(1.06529 0.0294535 3.39761e-24)
(1.104 0.0597685 0)
(1.15742 0.0990846 1.39342e-24)
(1.23567 0.148081 3.03455e-22)
(1.36237 0.181648 7.28973e-21)
(1.51047 0.155626 5.8263e-20)
(1.46593 0.0666156 0)
(0.996516 -0.0437213 5.73593e-20)
(0.400227 -0.0724075 -2.04552e-20)
(0.182638 -0.0369173 -2.68703e-22)
(0.170588 -0.0456918 4.73647e-21)
(0.0629448 -0.00905596 -1.96994e-22)
(0.0669592 -0.0146236 -1.23266e-20)
(0.0777803 -0.0153125 1.2952e-20)
(0.082394 -0.0233351 1.32272e-20)
(0.0228639 -0.00483207 0)
(0.037192 -0.00981332 -9.43152e-21)
(0.0324412 -0.00801156 -5.14734e-22)
(0.0323258 -0.00791099 -5.06019e-22)
(0.132022 -0.0330822 1.52924e-21)
(0.259871 -0.0673566 -2.18519e-21)
(0.435886 -0.114355 5.93722e-21)
(0.257843 -0.0657475 -1.85124e-21)
(0.129899 -0.0326192 0)
(0.0318651 -0.00779061 1.92676e-24)
(0.0319702 -0.00789448 -9.95431e-22)
(0.639976 -0.174445 -3.95549e-21)
(0.803192 -0.225009 -3.20534e-21)
(0.923953 -0.264038 2.79056e-24)
(1.00344 -0.291227 -4.63221e-24)
(1.04424 -0.307019 -3.20488e-25)
(1.04948 -0.311968 2.065e-21)
(1.02119 -0.306776 3.91778e-24)
(0.960218 -0.291798 3.69922e-24)
(0.867442 -0.267127 1.75713e-21)
(0.745394 -0.233084 3.35817e-21)
(0.599146 -0.19061 0)
(0.435853 -0.141322 -1.79201e-24)
(0.263217 -0.0870795 1.90352e-24)
(0.0877396 -0.0295384 -3.30041e-21)
(1.00025 -0.00523027 0)
(1.00532 -0.0111136 2.06083e-24)
(1.01703 -0.0105302 0)
(1.03624 -0.00266806 6.0489e-21)
(1.06361 0.0133341 4.44564e-21)
(1.10077 0.0381286 -4.5855e-24)
(1.15081 0.070696 0)
(1.22032 0.109596 2.98984e-21)
(1.32161 0.138478 -1.4165e-20)
(1.45228 0.127965 -2.71913e-20)
(1.52961 0.0738176 6.47932e-23)
(1.3488 -0.0111691 0)
(0.845328 -0.0815596 -1.20786e-22)
(0.355652 -0.0664131 -8.04714e-20)
(0.170053 -0.0309677 -5.59741e-22)
(0.174943 -0.040189 3.23322e-20)
(0.091228 -0.0192354 -1.55774e-22)
(0.0870528 -0.020903 0)
(0.0753319 -0.0175669 -5.66206e-21)
(0.0617887 -0.0204542 0)
(0.0111303 -0.00227538 8.09103e-21)
(0.013536 -0.00393446 0)
(0.0169768 -0.00433135 -6.41732e-23)
(0.0145917 -0.00639206 -8.23806e-21)
(0.0314988 -0.00778388 4.77438e-22)
(0.0313848 -0.00768367 -4.71018e-22)
(0.127996 -0.032366 2.30397e-21)
(0.253196 -0.0645136 -4.49841e-22)
(0.425084 -0.111291 5.51831e-21)
(0.250551 -0.0635972 -2.20459e-21)
(0.158017 -0.0420065 0)
(0.158213 -0.0408701 5.64721e-22)
(0.0308674 -0.00757828 -1.76651e-24)
(0.0310078 -0.0076652 -4.60883e-22)
(0.62478 -0.169591 3.68827e-21)
(0.786965 -0.219217 0)
(0.910011 -0.258595 0)
(0.992938 -0.287196 4.64301e-24)
(1.03676 -0.304096 -2.08453e-21)
(1.04387 -0.309794 1.91105e-21)
(1.01641 -0.305053 0)
(0.955613 -0.290289 -1.65466e-21)
(0.862781 -0.265697 0)
(0.740802 -0.231703 0)
(0.594975 -0.189344 0)
(0.432509 -0.140281 -3.29549e-21)
(0.261042 -0.0863807 3.33952e-21)
(0.0869629 -0.0292899 -2.89248e-24)
(1.00019 -0.00642119 0)
(1.00499 -0.0151432 -4.08364e-24)
(1.0163 -0.0179526 3.49355e-24)
(1.03506 -0.0139473 0)
(1.06179 -0.00221257 -9.16606e-21)
(1.09755 0.0177152 2.56896e-21)
(1.14443 0.0447496 1.2493e-24)
(1.20679 0.0765516 0)
(1.29153 0.101921 6.78709e-21)
(1.39793 0.0995713 -1.15588e-23)
(1.50034 0.0654702 0)
(1.49667 0.00626587 -1.36095e-22)
(1.2274 -0.0645923 -4.27368e-20)
(0.741993 -0.096663 6.13363e-20)
(0.334647 -0.0641492 -9.53285e-20)
(0.156926 -0.0294631 3.35373e-20)
(0.157767 -0.0352323 -1.31203e-22)
(0.0620489 -0.0132633 -6.87513e-21)
(0.0899236 -0.0207174 -1.02116e-20)
(0.0898109 -0.0227053 1.00423e-20)
(0.0435652 -0.0101626 -1.34683e-22)
(0.0414215 -0.00932334 0)
(0.0251526 -0.0033893 3.87449e-21)
(0.0120777 -0.00410533 -8.56501e-21)
(0.0305457 -0.00755291 -4.50898e-22)
(0.0303227 -0.00757322 -4.40795e-22)
(0.0937306 -0.0252459 -6.09437e-22)
(0.157085 -0.0398167 5.73339e-22)
(0.156562 -0.0393028 0)
(0.247432 -0.0631251 3.36075e-24)
(0.413971 -0.108166 -9.77716e-22)
(0.244877 -0.0622374 -1.6418e-21)
(0.155723 -0.0390822 5.56515e-22)
(0.155064 -0.0388235 5.52299e-22)
(0.0938842 -0.024154 -1.01334e-21)
(0.608253 -0.164421 0)
(0.770056 -0.213005 0)
(0.896255 -0.253811 0)
(0.982762 -0.283489 8.06158e-24)
(1.02929 -0.301244 -1.92087e-21)
(1.03809 -0.307611 0)
(1.01144 -0.303303 0)
(0.950891 -0.288758 0)
(0.858093 -0.264256 0)
(0.73626 -0.230332 0)
(0.590893 -0.188104 5.77574e-21)
(0.429257 -0.13927 -1.39395e-24)
(0.25894 -0.0857082 -3.23194e-21)
(0.0862199 -0.0290505 2.79961e-21)
(1.00013 -0.00749752 4.53006e-24)
(1.00459 -0.0189118 8.61278e-24)
(1.01542 -0.0250627 4.08369e-24)
(1.03371 -0.0248892 -3.4685e-24)
(1.0599 -0.0172914 9.62765e-21)
(1.09451 -0.00177204 -5.38455e-21)
(1.13872 0.0206448 0)
(1.19518 0.0472728 0)
(1.26819 0.0699899 -5.40954e-21)
(1.35633 0.0730896 0)
(1.44909 0.0510357 -1.22347e-20)
(1.51288 0.010173 0)
(1.43816 -0.0466222 3.80545e-20)
(1.12051 -0.0969932 -8.66792e-23)
(0.673518 -0.101243 6.10323e-20)
(0.319758 -0.0627016 -3.65891e-20)
(0.161341 -0.0318569 -7.13343e-22)
(0.157473 -0.0350356 6.26122e-20)
(0.0583748 -0.0133411 -2.90641e-20)
(0.0569478 -0.0135805 7.09802e-21)
(0.0112678 -0.00240587 6.47023e-21)
(0.045065 -0.0113529 -1.63011e-22)
(0.0114081 -0.00353868 0)
(0.0448115 -0.0116098 -8.48811e-21)
(0.0106851 -0.00303601 -6.06407e-21)
(0.0108033 -0.00307051 -5.99893e-21)
(0.00643822 -0.000867859 4.61959e-21)
(0.0306061 -0.00795057 4.26798e-22)
(0.0922399 -0.0231926 1.96977e-24)
(0.0916654 -0.0228079 -5.03687e-22)
(0.15413 -0.0387459 5.38836e-22)
(0.153465 -0.0385324 5.28032e-22)
(0.241716 -0.0616574 0)
(0.400452 -0.104512 -1.02068e-21)
(0.238646 -0.0605806 1.5212e-21)
(0.152546 -0.038374 5.01942e-25)
(0.151809 -0.0380832 -5.02695e-25)
(0.0912261 -0.0226597 -9.87928e-22)
(0.0908403 -0.0225369 -4.92532e-22)
(0.0305758 -0.00768665 3.75932e-22)
(0.588861 -0.157744 0)
(0.7535 -0.207852 0)
(0.883516 -0.249559 8.5721e-24)
(0.973027 -0.279952 1.97347e-21)
(1.02182 -0.298447 0)
(1.03214 -0.305432 3.04197e-24)
(1.00632 -0.301533 0)
(0.946078 -0.287206 1.42634e-21)
(0.853399 -0.262811 -1.37426e-21)
(0.73178 -0.228977 -2.61597e-21)
(0.586909 -0.186892 2.71236e-21)
(0.426099 -0.138289 2.66995e-21)
(0.256913 -0.0850579 -2.81498e-21)
(0.0855004 -0.0288182 -2.33374e-24)
(1.00007 -0.00842956 0)