/*--------------------------------*- C++ -*----------------------------------*\
| =========                 |                                                 |
| \\      /  F ield         | OpenFOAM: The Open Source CFD Toolbox           |
|  \\    /   O peration     | Version:  v1912                                 |
|   \\  /    A nd           | Website:  www.openfoam.com                      |
|    \\/     M anipulation  |                                                 |
\*---------------------------------------------------------------------------*/
FoamFile
{
    version     2.0;
    format      ascii;
    class       surfaceScalarField;
    location    "450";
    object      phi;
}
// * * * * * * * * * * * * * * * * * * * * * * * * * * * * * * * * * * * * * //

dimensions      [0 3 -1 0 0 0 0];
oriented        oriented;


internalField   nonuniform List<scalar> 
7191
(
-1.95207e-06
0.00132383
-9.07343e-06
0.00397549
-2.10465e-06
0.00132594
-2.41735e-05
0.00658722
-9.45959e-06
0.00398285
-2.10819e-06
0.00132804
-4.48221e-05
0.00907185
-2.40415e-05
0.00660181
-9.46307e-06
0.0039902
-1.98937e-06
0.00133003
-7.51125e-05
0.0113172
-4.80962e-05
0.0090959
-2.35631e-05
0.00661591
-9.33758e-06
0.00399755
-2.03189e-06
0.00133206
-0.000115918
0.0131859
-7.91513e-05
0.0113482
-4.53846e-05
0.00911772
-2.41804e-05
0.00663075
-9.72282e-06
0.00400524
-1.71543e-06
0.00133378
-0.00016241
0.0145501
-0.000119593
0.0132263
-7.90447e-05
0.0113819
-4.63717e-05
0.00913991
-2.1758e-05
0.00664278
-8.07922e-06
0.00401161
-1.59173e-06
0.00133537
-0.000206954
0.0152964
-0.000165337
0.0145958
-0.00011794
0.0132652
-7.33582e-05
0.0114089
-4.14405e-05
0.0091596
-1.95592e-05
0.00665426
-7.25952e-06
0.00401727
-1.48831e-06
0.00133686
-0.000250109
0.0153584
-0.00021581
0.0153469
-0.000162674
0.0146406
-0.000112637
0.0133045
-7.0756e-05
0.0114382
-3.77959e-05
0.00917783
-1.82213e-05
0.00666523
-6.63694e-06
0.00402242
-1.16225e-06
0.00133802
-0.00028056
0.0146963
-0.000259047
0.0154016
-0.000211911
0.0153961
-0.000156163
0.0146841
-0.000101106
0.0133349
-6.17749e-05
0.0114622
-3.35605e-05
0.00919317
-1.5526e-05
0.00667411
-4.56443e-06
0.00402582
-1.17665e-06
0.0013392
-0.000293281
0.0133484
-0.000301487
0.0147388
-0.000258974
0.0154487
-0.000198231
0.0154382
-0.000137281
0.0147203
-9.2203e-05
0.0133653
-5.43443e-05
0.0114829
-2.99416e-05
0.00920759
-1.4172e-05
0.00668372
-5.19282e-06
0.00402984
-8.43921e-07
0.00134004
-0.000286504
0.0113995
-0.000332669
0.0133796
-0.000298271
0.0147781
-0.000237889
0.0154883
-0.000174731
0.0154756
-0.000122778
0.0147508
-7.85718e-05
0.0133895
-4.75767e-05
0.0115006
-2.56652e-05
0.00921908
-1.08894e-05
0.00668942
-4.57175e-06
0.00403357
-7.49625e-07
0.00134079
-0.000246517
0.00898236
-0.000353117
0.01142
-0.000327813
0.0134092
-0.000264385
0.0148046
-0.000201539
0.0155151
-0.000148766
0.0155016
-0.000102597
0.0147749
-6.58702e-05
0.0134078
-3.95068e-05
0.0115144
-2.14503e-05
0.00922964
-1.1373e-05
0.00669622
-4.16636e-06
0.00403699
-7.86078e-07
0.00134158
0.00625002
-0.000110318
-5.04551e-05
-0.00035812
0.00898736
-0.000344477
0.0114366
-0.000277787
0.0134226
-0.000217217
0.0148203
-0.000167031
0.0155334
-0.000119863
0.0155189
-8.43527e-05
0.0147933
-5.80471e-05
0.0134263
-3.63698e-05
0.0115293
-2.06497e-05
0.00923892
-1.02409e-05
0.00670229
-4.00578e-06
0.00404021
-7.70989e-07
0.00134235
0.00623563
-0.000201454
-0.00014228
-0.00212113
0.00207456
-6.37452e-05
-3.27485e-05
-0.00213884
-0.000350276
0.00899316
-0.000269713
0.0114286
-0.000211417
0.0134168
-0.000167394
0.0148206
-0.000129833
0.0155434
-0.000101423
0.0155359
-7.37399e-05
0.014809
-4.78475e-05
0.0134378
-3.02889e-05
0.011539
-1.74265e-05
0.0092461
-8.68613e-06
0.00670698
-3.88386e-06
0.00404332
-8.39175e-07
0.00134319
0.00622159
-0.000140247
-0.000195984
-0.0020438
0.00201655
-0.000174206
-0.000111524
-0.00139824
0.00135494
-1.55336e-05
-4.91488e-06
-9.14933e-07
-0.00142341
-6.66194e-06
-2.01348e-05
-0.000228704
0.00895215
-0.000184141
0.0114013
-0.000154435
0.0134038
-0.000129016
0.0148198
-0.000105477
0.0155474
-8.08414e-05
0.015543
-5.75812e-05
0.0148188
-4.2394e-05
0.0134499
-2.77431e-05
0.0115493
-1.88148e-05
0.00925623
-1.02251e-05
0.00671332
-3.42762e-06
0.00404591
-1.08177e-06
0.00134427
0.00613525
-4.1975e-05
-0.000100388
-0.00199246
0.00196166
-0.00010945
-0.000171889
-0.00130015
0.00126607
-8.70642e-05
-5.30594e-05
-1.70108e-05
-3.97276e-05
-0.000439342
0.000429307
-5.49893e-06
-0.000441611
-2.64589e-06
0.000446513
-0.000446658
-7.69688e-07
-3.61311e-06
-6.23557e-08
-1.75996e-06
-0.000125461
0.00889347
-0.00011737
0.0113642
-0.000107793
0.0133826
-9.62896e-05
0.0148106
-8.02422e-05
0.0155468
-6.39849e-05
0.0155494
-5.21916e-05
0.0148286
-3.84734e-05
0.0134607
-2.71232e-05
0.0115576
-1.71672e-05
0.00926318
-1.07644e-05
0.00672065
-4.98719e-06
0.00404981
-1.14271e-06
0.00134541
0.00605463
-8.25547e-06
-3.65911e-05
-0.00191581
0.00189819
-2.43545e-05
-5.45415e-05
-0.00123794
0.00118601
-1.70383e-05
-4.04768e-05
-8.01093e-05
-6.36497e-05
-0.000380242
0.000353197
-6.00183e-05
-0.000400062
-3.32398e-05
0.000421498
-9.20167e-06
-1.82919e-05
-0.000257782
0.000253046
-7.63112e-07
-0.000260013
-4.14166e-07
-0.000449206
-1.06474e-06
0.000261497
-0.000262204
-6.23611e-08
-1.95368e-08
-2.76188e-07
-6.72172e-05
0.00884332
-7.48771e-05
0.0113313
-7.63648e-05
0.0133627
-7.26418e-05
0.014803
-6.50946e-05
0.0155479
-5.80856e-05
0.0155553
-4.6862e-05
0.014837
-3.67838e-05
0.0134703
-2.91725e-05
0.0115696
-2.05593e-05
0.00927297
-1.06083e-05
0.00672627
-5.31128e-06
0.00405398
-1.20994e-06
0.00134662
0.00600339
-6.32805e-07
-1.5348e-05
-0.00187417
0.00187136
-5.44544e-06
-1.25666e-05
-0.00114446
0.00112342
-1.76252e-07
-3.14261e-06
-1.04154e-05
-2.57508e-06
-0.000289714
0.000278997
-6.32103e-06
-0.000311496
-1.86946e-05
0.000331583
-5.84952e-05
-4.35632e-05
-0.000207565
0.000168865
-2.13184e-05
-0.000231065
-9.73971e-06
0.000245571
-1.72703e-06
-3.78557e-06
-7.5041e-05
7.42779e-05
-7.54552e-05
-0.000263155
-1.14326e-07
7.57314e-05
-7.57937e-05
-4.50841e-08
-3.73569e-05
0.0088058
-4.9068e-05
0.011304
-5.44063e-05
0.0133444
-5.47714e-05
0.0147927
-5.42549e-05
0.0155441
-4.90972e-05
0.0155576
-4.3212e-05
0.0148434
-3.80329e-05
0.0134792
-2.95441e-05
0.0115786
-2.03607e-05
0.00928272
-1.36284e-05
0.00673459
-6.15861e-06
0.00405893
-1.53416e-06
0.00134816
0.00597299
9.50074e-07
-7.90414e-06
-0.00185956
0.00185993
-1.00813e-06
-3.54329e-06
-0.00111184
0.00110648
5.50385e-07
-6.39308e-07
-1.20321e-06
2.16934e-07
-0.000266192
0.000266109
-9.3128e-08
-0.000268959
-3.75509e-07
0.000270862
-2.28103e-06
-6.72222e-07
-8.58189e-05
7.94979e-05
-0.000104514
0.000148077
-3.77072e-05
-5.90256e-05
3.77072e-05
-6.87653e-05
7.25509e-05
-7.5908e-05
-2.20905e-05
0.00877882
-3.3576e-05
0.0112832
-4.07113e-05
0.0133304
-4.68275e-05
0.0147853
-4.77189e-05
0.0155427
-4.67859e-05
0.0155611
-4.59465e-05
0.0148513
-4.06718e-05
0.0134903
-3.26086e-05
0.0115908
-2.5114e-05
0.00929421
-1.51215e-05
0.00674355
-6.92708e-06
0.00406432
-1.57238e-06
0.00134973
0.00595427
1.64593e-06
-5.01165e-06
-0.00185345
0.00185503
-6.30108e-07
-1.42003e-06
-0.00110305
0.00110196
4.03492e-07
-3.2376e-07
-3.34883e-07
2.24615e-07
-0.000264576
0.000265067
5.93602e-08
-0.000265272
5.65896e-08
0.000265079
-1.73359e-07
2.46457e-08
-7.61692e-05
7.6076e-05
-7.65447e-05
7.72169e-05
-1.40703e-05
0.00875932
-2.49836e-05
0.0112674
-3.20955e-05
0.0133156
-3.78689e-05
0.0147754
-4.45098e-05
0.0155405
-4.7763e-05
0.015563
-4.93604e-05
0.01486
-4.53854e-05
0.0135031
-3.93911e-05
0.0116051
-2.8542e-05
0.00930763
-1.70133e-05
0.00675364
-7.77468e-06
0.00407052
-1.93588e-06
0.00135167
0.00594239
9.59476e-07
-3.15682e-06
-0.00185068
0.00185235
-3.34014e-08
-6.6032e-07
-0.00110058
0.00109985
2.63535e-07
-1.62053e-07
-1.88879e-07
1.51761e-07
-0.000264583
0.000264953
3.29816e-08
-0.000264987
8.06727e-08
0.000264818
-8.64232e-08
5.57094e-08
-7.59839e-05
7.60433e-05
-7.59273e-05
7.59027e-05
-1.02037e-05
0.00874454
-1.73176e-05
0.0112527
-2.753e-05
0.0133053
-3.56175e-05
0.0147665
-4.38571e-05
0.0155366
-5.34894e-05
0.0155671
-5.58e-05
0.0148704
-5.42723e-05
0.013518
-4.52437e-05
0.0116218
-3.40269e-05
0.00932464
-2.04357e-05
0.0067663
-9.34403e-06
0.00407793
-2.03644e-06
0.0013537
0.00593333
7.33994e-07
-1.87101e-06
-0.00184975
0.00185048
2.21503e-07
-5.48945e-07
-0.00109929
0.0010991
2.52791e-07
-9.62522e-08
-1.52572e-07
4.67042e-08
-0.000264724
0.000264977
1.05415e-08
-0.000264952
6.57335e-08
0.000264833
-6.86415e-08
3.26604e-08
-7.60932e-05
7.61262e-05
-7.60126e-05
7.59568e-05
-7.10335e-06
0.00873432
-1.43399e-05
0.0112395
-2.5048e-05
0.0132947
-3.64155e-05
0.0147591
-4.92885e-05
0.0155324
-5.91725e-05
0.0155705
-6.59163e-05
0.014882
-6.35523e-05
0.0135363
-5.34197e-05
0.0116412
-3.59131e-05
0.00934012
-2.07689e-05
0.00677773
-8.88518e-06
0.00408478
-1.84825e-06
0.00135555
0.00592655
1.15684e-06
-1.48801e-06
-0.00184901
0.00184956
1.77554e-07
-3.92913e-07
-0.00109861
0.00109877
1.64011e-07
-1.08711e-07
-8.83326e-08
3.4395e-08
-0.000264767
0.000265012
8.17757e-09
-0.000264934
7.10401e-08
0.000264905
-7.96965e-08
1.67571e-08
-7.6156e-05
7.61665e-05
-7.60902e-05
7.60576e-05
-5.95757e-06
0.00872594
-1.30583e-05
0.0112275
-2.40524e-05
0.0132824
-4.21896e-05
0.014752
-6.09847e-05
0.0155342
-7.57408e-05
0.0155803
-7.96062e-05
0.0148981
-7.32421e-05
0.0135561
-5.87412e-05
0.011664
-4.1137e-05
0.00936049
-2.29198e-05
0.00679176
-8.79177e-06
0.00409173
-1.91848e-06
0.00135747
0.00592082
9.66579e-07
-1.18447e-06
-0.00184829
0.00184922
2.22855e-07
-2.14738e-07
-0.00109845
0.00109851
1.62352e-07
-4.37665e-08
-2.04746e-08
-4.48419e-08
-0.000264847
0.000265009
2.01632e-09
-0.000265024
6.83372e-08
0.000265004
-8.05645e-08
1.39997e-08
-7.61746e-05
7.61828e-05
-7.61036e-05
7.60868e-05
-4.13688e-06
0.00871702
-1.27786e-05
0.0112162
-2.85327e-05
0.0132687
-4.74103e-05
0.0147384
-7.09644e-05
0.0155294
-8.96133e-05
0.0155903
-9.75139e-05
0.0149224
-8.69873e-05
0.0135843
-6.6487e-05
0.0116894
-4.3436e-05
0.009381
-2.24192e-05
0.00680539
-9.49163e-06
0.0040993
-2.49945e-06
0.00135997
0.00591651
8.20469e-07
-6.5098e-07
-0.00184823
0.00184896
2.31822e-07
-1.87085e-07
-0.00109835
0.00109844
1.661e-07
-3.18873e-08
-1.89943e-08
-3.89236e-08
-0.000264875
0.000265032
5.42229e-09
-0.000265016
9.71413e-08
0.000265069
-8.02262e-08
8.46849e-09
-7.61846e-05
7.61866e-05
-7.61162e-05
7.61022e-05
-4.70316e-06
0.00870894
-1.51638e-05
0.0112028
-3.49794e-05
0.0132563
-6.50794e-05
0.0147325
-9.4341e-05
0.0155341
-0.000113166
0.0156059
-0.000113341
0.0149487
-9.74129e-05
0.0136153
-7.14843e-05
0.0117174
-4.46635e-05
0.00940325
-2.27627e-05
0.00681866
-7.73397e-06
0.00410453
-7.22892e-07
0.00136069
0.00591171
4.37013e-07
-3.44702e-07
-0.0018483
0.00184885
2.66661e-07
9.33373e-09
-0.00109831
0.0010984
1.64792e-07
-2.26971e-08
-1.17499e-08
-4.91181e-08
-0.000264944
0.000265104
5.99693e-09
-0.000265041
6.54206e-08
0.000265097
-8.36815e-08
1.62092e-08
-7.6212e-05
7.62174e-05
-7.61148e-05
7.61063e-05
-4.75515e-06
0.00869854
-2.0402e-05
0.0111883
-4.75415e-05
0.0132387
-8.48868e-05
0.0147231
-0.000118848
0.0155398
-0.000136956
0.0156296
-0.000130242
0.0149816
-0.000106888
0.0136507
-7.51294e-05
0.0117479
-4.20617e-05
0.00942255
-2.13514e-05
0.00683228
-6.71147e-06
0.00411052
-6.53869e-07
0.00136135
0.00590753
-7.54599e-07
1.77875e-07
-0.00184845
0.00184876
1.35075e-07
5.6721e-08
-0.00109846
0.00109857
1.6857e-07
-1.68319e-08
-7.04544e-09
-3.89627e-08
-0.000265014
0.000265185
-6.57944e-09
-0.000265023
-1.35074e-08
0.000265181
-8.81321e-08
1.08647e-07
-7.62153e-05
7.62213e-05
-7.61499e-05
7.61337e-05
-7.57751e-06
0.00868571
-2.78453e-05
0.0111686
-6.50367e-05
0.0132189
-0.00011392
0.0147181
-0.000151673
0.0155545
-0.000163858
0.0156632
-0.000145166
0.0150198
-0.000111174
0.0136867
-7.23337e-05
0.0117782
-4.11385e-05
0.00944233
-1.74434e-05
0.00684301
-6.20534e-06
0.00411607
-4.03043e-07
0.00136175
0.00589995
-1.0471e-06
1.05578e-06
-0.00184884
0.00184794
1.42985e-07
9.58753e-08
-0.00109866
0.00109864
1.70454e-07
-1.33233e-08
3.14218e-09
-3.30114e-08
-0.000265068
0.000265242
-5.54659e-09
-0.000265074
-1.16121e-08
0.000265225
-4.65959e-08
1.12009e-07
-7.62283e-05
7.62218e-05
-7.62418e-05
7.61332e-05
-1.12311e-05
0.0086691
-4.07073e-05
0.0111442
-9.54935e-05
0.0132005
-0.000152035
0.0147185
-0.000189451
0.0155801
-0.000186128
0.0157041
-0.000155263
0.0150639
-0.000110489
0.0137249
-6.82614e-05
0.0118053
-3.64258e-05
0.00946132
-1.59818e-05
0.00685279
-2.99372e-06
0.00411866
-1.81983e-07
0.00136193
0.00588934
-2.01249e-06
1.39188e-06
-0.00184883
0.00184797
-1.93095e-07
1.69423e-07
-0.00109875
0.00109875
1.6547e-07
-2.0428e-08
3.45079e-09
-2.3915e-08
-0.000265176
0.000265352
-5.44891e-09
-0.000265179
-1.0154e-08
0.000265325
-7.9057e-08
1.1281e-07
-7.62756e-05
7.627e-05
-7.62872e-05
7.61752e-05
-1.83717e-05
0.00864676
-6.4804e-05
0.0111136
-0.00013587
0.0131843
-0.000199964
0.014729
-0.000223144
0.0156171
-0.000197978
0.0157468
-0.000153929
0.0151074
-0.000102723
0.0137593
-6.10797e-05
0.01183
-3.09861e-05
0.00947632
-1.0695e-05
0.00686049
-2.73813e-06
0.00412122
1.91517e-07
0.00136174
0.00587352
-3.45994e-06
9.06119e-07
-0.0018489
0.0018473
-4.14094e-07
4.63509e-07
-0.00109895
0.00109858
1.79117e-07
2.51287e-09
-7.36497e-10
-3.01431e-08
-0.000265252
0.000265426
-8.38858e-09
-0.000265295
2.21327e-08
0.000265399
-4.37235e-08
7.98343e-08
-7.62936e-05
7.62882e-05
-7.63038e-05
7.6191e-05
-3.09366e-05
0.00861289
-0.000101138
0.0110788
-0.000192326
0.0131767
-0.000249636
0.0147555
-0.000241883
0.015661
-0.00020049
0.0157934
-0.000142967
0.0151476
-9.28874e-05
0.0137911
-5.18934e-05
0.0118509
-2.28738e-05
0.0094885
-6.49159e-06
0.00686424
7.61768e-07
0.00412065
1.74607e-06
0.00135999
0.00584686
-5.90959e-06
1.63175e-06
-0.00184767
0.00184485
-6.45466e-07
5.41882e-07
-0.00109903
0.0010985
1.08326e-07
6.70664e-09
1.79613e-08
-1.21782e-08
-0.000265381
0.000265558
2.48407e-09
-0.000265388
9.38351e-09
0.00026551
-8.41103e-08
9.13812e-08
-7.63464e-05
7.6338e-05
-7.63243e-05
7.62444e-05
-5.55703e-05
0.00856733
-0.000161712
0.0110482
-0.000260771
0.0131878
-0.000282016
0.0147956
-0.00024551
0.015706
-0.000185798
0.0158362
-0.000126817
0.0151815
-7.73164e-05
0.0138166
-4.13329e-05
0.0118693
-1.57015e-05
0.00949771
-3.0431e-06
0.00686805
1.66364e-06
0.00412073
2.07797e-06
0.00135792
0.00580357
-1.20844e-05
-1.93042e-07
-0.00184653
0.00184157
-9.52767e-07
-4.31211e-08
-0.00109902
0.00109824
5.01101e-08
8.06901e-08
9.36563e-08
-6.3621e-08
-0.00026554
0.00026565
-1.69114e-09
-0.000265545
1.18122e-08
0.000265654
-7.7862e-08
9.67088e-08
-7.63547e-05
7.63572e-05
-7.63453e-05
7.62539e-05
-0.000104651
0.00851027
-0.000243869
0.0110313
-0.00031166
0.0132174
-0.000288682
0.0148388
-0.000225583
0.0157458
-0.000159171
0.0158686
-0.00010396
0.0152082
-6.1664e-05
0.0138369
-2.87266e-05
0.0118823
-9.34975e-06
0.00950402
1.01829e-06
0.00686869
5.28006e-06
0.00411753
2.47582e-06
0.00135544
0.00573197
-2.78272e-05
-5.2296e-06
-0.00184219
0.00183299
-2.887e-06
-8.1161e-07
-0.00109815
0.00109709
-5.38375e-10
9.89027e-08
1.7736e-07
-1.2663e-07
-0.000265691
0.000265736
5.54182e-09
-0.000265656
4.55403e-08
0.000265789
-4.53592e-08
6.91049e-08
-7.63878e-05
7.63861e-05
-7.6376e-05
7.62793e-05
-0.00019286
0.00845926
-0.000330135
0.0110498
-0.000323479
0.0132522
-0.00025625
0.0148695
-0.000189184
0.0157758
-0.000131031
0.0158957
-8.25063e-05
0.015229
-4.38305e-05
0.013852
-1.84567e-05
0.0118915
-2.33585e-06
0.00950737
3.68534e-06
0.00687029
7.33015e-06
0.00411268
2.8564e-06
0.00135258
0.00563645
-7.17873e-05
-2.55528e-05
-0.00183106
0.00181201
-8.77093e-06
-3.30232e-06
-0.00109626
0.00109359
-3.13929e-07
9.7725e-08
1.92645e-07
-1.71032e-07
-0.00026584
0.00026587
-2.99336e-08
-0.000265757
1.52681e-08
0.000265986
-7.28522e-08
1.02728e-07
-7.64554e-05
7.6461e-05
-7.64099e-05
7.63408e-05
-0.000324178
0.0084533
-0.000350112
0.0110764
-0.000276409
0.0132724
-0.000207666
0.014888
-0.000147752
0.0157926
-9.91929e-05
0.0159124
-5.88379e-05
0.015244
-2.92841e-05
0.0138628
-8.53946e-06
0.0118977
4.01663e-06
0.00950704
1.08552e-05
0.00686676
7.65502e-06
0.00410788
3.33107e-06
0.00134925
0.00558345
-0.00017541
-9.57646e-05
-0.00180055
0.00175988
-3.11135e-05
-1.40957e-05
-0.00109033
0.00108221
-8.07567e-07
1.5854e-07
4.47047e-07
-4.91875e-07
-0.000265887
0.000265608
-3.44378e-08
-0.000265841
5.17113e-08
0.00026609
-2.77834e-08
7.79072e-08
-7.65061e-05
7.64762e-05
-7.64908e-05
7.63881e-05
-0.000363677
0.00846687
-0.000276129
0.0110761
-0.000206771
0.0132715
-0.000154518
0.0148947
-0.000108744
0.0158021
-7.04849e-05
0.015924
-3.94566e-05
0.0152542
-1.38543e-05
0.0138681
2.87318e-06
0.0118988
1.15301e-05
0.00950636
1.19922e-05
0.00686242
9.21615e-06
0.00410199
3.86895e-06
0.00134538
0.00557702
-0.000161113
-0.00019613
-0.00172365
0.00167491
-0.000126671
-5.95381e-05
-0.00106942
0.00104216
-3.59896e-06
-2.55484e-07
1.39696e-07
-1.44089e-06
-0.000265666
0.000264935
-7.6944e-08
-0.000265532
2.49344e-08
0.000266102
-4.71912e-08
7.802e-08
-7.6578e-05
7.65436e-05
-7.65263e-05
7.64484e-05
-0.000240177
0.00843091
-0.000179524
0.0110489
-0.00013967
0.0132566
-0.000104034
0.01489
-7.43456e-05
0.015806
-4.69434e-05
0.0159315
-2.07117e-05
0.0152611
-3.64194e-06
0.0138747
1.08592e-05
0.0118995
1.54053e-05
0.00950295
1.95316e-05
0.00685211
1.0755e-05
0.00409511
4.59887e-06
0.00134078
0.00548651
-4.27665e-05
-0.0001069
-0.00164755
0.00161371
-0.000127278
-0.000168766
-0.0009953
0.000920063
-3.71125e-05
-1.4321e-05
-2.10423e-06
-1.05759e-05
-0.000263576
0.000260502
-5.24442e-07
-0.000263762
-6.98598e-08
0.000265176
-1.01435e-07
-2.66055e-08
-7.65993e-05
7.65224e-05
-7.65744e-05
7.64964e-05
-0.000121476
0.00837287
-0.00010686
0.0110161
-8.98843e-05
0.0132425
-6.97074e-05
0.0148854
-4.87201e-05
0.0158078
-2.49446e-05
0.0159357
-6.06703e-06
0.0152635
8.32925e-06
0.0138772
1.8147e-05
0.0118967
2.16347e-05
0.00950085
1.75212e-05
0.00684534
1.52022e-05
0.0040845
6.31741e-06
0.00133447
0.00540211
-5.30802e-06
-3.17756e-05
-0.00156171
0.00153906
-2.01172e-05
-5.49016e-05
-0.000874533
0.000810908
-1.86706e-05
-4.4983e-05
-5.95377e-05
-6.36988e-05
-0.000239662
0.000212528
-9.97892e-06
-0.000250129
-3.85342e-06
0.000259003
-6.05276e-07
-1.7026e-06
-7.63245e-05
7.58e-05
-7.63943e-05
7.64209e-05
-5.70753e-05
0.00832308
-5.96477e-05
0.0109858
-5.33239e-05
0.0132261
-4.12418e-05
0.0148779
-2.33818e-05
0.0158062
-7.20143e-06
0.0159369
5.99801e-06
0.0152658
2.06461e-05
0.0138747
2.58026e-05
0.0118926
2.83052e-05
0.00949006
2.55818e-05
0.00683496
1.53547e-05
0.00407547
5.77432e-06
0.00132869
0.00535433
1.7655e-06
-1.10582e-05
-0.00151578
0.00151307
-2.59947e-06
-8.48767e-06
-0.000763618
0.000744282
9.83797e-08
-8.79406e-07
-6.3668e-06
-1.24483e-06
-0.000103969
8.5298e-05
-0.000148952
0.000175085
-2.20946e-05
-3.75652e-05
-6.96387e-05
5.96598e-05
-7.34922e-05
7.51948e-05
-2.70586e-05
0.00829049
-3.25228e-05
0.010965
-2.85183e-05
0.0132134
-1.94585e-05
0.014874
-9.03722e-06
0.015808
4.34229e-06
0.0159385
1.70335e-05
0.0152694
2.73921e-05
0.0138731
3.15889e-05
0.0118893
3.2818e-05
0.00948283
2.79911e-05
0.00682233
1.91256e-05
0.00406211
6.59397e-06
0.0013221
0.00532914
3.15032e-06
-5.01312e-06
-0.00150338
0.00150504
1.00867e-07
-1.36601e-06
-0.000735844
0.000733182
1.46183e-07
-8.41628e-08
-1.94941e-07
1.4558e-07
-7.68069e-05
7.69053e-05
-7.76863e-05
7.89312e-05
3.75652e-05
-1.13467e-05
0.00826932
-1.39171e-05
0.0109504
-1.22645e-05
0.0132062
-4.11371e-06
0.0148691
6.68393e-06
0.0158057
1.82934e-05
0.0159373
2.92677e-05
0.0152676
3.54221e-05
0.0138693
3.98291e-05
0.0118823
4.12543e-05
0.00946957
3.18515e-05
0.0068096
2.15165e-05
0.00404719
8.51346e-06
0.00131359
0.00531771
2.89794e-06
-2.81521e-06
-0.00150016
0.00150288
4.27184e-07
-1.34422e-07
-0.000731709
0.000731745
9.54608e-08
-3.05903e-08
-1.84742e-08
1.25686e-07
-7.67718e-05
7.6918e-05
-7.6856e-05
7.67104e-05
-3.38612e-06
0.00825879
-3.27935e-06
0.0109415
9.68897e-07
0.0132011
8.64698e-06
0.0148671
1.92096e-05
0.0158048
2.84453e-05
0.0159381
3.85169e-05
0.0152645
4.4086e-05
0.013865
4.85129e-05
0.011875
4.35767e-05
0.00945784
3.72727e-05
0.00679384
2.15798e-05
0.00403413
8.06675e-06
0.00130552
0.00531279
2.72464e-06
-1.19797e-06
-0.00149996
0.00150233
5.26044e-07
1.1205e-07
-0.000731551
0.000731934
6.37756e-08
-1.97504e-08
-3.06595e-08
9.01305e-08
-7.69946e-05
7.70901e-05
-7.70252e-05
7.68995e-05
1.84012e-06
0.00825367
3.79576e-06
0.0109386
9.42655e-06
0.0132003
1.67704e-05
0.0148695
2.67801e-05
0.0158064
3.84523e-05
0.0159381
4.56704e-05
0.0152629
5.4054e-05
0.0138595
5.55798e-05
0.011863
4.96643e-05
0.00944545
4.08079e-05
0.00677462
2.43759e-05
0.00401782
8.96781e-06
0.00129655
0.00531183
3.0694e-06
-2.6766e-07
-0.0015008
0.00150294
5.84137e-07
3.27954e-07
-0.000731968
0.000732469
5.27992e-08
-2.77951e-08
-4.25945e-09
8.27507e-08
-7.71298e-05
7.71936e-05
-7.71496e-05
7.70594e-05
4.28948e-06
0.00825317
9.07613e-06
0.010939
1.69027e-05
0.0132002
2.62593e-05
0.0148701
3.61777e-05
0.0158087
4.6961e-05
0.0159368
5.62843e-05
0.0152606
6.08424e-05
0.0138542
5.76747e-05
0.011855
5.50754e-05
0.00943118
4.24942e-05
0.0067565
2.98969e-05
0.00399689
9.37127e-06
0.00128718
0.00531326
2.96198e-06
-1.05421e-07
-0.00150225
0.00150472
5.97385e-07
4.24555e-07
-0.000732719
0.000733192
3.3074e-08
7.76239e-08
2.82815e-08
4.9505e-08
-7.72443e-05
7.72971e-05
-7.72721e-05
7.71893e-05
7.49455e-06
0.00825475
1.43723e-05
0.0109415
2.25191e-05
0.0132039
3.3875e-05
0.0148724
4.61031e-05
0.0158096
5.55171e-05
0.0159376
6.3633e-05
0.0152579
6.92702e-05
0.0138426
7.20618e-05
0.011838
6.28054e-05
0.00941087
5.28443e-05
0.00673355
3.05288e-05
0.00397573
9.94615e-06
0.00127723
0.00531744
2.50662e-06
8.15234e-07
-0.00150418
0.00150652
6.24476e-07
4.36963e-07
-0.000733531
0.000734109
2.04034e-08
-1.02091e-09
3.1291e-08
5.50751e-08
-7.74525e-05
7.74856e-05
-7.73749e-05
7.73254e-05
8.98809e-06
0.00826014
1.70566e-05
0.010947
2.74496e-05
0.0132104
4.08363e-05
0.0148776
5.2191e-05
0.0158129
6.49077e-05
0.0159363
7.52691e-05
0.0152519
7.91813e-05
0.0138355
8.15405e-05
0.0118193
7.24117e-05
0.0093913
5.44142e-05
0.00670966
3.43029e-05
0.00395137
1.34207e-05
0.00126381
0.00532275
2.57717e-06
1.09521e-06
-0.00150672
0.00150855
6.72333e-07
6.1541e-07
-0.000734495
0.000735066
2.43838e-08
2.92571e-08
7.25324e-09
4.29352e-08
-7.75709e-05
7.75913e-05
-7.75719e-05
7.75169e-05
1.04193e-05
0.00826678
2.10145e-05
0.0109534
3.35125e-05
0.0132177
4.67076e-05
0.0148831
6.09713e-05
0.0158168
7.44583e-05
0.0159372
8.31596e-05
0.0152479
8.7525e-05
0.0138295
8.46823e-05
0.011807
8.01196e-05
0.0093656
6.13458e-05
0.00668262
3.77309e-05
0.00392706
2.76692e-05
0.00123614
0.00532959
2.32371e-06
1.2578e-06
-0.00150899
0.00151062
9.39458e-07
6.61247e-07
-0.000735591
0.00073623
2.78966e-08
5.04145e-09
3.33503e-08
5.7731e-08
-7.76708e-05
7.76951e-05
-7.76415e-05
7.75986e-05
1.15337e-05
0.00827626
2.49189e-05
0.010962
4.13292e-05
0.0132231
5.55082e-05
0.0148886
7.18088e-05
0.0158195
8.23511e-05
0.015938
9.27978e-05
0.0152426
9.78096e-05
0.0138164
9.62027e-05
0.0117909
8.59679e-05
0.00934097
6.79792e-05
0.00665237
5.82207e-05
0.00389651
5.46322e-05
0.00533838
1.60972e-06
1.13451e-06
-0.00151113
0.0015129
5.49773e-07
7.54293e-07
-0.000736797
0.000737625
1.05721e-07
5.92746e-09
3.47763e-08
5.90608e-08
-7.77913e-05
7.78192e-05
-7.77862e-05
7.77285e-05
1.3044e-05
0.00828813
2.79755e-05
0.0109754
4.50488e-05
0.0132335
6.32774e-05
0.0148971
7.91356e-05
0.0158227
9.39595e-05
0.0159368
0.000102986
0.0152374
0.000106534
0.013806
0.000103911
0.011773
9.13635e-05
0.00931759
8.76898e-05
0.0066229
9.95546e-05
0.00534953
1.1377e-06
7.5953e-07
-0.00151374
0.00151555
-2.05971e-07
3.00762e-07
-0.000738276
0.000738768
3.10351e-08
2.65763e-08
7.18731e-08
3.15307e-08
-7.79189e-05
7.80246e-05
-7.7913e-05
7.78539e-05
1.71674e-05
0.00829894
3.38541e-05
0.0109865
5.11847e-05
0.0132456
6.95112e-05
0.0149067
8.68653e-05
0.0158298
0.000102829
0.015937
0.000112452
0.0152315
0.000119747
0.0137902
0.000116747
0.0117476
0.000113987
0.00929129
0.00012951
0.00536009
5.12805e-06
1.47445e-06
-0.00151765
0.00152073
-1.93894e-06
-1.34313e-06
-0.000739004
0.000738849
-1.02885e-09
-5.01316e-08
1.58063e-08
4.9046e-08
-7.81546e-05
7.81856e-05
-7.8128e-05
7.80965e-05
2.07955e-05
0.008312
3.69472e-05
0.0110008
5.79589e-05
0.0132572
7.84866e-05
0.0149151
9.82262e-05
0.0158344
0.000110911
0.0159385
0.000122999
0.0152283
0.000128271
0.0137787
0.00013383
0.0117278
0.000151079
0.00537035
5.21936e-06
5.31726e-06
-0.00151873
0.00152304
1.2295e-06
-4.05907e-07
-1.73722e-06
5.20983e-06
-0.000737461
0.000436215
0.000299533
-2.21086e-07
-4.70711e-09
2.31137e-08
2.21372e-08
-7.82004e-05
7.81993e-05
-7.82505e-05
7.82015e-05
2.23495e-05
0.0083266
4.23433e-05
0.0110164
6.31408e-05
0.0132725
8.67598e-05
0.0149266
0.000104577
0.0158407
0.000121352
0.0159401
0.000130216
0.0152263
0.000143074
0.0137694
0.00015974
0.00538362
4.4783e-06
4.60634e-06
-0.00152529
0.00152777
1.50597e-06
1.23844e-06
1.82118e-06
1.23908e-06
-0.000464911
0.000467068
-9.26622e-07
-0.000462245
-3.07216e-06
-0.000457164
-6.81859e-06
-1.57395e-05
0.00028095
2.84323e-06
-7.82399e-05
7.80188e-05
-7.82446e-05
7.82224e-05
2.42404e-05
0.0083447
4.66349e-05
0.0110329
7.13261e-05
0.0132879
9.45363e-05
0.0149366
0.000113619
0.0158485
0.000129965
0.0159404
0.000146141
0.0152232
0.000164458
0.00539849
4.52629e-06
4.83645e-06
-0.00153007
0.00153271
1.07576e-06
7.65647e-07
1.28402e-06
1.01846e-06
-0.000469895
0.000470588
8.13168e-07
-0.000469299
6.42425e-07
-0.000468004
5.25552e-07
3.03126e-07
-0.000272997
0.000272586
-5.1592e-07
-0.000275021
-1.04812e-06
-8.89353e-07
8.0862e-05
2.76485e-05
0.00836368
5.13763e-05
0.0110529
7.90799e-05
0.0133034
0.00010077
0.0149495
0.000120497
0.0158579
0.00013874
0.0159478
0.000157857
0.00541599
4.95594e-06
5.19985e-06
-0.00153577
0.00153842
8.19737e-07
1.0557e-06
9.99846e-07
7.77978e-07
-0.000472229
0.000472738
5.66825e-07
-0.000471875
4.11807e-07
-0.00047101
4.18771e-07
5.96491e-07
-0.000273792
0.000274459
1.46263e-07
-0.000273311
1.61091e-07
-0.00027289
1.04752e-07
-5.45669e-10
-7.89245e-05
7.84086e-05
-7.99727e-05
3.04728e-05
0.00838459
5.789e-05
0.011074
8.42809e-05
0.0133199
0.000106614
0.0149633
0.000127111
0.0158696
0.000141121
0.0054352
5.36821e-06
5.88919e-06
-0.00154177
0.00154482
7.92421e-07
1.11881e-06
8.04041e-07
1.043e-06
-0.000474318
0.000474766
3.7149e-07
-0.000473638
3.75888e-07
-0.0004731
4.6179e-07
4.1587e-07
-0.000275469
0.000275937
9.90079e-08
-0.000275155
9.7727e-08
-0.000274871
1.3436e-07
1.84873e-07
-7.86739e-05
7.88202e-05
-7.85128e-05
-7.84081e-05
3.50005e-05
0.00840748
6.45614e-05
0.0110938
9.00951e-05
0.0133364
0.000110063
0.0149804
0.000117392
0.00545738
6.19196e-06
6.63234e-06
-0.00154858
0.00155185
8.82829e-07
1.21753e-06
8.98077e-07
1.2302e-06
-0.000476438
0.000476828
4.02126e-07
-0.000475652
3.32804e-07
-0.000475229
3.81856e-07
5.79847e-07
-0.000276914
0.000277193
9.21399e-08
-0.000276594
5.6293e-08
-0.000276259
1.26667e-07
9.38566e-08
-7.92371e-05
7.93361e-05
-7.91394e-05
-7.90051e-05
4.05472e-05
0.00843149
7.13753e-05
0.0111125
9.09219e-05
0.0133556
9.13024e-05
0.0054828
7.09279e-06
8.02858e-06
-0.00155583
0.00155961
1.28565e-06
1.12593e-06
1.28413e-06
1.3641e-06
-0.000478767
0.000479037
6.13026e-07
-0.00047792
3.70704e-07
-0.000477437
4.14221e-07
6.2136e-07
-0.000278173
0.000278475
1.00573e-07
-0.000277937
9.66126e-08
-0.000277648
9.27323e-08
1.24864e-07
-7.96129e-05
7.97051e-05
-7.95567e-05
-7.943e-05
4.92553e-05
0.00845361
7.24477e-05
0.011131
6.46544e-05
0.00551136
1.02246e-05
1.04766e-05
-0.00156486
0.00156904
1.49143e-06
1.42072e-06
1.46806e-06
1.30642e-06
-0.000481333
0.000481938
6.81355e-07
-0.000480696
4.88689e-07
-0.000479886
4.73976e-07
5.15317e-07
-0.000279496
0.000279998
1.11435e-07
-0.000279208
8.21636e-08
-0.000279001
2.0735e-07
9.5637e-08
-8.00193e-05
8.01199e-05
-7.99227e-05
-7.98299e-05
5.39436e-05
0.00847212
4.19997e-05
0.00553497
1.57821e-05
1.45518e-05
-0.00157584
0.00158153
2.36308e-06
2.16475e-06
1.95612e-06
1.72901e-06
-0.000484471
0.000485123
8.40205e-07
-0.000483566
5.15763e-07
-0.000482659
5.60414e-07
5.85204e-07
-0.000281098
0.000281701
7.86097e-08
-0.000280727
1.17358e-07
-0.000280369
1.16144e-07
1.43686e-07
-8.0505e-05
8.06164e-05
-8.04228e-05
-8.02155e-05
2.79765e-05
1.22952e-05
3.11056e-05
-0.00158995
0.00159695
4.96652e-06
3.81851e-06
3.36702e-06
2.76919e-06
-0.000488553
0.000489599
1.31716e-06
-0.000487345
9.56046e-07
-0.000486132
7.43524e-07
7.19627e-07
-0.000282938
0.000283635
1.43276e-07
-0.00028256
1.37915e-07
-0.000282134
1.3454e-07
1.52392e-07
-8.09936e-05
8.10722e-05
-8.08762e-05
-8.07601e-05
-0.00160921
7.8272e-06
1.61065e-05
1.07833e-05
8.05495e-06
-0.000494738
0.000496878
2.82575e-06
-0.000492725
1.80564e-06
-0.000490961
1.60324e-06
1.40724e-06
-0.000285475
0.000286501
2.91242e-07
-0.000284736
2.17129e-07
-0.000284168
1.75181e-07
1.86384e-07
-8.1497e-05
8.16403e-05
-8.13591e-05
-8.12246e-05
-0.000507689
1.12542e-05
-0.000503298
1.17154e-05
-0.000500012
7.49751e-06
4.92163e-06
-0.000290099
0.000292196
7.28942e-07
-0.000288776
4.82988e-07
-0.000287557
3.84309e-07
3.50783e-07
-8.2219e-05
8.25102e-05
-8.20019e-05
-8.18267e-05
-0.000304012
1.53241e-05
-0.000299751
7.45456e-06
-0.000295639
3.38504e-06
1.47878e-06
-8.37283e-05
8.44572e-05
-8.32453e-05
-8.2861e-05
-9.67756e-05
-8.9321e-05
-8.5936e-05
3.36263e-06
-3.36275e-06
1.27435e-05
3.88267e-06
-1.3264e-05
1.96096e-06
-5.3238e-06
9.25629e-06
3.487e-06
2.08305e-05
4.61704e-06
-2.15653e-05
4.04927e-06
-1.53526e-05
1.0011e-06
-6.32505e-06
1.73726e-06
7.51896e-06
2.00307e-05
4.28654e-06
-4.57703e-06
5.01418e-05
7.97094e-06
-4.89207e-05
-2.20933e-05
2.78104e-06
-1.71328e-05
5.27139e-07
-6.85229e-06
2.76529e-06
1.90024e-05
6.59264e-07
6.85959e-06
7.69522e-06
4.94976e-05
-8.13123e-06
-2.83431e-05
1.89212e-05
2.55182e-05
-4.1193e-06
-5.02054e-05
-2.72806e-06
-2.34317e-05
1.81014e-06
-1.8416e-05
2.2653e-07
-7.07894e-06
1.74306e-06
1.79184e-05
2.16569e-07
6.6429e-06
-5.94707e-06
-3.512e-05
2.04146e-05
-8.89574e-07
4.61824e-05
-0.000625294
3.84207e-05
0.000605788
-8.30164e-06
3.01582e-05
1.12108e-05
-7.55491e-06
-5.44807e-05
-2.35207e-06
-1.67515e-06