/*--------------------------------*- C++ -*----------------------------------*\
| =========                 |                                                 |
| \\      /  F ield         | OpenFOAM: The Open Source CFD Toolbox           |
|  \\    /   O peration     | Version:  v1912                                 |
|   \\  /    A nd           | Website:  www.openfoam.com                      |
|    \\/     M anipulation  |                                                 |
\*---------------------------------------------------------------------------*/
FoamFile
{
    version     2.0;
    format      ascii;
    class       volScalarField;
    location    "420";
    object      p;
}
// * * * * * * * * * * * * * * * * * * * * * * * * * * * * * * * * * * * * * //

dimensions      [0 2 -2 0 0 0 0];


internalField   nonuniform List<scalar> 
3753
(
-0.0066152
0.0226667
0.0164514
0.0472681
0.0156508
0.0269401
0.069414
0.0240381
0.0289546
0.0355918
0.0929739
0.0406113
0.0337986
0.0362386
0.0250831
0.116863
0.0622187
0.0437716
0.0382506
0.0261556
0.0156279
0.13976
0.0862755
0.0592513
0.0430168
0.0270411
0.0167131
0.0096928
0.161259
0.111319
0.0793021
0.0516385
0.027983
0.0175689
0.0107377
0.00350136
0.181205
0.136629
0.10278
0.0643756
0.0294666
0.018061
0.0117662
0.00450662
-0.00210045
0.199394
0.161775
0.128872
0.0809546
0.0317584
0.0182763
0.0126954
0.0054434
-0.00119658
-0.00636552
0.215566
0.186414
0.157157
0.101083
0.0347613
0.0183038
0.0135756
0.00622347
-0.00038412
-0.00557254
-0.00966176
0.229404
0.210189
0.187513
0.124724
0.0381153
0.0181666
0.0144288
0.00688738
0.000225014
-0.00483451
-0.0089685
-0.012239
0.240543
0.232644
0.21997
0.152127
0.0413076
0.0177997
0.015248
0.0074393
0.000653494
-0.00425631
-0.00831016
-0.011639
-0.0141547
0.24857
0.253173
0.254602
0.183811
0.0437013
0.0170713
0.0159856
0.00786713
0.000902441
-0.00382544
-0.00777939
-0.011064
-0.0136377
-0.015556
0.253058
0.270963
0.291515
0.220437
0.044563
0.0157884
0.0165536
0.00813582
0.000976409
-0.00355405
-0.007365
-0.0105979
-0.0131324
-0.0151101
-0.0165492
0.253604
0.284956
0.330892
0.262333
0.043205
0.013723
0.0168226
0.00818532
0.000884741
-0.00345192
-0.00708588
-0.0102299
-0.0127131
-0.0146702
-0.016166
-0.0171773
0.249925
0.293879
0.372472
0.310106
0.0384103
0.0108592
0.016587
0.00794744
0.000633632
-0.00351785
-0.00696506
-0.00997592
-0.0123667
-0.0143065
-0.0157841
-0.0168475
-0.0175213
0.242327
0.295767
0.413542
0.369089
0.0265076
0.00757639
0.0156046
0.00735498
0.000235824
-0.00374726
-0.0070179
-0.00985899
-0.0121024
-0.0140084
-0.0154734
-0.016511
-0.0172374
-0.0176676
0.231494
0.287379
0.446548
0.444551
0.00784009
0.0034526
0.0138787
0.00633875
-0.000266964
-0.00412759
-0.00725221
-0.00989787
-0.0119338
-0.0137874
-0.0152318
-0.016231
-0.0169383
-0.0174205
-0.0176654
0.21824
0.273404
0.378127
0.378468
0.569623
0.627234
0.53489
0.0581959
0.408144
0.0358679
-0.00282765
-0.0321614
0.0117962
0.00491162
-0.000799132
-0.00462193
-0.00766306
-0.0101061
-0.0118673
-0.0136608
-0.0150745
-0.0160049
-0.0166803
-0.017155
-0.0174493
-0.0175459
0.203421
0.253407
0.371809
0.353694
0.522942
0.610544
0.704853
0.558848
0.494636
0.627946
0.0918695
0.0964125
-0.0359337
-0.0181312
-0.00598161
0.00907728
-0.00850332
0.0033857
-0.00129396
-0.00515564
-0.00822006
-0.0104854
-0.0118977
-0.013639
-0.0150245
-0.0158487
-0.0164601
-0.0169226
-0.017214
-0.0173563
-0.0173317
0.18799
0.230813
0.331195
0.304478
0.50054
0.474219
0.636483
0.636363
0.719671
0.648013
-0.0144366
-0.0366085
-0.00666619
-0.0378014
0.00387612
0.00220329
0.00329162
-0.0115403
-0.00174883
-0.00562883
-0.00886186
-0.0110196
-0.0120027
-0.0137217
-0.0151018
-0.0157847
-0.0162896
-0.0167193
-0.0170094
-0.0171464
-0.0171636
-0.0170488
0.172893
0.208783
0.277322
0.243542
0.440293
0.395909
0.62778
0.612321
0.56756
0.593413
0.732812
0.730434
-0.0399911
-0.014639
-0.00980195
0.00200138
0.00382405
-0.00224797
-0.00140194
-0.000276959
0.00169106
-0.0126446
-0.0139482
-0.0059921
-0.00950173
-0.0116806
-0.0121413
-0.0138918
-0.0153177
-0.0158316
-0.0161881
-0.0165541
-0.0168331
-0.0169648
-0.0169733
-0.0168996
-0.0167136
0.158759
0.185554
0.228735
0.352625
0.32169
0.538413
0.504827
0.435117
0.477922
0.722759
0.699331
0.627493
0.672252
-0.00241915
0.00181792
0.00499569
0.00395686
0.00256708
-0.00141528
-0.00641566
-0.00401455
0.00172834
-0.0051146
0.0013936
-0.00998843
-0.0124746
-0.0122624
-0.0141126
-0.0156688
-0.0159982
-0.0161732
-0.0164422
-0.0166938
-0.0168122
-0.0168087
-0.0167261
-0.0165791
-0.0163495
0.146058
0.164927
0.169413
0.239419
0.180279
0.381921
0.330272
0.309484
0.579675
0.510785
0.475919
0.458352
0.00296792
0.00344281
0.00226495
-0.000246538
-0.00263322
-0.00599299
-0.0102015
-0.00817369
-0.00388089
-0.00486381
0.00334802
-0.00761608
0.00103664
-0.0135142
-0.0123271
-0.0143461
-0.0161271
-0.0162805
-0.0162552
-0.016397
-0.0166066
-0.0166995
-0.0166713
-0.0165725
-0.0164192
-0.0162285
-0.0159659
0.134988
0.148117
0.128494
0.0314325
0.0431765
0.0294679
-0.207365
0.412662
0.356704
-0.0334584
0.0379307
0.386848
0.00293927
0.00189838
0.00157258
-0.00288224
-0.00583204
-0.00706424
-0.00968041
-0.0147746
-0.0113949
-0.00809723
-0.00881304
-0.00403967
-0.00499955
0.00292456
-0.008192
-0.012361
-0.0145718
-0.0166267
-0.0166625
-0.0164339
-0.0164247
-0.0165839
-0.0166417
-0.0165723
-0.0164414
-0.0162754
-0.0160817
-0.015855
-0.0155647
0.125614
0.134196
0.0997295
0.0148115
-0.871965
-0.731354
-0.430941
-0.180719
-0.754694
-0.724782
0.140584
0.0733311
-0.00609583
-0.00729274
-0.00958347
-0.0106654
-0.0153349
-0.0125502
-0.0146512
-0.0110993
-0.0116244
-0.00823507
-0.00881977
-0.0146788
-0.0171518
-0.0170982
-0.0167049
-0.01652
-0.0166308
-0.0166526
-0.0165298
-0.0163445
-0.0161488
-0.0159501
-0.0157201
-0.0154633
-0.0151508
0.117951
0.122548
0.0780785
0.00345974
-0.744096
-1.04164
-0.897995
-0.920154
-0.870667
-0.00985033
-0.0109176
-0.0117978
-0.0188297
-0.0131435
-0.0144563
-0.0133257
-0.0139527
-0.0147324
-0.0113667
-0.0115883
-0.018148
-0.0174936
-0.0170691
-0.0166688
-0.0167431
-0.0167387
-0.0165595
-0.0162991
-0.0160474
-0.0158352
-0.0156029
-0.0153389
-0.0150574
-0.0147237
0.11198
0.112909
0.0621619
0.00239103
-0.599855
-0.62743
-0.948789
-0.858373
-0.861356
-0.682619
-0.0115392
-0.019879
-0.0136881
-0.0134062
-0.0143334
-0.0193742
-0.015304
-0.0156643
-0.0136
-0.0136987
-0.017881
-0.0191695
-0.0175203
-0.0168585
-0.0169077
-0.0168951
-0.0166709
-0.016322
-0.0159831
-0.015745
-0.0155064
-0.0152321
-0.0149403
-0.0146386
-0.0142983
0.107653
0.105136
0.0510946
-0.000864048
-0.481556
-0.593472
-0.473014
-0.604965
-0.862785
-0.675882
-0.014277
-0.0148519
-0.0179398
-0.0151121
-0.0152958
-0.0158018
-0.019159
-0.0178969
-0.0182232
-0.0180305
-0.0184383
-0.0170854
-0.0171093
-0.0171055
-0.016864
-0.0164265
-0.0159669
-0.0156905
-0.0154388
-0.0151479
-0.0148401
-0.0145301
-0.0142189
-0.0138692
0.104906
0.0991412
0.043779
-0.00715641
-0.392721
-0.547316
-0.471105
-0.407778
-0.454112
-0.504127
-0.605209
-0.711954
-0.64863
-0.0184854
-0.0162836
-0.0194706
-0.0185117
-0.0189702
-0.0188478
-0.0173736
-0.0178701
-0.0185535
-0.01734
-0.0173451
-0.0171283
-0.01662
-0.0160047
-0.0156818
-0.0154115
-0.0150949
-0.0147624
-0.0144368
-0.0141144
-0.0137952
-0.0134353
0.103678
0.0948691
0.0392864
-0.0136977
-0.322693
-0.494426
-0.459558
-0.407775
-0.404787
-0.366552
-0.457344
-0.498747
-0.576551
-0.628041
-0.0191708
-0.0184714
-0.0188017
-0.019601
-0.0187756
-0.0195108
-0.0176879
-0.0176235
-0.0177569
-0.0179201
-0.0185211
-0.0186603
-0.0175841
-0.01744
-0.0169055
-0.0160954
-0.0157239
-0.0154354
-0.0150868
-0.0147189
-0.0143659
-0.0140241
-0.013696
-0.0133674
-0.0130171
0.103906
0.092277
0.0369959
-0.0191915
-0.268796
-0.441555
-0.439162
-0.403411
-0.367061
-0.364708
-0.391494
-0.416072
-0.331904
-0.445272
-0.466803
-0.510116
-0.482225
-0.572995
-0.619775
-0.0192781
-0.0190258
-0.0197664
-0.0188701
-0.0210602
-0.0182386
-0.0178825
-0.0178732
-0.0178273
-0.0179806
-0.0179966
-0.0179734
-0.0180833
-0.0173652
-0.0188264
-0.01775
-0.0172906
-0.0162297
-0.0158175
-0.0155147
-0.0151326
-0.0147231
-0.0143284
-0.0139546
-0.0136081
-0.0132737
-0.0129527
-0.0126126
0.105537
0.0913316
0.0365174
-0.0232116
-0.228747
-0.394173
-0.414974
-0.394532
-0.366001
-0.332788
-0.33048
-0.353904
-0.372234
-0.387067
-0.396967
-0.406478
-0.420349
-0.444534
-0.303948
-0.46645
-0.502297
-0.482119
-0.0192368
-0.018995
-0.0225184
-0.0171975
-0.0180928
-0.0181035
-0.0180654
-0.0180272
-0.0179982
-0.0181359
-0.0181704
-0.0181474
-0.0181915
-0.0181448
-0.0180489
-0.0175385
-0.0191116
-0.0177936
-0.0163968
-0.0159606
-0.0156494
-0.0152352
-0.0147817
-0.0143382
-0.0139179
-0.0135354
-0.013188
-0.0128644
-0.0125522
-0.0122048
0.108516
0.0920011
0.0376036
-0.0255469
-0.199148
-0.354175
-0.390501
-0.38239
-0.362713
-0.332964
-0.30476
-0.302707
-0.321705
-0.336659
-0.349042
-0.358115
-0.366004
-0.374922
-0.386135
-0.442514
-0.280738
-0.461653
-0.0232059
-0.0182023
-0.0182261
-0.0181901
-0.0182286
-0.0182152
-0.0181137
-0.0183758
-0.0182395
-0.018303
-0.0183146
-0.0182963
-0.0182383
-0.0182763
-0.0165956
-0.01615
-0.0158323
-0.0153908
-0.0148981
-0.0144074
-0.0139281
-0.0134894
-0.0131158
-0.0127851
-0.0124663
-0.0121472
-0.0118162
0.112792
0.0942633
0.0401128
-0.0261435
-0.177133
-0.321231
-0.367628
-0.368712
-0.356919
-0.33217
-0.305169
-0.281519
-0.279636
-0.295469
-0.307748
-0.321002
-0.331025
-0.33915
-0.349913
-0.358049
-0.364844
-0.372074
-0.261029
-0.0182681
-0.0183033
-0.0183287
-0.0183891
-0.0182869
-0.0183096
-0.0168379
-0.0190482
-0.0182791
-0.0184635
-0.0184157
-0.018393
-0.0183726
-0.0163815
-0.0160548
-0.0155908
-0.0150663
-0.0145406
-0.0139993
-0.0134843
-0.0130659
-0.0127183
-0.0123907
-0.012067
-0.0117615
-0.0114332
0.118313
0.0980985
0.0439805
-0.0250595
-0.16072
-0.294545
-0.347197
-0.355032
-0.349329
-0.330037
-0.305174
-0.282064
-0.261759
-0.25997
-0.273421
-0.28394
-0.295029
-0.306223
-0.317087
-0.330432
-0.32436
-0.338531
-0.244199
-0.0184125
-0.0184592
-0.0184184
-0.0184957
-0.0181653
-0.0171899
-0.0166692
-0.0169913
-0.0199187
-0.0184749
-0.0184067
-0.0185415
-0.0184978
-0.0163087
-0.0158227
-0.015275
-0.0147318
-0.0141406
-0.013532
-0.0130463
-0.0126716
-0.0123312
-0.011998
-0.0116857
-0.0113811
-0.0110582
0.125021
0.10349
0.0492077
-0.0223566
-0.148556
-0.27339
-0.329478
-0.342282
-0.341026
-0.326638
-0.304631
-0.282441
-0.262357
-0.244852
-0.243273
-0.254258
-0.263649
-0.27299
-0.282645
-0.291504
-0.297517
-0.308418
-0.302731
-0.329974
-0.336613
-0.229698
-0.0185182
-0.0185772
-0.0182645
-0.0177464
-0.0170737
-0.0170363
-0.0165876
-0.0169074
-0.0171691
-0.0181525
-0.0214266
-0.0185775
-0.018538
-0.0160741
-0.0155088
-0.0149656
-0.0143526
-0.0136398
-0.0130663
-0.0126568
-0.0122952
-0.0119452
-0.0116205
-0.0113062
-0.0110086
-0.0106921
0.132848
0.110428
0.0558569
-0.0180476
-0.139734
-0.257151
-0.314483
-0.330845
-0.332838
-0.322441
-0.303441
-0.282635
-0.262933
-0.245431
-0.230287
-0.241965
-0.228946
-0.254317
-0.262625
-0.270237
-0.274922
-0.284375
-0.279233
-0.29122
-0.296646
-0.301924
-0.216863
-0.0186169
-0.0174985
-0.017341
-0.0171192
-0.0172163
-0.0168558
-0.0163652
-0.0167376
-0.0170928
-0.0173336
-0.0173825
-0.0221938
-0.0157454
-0.0152164
-0.0146296
-0.0138106
-0.0131308
-0.0126809
-0.0122925
-0.011916
-0.0115695
-0.0112415
-0.0109366
-0.0106451
-0.010334
0.141712
0.118897
0.0640338
-0.0120733
-0.133687
-0.245359
-0.30215
-0.320818
-0.325204
-0.317942
-0.30171
-0.282563
-0.263525
-0.246057
-0.230819
-0.217418
-0.227997
-0.237511
-0.245161
-0.216176
-0.253882
-0.264175
-0.259591
-0.270676
-0.274477
-0.283428
-0.278961
-0.205623
-0.0173514
-0.0172995
-0.0170001
-0.0165573
-0.0159825
-0.0169715
-0.0168984
-0.0171666
-0.0172583
-0.0154484
-0.0149606
-0.014044
-0.0132385
-0.012748
-0.0123307
-0.0119203
-0.0115437
-0.0111956
-0.0108754
-0.0105762
-0.010289
-0.00998637
0.151507
0.128876
0.0738883
-0.00425862
-0.130155
-0.237711
-0.292425
-0.312211
-0.318321
-0.313491
-0.299652
-0.282196
-0.264095
-0.246808
-0.231415
-0.217925
-0.206118
-0.215339
-0.223961
-0.230446
-0.235445
-0.239091
-0.242824
-0.246185
-0.205011
-0.251133
-0.255498
-0.25924
-0.263373
-0.269664
-0.195612
-0.0171284
-0.0170843
-0.0165221
-0.0163047
-0.0156402
-0.0161459
-0.018122
-0.0172624
-0.016977
-0.0170716
-0.0153096
-0.0143472
-0.0133815
-0.0128592
-0.0124155
-0.0119664
-0.0115537
-0.0111771
-0.0108328
-0.0105176
-0.0102209
-0.00994248
-0.00965212
0.162097
0.140339
0.085639
0.00569789
-0.129187
-0.234054
-0.28527
-0.305024
-0.312268
-0.309289
-0.297461
-0.281585
-0.264566
-0.247697
-0.232188
-0.218501
-0.206575
-0.196067
-0.204247
-0.211652
-0.217619
-0.222312
-0.225185
-0.228093
-0.231336
-0.235523
-0.238825
-0.242091
-0.195054
-0.259225
-0.262449
-0.186733
-0.0167579
-0.0166616
-0.0154424
-0.016575
-0.0163887
-0.0159205
-0.0155948
-0.0158036
-0.0163179
-0.01622
-0.0171877
-0.0147477
-0.0135468
-0.0130126
-0.0125466
-0.0120573
-0.0116054
-0.0111936
-0.0108157
-0.0104715
-0.0101592
-0.0098766
-0.00961158
-0.00932608
0.173301
0.153238
0.099594
0.0181903
-0.131112
-0.234388
-0.280666
-0.299263
-0.307089
-0.305449
-0.295266
-0.280808
-0.264893
-0.248652
-0.233186
-0.219263
-0.207101
-0.196487
-0.187143
-0.194366
-0.201078
-0.20614
-0.211156
-0.215483
-0.218452
-0.222884
-0.22505
-0.227641
-0.230468
-0.186229
-0.178822
-0.0163516
-0.0166811
-0.0164852
-0.016081
-0.0160437
-0.015648
-0.0152263
-0.0157744
-0.0159451
-0.0158877
-0.0164006
-0.0163001
-0.017268
-0.0137275
-0.0132005
-0.0127208
-0.0121918
-0.0117006
-0.0112529
-0.0108363
-0.010452
-0.0101128
-0.00981717
-0.00954768
-0.00928507
-0.00901791
0.184891
0.167481
0.116141
0.0336712
-0.136554
-0.238872
-0.278599
-0.294938
-0.302815
-0.30204
-0.293151
-0.279932
-0.265071
-0.24958
-0.234368
-0.220289
-0.207816
-0.196968
-0.18752
-0.179191
-0.185605
-0.19148
-0.196088
-0.200866
-0.205415
-0.209559
-0.214798
-0.212446
-0.217599
-0.222248
-0.178372
-0.171755
-0.0167749
-0.0165573
-0.0161634
-0.0161177
-0.0157455
-0.0157564
-0.0159265
-0.0139539
-0.0149753
-0.0157288
-0.0156891
-0.0160328
-0.0159542
-0.0164689
-0.0163664
-0.0134128
-0.012932
-0.0123653
-0.0118365
-0.0113569
-0.0109044
-0.0104737
-0.0100902
-0.0097671
-0.00948996
-0.00922415
-0.00897927
-0.00871011
0.19656
0.182913
0.135788
0.0527465
-0.146533
-0.247817
-0.279073
-0.292066
-0.299473
-0.299112
-0.291169
-0.27901
-0.265117
-0.250412
-0.23563
-0.221565
-0.20881
-0.197627
-0.187952
-0.17953
-0.172085
-0.177808
-0.183057
-0.187118
-0.191137
-0.195413
-0.198927
-0.202364
-0.206128
-0.20367
-0.214842
-0.216929
-0.171348
-0.165402
-0.0162296
-0.0161793
-0.0158564
-0.0157897
-0.01681
-0.0152728
-0.0144252
-0.0136511
-0.0140914
-0.0151434
-0.014924
-0.0157804
-0.0148805
-0.0160994
-0.0160188
-0.0131672
-0.0125708
-0.0120067
-0.0114991
-0.0110198
-0.0105431
-0.0100999
-0.0097351
-0.00944165
-0.00916932
-0.00891976
-0.00867299
-0.00841824
0.207888
0.199322
0.159267
0.0760202
-0.162524
-0.261726
-0.282093
-0.29067
-0.297083
-0.296699
-0.289364
-0.278079
-0.265054
-0.251118
-0.236869
-0.223
-0.210095
-0.198563
-0.188548
-0.179912
-0.172386
-0.165707
-0.170804
-0.175354
-0.179197
-0.182811
-0.186583
-0.189752
-0.191996
-0.196085
-0.193877
-0.198596
-0.201907
-0.165023
-0.15968
-0.0159489
-0.0158609
-0.0177931
-0.0145403
-0.0146878
-0.0144879
-0.0139756
-0.0134098
-0.0137833
-0.0143592
-0.0141713
-0.0151213
-0.0150779
-0.0159761
-0.0149952
-0.0128015
-0.0122053
-0.0116703
-0.011176
-0.0106662
-0.0101574
-0.00973042
-0.00940565
-0.00912509
-0.00886926
-0.00861757
-0.00838206
-0.00812581
0.218307
0.216431
0.187706
0.10325
-0.186235
-0.281298
-0.287702
-0.290777
-0.295659
-0.294821
-0.287766
-0.277169
-0.264911
-0.251696
-0.238015
-0.224474
-0.211597
-0.199808
-0.189405
-0.180437
-0.172721
-0.165976
-0.159961
-0.170074
-0.164549
-0.174895
-0.178734
-0.181339
-0.183795
-0.187193
-0.185151
-0.189579
-0.191719
-0.195655
-0.193726
-0.159329
-0.154519
-0.018539
-0.0147628
-0.0145802
-0.0141064
-0.014026
-0.0136745
-0.0130484
-0.0135042
-0.0139561
-0.0138379
-0.0144364
-0.0142566
-0.0124283
-0.0118595
-0.0113591
-0.0108428
-0.0102697
-0.0097592
-0.009393
-0.00909973
-0.00883159
-0.0085716
-0.00832513
-0.00809086
-0.00784627
0.22709
0.233753
0.222592
0.134291
-0.220116
-0.307032
-0.296043
-0.292401
-0.295208
-0.293483
-0.286396
-0.276306
-0.264713
-0.25216
-0.23904
-0.225896
-0.213196
-0.201309
-0.190576
-0.181208
-0.17318
-0.166267
-0.160202
-0.154775
-0.163978
-0.168264
-0.171157
-0.158891
-0.174742
-0.179313
-0.177544
-0.181013
-0.183963
-0.186809
-0.184874
-0.1542
-0.149802
-0.0141461
-0.0140758
-0.0137825
-0.0137307
-0.0133302
-0.0126716
-0.013144
-0.013669
-0.0135486
-0.0140169
-0.0139032
-0.0120643
-0.0115493
-0.0110609
-0.0104407
-0.00982726
-0.00940953
-0.00909813
-0.00881263
-0.00853999
-0.00827977
-0.00803994
-0.00781347
-0.00756765
0.233444
0.250096
0.265076
0.176399
-0.270051
-0.338813
-0.307167
-0.295561
-0.295719
-0.292674
-0.285268
-0.275508
-0.264479
-0.252532
-0.239942
-0.227212
-0.214782
-0.202955
-0.192028
-0.182282
-0.173859
-0.166661
-0.160455
-0.15499
-0.150042
-0.158362
-0.162052
-0.164959
-0.16776
-0.168611
-0.16994
-0.171544
-0.153809
-0.173655
-0.175456
-0.176961
-0.178971
-0.180763
-0.183584
-0.149503
-0.145538
-0.0138228
-0.0137834
-0.0134544
-0.0133853
-0.0129528
-0.0122943
-0.0127715
-0.0133097
-0.0131876
-0.0137353
-0.0136191
-0.0117352
-0.0112913
-0.0106745
-0.0099349
-0.00945657
-0.00912533
-0.00882031
-0.00852869
-0.0082522
-0.0079988
-0.00776119
-0.00753534
-0.00729507
0.236756
0.26328
0.312515
0.238499
-0.338323
-0.37733
-0.320457
-0.300271
-0.297134
-0.292371
-0.284385
-0.274789
-0.264226
-0.252833
-0.240736
-0.228406
-0.216285
-0.20463
-0.193664
-0.18365
-0.174825
-0.167249
-0.160792
-0.155207
-0.150241
-0.145758
-0.15335
-0.15664
-0.159224
-0.161178
-0.162615
-0.163857
-0.165181
-0.167683
-0.149128
-0.177055
-0.178694
-0.145263
-0.141628
-0.0135029
-0.013439
-0.0130833
-0.0130076
-0.0125681
-0.0119388
-0.0124032
-0.012926
-0.0128158
-0.0133752
-0.0132558
-0.0114735
-0.0109809
-0.0100773
-0.00953449
-0.00918326
-0.00885889
-0.00854648
-0.00824947
-0.00797084
-0.00771912
-0.00748572
-0.00726485
-0.00703087
0.27041
0.354399
0.31765
0.384438
-0.264996
0.220622
-0.322126
-0.418536
-0.483012
-0.334513
-0.306221
-0.299336
-0.292526
-0.283752
-0.274158
-0.263966
-0.253083
-0.24144
-0.229484
-0.217674
-0.206248
-0.195366
-0.185229
-0.176083
-0.168102
-0.161295
-0.155491
-0.150434
-0.145936
-0.141835
-0.148667
-0.151752
-0.154196
-0.155762
-0.157099
-0.158247
-0.159561
-0.161152
-0.162534
-0.163657
-0.164627
-0.144925
-0.14137
-0.138068
-0.0131357
-0.0130605
-0.0126988
-0.0126261
-0.0121948
-0.0115789
-0.0120726
-0.0125479
-0.0124501
-0.0129893
-0.0128813
-0.0113702
-0.0102494
-0.00963813
-0.00927442
-0.00893194
-0.00859726
-0.00827703
-0.00796917
-0.00769357
-0.00744574
-0.00721683
-0.00700254
-0.00676932
0.376853
0.450585
0.50625
0.427199
0.378785
-0.203258
-0.222446
0.134847
-0.521868
-0.465968
-0.437203
-0.347839
-0.424944
-0.312052
-0.302102
-0.293056
-0.283374
-0.273627
-0.263708
-0.253304
-0.242076
-0.230458
-0.218947
-0.207768
-0.197042
-0.186908
-0.177569
-0.169237
-0.162035
-0.155915
-0.150675
-0.146105
-0.142001
-0.13826
-0.144528
-0.147201
-0.149348
-0.151111
-0.152202
-0.153112
-0.154716
-0.155556
-0.15698
-0.15803
-0.159211
-0.141048
-0.137824
-0.134806
-0.0127495
-0.0126768
-0.0123237
-0.0122603
-0.011826
-0.0117701
-0.0116564
-0.0122004
-0.0121285
-0.0126096
-0.012512
-0.010464
-0.00976272
-0.00939887
-0.00903522
-0.0086806
-0.00834176
-0.00800196
-0.00769074
-0.0074198
-0.00717585
-0.00695413
-0.00674221
0.539382
0.554363
0.503443
0.459867
0.56794
0.514677
0.122829
-0.453086
-0.168663
-0.547116
-0.439162
-0.529911
-0.372597
-0.31581
-0.348836
-0.425879
-0.304817
-0.293892
-0.283257
-0.273211
-0.263461
-0.253521
-0.242664
-0.231345
-0.22011
-0.209177
-0.198637
-0.188588
-0.179181
-0.170608
-0.16304
-0.156547
-0.151031
-0.146306
-0.14215
-0.138413
-0.134988
-0.140661
-0.143256
-0.145138
-0.146951
-0.148923
-0.150561
-0.152053
-0.152756
-0.154825
-0.13752
-0.134579
-0.131807
-0.0123743
-0.0123103
-0.0119919
-0.0119296
-0.0115028
-0.0107161
-0.0122218
-0.0117914
-0.011733
-0.0122548
-0.0121812
-0.00990843
-0.00955255
-0.0091643
-0.00879228
-0.0084448
-0.00807702
-0.00772211
-0.00741586
-0.0071484
-0.00691436
-0.0066971
0.642822
0.61416
0.673364
0.665019
0.376805
0.204628
-0.551819
-0.463888
-0.554889
-0.440736
-0.376425
-0.327092
-0.306484
-0.313822
-0.352115
-0.420641
-0.434589
-0.294913
-0.283445
-0.272937
-0.263235
-0.253764
-0.243227
-0.232159
-0.221178
-0.21048
-0.200135
-0.19021
-0.180821
-0.172122
-0.164278
-0.157421
-0.151564
-0.146597
-0.142319
-0.138545
-0.135129
-0.131977
-0.137154
-0.139422
-0.141251
-0.143155
-0.144805
-0.146262
-0.147347
-0.149275
-0.148218
-0.150661
-0.151916
-0.152622
-0.154624
-0.1343
-0.131595
-0.129036
-0.0120555
-0.0119924
-0.0115514
-0.0115146
-0.0110668
-0.0101087
-0.0106607
-0.0111659
-0.0131457
-0.0118646
-0.0117995
-0.00972614
-0.00931337
-0.00892412
-0.00858017
-0.008197
-0.00779164
-0.00744137
-0.00714374
-0.00688919
-0.00665971
-0.46537
-0.445804
-0.387785
-0.37147
-0.328862
-0.310441
-0.295411
-0.304473
-0.31419
-0.347385
-0.359198
-0.424721
-0.436775
-0.284099
-0.272848
-0.263057
-0.254075
-0.24379
-0.232916
-0.222163
-0.211689
-0.201536
-0.191747
-0.18242
-0.173684
-0.165672
-0.15852
-0.152312
-0.147036
-0.142556
-0.138685
-0.135244
-0.132108
-0.1292
-0.133974
-0.136026
-0.137683
-0.139212
-0.14091
-0.142104
-0.143866
-0.145
-0.143985
-0.131339
-0.12883
-0.126498
-0.0116891
-0.0116112
-0.0107013
-0.0109464
-0.01047
-0.00991907
-0.0102516
-0.0108968
-0.0107766
-0.0111446
-0.0139834
-0.00947685
-0.00906517
-0.00873804
-0.00836235
-0.00790148
-0.00750141
-0.00716821
-0.00688283
-0.00663226
-0.387223
-0.372966
-0.334099
-0.325698
-0.31167
-0.299018
-0.285126
-0.291557
-0.305228
-0.310195
-0.320118
-0.348305
-0.358948
-0.273069
-0.26296
-0.254508
-0.244382
-0.233632
-0.223076
-0.212812
-0.20285
-0.193198
-0.183948
-0.175224
-0.167131
-0.159778
-0.153269
-0.147663
-0.142911
-0.138872
-0.135357
-0.132213
-0.129326
-0.126652
-0.13106
-0.132907
-0.134505
-0.135821
-0.137409
-0.138629
-0.139514
-0.141119
-0.140255
-0.141913
-0.143784
-0.128574
-0.126304
-0.124129
-0.0106469
-0.0105043
-0.0101559
-0.0096584
-0.0100063
-0.0104117
-0.010301
-0.00919181
-0.00891882
-0.00855549
-0.00805317
-0.00759695
-0.0072255
-0.00690658
-0.00662672
-0.33354
-0.32643
-0.314343
-0.310084
-0.29968
-0.286097
-0.273729
-0.297775
-0.304256
-0.307119
-0.308479
-0.322389
-0.26298
-0.25513
-0.245024
-0.234321
-0.223928
-0.213858
-0.204089
-0.19457
-0.185396
-0.176703
-0.168584
-0.161114
-0.154383
-0.148477
-0.143423
-0.139151
-0.135502
-0.132308
-0.129422
-0.12677
-0.124279
-0.128241
-0.130121
-0.131529
-0.132725
-0.134324
-0.135233
-0.136048
-0.137637
-0.13681
-0.138534
-0.139381
-0.14094
-0.140176
-0.126072
-0.123943
-0.121936
-0.0102473
-0.0101856
-0.00988955
-0.00930361
-0.00973202
-0.0101272
-0.0100439
-0.0090963
-0.0087627
-0.00824023
-0.00772581
-0.00731484
-0.00696587
-0.00664999
-0.316807
-0.310217
-0.301186
-0.298858
-0.290009
-0.274861
-0.28391
-0.263067
-0.293381
-0.297522
-0.304613
-0.307339
-0.307392
-0.255999
-0.245734
-0.234995
-0.224727
-0.214828
-0.205261
-0.195876
-0.18677
-0.17811
-0.169987
-0.162457
-0.155581
-0.14944
-0.144097
-0.139552
-0.13571
-0.132415
-0.1295
-0.126855
-0.124394
-0.122081
-0.127786
-0.125812
-0.129548
-0.131321
-0.132205
-0.132949
-0.134344
-0.133946
-0.135093
-0.135908
-0.137474
-0.136713
-0.123717
-0.121755
-0.119896
-0.00998216
-0.00992375
-0.00957306
-0.00904097
-0.00938969
-0.00985931
-0.00977245
-0.00924902
-0.00840191
-0.00788882
-0.00742981
-0.00706001
-0.00670727
-0.316392
-0.310254
-0.301436
-0.299105
-0.297379
-0.291666
-0.288558
-0.278355
-0.263296
-0.273339
-0.286132
-0.282909
-0.257086
-0.296978
-0.304944
-0.307468
-0.246516
-0.235681
-0.225477
-0.215713
-0.206369
-0.197122
-0.188078
-0.179445
-0.171326
-0.163763
-0.156798
-0.15049
-0.144905
-0.140087
-0.13601
-0.13256
-0.129576
-0.126917
-0.124476
-0.122191
-0.120035
-0.125544
-0.126941
-0.128208
-0.123444
-0.129545
-0.131537
-0.130953
-0.132103
-0.13263
-0.134041
-0.134145
-0.121536
-0.119725
-0.117982
-0.00968765
-0.00961354
-0.00921748
-0.0105262
-0.00912343
-0.00808911
-0.00953152
-0.00943331
-0.00854136
-0.00961513
-0.00806614
-0.00757233
-0.00717927
-0.00680212
-0.301637
-0.299448
-0.29615
-0.27955
-0.277236
-0.265087
-0.258189
-0.263722
-0.275594
-0.272874
-0.247343
-0.297074
-0.236409
-0.226198
-0.216499
-0.207406
-0.198309
-0.189323
-0.180714
-0.172599
-0.165013
-0.157988
-0.151565
-0.145796
-0.140736
-0.136412
-0.132765
-0.129666
-0.126963
-0.124528
-0.122268
-0.120142
-0.118118
-0.123118
-0.124586
-0.125985
-0.12649
-0.127136
-0.127733
-0.128383
-0.121273
-0.129168
-0.129856
-0.130341
-0.131361
-0.13204
-0.132472
-0.134129
-0.119523
-0.117817
-0.116193
-0.00933774
-0.00926777
-0.00983381
-0.00817758
-0.00924874
-0.00923648
-0.00940961
-0.00920347
-0.00898183
-0.00822626
-0.00867915
-0.00773877
-0.00731267
-0.00692851
-0.269459
-0.26218
-0.260686
-0.248161
-0.256526
-0.266143
-0.263283
-0.237187
-0.226933
-0.217175
-0.208363
-0.199426
-0.190498
-0.181918
-0.173808
-0.166201
-0.15913
-0.152623
-0.146717
-0.14146
-0.136902
-0.133037
-0.129784
-0.127004
-0.124553
-0.122311
-0.120216
-0.118224
-0.116325
-0.120968
-0.122331
-0.123414
-0.124148
-0.124662
-0.125789
-0.125825
-0.119301
-0.130477
-0.131243
-0.117623
-0.116033
-0.114512
-0.00941513
-0.00889171
-0.00949918
-0.00919517
-0.00946362
-0.00849019
-0.00790504
-0.00830543
-0.00884966
-0.00745263
-0.00707321
-0.260818
-0.261531
-0.260017
-0.251216
-0.237965
-0.246296
-0.258107
-0.255676
-0.266679
-0.263187
-0.227735
-0.217748
-0.209235
-0.200452
-0.191588
-0.183047
-0.174952
-0.167329
-0.160216
-0.153642
-0.147628
-0.142212
-0.13745
-0.133368
-0.129934
-0.127043
-0.124551
-0.122316
-0.120251
-0.118296
-0.11643
-0.114643
-0.119066
-0.120231
-0.121254
-0.121969
-0.122514
-0.122985
-0.123528
-0.12414
-0.124525
-0.125811
-0.117396
-0.115843
-0.114353
-0.112933
-0.009545
-0.00943043
-0.00933538
-0.00954791
-0.00922279
-0.0086105
-0.008118
-0.00760042
-0.00796882
-0.00840735
-0.00889788
-0.00903542
-0.00721484
-0.261468
-0.260142
-0.252539
-0.250288
-0.24104
-0.228582
-0.236176
-0.248091
-0.245423
-0.258449
-0.25617
-0.218241
-0.210034
-0.201371
-0.192565
-0.184084
-0.176023
-0.168392
-0.161245
-0.154613
-0.14851
-0.14296
-0.138021
-0.133736
-0.13011
-0.127079
-0.124517
-0.122277
-0.120241
-0.118328
-0.116501
-0.114746
-0.113061
-0.117131
-0.118405
-0.119289
-0.119874
-0.120382
-0.120859
-0.121372
-0.121925
-0.122456
-0.122887
-0.123373
-0.115618
-0.114166
-0.112781
-0.111436
-0.00956416
-0.00940935
-0.00960956
-0.00928636
-0.00875796
-0.00863993
-0.00821509
-0.00779124
-0.00734149
-0.00767915
-0.00805761
-0.0084301
-0.0085323
-0.00896112
-0.00910964
-0.252426
-0.250418
-0.242355
-0.240048
-0.231436
-0.218722
-0.226825
-0.237892
-0.23533
-0.248412
-0.245914
-0.21077
-0.202179
-0.19341
-0.185009
-0.177002
-0.169382
-0.162213
-0.155535
-0.149352
-0.143685
-0.138587
-0.134116
-0.130297
-0.127103
-0.124444
-0.122178
-0.12017
-0.118305
-0.116529
-0.114817
-0.113163
-0.111562
-0.11536
-0.116457
-0.117377
-0.117909
-0.118699
-0.118866
-0.119353
-0.119813
-0.120327
-0.12076
-0.121228
-0.11395
-0.112609
-0.111288
-0.110019
-0.00948697
-0.00936127
-0.00881676
-0.00869102
-0.0083287
-0.0082396
-0.00788903
-0.0075059
-0.00742062
-0.00775953
-0.00808591
-0.00815851
-0.00847919
-0.00857952
-0.00902349
-0.00917326
-0.242209
-0.240136
-0.232604
-0.230417
-0.221924
-0.211474
-0.216655
-0.228451
-0.225986
-0.238171
-0.235769
-0.202878
-0.194128
-0.185811
-0.177873
-0.17028
-0.163108
-0.156402
-0.150155
-0.144378
-0.139134
-0.134487
-0.130478
-0.127107
-0.124322
-0.122006
-0.120014
-0.118205
-0.116497
-0.114842
-0.113234
-0.111665
-0.110144
-0.113707
-0.114721
-0.115665
-0.116161
-0.116597
-0.116992
-0.117451
-0.117693
-0.118887
-0.118596
-0.119199
-0.11242
-0.111119
-0.109873
-0.108672
-0.00886824
-0.00873772
-0.00837415
-0.00828482
-0.00799204
-0.00792647
-0.00760449
-0.00748098
-0.00779564
-0.00784831
-0.00812978
-0.00820338
-0.00852534
-0.00861938
-0.232451
-0.230478
-0.223307
-0.221016
-0.21397
-0.20346
-0.209933
-0.219041
-0.214978
-0.228679
-0.226394
-0.194746
-0.186497
-0.178631
-0.171071
-0.16391
-0.157207
-0.150919
-0.14504
-0.139653
-0.13484
-0.130644
-0.127086
-0.124145
-0.121746
-0.119748
-0.117997
-0.116374
-0.114802
-0.113259
-0.111737
-0.110247
-0.108798
-0.112219
-0.113111
-0.113905
-0.114541
-0.115496
-0.115787
-0.11611
-0.116539
-0.116905
-0.11731
-0.117606
-0.118924
-0.110925
-0.109706
-0.108528
-0.107391
-0.00841598
-0.00832751
-0.0080397
-0.0079677
-0.00770209
-0.007655
-0.0075347
-0.00756587
-0.00783531
-0.0078946
-0.00817239
-0.00824038
-0.223134
-0.221219
-0.215448
-0.213123
-0.205787
-0.195287
-0.201761
-0.211203
-0.209101
-0.220305
-0.214391
-0.187085
-0.17929
-0.171756
-0.164606
-0.157931
-0.151637
-0.14567
-0.140145
-0.135169
-0.13079
-0.127037
-0.123917
-0.121391
-0.119353
-0.117645
-0.11612
-0.114658
-0.113211
-0.111762
-0.11032
-0.108901
-0.107515
-0.110705
-0.111628
-0.112462
-0.112943
-0.113742
-0.114295
-0.114874
-0.1147
-0.115634
-0.116045
-0.116464
-0.116852
-0.117232
-0.109515
-0.108365
-0.107251
-0.106165
-0.00808149
-0.00800707
-0.0077529
-0.00769308
-0.00742281
-0.00757198
-0.00762035
-0.0078752
-0.00793276
-0.216513
-0.213173
-0.206822
-0.204909
-0.197701
-0.187602
-0.193415
-0.203034
-0.200965
-0.21141
-0.209349
-0.213577
-0.179861
-0.17236
-0.165194
-0.158561
-0.152302
-0.146265
-0.140611
-0.135476
-0.130917
-0.126966
-0.123647
-0.120954
-0.118823
-0.117123
-0.115688
-0.114361
-0.113049
-0.111709
-0.110345
-0.108976
-0.10762
-0.106289
-0.109297
-0.110165
-0.110888
-0.11148
-0.112414
-0.112627
-0.113035
-0.11384
-0.113443
-0.115019
-0.115551
-0.10818
-0.107095
-0.106027
-0.104993
-0.00779645
-0.00772818
-0.00748966
-0.00761083
-0.00766083
-0.21625
-0.213163
-0.206805
-0.204981
-0.198747
-0.196817
-0.189792
-0.180345
-0.186089
-0.194701
-0.191777
-0.203226
-0.20124
-0.211467
-0.209527
-0.172912
-0.16569
-0.159095
-0.152908