/*--------------------------------*- C++ -*----------------------------------*\
| =========                 |                                                 |
| \\      /  F ield         | OpenFOAM: The Open Source CFD Toolbox           |
|  \\    /   O peration     | Version:  v1912                                 |
|   \\  /    A nd           | Website:  www.openfoam.com                      |
|    \\/     M anipulation  |                                                 |
\*---------------------------------------------------------------------------*/
FoamFile
{
    version     2.0;
    format      ascii;
    class       volVectorField;
    location    "230";
    object      U;
}
// * * * * * * * * * * * * * * * * * * * * * * * * * * * * * * * * * * * * * //

dimensions      [0 1 -1 0 0 0 0];


internalField   nonuniform List<vector> 
3754
(
(0.995634 0.00294586 9.0582e-23)
(0.996039 0.00860342 0)
(0.950796 0.0117851 1.42662e-22)
(0.996668 0.0135763 0)
(0.955788 0.033388 0)
(0.812855 0.0378781 -1.88548e-21)
(0.997175 0.0174374 0)
(0.965259 0.0511338 -1.09442e-20)
(0.842213 0.099044 1.2491e-22)
(0.515373 0.0515912 1.03574e-21)
(0.531963 0.146696 8.92366e-22)
(0.99754 0.0199868 -1.47719e-22)
(0.977289 0.063374 1.08874e-20)
(0.893066 0.145203 0)
(0.578763 0.237567 8.06363e-22)
(0.646579 0.30634 -3.39285e-21)
(0.117785 0.101934 -2.11224e-22)
(0.11163 0.0340985 2.16576e-22)
(0.158567 0.226199 0)
(0.132286 0.166923 0)
(0.997875 0.0213338 0)
(0.988767 0.0707659 4.56351e-22)
(0.935266 0.16687 0)
(0.719174 0.356582 2.54611e-21)
(0.80226 0.380641 -3.71513e-21)
(0.250586 0.313334 -1.09014e-22)
(0.198078 0.27685 2.17626e-21)
(0.479102 0.477244 -6.40876e-22)
(0.345602 0.410936 0)
(0.998256 0.0217308 0)
(0.997896 0.0741826 0)
(0.964802 0.167159 -1.47038e-22)
(0.955447 0.44742 -9.31482e-21)
(0.662929 0.550887 8.29429e-22)
(0.576268 0.518328 -7.66007e-22)
(0.779995 0.506094 0)
(0.296229 0.331548 -2.47874e-21)
(0.132915 0.203918 5.41771e-21)
(0.998677 0.0214284 0)
(1.00445 0.0743908 -6.04875e-23)
(0.987877 0.157917 0)
(1.06413 0.42341 1.18095e-20)
(0.891039 0.319076 -1.19288e-21)
(1.06391 0.388467 3.69486e-21)
(0.557375 0.401381 9.76824e-22)
(0.399104 0.343276 -8.86749e-22)
(0.757448 0.378663 -2.02658e-21)
(0.534289 0.27201 1.73503e-21)
(0.999088 0.0206108 -1.2984e-23)
(1.00893 0.0720682 0)
(1.00693 0.146238 5.40146e-23)
(1.10765 0.371668 0)
(1.19012 0.309542 -2.26032e-21)
(0.63104 0.0925629 -7.13468e-21)
(0.545455 0.145977 2.14069e-21)
(0.922337 0.143531 7.71848e-21)
(0.240902 0.150277 0)
(0.250378 0.0824864 0)
(0.999449 0.0193958 2.43359e-20)
(1.01203 0.0678316 1.40913e-23)
(1.02261 0.13412 1.7011e-23)
(1.12058 0.31488 -5.62348e-21)
(1.28793 0.299597 0)
(1.01824 0.142137 1.54728e-20)
(0.424746 0.0225061 -4.35366e-22)
(0.272139 0.0193124 1.76192e-22)
(0.375876 0.0484055 -1.39462e-22)
(0.726736 0.0702412 0)
(0.133692 0.00951477 -2.99617e-23)
(0.99974 0.0178648 -2.39698e-20)
(1.01428 0.0622272 0)
(1.03474 0.121739 0)
(1.12349 0.265489 1.02501e-20)
(1.30475 0.275435 8.93933e-24)
(1.27003 0.177901 -1.46178e-20)
(0.828131 0.0512045 -1.56185e-20)
(0.581337 0.0533706 4.05979e-21)
(0.202137 0.00144557 1.6961e-22)
(0.324145 0.0206552 -3.63555e-21)
(0.187085 0.00515711 3.38462e-22)
(0.082749 0.00206095 7.08457e-23)
(0.999962 0.0160847 0)
(1.01599 0.055676 -2.15781e-20)
(1.04356 0.108981 0)
(1.12449 0.223624 -4.53558e-21)
(1.29059 0.246087 0)
(1.35949 0.186375 -2.31141e-20)
(1.15927 0.103412 4.11683e-20)
(0.738131 0.0233264 -3.10852e-20)
(0.465739 0.0147654 0)
(0.495606 0.0169157 1.63935e-23)
(0.0585169 -0.000851469 -1.57656e-22)
(0.26853 0.00405791 -2.04818e-22)
(0.139612 0.00727218 6.68514e-22)
(0.159446 0.00394682 -1.7084e-22)
(0.0578667 0.000226059 -9.81298e-23)
(1.00012 0.0141059 2.27165e-24)
(1.01734 0.0484587 4.0461e-20)
(1.04979 0.0958411 1.40386e-20)
(1.12532 0.187471 0)
(1.27006 0.215103 -3.97095e-24)
(1.37059 0.179964 2.07317e-21)
(1.32154 0.129867 -2.51522e-20)
(1.06868 0.0678444 2.80999e-20)
(0.701802 0.0201571 -3.88722e-21)
(0.45212 0.00912532 4.41283e-22)
(0.447644 0.00338519 -4.44211e-22)
(0.254158 0.00304071 -4.15881e-22)
(0.121466 -0.00124665 -6.1596e-22)
(0.119446 0.00210161 1.06065e-21)
(0.0413857 0.000821239 1.51838e-24)
(0.0497368 0.000177694 -1.50404e-24)
(1.00022 0.0119661 0)
(1.01848 0.0407472 -1.89566e-20)
(1.05421 0.0824273 -1.38131e-20)
(1.12602 0.155768 1.56978e-21)
(1.25203 0.185469 0)
(1.35461 0.165787 2.21131e-20)
(1.3742 0.137181 0)
(1.26819 0.0985815 -6.00681e-24)
(1.00679 0.0522697 2.84218e-20)
(0.672548 0.0212494 3.90224e-21)
(0.454696 0.00971081 6.73164e-21)
(0.456027 0.00646711 0)
(0.270647 0.0028623 -5.80364e-21)
(0.251838 -0.000592178 -3.1637e-24)
(0.114396 0.0019244 2.89518e-22)
(0.115713 -0.000750913 5.87307e-22)
(0.0355395 -0.000506378 8.78474e-23)
(0.0361847 0.000261101 -1.70418e-22)
(1.00027 0.00969174 0)
(1.01951 0.0326474 1.55628e-24)
(1.05742 0.0688201 0)
(1.12662 0.127384 -1.66427e-21)
(1.23822 0.157948 4.76303e-24)
(1.33425 0.149582 0)
(1.37702 0.134001 -5.57312e-24)
(1.35461 0.113581 0)
(1.21951 0.0815658 -2.54008e-20)
(0.957746 0.0467648 0)
(0.641287 0.0211545 1.6657e-20)
(0.438697 0.00830519 -4.28375e-22)
(0.445118 0.0082765 -6.26964e-21)
(0.296117 0.00362595 -1.045e-21)
(0.293003 0.00180642 -3.41548e-22)
(0.151503 0.00413631 1.68858e-20)
(0.131741 -0.00160721 0)
(0.113425 -0.0016009 0)
(0.120436 0.000344504 -2.24736e-21)
(0.0346468 0.000271679 -1.63159e-22)
(0.0352715 -0.000242416 0)
(1.00027 0.00729671 0)
(1.02052 0.0242187 0)
(1.05986 0.0550565 -8.35315e-21)
(1.12737 0.101359 0)
(1.22839 0.132197 0)
(1.31682 0.133369 -3.96669e-20)
(1.36432 0.126751 0)
(1.37673 0.117696 2.29951e-20)
(1.32913 0.100191 0)
(1.17409 0.07334 2.51174e-20)
(0.91553 0.0438598 0)
(0.346399 0.00540666 -2.03315e-20)
(0.613519 0.0207412 -1.63133e-20)
(0.285548 0.00203615 -1.06538e-21)
(0.292225 0.00359844 -3.49336e-22)
(0.181195 0.00176352 0)
(0.180787 0.000948688 3.16258e-21)
(0.17221 -0.000310984 1.92343e-24)
(0.179144 0.00103153 -1.24384e-22)
(0.0674508 0.00386117 -1.62658e-20)
(0.0446945 -0.000525849 1.58346e-21)
(0.0347284 -0.000377968 0)
(0.0386857 -7.52787e-05 7.01001e-24)
(1.00024 0.00478566 4.46634e-25)
(1.02158 0.0154898 0)
(1.06184 0.0411668 8.07635e-21)
(1.12855 0.0768968 0)
(1.22217 0.107802 2.2004e-20)
(1.30382 0.117461 4.00861e-20)
(1.35018 0.118264 -4.52757e-20)
(1.37277 0.116316 -6.98067e-20)
(1.36812 0.108787 0)
(1.29947 0.0932646 -2.36674e-20)
(1.13206 0.0689361 0)
(0.878848 0.042505 2.7345e-20)
(0.328323 0.0051659 1.85254e-20)
(0.127426 0.00188958 3.14334e-21)
(0.129919 -0.0006774 -9.27663e-22)
(0.59514 0.0224098 -3.15206e-20)
(0.172028 0.000445575 1.05526e-21)
(0.173905 0.00115701 5.17018e-22)
(0.178853 0.00112963 -1.27436e-22)
(0.177823 0.00171256 1.15502e-21)
(0.104655 0.000514215 0)
(0.104825 0.000316798 -8.70337e-22)
(0.0979627 -0.000299306 3.31587e-21)
(0.103115 0.000267072 -8.50939e-22)
(0.018715 0.00102415 4.40009e-21)
(1.00017 0.00215119 0)
(1.02278 0.00646934 -1.36535e-20)
(1.06355 0.0271538 -6.18411e-21)
(1.13046 0.0532616 -3.00038e-24)
(1.21946 0.0844019 -2.10072e-20)
(1.29533 0.101935 -1.00313e-23)
(1.33888 0.109526 4.47983e-20)
(1.36225 0.112765 1.28701e-22)
(1.37274 0.111277 0)
(1.35287 0.104462 0)
(1.26808 0.0894814 0)
(1.09383 0.0665239 -2.41501e-20)
(0.848136 0.0428914 2.6757e-20)
(0.332712 0.00673987 -1.72691e-23)
(0.123071 0.00168312 0)
(0.121571 -0.000517482 -1.04618e-22)
(0.0291398 0.000420672 1.61346e-22)
(0.0293545 3.19248e-05 0)
(0.0299105 8.2524e-05 8.12024e-23)
(0.0299885 -0.000502318 0)
(0.0989886 -0.000410112 0)
(0.578014 0.0213322 -1.57283e-20)
(0.100983 0.000636519 -4.42134e-22)
(0.103311 0.000367858 2.18699e-22)
(0.102573 0.000526485 0)
(0.03322 2.36639e-05 0)
(0.0334279 9.16713e-06 0)
(0.0315341 -0.000574155 -2.25205e-21)
(0.0328226 -8.4236e-05 5.71424e-22)
(1.00008 -0.00062384 3.00121e-20)
(1.02418 -0.00282978 2.66663e-20)
(1.06508 0.0129813 5.98982e-21)
(1.13334 0.0297085 -3.05653e-24)
(1.22028 0.0616398 9.87336e-24)
(1.29133 0.0868385 -1.66423e-23)
(1.3314 0.100953 4.36493e-20)
(1.35256 0.108603 4.56914e-20)
(1.3657 0.111039 -4.66451e-20)
(1.36597 0.109436 0)
(1.33344 0.102412 2.69551e-24)
(1.23704 0.0871464 2.68949e-24)
(1.05963 0.0654445 0)
(0.82049 0.0409517 3.2673e-24)
(0.331249 0.00748525 1.29706e-20)
(0.159311 0.000893953 -3.7615e-22)
(0.137847 0.00104273 6.83945e-21)
(0.0296209 0.000428803 -1.41221e-21)
(0.0276286 -0.000132311 8.25763e-23)
(0.0279459 2.2983e-05 -7.99477e-23)
(0.0279174 -0.000390576 8.01307e-23)
(0.0311473 -0.000283252 -1.85566e-23)
(0.555964 0.0202985 -1.53612e-20)
(0.032056 6.81345e-05 1.83841e-23)
(0.0327975 8.86695e-06 -1.55562e-22)
(0.0325752 3.69001e-05 9.20621e-24)
(1.00001 -0.00356349 -2.95554e-20)
(1.02584 -0.0123821 -3.95844e-20)
(1.06639 -0.00143121 0)
(1.13741 0.00550778 0)
(1.22481 0.03918 -3.96328e-24)
(1.2919 0.0722083 3.62138e-20)
(1.32797 0.0927419 -4.25896e-20)
(1.34582 0.104469 0)
(1.35718 0.109923 4.60602e-20)
(1.36273 0.111313 2.76765e-24)
(1.3546 0.109159 0)
(1.31229 0.101169 -2.17451e-20)
(1.20752 0.0855932 -2.70958e-24)
(1.02847 0.0629173 2.31202e-20)
(0.792292 0.0389869 0)
(0.316161 0.00704208 1.92644e-20)
(0.157177 0.00301071 0)
(0.160212 0.00115094 6.89667e-21)
(0.0773667 0.000252491 0)
(0.0722968 0.000123061 5.58809e-23)
(0.0496089 0.00291453 -5.73836e-21)
(0.0335578 -0.000598662 1.63723e-21)
(0.533739 0.0192274 0)
(1.00001 -0.00669033 0)
(1.02776 -0.0221205 2.59283e-20)
(1.06728 -0.0162131 0)
(1.14292 -0.020093 0)
(1.23332 0.0167278 -6.96434e-24)
(1.29721 0.0581064 -7.13546e-20)
(1.32875 0.0850257 4.28819e-20)
(1.34263 0.100646 -1.10016e-23)
(1.35067 0.108729 0)
(1.35551 0.112084 5.59049e-24)
(1.35529 0.112466 -2.76212e-24)
(1.34095 0.109193 2.15479e-20)
(1.29087 0.100139 0)
(1.17961 0.0830293 -2.12794e-20)
(0.998302 0.0602111 -2.25262e-20)
(0.765197 0.0372065 0)
(0.300246 0.00628128 -8.07868e-24)
(0.146921 0.00278 -2.88425e-21)
(0.150678 0.000717454 -3.82224e-22)
(0.0738105 0.0010271 1.19617e-22)
(0.075139 0.000424678 2.39845e-22)
(0.0769909 0.000621214 -2.3747e-22)
(0.0772706 0.000143733 -9.4272e-22)
(0.024458 -4.48024e-05 0)
(0.0232192 -0.000501736 0)
(0.0137446 0.000831409 0)
(0.514685 0.0180324 0)
(1.00016 -0.0100065 -3.16636e-20)
(1.0298 -0.0319265 -2.77047e-20)
(1.0674 -0.0315846 9.84445e-21)
(1.15022 -0.0479498 -7.00793e-21)
(1.24637 -0.00600137 2.2779e-20)
(1.30758 0.0446133 3.51385e-20)
(1.33398 0.0779459 -4.17969e-20)
(1.34329 0.097316 1.06084e-23)
(1.34732 0.107807 1.10021e-23)
(1.34925 0.112692 0)
(1.34953 0.114388 -2.65626e-24)
(1.34566 0.113509 -4.30241e-20)
(1.32643 0.109006 4.15343e-20)
(1.26967 0.0981778 2.03096e-20)
(1.15243 0.0801133 4.12732e-20)
(0.969642 0.0577333 0)
(0.741048 0.0354077 2.44425e-20)
(0.287412 0.00572759 4.13551e-21)
(0.138223 0.00248005 0)
(0.141119 0.000387039 1.89887e-22)
(0.0682739 0.00094429 0)
(0.0693604 0.000260003 1.17502e-22)
(0.0708374 0.000555085 0)
(0.0715844 -6.02453e-05 -2.36745e-22)
(0.0230574 0.000114499 -6.9222e-23)
(0.0237433 -5.75686e-06 -1.03837e-22)
(0.0244497 7.4667e-05 1.0396e-22)
(0.0246418 -3.84406e-06 0)
(0.501753 0.018016 -2.81878e-20)
(1.00051 -0.0134742 3.11774e-20)
(1.03166 -0.0416425 2.70713e-20)
(1.06633 -0.0479541 9.04462e-22)
(1.16007 -0.0790957 6.66108e-21)
(1.26496 -0.029266 -7.00714e-20)
(1.32363 0.0318178 0)
(1.34408 0.0716519 9.43285e-25)
(1.34811 0.094642 0)
(1.3476 0.10736 4.55205e-20)
(1.34573 0.113551 4.52534e-20)
(1.34359 0.116008 0)
(1.3415 0.116155 4.26312e-20)
(1.33516 0.114013 -8.25946e-20)
(1.3115 0.107872 -1.9998e-20)
(1.24842 0.0956539 -1.96517e-20)
(1.12625 0.0773145 0)
(0.943423 0.0553359 -2.13257e-20)
(0.720821 0.034457 2.37784e-20)
(0.284463 0.00607276 0)
(0.131901 0.00239819 -6.00698e-21)
(0.133489 0.000282446 0)
(0.0639692 0.000850476 0)
(0.0647916 0.000182039 -1.16178e-22)
(0.0659296 0.000474108 -1.1649e-22)
(0.0664713 -0.000163506 0)
(0.0212061 0.000104336 0)
(0.0217666 -3.08144e-05 6.82347e-23)
(0.0222875 7.78068e-05 0)
(0.0224177 -4.03223e-05 1.37191e-22)
(0.492656 0.0172468 2.74818e-20)
(1.00108 -0.0169996 -3.48873e-20)
(1.03279 -0.0511214 -3.06326e-20)
(1.06388 -0.0660104 -1.01175e-20)
(1.17394 -0.114787 4.43105e-21)
(1.29064 -0.0532612 -6.23296e-21)
(1.34642 0.0198444 -7.98378e-20)
(1.35974 0.0663143 -4.4047e-20)
(1.3576 0.0927924 -1.06792e-23)
(1.35195 0.10755 -4.47107e-20)
(1.34569 0.114866 -4.46459e-20)
(1.33998 0.117823 1.04846e-23)
(1.33598 0.118329 -4.24676e-20)
(1.33276 0.117115 -5.08654e-23)
(1.32423 0.113552 -2.46687e-24)
(1.29611 0.106018 0)
(1.22742 0.0930316 0)
(1.10171 0.0745678 0)
(0.919976 0.0534454 0)
(0.703655 0.0329676 2.3131e-20)
(0.288847 0.00604447 -3.01443e-20)
(0.139936 0.00310196 3.58983e-22)
(0.131717 -0.000164354 2.58717e-21)
(0.0607419 0.000800331 -4.55153e-22)
(0.0610673 0.000161836 0)
(0.0620363 0.000454865 0)
(0.0624403 -0.00016319 -1.13882e-22)
(0.019831 9.474e-05 0)
(0.0202791 -3.67476e-05 0)
(0.020676 7.33507e-05 3.36877e-23)
(0.0207197 -5.13583e-05 -3.34805e-23)
(0.481293 0.0165761 2.68359e-20)
(1.00182 -0.020445 3.43314e-20)
(1.03261 -0.0602983 -2.76958e-21)
(1.06041 -0.0867064 2.41248e-24)
(1.19381 -0.15639 -4.17149e-21)
(1.3251 -0.0780221 4.96526e-20)
(1.37688 0.00891775 -7.37783e-21)
(1.38165 0.0621468 4.27247e-20)
(1.37237 0.091963 3.24921e-23)
(1.3609 0.108541 -4.54148e-20)
(1.34968 0.11678 4.48247e-20)
(1.33974 0.120059 4.36429e-20)
(1.33236 0.120615 8.42055e-20)
(1.3278 0.119579 4.06168e-20)
(1.32376 0.117067 3.91973e-20)
(1.31289 0.112289 -4.53175e-24)
(1.28054 0.10386 0)
(1.20722 0.0903387 0)
(1.07903 0.0720754 0)
(0.89899 0.0512441 -4.02774e-20)
(0.68676 0.0313953 -2.25982e-20)
(0.283918 0.00628876 -7.1419e-24)
(0.155089 0.00280565 0)
(0.151786 0.000705488 -2.66254e-21)
(0.0771464 0.00265504 -7.01876e-21)
(0.0678005 -0.000264346 0)
(0.0630897 0.000201738 -7.31582e-21)
(0.0604927 -0.000465718 0)
(0.0187248 8.27885e-05 2.63073e-22)
(0.0190557 -3.68777e-05 0)
(0.0194092 7.39768e-05 -3.30454e-23)
(0.019429 -4.62953e-05 9.87634e-23)
(0.468069 0.0158891 -6.24933e-24)
(1.00256 -0.023642 0)
(1.03068 -0.0692146 3.22085e-20)
(1.05694 -0.111016 3.34931e-24)
(1.221 -0.205041 -2.00846e-24)
(1.36836 -0.103343 6.49238e-20)
(1.41413 -0.000501394 8.09525e-20)
(1.40917 0.059468 0)
(1.39229 0.0924022 2.18781e-23)
(1.37466 0.110523 8.98911e-20)
(1.35808 0.119433 -4.40778e-20)
(1.34348 0.12285 -4.30813e-20)
(1.33202 0.123275 -4.16956e-20)
(1.32427 0.122065 -4.03093e-20)
(1.31952 0.119745 -3.88542e-20)
(1.31456 0.116175 0)
(1.30133 0.110585 4.51472e-24)
(1.26524 0.101494 0)
(1.18809 0.0876936 0)
(1.05816 0.0693971 7.41693e-23)
(0.879197 0.0489452 0)
(0.669801 0.0299987 0)
(0.274674 0.00610786 7.27019e-24)
(0.150999 0.00310301 9.25209e-24)
(0.153205 0.00119387 -1.32904e-21)
(0.093095 0.00129446 0)
(0.092827 0.000631443 1.05514e-22)
(0.0914156 0.000546641 -1.03281e-22)
(0.0877648 -0.000159183 3.28345e-21)
(0.0336925 0.00232191 4.50382e-21)
(0.0227949 -0.000218891 0)
(0.0203801 -8.03571e-05 2.14298e-21)
(0.0187805 -0.000126306 1.32441e-22)
(0.455009 0.0151307 -1.2687e-20)
(1.0031 -0.0263857 -1.62547e-22)
(1.02682 -0.0778954 0)
(1.05421 -0.139708 2.00293e-20)
(1.25371 -0.261589 3.07931e-22)
(1.41562 -0.128003 -6.17805e-20)
(1.45216 -0.00767339 -1.98151e-23)
(1.43736 0.0587558 9.49193e-20)
(1.4143 0.0944077 -2.18593e-23)
(1.39179 0.113705 -1.35546e-19)
(1.37049 0.122976 4.44474e-20)
(1.35134 0.126316 -2.13531e-23)
(1.33559 0.126453 4.03924e-23)
(1.32391 0.124882 3.98566e-20)
(1.3162 0.122329 -3.84307e-20)
(1.31124 0.119027 0)
(1.30529 0.114758 0)
(1.28987 0.108577 -3.44704e-20)
(1.25045 0.0990159 0)
(1.17008 0.0848868 1.69817e-20)
(1.03854 0.0666398 1.75211e-20)
(0.860239 0.0468638 0)
(0.653677 0.028696 0)
(0.265294 0.00564433 1.243e-20)
(0.145106 0.00273458 0)
(0.14703 0.00105641 -3.3465e-22)
(0.0894171 0.00139384 4.18357e-22)
(0.0904665 0.000783211 4.20202e-22)
(0.0916551 0.000918391 4.19864e-22)
(0.0921614 0.000320916 8.38955e-22)
(0.0528803 0.000371192 -8.77368e-23)
(0.0531042 0.000203045 2.71341e-22)
(0.0519804 0.000153924 0)
(0.0492686 -3.55474e-05 2.1517e-23)
(0.00929921 0.000620329 -4.73967e-22)
(0.44327 0.0144304 0)
(1.00329 -0.0284074 -4.56161e-20)
(1.02078 -0.0858516 1.53715e-22)
(1.05056 -0.173082 -1.92821e-20)
(1.2842 -0.326284 -2.79764e-22)
(1.4531 -0.147998 -1.65756e-23)
(1.47533 -0.0113421 -2.36325e-23)
(1.45273 0.060583 5.81112e-21)
(1.42885 0.0982182 2.21624e-23)
(1.4064 0.118225 8.95284e-20)
(1.38381 0.127521 -1.32345e-19)
(1.36204 0.130562 0)
(1.34281 0.130254 4.09877e-20)
(1.32729 0.128186 -9.2764e-25)
(1.31587 0.125182 7.59902e-20)
(1.30828 0.121661 9.14085e-24)
(1.30309 0.11773 8.41554e-24)
(1.2962 0.112982 3.40475e-20)
(1.27872 0.106357 -3.94594e-24)
(1.23629 0.0963507 -3.2362e-20)
(1.15298 0.0819927 -1.63608e-20)
(1.01993 0.0640772 0)
(0.842497 0.044971 0)
(0.639086 0.0275083 0)
(0.256907 0.00526431 6.94222e-24)
(0.139041 0.00276934 0)
(0.14152 0.000755535 2.9302e-21)
(0.0851262 0.000362149 0)
(0.0861648 0.000445361 0)
(0.0871457 0.000807228 0)
(0.0879307 0.000268908 8.2746e-22)
(0.0504656 0.000402243 0)
(0.0513975 0.000279939 -2.70311e-22)
(0.052149 0.000282122 0)
(0.0523834 0.000146742 1.7809e-22)
(0.0164769 2.25308e-05 1.23452e-22)
(0.0167095 2.22379e-06 -2.14694e-22)
(0.0163038 -6.06516e-05 -3.0022e-23)
(0.0156967 -0.000335133 9.38803e-22)
(0.433702 0.0138243 1.19224e-20)
(1.00321 -0.0293531 9.4078e-20)
(1.01176 -0.0913859 -1.68255e-22)
(1.04024 -0.208977 0)
(1.29562 -0.394827 1.19807e-21)
(1.4551 -0.157709 0)
(1.45408 -0.00916412 -2.89328e-23)
(1.42942 0.0653086 -9.95115e-20)
(1.41606 0.1037 0)
(1.4047 0.123866 -2.29663e-23)
(1.38935 0.132952 8.77038e-20)
(1.37069 0.135575 -4.01108e-23)
(1.35137 0.134727 -4.04346e-20)
(1.33367 0.132062 0)
(1.31901 0.128481 -7.25795e-23)
(1.30804 0.124495 -9.02662e-24)
(1.30063 0.12037 3.46965e-20)
(1.29523 0.116041 -8.36753e-24)
(1.28741 0.110945 3.22973e-20)
(1.26795 0.103924 3.15882e-20)
(1.22268 0.0935713 0)
(1.13668 0.0792364 0)
(1.00252 0.0617389 0)
(0.826289 0.0432662 0)
(0.626503 0.0264943 0)
(0.250375 0.0049997 -1.35335e-20)
(0.133908 0.00258157 0)
(0.135781 0.00074504 1.43884e-21)
(0.0633904 0.000516517 2.23248e-22)
(0.0648465 3.44817e-05 -2.15571e-22)
(0.0481919 -0.000466881 -9.07401e-23)
(0.0491783 3.82812e-05 -1.24854e-25)
(0.0493717 0.000217124 8.87153e-23)
(0.0496994 0.00012902 -4.44824e-22)
(0.0156028 2.89143e-05 -3.06444e-23)
(0.0160081 1.58961e-05 -3.07605e-23)
(0.0162755 1.69831e-05 0)
(0.0162924 -3.02006e-06 -1.2306e-22)
(0.427459 0.0135342 0)
(1.00294 -0.0288082 -4.79057e-20)
(0.999384 -0.0927854 0)
(1.01341 -0.238684 4.18499e-20)
(1.25946 -0.454218 -1.16352e-21)
(1.38328 -0.158282 2.97531e-23)
(1.34326 0.000972727 -1.36464e-19)
(1.32931 0.0722749 8.23544e-23)
(1.34526 0.109757 -5.24077e-23)
(1.36312 0.129574 0)
(1.37017 0.138542 9.05019e-20)
(1.36613 0.140959 -4.01252e-23)
(1.3546 0.139711 -8.04927e-20)
(1.33959 0.136489 3.84573e-20)
(1.32428 0.132291 -6.7826e-23)
(1.31086 0.127724 0)
(1.30052 0.123143 -3.4336e-20)
(1.29335 0.118663 3.59812e-25)
(1.28774 0.114072 -3.19735e-20)
(1.27895 0.10869 3.84956e-24)
(1.25752 0.101356 3.00382e-20)
(1.20957 0.0908648 0)
(1.12129 0.0766886 0)
(0.986413 0.059624 0)
(0.811789 0.0418035 -1.6955e-20)
(0.616291 0.0258354 -1.8995e-20)
(0.248387 0.00481662 3.27496e-21)
(0.130356 0.00248048 3.13219e-21)
(0.131269 0.000647082 -3.48622e-22)
(0.0607424 0.00046586 0)
(0.0618857 0.000148349 -1.23389e-21)
(0.0142822 0.000198931 -3.25194e-23)
(0.0144305 -0.000121417 6.47367e-23)
(0.0145485 -0.000248799 -6.59939e-23)
(0.0146601 0.000151893 -4.83352e-26)
(0.0148816 -0.00021537 5.98531e-23)
(0.0153074 -2.92121e-05 3.00758e-23)
(0.0153186 1.41104e-05 -6.02539e-23)
(0.0153578 -4.95734e-06 6.0492e-23)
(0.424251 0.0136693 2.201e-20)
(1.00199 -0.0266009 0)
(0.984753 -0.0901087 -5.75458e-20)
(0.958159 -0.249156 -6.60172e-20)
(1.13943 -0.498231 -5.23534e-21)
(1.18154 -0.150632 5.04457e-21)
(1.08938 0.0168432 1.56903e-19)
(1.11215 0.0785441 -7.16113e-23)
(1.18297 0.113442 -5.96573e-23)
(1.25261 0.132895 4.87502e-23)
(1.30209 0.142451 -9.33925e-20)
(1.32971 0.145518 -4.08574e-23)
(1.33942 0.144531 8.0663e-20)
(1.33673 0.141147 3.81859e-20)
(1.32703 0.136512 -3.64926e-20)
(1.31472 0.131394 0)
(1.30289 0.126261 1.60859e-23)
(1.29336 0.121353 0)
(1.28648 0.116667 3.13333e-20)
(1.28062 0.111891 0)
(1.27078 0.106299 -2.95538e-20)
(1.24741 0.0988122 -3.58509e-24)
(1.19707 0.0883231 0)
(1.10687 0.0743596 0)
(0.971656 0.0577741 1.51355e-20)
(0.799047 0.0406752 1.6379e-20)
(0.608065 0.0254962 1.83535e-20)
(0.253069 0.00527509 -3.0752e-20)
(0.132562 0.00233473 1.06749e-20)
(0.129808 0.000402932 -5.44988e-21)
(0.0587805 0.000436105 -2.26392e-21)
(0.0595125 0.000135041 -7.1398e-23)
(0.0136274 0.000189186 -3.1796e-23)
(0.0137541 -0.000126786 3.16887e-23)
(0.0139814 -0.000175011 6.41891e-23)
(0.0139872 0.000151801 0)
(0.420429 0.0134405 0)
(1.00048 -0.0226554 0)
(0.967387 -0.0808178 -5.09064e-21)
(0.944402 -0.182473 2.08361e-20)
(0.921086 -0.182663 2.38774e-20)
(0.970612 -0.574115 9.08199e-21)
(0.865887 -0.563035 1.89099e-20)
(0.870796 -0.307951 2.55438e-20)
(1.07453 -0.205103 1.43817e-19)
(0.912471 -0.483037 6.23404e-23)
(0.789798 -0.138716 -8.94457e-20)
(0.657969 0.0326203 0)
(0.636133 0.00921895 -6.93338e-20)
(0.763441 0.0796305 1.55051e-22)
(0.914133 0.109538 1.2905e-22)
(1.05282 0.129762 -5.51047e-23)
(1.16201 0.141476 -3.90793e-24)
(1.23908 0.146899 4.28696e-23)
(1.28682 0.147615 -8.27836e-20)
(1.31072 0.145099 -5.90202e-23)
(1.31753 0.140662 0)
(1.31381 0.135316 3.45192e-20)
(1.30501 0.12974 0)
(1.29512 0.124336 -1.59976e-23)
(1.28655 0.119269 -3.09773e-20)
(1.27999 0.114472 2.97954e-20)
(1.2738 0.109587 -6.92941e-24)
(1.26288 0.103906 2.80294e-20)
(1.23769 0.0963885 0)
(1.18522 0.085971 0)
(1.09344 0.0722839 0)
(0.958221 0.0562321 -1.45088e-20)
(0.78779 0.0398079 -1.58135e-20)
(0.600162 0.0249001 0)
(0.254233 0.00550197 0)
(0.145761 0.00230651 0)
(0.1395 0.00161238 1.00181e-20)
(0.0614289 6.82761e-05 -1.36077e-20)
(0.0584952 4.81802e-06 0)
(0.0130761 0.000176947 -3.11833e-23)
(0.013164 -0.000124886 -2.84833e-25)
(0.0133593 -0.00016993 6.2803e-23)
(0.013378 0.000148254 3.1128e-23)
(0.414175 0.0132916 0)
(0.998803 -0.017012 -5.07164e-22)
(0.952772 -0.0644262 6.42901e-20)
(0.896415 -0.16814 -2.38668e-20)
(0.874183 -0.151584 -2.89567e-20)
(0.82868 -0.283165 4.61066e-22)
(0.765295 -0.548034 -2.87855e-20)
(0.654381 -0.511158 -7.97837e-22)
(0.835037 -0.616232 1.01637e-21)
(0.594274 -0.189857 2.50952e-20)
(0.2632 -0.101689 -2.04346e-21)
(0.449718 -0.268032 3.50325e-21)
(0.221504 -0.00735891 -4.12398e-21)
(0.275858 0.026494 -3.30172e-20)
(0.476415 0.0146897 3.72399e-20)
(0.30224 0.0546275 1.12096e-19)
(0.345285 0.0715337 5.15088e-20)
(0.199951 0.0114262 -1.08251e-19)
(0.278707 0.0121676 -1.02169e-22)
(0.573878 0.0924272 -1.86338e-22)
(0.77479 0.115428 -1.45246e-22)
(0.944333 0.131624 5.96277e-23)
(1.07903 0.141761 -9.75136e-23)
(1.17787 0.146363 8.75272e-20)
(1.2433 0.146515 -7.93076e-20)
(1.28075 0.143588 0)
(1.29726 0.138859 -3.45746e-20)
(1.29998 0.133303 -8.07542e-25)
(1.29515 0.12759 0)
(1.28751 0.122106 0)
(1.28005 0.116995 -2.94953e-20)
(1.27381 0.112169 0)
(1.26726 0.107274 -2.76865e-20)
(1.25527 0.101605 3.34387e-24)
(1.2284 0.0941233 0)
(1.17403 0.0838442 3.13841e-24)
(1.08097 0.0704885 -1.32504e-20)
(0.945943 0.0549364 0)
(0.777232 0.0388649 0)
(0.591357 0.024421 0)
(0.250215 0.00553624 0)
(0.146576 0.00300683 2.44774e-21)
(0.146971 0.00126109 0)
(0.0813316 0.000587208 2.06697e-21)
(0.0732032 0.000690566 6.40549e-23)
(0.0156739 0.00051143 4.84954e-21)
(0.0138461 -0.000325995 -6.76135e-23)
(0.0128392 -0.000197514 -3.08748e-23)
(0.0131216 0.000118987 9.39391e-23)
(0.406555 0.0131158 0)
(0.997125 -0.0100357 6.17959e-20)
(0.942896 -0.0415019 5.20815e-22)
(0.854341 -0.127035 2.93014e-20)
(0.83855 -0.1001 6.07596e-22)
(0.777286 -0.265438 -3.4587e-20)
(0.72793 -0.234504 7.2576e-20)
(0.694395 -0.447272 4.22422e-23)
(0.741845 -0.460792 9.14531e-21)
(0.470687 -0.456786 -1.334e-21)
(0.529003 -0.45115 5.70018e-23)
(0.617225 -0.578656 9.5856e-21)
(0.281639 -0.249364 0)
(0.0710073 0.0212867 -2.15127e-20)
(0.122817 0.0116487 9.25007e-23)
(0.0636528 0.0248404 -9.80962e-20)
(0.119221 0.0472845 9.71341e-20)
(0.261927 0.0600546 0)
(0.12898 0.0268054 -9.2171e-20)
(0.0474656 0.000681568 8.61551e-20)
(0.475386 0.0873862 0)
(0.676529 0.11004 0)
(0.856046 0.126974 0)
(1.00528 0.137723 1.40323e-22)
(1.11984 0.142781 -4.00065e-23)
(1.20002 0.143317 0)
(1.24996 0.140704 0)
(1.27609 0.136179 3.28927e-23)
(1.28558 0.130749 -1.56102e-23)
(1.2851 0.125114 -2.98123e-20)
(1.27998 0.119685 0)
(1.27377 0.114625 0)
(1.26788 0.109862 -6.49599e-24)
(1.26098 0.105042 -6.31098e-24)
(1.24798 0.0994417 0)
(1.21955 0.0920544 0)
(1.16349 0.0819661 2.51758e-20)
(1.06935 0.0689327 0)
(0.934436 0.0536992 0)
(0.766636 0.0380589 0)
(0.581898 0.0240579 -1.67537e-20)
(0.24446 0.00535654 1.42317e-21)
(0.143181 0.00293821 2.3898e-21)
(0.144773 0.00142283 0)
(0.0814577 0.000920912 -2.29242e-21)
(0.0821516 0.000502649 -2.89228e-22)
(0.0385402 0.000330655 0)
(0.0376344 -9.3428e-06 -1.36646e-21)
(0.0240296 0.001656 -1.64303e-20)
(0.0353008 0.000148532 0)
(0.398513 0.0129407 9.77417e-21)
(0.995685 -0.00241528 -1.23968e-19)
(0.933971 -0.0132766 -3.02804e-21)
(0.827232 -0.0727587 0)
(0.820137 -0.0516867 -4.29e-20)
(0.688756 -0.186025 -3.99636e-20)
(0.660549 -0.128159 -6.37197e-22)
(0.637424 -0.422745 -1.1895e-20)
(0.581428 -0.393734 1.05672e-20)
(0.488991 -0.318074 1.40889e-20)
(0.530593 -0.357849 -1.27278e-20)
(0.543247 -0.569681 -2.46609e-22)
(0.412471 -0.452128 1.54441e-21)
(0.0201779 0.00684806 -4.69344e-20)
(-0.00223496 0.0102268 1.44557e-21)
(0.00615441 -0.00327587 -1.75439e-21)
(0.0196615 0.0147752 -5.69064e-20)
(0.0721169 0.0215845 -1.2716e-22)
(0.230568 0.0502081 0)
(0.0459243 0.01365 1.76962e-20)
(-0.000311841 -0.00933565 -5.50921e-20)
(0.0079349 0.000363616 2.42157e-20)
(0.414163 0.0780581 0)
(0.604296 0.101802 1.28103e-22)
(0.783731 0.119701 1.05005e-22)
(0.939861 0.131381 -5.04916e-23)
(1.0652 0.137401 4.1105e-23)
(1.15743 0.13884 -7.27942e-20)
(1.21868 0.136933 0)
(1.25417 0.132923 2.98209e-23)
(1.27061 0.127841 5.93678e-20)
(1.27478 0.122437 0)
(1.27243 0.117173 0)
(1.26762 0.112256 0)
(1.26217 0.107634 6.44548e-24)
(1.25496 0.102941 2.31583e-25)
(1.24101 0.0974554 0)
(1.21113 0.0902062 0)
(1.15356 0.0803182 0)
(1.05842 0.067517 0)
(0.923278 0.0526347 0)
(0.755954 0.03745 3.10199e-23)
(0.572266 0.0237651 -8.10897e-21)
(0.238392 0.00523162 1.3829e-21)
(0.139098 0.00277208 -2.33296e-21)
(0.140844 0.0012894 0)
(0.0790066 0.000855711 -2.24916e-21)
(0.0802699 0.00054586 0)
(0.0376519 0.000443218 0)
(0.0379952 -2.21251e-06 3.45006e-22)
(0.0383624 -0.000105304 6.92251e-22)
(0.0384224 0.000352684 -3.46076e-22)
(0.0118976 4.71302e-05 -2.5934e-23)
(0.0116934 -6.68485e-05 -8.2178e-22)
(0.00658707 0.000460389 6.46324e-21)
(0.0112366 -0.000257777 0)
(0.390486 0.0128284 0)
(0.994533 0.00514575 6.20515e-20)
(0.93564 0.0184864 -7.78864e-20)
(0.752155 0.0620388 3.52078e-20)
(0.641096 -0.060621 0)
(0.636508 0.0223012 0)
(0.455693 -0.268927 0)
(0.42729 -0.215401 1.83182e-20)
(0.384622 -0.101372 0)
(0.403636 -0.15901 -1.84538e-20)
(0.404552 -0.501594 2.23333e-20)
(0.317076 -0.404766 -1.93371e-20)
(0.208127 -0.328869 -1.84201e-20)
(0.262712 -0.37525 -4.1372e-22)
(0.341119 -0.44515 1.2183e-21)
(-0.0105441 0.00437837 -2.58286e-20)
(0.00207421 0.000152266 0)
(0.00684065 0.00903874 7.46371e-23)
(0.0726888 0.0179317 -5.44479e-20)
(0.0146703 0.000394686 1.82589e-20)
(0.205288 0.0433209 2.05661e-19)
(0.0159511 0.00245795 -8.80868e-23)
(0.0116936 0.00685497 1.59159e-22)
(-0.00725511 -0.0023265 1.31166e-20)
(0.000345594 -0.00024602 9.33664e-22)
(0.370118 0.0699111 0)
(0.548024 0.093228 -1.34212e-22)
(0.722873 0.111422 1.07919e-19)
(0.88127 0.12395 -2.76722e-24)
(1.01377 0.131094 7.89766e-20)
(1.11571 0.133601 1.83681e-24)
(1.18709 0.132608 0)
(1.23157 0.129296 -3.00088e-20)
(1.25505 0.124714 0)
(1.26412 0.119661 0)
(1.26479 0.114661 -2.61294e-20)
(1.26155 0.109965 0)
(1.25664 0.105536 5.9267e-24)
(1.24919 0.101008 5.98619e-24)
(1.23435 0.0956729 0)
(1.20314 0.0885785 -2.31123e-20)
(1.14415 0.0788541 0)
(1.04793 0.0663068 0)
(0.912354 0.051816 2.71011e-23)
(0.745384 0.0369976 0)
(0.56276 0.0235689 0)
(0.232358 0.00518645 0)
(0.135007 0.00270637 -2.27084e-21)
(0.136751 0.00123724 0)
(0.0764424 0.000782141 -3.67888e-22)
(0.077665 0.000476259 2.44165e-22)
(0.0362079 0.000420711 0)
(0.0365608 -2.09089e-05 4.22116e-22)
(0.0371402 -9.80615e-05 -8.49409e-23)
(0.0369986 0.000345208 7.72415e-25)
(0.0115462 5.75696e-05 0)
(0.0117278 -2.45518e-05 0)
(0.0118384 -3.84776e-05 2.62144e-23)
(0.0118664 4.87915e-05 0)
(0.382808 0.0127911 0)
(0.993751 0.0121848 0)
(0.942197 0.0458504 3.45126e-21)
(0.80353 0.13437 9.436e-22)
(0.384615 0.262021 -1.98078e-20)
(0.507649 0.350227 -2.11375e-21)
(0.372322 -0.0421799 0)
(0.371523 0.0150329 0)
(0.414328 0.127348 1.88874e-21)
(0.384313 0.0735493 0)
(0.166122 -0.269129 -1.59332e-21)
(0.134918 -0.202336 -1.60901e-21)
(0.0983858 -0.0669968 -2.63755e-20)
(0.11263 -0.134403 2.51451e-20)
(0.155596 -0.267102 -1.35544e-21)
(-0.00940275 -0.000853182 -1.5054e-20)
(-0.00288628 -0.00184368 0)
(0.00320654 4.81127e-05 -1.47781e-22)
(-0.00122295 0.00243238 1.30461e-20)
(-3.50021e-05 1.16258e-05 -1.43057e-20)
(0.0162205 0.00804645 -1.57984e-20)
(0.066404 0.0154637 -2.05767e-19)
(0.0174578 5.81643e-05 8.38835e-20)
(0.000952839 0.000239569 -1.28553e-20)
(0.00254951 -0.00192018 -2.01145e-20)
(0.185292 0.0384804 0)
(0.000834328 -0.00111152 -1.63788e-20)
(0.335295 0.0627444 0)
(0.501545 0.0848719 -2.55723e-19)
(0.670145 0.102974 4.98002e-23)
(0.828155 0.116204 8.81976e-20)
(0.965231 0.124345 0)
(1.07496 0.12795 3.39481e-23)
(1.15534 0.127953 0)
(1.20837 0.12545 -5.6025e-23)
(1.23888 0.121478 0)
(1.25305 0.116878 2.146e-22)
(1.25698 0.112224 0)
(1.25552 0.107805 1.1661e-23)
(1.25127 0.103605 -2.35778e-20)
(1.24364 0.0992717 -5.52828e-24)
(1.22799 0.0941047 2.25924e-20)
(1.19552 0.0871552 0)
(1.13513 0.0776157 -2.22694e-20)
(1.03777 0.0653689 2.28977e-20)
(0.901721 0.0512222 0)
(0.735078 0.036703 0)
(0.553664 0.0234929 0)
(0.226557 0.00518175 0)
(0.130976 0.00267986 0)
(0.132688 0.00124056 -1.11717e-21)
(0.0739578 0.000761584 1.193e-22)
(0.0751533 0.000459159 1.19821e-22)