/*--------------------------------*- C++ -*----------------------------------*\
| =========                 |                                                 |
| \\      /  F ield         | OpenFOAM: The Open Source CFD Toolbox           |
|  \\    /   O peration     | Version:  v1912                                 |
|   \\  /    A nd           | Website:  www.openfoam.com                      |
|    \\/     M anipulation  |                                                 |
\*---------------------------------------------------------------------------*/
FoamFile
{
    version     2.0;
    format      ascii;
    class       volScalarField;
    location    "390";
    object      p;
}
// * * * * * * * * * * * * * * * * * * * * * * * * * * * * * * * * * * * * * //

dimensions      [0 2 -2 0 0 0 0];


internalField   nonuniform List<scalar> 
3673
(
0.154962
0.138094
0.0851015
0.139465
0.0939038
0.0583938
0.155723
0.116561
0.0733021
0.0722032
0.174327
0.139466
0.094754
0.0789132
0.0856854
0.192205
0.15965
0.118626
0.0909852
0.0881751
0.0922543
0.209467
0.178831
0.142572
0.109544
0.0948008
0.0934543
0.0941925
0.226008
0.197631
0.165729
0.132276
0.107659
0.0974207
0.0950501
0.0928777
0.241536
0.215879
0.187893
0.156244
0.12621
0.106096
0.0975266
0.0937724
0.0892806
0.255747
0.233337
0.209203
0.18016
0.14801
0.120157
0.103161
0.0954513
0.0903186
0.0843212
0.268318
0.249743
0.229799
0.203863
0.171361
0.138374
0.112994
0.0989327
0.0916265
0.0855007
0.0786883
0.278897
0.264758
0.249627
0.227482
0.195708
0.159274
0.126744
0.105122
0.0937501
0.0866792
0.0799753
0.0728029
0.287131
0.277981
0.268437
0.251069
0.221077
0.182165
0.143451
0.114182
0.0972796
0.0880924
0.0811332
0.0741539
0.0669369
0.29269
0.288967
0.285814
0.274503
0.247657
0.207056
0.162481
0.125584
0.102432
0.0900884
0.0822385
0.0753095
0.0683129
0.0612852
0.295303
0.297245
0.301188
0.297438
0.275593
0.234344
0.183807
0.138755
0.108896
0.0928316
0.0834983
0.076261
0.0694632
0.0626561
0.0559478
0.294805
0.302363
0.313838
0.319259
0.30486
0.264599
0.207911
0.153435
0.116117
0.0961675
0.0850403
0.0771344
0.0703249
0.0637919
0.0572935
0.0509843
0.29118
0.30395
0.322921
0.339
0.335142
0.298466
0.235657
0.169675
0.123526
0.099698
0.086828
0.0780104
0.0709689
0.0646113
0.0584167
0.0522882
0.0463982
0.284594
0.301796
0.327559
0.355263
0.365642
0.336573
0.268319
0.187754
0.130514
0.102917
0.0886554
0.0788978
0.071436
0.0651581
0.0592246
0.0533827
0.0476498
0.0421971
0.275399
0.295934
0.327024
0.366182
0.394725
0.379426
0.307678
0.208192
0.136285
0.105224
0.0902241
0.079699
0.0717442
0.0654402
0.0597501
0.0541811
0.0487119
0.0433921
0.0383626
0.264113
0.286682
0.320983
0.369662
0.419179
0.427344
0.355992
0.231708
0.139694
0.105866
0.0911769
0.0802322
0.0718463
0.0654755
0.0599889
0.0547135
0.0494994
0.0444147
0.0394965
0.0348721
0.25136
0.27464
0.309669
0.364104
0.433603
0.478957
0.416668
0.258799
0.138824
0.103963
0.0910681
0.080264
0.0716333
0.0652541
0.0599524
0.0549618
0.0500405
0.0451832
0.0404734
0.0359447
0.031707
0.237804
0.260615
0.293955
0.349178
0.432615
0.523692
0.497618
0.290413
0.129845
0.0984828
0.0894025
0.0794992
0.0709591
0.0647207
0.0596435
0.0549316
0.0503143
0.0457298
0.0412202
0.0368783
0.0327206
0.0288375
0.224068
0.245497
0.275239
0.326145
0.413883
0.538412
0.603739
0.332929
0.109916
0.0874351
0.0858161
0.0775841
0.069663
0.0637959
0.0590384
0.0546321
0.0503255
0.0460335
0.041769
0.0376015
0.0336086
0.0297921
0.026244
0.210685
0.230109
0.25514
0.297851
0.378098
0.517955
0.626371
0.654978
0.487298
0.717663
0.572095
0.120049
0.272567
0.0924638
0.0711389
0.0716187
0.0796669
0.0743433
0.067591
0.0624081
0.0580913
0.0540542
0.0500864
0.046092
0.0420958
0.0381457
0.0343041
0.0306366
0.0271441
0.0238939
0.198076
0.215121
0.235103
0.267892
0.331141
0.457797
0.652447
0.617949
0.755631
0.670492
0.721876
0.594527
0.38807
0.366435
0.101564
0.104489
0.27856
0.0606237
0.0540937
0.070634
0.0700819
0.0591723
0.0701043
0.0647552
0.0605378
0.0567637
0.0531723
0.0496017
0.045917
0.0421923
0.0384868
0.0348417
0.0313083
0.0279439
0.0247414
0.0217732
0.186551
0.201029
0.21613
0.239092
0.282257
0.373523
0.57494
0.508548
0.766483
0.677906
0.70089
0.788538
0.760395
0.625587
0.530168
0.0667126
0.10526
0.0414099
0.0629997
0.0519007
0.0620246
0.0652893
0.0586627
0.05653
0.0617568
0.0582949
0.0550682
0.051971
0.0488773
0.0455205
0.042065
0.0386164
0.0351971
0.0318384
0.0285868
0.0255024
0.022571
0.0198504
0.176326
0.188172
0.198804
0.21307
0.238112
0.292326
0.434997
0.338412
0.643168
0.560283
0.816443
0.823836
0.779786
0.730481
0.735168
0.0426676
0.0512839
0.0340422
0.0513443
0.0570348
0.0602771
0.0594699
0.058126
0.0559151
0.0509923
0.0519957
0.0561667
0.0531214
0.0504823
0.0479414
0.0449204
0.0417255
0.0385353
0.0353572
0.0322039
0.0291064
0.0261227
0.0232921
0.0206025
0.0181129
0.167541
0.176772
0.183406
0.190464
0.201554
0.220514
0.237445
0.466357
0.361151
0.717577
0.641395
0.449255
0.545761
0.81056
0.779078
0.0447596
0.0464568
0.0532143
0.0532097
0.0572674
0.0578036
0.0547838
0.0555334
0.0563959
0.0536519
0.0537416
0.0479848
0.0486921
0.0513195
0.0487725
0.0468882
0.0441564
0.0411902
0.0382503
0.0353204
0.0323893
0.0294798
0.0266329
0.0238877
0.0212884
0.0188221
0.0165331
0.16028
0.166963
0.170055
0.171281
0.172177
0.168589
0.134493
0.0296308
-0.0390117
0.441297
0.291966
0.208449
0.2481
0.0510167
0.0513462
0.0551664
0.0552929
0.0561831
0.054472
0.0502174
0.0520406
0.0545395
0.0550824
0.0553608
0.0522552
0.0523145
0.0468892
0.0458916
0.0433176
0.0404977
0.0377798
0.0350923
0.0323915
0.0296888
0.0270123
0.0243891
0.0218615
0.019472
0.0172022
0.0151005
0.154584
0.158817
0.15878
0.155305
0.148651
0.133078
0.0803193
-0.202593
0.0663982
-0.231521
-0.290515
-0.404746
0.417308
0.12939
0.0258085
0.0540424
0.0543739
0.0552862
0.0548247
0.0534156
0.0506592
0.0450445
0.0480128
0.0514187
0.053475
0.0542152
0.0543915
0.054638
0.0450786
0.0425428
0.0397255
0.0371684
0.0346931
0.0322141
0.0297249
0.0272411
0.0247754
0.0223534
0.0200214
0.0178211
0.0157328
0.0137955
0.150464
0.152364
0.149555
0.142279
0.130035
0.107228
0.0499909
-0.156662
-0.818493
-0.687271
5.05736e-05
-0.476993
-0.659007
-0.583757
0.0546767
0.0543334
0.0530566
0.0522085
0.0499639
0.0458497
0.0443932
0.0424166
0.0480374
0.0503863
0.0514024
0.0530729
0.0537757
0.0419308
0.0389809
0.0364945
0.0341689
0.0318773
0.0295894
0.0273081
0.0250274
0.0227477
0.0205043
0.0183492
0.0163188
0.0143937
0.0126108
0.14791
0.147602
0.142322
0.131946
0.115601
0.0881415
0.0297345
-0.121736
-0.635523
-1.02689
-0.816226
-0.740329
-0.831421
0.0526276
0.0518923
0.0498134
0.0487375
0.0460001
0.0445412
0.0413162
0.0431375
0.0401255
0.046998
0.0481577
0.0501068
0.0510522
0.0383664
0.0358511
0.0335917
0.0314291
0.029302
0.0272106
0.0251306
0.0230263
0.0209047
0.0188177
0.0168207
0.0149521
0.0131773
0.0115301
0.146895
0.14451
0.137011
0.124061
0.104673
0.0743336
0.0169495
-0.101284
-0.466998
-0.756139
-0.911208
-0.919186
-0.818875
0.0494217
0.048477
0.0466913
0.0468145
0.0447265
0.041215
0.0378718
0.0396734
0.0428342
0.044465
0.0368131
0.0467383
0.0476895
0.0353052
0.0330385
0.0309423
0.0289107
0.0269606
0.0250759
0.0231729
0.0212055
0.0192141
0.0172717
0.015433
0.0137076
0.0120687
0.0105425
0.147385
0.143057
0.133552
0.118417
0.0966929
0.0645668
0.00956469
-0.0888386
-0.343463
-0.628808
-0.635105
-0.792802
-0.871349
-0.901061
-0.862684
0.0456853
0.047442
0.0448027
0.0441048
0.0407552
0.0381027
0.0348553
0.0366483
0.0392626
0.0418971
0.0426873
0.0333345
0.032571
0.0304832
0.0284958
0.0266
0.0248693
0.0231784
0.0213968
0.0195251
0.0176593
0.0158652
0.0141665
0.0125735
0.0110532
0.00964745
0.149334
0.143204
0.131879
0.114845
0.0912396
0.0579342
0.0055884
-0.0796239
-0.263159
-0.501099
-0.58921
-0.548778
-0.638317
-0.691761
-0.777989
-0.815767
-0.875322
0.0408487
0.0401128
0.0377928
0.035234
0.0321465
0.0338542
0.0363509
0.0387243
0.0393749
0.030082
0.0281325
0.0262021
0.0245348
0.0230457
0.0214751
0.0197426
0.0179686
0.0162377
0.0145814
0.0130095
0.0115362
0.0101345
0.00882513
0.152686
0.144905
0.131934
0.113213
0.0880033
0.0538219
0.00384877
-0.0717718
-0.210611
-0.400536
-0.519571
-0.533499
-0.505128
-0.543077
-0.57681
-0.621363
-0.652265
-0.67922
-0.712087
-0.778559
-0.81888
0.0379533
0.0372169
0.0349855
0.0325867
0.0297739
0.0299865
0.0336931
0.0358393
0.03649
0.0278433
0.0258592
0.0241147
0.0227902
0.0214508
0.0198634
0.0181872
0.0165373
0.0149405
0.013406
0.0119566
0.0105947
0.00928849
0.00807691
0.157376
0.148111
0.13367
0.113428
0.0867646
0.0518045
0.0037078
-0.0646507
-0.174913
-0.326156
-0.445682
-0.496293
-0.496685
-0.465504
-0.493365
-0.515161
-0.534331
-0.551331
-0.564949
-0.586968
-0.619214
-0.649371
-0.677136
-0.706472
0.0351178
0.034428
0.0328977
0.029998
0.0275774
0.0288585
0.0266316
0.0288708
0.0331702
0.0337511
0.0256447
0.023668
0.0224311
0.0213524
0.0198985
0.0183113
0.0167512
0.0152303
0.0137522
0.0123371
0.0109951
0.00972987
0.00851955
0.00738914
0.163323
0.152763
0.137043
0.115427
0.0873826
0.0515914
0.00478913
-0.0580617
-0.149587
-0.271993
-0.381898
-0.446911
-0.473995
-0.461342
-0.431904
-0.454767
-0.472847
-0.491529
-0.504192
-0.518943
-0.533407
-0.551453
-0.563052
-0.585319
0.0327179
0.0321038
0.0358234
0.0296957
0.0294119
0.0278587
0.0255125
0.0266591
0.0289019
0.0284363
0.0297931
0.023348
0.0219373
0.0212248
0.0198762
0.018346
0.0168722
0.01544
0.0140337
0.0126667
0.0113584
0.0101149
0.00894194
0.00781296
0.00676305
0.170426
0.158794
0.142018
0.11918
0.0897802
0.0530084
0.00687643
-0.051938
-0.130828
-0.23236
-0.330623
-0.399164
-0.439973
-0.448935
-0.429996
-0.40501
-0.424066
-0.437883
-0.453862
-0.471244
-0.485574
-0.508717
-0.496711
-0.517652
-0.531561
-0.548108
-0.556875
0.0325444
0.0294824
0.0292091
0.0279723
0.0273683
0.0258088
0.0233522
0.0245983
0.0268268
0.0262829
0.0287762
0.0283504
0.0295356
0.0211813
0.0211152
0.0198291
0.0183079
0.0169038
0.0155625
0.0142373
0.0129335
0.0116748
0.0104655
0.0093131
0.00822046
0.00716898
0.00618415
0.178559
0.166118
0.148563
0.124684
0.0939408
0.0559705
0.00986743
-0.0462179
-0.116463
-0.202903
-0.290168
-0.357672
-0.403611
-0.426879
-0.423036
-0.40399
-0.380408
-0.397522
-0.410426
-0.42346
-0.436472
-0.449737
-0.45725
-0.474389
-0.465359
-0.507117
-0.516061
0.0293101
0.0290934
0.0278372
0.0272615
0.0258868
0.0252767
0.0238469
0.0202508
0.0226702
0.0247828
0.0241928
0.0267465
0.026233
0.0286746
0.0282791
0.0210038
0.0197875
0.0182146
0.0168595
0.0156004
0.0143576
0.013127
0.0119292
0.0107692
0.00965121
0.00857759
0.00755926
0.00657282
0.00565516
0.187562
0.174628
0.156637
0.131961
0.0999027
0.0604774
0.0137402
-0.0408173
-0.10522
-0.180738
-0.258366
-0.322877
-0.370044
-0.400076
-0.408959
-0.399484
-0.380276
-0.359642
-0.373693
-0.385238
-0.396576
-0.409175
-0.418952
-0.426243
-0.438615
-0.433227
0.0277562
0.0272096
0.0257406
0.0251713
0.0238784
0.0232526
0.0211923
0.0207943
0.0192787
0.0230018
0.0223748
0.0246987
0.0241581
0.0266643
0.0261774
0.0197492
0.018081
0.016756
0.0155663
0.0143982
0.0132405
0.0121096
0.0110107
0.00994309
0.00890522
0.00790502
0.00695084
0.00602924
0.00516387
0.197235
0.184183
0.16619
0.141051
0.107761
0.0666061
0.018536
-0.0356416
-0.0963174
-0.163996
-0.233479
-0.294139
-0.340851
-0.373494
-0.389929
-0.390109
-0.377698
-0.359745
-0.340917
-0.353851
-0.363608
-0.372748
-0.384303
-0.392673
-0.398923
-0.411344
-0.40488
-0.418122
-0.425171
-0.435155
-0.432163
0.025656
0.0251233
0.0236974
0.0231503
0.0220293
0.020809
0.0206124
0.0195838
0.0203464
0.0180089
0.0204145
0.0228535
0.0224899
0.0246217
0.0241092
0.0179215
0.016607
0.0154782
0.0143704
0.0132787
0.012211
0.011178
0.010175
0.00919272
0.00822606
0.00728772
0.00639124
0.00552314
0.00471231
0.207328
0.1946
0.177141
0.152006
0.11766
0.0745224
0.0243662
-0.0305907
-0.0892735
-0.15144
-0.214217
-0.270683
-0.316051
-0.349449
-0.369701
-0.376603
-0.371616
-0.358154
-0.341568
-0.324174
-0.332783
-0.344203
-0.353271
-0.362839
-0.369035
-0.375101
-0.386286
-0.380515
-0.39205
-0.398075
-0.410357
-0.404254
0.0236037
0.0230877
0.0221303
0.0230995
0.0207624
0.0205848
0.0194482
0.0177388
0.0187822
0.0201197
0.0198815
0.0155414
0.0225939
0.0226865
0.022378
0.0164284
0.0153461
0.0142908
0.0132546
0.0122389
0.0112652
0.0103327
0.00942214
0.00850877
0.00760004
0.00671335
0.00587289
0.00505811
0.00429412
0.217536
0.205638
0.189374
0.164875
0.129801
0.0844785
0.0314195
-0.0255567
-0.0838179
-0.142287
-0.199622
-0.251861
-0.295253
-0.328476
-0.350585
-0.361426
-0.362146
-0.354124
-0.3405
-0.324708
-0.322474
-0.309002
-0.33725
-0.343504
-0.350116
-0.354961
-0.364569
-0.359607
-0.368311
-0.375259
-0.385359
-0.380027
0.021665
0.022916
0.0210972
0.0204564
0.0194288
0.0191014
0.0178762
0.0162324
0.0171766
0.0187446
0.0184696
0.0200113
0.0197321
0.0125774
0.0151741
0.0141692
0.0131824
0.0122101
0.0112786
0.0104066
0.00957641
0.00873963
0.00787939
0.00701627
0.00618484
0.00539492
0.00462783
0.00390818
0.227499
0.216991
0.202704
0.17969
0.144437
0.0968375
0.0399857
-0.0204055
-0.079839
-0.136095
-0.189017
-0.237159
-0.278107
-0.310496
-0.3334
-0.346516
-0.350863
-0.347493
-0.337792
-0.324183
-0.309581
-0.307752
-0.317773
-0.326103
-0.295888
-0.335342
-0.344748
-0.339099
-0.349539
-0.354311
-0.364731
-0.359105
-0.366058
0.0193739
0.0190344
0.0180045
0.0175905
0.0163973
0.0149635
0.0157429
0.0172181
0.0169175
0.0187098
0.0184394
0.0140055
0.0130693
0.0121426
0.0112358
0.0103979
0.00964391
0.00890198
0.00811503
0.00729197
0.00647564
0.00569319
0.00495151
0.00423033
0.00355192
0.236806
0.228272
0.216853
0.19642
0.161859
0.112098
0.0504823
-0.0149589
-0.07737
-0.132715
-0.181986
-0.226175
-0.264344
-0.295352
-0.318309
-0.332743
-0.339339
-0.339178
-0.333152
-0.322491
-0.309406
-0.29625
-0.295032
-0.303826
-0.309996
-0.316035
-0.319349
-0.323058
-0.327039
-0.282957
-0.331717
-0.336288
-0.341674
-0.344513
-0.348959
-0.353582
-0.363545
-0.358387
0.017974
0.0175407
0.0165049
0.0161155
0.0150817
0.0137971
0.0144761
0.0157738
0.0155009
0.0171749
0.0168845
0.0129142
0.0120449
0.0111603
0.0103258
0.00962132
0.00898194
0.00829454
0.0075289
0.00673753
0.00596902
0.00523674
0.00454442
0.00386358
0.00322521
0.245013
0.239009
0.231412
0.214924
0.182371
0.130917
0.0635267
-0.00896983
-0.0765977
-0.132262
-0.178348
-0.21863
-0.253748
-0.282917
-0.305311
-0.320375
-0.328416
-0.330353
-0.327057
-0.319309
-0.308351
-0.296119
-0.283471
-0.282077
-0.290689
-0.297314
-0.30169
-0.305154
-0.308559
-0.310606
-0.270774
-0.340588
-0.343854
0.0164528
0.0160553
0.0151562
0.0148054
0.0138905
0.0127124
0.0133232
0.0145058
0.0142386
0.0157207
0.0154576
0.0119053
0.0110715
0.0102186
0.00951575
0.00896954
0.00840663
0.00771942
0.0069639
0.00621558
0.00549913
0.00481927
0.00416679
0.003526
0.00292512
0.251672
0.248652
0.245803
0.234894
0.20623
0.154145
0.080014
-0.00207145
-0.077954
-0.135139
-0.17815
-0.214368
-0.246155
-0.273085
-0.294388
-0.309491
-0.318409
-0.321764
-0.320352
-0.3149
-0.306177
-0.295381
-0.283566
-0.271441
-0.269812
-0.278049
-0.28426
-0.288512
-0.291877
-0.295001
-0.298185
-0.30136
-0.304773
-0.307826
-0.308488
-0.260148
0.0150952
0.0147447
0.0139519
0.0136161
0.0127955
0.0117097
0.0122518
0.0133471
0.0131023
0.0144509
0.0141963
0.010959
0.0101112
0.00934993
0.00885873
0.00844616
0.00786017
0.00714797
0.00642317
0.00572847
0.00506707
0.00443051
0.00381897
0.00321676
0.00265115
0.256379
0.256609
0.259235
0.255735
0.233551
0.182772
0.101296
0.00631334
-0.0822347
-0.142132
-0.181652
-0.213369
-0.241465
-0.26577
-0.285514
-0.300127
-0.309427
-0.313735
-0.313654
-0.309859
-0.303011
-0.293851
-0.283172
-0.271739
-0.260631
-0.259435
-0.26639
-0.271727
-0.276078
-0.279236
-0.282053
-0.285094
-0.288266
-0.291588
-0.294499
-0.297501
-0.24978
0.0138896
0.0135526
0.0128354
0.0125369
0.0117817
0.0107788
0.0112574
0.0122732
0.0120461
0.0132944
0.0130637
0.0100255
0.00917298
0.00864178
0.00840983
0.0079539
0.00728603
0.00658477
0.00591595
0.00527956
0.00466665
0.00407383
0.00350166
0.00293323
0.002403
0.258825
0.262306
0.27072
0.276351
0.264193
0.21786
0.129356
0.0171181
-0.0908411
-0.154551
-0.189357
-0.215728
-0.239649
-0.260914
-0.278661
-0.292308
-0.301532
-0.306396
-0.307266
-0.304684
-0.299254
-0.29157
-0.282175
-0.271642
-0.260892
-0.250301
-0.249027
-0.255668
-0.261317
-0.264725
-0.267428
-0.26951
-0.272779
-0.275888
-0.278902
-0.281578
-0.284424
-0.239771
0.0127705
0.0124752
0.0118095
0.0115286
0.0108383
0.00989192
0.0103164
0.0112838
0.0110603
0.0122216
0.0120106
0.00908702
0.00830281
0.00829319
0.00801227
0.00738154
0.00669645
0.00605314
0.00544611
0.00486426
0.00430034
0.00374857
0.00321043
0.00267571
0.00217395
0.26529
0.279189
0.294934
0.297204
0.261005
0.166715
0.0314307
-0.106271
-0.174417
-0.202038
-0.221656
-0.240745
-0.258487
-0.273797
-0.28604
-0.294768
-0.299815
-0.301321
-0.299646
-0.295289
-0.288783
-0.280582
-0.271073
-0.260904
-0.250639
-0.240398
-0.238968
-0.245669
-0.250705
-0.252763
-0.256404
-0.259313
-0.262037
-0.264523
-0.26772
-0.268854
-0.272809
-0.230708
0.0117424
0.0114678
0.0108526
0.0105877
0.00994482
0.00911739
0.00939668
0.0103504
0.0101252
0.0112369
0.0110254
0.00788746
0.00805906
0.00805223
0.00744018
0.00675903
0.00613715
0.00555868
0.00501222
0.00448584
0.00396684
0.00345052
0.00294351
0.0024391
0.00196844
0.2837
0.309203
0.3295
0.314483
0.217216
0.0491271
-0.133334
-0.204616
-0.220775
-0.231486
-0.24486
-0.258494
-0.270892
-0.281316
-0.289162
-0.294043
-0.295887
-0.29487
-0.291346
-0.285765
-0.27855
-0.270027
-0.260605
-0.250784
-0.240854
-0.231275
-0.230005
-0.235776
-0.240767
-0.24512
-0.249905
-0.254683
-0.25639
-0.258908
-0.261574
-0.264054
-0.267074
-0.267455
-0.222166
0.0107893
0.010527
0.00994439
0.00968281
0.00914034
0.00765599
0.00864618
0.00944309
0.00919499
0.0103076
0.0100979
0.00757856
0.00810154
0.00746374
0.0067761
0.00617063
0.00561463
0.00510137
0.00461858
0.0041441
0.00366119
0.00317577
0.00270138
0.00222425
0.317
0.355984
0.374596
0.29151
0.0717913
-0.180176
-0.250027
-0.246705
-0.245709
-0.252161
-0.260962
-0.26992
-0.278114
-0.284721
-0.289116
-0.291017
-0.290424
-0.28754
-0.282702
-0.276284
-0.268602
-0.259955
-0.250699
-0.241146
-0.231718
-0.222686
-0.221482
-0.227195
-0.23154
-0.235129
-0.240249
-0.243477
-0.24598
-0.250851
-0.248222
-0.253972
-0.256028
-0.258601
-0.261145
-0.213814
0.00987408
0.00962638
0.00906858
0.0088123
0.00837727
0.00683897
0.00730863
0.00866594
0.00837321
0.0094063
0.00917743
0.0081607
0.00745191
0.00674658
0.00616266
0.00561774
0.00512568
0.00468805
0.00426802
0.00383188
0.0033829
0.00292879
0.00247765
0.371266
0.425435
0.402906
0.114362
-0.254641
-0.319324
-0.280578
-0.264935
-0.262865
-0.265923
-0.270845
-0.2764
-0.281435
-0.285051
-0.286748
-0.286356
-0.283933
-0.279694
-0.273933
-0.266947
-0.258998
-0.250354
-0.24126
-0.232063
-0.223116
-0.214359
-0.213142
-0.218662
-0.222933
-0.226747
-0.231147
-0.233443
-0.236437
-0.24088
-0.238571
-0.205824
0.00898418
0.00875263
0.00832788
0.00803589
0.00572134
0.00808628
0.00757689
0.00807646
0.00827709
0.0086009
0.00834123
0.0074016
0.00666564
0.00612366
0.00558138
0.00508716
0.00468717
0.00432793
0.0039512
0.00354988
0.00312926
0.00270053
0.00227332
0.458001
0.460642
0.515895
0.269037
0.369146
0.524611
-0.234949
0.0464067
-0.293297
-0.406752
-0.429512
-0.322964
-0.28928
-0.277203
-0.273359
-0.273615
-0.276121
-0.279276
-0.281844
-0.283101
-0.282703
-0.280568
-0.276791
-0.271578
-0.265178
-0.257829
-0.249763
-0.241172
-0.232305
-0.223491
-0.214839
-0.206411
-0.205148
-0.210488
-0.214559
-0.218171
-0.222365
-0.225266
-0.227443
-0.231986
-0.229601
-0.23233
-0.198472
0.00811894
0.00789733
0.00412813
0.00804947
0.00776553
0.0072577
0.00756763
0.00773081
0.00750538
0.00766055
0.00857508
0.00654105
0.00606146
0.00552463
0.00499741
0.00461249
0.00431845
0.00400963
0.00366493
0.00329011
0.00289453
0.00249159
0.549319
0.568047
0.584378
0.468521
0.22772
0.191445
-0.235055
-0.214569
-0.0100986
-0.506196
-0.34383
-0.442061
-0.368768
-0.442233
-0.316637
-0.29497
-0.28307
-0.278119
-0.277206
-0.278198
-0.279475
-0.280079
-0.279489
-0.27748
-0.274032
-0.269263
-0.263363
-0.256534
-0.248982
-0.240882
-0.23241
-0.223815
-0.215282
-0.206937
-0.199012
-0.197854
-0.202594
-0.206554
-0.210076
-0.214031
-0.216782
-0.218876
-0.222976
-0.220885
-0.224962
-0.227094
-0.231514
-0.229163
-0.19154
0.00156521
0.00745905
0.00749515
0.00712166
0.00638377
0.00682802
0.00737542
0.00734152
0.00598455
0.00545991
0.00488334
0.00446275
0.00423867
0.00400288
0.00372147
0.00340126
0.00305191
0.0026859
0.638201
0.666608
0.62686
0.557836
0.29636
0.276926
0.527403
-0.00214252
-0.253736
-0.149013
-0.551389
-0.482336
-0.49687
-0.40601
-0.341051
-0.389215
-0.453352
-0.313355
-0.294451
-0.284063
-0.279551
-0.278133
-0.277906
-0.277667
-0.276721
-0.274693
-0.271447
-0.267021
-0.261541
-0.255167
-0.248073
-0.240422
-0.232358
-0.224056
-0.215698
-0.207441
-0.19952
-0.191998
-0.190754
-0.195403
-0.19904
-0.202146
-0.206123
-0.208724
-0.210741
-0.214636
-0.212615
-0.216517
-0.21856
-0.222637
-0.220618
-0.184728
0.0071324
0.00697855
0.00638696
0.00585901
0.00610105
0.00681649
0.00668248
0.0054408
0.00474132
0.00426745
0.0040839
0.0039351
0.00371705
0.00345507
0.00315978
0.0028425
0.664598
0.701896
0.740127
0.72606
0.627934
0.396995
0.217859
-0.516805
-0.520518
-0.515823
-0.419699
-0.368788
-0.3255
-0.354942
-0.393221
-0.460605
-0.478914
-0.305432
-0.290824
-0.282931
-0.278992
-0.277078
-0.275839
-0.274395
-0.27222
-0.269061
-0.264877
-0.259738
-0.253759
-0.247077
-0.239833
-0.232158
-0.224186
-0.216065
-0.207938
-0.200028
-0.192469
-0.185192
-0.184113
-0.187008
-0.191683
-0.195091
-0.198639
-0.200766
-0.202876
-0.206713
-0.204757
-0.208455
-0.210415
-0.214306
-0.212361
-0.178159
0.00643391
0.00623139
0.0057879
0.0055232
0.00555736
0.00608029
0.00596195
0.00455824
0.00410002
0.0038488
0.00381222
0.00365721
0.00344955
0.00320913
0.00294652
0.654394
0.707029
0.773273
0.754543
0.600412
-0.436754
-0.423842
-0.377295
-0.338137
-0.312023
-0.32864
-0.358668
-0.400568
-0.396878
-0.297171
-0.286868
-0.280626
-0.276918
-0.274548
-0.272495
-0.270066
-0.266889
-0.262853
-0.257978
-0.252332
-0.246017
-0.239147
-0.231835
-0.224197
-0.21635
-0.208409
-0.20056
-0.192973
-0.185686
-0.178664
-0.183097
-0.177566
-0.188995
-0.191538
-0.193905
-0.195672
-0.199176
-0.197421
-0.200423
-0.202943
-0.206364
-0.204543
-0.171993
0.00578741
0.00562716
0.00533247
0.00504281
0.00513949
0.0055093
0.00540853
0.00325094
0.00368567
0.00361142
0.00355643
0.00339049
0.00319774
0.00299115
-0.385273
-0.374932
-0.341183
-0.318792
-0.301382
-0.312276
-0.330457
-0.355715
-0.364195
-0.401881
-0.390186
-0.290612
-0.282749
-0.277339
-0.273744
-0.270996
-0.268233
-0.264943
-0.260965
-0.256277
-0.250905
-0.244912
-0.238382
-0.23141
-0.224094
-0.216534
-0.208824
-0.201098
-0.193523
-0.186208
-0.179172
-0.172497
-0.176843
-0.181071
-0.184396
-0.171402
-0.186685
-0.188943
-0.192027
-0.190334
-0.193631
-0.19541
-0.199258
-0.197204
-0.199436
-0.166194
0.00529012
0.00515936
0.00492314
-0.000293202
0.00458954
0.00759607
0.00506705
0.00499208
0.00366229
0.00204553
0.00337654
0.00340605
0.0032968
0.00313471
0.0029725
-0.385483
-0.375465
-0.34607
-0.33945
-0.320587
-0.305947
-0.293445
-0.301244
-0.313608
-0.328832
-0.33395
-0.356484
-0.364706
-0.284962
-0.278224
-0.273385
-0.26988
-0.266724
-0.263234
-0.259224
-0.254649
-0.249493
-0.243776
-0.237552
-0.230896
-0.223888
-0.216613
-0.209154
-0.201607
-0.194109
-0.186782
-0.179711
-0.172985
-0.166637
-0.170732
-0.17477
-0.177913
-0.179991
-0.181734
-0.18327
-0.184975
-0.1875
-0.165693
-0.188532
-0.191782
-0.190081
-0.193364
-0.195099
-0.198768
-0.196872
-0.160457
0.00488767
0.00475814
0.00515631
0.00451521
0.00419913
0.00266625
0.00304884
0.00324995
0.00310571
0.00319481
0.00318025
0.00303586
0.0028954
-0.346522
-0.340033
-0.323578
-0.319494
-0.307222
-0.296886
-0.286953
-0.29316
-0.302325
-0.312697
-0.31605
-0.329342
-0.334282
-0.279482
-0.273436
-0.26915
-0.265566
-0.261784
-0.257647
-0.253109
-0.248108
-0.242621
-0.236671
-0.230305
-0.223588
-0.216592
-0.209388
-0.202052
-0.194689
-0.187405
-0.180311
-0.17351
-0.167085
-0.160906
-0.165094
-0.168874
-0.17157
-0.173999
-0.175316
-0.176735
-0.178253
-0.186954
-0.159945
-0.188269
-0.1915
-0.189868
-0.154863
0.0066946
8.772e-05
0.00408957
0.00397234
0.001656
0.00275843
0.00299688
0.0030107
0.00293078
0.0028603
0.00302451
0.00292227
0.00277422
-0.323894
-0.319922
-0.30934
-0.306584
-0.297845
-0.28982
-0.28105
-0.286539
-0.294079
-0.301817
-0.3042
-0.313124
-0.316343
-0.273946
-0.268811
-0.264833
-0.260642
-0.256261
-0.251675
-0.246765
-0.24146
-0.235747
-0.229647
-0.223205
-0.216476
-0.209524
-0.202413
-0.195223
-0.18804
-0.180968
-0.174111
-0.167586
-0.161355
-0.155323
-0.159313
-0.163079
-0.166007
-0.167888
-0.169382
-0.170861
-0.171854
-0.154366
-0.149486
0.00268148
0.00420547
0.00239217
0.00248002
0.00281294
0.00288669
0.0028501
0.0027941
0.002786
0.0026205
0.0026118
0.00280016
0.00264345
-0.309637
-0.306963
-0.299489
-0.297454
-0.290594
-0.283723
-0.275083
-0.280589
-0.287378
-0.293782
-0.295656
-0.302204
-0.304488
-0.268841
-0.264645
-0.259895
-0.255123
-0.250379
-0.245483
-0.240306
-0.234791
-0.22893
-0.222744
-0.216272
-0.209565
-0.202681
-0.195686
-0.188648
-0.181648
-0.174783
-0.168173
-0.161857
-0.155789
-0.149962
-0.153798
-0.157391
-0.160205
-0.162072
-0.163552
-0.16496
-0.166372
-0.167697
-0.169175
-0.170491
-0.170919
-0.148954
-0.144425
0.00234992
0.00243206
0.00237564
0.00266271
0.0026678
0.00275552
0.00274535
0.00265371
0.00261488
0.00268531
0.00268124
0.00268324
0.00250904
0.00246164
0.00252662
-0.299782
-0.297815
-0.291996
-0.290319
-0.284384
-0.277884
-0.269335
-0.274471
-0.281432
-0.28717
-0.288817
-0.294158
-0.295946
-0.265091
-0.259657
-0.254322
-0.249289
-0.244303
-0.23918
-0.233817
-0.228164
-0.222214
-0.215986
-0.209517
-0.202857
-0.196063
-0.189193
-0.182312
-0.175496
-0.168848
-0.162447
-0.156304
-0.150433
-0.144868
-0.148362
-0.151941
-0.154659
-0.156428
-0.157865
-0.159197
-0.160571
-0.161911
-0.163385
-0.164709
-0.166066
-0.143948
-0.139511
0.00218162
0.00222403
0.00256735
0.0025943
0.00267316
0.00264871
0.00262124
0.0025639
0.00241986
0.00240289
0.00251442
0.00258479
0.0026265
0.00261646
0.00261355
0.00241153
0.00233506
-0.292288
-0.290676
-0.285664
-0.284116
-0.278697
-0.271028
-0.266031
-0.269996
-0.275551
-0.281184
-0.282796
-0.287543
-0.289105
-0.259995
-0.253975
-0.248517
-0.243298
-0.238127
-0.232846
-0.227362
-0.221624
-0.215625
-0.209385
-0.202944
-0.196351
-0.18966
-0.182924
-0.176204
-0.169577
-0.163126
-0.156903
-0.150951
-0.145315
-0.139935
-0.143427
-0.146571
-0.149216
-0.150996
-0.15239
-0.153656
-0.154997
-0.156268
-0.157696
-0.158959
-0.160273
-0.13905
-0.134692
0.00248701
0.0025315
0.00261165
0.00259254
0.0025589
0.00251182
0.00243828
0.00236364
0.00231508
0.00241227
0.00247192
0.00253043
0.00256784
0.00255991
0.00256107
-0.285944
-0.284472
-0.279903
-0.278371
-0.270809
-0.26813
-0.260748
-0.265458
-0.271064
-0.275649
-0.277319
-0.281541
-0.283051
-0.254173
-0.248206
-0.242578
-0.237226
-0.231924
-0.226546
-0.220986
-0.215197
-0.209176
-0.202947
-0.196552
-0.190041
-0.183464
-0.17687
-0.170315
-0.163869
-0.157594
-0.151555
-0.145817
-0.140367
-0.135118
-0.138507
-0.141693
-0.14421
-0.145797
-0.146899
-0.14826
-0.149573
-0.150817
-0.1522
-0.153418
-0.1547
-0.134236
-0.130028
0.00256047
0.00254933
0.00250106
0.00246069
0.00238239
0.00232006
0.00223013
0.00220704
0.00227898
0.00236412
0.00241435
0.00248349
0.00252096
-0.280091
-0.278697
-0.273642
-0.26897
-0.268845
-0.262594
-0.254888
-0.25996
-0.265922
-0.27132
-0.272685
-0.276672
-0.277595
-0.248446
-0.242303
-0.236583
-0.231134
-0.225761
-0.220323
-0.214717
-0.2089
-0.202873
-0.19667
-0.190337
-0.183922
-0.17747
-0.171022
-0.164631
-0.158352
-0.152252
-0.14641
-0.140857
-0.135555
-0.130454
-0.133703
-0.136738
-0.13925
-0.140807
-0.142072
-0.143309
-0.144557
-0.145811
-0.146746
-0.148227
-0.149294
-0.12958
-0.12555
0.00245268
0.00241984
0.00231963
0.00227628
0.00217853
0.00209432
0.00216065
0.00221694
0.00232143
0.00236932
-0.276666
-0.266486
-0.269719
-0.268507
-0.263105
-0.257035
-0.249162
-0.254315
-0.260459
-0.265695
-0.266913
-0.27189
-0.276042
-0.242612
-0.236324
-0.230591
-0.225093
-0.219682
-0.214206
-0.208569
-0.202734
-0.196713
-0.190552
-0.184298
-0.177991
-0.171669
-0.165369
-0.159134
-0.15302
-0.147103
-0.141441
-0.136047
-0.130892
-0.125976
-0.129086
-0.132066
-0.134407
-0.135392
-0.137013
-0.138307
-0.139547
-0.140648
-0.141912
-0.143092
-0.144356
-0.145485
-0.146078
-0.125088
-0.121281
0.00226321
0.00224214
0.00211763
0.00205104
0.00212105
0.00217077
-0.262987
-0.270115
-0.268713
-0.264175
-0.262935
-0.257633
-0.251411
-0.24266
-0.248583
-0.254892
-0.26026
-0.261568
-0.265982
-0.267251
-0.271622
-0.275636
-0.236674
-0.230389
-0.224664
-0.219141
-0.213707
-0.208209
-0.202545
-0.196693
-0.190693
-0.184593
-0.178433
-0.172242
-0.166054
-0.159899
-0.153819
-0.147874
-0.142128
-0.136629
-0.131385
-0.126408
-0.12168
-0.12458
-0.127513
-0.129798
-0.131731
-0.133947
-0.136037
-0.136973
-0.138122
-0.139328
-0.140458
-0.141701
-0.142903
-0.144078
-0.120857
-0.117113
0.0020671
0.00201821
-0.270303
-0.268938
-0.264538
-0.263256
-0.258766
-0.257423
-0.252054
-0.245297
-0.237449
-0.238035
-0.249397
-0.254657
-0.256041
-0.260583
-0.261903
-0.266274
-0.26753
-0.230633
-0.224581
-0.218816
-0.21329
-0.20786
-0.202334
-0.196628
-0.19077
-0.184815
-0.178795
-0.172738
-0.16667
-0.160616
-0.154606
-0.14868
-0.142897
-0.137313
-0.131967
-0.126893
-0.122093
-0.117502
-0.120391
-0.123091
-0.12523
-0.127232
-0.129449
-0.130938
-0.132103
-0.134393
-0.133172
-0.135776
-0.136791
-0.137955
-0.139125
-0.116692
-0.113032
-0.264838
-0.263554
-0.259106
-0.257745
-0.253167
-0.251781
-0.246181
-0.237994
-0.231209
-0.248219
-0.249042
-0.250433
-0.254966
-0.256348
-0.26089
-0.262185
-0.22492
-0.218821
-0.213049
-0.207582
-0.202147
-0.196545
-0.1908
-0.184971
-0.179084
-0.173157
-0.167211
-0.161267
-0.155348
-0.149482
-0.143709
-0.138082
-0.132649
-0.127468
-0.12256
-0.117904
-0.113419
-0.116202
-0.118903
-0.121035
-0.122848
-0.124895
-0.126398
-0.127536
-0.129728
-0.128597
-0.112619
-0.109077
-0.25939
-0.258038
-0.253473
-0.252078
-0.246942
-0.242591
-0.240658
-0.231777