/*--------------------------------*- C++ -*----------------------------------*\
| =========                 |                                                 |
| \\      /  F ield         | OpenFOAM: The Open Source CFD Toolbox           |
|  \\    /   O peration     | Version:  v1912                                 |
|   \\  /    A nd           | Website:  www.openfoam.com                      |
|    \\/     M anipulation  |                                                 |
\*---------------------------------------------------------------------------*/
FoamFile
{
    version     2.0;
    format      ascii;
    class       volVectorField;
    location    "390";
    object      U;
}
// * * * * * * * * * * * * * * * * * * * * * * * * * * * * * * * * * * * * * //

dimensions      [0 1 -1 0 0 0 0];


internalField   nonuniform List<vector> 
3673
(
(0.648252 -0.0256032 -1.62728e-21)
(0.974711 -0.0153508 -5.27349e-20)
(0.298421 -0.0525781 -3.77712e-24)
(1.01654 -0.0104871 2.46044e-20)
(0.766169 -0.0576125 -2.31439e-24)
(0.175617 -0.0543998 1.97376e-20)
(1.00675 -0.0139513 -1.92107e-37)
(0.961692 -0.0542436 1.54021e-24)
(0.569264 -0.0968215 -1.80515e-20)
(0.124975 -0.0463077 2.42617e-20)
(0.999506 -0.0165441 -2.65054e-41)
(1.00912 -0.0524727 0)
(0.844239 -0.104178 -2.37022e-20)
(0.436889 -0.110747 -2.3997e-20)
(0.108536 -0.0401118 2.83181e-20)
(0.99759 -0.0171337 -4.09882e-24)
(1.00896 -0.0523041 -7.01439e-24)
(0.969673 -0.100892 4.81822e-20)
(0.721084 -0.138604 2.52631e-20)
(0.365853 -0.111192 0)
(0.10526 -0.037582 -3.11118e-20)
(0.997509 -0.016764 -3.76308e-51)
(1.00227 -0.0524219 1.80653e-20)
(1.00443 -0.097089 -2.58574e-20)
(0.89913 -0.145293 -2.22009e-20)
(0.62693 -0.156977 2.82623e-20)
(0.333695 -0.109614 3.38247e-20)
(0.105992 -0.036923 0)
(0.997707 -0.0159231 0)
(0.998154 -0.0518058 1.79318e-21)
(1.0048 -0.0945639 0)
(0.976899 -0.143966 7.03743e-24)
(0.825576 -0.178429 3.78718e-21)
(0.568332 -0.166094 0)
(0.321222 -0.108854 0)
(0.108078 -0.0369925 0)
(0.997859 -0.014748 2.29087e-20)
(0.996152 -0.0501042 -2.0153e-20)
(0.998428 -0.0923511 0)
(0.997232 -0.140817 1.74069e-20)
(0.936874 -0.185218 -2.61342e-20)
(0.767337 -0.200827 0)
(0.53675 -0.170581 -7.36156e-24)
(0.318018 -0.108792 0)
(0.110284 -0.0372597 0)
(0.99797 -0.013265 -2.30306e-20)
(0.994865 -0.0473563 0)
(0.993022 -0.0895216 2.03159e-23)
(0.995593 -0.137606 -1.74512e-20)
(0.981134 -0.185481 0)
(0.89796 -0.217881 1.34909e-23)
(0.728546 -0.214835 6.70804e-24)
(0.521841 -0.172562 -3.08336e-20)
(0.318687 -0.108883 3.39533e-20)
(0.111955 -0.037501 -6.81329e-24)
(0.998079 -0.0114581 0)
(0.993639 -0.0436051 0)
(0.988836 -0.0856054 -2.26387e-23)
(0.98891 -0.134216 -4.15513e-23)
(0.990191 -0.183764 -3.61019e-23)
(0.962792 -0.224541 0)
(0.867814 -0.24139 -1.41259e-23)
(0.705774 -0.222493 2.7184e-20)
(0.515927 -0.173017 5.44836e-22)
(0.320353 -0.108864 -3.21491e-20)
(0.112951 -0.0376436 1.32195e-23)
(0.99821 -0.00931265 -2.54397e-23)
(0.992325 -0.0388101 0)
(0.984929 -0.080308 0)
(0.981892 -0.13005 2.35774e-23)
(0.985934 -0.181645 2.13081e-23)
(0.984905 -0.226823 1.8231e-23)
(0.947677 -0.25539 0)
(0.847861 -0.256185 0)
(0.693593 -0.22563 7.92901e-22)
(0.514056 -0.172612 -4.11686e-22)
(0.321731 -0.108687 0)
(0.11335 -0.0376629 -6.40572e-24)
(0.998372 -0.00683631 0)
(0.990961 -0.032905 -2.80273e-20)
(0.980781 -0.073346 0)
(0.974666 -0.124471 0)
(0.977711 -0.179101 0)
(0.986402 -0.228021 -2.21582e-20)
(0.982609 -0.262999 0)
(0.937946 -0.2766 1.28591e-23)
(0.835826 -0.263741 1.11492e-21)
(0.687301 -0.226096 2.45063e-20)
(0.513581 -0.171812 -2.59612e-20)
(0.322397 -0.108317 0)
(0.113223 -0.0375575 0)
(0.998575 -0.0040687 2.77781e-20)
(0.989642 -0.0258583 2.81073e-20)
(0.976308 -0.0644327 1.94863e-24)
(0.966603 -0.11684 0)
(0.967654 -0.175496 2.92173e-20)
(0.979613 -0.229197 2.24229e-20)
(0.992219 -0.268737 3.94905e-23)
(0.984234 -0.289207 -1.36011e-23)
(0.932499 -0.288643 -3.70573e-20)
(0.828605 -0.266548 0)
(0.683905 -0.225309 4.61461e-20)
(0.513276 -0.170774 0)
(0.322227 -0.107738 0)
(0.112676 -0.0373498 1.00396e-23)
(0.998823 -0.00108982 -5.58848e-20)
(0.988508 -0.0177212 -2.86449e-23)
(0.971686 -0.0533227 3.16331e-20)
(0.957393 -0.106482 3.31652e-20)
(0.955425 -0.169954 -2.95563e-20)
(0.968666 -0.230205 0)
(0.990021 -0.274931 0)
(1.00318 -0.299048 1.71094e-20)
(0.987951 -0.304745 1.23761e-20)
(0.929188 -0.294243 1.13848e-20)
(0.824087 -0.266882 -2.11794e-20)
(0.681797 -0.223928 5.01911e-24)
(0.512575 -0.169541 -2.22427e-20)
(0.321252 -0.10698 -2.37556e-20)
(0.111807 -0.0370646 -8.87816e-25)
(0.999119 0.00197812 2.81267e-20)
(0.987731 -0.00866738 3.01996e-20)
(0.967276 -0.0398807 -3.1531e-20)
(0.947157 -0.0926825 -6.87206e-20)
(0.940392 -0.16139 -6.7174e-23)
(0.953692 -0.230331 5.83976e-23)
(0.981755 -0.282403 0)
(1.00846 -0.309398 -1.67879e-20)
(1.01573 -0.316904 1.36546e-20)
(0.991216 -0.312555 -1.09286e-20)
(0.92693 -0.296312 0)
(0.821142 -0.265954 -1.98051e-20)
(0.680068 -0.222212 1.95991e-20)
(0.511211 -0.168166 2.01438e-20)
(0.319583 -0.106102 1.00809e-23)
(0.110727 -0.0367234 -9.27605e-24)
(0.999457 0.00497584 5.52974e-23)
(0.987499 0.00097652 -3.00396e-20)
(0.963615 -0.0241844 1.35265e-22)
(0.93643 -0.0747546 -2.0869e-21)
(0.922255 -0.148444 0)
(0.933559 -0.228474 -3.87973e-20)
(0.96821 -0.291292 -5.72128e-23)
(1.00717 -0.321997 3.3097e-23)
(1.02902 -0.328656 -1.34127e-20)
(1.02575 -0.325841 0)
(0.993489 -0.316156 0)
(0.92548 -0.296445 9.14993e-21)
(0.818956 -0.264317 -1.81758e-20)
(0.678155 -0.22034 1.311e-23)
(0.509157 -0.166725 0)
(0.317383 -0.105132 -1.01117e-23)
(0.109503 -0.0363434 0)
(0.999823 0.00772406 0)
(0.987969 0.0107273 -5.73844e-23)
(0.961377 -0.00664652 -3.33302e-20)
(0.926249 -0.0521866 7.58197e-20)
(0.901214 -0.129372 -9.15636e-24)
(0.906909 -0.223038 3.97418e-20)
(0.94795 -0.301502 0)
(1.0014 -0.337925 0)
(1.03593 -0.341979 -3.21825e-23)
(1.04501 -0.337557 0)
(1.03284 -0.330231 -9.1639e-24)
(0.995381 -0.317369 8.94642e-21)
(0.924474 -0.295416 1.69775e-20)
(0.816917 -0.262354 8.47664e-24)
(0.675833 -0.218449 -8.49076e-24)
(0.506492 -0.165245 0)
(0.314786 -0.104101 -8.42771e-24)
(0.108183 -0.0359381 -1.53984e-20)
(1.00019 0.0100502 0)
(0.989207 0.0199845 -1.19112e-22)
(0.961258 0.0118824 3.31757e-20)
(0.918275 -0.0249744 -7.68239e-20)
(0.878201 -0.101973 -4.72925e-20)
(0.872499 -0.211612 1.8664e-22)
(0.918493 -0.31288 0)
(0.990791 -0.358279 -2.37812e-20)
(1.0399 -0.357908 2.54228e-23)
(1.05736 -0.349682 0)
(1.05611 -0.341816 0)
(1.03845 -0.332043 9.0843e-25)
(0.99701 -0.317064 8.36279e-24)
(0.923471 -0.293794 -7.78642e-21)
(0.814714 -0.26032 -7.12472e-24)
(0.673051 -0.216588 0)
(0.503319 -0.163745 -7.28019e-24)
(0.311912 -0.103032 1.62863e-20)
(0.106821 -0.0355184 6.47469e-24)
(1.00053 0.0118186 2.49052e-20)
(0.991149 0.0281117 -2.76865e-20)
(0.963746 0.0301536 1.19798e-22)
(0.914671 0.00591536 7.61518e-20)
(0.855606 -0.0640868 4.58426e-20)
(0.829655 -0.189767 0)
(0.876079 -0.325325 0)
(0.973736 -0.384436 2.31637e-20)
(1.04172 -0.376889 2.50122e-23)
(1.06665 -0.363028 -4.68568e-24)
(1.0714 -0.35282 0)
(1.06473 -0.343501 0)
(1.04307 -0.332139 7.76452e-25)
(0.998148 -0.315937 1.74811e-23)
(0.92226 -0.291969 0)
(0.812239 -0.258325 1.39807e-20)
(0.669838 -0.214774 -6.49971e-24)
(0.499765 -0.162239 1.39435e-23)
(0.308858 -0.101938 -7.0303e-24)
(0.105434 -0.0350913 -1.24373e-23)
(1.00082 0.0129559 -4.87742e-20)
(0.993597 0.0345572 1.28399e-21)
(0.968887 0.0466989 2.95426e-20)
(0.91723 0.0382443 -3.72835e-20)
(0.838823 -0.015562 -8.34343e-22)
(0.779628 -0.148558 -6.56127e-20)
(0.813178 -0.336881 5.2157e-20)
(0.94531 -0.417423 -7.78636e-23)
(1.03926 -0.397998 -4.76802e-23)
(1.07275 -0.377043 -1.05484e-20)
(1.08217 -0.363682 -2.02255e-23)
(1.08179 -0.353469 0)
(1.07165 -0.343396 -7.67344e-21)
(1.04659 -0.331285 7.17688e-21)
(0.998754 -0.314467 -6.92024e-24)
(0.920779 -0.290119 -1.30046e-20)
(0.809448 -0.256404 5.95595e-24)
(0.666245 -0.213003 6.50435e-24)
(0.495916 -0.160729 -6.66287e-24)
(0.305685 -0.100836 7.05313e-24)
(0.104044 -0.0346634 -1.18077e-20)
(1.00103 0.0134601 2.38799e-20)
(0.996259 0.038969 2.64298e-20)
(0.976167 0.0601361 -2.93606e-20)
(0.926662 0.0687233 1.27363e-22)
(0.835795 0.0399159 4.53058e-20)
(0.730387 -0.0773199 6.70467e-20)
(0.713798 -0.331891 -5.45002e-20)
(0.88756 -0.451649 -3.14319e-20)
(1.01988 -0.415791 7.74216e-23)
(1.06825 -0.387538 1.05037e-20)
(1.08593 -0.372504 -1.96181e-23)
(1.09212 -0.361795 0)
(1.08954 -0.352286 7.53022e-21)
(1.07681 -0.342291 6.58136e-25)
(1.04914 -0.329997 6.47026e-21)
(0.998879 -0.312883 0)
(0.918982 -0.288317 0)
(0.806336 -0.254561 1.16704e-20)
(0.662325 -0.21127 0)
(0.491855 -0.159226 0)
(0.302456 -0.0997392 1.23817e-20)
(0.102668 -0.0342386 5.45123e-24)
(1.00116 0.0133927 0)
(0.998827 0.0412659 -2.34008e-20)
(0.984582 0.0694988 -5.05153e-23)
(0.942276 0.0938984 -3.00938e-20)
(0.849538 0.0956411 -8.40534e-20)
(0.70146 0.0224314 -6.30872e-20)
(0.56173 -0.268414 -4.1956e-20)
(0.752978 -0.456231 3.81666e-20)
(0.941102 -0.407674 0)
(1.02536 -0.381909 3.42777e-23)
(1.06833 -0.371674 8.6148e-21)
(1.09011 -0.365084 0)
(1.09777 -0.357987 7.16515e-21)
(1.09458 -0.35006 -6.26083e-24)
(1.08044 -0.340687 -6.32144e-21)
(1.05086 -0.328515 0)
(0.998536 -0.311298 5.64252e-21)
(0.916861 -0.286587 -5.40272e-21)
(0.802921 -0.252785 5.43712e-24)
(0.658153 -0.209572 -1.06727e-20)
(0.487664 -0.157739 -5.06282e-24)
(0.299206 -0.0986533 -5.24813e-25)
(0.101327 -0.0338235 -4.54092e-24)
(1.00122 0.0128519 0)
(1.00106 0.0416164 2.36063e-20)
(0.992954 0.0744794 -9.40658e-23)
(0.961716 0.11115 2.94545e-20)
(0.879893 0.143351 7.22742e-20)
(0.708373 0.12988 5.77928e-20)
(0.531074 -0.0913871 3.71618e-20)
(0.497603 -0.00750493 9.40492e-22)
(0.539573 -0.467803 0)
(0.356617 -0.21112 7.38706e-20)
(0.385108 -0.385478 -3.66904e-22)
(0.80987 -0.386124 0)
(0.504732 -0.313481 -1.23276e-20)
(0.637547 -0.295697 0)
(0.877332 -0.328981 0)
(0.737208 -0.290121 0)
(0.991462 -0.343599 -9.06457e-21)
(1.05579 -0.353639 7.64375e-21)
(1.08763 -0.355855 -7.17549e-21)
(1.09925 -0.353116 3.03435e-24)
(1.09731 -0.347245 6.02693e-21)
(1.0828 -0.338808 1.6608e-23)
(1.05184 -0.326981 -5.43215e-21)
(0.997742 -0.309745 -5.16383e-21)
(0.914423 -0.284918 -4.96994e-21)
(0.799234 -0.251061 9.63498e-21)
(0.653784 -0.207906 0)
(0.483393 -0.156276 4.47306e-25)
(0.295984 -0.097589 -5.3762e-24)
(0.100018 -0.0334185 -9.06772e-21)
(1.00122 0.0119472 -3.88308e-23)
(1.00285 0.0403418 0)
(1.00039 0.0754325 0)
(0.981653 0.119769 -2.00176e-22)
(0.920281 0.175313 -3.30651e-20)
(0.761205 0.225763 -4.02073e-22)
(0.490105 0.0988051 0)
(0.515025 0.198532 -2.47433e-20)
(0.279377 -0.0807983 -3.73019e-20)
(0.289896 -0.323807 3.21151e-22)
(0.202944 -0.255743 -1.15187e-20)
(0.19881 -0.237276 8.64045e-21)
(0.16909 -0.155722 4.11459e-21)
(0.302775 -0.251444 -2.00905e-22)
(0.460738 -0.215734 3.61697e-23)
(0.257174 -0.107419 0)
(0.165785 -0.114617 -5.69807e-22)
(0.509248 -0.188336 -6.10246e-22)
(0.360006 -0.146463 -9.84396e-22)
(0.655101 -0.233065 0)
(0.792842 -0.26235 0)
(0.588044 -0.194185 -1.22692e-23)
(0.949461 -0.310204 -8.19794e-21)
(1.03604 -0.335677 0)
(1.07964 -0.345998 0)
(1.09744 -0.34761 -1.55123e-22)
(1.09814 -0.344054 0)
(1.08402 -0.336833 -1.07132e-23)
(1.05214 -0.32543 -1.01337e-23)
(0.996514 -0.308213 9.42521e-21)
(0.911669 -0.283294 4.53926e-21)
(0.795311 -0.249384 0)
(0.649281 -0.206281 0)
(0.479095 -0.154839 4.63532e-24)
(0.292803 -0.0965518 9.43046e-21)
(0.0987545 -0.0330259 8.31861e-21)
(1.00117 0.0107794 -3.67318e-23)
(1.00418 0.0378093 3.92497e-23)
(1.00644 0.0731324 0)
(0.999215 0.120785 0)
(0.961019 0.189096 1.91456e-22)
(0.848428 0.283988 7.15789e-22)
(0.558044 0.293449 2.36258e-20)
(0.621463 0.368419 -7.35722e-23)
(0.237281 0.059179 0)
(0.344479 0.251501 8.31676e-23)
(0.318189 0.183493 0)
(0.0653664 -0.0965628 6.71384e-22)
(0.107589 -0.169016 7.83971e-21)
(0.116817 -0.158878 -3.798e-21)
(0.0780672 -0.0984457 0)
(0.148182 -0.0588596 7.91568e-22)
(0.0850613 -0.037573 -2.50026e-21)
(0.24409 -0.0762097 6.49769e-22)
(0.421376 -0.131112 0)
(0.28854 -0.0994989 9.30903e-22)
(0.541175 -0.166825 3.22691e-21)
(0.726398 -0.219773 -1.91426e-21)
(0.507111 -0.149156 0)
(0.367474 -0.108568 -1.08819e-23)
(0.907444 -0.283825 7.14597e-21)
(1.01194 -0.319052 -1.1919e-23)
(1.06797 -0.335941 -5.91019e-21)
(1.09311 -0.341725 4.64194e-24)
(1.09735 -0.340773 0)
(1.08426 -0.334799 8.99398e-24)
(1.0518 -0.32384 -4.54101e-21)
(0.994855 -0.30669 -4.30208e-21)
(0.908618 -0.28171 4.14775e-21)
(0.791203 -0.247753 3.78228e-24)
(0.644684 -0.204688 8.14822e-21)
(0.474806 -0.15344 0)
(0.289687 -0.0955437 -8.62556e-21)
(0.097536 -0.0326469 -3.49669e-24)
(1.0011 0.00943204 0)
(1.00511 0.0343634 -1.85048e-20)
(1.01101 0.0684485 0)
(1.01301 0.116048 -1.87422e-20)
(0.997006 0.187491 -1.93335e-20)
(0.93761 0.301632 2.12966e-20)
(0.698541 0.429787 0)
(0.782299 0.458357 -7.2698e-22)
(0.317932 0.349687 2.23676e-20)
(0.424186 0.462791 -2.03648e-20)
(0.042165 -0.046474 0)
(0.0313879 0.0079945 0)
(0.171056 0.15144 -1.1767e-20)
(0.193095 0.237205 1.1564e-20)
(0.0394012 -0.0791075 -1.46544e-20)
(0.105201 -0.0314361 5.188e-22)
(0.214893 -0.0603278 1.34836e-23)
(0.0816445 -0.0223591 -4.03803e-23)
(0.199611 -0.0545072 8.67822e-22)
(0.332475 -0.0930096 -3.6652e-21)
(0.480767 -0.136007 -3.34001e-21)
(0.675824 -0.195163 -7.92539e-21)
(0.461193 -0.127342 2.03503e-22)
(0.307888 -0.0843855 0)
(0.17519 -0.0472903 7.22831e-24)
(0.185057 -0.0498468 -1.4408e-23)
(0.867261 -0.262926 -6.69678e-21)
(0.985951 -0.303744 1.27714e-23)
(1.05391 -0.325918 -1.01211e-23)
(1.08685 -0.335981 -7.98344e-25)
(1.0953 -0.337449 8.77713e-24)
(1.08363 -0.332669 -1.72019e-23)
(1.05084 -0.322208 4.12375e-21)
(0.992785 -0.305178 -3.93131e-21)
(0.905308 -0.280161 7.40709e-24)
(0.786938 -0.246161 -1.47782e-20)
(0.640036 -0.203138 7.4529e-21)
(0.470556 -0.152079 0)
(0.286647 -0.0945695 -3.75821e-24)
(0.0963699 -0.0322822 3.51548e-24)
(1.00102 0.0079708 0)
(1.00573 0.0302929 1.08818e-21)
(1.01426 0.0621286 0)
(1.02307 0.107459 1.90114e-20)
(1.02448 0.175961 3.57622e-20)
(1.00642 0.289235 -4.80188e-21)
(0.89811 0.543736 -5.43385e-21)
(0.560094 0.553279 0)
(0.693178 0.607982 1.03256e-20)
(0.0642968 0.191334 2.68685e-21)
(0.100296 0.24877 0)
(0.20716 0.348441 -1.26911e-21)
(0.149031 0.301728 -8.92541e-22)
(0.0310279 0.0690985 -3.73336e-22)
(0.0412433 0.130003 0)
(0.0696644 -0.0176514 0)
(0.0645975 -0.016188 -5.58557e-22)
(0.165059 -0.0433183 9.88893e-22)
(0.158987 -0.0416098 -7.5211e-24)
(0.290731 -0.0770495 3.76342e-21)
(0.443616 -0.120966 -3.28928e-24)
(0.634373 -0.179018 5.59649e-21)
(0.429486 -0.115943 -3.24217e-21)
(0.278126 -0.0729567 2.2669e-21)
(0.147441 -0.0383887 0)
(0.152101 -0.0395329 -9.61515e-22)
(0.0566495 -0.0142486 -2.71561e-25)
(0.0601279 -0.0149801 2.7085e-25)
(0.829241 -0.245387 6.24073e-21)
(0.959275 -0.289369 -7.00512e-25)
(1.03846 -0.316832 -8.70202e-24)
(1.07943 -0.330416 -4.59922e-21)
(1.09224 -0.334032 -1.68277e-23)
(1.08218 -0.330455 -4.02826e-21)
(1.04931 -0.320546 3.86781e-24)
(0.990338 -0.303674 3.67487e-24)
(0.901766 -0.278642 1.03383e-20)
(0.782556 -0.244609 1.16404e-22)
(0.635371 -0.201629 2.94309e-25)
(0.466362 -0.150758 3.24424e-24)
(0.283702 -0.0936286 3.25104e-25)
(0.0952527 -0.0319316 0)
(1.00092 0.00644494 0)
(1.00609 0.0258254 2.62627e-20)
(1.01643 0.0547457 0)
(1.03002 0.0965539 0)
(1.04316 0.159342 -2.47074e-21)
(1.05207 0.25982 -1.57563e-20)
(1.05025 0.491846 7.32074e-21)
(0.768977 0.691743 -1.6848e-22)
(0.962034 0.744625 2.61847e-21)
(0.278098 0.471555 -3.66016e-21)
(0.433844 0.583267 7.44977e-21)
(0.656005 0.682586 0)
(0.550229 0.633349 -2.96047e-21)
(0.0533021 -0.0132369 0)
(0.0513093 -0.012769 5.84412e-25)
(0.142466 -0.0363421 -2.35691e-23)
(0.139684 -0.035553 -1.00215e-21)
(0.268065 -0.0694764 -7.49664e-22)
(0.415395 -0.111779 5.01349e-23)
(0.596574 -0.165847 -6.94912e-21)
(0.402908 -0.107617 0)
(0.259449 -0.0671473 2.93094e-21)
(0.134007 -0.0340063 1.01528e-21)
(0.136266 -0.0346081 3.95281e-24)
(0.0474663 -0.0118545 2.41006e-24)
(0.0491753 -0.0122065 6.12879e-22)
(0.792149 -0.229046 -1.20701e-23)
(0.933104 -0.277403 -1.9761e-23)
(1.02298 -0.308541 4.756e-21)
(1.07129 -0.324947 0)
(1.08829 -0.330564 8.05288e-24)
(1.07998 -0.328188 3.44963e-24)
(1.04724 -0.318858 0)
(0.987548 -0.302174 -3.27874e-21)
(0.898023 -0.277151 -3.1063e-21)
(0.778081 -0.243095 -6.23624e-21)
(0.630711 -0.200163 2.67206e-25)
(0.462246 -0.149477 -6.22385e-24)
(0.280848 -0.0927206 6.88034e-21)
(0.0941805 -0.0315935 -2.70334e-24)
(1.00082 0.00489113 0)
(1.00628 0.0211315 -8.55089e-21)
(1.01776 0.0467244 0)
(1.03454 0.0843809 1.42672e-20)
(1.05503 0.140456 -1.44198e-20)
(1.08044 0.226146 0)
(1.122 0.405176 -1.2359e-20)
(1.17852 0.629236 -1.50273e-21)
(0.459107 0.472716 0)
(0.597621 0.477004 -5.68414e-21)
(0.381092 0.324496 4.3873e-21)
(0.807733 0.497075 -3.35622e-23)
(0.0998008 0.200807 0)
(0.253602 0.347517 0)
(0.344959 0.371183 0)
(0.0458478 -0.011332 -1.26466e-21)
(0.0449645 -0.0111158 5.36267e-24)
(0.131181 -0.0330916 1.01049e-21)
(0.129594 -0.0325902 1.01816e-21)
(0.251596 -0.0647928 2.14728e-21)
(0.389051 -0.10403 0)
(0.554779 -0.151216 1.52973e-21)
(0.3744 -0.0992305 0)
(0.244024 -0.0628324 -6.55565e-22)
(0.125723 -0.0316498 -9.94127e-22)
(0.12729 -0.0321413 1.99807e-21)
(0.0431735 -0.0106747 0)
(0.0439651 -0.010862 -3.10781e-25)
(0.757967 -0.216422 -4.3826e-23)
(0.909494 -0.267169 2.00934e-23)
(1.00794 -0.300818 0)
(1.0626 -0.319637 -3.68501e-24)
(1.08357 -0.327098 -3.59613e-21)
(1.07713 -0.325886 -3.44347e-24)
(1.0447 -0.317147 3.16484e-21)
(0.984446 -0.30068 -3.00233e-21)
(0.894097 -0.275688 5.75111e-21)
(0.773531 -0.24162 -2.89529e-24)
(0.626071 -0.198735 2.89649e-24)
(0.45822 -0.148235 -5.72593e-21)
(0.278088 -0.0918401 2.89646e-24)
(0.0931475 -0.0312671 5.42738e-21)
(1.00072 0.00333533 0)
(1.00632 0.0163345 1.52461e-23)
(1.01848 0.0383749 -1.27056e-23)
(1.03721 0.071604 -1.44867e-20)
(1.06212 0.120748 0)
(1.09725 0.193834 0)
(1.15035 0.322935 7.78646e-21)
(1.31901 0.540882 3.01805e-24)
(0.82444 0.263079 0)
(1.16839 0.394016 6.48537e-23)
(0.186838 0.213844 -1.12305e-24)
(0.208749 0.139113 0)
(0.610898 0.280218 5.48574e-23)
(0.236653 0.120564 5.59614e-21)
(0.0423197 -0.0104325 -6.44049e-22)
(0.0418271 -0.0102909 0)
(0.123552 -0.0311007 -9.61149e-25)
(0.122256 -0.0306347 1.0593e-23)
(0.236086 -0.0606786 -1.32322e-21)
(0.354424 -0.0939326 -2.78861e-21)
(0.516371 -0.139922 0)
(0.329276 -0.0850162 -2.70042e-21)
(0.226439 -0.0582785 1.02101e-23)
(0.118964 -0.0298423 5.50137e-24)
(0.120347 -0.0303337 3.68189e-24)
(0.0406173 -0.0100059 0)
(0.0411811 -0.010158 -6.35583e-22)
(0.730297 -0.206244 4.48893e-23)
(0.888473 -0.258165 1.72719e-23)
(0.993349 -0.293684 3.77631e-24)
(1.0535 -0.314528 3.65961e-21)
(1.07823 -0.323659 0)
(1.07371 -0.323559 -3.10114e-21)
(1.04173 -0.315418 0)
(0.981054 -0.299194 2.81593e-24)
(0.890005 -0.274255 2.71051e-24)
(0.768934 -0.240182 5.25257e-21)
(0.621484 -0.197344 -2.43365e-24)
(0.454285 -0.147021 0)
(0.275412 -0.0909876 -5.56715e-21)
(0.0921581 -0.0309528 4.88161e-21)
(1.00063 0.00179613 0)
(1.00628 0.011522 0)
(1.01876 0.0299124 -1.49076e-23)
(1.03853 0.0586451 2.72122e-23)
(1.06589 0.101088 5.13555e-21)
(1.1059 0.163354 0)
(1.16233 0.258148 -3.08639e-21)
(1.33478 0.430376 0)
(1.349 0.349022 -5.07001e-20)
(0.196514 0.0519149 4.82048e-21)
(0.658853 0.16701 0)
(0.312691 0.077937 0)
(0.900562 0.166358 3.47217e-20)
(0.0399766 -0.00984685 -6.21156e-22)
(0.0395497 -0.00971472 6.15461e-22)
(0.117013 -0.0294435 4.76235e-24)
(0.115514 -0.0289148 1.81182e-21)
(0.211001 -0.054385 2.12827e-21)
(0.306119 -0.0800094 0)
(0.491811 -0.131717 0)
(0.294589 -0.0766789 0)
(0.176477 -0.0438552 0)
(0.110602 -0.0278109 1.73765e-21)
(0.113355 -0.028634 -3.7665e-24)
(0.0385298 -0.0094718 5.97394e-22)
(0.0390167 -0.00961611 -5.85674e-25)
(0.707702 -0.197941 1.93939e-23)
(0.869391 -0.250238 -1.75133e-23)
(0.979176 -0.287086 -3.80643e-24)
(1.04409 -0.309625 3.32156e-21)
(1.07237 -0.320256 0)
(1.06978 -0.32121 -2.66432e-24)
(1.03836 -0.31368 0)
(0.977396 -0.297729 -4.75564e-24)
(0.885778 -0.272853 -4.82976e-21)
(0.764313 -0.238769 -2.00053e-25)
(0.61694 -0.195973 2.01921e-25)
(0.450441 -0.145838 4.9841e-21)
(0.272825 -0.0901612 0)
(0.0912137 -0.0306519 -2.09481e-24)
(1.00054 0.000286912 0)
(1.00617 0.00675443 -7.78888e-21)
(1.01874 0.0214803 0)
(1.03892 0.0457725 1.08561e-23)
(1.06743 0.0819829 -5.22759e-21)
(1.10901 0.134575 -3.07444e-21)
(1.1672 0.207555 -1.06837e-21)
(1.30716 0.331621 -3.00538e-23)
(1.48382 0.3397 3.61272e-20)
(1.03764 0.0989803 2.68725e-20)
(0.460968 0.0514026 4.70769e-22)
(0.179227 0.0101325 -1.06218e-20)
(0.605496 0.0138816 2.571e-20)
(0.0379696 -0.0093484 3.33818e-24)
(0.0374842 -0.00920229 -1.15414e-21)
(0.105475 -0.0270309 -8.418e-22)
(0.0970852 -0.02328 4.20653e-22)
(0.151803 -0.03871 6.01368e-22)
(0.286472 -0.0741663 0)
(0.47421 -0.126167 -1.46071e-21)
(0.281066 -0.0721895 0)
(0.14512 -0.0365242 -5.56081e-22)
(0.0431696 -0.0117005 -1.80194e-22)
(0.0652123 -0.0121115 -2.6438e-22)
(0.0360136 -0.00887604 -5.55499e-22)
(0.0368734 -0.00910497 -5.67973e-22)
(0.688297 -0.191007 -4.8261e-21)
(0.851812 -0.243159 0)
(0.965346 -0.280951 -3.49164e-21)
(1.03443 -0.304904 0)
(1.06604 -0.316876 0)
(1.06539 -0.318853 2.65904e-24)
(1.03462 -0.311955 0)
(0.973499 -0.296288 9.11701e-24)
(0.881435 -0.271464 0)
(0.75967 -0.237368 -2.23258e-24)
(0.612459 -0.194625 -4.31039e-21)
(0.446694 -0.144682 2.30006e-24)
(0.270335 -0.0893632 0)
(0.0902969 -0.0303596 2.10429e-24)
(1.00046 -0.00118159 0)
(1.00601 0.00207428 1.57139e-20)
(1.0185 0.0131683 -7.06657e-21)
(1.0387 0.0331407 0)
(1.06748 0.0636449 -1.78367e-23)
(1.10878 0.107686 3.14265e-21)
(1.16703 0.166031 1.11399e-21)
(1.27661 0.253912 6.24033e-21)
(1.47258 0.289706 3.24607e-23)
(1.41666 0.163184 -9.37989e-20)
(0.674359 -0.0334173 -9.29383e-20)
(0.370367 -0.0179308 3.93307e-20)
(0.317565 -0.0143698 0)
(0.0974093 -0.0164098 9.99132e-21)
(0.231741 -0.0240637 1.44552e-20)
(0.0340531 -0.00868565 9.6428e-24)
(0.0315484 -0.00827062 0)
(0.0376229 -0.00957791 -4.92411e-22)
(0.0350621 -0.00889946 -6.1034e-22)
(0.141478 -0.0354386 -6.04959e-22)
(0.275572 -0.0710487 2.50055e-21)
(0.459704 -0.121933 5.46674e-21)
(0.27165 -0.0696901 0)
(0.138693 -0.0346551 5.59841e-22)
(0.0339747 -0.00832487 0)
(0.0343325 -0.0085558 5.78842e-22)
(0.018163 -0.00320773 9.74887e-23)
(0.671178 -0.184916 0)
(0.835278 -0.236731 -7.01002e-24)
(0.951722 -0.275192 0)
(1.02452 -0.300302 0)
(1.05928 -0.31352 0)
(1.06056 -0.316524 2.40279e-21)
(1.03055 -0.310266 2.26642e-21)
(0.969395 -0.294855 -4.36322e-24)
(0.876989 -0.270072 0)
(0.755018 -0.23597 1.88284e-24)
(0.608041 -0.193297 4.08239e-21)
(0.443047 -0.143552 0)
(0.267914 -0.0885886 -2.05639e-24)
(0.0894218 -0.0300797 1.7689e-24)
(1.00039 -0.00259951 8.13711e-21)
(1.00582 -0.00248698 -7.92975e-21)
(1.01812 0.0050318 7.18283e-21)
(1.03809 0.0208284 -5.95419e-21)
(1.06661 0.04611 0)
(1.10676 0.0827486 7.05657e-24)
(1.16314 0.130388 0)
(1.25331 0.194505 -9.55574e-21)
(1.41606 0.232716 -1.213e-23)
(1.52962 0.173069 7.99764e-21)
(1.20202 0.0310123 5.41235e-20)
(0.481647 -0.0736997 -7.89797e-20)
(0.193438 -0.0282849 4.96825e-20)
(0.234734 -0.0473676 -2.03264e-20)
(0.117709 -0.00997117 0)
(0.159044 -0.0225695 1.45943e-23)
(0.0613622 -0.0134582 3.911e-23)
(0.033548 -0.0082922 5.51261e-22)
(0.0333621 -0.00816573 -5.42154e-22)
(0.136257 -0.0340984 5.37925e-22)
(0.267033 -0.068874 -2.30612e-21)
(0.447553 -0.117809 1.21504e-21)
(0.263566 -0.0677967 -1.68568e-23)
(0.134188 -0.0335393 5.35591e-22)
(0.0328414 -0.0080288 -5.24487e-22)
(0.0329659 -0.00813736 -2.06324e-24)
(0.655399 -0.179507 -4.18893e-21)
(0.81934 -0.230798 7.06627e-24)
(0.93814 -0.269652 -2.77599e-24)
(1.01434 -0.295767 0)
(1.05214 -0.310239 -2.40418e-21)
(1.05538 -0.31428 -2.22564e-21)
(1.02621 -0.308596 -3.91001e-24)
(0.965111 -0.293404 -3.69074e-24)
(0.872452 -0.268665 1.76977e-24)
(0.750375 -0.234577 -3.6413e-21)
(0.60369 -0.191983 -3.75103e-21)
(0.439494 -0.142454 1.78075e-24)
(0.265584 -0.087841 1.71626e-25)
(0.0885817 -0.0298094 -3.40205e-24)
(1.00032 -0.00395623 -8.20403e-21)
(1.00559 -0.00690157 0)
(1.01762 -0.0028935 8.21653e-25)
(1.03723 0.00886649 3.44542e-23)
(1.06521 0.0293313 3.46993e-24)
(1.10387 0.0596074 0)
(1.15721 0.0988841 1.32512e-24)
(1.23534 0.147845 3.02321e-22)
(1.36187 0.181405 7.22531e-21)
(1.50979 0.155427 5.79924e-20)
(1.46529 0.0665124 0)
(0.996225 -0.0437218 5.71315e-20)
(0.400239 -0.0723902 -2.03662e-20)
(0.182703 -0.0369278 -2.67605e-22)
(0.170667 -0.0456928 4.71731e-21)
(0.0630057 -0.00907271 -1.96269e-22)
(0.0670202 -0.0146361 -1.22818e-20)
(0.0778428 -0.0153265 1.29066e-20)
(0.0824626 -0.0233433 1.3182e-20)
(0.0228944 -0.00483977 0)
(0.037217 -0.00981815 -9.40266e-21)
(0.0324524 -0.0080143 -5.13933e-22)
(0.0323372 -0.00791381 -5.05225e-22)
(0.132073 -0.0330945 1.52672e-21)
(0.259979 -0.0673832 -2.1813e-21)
(0.43608 -0.114403 5.92524e-21)
(0.257952 -0.0657741 -1.84774e-21)
(0.129951 -0.0326317 0)
(0.0318767 -0.00779349 1.92369e-24)
(0.0319818 -0.00789729 -9.93851e-22)
(0.640274 -0.174521 -3.94672e-21)
(0.803573 -0.225109 -3.19762e-21)
(0.92439 -0.264156 2.78363e-24)
(1.00391 -0.291356 -4.61918e-24)
(1.04472 -0.307152 -3.20383e-25)
(1.04995 -0.312101 2.05858e-21)
(1.02165 -0.306907 3.90494e-24)
(0.960656 -0.291923 3.68597e-24)
(0.867843 -0.267244 1.75007e-21)
(0.745741 -0.233187 3.34296e-21)
(0.599422 -0.190695 0)
(0.436049 -0.141384 -1.78269e-24)
(0.26333 -0.0871164 1.89256e-24)
(0.0877748 -0.0295505 -3.27908e-21)
(1.00025 -0.00523816 0)
(1.00532 -0.0111403 2.08049e-24)
(1.01701 -0.0105799 0)
(1.0362 -0.00274445 6.12592e-21)
(1.06354 0.0132277 4.52086e-21)
(1.10066 0.0379898 -4.72768e-24)
(1.15063 0.070525 0)
(1.22003 0.109397 2.92111e-21)
(1.32119 0.138273 -1.40305e-20)
(1.45168 0.12779 -2.70526e-20)
(1.52892 0.073709 6.45131e-23)
(1.34825 -0.0111863 0)
(0.845105 -0.0815174 -1.2028e-22)
(0.355641 -0.0663889 -8.0092e-20)
(0.170098 -0.0309766 -5.57261e-22)
(0.174999 -0.0401927 3.21907e-20)
(0.0912812 -0.0192473 -1.5511e-22)
(0.0871094 -0.0209126 0)
(0.075391 -0.0175756 -5.63928e-21)
(0.0618498 -0.0204618 0)
(0.0111581 -0.00228274 8.06077e-21)
(0.013562 -0.00394019 0)
(0.0170031 -0.00433748 -6.39522e-23)
(0.0146235 -0.00639712 -8.21011e-21)
(0.0315106 -0.00778676 4.76662e-22)
(0.0313967 -0.00768661 -4.70242e-22)
(0.128048 -0.0323788 2.29997e-21)
(0.253305 -0.0645402 -4.4897e-22)
(0.425278 -0.11134 5.50636e-21)
(0.25066 -0.063624 -2.20024e-21)
(0.158082 -0.0420233 0)
(0.158279 -0.0408868 5.63623e-22)
(0.0308794 -0.00758126 -1.76351e-24)
(0.0310198 -0.00766814 -4.60113e-22)
(0.625074 -0.169667 3.6795e-21)
(0.787341 -0.219317 0)
(0.910444 -0.258713 0)
(0.993403 -0.287325 4.62994e-24)
(1.03723 -0.30423 -2.07803e-21)
(1.04435 -0.309928 1.90465e-21)
(1.01687 -0.305184 0)
(0.956049 -0.290415 -1.64799e-21)
(0.86318 -0.265813 0)
(0.741145 -0.231806 0)
(0.595247 -0.189428 0)
(0.432702 -0.140342 -3.27685e-21)
(0.261153 -0.086417 3.31763e-21)
(0.0869975 -0.0293018 -2.87194e-24)
(1.00019 -0.00642832 0)
(1.00499 -0.0151671 -4.12369e-24)
(1.01629 -0.0179967 3.5331e-24)
(1.03503 -0.0140145 0)
(1.06174 -0.00230546 -9.31996e-21)
(1.09745 0.0175952 2.64359e-21)
(1.14427 0.0446033 1.31894e-24)
(1.20655 0.0763836 0)
(1.29117 0.101748 6.71742e-21)
(1.39743 0.0994211 -1.14908e-23)
(1.4997 0.0653696 0)
(1.49601 0.00624072 -1.35498e-22)
(1.22692 -0.0645445 -4.25471e-20)
(0.741789 -0.0965931 6.10543e-20)
(0.334599 -0.0641118 -9.48558e-20)
(0.156952 -0.0294643 3.33767e-20)
(0.157804 -0.0352322 -1.30582e-22)
(0.0620869 -0.0132727 -6.84397e-21)
(0.0899704 -0.0207268 -1.01668e-20)
(0.0898613 -0.022713 9.99902e-21)
(0.0436028 -0.0101713 -1.34109e-22)
(0.0414601 -0.00933172 0)
(0.0251859 -0.00339555 3.85872e-21)
(0.0121061 -0.00411192 -8.53154e-21)
(0.0305579 -0.00755589 -4.5013e-22)
(0.0303348 -0.00757626 -4.40031e-22)
(0.0937689 -0.025256 -6.08452e-22)
(0.157152 -0.039833 5.72253e-22)
(0.156629 -0.0393191 0)
(0.247541 -0.0631521 3.35397e-24)
(0.414163 -0.108214 -9.75374e-22)
(0.244986 -0.0622645 -1.63832e-21)
(0.15579 -0.0390986 5.55432e-22)
(0.155131 -0.03884 5.51216e-22)
(0.0939229 -0.0241639 -1.01139e-21)
(0.608543 -0.164496 0)
(0.770427 -0.213103 0)
(0.896684 -0.253928 0)
(0.983224 -0.283618 8.03578e-24)
(1.02977 -0.301378 -1.91443e-21)
(1.03856 -0.307746 0)
(1.0119 -0.303435 0)
(0.951326 -0.288884 0)
(0.858488 -0.264372 0)
(0.736599 -0.230435 0)
(0.591162 -0.188187 5.74342e-21)
(0.429446 -0.13933 -1.38509e-24)
(0.259049 -0.085744 -3.21036e-21)
(0.0862539 -0.0290622 2.77883e-21)
(1.00013 -0.00750399 4.56917e-24)
(1.00458 -0.0189334 8.69414e-24)
(1.01541 -0.025102 4.12381e-24)
(1.03368 -0.0249487 -3.50784e-24)
(1.05985 -0.0173727 9.78538e-21)
(1.09443 -0.00187604 -5.53764e-21)
(1.13858 0.0205194 0)
(1.19497 0.0471306 0)
(1.26789 0.0698435 -5.33964e-21)
(1.35591 0.0729617 0)
(1.44854 0.0509482 -1.2165e-20)
(1.51222 0.0101467 0)
(1.43752 -0.046575 3.78873e-20)
(1.12006 -0.0968968 -8.62711e-23)
(0.673298 -0.101151 6.07338e-20)
(0.319665 -0.0626489 -3.6399e-20)
(0.161338 -0.0318471 -7.09764e-22)
(0.157486 -0.0350263 6.23032e-20)
(0.058403 -0.0133468 -2.89248e-20)
(0.0569809 -0.013587 7.06478e-21)
(0.0112788 -0.00240889 6.44105e-21)
(0.0450979 -0.0113605 -1.62438e-22)
(0.0114196 -0.00354086 0)
(0.0448476 -0.0116171 -8.45155e-21)
(0.0106996 -0.00303941 -6.03854e-21)
(0.0108177 -0.00307401 -5.97432e-21)
(0.00644766 -0.00086961 4.60076e-21)
(0.0306185 -0.00795379 4.26114e-22)
(0.0922784 -0.0232021 1.96601e-24)
(0.091704 -0.0228174 -5.02721e-22)
(0.154197 -0.0387625 5.37756e-22)
(0.153533 -0.038549 5.26951e-22)
(0.241826 -0.0616846 0)
(0.40064 -0.104559 -1.0181e-21)
(0.238755 -0.0606077 1.51772e-21)
(0.152614 -0.0383907 5.00884e-25)
(0.151876 -0.0380998 -5.01636e-25)
(0.0912649 -0.0226692 -9.86015e-22)
(0.0908793 -0.0225464 -4.91564e-22)
(0.0305883 -0.00768979 3.7522e-22)
(0.589144 -0.157817 0)
(0.753865 -0.20795 0)
(0.883941 -0.249676 8.54474e-24)
(0.973487 -0.280081 1.9669e-21)
(1.0223 -0.298582 0)
(1.03261 -0.305567 3.02977e-24)
(1.00677 -0.301666 0)
(0.946512 -0.287332 1.41988e-21)
(0.853792 -0.262927 -1.3675e-21)
(0.732116 -0.229079 -2.60151e-21)
(0.587175 -0.186974 2.69646e-21)
(0.426286 -0.138348 2.65198e-21)
(0.25702 -0.0850932 -2.79383e-21)
(0.0855338 -0.0288297 -2.31398e-24)
(1.00006 -0.00843548 0)