/*--------------------------------*- C++ -*----------------------------------*\
| =========                 |                                                 |
| \\      /  F ield         | OpenFOAM: The Open Source CFD Toolbox           |
|  \\    /   O peration     | Version:  v1912                                 |
|   \\  /    A nd           | Website:  www.openfoam.com                      |
|    \\/     M anipulation  |                                                 |
\*---------------------------------------------------------------------------*/
FoamFile
{
    version     2.0;
    format      ascii;
    class       surfaceScalarField;
    location    "30";
    object      phi;
}
// * * * * * * * * * * * * * * * * * * * * * * * * * * * * * * * * * * * * * //

dimensions      [0 3 -1 0 0 0 0];
oriented        oriented;


internalField   nonuniform List<scalar> 
7196
(
0.0051075
0.00490139
0.00623269
0.00888436
0.00246271
0.00244138
0.00619319
0.0100482
0.00448118
0.00686818
0.000930276
0.00151439
0.00597664
0.0102271
0.00524129
0.00929015
0.002602
0.00519932
0.000298566
0.00121981
0.00580036
0.0101869
0.00529232
0.0101778
0.00377466
0.00812008
0.0013041
0.004197
8.16399e-05
0.00114018
0.00567094
0.0101419
0.00513311
0.0103484
0.00424589
0.00970874
0.00237103
0.00705554
0.000579808
0.00370109
4.44189e-06
0.00113814
0.00556398
0.0101199
0.004969
0.0103076
0.00429463
0.0103016
0.00303382
0.00904788
0.00132061
0.0063167
0.000207579
0.00350005
-2.55362e-05
0.00116413
0.00546585
0.0101113
0.00484258
0.0102484
0.00419351
0.0104105
0.00327954
0.0100582
0.00193383
0.00843636
0.000631414
0.00589409
2.44643e-05
0.00345111
-3.39448e-05
0.00119925
0.00537469
0.0101051
0.00474962
0.0102057
0.00407774
0.0103664
0.00328562
0.010406
0.00225257
0.00974082
0.00107382
0.00799503
0.000218241
0.0057012
-5.68292e-05
0.003475
-3.18127e-05
0.00123048
0.00528466
0.0101009
0.00468038
0.0101765
0.00398517
0.0102996
0.00320588
0.0104479
0.0023237
0.0103363
0.0013511
0.00946508
0.000476438
0.00773765
-2.10991e-06
0.00564658
-8.18495e-05
0.00352499
-2.46497e-05
0.00125515
0.00519981
0.0100947
0.00463234
0.0101501
0.00392479
0.0102389
0.00311689
0.0103901
0.00226444
0.0105091
0.00142519
0.010263
0.000657365
0.00928458
0.000111128
0.00762467
-0.000100026
0.00566466
-7.97714e-05
0.00358001
-1.85244e-05
0.00127252
0.00511885
0.0100854
0.00460852
0.0101206
0.00389658
0.0101794
0.00305065
0.0103072
0.0021595
0.010496
0.0013539
0.0105816
0.000689548
0.0102315
0.000194045
0.00920232
-7.84103e-05
0.00760298
-0.000129455
0.00571367
-6.82229e-05
0.0036288
-1.27594e-05
0.00128465
0.00504332
0.0100764
0.00460524
0.0100893
0.00390427
0.0101149
0.00301689
0.0102142
0.00205454
0.010414
0.00120422
0.0106467
0.000580555
0.010692
0.000171883
0.0102538
-6.82898e-05
0.00919185
-0.0001596
0.0076324
-0.00012885
0.00577345
-5.43938e-05
0.00366961
-7.93616e-06
0.00129146
0.00496997
0.0100661
0.0046271
0.0100563
0.00395412
0.0100402
0.00302972
0.0101042
0.0019692
0.0103006
0.00102096
0.010599
0.000370645
0.0108567
2.95131e-05
0.0108345
-0.000126426
0.0103111
-0.000193901
0.00922566
-0.000184738
0.00768742
-0.000115014
0.00583293
-4.08418e-05
0.0037014
-4.99074e-06
0.00129564
0.00490123
0.0100555
0.00467022
0.0100231
0.00405262
0.00995981
0.00309849
0.00997207
0.00192389
0.0101514
0.000828177
0.0104937
9.26872e-05
0.0108784
-0.000219671
0.0111057
-0.000279668
0.0109878
-0.000275143
0.0103916
-0.000247368
0.0092872
-0.000183056
0.00775437
-9.69967e-05
0.00588809
-2.89364e-05
0.00372435
-5.16159e-06
0.00129993
0.00483006
0.0100493
0.00473223
0.009995
0.00420198
0.00987383
0.00324573
0.00981435
0.00194131
0.00995495
0.000647387
0.010334
-0.000242117
0.0108279
-0.000556946
0.0112158
-0.000523429
0.0113478
-0.000425867
0.0111377
-0.000345473
0.0104886
-0.000263278
0.00936648
-0.000168336
0.00782466
-7.74848e-05
0.00593568
-2.224e-05
0.00374042
-1.06743e-05
0.00130992
0.00475808
0.0100464
0.00480481
0.00997616
0.004403
0.0097956
0.00348331
0.00963629
0.00205631
0.00970124
0.000495487
0.0101063
-0.000629402
0.0107223
-0.00098253
0.0112521
-0.000842659
0.0115346
-0.000648303
0.0115695
-0.000497517
0.0112891
-0.000371824
0.0105962
-0.000255823
0.00945287
-0.000147799
0.00789393
-6.35617e-05
0.00597619
-2.3061e-05
0.00375187
-1.98574e-05
0.00132913
0.00467663
0.0100512
0.0048782
0.00997439
0.00464247
0.00973614
0.00383062
0.00944969
0.00230835
0.00938338
0.000415314
0.00978265
-0.00107599
0.0105509
-0.00150626
0.0112462
-0.00123521
0.0116432
-0.000928001
0.0118136
-0.000703498
0.0117744
-0.000524257
0.0114404
-0.00037128
0.0107106
-0.000238289
0.00954245
-0.000129044
0.00795854
-5.65755e-05
0.00600907
-3.22205e-05
0.00376331
-2.98526e-05
0.00135822
0.00458694
0.0100634
0.00493624
0.00999221
0.00490539
0.0097127
0.00428357
0.00928227
0.00275744
0.00900153
0.000466841
0.0093295
-0.00158121
0.010288
-0.00216497
0.011206
-0.0017002
0.0117098
-0.00125339
0.0119673
-0.00095535
0.0120648
-0.000721827
0.0119714
-0.000522846
0.0115911
-0.000354444
0.0108259
-0.000218473
0.00963106
-0.00011731
0.00801838
-6.01308e-05
0.00603636
-4.68578e-05
0.00377918
-3.5796e-05
0.00139285
0.00447946
0.010082
0.00496932
0.0100316
0.005156
0.00974055
0.00481884
0.00917851
0.00345308
0.00858529
0.000779411
0.00869125
-0.00213628
0.00988369
-0.00298597
0.0111132
-0.00223747
0.0117474
-0.00161649
0.0120727
-0.00123649
0.0122479
-0.000951328
0.0122936
-0.000711354
0.012159
-0.000504603
0.0117403
-0.000335555
0.0109421
-0.000203763
0.00971685
-0.000115121
0.0080726
-7.10972e-05
0.0060599
-5.8632e-05
0.00380061
-3.33162e-05
0.00142486
0.00435847
0.0101058
0.0049582
0.010092
0.0053677
0.00982099
0.00537594
0.00918205
0.00438939
0.00824231
0.00158891
0.00777115
-0.00264074
0.00919586
-0.00398781
0.0108831
-0.00282797
0.0117011
-0.00199297
0.012119
-0.00152388
0.0123593
-0.0011968
0.0124929
-0.00092536
0.0125069
-0.000686311
0.01234
-0.000482266
0.0118863
-0.000317146
0.0110547
-0.000195905
0.00979699
-0.000119867
0.00812048
-8.28527e-05
0.00608316
-6.1981e-05
0.0038279
-2.25792e-05
0.00144645
0.00421906
0.0101289
0.00490099
0.0101642
0.00550227
0.00995624
0.00588793
0.00930994
0.0054507
0.00811974
0.0032116
0.00662365
-0.00269662
0.00782579
-0.00502469
0.0102361
-0.00329343
0.0113537
-0.00228312
0.011993
-0.00176231
0.0123598
-0.00142193
0.0125845
-0.00114327
0.0127103
-0.000890035
0.01271
-0.000657839
0.0125149
-0.000459746
0.0120282
-0.000304333
0.0111624
-0.000195953
0.00987242
-0.00012752
0.00816424
-8.89793e-05
0.00610912
-5.35181e-05
0.00385772
-6.98056e-06
0.00145296
0.00406862
0.0101493
0.00479317
0.0102355
0.00554015
0.0101274
0.00626874
0.00957394
0.00651774
0.00824314
0.00516484
0.00314362
0.00301897
9.76859e-05
0.00280045
-0.00117326
0.0022038
-0.00304136
0.00439903
-0.00228699
0.00373056
-0.00180586
0.0101179
-0.00136808
-0.00226574
0.0113321
-0.00183169
0.0120597
-0.00155739
0.0124925
-0.00132351
0.0127642
-0.00108785
0.0129075
-0.000850072
0.0129016
-0.000628467
0.0126829
-0.000442697
0.0121659
-0.000299734
0.0112655
-0.000199289
0.00994341
-0.000132548
0.00820687
-8.41412e-05
0.00613896
-3.47389e-05
0.00388482
7.63952e-06
0.00144521
0.0039049
0.0101641
0.00464772
0.010296
0.0054777
0.0102968
0.00645938
0.00993779
0.00737728
0.00871363
0.00736708
0.00298589
0.00305891
0.000896342
0.00234371
0.00185467
0.0020625
-0.00302924
0.00278867
-0.000421614
0.000843005
0.000749201
-0.00117089
-0.00107535
0.000553443
0.000866967
-0.00169016
0.00428529
-0.000954564
0.00124957
0.000866494
-0.000659562
-0.000621022
0.00317702
-0.000515036
-0.000878874
0.00941888
-0.000689619
-0.000975046
0.00389283
-0.00152449
0.0110266
-0.00147058
0.0119734
-0.00138786
0.0125575
-0.00123958
0.0129156
-0.00103312
0.0130901
-0.000807512
0.0130801
-0.000601144
0.0128408
-0.000429438
0.012295
-0.000298156
0.0113638
-0.000199844
0.01001
-0.000128939
0.00825098
-6.98479e-05
0.00617373
-1.40635e-05
0.00390612
1.71384e-05
0.00142799
0.00373809
0.0101736
0.00446803
0.0103427
0.00533401
0.0104408
0.00645433
0.0103005
0.0078295
0.00948636
0.00919834
0.00328829
0.0035912
0.00292566
0.0019132
0.00388644
0.00106255
0.00103823
0.000754064
0.000380193
0.000507316
-0.000995213
0.000667413
-0.000769614
0.000523977
-0.000882403
0.000474576
0.00102822
-0.000474576
0.000940682
-0.000476285
0.00110507
0.000671529
-0.000281138
0.000281138
-0.000171354
0.00263038
-0.000256583
-0.000316744
0.000907151
0.0035278
-0.00051488
-0.000408604
0.00864611
-0.000343287
0.00318727
-0.000350059
-0.00105427
0.0106069
-0.00123259
0.0118164
-0.00126901
0.0125855
-0.00116293
0.0130448
-0.00097232
0.0132542
-0.000765728
0.013244
-0.000577374
0.0129882
-0.000418865
0.0124152
-0.000293495
0.0114569
-0.000195558
0.010076
-0.000117844
0.00829852
-5.05646e-05
0.00621012
2.56245e-06
0.0039203
1.9165e-05
0.00140874
0.00356384
0.0101798
0.00426766
0.0103753
0.00512716
0.0105484
0.00630125
0.0105949
0.00789176
0.0102374
0.0100728
0.00411552
0.00449864
0.00495759
0.00221492
0.00576384
0.00278609
0.00120871
0.00026335
0.0002519
0.000944208
-0.0015904
0.00192607
0.000726754
0.00065669
0.000620569
-0.000240223
0.000358334
-0.000358334
0.000354855
-0.000764068
0.00064628
-5.32584e-05
0.00225053
-7.68056e-05
-5.88626e-05
-0.000113228
0.00298699
-0.000207845
-0.000206633
0.007995
-0.000198355
0.00280415
-0.000160494
0.00198085
-4.03224e-05
-4.0622e-05
-0.000815005
0.0101893
-0.00110069
0.0116477
-0.00118283
0.0126049
-0.00107826
0.0131503
-0.000908642
0.0133968
-0.00072642
0.0133926
-0.000555475
0.0131245
-0.000409061
0.0125302
-0.00028657
0.0115475
-0.000186536
0.0101444
-0.000102391
0.00835007
-3.44755e-05
0.00624713
1.05577e-05
0.00392866
1.56234e-05
0.00139301
0.00338966
0.010184
0.00404754
0.0103988
0.00487922
0.0106244
0.00603981
0.0108088
0.00767608
0.0108117
0.0101426
0.0101669
0.00635799
0.00352088
0.00676717
0.00409057
0.00526789
-0.00177188
0.000303254
0.000342655
0.00660879
0.000903331
0.000542179
2.35134e-05
0.000275461
0.00133024
0.000270764
0.000285008
0.000241679
0.000587911
-1.85134e-05
0.000188416
0.000542326
-1.35342e-05
0.00182265
-2.39722e-05
-2.54477e-05
0.00269427
-9.77198e-05
-0.000134107
0.00746922
-0.000155639
0.00257974
-8.46998e-05
0.00170046
-2.03142e-05
-1.79994e-05
-0.000509899
0.000479136
-9.89226e-06
-8.45594e-06
-0.000731365
0.00981811
-0.00104432
0.0115082
-0.00107813
0.0126041
-0.000986268
0.0132273
-0.000844213
0.013514
-0.000688063
0.0135247
-0.000535993
0.013251
-0.000397452
0.0126406
-0.000276521
0.0116373
-0.0001744
0.0102163
-8.96586e-05
0.00840506
-2.50604e-05
0.00628264
9.6716e-06
0.00393442
8.52112e-06
0.00138461
0.00320974
0.0101866
0.00381907
0.0104138
0.00460031
0.0106768
0.00570956
0.0109557
0.00728991
0.0111941
0.0096725
0.0112832
-0.00790294
0.0146279
0.00477165
0.0054371
0.00741324
0.00129538
0.00142178
0.00193111
0.00166977
0.00113377
-0.000830934
0.00147637
-0.00201854
0.0029224
0.000545927
0.000169874
0.00015629
0.000460298
-5.1172e-06
0.000440728
-5.76824e-06
0.00162456
-1.0155e-05
-1.22757e-05
0.00250549
-5.99015e-05
-0.00012043
0.00702156
-0.000164469
0.00241319
-6.34926e-05
0.00155775
-1.08384e-05
-7.56719e-06
-0.000426672
0.000411303
-4.91133e-06
-3.86625e-06
-0.000147834
0.000137888
-0.000755426
0.00952835
-0.000954353
0.0113837
-0.000960176
0.0125774
-0.000890653
0.0132734
-0.000780642
0.0136063
-0.000651225
0.0136397
-0.000515304
0.0133688
-0.000384503
0.0127484
-0.000265923
0.0117288
-0.000164521
0.0102911
-8.14761e-05
0.00846131
-2.31773e-05
0.00631555
2.95609e-06
0.00393986
1.2334e-06
0.00138348
0.00303364
0.0101859
0.00358193
0.0104228
0.00430386
0.0107115
0.00533462
0.0110508
0.00681406
0.0114326
0.00896544
0.0119004
0.0133479
0.0125639
0.00900017
-0.0042924
-0.00346132
0.00199521
0.00153082
0.00906262
0.00537371
0.00310635
0.00111141
0.00356097
0.000967342
-0.00403062
0.00166951
0.00120018
0.000132786
0.000127032
0.000403218
-2.20294e-06
0.000393462
-2.73729e-06
0.00151081
-4.61805e-06
-8.40306e-06
0.00234741
-5.51442e-05
-0.000161171
0.00667128
-0.000244668
0.00225144
-6.89867e-05
0.00146036
-8.18252e-06
-4.94035e-06
-0.000387326
0.000378662
-2.43251e-06
-1.6205e-06
-0.000123166
0.000118254
-0.000753091
0.00932619
-0.00081603
0.011239
-0.000829154
0.0125153
-0.000799576
0.0132917
-0.000725465
0.01368
-0.000620201
0.0137441
-0.000497967
0.0134821
-0.00037377
0.0128561
-0.000258426
0.0118227
-0.000158055
0.0103677
-7.90523e-05
0.00851711
-2.68596e-05
0.00634548
-5.6431e-06
0.00394676
-4.29171e-06
0.00138828
0.0028552
0.0101863
0.00334205
0.0104272
0.00399505
0.0107308
0.00493912
0.0111081
0.00628679
0.0115772
0.00820566
0.0121935
0.0116702
0.0135777
-0.00696313
0.0163763
0.00554107
0.00667292
-0.00327933
0.00148793
-0.00301884
0.00319118
0.00182279
-0.00148793
-0.00182279
0.00185305
0.00157127
0.00111155
0.00207915
0.000116024
0.000113249
0.000375057
-1.0685e-06
0.000368266
-1.61769e-06
0.00141595
-3.8264e-06
-7.20165e-06
0.00217372
-8.37208e-05
-0.000286977
0.00648193
-0.000277499
0.00206566
-0.000136899
0.00135887
-8.53518e-06
-3.65204e-06
-0.000364391
0.000357934
-1.74422e-06
-1.06225e-06
-0.000111629
0.000109148
-0.000589815
0.00909925
-0.000655038
0.0110644
-0.000713007
0.0124285
-0.000722936
0.013289
-0.000680544
0.0137404
-0.000594943
0.0138411
-0.000483195
0.013592
-0.000364078
0.012962
-0.000251713
0.0119165
-0.000154245
0.010443
-8.00332e-05
0.00857016
-3.3086e-05
0.00637323
-1.31511e-05
0.00395574
-7.09959e-06
0.00139573
0.00268097
0.010185
0.00309947
0.0104281
0.00368193
0.0107415
0.00452844
0.0111407
0.00573968
0.0116562
0.00743898
0.0123432
0.0100969
0.0137673
0.0147172
0.0152346
0.00511863
-0.0020452
-0.00137873
0.00200159
0.00184327
0.00599746
0.0057932
-0.00157127
0.00137873
0.000108078
0.000106461
0.000354962
-9.2262e-07
0.000349082
-1.4178e-06
0.00129054
-3.94822e-06
-1.16144e-05
0.00199279
-0.000214431
-0.00020872
0.00622222
-0.000121891
0.00193308
-0.000218054
0.00118969
-2.68251e-05
-9.41733e-06
-0.000346134
0.000339059
-1.58075e-06
-7.84346e-07
-0.000105398
0.000103646
-0.000401853
0.00884549
-0.000527726
0.0108784
-0.000623448
0.0123282
-0.000665079
0.0132729
-0.000647375
0.0137925
-0.000577434
0.0139352
-0.000474065
0.0137021
-0.000358001
0.0130684
-0.000247762
0.0120101
-0.000153728
0.0105169
-8.24908e-05
0.00861954
-3.72915e-05
0.0063977
-1.73247e-05
0.00396614
-7.44537e-06
0.00140368
0.00250469
0.0101843
0.00285828
0.0104276
0.00336569
0.0107437
0.00411833
0.0111527
0.00519026
0.0116893
0.00668288
0.0124131
0.00876722
0.0136726
0.0124635
0.0160227
-0.00417271
0.0120372
0.0133668
-0.00108988
0.00149534
0.0015952
0.000753326
-0.000988188
0.00410387
0.000102711
0.000101277
0.000336024
-9.70854e-07
0.000326292
-1.93859e-06
0.0010953
-3.92087e-05
-8.10547e-05
0.00184546
-0.000121333
-8.32854e-05
0.00595403
-5.07941e-05
0.0017791
-5.57531e-05
0.00101833
-6.44388e-05
-7.68311e-05
-0.000318937
0.000297252
-5.22936e-06
-2.10611e-06
-0.000100492
9.88858e-05
-0.000291694
0.00860899
-0.000441804
0.0106966
-0.00056167
0.012225
-0.000626989
0.0132528
-0.000626497
0.0138422
-0.000563784
0.0140254
-0.000462252
0.0138068
-0.00034936
0.0131702
-0.000241897
0.0120983
-0.000150886
0.0105855
-8.19775e-05
0.00866419
-3.95875e-05
0.00642036
-1.81256e-05
0.00397705
-5.56909e-06
0.00140967
0.00233398
0.0101834
0.00261766
0.0104243
0.00305381
0.0107407
0.00370966
0.0111517
0.00465203
0.0116919
0.00594894
0.0124226
0.00765281
0.0135279
0.0103932
0.015741
0.0115999
0.016459
-0.00204068
0.00710424
0.00970571
-0.00140259
-0.000430929
0.0010378
0.000322446
0.00276462
-0.000401874
-0.000299122
9.7907e-05
9.59592e-05
0.000269955
-1.19926e-05
0.000215865
-2.70333e-05
0.000927192
-2.30603e-05
-7.29196e-06
0.0017242
-2.85863e-05
-4.69882e-05
0.00574433
-3.55735e-05
0.00169164
-1.8434e-05
0.000874743
-1.31677e-06
-2.15217e-06
-0.000188557
0.000124082
-4.95625e-05
-9.38531e-05
8.86029e-05
-0.000234794
0.00840121
-0.000389101
0.0105235
-0.000526623
0.0121242
-0.000610189
0.0132363
-0.000615151
0.0138936
-0.000550271
0.0141135
-0.000447583
0.013905
-0.00033713
0.0132656
-0.000232049
0.0121794
-0.000143993
0.0106478
-7.95929e-05
0.00870422
-3.81279e-05
0.00644073
-1.61171e-05
0.00398785
-2.2526e-06
0.00141235
0.00216184
0.0101823
0.00238047
0.0104219
0.00274123
0.0107363
0.00330692
0.0111445
0.00412559
0.0116774
0.00525019
0.0123914
0.00668019
0.0133949
0.0087151
0.0152076
0.0102298
0.0171113
0.00855991
0.0150028
0.00349764
0.00691036
-0.000251593
-0.000450549
0.00170049
-0.000156414
-0.000182477
-0.000125815
0.000762088
0.000196666
0.00053877
-7.56819e-05
7.66004e-05
4.95625e-05
0.00010101
9.37061e-05
0.00084759
-5.62705e-07
-1.01263e-06
0.00165906
-1.46138e-05
-3.89749e-05
0.00558043
-3.24547e-05
0.00163593
-1.27457e-05
0.000830214
-8.88788e-07
-3.01189e-07
-9.1554e-05
9.02161e-05
-0.000200488
0.0082124
-0.000362096
0.010359
-0.000516872
0.0120313
-0.000606446
0.0132282
-0.000600556
0.0139444
-0.000528343
0.0141946
-0.000426185
0.0139942
-0.000318916
0.0133527
-0.000219112
0.0122545
-0.000134728
0.0107032
-7.33092e-05
0.00873944
-3.36254e-05
0.00645861
-1.11722e-05
0.00399708
8.03481e-07
0.00141203
0.00199516
0.0101813
0.00214471
0.0104176
0.00243654
0.0107278
0.00291135
0.0111313
0.00361858
0.0116523
0.00458686
0.0123401
0.00580376
0.0132681
0.00737601
0.0147324
0.00873947
0.0166973
0.00844813
0.0172233
0.00558666
0.0129138
0.00145541
0.0053295
7.24183e-05
5.44481e-05
-0.00131444
0.00109645
-5.84307e-06
-2.78512e-05
-2.28339e-05
-4.11909e-05
-0.000396574
0.000278075
-3.80704e-05
-4.04132e-05
0.000120959
8.96432e-05
8.86211e-05
0.000816557
-3.22341e-07
-7.73873e-07
0.00160992
-1.3274e-05
-3.89159e-05
0.00543873
-2.03277e-05
0.00159129
-1.41023e-05
0.000804578
-5.54204e-07
-4.06972e-07
-8.83199e-05
8.7414e-05
-0.000183227
0.00803317
-0.000365249
0.0102077
-0.000532302
0.0119577
-0.000603753
0.0132314
-0.000574929
0.0139909
-0.000496156
0.0142645
-0.000399149
0.0140743
-0.000295799
0.0134295
-0.000201394
0.0123211
-0.00012292
0.010753
-6.42207e-05
0.00877013
-2.77021e-05
0.00647551
-6.14375e-06
0.0040043
3.96285e-06
0.00140838
0.00182747
0.0101801
0.00191456
0.0104127
0.00213301
0.0107207
0.00252448
0.0111156
0.00312659
0.0116227
0.00395983
0.01228
0.00500199
0.0131416
0.00627356
0.0143721
0.00742252
0.0160498
0.00764456
0.0175005
0.00636052
0.0164498
0.00338831
0.0109815
0.000660021
0.00467748
-1.4916e-05
9.66284e-06
-0.00103997
0.00103378
2.89437e-05
4.99945e-05
6.43477e-05
4.68525e-05
-0.000194968
0.000189413
-4.14078e-07
-0.000216071
-6.75507e-06
-0.000234938
-3.73165e-06
2.07054e-06
-8.05461e-05
4.24737e-05
8.70824e-05
8.6297e-05
0.000792262
-6.384e-07
-5.45226e-07
0.00156969
-1.74419e-05
-3.22321e-05
0.00530255
-1.56063e-05
0.00155364
5.86647e-07
-5.08316e-06
0.000779167
-3.67927e-07
-7.67067e-07
-8.589e-05
8.53075e-05
-0.000191194
0.00785822
-0.0004019
0.0100764
-0.000556885
0.0119103
-0.000577794
0.0132345
-0.000532534
0.0140273
-0.000454624
0.0143201
-0.000362418
0.0141409
-0.00026829
0.0134966
-0.000181415
0.0123796
-0.000108029
0.0107971
-5.52868e-05
0.00879783
-2.07323e-05
0.00649043
-3.84736e-07
0.00400897
5.63338e-06
0.00140319
0.00166522
0.0101778
0.00168736
0.0104069
0.00183748
0.0107093
0.00214514
0.0110996
0.00264968
0.0115934
0.00336274
0.0122192
0.00426199
0.0130202
0.00532198
0.0140917
0.00630729
0.0154868
0.00669146
0.0170032
0.00620819
0.0176529
0.00455254
0.0152862
0.00200069
0.00964166
0.000264759
0.00436712
4.12589e-05
6.40589e-06
-0.00102773
0.00103055
-1.66149e-05
5.30215e-07
1.57379e-05
-0.000245761
0.000258176
1.66319e-05
-0.000226251
3.04602e-05
-0.000203635
4.19191e-05
3.27146e-05
-3.41166e-05
3.37073e-05
-4.0837e-05
-4.45442e-05
8.46536e-05
8.40938e-05
0.000448599
-1.05039e-06
-6.35695e-07
0.000314762
0.00153149
-7.82989e-06
-2.55343e-06
-3.19754e-05
0.00515867
-1.59133e-05
0.00152027
-4.1387e-06
-5.77221e-07
0.000475504
-2.63838e-05
0.000477493
-7.1799e-06
-8.33267e-05
8.29408e-05
-0.000239046
0.00769562
-0.000470347
0.00999057
-0.000540054
0.0118732
-0.000525988
0.0132275
-0.000476328
0.0140486
-0.000405601
0.0143631
-0.000325143
0.0141976
-0.000239964
0.0135553
-0.000161209
0.0124328
-9.41641e-05
0.0108362
-4.49764e-05
0.00882221
-1.31165e-05
0.0065035
4.09023e-06
0.00401072
6.47241e-06
0.00139683
0.00150263
0.0101771
0.00146609
0.0104002
0.00154563
0.0106985
0.00177282
0.0110826
0.00218409
0.0115647
0.00279231
0.0121644
0.00357071
0.0129102
0.00447963
0.013864
0.00534292
0.0150566
0.00578765
0.0163905
0.00565038
0.0175615
0.00484946
0.0173563
0.00314173
0.0141458
0.0011424
0.00876482
4.88254e-05
0.00418992
4.48232e-05
8.5093e-05
-0.00102264
0.0010134
5.12471e-05
1.48266e-05
-0.000244786
0.000384097
-1.61045e-06
-0.000154496
9.02875e-07
-0.000261932
1.80496e-05
1.21973e-05
-0.000112604
0.000125591
3.70917e-06
-9.05326e-05
8.40699e-06
-6.64219e-05
1.79228e-05
8.1887e-05
8.12449e-05
0.000286231
2.09851e-06
0.000473432
-3.8809e-06
0.000472311
-1.56559e-06
0.00149641
-6.0896e-06
-2.3573e-06
-3.95741e-05
0.00499196
-3.37658e-05
0.00148491
-3.81305e-06
-7.39278e-07
0.000469672
-1.58145e-06
0.00046898
-2.23387e-08
0.000280546
-1.57478e-06
-0.000349506
0.00757302
-0.000482524
0.00993173
-0.000482094
0.0118284
-0.000454584
0.0132057
-0.000413339
0.0140563
-0.000357197
0.0143952
-0.000287348
0.014245
-0.000213748
0.013608
-0.000141062
0.0124798
-8.02568e-05
0.0108718
-3.52409e-05
0.00884447
-6.53064e-06
0.00651434
6.78325e-06
0.00401061
5.98866e-06
0.0013911
0.00134382
0.0101752
0.0012509
0.0103921
0.00126234
0.0106846
0.00140776
0.0110632
0.0017301
0.0115374
0.00224021
0.0121163
0.00291788
0.0128174
0.00370949
0.013679
0.00448502
0.0147216
0.00496811
0.0158766
0.00499987
0.0170411
0.00462416
0.0177874
0.00367148
0.0168269
0.0021026
0.0131863
0.000623745
0.00819055
-3.40314e-05
0.00414706
2.83638e-05
4.94413e-05
-0.00101696
0.00102281
3.94484e-05
8.18718e-05
-0.000397234
0.000422697
1.81185e-05
8.21367e-06
9.48865e-07
1.0433e-06
-3.28375e-05
3.13002e-05
-0.000134915
-1.25187e-06
-3.18859e-05
3.02737e-06
-2.63396e-05
3.00772e-05
-1.79228e-05
8.33303e-05
0.000277725
-1.16097e-06
0.000276419
-3.34955e-07
0.000464854
-2.04743e-06
0.000463571
-1.18376e-06
0.00145494
-6.48899e-06
-3.37063e-06
-8.13132e-05
0.00483652
-0.000113475
0.00142954
-4.90634e-06
-3.80329e-06
0.000461204
-1.50591e-06
0.000460314
5.93051e-08
0.000275051
-2.90883e-07
0.000274843
1.08655e-07
8.17378e-05
-0.000424765
0.00751603
-0.00040689
0.00985711
-0.000391336
0.0117652
-0.000378947
0.0131708
-0.000353202
0.0140519
-0.000311208
0.014419
-0.000254523
0.0142856
-0.000188729
0.0136559
-0.00012426
0.0125238
-6.81415e-05
0.0109049
-2.68372e-05
0.00886488
-1.44185e-06
0.00652276
7.86504e-06
0.00400875
5.10467e-06
0.00138601
0.00118844
0.0101705
0.00104399
0.0103832
0.000985508
0.0106688
0.00105186
0.0110414
0.00128324
0.0115097
0.00170179
0.0120764
0.00229167
0.0127423
0.00299604
0.0135322
0.00370542
0.0144593
0.00421341
0.0154763
0.00436251
0.0165145
0.00418983
0.0174757
0.00368752
0.0177719
0.00270442
0.0162256
0.00138097
0.0124296
0.000316613
0.00784031
-0.000129589
0.00411942
8.44797e-05
7.33767e-05
-0.00104689
0.00105851
1.69902e-05
2.55737e-05
-0.000451934
0.000479068
-2.52207e-07
1.29167e-05
3.13582e-05
2.15404e-05
-4.15683e-05
5.97802e-05
-3.33216e-05
3.22783e-05
-3.31046e-05
8.05618e-05
8.02144e-05
0.000273194
-4.8528e-07
0.000272166
-2.12755e-07
0.000456093
-2.31601e-06
0.000454015
-1.38286e-06
0.00137434
-1.19509e-05
-1.45245e-05
-0.00020646
0.00478766
-0.000169942
0.00131673
-2.10274e-05
-3.49908e-05
0.000450907
-1.91948e-06
0.000447885
-8.66218e-07
0.000270834
-2.43837e-07
0.000270738
8.05024e-08
7.99089e-05
8.0002e-05
-0.000311683
0.00741968
-0.000294561
0.00975957
-0.000305777
0.0116915
-0.000311228
0.0131286
-0.000302187
0.0140428
-0.000273135
0.0144377
-0.000226957
0.0143239
-0.000169368
0.0137011
-0.000108449
0.0125642
-5.63588e-05
0.0109346
-1.82107e-05
0.00888169
2.5045e-06
0.00652819
8.07589e-06
0.00400582
3.5984e-06
0.00138251
0.0010377
0.0101664
0.000844779
0.0103697
0.000721944
0.0106478
0.000702784
0.0110176
0.000843252
0.0114822
0.00117175
0.0120393
0.0016831
0.0126851
0.00231843
0.0134187
0.00298362
0.0142539
0.00350863
0.0151646
0.0037518
0.0160872
0.00370915
0.0169958
0.00343686
0.0177267
0.00287776
0.0175991
0.00195699
0.01565
0.000882914
0.0118635
0.000107597
0.00760314
-0.000176639
0.00413149
6.98393e-05
9.47846e-05
-0.00107799
0.00108518
7.74228e-05
5.40126e-05
-0.000501916
0.000518041
-6.60136e-08
1.13036e-06
4.42172e-06
-1.55753e-06
-0.000100965
0.000101246
-4.17703e-07
-9.06152e-05
2.66139e-06
7.58429e-05
1.54073e-05
6.84166e-06
7.95047e-05
7.92805e-05
0.000268823
-4.69955e-07
0.000267623
-2.56222e-07
0.000440719
-4.8614e-06
0.000431994
-5.85752e-06
0.00125806
-5.98628e-05
-8.80297e-05
-0.000141232
0.00465278
-3.59192e-05
0.001233
-8.1427e-05
-6.38323e-05
0.000420775
-9.99188e-06
0.000402306
-1.65921e-05
0.00026587
-2.6464e-07
0.000264849
7.46458e-08
7.90208e-05
7.90874e-05
-0.000170728
0.00729653
-0.000204392
0.00965843
-0.000237645
0.0116176
-0.000259809
0.0130858
-0.000262963
0.0140323
-0.000245639
0.0144563
-0.000205891
0.0143603
-0.000151602
0.0137444
-9.41022e-05
0.012602
-4.59723e-05
0.0109624
-1.33136e-05
0.00889744
3.61859e-06
0.00653255
6.5845e-06
0.00400269
2.58283e-06
0.00138008
0.000890889
0.0101589
0.000659469
0.0103528
0.000469512
0.010622
0.000366234
0.0109852
0.00040846
0.0114521
0.000645039
0.0120095
0.00108074
0.0126415
0.00166475
0.0133402
0.00229875
0.0141042
0.00284069
0.0149219
0.00316305
0.015754
0.00322954
0.0165671
0.00308953
0.0173437
0.0027661
0.0178388
0.00220732
0.0173492
0.0013901
0.0151431
0.000533682
0.0114375
-2.44002e-05
0.00745082
-0.000182855
0.00421981
4.62865e-05
4.78629e-05
-0.00110002
0.00112155
4.83861e-05
8.0112e-05
-0.000547844
0.000566505
3.02844e-05
2.87074e-05
8.93483e-06
1.53338e-05
-0.000104829
0.00010522
-4.05035e-07
-0.000103812
1.66367e-07
0.000104745
9.94694e-07
-5.80549e-07
-2.49312e-05
2.45383e-05
-2.22566e-05
1.5415e-05
7.86057e-05
7.83307e-05
0.000260821
-8.66527e-07
0.000255802
-9.13442e-07
0.000378356
-3.59363e-05
0.000348434
-5.81491e-05
0.00115484
-4.58206e-05
-1.7513e-05
-4.54771e-05
0.00452138
6.22314e-06
0.00112936
-1.11084e-05
5.18625e-07
0.000326809
-6.00063e-05
0.00030864
-4.5781e-05
0.000247435
-1.74678e-06
0.000233981
-3.23182e-06
7.80479e-05
7.81146e-05
-9.80642e-05
0.00718963
-0.000147935
0.00956814
-0.000190626
0.0115481
-0.000223084
0.0130458
-0.000235634
0.0140223
-0.000224334
0.0144748
-0.000189153
0.0143979
-0.000136463
0.0137868
-8.28721e-05
0.0126388
-3.73177e-05
0.0109863
-9.03088e-06
0.0089098
4.49255e-06
0.00653453
5.32844e-06
0.0039999
1.37398e-06
0.0013788
0.000751537
0.010149
0.000487914
0.0103304
0.000236836
0.0105864
4.26421e-05
0.0109455
-1.93567e-05
0.0114139
0.000117656
0.0119792
0.00047859
0.0126119
0.00101722
0.013288
0.0016383
0.0140006
0.00220389
0.0147417
0.00258984
0.0154953
0.00275366
0.0162305
0.00271584
0.0169412
0.00252815
0.0175822
0.00219372
0.0178528
0.00166719
0.0170724
0.000963951
0.0147128
0.000290836
0.0111221
-0.000109106
0.00737742
-0.000226687
0.000166716
0.00428061
-0.00113205
0.0010944
8.36843e-05
3.73351e-05
-0.000592459
0.0006222
7.10047e-06
1.17671e-05
3.44712e-05
1.98001e-05
-0.000131125
0.000139959
2.15032e-05
-0.000120435
1.80537e-05
0.000111367
2.81903e-06
6.28713e-06
-2.5138e-05
2.47452e-05
-2.49619e-05
2.55425e-05
7.72396e-05
7.63029e-05
0.000208258
-1.02367e-05
0.000171328
-2.12722e-05
0.000283054
-2.02599e-05
0.000272081
-6.62751e-06
0.0010903
-6.91795e-06
4.98284e-07
-2.49541e-05
0.00443797
1.01663e-05
0.0010944
-1.79407e-06
3.77085e-06
0.000263176
-2.38998e-06
0.000263349
2.3757e-07
0.000150949
-3.97694e-05
0.000105164
7.45326e-05
7.12941e-05
-6.38598e-05
0.00710558
-0.000112891
0.00949009
-0.000160918
0.0114854
-0.000199799
0.0130096
-0.000221777
0.0140195
-0.000214571
0.0145001
-0.000178001
0.0144393
-0.00012437
0.0138283
-7.14044e-05
0.0126726
-3.01846e-05
0.0110072
-5.14989e-06
0.00891906
3.86863e-06
0.00653572
3.49817e-06
0.00399768
7.5899e-07
0.0013782
0.000618548
0.0101361
0.000336108
0.0103017
2.66162e-05
0.0105407
-0.000260426
0.0108904
-0.000438012
0.011364
-0.000414239
0.0119464
-0.000135434
0.0125931
0.000366331
0.0132641
0.000987912
0.0139391
0.00158415
0.0146205
0.00203182
0.0153003
0.00228102
0.0159683
0.00233755
0.0166093
0.00224435
0.0172254
0.00203748
0.0177389
0.00171669
0.0178036
0.0012376
0.0167988
0.00064328
0.0143601
0.00011782
0.010895
-0.000181588
0.00733284
-0.000741106
0.00191533
6.27544e-05
2.4034e-05
-0.000250603
0.000197166
0.00433559
-0.000650183
-7.34632e-06
5.10551e-06
4.27049e-06
-0.000168327
0.000172331
3.07295e-06
-0.000161807
5.36902e-06
0.000153307
2.12408e-05
1.13731e-05
-5.19178e-05
6.10885e-05
1.24023e-05
-3.38569e-05
2.75698e-05
6.10543e-05
3.97694e-05
8.48958e-05
7.82335e-05
0.000257637
-1.20038e-06
0.000258306
-1.90148e-07
0.00107314
-4.56137e-06
7.80498e-07
-1.96349e-05
0.00438368
9.83176e-06
0.00108111
-1.33167e-06
3.41301e-06
0.000256673
-2.50904e-07
0.000259303
1.07929e-06
7.581e-05
7.60449e-05
-4.68646e-05
0.00703925
-9.20587e-05
0.00942119
-0.000143838
0.0114295
-0.000192306
0.0129801
-0.000217889
0.0140228
-0.000207822
0.0145299
-0.000166364
0.0144812
-0.000110655
0.0138673
-5.95151e-05
0.0127015
-2.34551e-05
0.011025
-4.15873e-06
0.00892662
2.49118e-06
0.00653671
1.52862e-06
0.00399681
6.48319e-07
0.00137728
0.000495397
0.0101202
0.000206423
0.0102658
-0.00015187
0.010481
-0.000535287
0.0108155
-0.000841863
0.0112951
-0.000952743
0.0119022
-0.000766711
0.012578
-0.000304656
0.0132633
0.000335204
0.0139168
0.000975653
0.0145482
0.00148384
0.0151687
0.00181098
0.0157709
0.00195334
0.0163528
0.00194629
0.016908
0.00182496
0.0174383
0.00162276
0.0178332
0.00132316
0.017718
0.000896502
0.0165454
0.000402105
0.014076
-1.48357e-05
0.0107287
-0.000233037
0.00731606
0.00199477
4.9049e-05
6.98903e-05
-0.000287424
0.000326117
1.70105e-05
6.95455e-06
-0.000266082
2.54144e-06
1.26523e-07
-0.000250332
0.000154761
0.00443229
-0.000163226
4.52593e-07
-1.47137e-06
-0.000109243
0.000172981
4.52519e-06
1.39673e-05
-8.87433e-05
9.14021e-05
5.11403e-07
-8.43328e-05
1.04412e-06
7.56633e-05
6.74492e-06
2.76218e-06
1.24092e-05
7.48462e-05
7.46392e-05
0.000255572
-8.39054e-07
0.000256479
-1.5362e-07
0.00106464
-4.0178e-06
7.091e-07
-1.72913e-05
0.00434414