/*--------------------------------*- C++ -*----------------------------------*\
| =========                 |                                                 |
| \\      /  F ield         | OpenFOAM: The Open Source CFD Toolbox           |
|  \\    /   O peration     | Version:  v1912                                 |
|   \\  /    A nd           | Website:  www.openfoam.com                      |
|    \\/     M anipulation  |                                                 |
\*---------------------------------------------------------------------------*/
FoamFile
{
    version     2.0;
    format      ascii;
    class       surfaceScalarField;
    location    "300";
    object      phi;
}
// * * * * * * * * * * * * * * * * * * * * * * * * * * * * * * * * * * * * * //

dimensions      [0 3 -1 0 0 0 0];
oriented        oriented;


internalField   nonuniform List<scalar> 
7196
(
0.00510622
0.00490078
0.00622975
0.00888448
0.0024589
0.00244188
0.00618594
0.0100508
0.00447052
0.00687285
0.000925965
0.00151591
0.00596186
0.0102331
0.00522357
0.00929776
0.00258457
0.00521424
0.000294296
0.00122161
0.00577383
0.010197
0.00527086
0.0101858
0.00373817
0.00814416
0.00128633
0.00422221
7.7887e-05
0.00114372
0.00562929
0.0101555
0.00510907
0.0103588
0.00419321
0.00973075
0.00232918
0.00710132
0.000564507
0.00373559
4.6923e-07
0.00114325
0.00550461
0.0101357
0.00494176
0.0103229
0.0042315
0.0103205
0.0029653
0.00909463
0.0012828
0.00638302
0.000194035
0.00354202
-2.92222e-05
0.00117248
0.00538915
0.0101275
0.00480907
0.0102684
0.00412387
0.0104305
0.00318797
0.0100978
0.00186666
0.00851078
0.000599689
0.00597737
1.28366e-05
0.00349996
-3.83942e-05
0.00121087
0.00528079
0.0101204
0.00470775
0.0102288
0.00400209
0.0103901
0.00317681
0.0104416
0.00215643
0.00980808
0.0010156
0.00809486
0.000192112
0.00579809
-6.79687e-05
0.00352954
-3.64393e-05
0.00124731
0.0051766
0.0101142
0.00462743
0.0102007
0.00390364
0.0103272
0.00308265
0.0104843
0.00220237
0.0103957
0.00126314
0.00956054
0.00042823
0.00785875
-2.39764e-05
0.0057541
-9.25587e-05
0.00358566
-2.98705e-05
0.00127718
0.00507912
0.0101055
0.00456791
0.0101737
0.00383539
0.0102689
0.00298067
0.0104292
0.00212084
0.0105658
0.0013097
0.0103491
0.000583097
0.00940567
7.24053e-05
0.00776236
-0.00011931
0.00578085
-9.08506e-05
0.00364664
-2.33044e-05
0.00130048
0.00498952
0.0100936
0.00453099
0.0101424
0.003799
0.0102101
0.00290072
0.0103489
0.00199599
0.0105541
0.00121319
0.0106623
0.000589013
0.0103432
0.000133805
0.00934427
-0.000110113
0.00775317
-0.000147025
0.00583702
-7.85869e-05
0.00370192
-1.70885e-05
0.00131757
0.00490642
0.0100821
0.00451606
0.0101085
0.00379653
0.0101449
0.00285356
0.0102573
0.00187011
0.0104748
0.00104009
0.0107272
0.000454997
0.0107964
8.95297e-05
0.0103875
-0.000115695
0.00934986
-0.000185731
0.00779187
-0.000144322
0.00590276
-6.38127e-05
0.00374864
-1.14092e-05
0.00132898
0.00482966
0.0100698
0.00452557
0.0100726
0.00383658
0.0100685
0.00285106
0.0101474
0.00176366
0.0103637
0.000832257
0.0106826
0.000222589
0.0109596
-7.3527e-05
0.0109594
-0.000190441
0.0104622
-0.000230985
0.00939511
-0.000205711
0.00785326
-0.000127748
0.00596669
-4.88489e-05
0.00378608
-7.12722e-06
0.00133611
0.00475725
0.0100574
0.00455906
0.0100363
0.00392356
0.00998562
0.00290508
0.0100144
0.0016947
0.0102163
0.000614159
0.0105818
-7.90988e-05
0.0109843
-0.000340763
0.0112268
-0.000360245
0.0111292
-0.000324212
0.0105555
-0.000274757
0.00946416
-0.000198152
0.00792367
-0.000106971
0.00602481
-3.52615e-05
0.00381422
-3.49382e-06
0.0013396
0.00468632
0.0100499
0.00461137
0.0100051
0.00406327
0.00989655
0.00303557
0.00985513
0.00168817
0.010021
0.000403423
0.0104271
-0.000437491
0.0109402
-0.000695832
0.0113393
-0.000617415
0.011484
-0.000486636
0.0112916
-0.000380081
0.0106608
-0.000280837
0.00954684
-0.000177985
0.00799468
-8.45715e-05
0.00607412
-2.42959e-05
0.00383502
-1.3148e-06
0.00134092
0.00461333
0.010046
0.004678
0.0099833
0.00425381
0.00981456
0.00325781
0.00967431
0.00177549
0.0097678
0.000219698
0.0102047
-0.00085456
0.0108441
-0.0011391
0.0113835
-0.000949814
0.0116717
-0.00071928
0.0117166
-0.00053949
0.011451
-0.000392189
0.0107722
-0.000264251
0.00963311
-0.000152289
0.0080624
-6.5914e-05
0.00611574
-1.55069e-05
0.00384921
6.62167e-07
0.00134026
0.00453455
0.0100498
0.00474532
0.00997866
0.00448645
0.00975067
0.00358887
0.0094835
0.00200061
0.00944919
0.000100664
0.00988684
-0.00133554
0.0106857
-0.00168514
0.0113902
-0.00135386
0.0117875
-0.00100757
0.01196
-0.000751091
0.0119282
-0.000547224
0.0116061
-0.000378564
0.0108865
-0.000238827
0.00971965
-0.00012732
0.00812381
-4.93471e-05
0.00614958
-8.74652e-06
0.00385862
1.8302e-06
0.00133843
0.00444559
0.010061
0.00480144
0.00999366
0.00474299
0.00972213
0.0040297
0.00930983
0.00241996
0.00906415
0.000110608
0.00943925
-0.00188827
0.0104396
-0.00236719
0.0113677
-0.00182986
0.0118662
-0.00133959
0.0121195
-0.00100726
0.0122162
-0.000747015
0.012128
-0.000529297
0.0117568
-0.000350894
0.0109985
-0.000210854
0.00980318
-0.000105309
0.00817977
-3.66201e-05
0.00617746
-4.35073e-06
0.0038648
2.47304e-06
0.00133595
0.00434307
0.0100785
0.00483219
0.0100302
0.00499244
0.0097442
0.00455427
0.00919756
0.00308947
0.00864032
0.000370673
0.00880409
-0.00250233
0.0100533
-0.00322249
0.0112949
-0.00238133
0.0119192
-0.00170921
0.0122358
-0.00129094
0.0124032
-0.000977422
0.0124466
-0.000716872
0.0123156
-0.00049747
0.0119034
-0.000321857
0.0111095
-0.000184897
0.00988277
-8.69903e-05
0.00823014
-2.66502e-05
0.00619976
-3.72295e-07
0.00386765
3.21431e-06
0.00133274
0.00422512
0.010101
0.00482279
0.0100879
0.00520415
0.00981851
0.00510833
0.00919014
0.00400188
0.00828516
0.0011283
0.00788269
-0.00307904
0.0093808
-0.00425451
0.0110853
-0.00297622
0.0118898
-0.00208609
0.0122961
-0.00157872
0.0125236
-0.00122281
0.0126486
-0.000929724
0.0126595
-0.000676309
0.0124944
-0.000463254
0.0120448
-0.000291043
0.0112157
-0.000160616
0.00995639
-7.08387e-05
0.00827433
-1.84263e-05
0.00621781
2.07476e-06
0.00386879
3.47933e-06
0.00132926
0.0040934
0.0101227
0.00476629
0.0101574
0.00534432
0.00994775
0.0056217
0.00930514
0.00505177
0.00814025
0.00268448
0.00672898
-0.00320937
0.00801302
-0.00532081
0.0104471
-0.00343901
0.0115481
-0.00237506
0.0121787
-0.00181681
0.0125342
-0.00144706
0.0127478
-0.00114612
0.012865
-0.000877662
0.0128608
-0.000634616
0.0126658
-0.000427357
0.0121811
-0.000261436
0.0113165
-0.000140071
0.0100256
-5.77014e-05
0.0083136
-1.27111e-05
0.0062326
3.3451e-06
0.00386892
3.59711e-06
0.00132566
0.00394874
0.0101417
0.00466281
0.0102262
0.00538824
0.0101135
0.00601307
0.00955638
0.00611909
0.00823782
0.00460976
0.00317852
0.00303644
-0.000217949
0.00288317
-0.00142234
0.00227674
-0.0032515
0.00449297
-0.0023609
0.00381164
-0.00189871
0.0102998
-0.00139302
-0.00233876
0.0115118
-0.00187665
0.0122386
-0.00157772
0.0126648
-0.00132437
0.0129261
-0.00107366
0.013061
-0.000823642
0.0130498
-0.000590952
0.0128294
-0.000393041
0.0123127
-0.000236414
0.0114128
-0.000122675
0.0100906
-4.82581e-05
0.00834915
-8.49877e-06
0.00624444
4.70537e-06
0.00386782
3.35583e-06
0.00132231
0.00379546
0.0101553
0.00452018
0.0102843
0.00533596
0.0102785
0.00621776
0.00990884
0.00699283
0.00868265
0.00680231
0.00299359
0.00305168
0.000590224
0.00237034
0.00154086
0.0020858
-0.00322331
0.00285497
-0.000706443
0.000873354
0.000781087
-0.00127702
-0.00113386
0.000570754
0.00089356
-0.00175627
0.00435052
-0.000993388
0.0012783
0.000887198
-0.000678038
-0.000647123
0.00322848
-0.000525988
-0.000921049
0.00956959
-0.000687476
-0.000997343
0.00395485
-0.00155461
0.0111898
-0.00148615
0.012147
-0.00138743
0.0127279
-0.00122484
0.0130773
-0.00100504
0.0132424
-0.000766464
0.0132254
-0.000546111
0.0129824
-0.000359413
0.0124357
-0.000214428
0.0115046
-0.000107745
0.0101501
-4.07306e-05
0.00838138
-6.20907e-06
0.00625536
4.70541e-06
0.00386647
3.39637e-06
0.00131891
0.00363683
0.0101636
0.00434663
0.0103288
0.0052011
0.0104191
0.00623299
0.0102632
0.00746869
0.00943298
0.00865297
0.00327433
0.00355767
0.00261224
0.00192222
0.0035685
0.00105836
0.00103706
0.000445149
0.000399014
0.000535195
-0.0010953
0.000691628
-0.000863713
0.000549503
-0.000937976
0.000495742
0.0010665
-0.000495742
0.000966668
-0.000491899
0.00112308
0.000683929
-0.000288631
0.000288631
-0.000171898
0.00266841
-0.000265372
-0.000323505
0.000920595
0.00356603
-0.000532235
-0.000428059
0.00877315
-0.000330113
0.00322984
-0.000351288
-0.00105944
0.0107631
-0.00122931
0.0119889
-0.00125471
0.0127578
-0.0011355
0.0132077
-0.000929811
0.0134057
-0.000706968
0.0133862
-0.000502061
0.0131251
-0.0003287
0.01255
-0.000193968
0.0115908
-9.6717e-05
0.0102061
-3.57675e-05
0.00841094
-4.30128e-06
0.00626436
4.83236e-06
0.00386503
2.96047e-06
0.00131595
0.00347478
0.010169
0.00415073
0.0103595
0.0050055
0.0105244
0.0060998
0.0105523
0.00756256
0.0101694
0.00956475
0.00407711
0.00444408
0.00464175
0.00220108
0.00545014
0.00274928
0.00104384
0.000270273
0.000251673
0.000801577
-0.00142841
0.00176741
0.000719364
0.000652487
0.00071699
-0.000317976
0.000388473
-0.000388473
0.000360425
-0.000771507
0.000653499
-5.38894e-05
0.002275
-8.13145e-05
-5.75075e-05
-0.000116284
0.00301555
-0.000213764
-0.000215409
0.00811449
-0.000185372
0.00284175
-0.000156317
0.00200522
-3.80129e-05
-4.34971e-05
-0.000810019
0.0103438
-0.00108983
0.011824
-0.00115986
0.0127821
-0.0010381
0.013316
-0.000849231
0.013548
-0.000648031
0.0135322
-0.000460635
0.013257
-0.000303169
0.0126592
-0.000178596
0.0116727
-8.92701e-05
0.0102596
-3.18236e-05
0.00843846
-3.91225e-06
0.00627311
4.52324e-06
0.00386347
2.82496e-06
0.00131313
0.00330986
0.0101729
0.00393826
0.0103815
0.00476623
0.0105988
0.00586073
0.0107635
0.00737912
0.0107358
0.00968759
0.0100465
0.00605836
0.00346889
0.00647571
0.00402673
0.00494466
-0.00161951
0.000303527
0.000339804
0.00628139
0.000879725
0.000532823
-4.77035e-05
0.000203969
0.0011848
0.000269265
0.000284658
0.00024414
0.000591598
-1.94137e-05
0.000190251
0.000547231
-1.31408e-05
0.00184149
-2.68405e-05
-2.3194e-05
0.00272546
-9.91192e-05
-0.000138091
0.00758732
-0.000144756
0.00262028
-8.01942e-05
0.00172256
-1.80497e-05
-1.9331e-05
-0.000512652
0.000484103
-9.46384e-06
-8.91789e-06
-0.000723742
0.00997769
-0.00102923
0.0116934
-0.00104525
0.0127893
-0.000930798
0.0133976
-0.000766325
0.0136663
-0.00059106
0.0136626
-0.000425867
0.0133797
-0.000282268
0.0127629
-0.000166847
0.0117503
-8.31121e-05
0.0103109
-3.01825e-05
0.00846473
-3.84364e-06
0.00628147
3.87758e-06
0.00386242
2.2803e-06
0.00131085
0.00314224
0.0101756
0.00371573
0.0103954
0.00449757
0.0106502
0.00555008
0.0109095
0.00702701
0.0111156
0.00927277
0.0111506
-0.00758151
0.0140651
0.00469656
0.00534216
0.00709145
0.0012673
0.00139153
0.00189555
0.00164112
0.00106142
-0.000757892
0.00140122
-0.00193405
0.00281377
0.000473234
0.000170837
0.000157696
0.000462955
-5.69176e-06
0.000445035
-5.27441e-06
0.0016457
-1.17125e-05
-1.05482e-05
0.00254214
-5.99504e-05
-0.000121618
0.0071432
-0.000157999
0.002457
-5.96126e-05
0.00158323
-8.78176e-06
-8.94696e-06
-0.000429851
0.000416342
-4.54074e-06
-4.14655e-06
-0.000148778
0.000139315
-0.000749403
0.00969787
-0.000933955
0.0115821
-0.000914792
0.0127733
-0.00081903
0.0134503
-0.00068616
0.0137614
-0.00054033
0.0137771
-0.000396165
0.0134936
-0.000265856
0.0128619
-0.000158051
0.0118252
-7.91646e-05
0.0103598
-2.87217e-05
0.00848961
-4.06456e-06
0.00628942
3.09122e-06
0.00386161
2.1107e-06
0.00130874
0.00297478
0.0101755
0.0034874
0.010404
0.00420855
0.0106845
0.00519538
0.0110049
0.00658168
0.0113548
0.00862099
0.0117674
0.0128567
0.0123589
0.00878347
-0.00417585
-0.00337612
0.0019597
0.00150536
0.00884075
0.00528488
0.00300423
0.00107684
0.00345159
0.000944179
-0.00391735
0.00163705
0.00117535
0.000133623
0.000128348
0.000407109
-2.48017e-06
0.000398837
-2.27537e-06
0.00153582
-6.10671e-06
-6.43036e-06
0.0023899
-5.45192e-05
-0.000162784
0.00679932
-0.00024274
0.00229878
-6.68767e-05
0.00148851
-6.52228e-06
-5.78188e-06
-0.000391734
0.000384993
-2.04053e-06
-1.84404e-06
-0.000124202
0.000119661
-0.000747373
0.00951128
-0.000786076
0.0114533
-0.000770349
0.0127246
-0.000713944
0.0134781
-0.000619045
0.0138401
-0.000501229
0.0138821
-0.000374864
0.0136026
-0.000254388
0.0129582
-0.000152383
0.0118984
-7.58728e-05
0.010407
-2.80398e-05
0.00851359
-4.54874e-06
0.00629706
2.50838e-06
0.00386121
1.76549e-06
0.00130697
0.0028071
0.0101767
0.00325441
0.0104084
0.00390855
0.010704
0.00481626
0.0110636
0.00608475
0.0115018
0.00790857
0.0120672
0.0112533
0.0133708
-0.00683008
0.0159862
0.00546862
0.00657487
-0.00319637
0.0014573
-0.00296266
0.00313079
0.00179156
-0.0014573
-0.00179156
0.00182645
0.00155071
0.00107684
0.00202102
0.000117181
0.000114906
0.000380242
-1.35614e-06
0.000374948
-1.1359e-06
0.00144447
-4.63241e-06
-5.84189e-06
0.0022201
-8.41055e-05
-0.000292235
0.00662278
-0.000278596
0.00211486
-0.000137493
0.00138952
-7.25332e-06
-4.67709e-06
-0.000370412
0.000365362
-1.47156e-06
-1.24671e-06
-0.000113062
0.000111021
-0.000576998
0.00930221
-0.000614262
0.0112973
-0.000643462
0.0126541
-0.000628551
0.0134876
-0.000568653
0.0139075
-0.000473495
0.0139808
-0.000359219
0.0137075
-0.000244525
0.0130503
-0.000145956
0.0119685
-7.23337e-05
0.0104513
-2.73133e-05
0.00853635
-5.5667e-06
0.00630513
1.62421e-06
0.00386135
1.6212e-06
0.00130535
0.00263966
0.0101764
0.00302103
0.0104101
0.00360156
0.0107154
0.00442178
0.0110984
0.00556375
0.0115846
0.00718411
0.0122263
0.00974807
0.0135725
0.0143555
0.0150015
0.00504073
-0.00201514
-0.00136202
0.00197879
0.00182626
0.00589204
0.00572357
-0.00155071
0.00136202
0.000109665
0.000108529
0.000361787
-1.05763e-06
0.000356985
-1.04001e-06
0.00132072
-4.88786e-06
-1.04158e-05
0.0020418
-0.000219176
-0.000212456
0.00637656
-0.000118323
0.00198531
-0.000222109
0.00121997
-2.64758e-05
-1.02644e-05
-0.000353292
0.00034741
-1.37123e-06
-9.8363e-07
-0.000107282
0.000105811
-0.000380051
0.009068
-0.00047869
0.0111325
-0.000547626
0.0125732
-0.000567468
0.0134864
-0.000534999
0.013969
-0.000456259
0.0140778
-0.000349625
0.0138126
-0.000237368
0.0131418
-0.000141024
0.0120372
-7.08729e-05
0.0104949
-2.75514e-05
0.00855834
-5.71588e-06
0.00631247
1.06771e-06
0.0038619
1.13387e-06
0.00130422
0.00247174
0.0101769
0.00278681
0.0104107
0.00329278
0.0107188
0.00402383
0.0111134
0.00503932
0.0116229
0.00646289
0.0123058
0.0084776
0.0134967
0.0121416
0.0157863
-0.00413137
0.0118488
0.0131761
-0.00108017
0.0014765
0.00158246
0.000746092
-0.000983377
0.00405207
0.000104753
0.000103713
0.000343677
-1.15511e-06
0.000334866
-1.60504e-06
0.00112414
-4.07504e-05
-8.26034e-05
0.00189678
-0.000123929
-8.23493e-05
0.00612351
-4.46569e-05
0.00183348
-5.50159e-05
0.00104731
-6.5403e-05
-7.98727e-05
-0.000326901
0.000305635
-5.20962e-06
-2.29923e-06
-0.00010273
0.000101358
-0.000264117
0.00885342
-0.000389184
0.010974
-0.00048572
0.0124915
-0.000532306
0.0134837
-0.000517676
0.0140304
-0.000444514
0.0141727
-0.000337724
0.0139129
-0.000228015
0.0132287
-0.000134939
0.0121013
-6.83138e-05
0.0105356
-2.672e-05
0.00857934
-6.84933e-06
0.00632039
2.25633e-07
0.00386281
8.614e-07
0.00130336
0.00230559
0.0101772
0.00255488
0.0104088
0.00298594
0.0107175
0.00362701
0.0111157
0.00452127
0.0116314
0.0057606
0.0123252
0.00741012
0.0133733
0.0101194
0.015519
0.0113977
0.0162374
-0.00200539
0.00703877
0.00954703
-0.00140427
-0.000427976
0.00102706
0.000318115
0.00273811
-0.000390347
-0.00030108
0.000100203
9.85982e-05
0.00027729
-1.2405e-05
0.000222261
-2.75747e-05
0.000954604
-2.44979e-05
-6.72532e-06
0.0017791
-2.79721e-05
-4.33907e-05
0.00593203
-2.92433e-05
0.00175081
-1.63655e-05
0.000902993
-6.35381e-07
-2.76913e-06
-0.000193498
0.000128095
-5.11096e-05
-9.62989e-05
9.10893e-05
-0.000204941
0.00866918
-0.000337473
0.0108258
-0.000455449
0.0124146
-0.000521775
0.0134878
-0.000511049
0.014097
-0.00043314
0.0142681
-0.000323632
0.0140085
-0.000216888
0.0133107
-0.000127655
0.0121606
-6.48809e-05
0.0105738
-2.73368e-05
0.00859983
-7.74137e-06
0.00632836
-8.77711e-07
0.00386455
7.92297e-07
0.00130256
0.0021394
0.0101772
0.00232399
0.010408
0.0026797
0.0107151
0.00323252
0.011112
0.00401341
0.0116235
0.0050878
0.0123042
0.00647555
0.0132597
0.00848345
0.0150092
0.0100337
0.016883
0.00847138
0.0148048
0.00349254
0.00675371
-0.000266463
-0.000432752
0.00167208
-0.000160758
-0.000177481
-0.000122863
0.000759573
0.000195252
0.000534671
-7.61775e-05
7.86843e-05
5.11096e-05
0.000103597
9.68718e-05
0.000876479
-1.03255e-06
-4.24967e-07
0.00172056
-1.31386e-05
-3.1882e-05
0.00578635
-2.73767e-05
0.00170187
-1.05534e-05
0.000861167
-3.50655e-07
-7.02984e-07
-9.41027e-05
9.34673e-05
-0.000171994
0.0085037
-0.000316827
0.0106872
-0.000454797
0.0123476
-0.00052672
0.0135035
-0.000502372
0.0141662
-0.000414745
0.0143592
-0.000305769
0.0140974
-0.00020386
0.0133869
-0.000121632
0.0122174
-6.30406e-05
0.0106095
-2.75596e-05
0.00861965
-8.68639e-06
0.00633617
-1.29064e-06
0.00386663
1.73628e-07
0.00130239
0.00197536
0.010177
0.00209575
0.0104054
0.00237923
0.0107085
0.0028452
0.0111024
0.00352046
0.0116049
0.00444782
0.0122635
0.00562926
0.0131505
0.00718249
0.0145607
0.0085624
0.0164805
0.00834797
0.0170064
0.00557924
0.0127181
0.00148601
0.00515785
4.79692e-05
6.18809e-05
-0.00129961
0.00106923
-9.41293e-06
-2.66712e-05
-2.47939e-05
-3.54891e-05
-0.000396387
0.000274581
-3.89514e-05
-3.91978e-05
0.000119075
9.24348e-05
9.20098e-05
0.000848974
-5.64612e-07
-3.81231e-07
0.00168073
-1.07468e-05
-2.48991e-05
0.00565989
-2.06349e-05
0.00166504
-1.16861e-05
0.000839255
-3.449e-07
-4.89304e-07
-9.13068e-05
9.09562e-05
-0.000160544
0.00834742
-0.000330241
0.0105626
-0.000481917
0.0123028
-0.000533053
0.0135342
-0.000482745
0.0142342
-0.000388607
0.0144421
-0.000286424
0.01418
-0.000190717
0.013456
-0.000115407
0.0122697
-6.24001e-05
0.0106443
-2.7949e-05
0.00863891
-1.05307e-05
0.00634541
-2.65383e-06
0.00386946
1.63544e-07
0.00130223
0.0018117
0.0101767
0.00187073
0.0104021
0.00208114
0.0107035
0.00246368
0.01109
0.00304131
0.0115815
0.00383915
0.0122136
0.00485294
0.0130398
0.00610844
0.0142246
0.00726764
0.0158555
0.00754315
0.0172853
0.00634874
0.0162369
0.00343634
0.0107678
0.000710661
0.00448486
-3.93716e-05
1.69777e-06
-0.00102005
0.000998597
2.18796e-05
4.75387e-05
6.13198e-05
4.97457e-05
-0.000194903
0.000186838
-1.34776e-06
-0.00021506
-6.51377e-06
-0.000235805
-4.04937e-06
3.28692e-06
-7.98771e-05
4.09257e-05
9.03916e-05
9.00104e-05
0.000829434
-4.72254e-07
-4.53761e-07
0.00164984
-9.69718e-06
-1.77432e-05
0.0055374
-2.03143e-05
0.00163433
1.7161e-06
-6.84469e-06
0.000818731
-4.83094e-07
-4.99102e-07
-8.9521e-05
8.91762e-05
-0.000177073
0.00819425
-0.00037919
0.0104599
-0.000517749
0.0122875
-0.000514961
0.0135664
-0.000448601
0.0142942
-0.00035725
0.0145129
-0.000262433
0.0142517
-0.000178152
0.0135187
-0.000110937
0.0123183
-6.15934e-05
0.010678
-3.05264e-05
0.00865891
-1.25388e-05
0.00635529
-3.28355e-06
0.00387291
-4.08763e-07
0.00130264
0.00165071
0.010175
0.00164956
0.0103978
0.00178912
0.0106941
0.00209007
0.0110771
0.00257355
0.0115578
0.00325842
0.0121623
0.00413336
0.0129332
0.00518232
0.0139659
0.00617417
0.015318
0.00659528
0.0168033
0.00618927
0.0174448
0.00461237
0.0150609
0.00208153
0.00939688
0.000314796
0.00414531
3.44269e-05
-9.66875e-06
-0.000985732
0.000977196
-3.08357e-05
-1.94687e-06
1.65092e-05
-0.000242974
0.000251309
1.35442e-05
-0.000224157
2.87225e-05
-0.000203245
4.04077e-05
3.33379e-05
-3.36494e-05
3.23016e-05
-4.01632e-05
-4.42126e-05
8.87039e-05
8.82502e-05
0.000474404
-2.71316e-07
-2.46627e-07
0.000335147
0.00162332
-4.21091e-06
-2.51548e-06
-1.55771e-05
0.00540305
-2.7143e-05
0.00160763
-2.01586e-06
-2.61576e-06
0.000504945
-2.88244e-05
0.000506522
-8.42223e-06
-8.77511e-05
8.7268e-05
-0.000236591
0.00805165
-0.000462424
0.0104046
-0.000509836
0.0122824
-0.00047136
0.0135891
-0.000403269
0.0143402
-0.000322469
0.0145729
-0.000242365
0.0143159
-0.000168686
0.0135765
-0.000109154
0.0123658
-6.36258e-05
0.0107111
-3.27417e-05
0.00867911
-1.41363e-05
0.00636614
-4.21578e-06
0.00387672
-4.78586e-07
0.00130311
0.00149078
0.0101749
0.00143208
0.0103925
0.00150183
0.0106851
0.00172121
0.0110629
0.0021165
0.0115342
0.00270034
0.0121159
0.00345949
0.0128362
0.00435854
0.013757
0.00522816
0.014912
0.00570116
0.0162122
0.00562446
0.0173681
0.00490805
0.0171491
0.00325097
0.0138915
0.0012363
0.00847538
0.000103951
0.00393771
4.1488e-05
6.21612e-05
-0.000958392
0.000947082
4.57368e-05
9.13481e-06
-0.000234116
0.000355132
-1.49024e-06
-0.00014939
-9.72041e-07
-0.000254703
1.86406e-05
1.31145e-05
-0.000110086
0.000120793
2.83737e-06
-8.9029e-05
7.66513e-06
-6.56396e-05
1.70182e-05
8.69967e-05
8.675e-05
0.000304533
1.78965e-06
0.000505098
-2.78638e-06
0.000503967
-1.38525e-06
0.00159693
-1.83384e-06
-3.03563e-06
-2.26196e-05
0.00524026
-5.11781e-05
0.00157626
-2.33816e-06
-4.13433e-06
0.000502912
-9.60669e-07
0.000500891
-5.94339e-07
0.000298172
-2.061e-06
-0.000360939
0.00795017
-0.000481671
0.0103764
-0.00045669
0.0122677
-0.000409633
0.0135955
-0.000354675
0.0143724
-0.000292281
0.0146228
-0.000225548
0.0143728
-0.000164228
0.0136316
-0.00010912
0.0124113
-6.63771e-05
0.0107447
-3.55544e-05
0.00870053
-1.58849e-05
0.00637781
-5.31638e-06
0.00388155
-9.28728e-07
0.00130404
0.00133243
0.0101734
0.00122139
0.0103856
0.0012213
0.010673
0.00136021
0.0110461
0.00166819
0.0115113
0.00215935
0.0120752
0.00282046
0.0127549
0.00360599
0.0135887
0.00438653
0.0145986
0.0048918
0.0157213
0.00497125
0.0168654
0.00467142
0.0176048
0.00379219
0.0166079
0.0022409
0.0128869
0.000728217
0.00785111
3.07985e-05
0.00385662
2.35889e-05
2.66938e-05
-0.000938074
0.000944819
3.47428e-05
7.11684e-05
-0.000362526
0.0003847
1.78494e-05
5.7131e-06
-7.70273e-08
1.81727e-06
-2.97069e-05
2.82167e-05
-0.000130163
-5.85874e-07
-3.0679e-05
3.74422e-06
-2.46833e-05
2.75207e-05
-1.70182e-05
8.85397e-05
0.000296344
-9.58289e-07
0.000295244
-2.85528e-07
0.000499762
-7.05047e-07
0.000497962
-1.23545e-06
0.00156034
-2.01817e-06
-4.68268e-06
-6.48594e-05
0.00508367
-0.000139493
0.00152135
-3.66079e-06
-8.53587e-06
0.000496879
-1.25556e-06
0.000493795
-1.04998e-06
0.00029447
-1.86838e-07
0.000293943
-6.73321e-08
8.64787e-05
-0.000447131
0.00791563
-0.000406326
0.010326
-0.000372033
0.0122301
-0.000345932
0.0135868
-0.000311343
0.0143915
-0.000267291
0.0146646
-0.000216158
0.0144247
-0.000162523
0.013685
-0.000113006
0.012458
-7.05998e-05
0.0107797
-3.86892e-05
0.00872333
-1.75669e-05
0.00639006
-6.21771e-06
0.00388684
-8.99667e-07
0.00130494
0.00117879
0.0101691
0.00101698
0.0103778
0.000948045
0.0106589
0.0010065
0.0110267
0.00122687
0.0114874
0.00162892
0.0120417
0.00220603
0.0126896
0.00290486
0.013456
0.00362014
0.0143551
0.00414742
0.015343
0.00433452
0.016358
0.00422503
0.0173117
0.00380078
0.0175962
0.00286944
0.0159794
0.00153925
0.0120758
0.000433734
0.00744818
-5.18275e-05
0.00378847
6.97859e-05
5.01914e-05
-0.000954061
0.000965037
1.26126e-05
1.74519e-05
-0.000408961
0.000433316
1.00955e-06
9.37796e-06
2.5801e-05
2.11067e-05
-3.567e-05
5.35193e-05
-2.99569e-05
2.81396e-05
-3.12649e-05
8.55204e-05
8.52349e-05
0.000293403
-1.64826e-07
0.000292364
-1.95911e-07
0.000492818
-1.04065e-06
0.000489814
-1.67876e-06
0.00148034
-6.81033e-06
-1.70333e-05
-0.000202253
0.00504113
-0.000202334
0.00140435
-2.03861e-05
-4.31207e-05
0.000488013
-1.86057e-06
0.000481962
-2.48428e-06
0.000291345
-2.3643e-07
0.000290542
-2.47117e-07
8.50481e-05
8.49807e-05
-0.000324339
0.00783364
-0.000292478
0.0102465
-0.000293758
0.0121779
-0.000291862
0.0135673
-0.000279528
0.0144037
-0.000252494
0.0147009
-0.000213594
0.0144758
-0.000166965
0.0137389
-0.000117328
0.0125047
-7.39303e-05
0.010815
-3.98859e-05
0.00874565
-1.83017e-05
0.00640215
-6.41325e-06
0.00389236
-1.27067e-06
0.00130621
0.00102797
0.0101653
0.000820852
0.0103653
0.000686376
0.0106394
0.000660259
0.0110051
0.000790167
0.0114634
0.00110615
0.0120102
0.00160661
0.0126411
0.00223941
0.013355
0.00291
0.0141662
0.0034515
0.015051
0.00372687
0.0159506
0.0037357
0.0168474
0.00353414
0.0175784
0.00304462
0.017421
0.00215436
0.0153642
0.0010587
0.0114509
0.000239657
0.00715669
-8.11319e-05
0.00375161
4.64027e-05
7.15898e-05
-0.000972848
0.000978595
6.40389e-05
4.23793e-05
-0.000449047
0.000461901
7.32773e-07
-9.75134e-07
1.84984e-06
-1.29055e-07
-8.84625e-05
8.96508e-05
-1.78824e-07
-8.09037e-05
1.81912e-06
6.61569e-05
1.31634e-05
6.35983e-06
8.48159e-05
8.462e-05
0.000289684
-1.82591e-07
0.000288319
-3.14222e-07
0.000478566
-3.41439e-06
0.000468054
-6.52178e-06
0.00135754
-5.798e-05
-9.74592e-05
-0.000134036
0.00490525
-5.44263e-05
0.00131612
-8.74019e-05
-7.35151e-05
0.000457969
-1.03008e-05
0.000434548
-1.96996e-05
0.000286785
-3.26303e-07
0.000284705
-4.03793e-07
8.43836e-05
8.41365e-05
-0.000175104
0.00771627
-0.000205045
0.0101578
-0.000234637
0.0121207
-0.000255468
0.0135432
-0.00026094
0.0144122
-0.000249466
0.0147368
-0.000217849
0.0145267
-0.000172306
0.0137939
-0.000121595
0.0125523
-7.65661e-05
0.0108517
-4.24558e-05
0.00876981
-1.97551e-05
0.00641549
-7.02365e-06
0.00389811
-1.05618e-06
0.00130727
0.000882198
0.0101581
0.00063689
0.0103493
0.000436456
0.0106152
0.000324839
0.0109749
0.000358764
0.0114365
0.000584207
0.0119854
0.001012
0.0126048
0.00159364
0.0132869
0.00223434
0.0140307
0.00279189
0.0148258
0.00314155
0.0156363
0.0032515
0.0164348
0.00317134
0.0172102
0.00291843
0.0177046
0.00241696
0.0171584
0.00161352
0.0148094
0.00072688
0.0109636
0.000127728
0.00694783
-7.34082e-05
0.00377629
1.47993e-05
3.39296e-05
-0.000986522
0.000998537
3.43877e-05
6.36625e-05
-0.000484241
0.000499252
2.64525e-05
2.25747e-05
5.95889e-06
1.40811e-05
-9.03507e-05
9.1353e-05
-2.69696e-07
-9.10088e-05
-3.17086e-07
9.0898e-05
6.02523e-07
-2.39837e-07
-2.13423e-05
2.11635e-05
-1.95232e-05
1.31634e-05
8.39539e-05
8.36397e-05
0.000281836
-5.45677e-07
0.00027634
-1.02565e-06
0.000413084
-3.65162e-05
0.00037879
-6.3165e-05
0.00124701
-4.52058e-05
-1.97223e-05
-3.22809e-05
0.00477087
-8.44814e-06
0.00120682
-1.10158e-05
-3.21549e-06
0.00035661
-6.52217e-05
0.000333622
-5.05271e-05
0.00026788
-1.84149e-06
0.000252172
-3.99106e-06
8.33134e-05
8.29096e-05
-0.00010122
0.00761244
-0.000152506
0.0100756
-0.000197431
0.0120627
-0.000235261
0.0135175
-0.00025567
0.0144184
-0.000253125
0.0147721
-0.000225801
0.0145802
-0.000178572
0.0138509
-0.000126571
0.0126024
-7.82923e-05
0.0108875
-4.31371e-05
0.00879319
-1.95676e-05
0.00642803
-6.69793e-06
0.00390375
-1.15136e-06
0.00130842
0.00074243
0.0101484
0.000467152
0.0103278
0.000204669
0.0105811
2.81759e-06
0.0109372
-6.77003e-05
0.0114013
6.11123e-05
0.0119596
0.000415448
0.0125819
0.000954272
0.0132442
0.00158184
0.0139394
0.00216182
0.0146608
0.00257235
0.015395
0.0027731
0.0161148
0.00278632
0.0168198
0.00266148
0.0174671
0.00239323
0.0177283
0.00191208
0.0168599
0.00121065
0.0143257
0.000504485
0.0105869
6.22233e-05
0.0068122
-9.81328e-05
8.53155e-05
0.00378911
-0.00100393
0.000953803
6.49295e-05
2.8533e-05
-0.000518353
0.00053917
3.80686e-06
9.76339e-06
2.85441e-05
1.60177e-05
-0.000111863
0.000120006
1.83094e-05
-0.000103743
1.44545e-05
9.51587e-05
2.15319e-06
5.49703e-06
-2.12091e-05
2.09393e-05
-2.15262e-05
2.1766e-05
8.23639e-05
8.13382e-05
0.000225965
-1.03095e-05
0.000185368
-2.25681e-05
0.000309128
-2.07121e-05
0.000296371
-6.96432e-06
0.00117857
-3.35859e-06
-6.70146e-07
-1.22964e-05
0.00468584
-3.88776e-06
0.0011709
-9.663e-07
1.88361e-07
0.000287763
-2.40854e-06
0.000285245
-6.96768e-07
0.000162775
-4.26281e-05
0.000112248
7.94967e-05
7.55057e-05
-6.86176e-05
0.00752855
-0.000122527
0.0100007
-0.000178852
0.0120063
-0.000229562
0.0134914
-0.000264293
0.0144295
-0.000267688
0.014814
-0.000237523
0.0146391
-0.000185201
0.0139095
-0.000128253
0.0126523
-7.86495e-05
0.010923
-4.19078e-05
0.00881553
-1.93293e-05
0.00644067
-6.36332e-06
0.00390896
-1.0394e-06
0.00130946
0.000609936
0.0101357
0.000315729
0.0102998
-4.2302e-06
0.0105367
-0.000300353
0.0108842
-0.000485107
0.0113546
-0.000468962
0.0119314
-0.000194153
0.0125692
0.000307888
0.0132283
0.000937275
0.0138888
0.00154812
0.0145531
0.00201784
0.0152153
0.00229965
0.0158684
0.00239994
0.0165011
0.00236131
0.01712
0.00221707
0.0176433
0.00195692
0.0176835
0.00151331
0.0165572
0.000913594
0.0139165
0.000352404
0.0102967
6.59947e-06
0.00670747
-0.000634722
0.00160714
4.77753e-05
1.89206e-05
-0.00012036
0.000124403
0.00378506
-0.000560238
-9.55469e-06
6.21396e-06
1.25071e-06
-0.000143787
0.000145909
1.68533e-06
-0.000138114
4.08994e-06
0.000131063
1.74867e-05
8.96675e-06
-4.3044e-05
5.10836e-05
1.02698e-05
-2.85895e-05
2.30925e-05
6.51962e-05
4.26281e-05
9.15354e-05
8.45711e-05
0.000282285
-3.98525e-07
0.00028185
-2.35507e-07
0.00116008
-1.10064e-06
-3.79239e-07
-8.1427e-06
0.00462914
-3.77365e-06
0.00115696
-6.35787e-07
-1.31114e-07
0.00028103
-1.46011e-07
0.00028109
1.28155e-07
8.21625e-05
8.14658e-05
-5.33953e-05
0.00745942
-0.000108028
0.00992991
-0.000174613
0.0119513
-0.000240747
0.0134679
-0.000282596
0.0144444
-0.000283609
0.01486
-0.000245962
0.0146999
-0.000186881
0.0139681
-0.000126291
0.0127
-7.66154e-05
0.0109577
-4.1397e-05
0.0088376
-1.87018e-05
0.006453
-6.2033e-06
0.00391413
-9.02903e-07
0.00131036
0.000486079
0.0101201
0.00018688
0.0102645
-0.000182781
0.0104783
-0.000575072
0.0108114
-0.000889776
0.0112889
-0.00100634
0.011892
-0.000823336
0.0125606
-0.000358448
0.0132355
0.000289309
0.0138763
0.000944018
0.0144929
0.0014734
0.0150975
0.00182935
0.0156856
0.00201025
0.0162581
0.00205046
0.016812
0.00198466
0.0173524
0.00184376
0.0177565
0.00159983
0.0175969
0.0012015
0.0162693
0.000695899
0.013573
0.000239376
0.0100639
-3.30272e-05
0.00662013
0.00164014
3.3398e-05
5.80052e-05
-0.000235816
0.000265096
1.35278e-05
4.96734e-06
-0.000218934
1.69281e-06
3.45654e-07
-0.000107724
7.99317e-05
0.00381285
-0.000137879
-2.58741e-07
-3.02088e-07
-9.00491e-05
0.000147574
4.54835e-06
1.09465e-05
-7.36838e-05
7.52588e-05
1.10283e-07
-7.0252e-05
6.58124e-07
6.32483e-05
5.32194e-06
1.96296e-06
1.02698e-05
8.10672e-05
8.08317e-05
0.000280039
-4.92345e-08
0.000279841
-1.81631e-07
0.00115009
-8.22296e-07
-4.53319e-07
-5.94077e-06