/*--------------------------------*- C++ -*----------------------------------*\
| =========                 |                                                 |
| \\      /  F ield         | OpenFOAM: The Open Source CFD Toolbox           |
|  \\    /   O peration     | Version:  v1912                                 |
|   \\  /    A nd           | Website:  www.openfoam.com                      |
|    \\/     M anipulation  |                                                 |
\*---------------------------------------------------------------------------*/
FoamFile
{
    version     2.0;
    format      ascii;
    class       volVectorField;
    location    "300";
    object      U;
}
// * * * * * * * * * * * * * * * * * * * * * * * * * * * * * * * * * * * * * //

dimensions      [0 1 -1 0 0 0 0];


internalField   nonuniform List<vector> 
3673
(
(0.648238 -0.0255912 -1.62976e-21)
(0.974708 -0.0153183 -5.25322e-20)
(0.298355 -0.0525513 -3.76151e-24)
(1.01655 -0.0104399 2.45037e-20)
(0.766088 -0.0575367 -2.30136e-24)
(0.175504 -0.0543603 1.96079e-20)
(1.00675 -0.0138962 -1.91309e-37)
(0.961643 -0.0541276 1.5334e-24)
(0.56907 -0.0967129 -1.79328e-20)
(0.124824 -0.0462569 2.41398e-20)
(0.999512 -0.0164844 -2.63982e-41)
(1.0091 -0.0523279 0)
(0.844073 -0.104011 -2.35933e-20)
(0.436587 -0.110608 -2.38778e-20)
(0.108354 -0.0400523 2.82109e-20)
(0.997595 -0.0170694 -4.08261e-24)
(1.00894 -0.05214 -6.986e-24)
(0.969566 -0.100678 4.79704e-20)
(0.720773 -0.138398 2.51581e-20)
(0.365462 -0.111029 0)
(0.105052 -0.037516 -3.10205e-20)
(0.997514 -0.016694 -3.74805e-51)
(1.00225 -0.0522418 1.79937e-20)
(1.00436 -0.0968401 -2.57482e-20)
(0.898891 -0.145029 -2.21062e-20)
(0.626478 -0.156739 2.81661e-20)
(0.333233 -0.109434 3.37316e-20)
(0.105766 -0.0368524 0)
(0.997713 -0.0158468 0)
(0.998132 -0.051609 1.78653e-21)
(1.00474 -0.094286 0)
(0.976732 -0.143654 7.00999e-24)
(0.825182 -0.17813 3.78187e-21)
(0.567762 -0.165835 0)
(0.320705 -0.108665 0)
(0.107843 -0.0369198 0)
(0.997865 -0.0146651 2.28129e-20)
(0.996128 -0.0498889 -2.00731e-20)
(0.998362 -0.0920449 0)
(0.997101 -0.140464 1.73472e-20)
(0.936575 -0.184865 -2.60461e-20)
(0.766792 -0.200507 0)
(0.536087 -0.170311 -7.34813e-24)
(0.317465 -0.1086 0)
(0.110048 -0.0371869 0)
(0.997977 -0.0131754 -2.29343e-20)
(0.99484 -0.0471211 0)
(0.992948 -0.0891847 2.02449e-23)
(0.995463 -0.137213 -1.73906e-20)
(0.980898 -0.185079 0)
(0.89751 -0.21751 1.34581e-23)
(0.727874 -0.214508 6.69553e-24)
(0.521112 -0.17229 -3.07923e-20)
(0.318116 -0.108692 3.39208e-20)
(0.111724 -0.0374297 -6.80973e-24)
(0.998087 -0.011362 0)
(0.993614 -0.0433494 0)
(0.988756 -0.085235 -2.25595e-23)
(0.988768 -0.13378 -4.14137e-23)
(0.989973 -0.183313 -3.59962e-23)
(0.962427 -0.224119 0)
(0.867221 -0.241018 -1.40934e-23)
(0.705003 -0.22217 2.71444e-20)
(0.515156 -0.17275 5.4442e-22)
(0.31978 -0.108678 -3.21327e-20)
(0.112729 -0.0375748 1.32152e-23)
(0.998218 -0.00921051 -2.53265e-23)
(0.992302 -0.0385338 0)
(0.984846 -0.0799018 0)
(0.981737 -0.129565 2.34937e-23)
(0.985703 -0.181139 2.12424e-23)
(0.984575 -0.226346 1.81831e-23)
(0.947176 -0.254971 0)
(0.847147 -0.255825 0)
(0.692753 -0.225317 7.94221e-22)
(0.513266 -0.172354 -4.11188e-22)
(0.321167 -0.108508 0)
(0.113139 -0.0375972 -6.40499e-24)
(0.998382 -0.00672883 0)
(0.990939 -0.0326089 -2.78997e-20)
(0.980698 -0.0729029 0)
(0.974501 -0.123934 0)
(0.977456 -0.178532 0)
(0.986063 -0.22748 -2.21098e-20)
(0.982156 -0.262526 0)
(0.93732 -0.276203 1.28436e-23)
(0.835019 -0.2634 1.11802e-21)
(0.686418 -0.225797 2.44962e-20)
(0.512787 -0.171563 -2.59606e-20)
(0.321849 -0.108146 0)
(0.113025 -0.0374953 0)
(0.998585 -0.00395693 2.76307e-20)
(0.989624 -0.0255439 2.79788e-20)
(0.976229 -0.0639526 1.97243e-24)
(0.966432 -0.116248 0)
(0.967377 -0.174859 2.91357e-20)
(0.979239 -0.228584 2.23727e-20)
(0.991759 -0.268199 3.94145e-23)
(0.983662 -0.288764 -1.3591e-23)
(0.931769 -0.288277 -3.70355e-20)
(0.827733 -0.266228 0)
(0.683 -0.225023 4.61465e-20)
(0.51249 -0.170536 0)
(0.3217 -0.107575 0)
(0.112491 -0.0372911 1.005e-23)
(0.998834 -0.000975078 -5.55776e-20)
(0.988494 -0.0173913 -2.84981e-23)
(0.971613 -0.0528074 3.14939e-20)
(0.957224 -0.105832 3.30443e-20)
(0.95513 -0.16924 -2.94718e-20)
(0.968252 -0.22951 0)
(0.989518 -0.274314 0)
(1.0026 -0.298546 1.71056e-20)
(0.987277 -0.304344 1.23707e-20)
(0.92838 -0.293906 1.13837e-20)
(0.823173 -0.266579 -2.11793e-20)
(0.680886 -0.223653 5.02189e-24)
(0.511807 -0.169313 -2.22589e-20)
(0.320748 -0.106825 -2.37799e-20)
(0.111633 -0.0370092 -8.85288e-25)
(0.99913 0.00209422 2.79668e-20)
(0.987722 -0.00832559 3.00347e-20)
(0.967215 -0.0393336 -3.13912e-20)
(0.946997 -0.0919742 -6.84603e-20)
(0.940088 -0.160593 -6.6952e-23)
(0.953242 -0.229543 5.82905e-23)
(0.981192 -0.281696 0)
(1.00783 -0.308823 -1.67855e-20)
(1.01505 -0.316454 1.36574e-20)
(0.990462 -0.312194 -1.09274e-20)
(0.926065 -0.295999 0)
(0.820203 -0.265666 -1.98139e-20)
(0.679161 -0.221949 1.96138e-20)
(0.510466 -0.167948 2.01665e-20)
(0.319104 -0.105955 1.00969e-23)
(0.110565 -0.0366713 -9.28903e-24)
(0.999468 0.00509155 5.49582e-23)
(0.987498 0.00132551 -2.98752e-20)
(0.963569 -0.0236112 1.34659e-22)
(0.936288 -0.0739905 -2.07091e-21)
(0.921952 -0.14756 0)
(0.93308 -0.227581 -3.87108e-20)
(0.967583 -0.290479 -5.71883e-23)
(1.00646 -0.321338 3.3117e-23)
(1.0283 -0.328148 -1.34162e-20)
(1.025 -0.325443 0)
(0.992675 -0.315828 0)
(0.924575 -0.296151 9.15241e-21)
(0.818005 -0.264041 -1.81901e-20)
(0.67726 -0.220087 1.31249e-23)
(0.508437 -0.166516 0)
(0.316928 -0.104993 -1.01275e-23)
(0.109351 -0.0362943 0)
(0.999834 0.00783755 0)
(0.987975 0.0110782 -5.70211e-23)
(0.961352 -0.00605498 -3.31486e-20)
(0.926134 -0.051373 7.5491e-20)
(0.900927 -0.128397 -9.26082e-24)
(0.906415 -0.222027 3.96483e-20)
(0.94726 -0.300564 0)
(1.00059 -0.337171 0)
(1.03512 -0.341403 -3.21997e-23)
(1.04422 -0.337112 0)
(1.03204 -0.329875 -9.17029e-24)
(0.994521 -0.317066 8.95105e-21)
(0.923544 -0.295137 1.69902e-20)
(0.815964 -0.262088 8.48434e-24)
(0.674956 -0.218204 -8.5014e-24)
(0.505798 -0.165044 0)
(0.314354 -0.103968 -8.44704e-24)
(0.10804 -0.0358917 -1.54334e-20)
(1.0002 0.0101598 0)
(0.989221 0.0203314 -1.18359e-22)
(0.961255 0.0124827 3.29943e-20)
(0.918199 -0.0241219 -7.64617e-20)
(0.877949 -0.10091 -4.71126e-20)
(0.872005 -0.210468 1.86081e-22)
(0.917744 -0.311792 0)
(0.98988 -0.357414 -2.38119e-20)
(1.03898 -0.357257 2.54634e-23)
(1.05649 -0.349183 0)
(1.05527 -0.341422 0)
(1.03761 -0.33172 9.06784e-25)
(0.996116 -0.316781 8.36898e-24)
(0.922525 -0.293527 -7.79549e-21)
(0.813766 -0.260061 -7.13599e-24)
(0.672195 -0.216351 0)
(0.502652 -0.163552 -7.29696e-24)
(0.311502 -0.102905 1.63276e-20)
(0.106687 -0.0354744 6.49347e-24)
(1.00054 0.0119227 2.46896e-20)
(0.991169 0.0284489 -2.74755e-20)
(0.963767 0.0307518 1.19015e-22)
(0.914642 0.00679176 7.57579e-20)
(0.855416 -0.0629479 4.56633e-20)
(0.829184 -0.188475 0)
(0.87528 -0.324051 0)
(0.972702 -0.383441 2.31964e-20)
(1.04068 -0.376158 2.50697e-23)
(1.06567 -0.362472 -4.68673e-24)
(1.07048 -0.352383 0)
(1.06385 -0.343149 0)
(1.04219 -0.331842 7.75218e-25)
(0.99723 -0.315667 1.65282e-23)
(0.921306 -0.291709 0)
(0.811301 -0.258073 1.40053e-20)
(0.669005 -0.214543 -6.51455e-24)
(0.499124 -0.162052 1.39778e-23)
(0.308468 -0.101817 -7.05149e-24)
(0.105307 -0.0350496 -1.24756e-23)
(1.00083 0.0130533 -4.83318e-20)
(0.993623 0.0348795 1.29467e-21)
(0.968931 0.0472838 2.93276e-20)
(0.917253 0.0391266 -3.70809e-20)
(0.838717 -0.0143671 -8.31052e-22)
(0.779212 -0.147115 -6.53833e-20)
(0.812357 -0.335376 5.22004e-20)
(0.94415 -0.416289 -7.80916e-23)
(1.03809 -0.397186 -4.78359e-23)
(1.07166 -0.376431 -1.05795e-20)
(1.08116 -0.363201 -2.02612e-23)
(1.08085 -0.353081 0)
(1.07074 -0.343075 -7.68507e-21)
(1.04569 -0.331006 7.18594e-21)
(0.99782 -0.314206 -6.92943e-24)
(0.919822 -0.289864 -1.30271e-20)
(0.808523 -0.256157 5.96932e-24)
(0.665435 -0.212778 6.51915e-24)
(0.4953 -0.160548 -6.68047e-24)
(0.305313 -0.10072 7.07444e-24)
(0.103924 -0.0346237 -1.18481e-20)
(1.00104 0.0135501 2.36529e-20)
(0.996289 0.039272 2.62084e-20)
(0.976231 0.0606972 -2.91474e-20)
(0.926738 0.0695916 1.26502e-22)
(0.835793 0.0411368 4.5057e-20)
(0.730088 -0.0757407 6.67975e-20)
(0.713025 -0.330126 -5.45608e-20)
(0.88632 -0.450388 -3.15233e-20)
(1.01861 -0.414924 7.76306e-23)
(1.06706 -0.386887 1.05353e-20)
(1.08482 -0.371985 -1.9666e-23)
(1.09109 -0.361373 0)
(1.08858 -0.351936 7.54191e-21)
(1.07589 -0.341993 6.57697e-25)
(1.04821 -0.329729 6.48111e-21)
(0.997934 -0.312628 0)
(0.918028 -0.288066 0)
(0.805426 -0.254318 1.16985e-20)
(0.661538 -0.21105 0)
(0.491263 -0.159052 0)
(0.3021 -0.0996277 1.24273e-20)
(0.102554 -0.0342006 5.47139e-24)
(1.00117 0.0134749 0)
(0.998859 0.0415467 -2.31615e-20)
(0.984662 0.0700271 -5.00712e-23)
(0.9424 0.0947332 -2.9858e-20)
(0.849644 0.0968519 -8.35555e-20)
(0.701352 0.0240974 -6.27711e-20)
(0.561069 -0.26645 -4.19897e-20)
(0.751788 -0.454895 3.82879e-20)
(0.939897 -0.406855 0)
(1.02418 -0.381277 3.44399e-23)
(1.06718 -0.37115 8.64713e-21)
(1.08901 -0.36464 0)
(1.09673 -0.357611 7.18213e-21)
(1.09361 -0.349738 -6.27301e-24)
(1.0795 -0.340404 -6.33212e-21)
(1.04992 -0.328255 0)
(0.997584 -0.311046 5.65436e-21)
(0.915911 -0.286338 -5.41568e-21)
(0.802027 -0.252545 5.45115e-24)
(0.657388 -0.209357 -1.0706e-20)
(0.487093 -0.157569 -5.08191e-24)
(0.298865 -0.0985459 -5.24569e-25)
(0.101217 -0.0337871 -4.56169e-24)
(1.00122 0.0129263 0)
(1.0011 0.0418733 2.33653e-20)
(0.993043 0.0749685 -9.31466e-23)
(0.961877 0.111934 2.92246e-20)
(0.880097 0.144517 7.17738e-20)
(0.708475 0.131553 5.75013e-20)
(0.530744 -0.0893238 3.71028e-20)
(0.49746 -0.00537145 9.36565e-22)
(0.538465 -0.46612 0)
(0.356011 -0.209024 7.39238e-20)
(0.384128 -0.383939 -3.67265e-22)
(0.808753 -0.385349 0)
(0.503812 -0.312684 -1.23798e-20)
(0.63668 -0.295126 0)
(0.876415 -0.328503 0)
(0.736401 -0.289635 0)
(0.990423 -0.343145 -9.09812e-21)
(1.0547 -0.353213 7.67135e-21)
(1.08655 -0.35547 -7.19267e-21)
(1.09821 -0.352774 3.04127e-24)
(1.09632 -0.346942 6.03992e-21)
(1.08185 -0.338536 1.66417e-23)
(1.05089 -0.326725 -5.4435e-21)
(0.996787 -0.309495 -5.17605e-21)
(0.91348 -0.284671 -4.98341e-21)
(0.798356 -0.250824 9.66527e-21)
(0.65304 -0.207696 0)
(0.482843 -0.156112 4.47121e-25)
(0.295657 -0.0974853 -5.39875e-24)
(0.0999136 -0.0333835 -9.11042e-21)
(1.00122 0.0120141 -3.83262e-23)
(1.00288 0.0405746 0)
(1.00048 0.075879 0)
(0.981839 0.120491 -1.98234e-22)
(0.920561 0.176404 -3.28167e-20)
(0.7615 0.227369 -3.99638e-22)
(0.490105 0.100939 0)
(0.515198 0.200671 -2.46081e-20)
(0.278969 -0.0785966 -3.72497e-20)
(0.289085 -0.322019 3.21484e-22)
(0.202292 -0.254077 -1.15214e-20)
(0.198144 -0.236316 8.64979e-21)
(0.168659 -0.155267 4.12583e-21)
(0.302079 -0.250767 -2.00138e-22)
(0.460095 -0.215346 3.64064e-23)
(0.256826 -0.107262 0)
(0.165471 -0.11435 -5.68943e-22)
(0.508792 -0.188091 -6.20534e-22)
(0.359631 -0.146234 -1.00315e-21)
(0.654527 -0.232785 0)
(0.79215 -0.262083 0)
(0.587625 -0.193996 -1.23702e-23)
(0.948536 -0.309869 -8.22687e-21)
(1.03501 -0.335324 0)
(1.07858 -0.345656 0)
(1.09641 -0.347293 -1.53718e-22)
(1.09715 -0.343765 0)
(1.08306 -0.336567 -1.07357e-23)
(1.05118 -0.325176 -1.01566e-23)
(0.995558 -0.307963 9.45061e-21)
(0.910734 -0.283047 4.55307e-21)
(0.79445 -0.249149 0)
(0.648557 -0.206074 0)
(0.478562 -0.154679 4.65458e-24)
(0.292487 -0.0964515 9.47714e-21)
(0.0986539 -0.0329921 8.36169e-21)
(1.00118 0.0108392 -3.6211e-23)
(1.00421 0.0380187 3.87343e-23)
(1.00653 0.0735355 0)
(0.999413 0.12144 0)
(0.961347 0.19009 1.8955e-22)
(0.84888 0.285469 7.09339e-22)
(0.558383 0.29554 2.34971e-20)
(0.621946 0.370448 -7.3055e-23)
(0.237126 0.0614538 0)
(0.344672 0.253878 8.27723e-23)
(0.318226 0.185865 0)
(0.0650188 -0.0953679 6.70986e-22)
(0.107122 -0.167594 7.84213e-21)
(0.116372 -0.158106 -3.80146e-21)
(0.0778378 -0.0981147 0)
(0.148057 -0.0587951 8.06523e-22)
(0.0849409 -0.037514 -2.53082e-21)
(0.243963 -0.076146 6.64931e-22)
(0.421123 -0.131015 0)
(0.288331 -0.0994053 9.46352e-22)
(0.540841 -0.166716 3.25184e-21)
(0.725835 -0.219609 -1.92372e-21)
(0.506827 -0.149067 0)
(0.367314 -0.108508 -1.098e-23)
(0.906609 -0.283564 7.17401e-21)
(1.01096 -0.318749 -1.19552e-23)
(1.06693 -0.33563 -5.92493e-21)
(1.09208 -0.341426 4.65431e-24)
(1.09635 -0.340493 0)
(1.08329 -0.334536 9.01741e-24)
(1.05083 -0.323586 -4.55322e-21)
(0.993899 -0.30644 -4.3151e-21)
(0.907692 -0.281463 4.1618e-21)
(0.790357 -0.24752 3.79751e-24)
(0.643978 -0.204485 8.18284e-21)
(0.47429 -0.153284 0)
(0.289382 -0.0954465 -8.67225e-21)
(0.097439 -0.0326142 -3.51784e-24)
(1.00111 0.00948538 0)
(1.00514 0.0345506 -1.82307e-20)
(1.0111 0.0688094 0)
(1.01321 0.116634 -1.84858e-20)
(0.997356 0.188379 -1.90786e-20)
(0.938164 0.30295 2.10305e-20)
(0.699126 0.43173 0)
(0.782955 0.460208 -7.19304e-22)
(0.318283 0.351951 2.22206e-20)
(0.424774 0.464989 -2.02309e-20)
(0.0419434 -0.0452479 0)
(0.0312913 0.00923137 0)
(0.171061 0.153601 -1.17168e-20)
(0.193216 0.239363 1.15152e-20)
(0.039224 -0.0786035 -1.46487e-20)
(0.105151 -0.0314181 5.30924e-22)
(0.21481 -0.0603085 1.36883e-23)
(0.0816258 -0.0223488 -4.01662e-23)
(0.199546 -0.0544846 8.7963e-22)
(0.332359 -0.0929773 -3.6939e-21)
(0.480508 -0.135947 -3.35898e-21)
(0.675331 -0.19504 -7.95492e-21)
(0.460947 -0.127282 2.03205e-22)
(0.307793 -0.0843601 0)
(0.175153 -0.0472735 7.30852e-24)
(0.185007 -0.0498357 -1.45751e-23)
(0.86649 -0.262711 -6.72063e-21)
(0.985012 -0.303475 1.28098e-23)
(1.0529 -0.32563 -1.01488e-23)
(1.08583 -0.335695 -7.98921e-25)
(1.0943 -0.337175 8.80093e-24)
(1.08265 -0.332407 -1.72491e-23)
(1.04988 -0.321954 4.13623e-21)
(0.991831 -0.304927 -3.94459e-21)
(0.904392 -0.279914 7.43491e-24)
(0.786108 -0.24593 -1.48407e-20)
(0.639348 -0.202938 7.48757e-21)
(0.470055 -0.151926 0)
(0.286352 -0.094475 -3.78086e-24)
(0.0962762 -0.0322506 3.53674e-24)
(1.00102 0.0080182 0)
(1.00575 0.0304594 1.09371e-21)
(1.01435 0.0624498 0)
(1.02326 0.107979 1.8752e-20)
(1.02484 0.176743 3.52511e-20)
(1.00701 0.29038 -4.80788e-21)
(0.898989 0.54547 -5.36893e-21)
(0.560868 0.555407 0)
(0.69407 0.609982 1.01962e-20)
(0.0644925 0.192635 2.67431e-21)
(0.100608 0.250067 0)
(0.20771 0.349724 -1.25673e-21)
(0.149464 0.303017 -8.86154e-22)
(0.0310283 0.0703816 -3.72139e-22)
(0.0413378 0.131304 0)
(0.069659 -0.0176499 0)
(0.0645922 -0.0161852 -5.6615e-22)
(0.16503 -0.043314 9.97666e-22)
(0.158962 -0.0416008 -7.58813e-24)
(0.290641 -0.0770323 3.78488e-21)
(0.443377 -0.120917 -3.30449e-24)
(0.633915 -0.178911 5.61474e-21)
(0.429249 -0.115889 -3.25545e-21)
(0.278033 -0.0729378 2.27807e-21)
(0.14742 -0.038381 0)
(0.152078 -0.03953 -9.69141e-22)
(0.0566485 -0.0142463 -2.7483e-25)
(0.060124 -0.014979 2.7411e-25)
(0.828516 -0.245198 6.26165e-21)
(0.958369 -0.289124 -7.02594e-25)
(1.03747 -0.31656 -8.72754e-24)
(1.07841 -0.330137 -4.61215e-21)
(1.09124 -0.333761 -1.68754e-23)
(1.0812 -0.330193 -4.04047e-21)
(1.04834 -0.320289 3.88008e-24)
(0.989387 -0.303421 3.68784e-24)
(0.900859 -0.278396 1.03813e-20)
(0.78174 -0.24438 1.16221e-22)
(0.634699 -0.201433 2.94362e-25)
(0.465874 -0.150609 3.26346e-24)
(0.283415 -0.0935366 3.2526e-25)
(0.0951618 -0.0319009 0)
(1.00092 0.00648699 0)
(1.00612 0.0259731 2.58324e-20)
(1.01651 0.0550303 0)
(1.0302 0.0970128 0)
(1.0435 0.160026 -2.47218e-21)
(1.05265 0.260801 -1.55004e-20)
(1.0512 0.493339 7.07063e-21)
(0.770134 0.69331 -1.60892e-22)
(0.963297 0.746289 2.74686e-21)
(0.278763 0.473095 -3.61429e-21)
(0.434688 0.585006 7.34094e-21)
(0.657081 0.684395 0)
(0.551211 0.635115 -2.90945e-21)
(0.0533032 -0.013237 0)
(0.0513101 -0.012768 5.89387e-25)
(0.142445 -0.0363405 -2.34125e-23)
(0.139661 -0.0355471 -1.00814e-21)
(0.267966 -0.0694579 -7.53027e-22)
(0.415158 -0.11173 4.97623e-23)
(0.596137 -0.165747 -6.97128e-21)
(0.402669 -0.107563 0)
(0.259344 -0.0671254 2.94262e-21)
(0.133979 -0.0339989 1.02047e-21)
(0.136239 -0.0346046 3.97373e-24)
(0.0474672 -0.0118535 2.42698e-24)
(0.0491759 -0.0122066 6.17735e-22)
(0.791458 -0.228874 -1.21089e-23)
(0.932224 -0.277173 -1.98195e-23)
(1.022 -0.308278 4.76938e-21)
(1.07028 -0.324673 0)
(1.08728 -0.330294 8.07683e-24)
(1.079 -0.327924 3.46174e-24)
(1.04627 -0.318599 0)
(0.9866 -0.30192 -3.29222e-21)
(0.897125 -0.276904 -3.12082e-21)
(0.777278 -0.242868 -6.26734e-21)
(0.630054 -0.199969 2.67302e-25)
(0.461771 -0.149331 -6.26217e-24)
(0.280569 -0.0926308 6.92638e-21)
(0.0940922 -0.0315636 -2.72438e-24)
(1.00082 0.00492839 0)
(1.0063 0.0212622 -8.40406e-21)
(1.01783 0.0469757 0)
(1.03471 0.0847842 1.39908e-20)
(1.05535 0.141053 -1.41552e-20)
(1.08098 0.226984 0)
(1.12294 0.406425 -1.18501e-20)
(1.17985 0.63053 -1.57521e-21)
(0.459991 0.473767 0)
(0.59857 0.477882 -5.80146e-21)
(0.381752 0.325133 4.48102e-21)
(0.808806 0.497912 -3.38855e-23)
(0.100071 0.201439 0)
(0.254183 0.348451 0)
(0.345684 0.372097 0)
(0.045848 -0.011332 -1.27292e-21)
(0.0449631 -0.0111148 5.34445e-24)
(0.131149 -0.0330868 1.01532e-21)
(0.129559 -0.0325821 1.02269e-21)
(0.251483 -0.0647698 2.15509e-21)
(0.388811 -0.103979 0)
(0.554361 -0.15112 1.53493e-21)
(0.374161 -0.099176 0)
(0.243906 -0.0628066 -6.57882e-22)
(0.125682 -0.03164 -9.98165e-22)
(0.127251 -0.0321342 2.00653e-21)
(0.0431693 -0.010673 0)
(0.0439619 -0.0108612 -3.12587e-25)
(0.757299 -0.216259 -4.39583e-23)
(0.908633 -0.266948 2.01528e-23)
(1.00698 -0.300561 0)
(1.0616 -0.319367 -3.6973e-24)
(1.08257 -0.326827 -3.60849e-21)
(1.07614 -0.32562 -3.45558e-24)
(1.04373 -0.316887 3.17761e-21)
(0.983502 -0.300423 -3.01585e-21)
(0.893208 -0.275441 5.77986e-21)
(0.772741 -0.241394 -2.91049e-24)
(0.625428 -0.198544 2.91331e-24)
(0.457756 -0.148092 -5.76491e-21)
(0.277816 -0.0917525 2.91866e-24)
(0.0930616 -0.031238 5.47043e-21)
(1.00073 0.00336833 0)
(1.00634 0.01645 1.49494e-23)
(1.01855 0.0385963 -1.24139e-23)
(1.03736 0.0719574 -1.42066e-20)
(1.06241 0.121267 0)
(1.09775 0.194551 0)
(1.15122 0.323958 7.27385e-21)
(1.3204 0.542081 3.05178e-24)
(0.825295 0.263462 0)
(1.16959 0.394662 6.54736e-23)
(0.187211 0.2143 1.13536e-22)
(0.209089 0.139363 0)
(0.611633 0.280591 5.541e-23)
(0.236979 0.120739 5.65261e-21)
(0.0423142 -0.0104311 -6.47121e-22)
(0.0418199 -0.0102887 0)
(0.123508 -0.0310921 -9.64957e-25)
(0.12221 -0.0306239 1.06045e-23)
(0.235963 -0.0606517 -1.32767e-21)
(0.354191 -0.0938805 -2.79758e-21)
(0.515967 -0.139829 0)
(0.329053 -0.0849643 -2.70918e-21)
(0.226313 -0.0582499 1.02585e-23)
(0.118914 -0.0298301 5.49638e-24)
(0.120298 -0.0303234 3.69496e-24)
(0.0406076 -0.0100032 0)
(0.0411723 -0.0101559 -6.38298e-22)
(0.729643 -0.206084 4.50249e-23)
(0.887627 -0.257948 1.7328e-23)
(0.992391 -0.293431 3.7892e-24)
(1.0525 -0.314259 3.67223e-21)
(1.07723 -0.323388 0)
(1.07272 -0.323291 -3.11367e-21)
(1.04076 -0.315155 0)
(0.980114 -0.298937 2.82904e-24)
(0.889125 -0.274008 2.72447e-24)
(0.768156 -0.239957 5.28333e-21)
(0.620853 -0.197155 -2.45019e-24)
(0.453831 -0.14688 0)
(0.275147 -0.0909018 -5.6125e-21)
(0.0920744 -0.0309244 4.92445e-21)
(1.00063 0.00182537 0)
(1.0063 0.011624 0)
(1.01882 0.0301073 -1.46161e-23)
(1.03866 0.0589544 2.66517e-23)
(1.06615 0.101538 4.99519e-21)
(1.10636 0.163969 0)
(1.1631 0.258985 -2.82213e-21)
(1.3361 0.431425 0)
(1.35031 0.349687 -5.1101e-20)
(0.196741 0.0519802 4.85084e-21)
(0.659373 0.16722 0)
(0.312929 0.0780122 0)
(0.901272 0.166642 3.49525e-20)
(0.0399657 -0.00984419 -6.23576e-22)
(0.0395375 -0.0097115 6.17753e-22)
(0.11696 -0.029432 4.72823e-24)
(0.115459 -0.0289018 1.81783e-21)
(0.210877 -0.0543563 2.13496e-21)
(0.305904 -0.0799606 0)
(0.49141 -0.131623 0)
(0.294377 -0.0766286 0)
(0.176369 -0.04383 0)
(0.110545 -0.0277971 1.7432e-21)
(0.113298 -0.0286213 -3.73818e-24)
(0.0385158 -0.00946812 5.99489e-22)
(0.0390034 -0.00961286 -5.87767e-25)
(0.707056 -0.197783 1.94573e-23)
(0.868556 -0.250025 -1.75703e-23)
(0.978225 -0.286835 -3.81944e-24)
(1.04309 -0.309356 3.3342e-21)
(1.07136 -0.319983 0)
(1.06879 -0.32094 -2.67651e-24)
(1.03739 -0.313415 0)
(0.976459 -0.29747 -4.78163e-24)
(0.884905 -0.272606 -4.85813e-21)
(0.763546 -0.238546 -2.00193e-25)
(0.616321 -0.195787 2.02102e-25)
(0.449997 -0.145699 5.02227e-21)
(0.272565 -0.0900772 0)
(0.091132 -0.0306241 -2.11543e-24)
(1.00054 0.000312837 0)
(1.00619 0.00684448 -7.62993e-21)
(1.01879 0.0216517 0)
(1.03904 0.0460429 1.05626e-23)
(1.06766 0.0823726 -5.08514e-21)
(1.10942 0.135104 -2.93571e-21)
(1.16787 0.208247 -8.01142e-22)
(1.30831 0.332498 -3.05792e-23)
(1.48532 0.340431 3.64272e-20)
(1.03836 0.0992265 2.70818e-20)
(0.461212 0.0515112 4.70878e-22)
(0.179292 0.0101549 -1.06883e-20)
(0.605755 0.0139569 2.58812e-20)
(0.0379546 -0.00934473 3.33887e-24)
(0.0374684 -0.00919825 -1.15797e-21)
(0.105418 -0.0270177 -8.44449e-22)
(0.0970312 -0.0232676 4.21921e-22)
(0.151707 -0.0386872 6.03073e-22)
(0.286258 -0.0741167 0)
(0.473807 -0.126071 -1.4653e-21)
(0.280849 -0.0721382 0)
(0.145023 -0.0365012 -5.57667e-22)
(0.0431453 -0.0116939 -1.80714e-22)
(0.0651754 -0.0121057 -2.65473e-22)
(0.0359965 -0.00887171 -5.57272e-22)
(0.0368567 -0.00910089 -5.69809e-22)
(0.687656 -0.190849 -4.8425e-21)
(0.850985 -0.242946 0)
(0.964403 -0.280701 -3.50491e-21)
(1.03343 -0.304635 0)
(1.06503 -0.316602 0)
(1.06439 -0.31858 2.67123e-24)
(1.03365 -0.311687 0)
(0.972566 -0.296027 9.16876e-24)
(0.88057 -0.271217 0)
(0.758914 -0.237146 -2.24742e-24)
(0.61185 -0.194441 -4.34372e-21)
(0.446259 -0.144546 2.31862e-24)
(0.270081 -0.0892807 0)
(0.090217 -0.0303324 2.12499e-24)
(1.00046 -0.00115856 0)
(1.00603 0.00215389 1.53912e-20)
(1.01855 0.013319 -6.90895e-21)
(1.03881 0.0333771 0)
(1.06768 0.0639825 -1.726e-23)
(1.10914 0.108139 3.00091e-21)
(1.16761 0.16661 8.37414e-22)
(1.27758 0.254631 6.50141e-21)
(1.47403 0.290392 3.30029e-23)
(1.41794 0.163575 -9.44718e-20)
(0.674569 -0.0333852 -9.36596e-20)
(0.370345 -0.0178646 3.95946e-20)
(0.317633 -0.0143511 0)
(0.0973973 -0.0164111 1.00531e-20)
(0.231735 -0.0240374 1.45478e-20)
(0.0340361 -0.00868134 9.65157e-24)
(0.0315319 -0.00826619 0)
(0.0376009 -0.00957267 -4.93789e-22)
(0.0350411 -0.00889397 -6.12033e-22)
(0.141379 -0.0354152 -6.06695e-22)
(0.275352 -0.070997 2.50797e-21)
(0.459298 -0.121835 5.48461e-21)
(0.271427 -0.0696367 0)
(0.138592 -0.0346308 5.61457e-22)
(0.033953 -0.00831941 0)
(0.034311 -0.00855062 5.8046e-22)
(0.018153 -0.00320614 9.78901e-23)
(0.670541 -0.184758 0)
(0.83446 -0.236519 -7.03806e-24)
(0.950787 -0.274943 0)
(1.02353 -0.300033 0)
(1.05828 -0.313244 0)
(1.05957 -0.316249 2.41516e-21)
(1.02958 -0.309996 2.27903e-21)
(0.968466 -0.294593 -4.38898e-24)
(0.876132 -0.269826 0)
(0.75427 -0.235749 1.89733e-24)
(0.607442 -0.193114 4.11528e-21)
(0.44262 -0.143418 0)
(0.267665 -0.0885076 -2.07761e-24)
(0.0893435 -0.030053 1.78912e-24)
(1.00039 -0.00257898 7.97578e-21)
(1.00583 -0.00241649 -7.76588e-21)
(1.01816 0.00516442 7.02273e-21)
(1.03818 0.0210352 -5.79738e-21)
(1.06679 0.0464026 0)
(1.10707 0.083138 6.7754e-24)
(1.16365 0.130878 0)
(1.25413 0.195095 -9.96799e-21)
(1.41733 0.233312 -1.23863e-23)
(1.53111 0.173498 8.01411e-21)
(1.20293 0.0311551 5.4528e-20)
(0.481668 -0.0737364 -7.96763e-20)
(0.19329 -0.028249 5.00742e-20)
(0.234584 -0.0473631 -2.04769e-20)
(0.117599 -0.0099235 0)
(0.158968 -0.0225432 1.46883e-23)
(0.0613303 -0.0134512 3.93528e-23)
(0.0335256 -0.00828681 5.52814e-22)
(0.0333395 -0.00816009 -5.43685e-22)
(0.136153 -0.0340735 5.39493e-22)
(0.266808 -0.0688199 -2.31332e-21)
(0.447145 -0.11771 1.21953e-21)
(0.263339 -0.0677414 -1.69098e-23)
(0.134082 -0.0335138 5.37181e-22)
(0.0328181 -0.00802299 -5.25972e-22)
(0.0329428 -0.00813177 -2.06909e-24)
(0.654766 -0.179348 -4.20515e-21)
(0.81853 -0.230587 7.09457e-24)
(0.937213 -0.269403 -2.78899e-24)
(1.01336 -0.295497 0)
(1.05114 -0.309961 -2.41658e-21)
(1.05438 -0.314003 -2.23804e-21)
(1.02524 -0.308324 -3.93444e-24)
(0.964186 -0.293141 -3.71602e-24)
(0.871601 -0.268419 1.78308e-24)
(0.749636 -0.234358 -3.67081e-21)
(0.6031 -0.191803 -3.78347e-21)
(0.439074 -0.142321 1.79856e-24)
(0.265339 -0.0877614 1.71956e-25)
(0.088505 -0.0297832 -3.44234e-24)
(1.00032 -0.00393787 -8.04139e-21)
(1.0056 -0.00683899 0)
(1.01765 -0.00277654 8.01525e-25)
(1.03731 0.00904749 3.55641e-23)
(1.06537 0.0295853 3.31676e-24)
(1.10414 0.0599419 0)
(1.15765 0.0993 1.46982e-24)
(1.23604 0.148334 3.04757e-22)
(1.36294 0.181907 7.36188e-21)
(1.51122 0.155832 5.85668e-20)
(1.46665 0.0667136 0)
(0.996877 -0.0437341 5.76152e-20)
(0.400252 -0.0724379 -2.0555e-20)
(0.182585 -0.0369112 -2.69936e-22)
(0.170517 -0.045695 4.758e-21)
(0.0628846 -0.0090392 -1.97811e-22)
(0.0668986 -0.0146114 -1.23771e-20)
(0.0777182 -0.0152986 1.3003e-20)
(0.0823253 -0.0233278 1.32782e-20)
(0.0228325 -0.00482412 0)
(0.0371667 -0.00980857 -9.46398e-21)
(0.0324286 -0.00800851 -5.15402e-22)
(0.0323131 -0.00790785 -5.06681e-22)
(0.131965 -0.0330684 1.53134e-21)
(0.25975 -0.0673271 -2.18846e-21)
(0.435671 -0.114302 5.94752e-21)
(0.257722 -0.0657179 -1.8542e-21)
(0.129842 -0.0326051 0)
(0.0318521 -0.0077874 1.92932e-24)
(0.0319573 -0.00789134 -9.96746e-22)
(0.639646 -0.174361 -3.96311e-21)
(0.802771 -0.224899 -3.21212e-21)
(0.92347 -0.263908 2.79669e-24)
(1.00292 -0.291086 -4.6438e-24)
(1.04372 -0.306873 -3.2055e-25)
(1.04896 -0.311822 2.07076e-21)
(1.02068 -0.306632 3.92936e-24)
(0.959735 -0.29166 3.71123e-24)
(0.866999 -0.266998 1.76356e-21)
(0.745011 -0.23297 3.37204e-21)
(0.59884 -0.190516 0)
(0.435635 -0.141253 -1.80052e-24)
(0.26309 -0.087038 1.91353e-24)
(0.0876995 -0.0295247 -3.31984e-21)
(1.00025 -0.00522167 0)
(1.00532 -0.0110845 2.03885e-24)
(1.01704 -0.0104764 0)
(1.03627 -0.00258566 5.96281e-21)
(1.06368 0.0134486 4.36157e-21)
(1.10089 0.0382776 -4.42658e-24)
(1.15101 0.0708789 0)
(1.22063 0.109808 3.06673e-21)
(1.32208 0.138694 -1.43156e-20)
(1.45294 0.128145 -2.73469e-20)
(1.53038 0.0739191 6.51084e-23)
(1.34944 -0.0111687 0)
(0.845622 -0.0816222 -1.21354e-22)
(0.355706 -0.066453 -8.08965e-20)
(0.170025 -0.0309644 -5.62528e-22)
(0.174901 -0.040191 3.24912e-20)
(0.0911811 -0.0192256 -1.56521e-22)
(0.087001 -0.0208953 0)
(0.0752759 -0.0175596 -5.68771e-21)
(0.0617291 -0.0204479 0)
(0.0111019 -0.00226784 8.12511e-21)
(0.0135094 -0.00392867 0)
(0.0169499 -0.00432511 -6.44221e-23)
(0.0145587 -0.00638702 -8.26954e-21)
(0.0314856 -0.00778066 4.78083e-22)
(0.0313715 -0.00768041 -4.71662e-22)
(0.127938 -0.0323518 2.3073e-21)
(0.253075 -0.064484 -4.50578e-22)
(0.42487 -0.111238 5.52862e-21)
(0.250429 -0.0635674 -2.20827e-21)
(0.157944 -0.0419878 0)
(0.158139 -0.0408516 5.65645e-22)
(0.0308539 -0.00757497 -1.769e-24)
(0.0309944 -0.00766193 -4.61523e-22)
(0.624453 -0.169507 3.69594e-21)
(0.786549 -0.219108 0)
(0.909533 -0.258466 0)
(0.992427 -0.287054 4.65465e-24)
(1.03623 -0.303949 -2.09036e-21)
(1.04335 -0.309647 1.9168e-21)
(1.01591 -0.304908 0)
(0.955131 -0.29015 -1.66072e-21)
(0.862342 -0.265568 0)
(0.740422 -0.231589 0)
(0.594673 -0.189251 0)
(0.432294 -0.140213 -3.31253e-21)
(0.260917 -0.0863398 3.35954e-21)
(0.0869236 -0.0292765 -2.91124e-24)
(1.00019 -0.0064134 0)
(1.00499 -0.0151172 -4.03889e-24)
(1.01632 -0.0179049 3.44935e-24)
(1.03509 -0.0138748 0)
(1.06186 -0.0021129 -8.99409e-21)
(1.09766 0.0178435 2.48558e-21)
(1.1446 0.0449051 1.17146e-24)
(1.20706 0.076729 0)
(1.29193 0.102101 6.86508e-21)
(1.39848 0.0997232 -1.1635e-23)
(1.50105 0.0655627 0)
(1.49743 0.00627174 -1.36767e-22)
(1.22798 -0.0646664 -4.295e-20)
(0.742275 -0.0967594 6.16529e-20)
(0.334749 -0.0642057 -9.58578e-20)
(0.156924 -0.0294694 3.37176e-20)
(0.157751 -0.0352393 -1.319e-22)
(0.0620184 -0.013256 -6.91021e-21)
(0.0898852 -0.020711 -1.02621e-20)
(0.0897679 -0.0227004 1.00911e-20)
(0.0435305 -0.0101548 -1.35329e-22)
(0.041385 -0.00931566 0)
(0.0251199 -0.00338314 3.89225e-21)
(0.0120489 -0.00409877 -8.60271e-21)
(0.0305322 -0.0075496 -4.51536e-22)
(0.0303092 -0.00756985 -4.41431e-22)
(0.0936879 -0.0252345 -6.10253e-22)
(0.157011 -0.0397985 5.7425e-22)
(0.156488 -0.0392847 0)
(0.24731 -0.0630951 3.3665e-24)
(0.413758 -0.108113 -9.79747e-22)
(0.244755 -0.0622073 -1.64476e-21)
(0.155649 -0.0390641 5.57425e-22)
(0.154989 -0.0388053 5.5321e-22)
(0.0938411 -0.0241431 -1.01497e-21)
(0.607932 -0.164338 0)
(0.769646 -0.212896 0)
(0.895782 -0.253682 0)
(0.982253 -0.283348 8.0847e-24)
(1.02877 -0.301097 -1.92667e-21)
(1.03757 -0.307463 0)
(1.01094 -0.303158 0)
(0.950411 -0.288619 0)
(0.857656 -0.264127 0)
(0.735884 -0.230219 0)
(0.590595 -0.188011 5.80532e-21)
(0.429045 -0.139202 -1.40207e-24)
(0.258817 -0.0856679 -3.25168e-21)
(0.0861812 -0.0290373 2.81859e-21)
(1.00013 -0.0074904 4.48635e-24)
(1.00459 -0.0188884 8.52185e-24)
(1.01543 -0.0250201 4.03885e-24)
(1.03374 -0.0248252 -3.42454e-24)
(1.05996 -0.0172043 9.45145e-21)
(1.09461 -0.00166133 -5.21354e-21)
(1.13886 0.0207773 0)
(1.19541 0.0474219 0)
(1.26852 0.070141 -5.48769e-21)
(1.3568 0.073217 0)
(1.44971 0.0511143 -1.23129e-20)
(1.51362 0.0101793 0)
(1.43888 -0.0466996 3.82429e-20)
(1.12106 -0.0971241 -8.71382e-23)
(0.673826 -0.101368 6.13673e-20)
(0.319919 -0.0627774 -3.6802e-20)
(0.161377 -0.0318771 -7.17362e-22)
(0.157489 -0.035054 6.29591e-20)
(0.0583576 -0.0133385 -2.9221e-20)
(0.0569236 -0.0135767 7.13545e-21)
(0.0112583 -0.00240324 6.50313e-21)
(0.0450367 -0.0113467 -1.6366e-22)
(0.0113982 -0.00353695 0)
(0.0447793 -0.0116038 -8.52929e-21)
(0.0106714 -0.00303283 -6.09284e-21)
(0.0107895 -0.0030672 -6.02667e-21)
(0.00642893 -0.000866123 4.64082e-21)
(0.0305923 -0.00794698 4.27363e-22)
(0.092197 -0.023182 1.97293e-24)
(0.0916224 -0.0227974 -5.04497e-22)
(0.154055 -0.0387276 5.39748e-22)
(0.15339 -0.038514 5.28946e-22)
(0.241594 -0.0616272 0)
(0.400243 -0.104459 -1.02292e-21)
(0.238524 -0.0605505 1.5242e-21)
(0.152471 -0.0383556 5.02837e-25)
(0.151734 -0.0380647 -5.03592e-25)
(0.0911829 -0.0226492 -9.89534e-22)
(0.0907969 -0.0225263 -4.93345e-22)
(0.0305619 -0.00768315 3.76527e-22)
(0.588547 -0.157662 0)
(0.753097 -0.207745 0)
(0.883047 -0.249431 8.59655e-24)
(0.972521 -0.279811 1.97936e-21)
(1.0213 -0.298299 0)
(1.03162 -0.305283 3.05302e-24)
(1.00581 -0.301388 0)
(0.945601 -0.287066 1.43222e-21)
(0.852966 -0.262682 -1.38044e-21)
(0.731408 -0.228865 -2.62921e-21)
(0.586614 -0.1868 2.72692e-21)
(0.42589 -0.138222 2.68643e-21)
(0.256791 -0.0850181 -2.83436e-21)
(0.0854623 -0.0288051 -2.35183e-24)
(1.00007 -0.00842299 0)
(1.00409 -0.0223333 4.32988e-24)