/*--------------------------------*- C++ -*----------------------------------*\
| =========                 |                                                 |
| \\      /  F ield         | OpenFOAM: The Open Source CFD Toolbox           |
|  \\    /   O peration     | Version:  v1912                                 |
|   \\  /    A nd           | Website:  www.openfoam.com                      |
|    \\/     M anipulation  |                                                 |
\*---------------------------------------------------------------------------*/
FoamFile
{
    version     2.0;
    format      ascii;
    class       volScalarField;
    location    "30";
    object      p;
}
// * * * * * * * * * * * * * * * * * * * * * * * * * * * * * * * * * * * * * //

dimensions      [0 2 -2 0 0 0 0];


internalField   nonuniform List<scalar> 
3754
(
0.0195345
0.0195841
0.0189628
0.0198522
0.019011
0.0183626
0.0204086
0.0192789
0.0184247
0.0177092
0.0211335
0.0198166
0.0187049
0.0177913
0.017034
0.0218286
0.020507
0.0192399
0.0180958
0.0171426
0.01638
0.0223322
0.0211404
0.019904
0.0186459
0.0174707
0.0165131
0.0157801
0.0226587
0.0215856
0.0204896
0.0193005
0.0180324
0.0168628
0.0159359
0.0152722
0.0228966
0.021848
0.0208727
0.0198475
0.0186825
0.0174378
0.0163055
0.0154429
0.0148555
0.0231787
0.022053
0.0210832
0.020184
0.0192134
0.0180932
0.0168929
0.0158258
0.0150337
0.0145121
0.0234784
0.0223032
0.0212555
0.0203521
0.0195266
0.0186208
0.0175543
0.0164207
0.015426
0.0146886
0.0142028
0.0237793
0.0226125
0.0215127
0.020508
0.0196824
0.0189354
0.0180939
0.0170881
0.0160288
0.0150812
0.0143689
0.0138967
0.0240482
0.0228914
0.0218559
0.0207585
0.019833
0.0191024
0.018427
0.0176418
0.0167006
0.0156826
0.0147566
0.0140476
0.013557
0.0245297
0.0230942
0.024204
0.0222
0.0211042
0.0200888
0.0192802
0.0186238
0.0180034
0.0172656
0.0163549
0.0153584
0.0144232
0.0136939
0.0131778
0.0248773
0.0234103
0.0224593
0.0233505
0.0244679
0.0214537
0.0204379
0.0195615
0.01883
0.0182331
0.0176462
0.0169243
0.0160249
0.0150142
0.0140568
0.0133022
0.0127501
0.0250415
0.0235554
0.0228173
0.0217097
0.0225594
0.0234691
0.0246377
0.0247862
0.0207789
0.0199206
0.0191347
0.018469
0.0178998
0.0173146
0.0165852
0.0156715
0.0146403
0.0136518
0.0128708
0.0122814
0.0251669
0.0242501
0.0233847
0.0230786
0.0219978
0.0210424
0.0218117
0.0226681
0.0236028
0.0237759
0.0248168
0.0249492
0.0202586
0.0195005
0.0187799
0.0181439
0.017575
0.0169673
0.016218
0.0152881
0.0142258
0.0132131
0.0124013
0.0117876
0.0251895
0.0249306
0.0229946
0.0232647
0.0231407
0.0222232
0.0213425
0.0205071
0.0211874
0.0219326
0.0227103
0.0228173
0.0237481
0.0245289
0.0247478
0.0249679
0.0198193
0.0191256
0.0184455
0.0178176
0.0172198
0.016583
0.0158199
0.0148652
0.0137814
0.0127431
0.0119161
0.0112724
0.0249391
0.0223777
0.0233966
0.023181
0.0224153
0.0223292
0.021564
0.0207889
0.0200362
0.0206525
0.0213126
0.0220143
0.0220898
0.0227506
0.0229272
0.0194134
0.0187635
0.0180928
0.0174421
0.0168148
0.0161615
0.0153821
0.0144151
0.0133122
0.0122624
0.011414
0.0107528
0.0225385
0.0224021
0.021743
0.0216771
0.020992
0.0202809
0.0195893
0.0201499
0.0207591
0.0213855
0.0214584
0.022066
0.0222077
0.0190045
0.018363
0.0176887
0.017017
0.0163683
0.0157047
0.0149234
0.0139446
0.0128324
0.0117754
0.0109119
0.0102348
0.0218561
0.0217478
0.0211554
0.021084
0.0204594
0.0198001
0.0191424
0.0196722
0.0202321
0.0208165
0.0208848
0.0214372
0.0215538
0.0185627
0.0179291
0.0172379
0.0165438
0.0158918
0.0152323
0.0144482
0.0134666
0.0123565
0.0112911
0.0104103
0.00971065
0.0212542
0.021145
0.0205994
0.0205336
0.0199506
0.019326
0.0186712
0.019198
0.01974
0.0202713
0.0203405
0.0208585
0.0209661
0.0180995
0.0174537
0.0167507
0.0160572
0.0154073
0.014752
0.0139712
0.0129945
0.0118845
0.0108112
0.00990742
0.00919682
0.0206805
0.0205821
0.0200729
0.0200063
0.0194596
0.0188521
0.0181983
0.0187149
0.0192565
0.019775
0.0198327
0.0203001
0.0204112
0.017617
0.0169657
0.0162594
0.0155671
0.0149243
0.0142744
0.0135002
0.0125297
0.0114239
0.0103345
0.00940754
0.00868664
0.0201459
0.0200445
0.0195735
0.0195196
0.0189851
0.0183774
0.0177196
0.0182448
0.0187791
0.0192854
0.0193506
0.0197976
0.0198975
0.017137
0.0164825
0.0157812
0.0150921
0.0144538
0.0138093
0.0130421
0.0120814
0.0109694
0.00985581
0.00891312
0.00818252
0.0196422
0.0195575
0.0191013
0.0190461
0.0185148
0.0179167
0.0172622
0.0177866
0.0183177
0.0188238
0.018879
0.0193098
0.0194113
0.0166783
0.0160266
0.0153211
0.0146341
0.013998
0.0133593
0.0126035
0.0116452
0.0105148
0.00938192
0.00842056
0.00768352
0.0191736
0.0190877
0.0186386
0.0185846
0.0180702
0.0174743
0.0168218
0.0173465
0.0178776
0.0183656
0.0184329
0.0188564
0.0189452
0.0162408
0.0155885
0.0148856
0.0141982
0.0135641
0.012934
0.012182
0.0112104
0.0100609
0.00890677
0.00793308
0.00718695
0.0187174
0.0186262
0.0182036
0.0181504
0.017639
0.0170498
0.0164053
0.0169232
0.0174484
0.0179425
0.0179994
0.0184064
0.0185107
0.0158314
0.0151813
0.0144733
0.0137831
0.0131532
0.0125267
0.0117665
0.0107744
0.00960121
0.00843557
0.00744681
0.00668832
0.0182849
0.0182027
0.0177783
0.0177278
0.0172217
0.0166374
0.0160048
0.0165173
0.0170336
0.0175165
0.0175786
0.0179906
0.0180811
0.0154374
0.0147884
0.0140779
0.0133879
0.0127635
0.0121308
0.0113478
0.0103278
0.00914261
0.00796295
0.00695652
0.00618446
0.0178596
0.0177859
0.0173601
0.0173134
0.0168078
0.01624
0.015621
0.0161163
0.0166302
0.0171083
0.0171633
0.0175643
0.017666
0.0150674
0.0144124
0.0136935
0.0130109
0.0123854
0.0117311
0.0109141
0.00987536
0.00867958
0.00748462
0.00645927
0.00568333
0.0174415
0.0173733
0.0169482
0.0168978
0.0164085
0.0158465
0.0152507
0.0157282
0.0162263
0.0167001
0.0167529
0.0171557
0.0172495
0.0146968
0.014031
0.0133194
0.0126475
0.012005
0.0113117
0.010465
0.00941359
0.00820923
0.00699584
0.00596267
0.00518931
0.0170277
0.0169569
0.0165471
0.0164927
0.0160095
0.0154731
0.0148895
0.0153476
0.0158322
0.0162918
0.0163522
0.0167426
0.016832
0.0143295
0.0136402
0.0129595
0.0122822
0.011599
0.0108675
0.0100008
0.00894035
0.00772404
0.0065038
0.00546852
0.0047158
0.0166284
0.0165476
0.016141
0.0160907
0.0156273
0.015101
0.0145332
0.0149758
0.0154492
0.0158938
0.0159474
0.0163323
0.0164311
0.0139065
0.0132652
0.0126113
0.011888
0.0111604
0.0104013
0.00952013
0.00845351
0.00723324
0.0060091
0.00499074
0.00426293
0.0162185
0.0161435
0.0157538
0.015702
0.0152433
0.014741
0.0141264
0.0146077
0.0150701
0.0155057
0.0155681
0.0159327
0.016019
0.0134746
0.0129423
0.012221
0.0114494
0.010695
0.00991633
0.0090273
0.00795871
0.00673861
0.0055254
0.00453365
0.00383081
0.0158273
0.0157505
0.0153648
0.0153112
0.0148697
0.0143663
0.0135781
0.0142276
0.0146943
0.0151178
0.0151772
0.01554
0.0156409
0.0131864
0.0125599
0.011778
0.010987
0.0102132
0.00942058
0.00852847
0.00746301
0.00624827
0.0050605
0.00409469
0.00341753
0.0154354
0.0153577
0.0149805
0.0149216
0.0144902
0.0138952
0.0133245
0.0135681
0.0143471
0.0147238
0.0147936
0.0151491
0.0152426
0.0128295
0.0121022
0.0113147
0.0105127
0.00972149
0.00892224
0.00803157
0.00696794
0.00577196
0.00461129
0.0036752
0.00301705
0.0150438
0.0149596
0.0145779
0.0145095
0.0141297
0.0134974
0.0129822
0.0134517
0.0134659
0.0143229
0.0143968
0.0147475
0.0148466
0.0123609
0.011643
0.0108569
0.0100346
0.00922985
0.00842732
0.00753669
0.00648201
0.00530954
0.00418263
0.00327152
0.00262582
0.014624
0.01453
0.0142431
0.0142367
0.0136195
0.0131264
0.0125269
0.0129879
0.0135215
0.0131878
0.0142249
0.014315
0.01441
0.0119067
0.0112035
0.0103961
0.00955473
0.00874176
0.00793568
0.00704385
0.00600598
0.00486543
0.0037706
0.00287582
0.00224368
0.0142235
0.0142237
0.0140933
0.0137471
0.0132207
0.012705
0.0120951
0.0125844
0.0130284
0.0134621
0.0135284
0.0125999
0.0142489
0.0114907
0.0107699
0.00993741
0.00908083
0.00825702
0.00744202
0.00655586
0.00553894
0.00443488
0.00336548
0.00249146
0.0018753
0.0132578
0.0132151
0.0128189
0.0123188
0.011697
0.0121993
0.0126538
0.0130375
0.0130682
0.0110822
0.0103304
0.00947601
0.00860076
0.00776291
0.00694138
0.00606357
0.00508131
0.00401094
0.00297147
0.00211968
0.00152206
0.0128856
0.012847
0.0124519
0.0119422
0.0113058
0.011815
0.0122838
0.0126733
0.0127131
0.010665
0.00988873
0.00900674
0.00810849
0.00725269
0.00642636
0.00557307
0.00462866
0.00359617
0.00258792
0.00176353
0.00119434
0.0125297
0.0124858
0.0120829
0.0115616
0.0108998
0.0114284
0.0119072
0.0123037
0.0123475
0.0102328
0.00942477
0.00851326
0.00758856
0.00671672
0.00590149
0.00508187
0.00418049
0.0031877
0.00221712
0.00143322
0.000899782
0.0121611
0.0121167
0.011705
0.0111662
0.0104786
0.0110234
0.0115252
0.0119319
0.0119789
0.00978205
0.00893912
0.0079913
0.00704082
0.00616253
0.00536897
0.00459162
0.00373561
0.00278765
0.00186876
0.00113644
0.000651915
0.011786
0.0117382
0.0113116
0.0107569
0.0100327
0.0106042
0.0111238
0.0115491
0.0115974
0.00929783
0.00841323
0.00743425
0.00646298
0.0055936
0.00483588
0.00410478
0.00329651
0.00240357
0.00155192
0.000884024
0.00045818
0.0113982
0.0113451
0.0109071
0.0103259
0.00956141
0.0101612
0.0107126
0.0111422
0.0112039
0.00878719
0.00786566
0.00685194
0.00587394
0.0050256
0.00430807
0.00362521
0.00286967
0.00204563
0.00127332
0.000684131
0.000330992
0.0109967
0.010942
0.0104833
0.00987304
0.00906238
0.00969951
0.0102785
0.0107402
0.0107971
0.00824553
0.00728278
0.00625168
0.0052808
0.0044642
0.00379125
0.00315788
0.00246153
0.00171803
0.00104247
0.000545476
0.000283139
0.0105806
0.0105235
0.0100431
0.00939954
0.00854369
0.00921302
0.00982826
0.0103106
0.0103742
0.00768636
0.00669648
0.00565844
0.0047042
0.00392215
0.00329394
0.00270739
0.00207858
0.00142916
0.00086446
0.000480715
0.000325086
0.0101508
0.010089
0.00958467
0.00890402
0.00800108
0.0087105
0.00935682
0.00986601
0.00993215
0.00711046
0.00610683
0.0050758
0.00414545
0.00340209
0.0028159
0.00227975
0.00172575
0.00118555
0.000749708
0.000501538
0.000485148
0.00970389
0.00963684
0.00910178
0.00839033
0.00744131
0.0081831
0.00886719
0.00940318
0.00947495
0.00654297
0.00554354
0.00452154
0.00361569
0.00291047
0.00236179
0.00187684
0.00140791
0.000993288
0.000714455
0.000625381
0.000747933
0.00923183
0.00915868
0.00860116
0.00785494
0.0068805
0.00763513
0.00835391
0.00891371
0.0089942
0.00598878
0.00499521
0.00398204
0.00311078
0.00243971
0.00192702
0.00149966
0.00113549
0.000877104
0.000758091
0.000929934
0.000294792
0.00873789
0.00865766
0.00808298
0.00727205
0.00634317
0.00692389
0.00785486
0.00839779
0.00848412
0.00546466
0.00446377
0.00347162
0.00262902
0.00198865
0.00151512
0.00116159
0.00093171
0.000818922
0.00102914
0.000413709
0.00821931
0.0081364
0.00762144
0.00672047
0.00581562
0.00652316
0.00649298
0.00688802
0.0078924
0.00797017
0.0049289
0.00393775
0.002969
0.0021584
0.00155232
0.00113065
0.00088343
0.000779466
0.000999206
0.000475458
0.00772991
0.00764588
0.00823427
0.00690393
0.00687846
0.00618669
0.00528466
0.00597633
0.00675204
0.00667711
0.00733742
0.00440718
0.00342668
0.00247954
0.00169857
0.00113421
0.000796046
0.000656135
0.000858387
0.000443897
0.0077
0.00712936
0.00704318
0.00649019
0.00639691
0.00565138
0.00475399
0.00543882
0.00623949
0.00613938
0.00693338
0.00682661
0.00736071
0.00387625
0.00290627
0.00198303
0.00124256
0.000748537
0.00050716
0.00064394
0.000342775
0.00720438
0.00711249
0.00669038
0.00656986
0.00595094
0.00584371
0.00512189
0.00422669
0.00490258
0.00569593
0.00558997
0.00642658
0.00629748
0.00701302
0.00689989
0.00335367
0.00238742
0.00148978
0.000802535
0.000395306
0.00040671
0.000199164
0.00678242
0.00665454
0.00614478
0.00600957
0.00541142
0.00530517
0.00459914
0.0036982
0.00438495
0.00516005
0.00505119
0.00587236
0.00574253
0.00651802
0.0063798
0.00280697
0.0018466
0.000985222
0.000376408
0.000199263
4.55705e-05
0.00623677
0.00609453
0.00559456
0.005468
0.00488681
0.0047819
0.00408726
0.00316293
0.00386529
0.00464351
0.00454192
0.0053305
0.00520439
0.00595906
0.00582237
0.00225442
0.00129255
0.000481459
6.04856e-05
-8.91868e-05
0.00568306
0.00555097
0.00506566
0.00494399
0.00438367
0.00427566
0.00357506
0.0026092
0.00335274
0.00414205
0.00403745
0.00481455
0.00469522
0.00541531
0.00528614
0.00165421
0.000708673
2.24179e-05
-0.000179265
0.00514908
0.00502555
0.0045651
0.00444259
0.00388461
0.00378269
0.00306286
0.0020109
0.00282422
0.00365313
0.0035507
0.00432187
0.00420358
0.00490008
0.00477473
0.00102114
0.000102245
-0.00020451
0.00465133
0.00452852
0.00407773
0.00396597
0.00340629
0.00330017
0.00251666
0.00134256
0.00225314
0.00316438
0.00305659
0.00385022
0.00373942
0.00441043
0.00428866
0.000267171
-0.000167015
0.0041729
0.00405933
0.00361959
0.00350649
0.00290078
0.00277868
0.00190776
0.000459365
0.00160164
0.00263426
0.00251005
0.00338478
0.00326697
0.00394899
0.00383936
-8.312e-05
0.00372443
0.00361126
0.00313231
0.00300326
0.00234231
0.00220804
0.0011543
-2.29703e-05
0.000681423
0.00205927
0.00192595
0.00286948
0.00274406
0.00349551
0.00337168
0.00324175
0.0031124
0.00260674
0.0024809
0.00173328
0.00155877
-4.00605e-05
-7.55572e-05
0.00132345
0.00107768
0.00236238
0.0022498
0.0029812
0.0028586
0.00273646
0.00262774
0.002113
0.00196418
0.000664274
0.00020245
-0.000376337
-0.000101417
0.0017649
0.00150027
0.0025339
0.00244947
0.00235359
0.00224079
0.00110013
0.000474211
-0.000350543
-0.000100663
0.00206989
0.0018037
0.00137246
0.000660552
-0.000483674
-0.000325615
-0.0574421
-0.0577455
-0.0566274
-0.0569037
-0.0577155
-0.0586187
-0.0557297
-0.0558928
-0.0568979
-0.058158
-0.0585174
-0.0590593
-0.0549523
-0.055998
-0.0550828
-0.0565628
-0.0592346
-0.0596898
-0.0591658
-0.0597079
-0.0541314
-0.0551397
-0.0542346
-0.0560104
-0.0548301
-0.0625383
-0.0596754
-0.0612953
-0.0598818
-0.0606596
-0.0532582
-0.054271
-0.0533867
-0.0564072
-0.0528578
-0.0532699
-0.0630495
-0.06296
-0.0600262
-0.0607251
-0.0615663
-0.0614997
-0.0525638
-0.0534915
-0.0526514
-0.0567257
-0.0532814
-0.0500301
-0.0517196
-0.0527191
-0.0634375
-0.0623392
-0.0602512
-0.0622175
-0.0518773
-0.0519856
-0.0569307
-0.0535969
-0.0504355
-0.0476348
-0.0489064
-0.0504178
-0.0512572
-0.052016
-0.0636927
-0.0603776
-0.0511722
-0.0512577
-0.0570501
-0.0538051
-0.050738
-0.0479666
-0.0455828
-0.0468619
-0.0478779
-0.0481811
-0.0491657
-0.0498944
-0.0506306
-0.0638463
-0.0604413
-0.0504248
-0.050537
-0.0571224
-0.0539381
-0.0509523
-0.0482067
-0.045816
-0.043608
-0.0449312
-0.0459559
-0.046801
-0.04767
-0.0486882
-0.049196
-0.049858
-0.0639305
-0.0604603
-0.0497864
-0.0571676
-0.0540344
-0.0511071
-0.0483846
-0.0459734
-0.0437879
-0.0416397
-0.0430238
-0.0440069
-0.0448992
-0.0458675
-0.0465149
-0.047034
-0.04788
-0.0474051
-0.048507
-0.0491155
-0.0639661
-0.0604362
-0.0571788
-0.0541132
-0.0512283
-0.0485317
-0.0460881
-0.0439023
-0.0417961
-0.0396975
-0.0411231
-0.0420637
-0.0430194
-0.0439399
-0.0445886
-0.0451199
-0.0460396
-0.0455329
-0.0639559
-0.0603682
-0.0571503
-0.0541638
-0.0513253
-0.0486633
-0.0461997
-0.0439781
-0.041903
-0.0398404
-0.0377022
-0.0390989
-0.040155
-0.041174
-0.0420078
-0.0427464
-0.0432027
-0.0441045
-0.0436076
-0.0638975
-0.060266
-0.0570884
-0.0541785
-0.0513895
-0.0487742
-0.0463199
-0.0440601
-0.0419705
-0.0399415
-0.0378681
-0.0357904
-0.0371421
-0.0381281
-0.039099
-0.0401337
-0.0409058
-0.0415124
-0.0423518
-0.0417662
-0.0638005
-0.0601518
-0.0570108
-0.0541608
-0.0514147
-0.0488481
-0.0464334
-0.0441636
-0.0420438
-0.0400152
-0.0379856
-0.0359481
-0.0339704
-0.0352781
-0.036217
-0.0371707
-0.038121
-0.038876
-0.0393776
-0.0403646
-0.0398515
-0.0408449
-0.0414544
-0.0415905
-0.0636876
-0.060053
-0.0569435
-0.0541263
-0.0514072
-0.0488772
-0.0465145
-0.0442717
-0.042141
-0.0400979
-0.0380798
-0.0360659
-0.0341137
-0.032205
-0.033472
-0.034382
-0.0353099
-0.036232
-0.0369799
-0.0374641
-0.038385
-0.0379095
-0.038906
-0.0393842
-0.0403363
-0.0398602
-0.0635894
-0.059997
-0.0569094
-0.0540974
-0.0513832
-0.0488693
-0.04655
-0.0443552
-0.0422474
-0.0402043
-0.0381868
-0.0361735
-0.0342163
-0.0323375
-0.0304596
-0.0316953
-0.0325848
-0.0334812
-0.0343931
-0.035123
-0.035594
-0.0365001
-0.036039
-0.0370197
-0.0374915
-0.0384016
-0.0379484
-0.0635349
-0.0600019
-0.0569255
-0.0540934
-0.0513651
-0.0488431
-0.0465453
-0.0443956
-0.0423328
-0.0403184
-0.0383158
-0.0363036
-0.0343183
-0.0324243
-0.0305871
-0.0286726
-0.0299298
-0.0307995
-0.0316566
-0.0325664
-0.0332723
-0.0337346
-0.0346427
-0.0341909
-0.0351561
-0.0356223
-0.0365279
-0.0360795
-0.0635455
-0.0600833
-0.0570053
-0.0541291
-0.0513709
-0.0488227
-0.0465192
-0.0443949
-0.0423769
-0.0404106
-0.0384485
-0.036458
-0.0344554
-0.0325143
-0.0306672
-0.0288213
-0.0268285
-0.0280864
-0.0289912
-0.0298348
-0.0307335
-0.0313962
-0.0318604
-0.0327797
-0.0323284
-0.0332793
-0.0337467
-0.0346629
-0.034216
-0.0636371
-0.060247
-0.0571553
-0.0542155
-0.0514135
-0.0488263
-0.0464957
-0.0443706
-0.0423801
-0.040461
-0.038555
-0.036613
-0.0346252
-0.0326474
-0.0307484
-0.0289178
-0.0270236
-0.0248939
-0.0261257
-0.0270931
-0.0279023
-0.02888
-0.0294932
-0.0299536
-0.0308867
-0.0304301
-0.0313598
-0.0318377
-0.0327768
-0.0323193
-0.0638175
-0.0604969
-0.0573793
-0.054359
-0.0515021
-0.048866
-0.0464939
-0.0443455
-0.0423584
-0.0404702
-0.0386168
-0.0367377
-0.0347973
-0.03282
-0.0308732
-0.0290016
-0.0271523
-0.0251626
-0.0230243
-0.0241215
-0.0250811
-0.0258855
-0.0269301
-0.027552
-0.0278875
-0.0289488
-0.0285232
-0.0293797
-0.0298678
-0.0308398
-0.0303663
-0.0640888
-0.0608318
-0.0576785
-0.0545636
-0.0516422
-0.0489503
-0.0465269
-0.0443389
-0.042333
-0.0404534
-0.0386359
-0.0368146
-0.034938
-0.0329983
-0.031039
-0.02912
-0.0272526
-0.0253496
-0.023337
-0.0212525
-0.0222103
-0.0231427
-0.0238759
-0.0248499
-0.0253984
-0.0258931
-0.0269497
-0.0264431
-0.0274624
-0.0276456
-0.028843
-0.0285377
-0.0644506
-0.0612444
-0.0580457
-0.0548316
-0.0518377
-0.0490843
-0.0466031
-0.0443644
-0.0423228
-0.0404305
-0.0386277
-0.0368471
-0.03503
-0.0331474
-0.0312139
-0.0292761
-0.0273728
-0.025487
-0.0235686
-0.0216467
-0.0199344
-0.0200589
-0.0212305
-0.0220001
-0.0229196
-0.0234385
-0.0239099
-0.02486
-0.024395
-0.0251967
-0.0257003
-0.0267711
-0.0262203
-0.0272024
-0.0271841
-0.064893
-0.0617272
-0.058475
-0.0551574
-0.0520913
-0.0492719
-0.0467273
-0.0444308
-0.0423417
-0.0404199
-0.0386117
-0.0368512
-0.035077
-0.0332498
-0.0313631
-0.0294415
-0.0275207
-0.0256211
-0.0237415
-0.0218965
-0.0202293
-0.0195124
-0.0188834
-0.0205875
-0.0210249
-0.0215422
-0.0220299
-0.0229455
-0.0224879
-0.0232807
-0.0237565
-0.0246932
-0.0242256
-0.0250327
-0.025521
-0.0265337
-0.0260297
-0.0654084
-0.0622709
-0.0589582
-0.0555365
-0.0523994
-0.0495161
-0.0469039
-0.0445436
-0.0423995
-0.0404356
-0.0386055
-0.0368462
-0.0350953
-0.0333091
-0.0314697
-0.0295837
-0.0276734
-0.0257658
-0.0238904
-0.0220862
-0.0204426
-0.0190854
-0.0186208
-0.0191686
-0.0196077
-0.0179259
-0.0201555
-0.0209789
-0.0202579
-0.0214141
-0.0218871
-0.0228031
-0.0223446
-0.0231454
-0.0236119
-0.0245384
-0.02408
-0.065985
-0.0628558
-0.05948
-0.0559624
-0.0527588
-0.0498149
-0.0471365
-0.044708
-0.0425026
-0.0404883
-0.038623
-0.0368491
-0.035104
-0.0333411
-0.0315372
-0.0296884
-0.0278045
-0.0259061
-0.0240308
-0.0222373
-0.0206086
-0.0192299
-0.0180763
-0.0177285
-0.0182735
-0.0187307
-0.0189994
-0.0192482
-0.019448
-0.0196428
-0.0169963
-0.019871
-0.02014
-0.0208197
-0.0209427
-0.0212932
-0.0217563
-0.0226705
-0.0222204
-0.066602
-0.0634574
-0.0600221
-0.0564253
-0.0531646
-0.0501662
-0.0474246
-0.0449282
-0.0426569
-0.0405851
-0.0386749
-0.036873
-0.0351194
-0.0333642
-0.0315803
-0.0297593
-0.0279028
-0.0260239
-0.0241577
-0.0223679
-0.0207393
-0.0193457
-0.0181798
-0.0171297
-0.0168358
-0.0173528
-0.0178214
-0.0180843
-0.0183369
-0.0185508
-0.0187661
-0.016069
-0.020511
-0.0208228
-0.0672326
-0.0640429
-0.0605598
-0.0569143
-0.0536103
-0.050566
-0.0477674
-0.0452056
-0.0428674
-0.0407332
-0.0387696
-0.0369288
-0.0351533
-0.033393
-0.031616
-0.0298101
-0.0279727
-0.0261121
-0.0242594
-0.0224761
-0.0208459
-0.0194399
-0.0182618
-0.0172259
-0.0162224
-0.0158846
-0.0164751
-0.0169216
-0.0171467
-0.01741
-0.0176201
-0.0178454
-0.0152376
-0.0678419
-0.064577
-0.0610672
-0.057414
-0.0540888
-0.0510096
-0.0481616
-0.0455407
-0.0431372
-0.040938
-0.0389147
-0.0370245
-0.0352157
-0.0334379
-0.0316572
-0.0298557
-0.0280275
-0.0261782
-0.0243359
-0.0225596
-0.0209296
-0.0195161
-0.0183302
-0.0173028
-0.0163325
-0.0153672
-0.0150992
-0.0156404
-0.0159553
-0.0163201
-0.016523
-0.0167008
-0.0169172
-0.014346
-0.0683931
-0.0650327
-0.0615245
-0.0579071
-0.0545882
-0.0514914
-0.048604
-0.0459315
-0.0434681
-0.0412035
-0.0391162
-0.0371685
-0.0353143
-0.0335079
-0.0317123
-0.0299068
-0.0280795
-0.0262331
-0.0243939
-0.02262
-0.0209902
-0.0195726
-0.0183842
-0.017368
-0.016424
-0.0154822
-0.0144944
-0.0141747
-0.0147173
-0.0152198
-0.0155111
-0.0157889
-0.0157536
-0.0161644
-0.0134482
-0.0688571
-0.0654026
-0.0619248
-0.0583772
-0.055093
-0.0520012
-0.0490897
-0.0463754
-0.043859
-0.0415324
-0.0393784
-0.0373667
-0.0354572
-0.0336095
-0.0317889
-0.0299699
-0.0281374
-0.0262883
-0.0244461
-0.0226678
-0.0210322
-0.0196087
-0.0184193
-0.0174175
-0.0165044
-0.0155916
-0.014631
-0.0136079
-0.0132815
-0.0138213
-0.0142713
-0.0145571
-0.0147951
-0.015027
-0.0152675
-0.0154289
-0.0157377
-0.0154953
-0.0125925
-0.0692221
-0.0656949
-0.0622664
-0.0588113
-0.055584
-0.0525229
-0.0496098
-0.0468678
-0.0443075
-0.0419239
-0.0397041
-0.0376234
-0.0356501
-0.0337501
-0.0318924
-0.030051
-0.0282056
-0.0263493
-0.0244996
-0.0227116
-0.0210648
-0.0196296
-0.018435
-0.0174446
-0.0165658
-0.0156943
-0.0147673
-0.0137647
-0.0127406
-0.0124471
-0.0129777
-0.0134047
-0.0137076
-0.0139326
-0.0141339
-0.0143468
-0.014552
-0.0147764
-0.0149829
-0.0152009
-0.0117702
-0.0694948
-0.0659159
-0.0625353
-0.0591925
-0.0560401
-0.0530341
-0.0501476
-0.0473987
-0.044807
-0.0423745
-0.0400918
-0.037941
-0.0358969
-0.0339347
-0.0320288
-0.0301543
-0.0282892
-0.0264201
-0.0245609
-0.0227607
-0.0210975
-0.0196444
-0.0184364
-0.0174485
-0.0165986
-0.0157769
-0.0148979
-0.0139271
-0.0129011
-0.011902
-0.0116403
-0.0121676
-0.0125834
-0.0128924
-0.0131086
-0.0133018
-0.013505
-0.0137259
-0.0139409
-0.0141298
-0.0143262
-0.010971
-0.0696873
-0.0660598
-0.0627103
-0.0594908
-0.0564351
-0.0535071
-0.0506762
-0.0479488
-0.0453447
-0.0428748
-0.0405364
-0.038317
-0.0361994
-0.0341668
-0.0322025
-0.0302848
-0.0283906
-0.0265036
-0.0246306
-0.0228173
-0.0211367
-0.0196621
-0.0184327
-0.0174352
-0.0166007
-0.0158245
-0.0150059
-0.0140866
-0.0130772
-0.0120511
-0.0110858
-0.0108526
-0.011376
-0.0117818
-0.0120975
-0.0123085
-0.0124987
-0.0126995
-0.0129259
-0.0131321
-0.0133173
-0.0135041
-0.0101922
-0.0698002
-0.0670319
-0.0652296
-0.06362
-0.0596806
-0.0619663
-0.0567351
-0.0539075
-0.0511594
-0.0484847
-0.0458954
-0.0434068
-0.041025
-0.0387442
-0.0365543
-0.0344474
-0.032416
-0.0304458
-0.0285141
-0.0266021
-0.0247125
-0.0228837
-0.0211853
-0.019688
-0.0184334
-0.0174153
-0.0165796
-0.015833
-0.0150725
-0.0142202
-0.0132549
-0.0122265
-0.0112201
-0.0102937
-0.0100767
-0.010594
-0.0109943
-0.0113093
-0.011519
-0.0117072
-0.0119054
-0.0121374
-0.0123445
-0.0125251
-0.0127146
-0.00942447
-0.0708081
-0.0688522
-0.0674839
-0.0665621
-0.0657368
-0.0648614
-0.0640416
-0.0631972
-0.060533
-0.0569194
-0.0590034
-0.0624548
-0.0616487
-0.0541994
-0.0515553
-0.0489621
-0.0464197
-0.0439399
-0.0415353
-0.0392071
-0.0369526
-0.0347727
-0.0326701
-0.0306392
-0.0286621
-0.0267184
-0.0248069
-0.0229612
-0.0212444
-0.0197247
-0.0184434
-0.0173995
-0.0165481
-0.015811
-0.0150923
-0.0143062
-0.0134064
-0.01241
-0.0113846
-0.0104106
-0.00952089
-0.00930298
-0.00980848
-0.0102095
-0.0105188
-0.0107248
-0.0109182
-0.0111145
-0.0113497
-0.011555
-0.0117391
-0.0119287
-0.00864927
-0.0702739
-0.0693616
-0.068423
-0.067434
-0.0665513
-0.0657855
-0.064952
-0.0640027
-0.063202
-0.060925
-0.0601431
-0.0577117
-0.0543692
-0.0562897
-0.0594655
-0.0587186
-0.0625101
-0.0617477
-0.051829
-0.0493355
-0.046869
-0.0444306
-0.0420321
-0.03968
-0.0373775
-0.0351335
-0.032961
-0.0308654
-0.0288362
-0.0268551
-0.0249171
-0.0230509
-0.0213152
-0.0197732
-0.0184656
-0.0173933
-0.0165184
-0.0157732
-0.015074
-0.014338
-0.0135067
-0.0125682
-0.0115614
-0.0105585
-0.00962447
-0.00875121
-0.00851812
-0.00900741
-0.00941455
-0.00970828
-0.00991822
-0.0101181
-0.0103154
-0.0105465
-0.0107538
-0.0109446
-0.0111347
-0.00782682
-0.0702405
-0.0693974
-0.0684968
-0.0608902
-0.0601525
-0.0580709
-0.057344
-0.0551035
-0.0519763
-0.0537716
-0.0567195
-0.0560236
-0.0595185
-0.0588155
-0.0495762
-0.0472
-0.0448303
-0.0424704
-0.0401254
-0.0378019
-0.0355123
-0.0332796
-0.0311211
-0.0290364
-0.0270127
-0.0250448
-0.0231556
-0.0213989
-0.0198344
-0.0185007
-0.0173999
-0.0164978
-0.0157341
-0.0150346
-0.0143259
-0.0135484
-0.0126745
-0.0117167
-0.0107215
-0.00975565
-0.00885205
-0.00796319
-0.00765907
-0.00819385
-0.00860018
-0.00886719
-0.00908352
-0.00929333
-0.00949568
-0.00971356
-0.00993137
-0.0101276
-0.010326
-0.00699339
-0.0580349
-0.0573515
-0.0554304
-0.0547501
-0.0526567
-0.0496935
-0.0513979
-0.0541665
-0.0535127
-0.056765
-0.0561114
-0.0473958
-0.0451045
-0.0428066
-0.0405004
-0.0381892
-0.0358834
-0.0336101
-0.0313982
-0.0292605
-0.0271918
-0.0251903
-0.0232761
-0.021497
-0.0199094
-0.0185496
-0.0174203
-0.01649
-0.0157025
-0.0149905
-0.0142882
-0.0135421
-0.0127207
-0.0118209
-0.0108658
-0.00990108
-0.00896956
-0.00807614
-0.00715498
-0.00680305
-0.00730527
-0.00775207
-0.00800175
-0.00822213
-0.00843471
-0.00864231
-0.00884568
-0.00907047
-0.0092794
-0.00948717
-0.00610769
-0.0553902
-0.0547508
-0.052954
-0.052312
-0.0503258
-0.0474794
-0.0491241
-0.0517579
-0.0511382
-0.0542008
-0.0535865
-0.0452504
-0.0430178
-0.0407689
-0.0384999
-0.0362128
-0.0339292
-0.0316833
-0.0295016
-0.0273913
-0.0253551
-0.0234146
-0.0216125
-0.0199996
-0.018613
-0.0174552
-0.0164961
-0.0156829
-0.0149521
-0.014243
-0.0135077
-0.0127179
-0.0118657
-0.0109612
-0.0100277
-0.00909487
-0.00818685
-0.00728147
-0.00630208
-0.00586572
-0.00639283
-0.0068528
-0.00703436
-0.00731993
-0.00755763
-0.00776905
-0.00793868
-0.0081723
-0.00839
-0.00860487
-0.00517724
-0.052909
-0.052304
-0.0505981
-0.0499867
-0.0480712
-0.0453015
-0.0469126
-0.0494519
-0.048859
-0.0517803
-0.0511961
-0.0431153
-0.0409206
-0.0387069
-0.0364669
-0.0342075
-0.0319568
-0.0297493
-0.0276058
-0.0255384
-0.0235703
-0.0217448
-0.020108
-0.0186926
-0.0175049
-0.0165168
-0.015677
-0.0149247
-0.0142019
-0.0134643
-0.0126868
-0.0118632
-0.0110001
-0.0101089
-0.00920187
-0.00829512
-0.00739036
-0.00644918
-0.00541152
-0.00489039
-0.00534363
-0.00584379
-0.00605197
-0.00631779
-0.00661695
-0.00682141
-0.00682578
-0.00737181
-0.0074914
-0.00769054
-0.0042883
-0.0505491
-0.0499697
-0.0483246
-0.047737
-0.0458616
-0.0431396
-0.0447353
-0.0472131
-0.0466405
-0.0494633
-0.048901
-0.0409787
-0.0388113
-0.0366266
-0.0344179
-0.0321953
-0.0299885
-0.0278282
-0.0257385
-0.0237476
-0.021897
-0.0202344
-0.0187909
-0.0175713
-0.0165523
-0.015685
-0.0149098
-0.0141705
-0.013424
-0.0126467
-0.0118344
-0.0109954
-0.010139
-0.00926733
-0.00838222
-0.00748424
-0.00656194
-0.00558406
-0.00453339
-0.00399506
-0.00437157
-0.00483296
-0.00498967
-0.0052431
-0.0055068
-0.00575518
-0.00586968
-0.00615926
-0.006475
-0.00681711
-0.00643922
-0.00348249
-0.0482736
-0.0477125
-0.0461026
-0.0455333
-0.0436768
-0.0409852
-0.0425752
-0.0450143
-0.0444572
-0.0472159
-0.0466683
-0.0388433
-0.0367008
-0.0345482
-0.0323784
-0.0302017
-0.0280474
-0.0259487
-0.0239413
-0.0220706
-0.0203821
-0.0189087
-0.0176568
-0.0166043
-0.0157072
-0.0149078
-0.0141503
-0.0133921
-0.0126094
-0.0117983
-0.0109683
-0.0101309
-0.00928783
-0.00843153
-0.00755343
-0.00664828
-0.00570665
-0.00471666
-0.00371996
-0.00319459
-0.00349418
-0.00392042
-0.00403175
-0.00426481
-0.00449932
-0.00472903
-0.00481025
-0.00507123
-0.00532534
-0.00558373
-0.00572628
-0.00601066
-0.00629946
-0.00663017
-0.00276909
-0.0460524
-0.0455037
-0.0439115
-0.0433565
-0.0415074
-0.0388423
-0.040427
-0.0428393
-0.0422944
-0.0450115
-0.0444739
-0.0367222
-0.0346113
-0.0324989
-0.0303751
-0.0282524
-0.0261647
-0.0241537
-0.0222667
-0.0205533
-0.0190486
-0.0177623
-0.0166751
-0.0157451
-0.0149189
-0.0141414
-0.0133699
-0.0125799
-0.0117656
-0.0109363
-0.0101051
-0.00927692
-0.00844314
-0.00758909
-0.00670603
-0.00579093
-0.00484476
-0.00389532
-0.00299026
-0.00249226
-0.00270705
-0.00310329
-0.00317112
-0.00338729
-0.00359408
-0.00380434
-0.00385417
-0.00408981
-0.00431837
-0.00455245
-0.00466933
-0.00492997
-0.00518771
-0.00544498
-0.00217782
-0.0438647
-0.0433248
-0.0417407
-0.0411979
-0.0393554
-0.036724
-0.0382966
-0.040682
-0.0401484
-0.0428343
-0.0423039
-0.0346371
-0.0325695
-0.0305051
-0.028434
-0.0263764
-0.0243757
-0.0224837
-0.02075
-0.0192138
-0.0178903
-0.0167658
-0.015801
-0.0149444
-0.014144
-0.0133573
-0.0125585
-0.01174
-0.0109086
-0.0100772
-0.0092528
-0.00843004
-0.00759395
-0.00673221
-0.00584156
-0.00492904
-0.00401714
-0.00315039
-0.00236884
-0.00193482
-0.00201342
-0.00231293
-0.00235377
-0.00258598
-0.00277607
-0.00297787
-0.00300582
-0.00321602
-0.00341723
-0.00362539
-0.00371448
-0.0039488
-0.00418033
-0.00441308
-0.00168848
-0.0416997
-0.0411671
-0.0395906
-0.0390597
-0.0372316
-0.0346503
-0.0361977
-0.0385475
-0.0380255
-0.0406783
-0.0401547
-0.0326132
-0.0306017
-0.028592
-0.0265823
-0.0246082
-0.0227206
-0.020972
-0.0194058
-0.0180439
-0.0168784
-0.0158757
-0.0149861
-0.0141594
-0.0133545
-0.012545
-0.0117214
-0.0108876
-0.0100542
-0.00922881
-0.00840806
-0.00758008
-0.0067326
-0.0058622
-0.00497723
-0.00409667
-0.00325819
-0.00250216
-0.00185025
-0.0014727
-0.0015597
-0.00179391
-0.00179498
-0.00167113
-0.00210241
-0.00223209
-0.0024299
-0.00261366
-0.00280232
-0.00287467
-0.00308002
-0.00328302
-0.00348798
-0.00126258
-0.0395571
-0.0390326
-0.0374703
-0.0369524
-0.035153
-0.0326438
-0.0341494
-0.036448
-0.0359393
-0.0385477
-0.0380325
-0.0306754
-0.0287302
-0.0267789
-0.0248426
-0.0229725
-0.0212182
-0.0196255
-0.018224
-0.0170152
-0.0159709
-0.0150451
-0.0141892
-0.0133626
-0.0125396
-0.0117091
-0.0108725
-0.0100374
-0.00921002
-0.00838794
-0.0075608
-0.00671894
-0.00586075
-0.004996
-0.00414271
-0.0033289
-0.0025921
-0.00195796