/*--------------------------------*- C++ -*----------------------------------*\
| =========                 |                                                 |
| \\      /  F ield         | OpenFOAM: The Open Source CFD Toolbox           |
|  \\    /   O peration     | Version:  v1912                                 |
|   \\  /    A nd           | Website:  www.openfoam.com                      |
|    \\/     M anipulation  |                                                 |
\*---------------------------------------------------------------------------*/
FoamFile
{
    version     2.0;
    format      ascii;
    class       surfaceScalarField;
    location    "30";
    object      phi;
}
// * * * * * * * * * * * * * * * * * * * * * * * * * * * * * * * * * * * * * //

dimensions      [0 3 -1 0 0 0 0];
oriented        oriented;


internalField   nonuniform List<scalar> 
7354
(
-7.2889e-06
0.00137141
-2.01041e-05
0.00398301
-7.22844e-06
0.00137876
-4.21333e-05
0.0065954
-2.28651e-05
0.00399865
-8.07624e-06
0.00138694
-6.54525e-05
0.00910283
-4.53081e-05
0.0066186
-2.43989e-05
0.00401531
-4.81181e-06
0.0013923
-8.97121e-05
0.0113296
-7.0314e-05
0.00912848
-4.59913e-05
0.00664159
-2.02307e-05
0.00403052
-2.25585e-06
0.00139426
-0.000120984
0.0131164
-9.59153e-05
0.0113569
-7.01111e-05
0.00915349
-4.40727e-05
0.00666628
-1.72595e-05
0.00404542
7.56537e-07
0.00139437
-0.00014598
0.0142977
-0.000124256
0.0131455
-9.95958e-05
0.0113877
-7.14893e-05
0.00918124
-3.82268e-05
0.00668817
-1.39924e-05
0.00405981
2.63088e-06
0.00139145
-0.00018018
0.0147716
-0.000155909
0.0143314
-0.000128658
0.013176
-9.80411e-05
0.0114158
-6.26894e-05
0.00920584
-3.36522e-05
0.00670826
-1.06033e-05
0.00407236
2.06368e-06
0.00138942
-0.000213855
0.0144521
-0.000185803
0.0148024
-0.000158015
0.014362
-0.000124034
0.0132022
-8.74067e-05
0.011441
-5.93671e-05
0.00923109
-3.03417e-05
0.00672832
-8.95646e-06
0.0040825
-5.44539e-07
0.00138916
-0.000250298
0.0133629
-0.000225498
0.014494
-0.00018563
0.0148315
-0.000141601
0.0143809
-0.000109704
0.0132248
-8.33189e-05
0.0114654
-5.656e-05
0.00925683
-3.00642e-05
0.00674922
-1.07465e-05
0.0040918
-3.78695e-06
0.00139255
-0.000288485
0.0115594
-0.000268615
0.0134069
-0.000217633
0.0145269
-0.000165171
0.0148553
-0.000129741
0.0144012
-9.9301e-05
0.0132401
-7.6053e-05
0.0114847
-5.02032e-05
0.00927628
-2.98266e-05
0.00676826
-1.47819e-05
0.00410212
-6.9232e-06
0.00139848
-0.000310835
0.00919755
-0.000310995
0.0116025
-0.000237584
0.0134279
-0.000177709
0.0145407
-0.000137676
0.0148635
-0.000112506
0.0144147
-9.19564e-05
0.0132558
-7.08724e-05
0.0115055
-5.27863e-05
0.00929888
-3.01162e-05
0.00678323
-1.61138e-05
0.00411054
-8.29799e-06
0.00140606
-0.000128581
0.00646481
-0.000170328
-0.000349298
0.00923714
-0.000256701
0.0116237
-0.000183022
0.0134347
-0.000141746
0.0145447
-0.000112675
0.0148631
-9.59527e-05
0.0144183
-8.08342e-05
0.0132651
-6.87234e-05
0.0115213
-4.76281e-05
0.00931612
-3.334e-05
0.0068003
-2.04355e-05
0.00412165
-8.51418e-06
0.00141353
0.00214091
-8.80429e-05
-0.000216087
0.00649022
-0.000158898
0.00211869
-0.000147549
-0.000246227
0.00922615
-0.000171468
0.0116117
-0.000133137
0.0134257
-0.000103397
0.0145358
-9.59627e-05
0.014863
-8.9302e-05
0.014427
-8.01819e-05
0.0132767
-6.76684e-05
0.0115416
-5.45754e-05
0.00933716
-3.51658e-05
0.00681458
-2.06747e-05
0.00413301
-8.71817e-06
0.00142219
0.00140107
-2.20423e-05
0.00209228
-0.000189725
-0.00014384
0.00643308
-4.49909e-05
0.00208424
-0.000151152
0.00134986
-6.00522e-05
-3.59294e-05
-0.000132775
0.00918972
-0.000105946
0.0115867
-8.60381e-05
0.0134094
-8.1543e-05
0.0145208
-8.01982e-05
0.0148534
-7.76971e-05
0.0144244
-7.9058e-05
0.0132879
-6.56579e-05
0.0115526
-5.11192e-05
0.00935267
-3.68908e-05
0.0068307
-2.13012e-05
0.00414508
-8.7409e-06
0.00143052
0.000443383
-9.19454e-06
0.00133197
-8.96188e-05
-8.21429e-05
0.00202736
-8.72088e-05
-5.82886e-05
0.00635594
2.34395e-06
0.00201586
-3.35004e-05
0.00129251
-3.761e-05
-7.42851e-05
-0.000427131
0.000402828
-3.54903e-05
-1.95684e-05
-6.36642e-05
0.00914614
-5.96261e-05
0.0115595
-6.13446e-05
0.0133889
-6.17005e-05
0.0145027
-6.8316e-05
0.0148443
-7.4584e-05
0.0144204
-7.46407e-05
0.013297
-6.61559e-05
0.0115678
-5.53581e-05
0.00937085
-3.7589e-05
0.00684681
-2.23581e-05
0.00415832
-6.56816e-06
0.00143688
0.000262703
-1.43995e-06
0.00037459
-6.13379e-05
0.000355006
-6.26212e-05
0.0012361
-2.53605e-05
-5.5354e-06
0.00197839
-2.0852e-05
-2.86686e-05
0.00630871
1.2017e-05
0.0019837
-3.22599e-06
0.00120816
1.55173e-06
-7.15118e-06
-0.000330155
0.000312951
-2.04848e-05
-4.9483e-05
-0.000247602
0.000222311
-1.00621e-05
-4.38217e-06
-3.29734e-05
0.00912167
-3.70971e-05
0.0115371
-4.27406e-05
0.0133708
-5.54903e-05
0.0144896
-6.27816e-05
0.0148323
-7.37593e-05
0.0144195
-7.0693e-05
0.0133012
-6.91538e-05
0.0115814
-5.36427e-05
0.00938663
-3.8023e-05
0.00686261
-2.04722e-05
0.00417173
-7.2228e-06
0.0014429
7.90662e-05
0.000183204
-2.21972e-05
0.000163002
-4.24557e-05
0.000295226
-7.63082e-06
0.000291658
-1.95532e-06
0.00118932
-4.25136e-06
2.18902e-06
0.00196121
-6.79545e-06
-1.96904e-05
0.00627904
1.62998e-05
0.00197106
1.93675e-06
0.00118535
3.44983e-06
-2.9473e-06
-0.00028537
0.000286844
4.7475e-08
-8.6624e-07
-0.000113519
9.30177e-05
-7.4684e-05
6.46548e-05
-1.54282e-05
0.00909896
-2.76101e-05
0.0115212
-3.65142e-05
0.0133517
-4.54097e-05
0.0144728
-6.29466e-05
0.0148218
-6.77323e-05
0.0144167
-7.95644e-05
0.0133117
-7.17618e-05
0.0115998
-5.69692e-05
0.00940544
-3.88599e-05
0.00688057
-2.15415e-05
0.00418511
-5.14839e-06
0.00144704
4.24557e-05
8.53909e-05
8.34348e-05
0.000283076
-5.47879e-07
0.000285018
1.98943e-07
0.00117877
-2.98186e-06
2.40635e-06
0.00195537
-4.02083e-06
-1.76521e-05
0.0062651
1.60648e-05
0.00196781
3.73681e-06
0.00117961
2.66748e-06
-1.80068e-06
-0.000282247
0.000284968
6.74968e-07
-1.9747e-07
-8.25685e-05
8.26019e-05
-8.58363e-06
0.00908203
-1.37226e-05
0.0115004
-2.79699e-05
0.0133353
-4.60079e-05
0.0144556
-6.09216e-05
0.0148147
-7.73797e-05
0.0144144
-7.48873e-05
0.0133145
-7.16803e-05
0.0116144
-5.74576e-05
0.00942376
-3.78286e-05
0.00689643
-2.00117e-05
0.00419867
-5.15348e-06
0.00145079
8.20428e-05
8.22354e-05
0.000282651
-7.48757e-07
0.00028441
5.40886e-07
0.00117574
-2.47472e-06
2.27878e-06
0.00195327
-3.58683e-06
-1.51644e-05
0.00625732
1.42402e-05
0.00196567
3.46732e-06
0.00117885
2.1528e-06
-1.65884e-06
-0.000282739
0.000284735
5.21291e-07
-2.06433e-07
-8.20379e-05
8.26954e-05
-4.96242e-06
0.00907246
-1.68856e-05
0.0114887
-2.93138e-05
0.0133185
-4.2421e-05
0.0144376
-6.24403e-05
0.0148
-7.88344e-05
0.0144186
-8.64821e-05
0.0133295
-7.41113e-05
0.0116312
-5.91821e-05
0.00944467
-4.03278e-05
0.00691587
-1.87231e-05
0.0042115
-4.81163e-06
0.00145566
8.19279e-05
8.24457e-05
0.000282647
-4.8043e-07
0.000284453
4.3112e-07
0.00117503
-2.26517e-06
2.23557e-06
0.00195425
-3.77621e-06
-1.39734e-05
0.00625238
1.41531e-05
0.00196434
4.05668e-06
0.00117783
2.49186e-06
-2.00617e-06
-0.000283185
0.000284849
4.71924e-07
-3.98898e-07
-8.22392e-05
8.27144e-05
-5.66224e-06
0.00906346
-1.0699e-05
0.0114721
-2.55203e-05
0.0133024
-5.2183e-05
0.014427
-7.10475e-05
0.0147919
-8.35066e-05
0.0144155
-8.93124e-05
0.0133444
-8.27002e-05
0.0116543
-6.49071e-05
0.00946873
-3.89951e-05
0.00693585
-1.70529e-05
0.00422331
-3.32145e-06
0.00145874
8.22213e-05
8.26497e-05
0.000283081
-5.48809e-07
0.000284765
4.75432e-07
0.00117384
-2.07397e-06
2.2548e-06
0.00195366
-3.60631e-06
-1.39839e-05
0.00624687
1.3869e-05
0.00196378
4.05706e-06
0.00117757
2.52213e-06
-2.27975e-06
-0.000282876
0.000284857
3.86055e-07
-1.75488e-07
-8.22508e-05
8.2714e-05
-1.04708e-06
0.00905294
-1.21798e-05
0.0114583
-2.9659e-05
0.0132799
-5.01059e-05
0.0144064
-7.76024e-05
0.0147862
-9.4509e-05
0.0144209
-9.6769e-05
0.0133585
-8.73211e-05
0.0116767
-6.39852e-05
0.00949336
-3.8947e-05
0.00695747
-1.86276e-05
0.00423877
-3.42101e-06
0.00146285
8.21523e-05
8.26093e-05
0.00028317
-4.68317e-07
0.000285186
1.99501e-07
0.00117453
-2.82015e-06
2.10547e-06
0.00195269
-2.78813e-06
-1.17096e-05
0.00624369
1.39854e-05
0.00196368
2.81e-06
0.00117764
2.43727e-06
-1.52866e-06
-0.000283098
0.000285161
4.52466e-07
-2.00819e-07
-8.24338e-05
8.27802e-05
-3.90897e-06
0.00904667
-1.43592e-05
0.0114446
-3.69401e-05
0.0132673
-6.43849e-05
0.014393
-9.2169e-05
0.0147837
-0.000111616
0.0144357
-0.000113426
0.0133843
-9.33073e-05
0.0117057
-6.52276e-05
0.00951952
-3.71701e-05
0.00697632
-1.5492e-05
0.00425107
-3.76564e-06
0.00146682
8.22997e-05
8.24962e-05
0.000282884
-5.63417e-07
0.000284526
4.33209e-07
0.00117536
-2.5332e-06
2.08417e-06
0.00195381
-2.20131e-06
-1.13077e-05
0.0062397
1.14848e-05
0.0019641
3.66031e-06
0.00117735
2.41449e-06
-1.67411e-06
-0.000283142
0.000285376
1.49969e-07
-1.7036e-07
-8.22954e-05
8.27441e-05
-4.25319e-06
0.0090358
-1.7591e-05
0.0114247
-3.88969e-05
0.0132418
-7.5678e-05
0.0143769
-0.000106504
0.0147788
-0.000124341
0.0144467
-0.000117687
0.0134087
-9.53285e-05
0.011736
-6.67068e-05
0.00954919
-3.7991e-05
0.00699907
-1.60672e-05
0.00426382
-3.42093e-06
0.00147091
8.21759e-05
8.26006e-05
0.000283271
-4.62189e-07
0.00028489
4.66204e-07
0.00117545
-2.60146e-06
2.0954e-06
0.00195594
-3.06395e-06
-1.07708e-05
0.0062335
1.28792e-05
0.00196368
3.71347e-06
0.00117859
1.86499e-06
-1.44456e-06
-0.000283451
0.000285461
4.21706e-07
-2.23147e-07
-8.24302e-05
8.25603e-05
-5.38272e-06
0.00902543
-2.22307e-05
0.0114097
-5.66302e-05
0.0132236
-9.83826e-05
0.0143687
-0.000135757
0.0147901
-0.00014345
0.0144723
-0.000133168
0.0134464
-9.99423e-05
0.0117693
-6.37517e-05
0.00957521
-3.56673e-05
0.00701923
-1.37002e-05
0.00427453
-3.17138e-06
0.00147437
8.20951e-05
8.25652e-05
0.000283263
-4.39715e-07
0.000284873
4.25848e-07
0.00117537
-1.87571e-06
2.07835e-06
0.00195487
-2.24265e-06
-1.05058e-05
0.00622707
1.1449e-05
0.0019649
2.81957e-06
0.00117875
1.90722e-06
-1.62414e-06
-0.000283584
0.000285242
1.17727e-07
-1.98038e-07
-8.2342e-05
8.27654e-05
-6.95374e-06
0.00900914
-3.1236e-05
0.0113834
-7.6743e-05
0.0132016
-0.000129426
0.0143625
-0.000161958
0.0148087
-0.000167292
0.0145066
-0.000134485
0.0134812
-9.89717e-05
0.011805
-6.30184e-05
0.00960297
-3.13827e-05
0.00703732
-1.34613e-05
0.00428518
-3.58668e-06
0.00147829
8.23152e-05
8.27259e-05
0.000283711
-3.94677e-07
0.000285292
4.91264e-07
0.00117632
-1.89085e-06
1.93481e-06
0.00195615
-1.73062e-06
-9.91964e-06
0.00621852
1.17176e-05
0.0019647
2.81447e-06
0.00117867
2.30993e-06
-1.92001e-06
-0.000283916
0.000285429
4.16101e-07
-2.39664e-07
-8.25279e-05
8.26146e-05
-1.06431e-05
0.00899054
-4.76767e-05
0.0113563
-0.000109377
0.0131824
-0.00016539
0.0143659
-0.000195351
0.0148367
-0.000173477
0.0145458
-0.000136309
0.0135188
-9.35655e-05
0.0118359
-5.25367e-05
0.00962453
-2.66114e-05
0.00705097
-1.16185e-05
0.00429353
-3.43474e-06
0.00148177
8.22143e-05
8.27086e-05
0.000283874
-3.55569e-07
0.000285395
3.73736e-07
0.0011767
-1.82345e-06
2.08325e-06
0.00195622
-1.69878e-06
-9.44236e-06
0.00620624
1.0828e-05
0.00196496
3.01492e-06
0.00117917
2.38967e-06
-2.11018e-06
-0.000283647
0.000285741
1.39977e-07
-2.03593e-07
-8.24689e-05
8.28881e-05
-1.84447e-05
0.0089598
-7.62727e-05
0.0113218
-0.000155265
0.0131718
-0.000214446
0.0143852
-0.000212878
0.0148764
-0.000180837
0.0145907
-0.000131648
0.0135573
-8.15608e-05
0.0118655
-4.66827e-05
0.00964501
-2.30677e-05
0.00706267
-8.92933e-06
0.00429907
-2.08142e-06
0.0014838
8.2526e-05
8.28879e-05
0.000284214
-3.43127e-07
0.00028585
4.34387e-07
0.00117763
-1.8355e-06
1.53496e-06
0.00195666
-1.09904e-06
-8.57395e-06
0.00618715
9.35871e-06
0.0019644
2.92353e-06
0.00117962
2.32757e-06
-1.34879e-06
-0.000283948
0.000285987
3.58442e-07
-2.07264e-07
-8.26843e-05
8.27972e-05
-3.62719e-05
0.00892197
-0.000123757
0.0112924
-0.00021932
0.0131776
-0.000252883
0.0144254
-0.000224604
0.0149204
-0.000167979
0.0146274
-0.00011336
0.0135895
-6.74604e-05
0.0118866
-3.82117e-05
0.00966046
-1.93346e-05
0.00707333
-6.24445e-06
0.00430334
-1.17417e-06
0.00148495
8.24474e-05
8.28824e-05
0.000284463
-3.31963e-07
0.000285518
4.44194e-07
0.00117865
-1.76864e-06
1.67934e-06
0.00195716
-1.723e-06
-8.40085e-06
0.00615524
3.91557e-06
0.00196337
3.2192e-06
0.00118099
1.98533e-06
-1.53963e-06
-0.000284573
0.000286386
4.55347e-07
-4.28948e-07
-8.26751e-05
8.30337e-05
-7.31684e-05
0.0088699
-0.000194231
0.0112661
-0.000277124
0.0132018
-0.000267342
0.0144687
-0.000206378
0.0149593
-0.000146266
0.0146607
-9.27976e-05
0.0136152
-5.6496e-05
0.0119053
-3.14517e-05
0.00967284
-1.20306e-05
0.00707924
-4.69669e-06
0.00430688
4.70633e-07
0.00148446
8.26957e-05
8.31298e-05
0.000284953
-3.70298e-07
0.000286261
3.70519e-07
0.00117872
-1.6896e-06
2.01707e-06
0.00195651
-1.42065e-06
-1.09281e-05
0.00609985
-6.48374e-06
0.00195895
1.37715e-06
0.00118122
1.87256e-06
-1.22274e-06
-0.000284877
0.000286468
3.93771e-07
-1.49807e-07
-8.27009e-05
8.31335e-05
-0.000139843
0.00881807
-0.000294456
0.0112858
-0.00031301
0.0132485
-0.000251992
0.0145145
-0.000178692
0.014992
-0.000117109
0.0146854
-7.18491e-05
0.0136309
-4.09212e-05
0.011915
-1.89033e-05
0.00967996
-7.55983e-06
0.0070824
8.73452e-08
0.00430755
1.28155e-06
0.00148332
8.27598e-05
8.31326e-05
0.00028507
-3.49987e-07
0.000286586
4.28673e-07
0.00117984
-1.6375e-06
1.70321e-06
0.00195102
-3.32864e-06
-2.13916e-05
0.00601561
-3.3898e-05
0.00194576
-1.01327e-06
0.00118061
1.99792e-06
-1.4569e-06
-0.000285709
0.000287062
4.41396e-07
-3.88446e-07
-8.29828e-05
8.33722e-05
-0.000268704
0.00879142
-0.000348554
0.0113209
-0.000288684
0.0132855
-0.000204494
0.0145409
-0.000137593
0.015013
-8.30038e-05
0.0146969
-4.85236e-05
0.0136389
-2.69127e-05
0.0119234
-1.02715e-05
0.00968301
-2.3233e-06
0.00708511
2.17011e-06
0.0043068
1.56866e-06
0.00148157
8.30065e-05
8.34176e-05
0.000285732
-3.32036e-07
0.000287087
3.78187e-07
0.00117713
-1.62015e-06
1.59789e-06
0.00193396
-9.30248e-06
-6.56607e-05
0.00592376
-0.000110469
0.00191368
-1.35232e-05
0.00117545
1.91281e-06
-1.20503e-06
-0.000285781
0.000287645
1.80193e-07
-1.25367e-07
-8.30292e-05
8.34404e-05
-0.000374212
0.00881982
-0.000315279
0.0113496
-0.000223237
0.013305
-0.000150061
0.0145536
-9.23588e-05
0.0150226
-5.54613e-05
0.0147042
-2.73099e-05
0.0136396
-1.0611e-05
0.0119241
-3.62175e-06
0.00968474
1.99613e-06
0.0070857
2.89849e-06
0.00430557
2.78511e-06
0.00147853
8.31109e-05
8.34997e-05
0.000286305
-3.24526e-07
0.00028742
4.29108e-07
0.00116676
-1.61408e-06
1.23921e-06
0.00188051
-3.26723e-05
-0.000182787
0.00593205
-0.000198921
0.00183254
-6.21916e-05
0.00115435
5.54807e-07
-1.59648e-06
-0.000286353
0.000287783
4.51819e-07
-1.67585e-07
-8.33743e-05
8.35626e-05
-0.00032475
0.00882904
-0.000220249
0.0113465
-0.000147237
0.0133026
-9.63108e-05
0.0145582
-5.7368e-05
0.015025
-3.12432e-05
0.0147085
-1.43004e-05
0.0136437
-3.98833e-06
0.011925
4.63198e-06
0.00968258
5.41325e-06
0.00708343
6.44045e-06
0.00430176
3.36801e-06
0.00147483
8.32255e-05
8.36421e-05
0.000286478
-2.85087e-07
0.000287582
2.18078e-07
0.00112609
-2.65007e-06
-1.83139e-06
0.00178866
-0.000138437
-0.00019089
0.00588862
-8.93415e-05
0.00176749
-0.000177447
0.001077
-8.99624e-06
-3.9932e-06
-0.000286115
0.000286649
1.38798e-07
-7.4185e-08
-8.34745e-05
8.39112e-05
-0.00017606
0.00878732
-0.000128727
0.0113299
-8.89645e-05
0.013296
-5.19756e-05
0.0145529
-2.65913e-05
0.0150206
-7.83056e-06
0.0147024
7.6658e-07
0.0136394
5.73594e-06
0.0119244
8.31226e-06
0.00968002
1.15358e-05
0.00707832
9.42781e-06
0.00429541
4.04415e-06
0.00147081
8.36418e-05
8.38838e-05
0.000284588
-5.93133e-07
0.000282629
1.0394e-07
0.000993906
-1.77026e-05
-3.72996e-05
0.00171698
-0.000140305
-7.14269e-05
0.00579448
-9.67419e-06
0.00168559
-5.75448e-05
0.000950327
-6.61289e-05
-6.74717e-05
-0.000279559
0.000272095
-1.51972e-06
-9.37041e-07
-8.38096e-05
8.39805e-05
-7.91728e-05
0.00873779
-6.41809e-05
0.0113052
-4.21486e-05
0.0132867
-2.01365e-05
0.0145472
-3.046e-06
0.0150164
8.11189e-06
0.0146957
1.31289e-05
0.0136327
1.68034e-05
0.0119163
1.5605e-05
0.00967605
1.32433e-05
0.00707438
9.45025e-06
0.00429012
5.54642e-06
0.00146584
8.33827e-05
8.34808e-05
0.000259252
-4.79489e-06
0.000232439
-1.03701e-05
0.000881679
-5.20184e-05
-1.9592e-05
0.00164029
-2.56303e-05
-2.65155e-05
0.00573456
8.40701e-06
0.00163705
-6.0659e-06
0.000832803
-4.69064e-07
-7.91233e-06
-0.000188881
0.000164998
-4.20947e-05
-2.38343e-05
-8.25437e-05
8.10262e-05
-3.30579e-05
0.00870897
-2.47423e-05
0.0112896
-1.07731e-05
0.0132781
2.94885e-06
0.0145415
1.41799e-05
0.0150108
1.96557e-05
0.0146897
2.5228e-05
0.0136246
2.00443e-05
0.011912
2.01896e-05
0.00966896
1.67316e-05
0.00706706
1.4076e-05
0.00428196
6.42663e-06
0.00146012
7.6255e-05
6.59131e-05
0.00011299
9.34068e-05
0.000808603
-1.84002e-06
8.80066e-07
0.0016163
-5.55568e-06
-1.50343e-05
0.00570552
1.18883e-05
0.00162409
1.11884e-06
0.000802691
1.29896e-06
-1.19409e-06
-8.54945e-05
8.50721e-05
-4.20788e-05
-9.95873e-06
0.00869438
-3.31665e-06
0.0112824
9.29675e-06
0.0132724
2.42985e-05
0.0145322
2.97852e-05
0.0150014
3.38882e-05
0.0146815
2.76349e-05
0.0136172
2.8751e-05
0.0119034
2.47565e-05
0.00966085
2.30898e-05
0.00705825
1.70142e-05
0.00427197
8.1903e-06
0.00145259
8.32834e-05
8.42109e-05
0.000797438
-1.14743e-06
1.03401e-06
0.00161225
-2.66554e-06
-1.15999e-05
0.0056955
1.27782e-05
0.00162172
2.78472e-06
0.000798609
1.16738e-06
-9.77871e-07
-8.30168e-05
8.44022e-05
4.88404e-06
0.00868844
1.1632e-05
0.0112819
2.47715e-05
0.0132729
3.50238e-05
0.0145275
4.2459e-05
0.0149932
4.03612e-05
0.0146689
4.2198e-05
0.0136037
3.60227e-05
0.011892
3.2979e-05
0.00965097
2.87293e-05
0.00704682
1.9963e-05
0.00426062
1.03451e-05
0.00144257
8.32583e-05
8.43019e-05
0.000796351
-1.04007e-06
1.10516e-06
0.00161164
-1.31157e-06
-9.20461e-06
0.00569781
1.26266e-05
0.00162293
1.93676e-06
0.000799186
1.28168e-06
-1.0796e-06
-8.3324e-05
8.45476e-05
9.84519e-06
0.00869051
2.22661e-05
0.0112848
3.38771e-05
0.0132747
4.3334e-05
0.0145273
5.17263e-05
0.0149821
5.03814e-05
0.0146607
4.29342e-05
0.0135966
4.05066e-05
0.0118844
3.68408e-05
0.00964298
3.36227e-05
0.00703344
2.4907e-05
0.00424634
1.28422e-05
0.00142976
8.35584e-05
8.47098e-05
0.000798053
-1.04334e-06
1.0489e-06
0.00161514
-9.44486e-07
-7.6852e-06
0.00570456
1.20071e-05
0.00162534
2.77651e-06
0.00080016
1.12438e-06
-1.07506e-06
-8.36302e-05
8.49969e-05
1.3875e-05
0.00870131
3.01105e-05
0.0112905
4.44996e-05
0.0132744
5.4393e-05
0.0145248
5.51124e-05
0.0149773
6.01245e-05
0.0146433
5.71938e-05
0.0135797
5.34644e-05
0.0118677
4.6195e-05
0.00963049
4.03139e-05
0.00701812
2.94496e-05
0.00422965
1.54823e-05
0.00141394
8.39592e-05
8.50177e-05
0.000799702
-1.07371e-06
1.01842e-06
0.00161925
-1.34133e-06
-6.56841e-06
0.00571382
1.20407e-05
0.00162885
2.90756e-06
0.000802674
1.13015e-06
-1.06048e-06
-8.39426e-05
8.51193e-05
1.83676e-05
0.00871311
3.49522e-05
0.0113
4.74217e-05
0.0132816
6.37469e-05
0.0145164
7.00666e-05
0.0149673
6.73752e-05
0.014633
6.19626e-05
0.0135711
6.04415e-05
0.0118534
5.60415e-05
0.00961475
4.79948e-05
0.00699947
3.57056e-05
0.00420912
1.82462e-05
0.00139511
8.40934e-05
8.51561e-05
0.000801563
-1.02956e-06
1.02254e-06
0.00162327
-4.65081e-07
-6.05951e-06
0.00572771
1.19513e-05
0.00163317
2.53981e-06
0.00080454
9.97147e-07
-7.88823e-07
-8.40956e-05
8.53106e-05
2.05702e-05
0.00872999
3.79867e-05
0.0113113
5.81183e-05
0.0132878
6.83008e-05
0.014518
7.35168e-05
0.0149609
7.58956e-05
0.0146188
7.51405e-05
0.0135563
6.94362e-05
0.0118399
6.58651e-05
0.00959669
5.45585e-05
0.0069803
4.16256e-05
0.00418516
2.16598e-05
0.00137258
8.42935e-05
8.53323e-05
0.000804564
-1.01674e-06
9.94448e-07
0.00162777
-3.21874e-07
-4.66654e-06
0.00574175
1.19828e-05
0.00163776
2.6069e-06
0.000807158
1.08195e-06
-8.19129e-07
-8.45435e-05
8.56033e-05
2.26781e-05
0.00874482
4.28281e-05
0.0113259
6.08194e-05
0.0132951
7.65093e-05
0.014515
8.57614e-05
0.0149509
8.57044e-05
0.0146081
8.61011e-05
0.0135395
8.09363e-05
0.0118247
7.5986e-05
0.00957498
6.61981e-05
0.00695523
4.74151e-05
0.0041586
2.48377e-05
0.0013466
8.46401e-05
8.56843e-05
0.00080734
-1.15148e-06
9.42819e-07
0.00163396
-2.43367e-07
-4.89662e-06
0.00575895
1.17558e-05
0.00164372
2.67574e-06
0.000810028
1.03519e-06
-7.45493e-07
-8.48652e-05
8.60421e-05
2.55988e-05
0.00876433
4.79203e-05
0.0113402
7.00013e-05
0.0133019
8.35973e-05
0.014517
9.39779e-05
0.0149424
9.67737e-05
0.0145973
9.49557e-05
0.0135253
9.68348e-05
0.0118035
8.82096e-05
0.00955251
7.61221e-05
0.00692586
5.64403e-05
0.00412594
2.75796e-05
0.0013176
8.49101e-05
8.58781e-05
0.00081031
-9.43154e-07
9.79182e-07
0.00163917
1.47508e-08
-3.38517e-06
0.00577653
1.18555e-05
0.00164891
2.74158e-06
0.000813177
1.04623e-06
-8.91946e-07
-8.51326e-05
8.62526e-05
2.7199e-05
0.00878374
5.29161e-05
0.0113559
7.85404e-05
0.0133063
9.72968e-05
0.0145135
0.000105968
0.0149331
0.000111613
0.0145804
0.000112136
0.0135097
0.000107954
0.0117835
0.000101819
0.00952627
8.59173e-05
0.00689551
6.31673e-05
0.00408904
2.86543e-05
0.00128743
8.53724e-05
8.64097e-05
0.000813488
-8.66009e-07
9.01372e-07
0.00164596
1.86593e-07
-3.43959e-06
0.00579644
1.1725e-05
0.00165542
2.75599e-06
0.000816502
9.59101e-07
-8.42113e-07
-8.55177e-05
8.66737e-05
3.3024e-05
0.00880556
6.2022e-05
0.0113737
8.63552e-05
0.0133176
0.000105888
0.0145135
0.000116715
0.0149279
0.000122092
0.0145703
0.000126357
0.013491
0.000119621
0.0117651
0.000114499
0.00949696
9.95649e-05
0.00685808
7.08805e-05
0.00404544
3.41528e-05
0.00125201
8.58275e-05
8.67555e-05
0.000817252
-8.76295e-07
8.94794e-07
0.00165177
4.04039e-07
-1.67831e-06
0.00581968
1.09924e-05
0.00166142
2.66597e-06
0.000820143
8.27373e-07
-7.17076e-07
-8.59134e-05
8.69688e-05
4.07824e-05
0.00882433
6.82408e-05
0.0113898
9.70313e-05
0.0133259
0.000114506
0.0145157
0.000130458
0.0149194
0.000138091
0.0145582
0.000140456
0.0134697
0.000140565
0.0117385
0.000130188
0.00946553
0.000111002
0.0068169
7.76057e-05
0.00400085
5.42687e-05
0.00119699
8.61568e-05
8.71072e-05
0.000820645
-8.42016e-07
9.35345e-07
0.0016603
-2.85604e-07
2.68411e-06
0.00584165
1.6509e-05
0.00167169
-1.66774e-07
0.000823091
1.07108e-06
-6.2449e-07
-8.63902e-05
8.73159e-05
4.82161e-05
0.00884627
7.77573e-05
0.0114107
0.000103492
0.0133374
0.000128116
0.014518
0.000146238
0.0149111
0.000156476
0.014542
0.000159024
0.0134509
0.000153278
0.0117148
0.000144675
0.00943106
0.000123452
0.00677019
0.000115677
0.00393883
8.81895e-05
8.64764e-05
8.74198e-05
0.000823362
-8.82662e-07
7.2784e-07
0.00167915
-5.17041e-06
8.70594e-06
0.00586228
1.80961e-05
0.00168517
8.19144e-06
2.7623e-06
0.000822998
9.71219e-07
-7.63828e-07
-8.67953e-05
8.79229e-05
5.17354e-05
0.00886951
7.9832e-05
0.0114322
0.000113018
0.0133519
0.000140389
0.0145238
0.000159811
0.0149075
0.000171504
0.0145292
0.000176782
0.013427
0.000176595
0.0116824
0.000164765
0.00938911
0.000161281
0.00672409
0.000174355
8.70827e-05
8.78443e-05
0.000483572
-7.63107e-07
6.34958e-07
0.000334176
0.0016881
5.59588e-07
5.22998e-06
9.93512e-06
0.00588855
1.60978e-05
0.00169755
3.05337e-06
5.66575e-06
0.000509763
-1.81203e-05
0.000517703
-5.06161e-06
-8.70805e-05
8.80825e-05
5.1832e-05
0.00889964
8.94443e-05
0.0114575
0.000124647
0.0133681
0.000159879
0.0145236
0.000183605
0.0148953
0.000195605
0.0145102
0.00019954
0.0134037
0.000196479
0.0116502
0.000199366
0.00935067
0.000230427
8.72888e-05
8.79023e-05
0.000312378
3.64749e-06
0.000519702
-1.38529e-06
0.000524476
5.58477e-07
0.00170081
2.20375e-06
4.28666e-06
8.9971e-06
0.00591723
1.32145e-05
0.00171116
2.26445e-06
4.04653e-06
0.000525906
1.61246e-06
0.000529069
2.68453e-06
0.00030811
-8.38371e-07
5.37081e-05
0.00893224
9.43893e-05
0.0114852
0.000138423
0.0133887
0.000174669
0.0145324
0.000200298
0.0148906
0.000217927
0.0144918
0.000218332
0.0133817
0.000229318
0.01162
0.000264429
9.15239e-05
0.000307633
-7.95692e-07
0.000308268
-9.23658e-08
0.000529923
1.37282e-06
0.000532549
1.72997e-06
0.00171539
1.46699e-06
3.25563e-06
1.07314e-05
0.00594895
1.1736e-05
0.00172353
1.89936e-06
3.15132e-06
0.000533678
1.04839e-06
0.000535871
1.99091e-06
0.000309626
3.39203e-07
0.00031187
4.56774e-07
9.07054e-05
5.71978e-05
0.00897155
0.000106709
0.0115187
0.000156031
0.0134081
0.000199301
0.0145335
0.000227417
0.0148805
0.000236593
0.0144726
0.000253941
0.0133566
0.000281815
8.99143e-05
8.98383e-05
0.000312924
4.6798e-07
0.00031418
4.42274e-07
0.000536104
1.26776e-06
0.000538526
8.9463e-07
0.00172959
1.7029e-06
2.69116e-06
1.1056e-05
0.00598315
1.07261e-05
0.00173718
1.97949e-06
2.75876e-06
0.000539293
1.07099e-06
0.000541069
1.49788e-06
0.000314849
4.08255e-07
0.000316329
4.69176e-07
9.01791e-05
9.06787e-05
6.26416e-05
0.00901217
0.000115902
0.0115565
0.000175469
0.013431
0.000222356
0.0145377
0.000247609
0.0148688
0.000270815
0.0144555
0.000290226
9.11548e-05
9.16034e-05
0.000317377
3.20321e-07
0.000318153
6.57072e-08
0.00054193
8.187e-07
0.000543646
1.01202e-06
0.00174409
1.64218e-06
2.39805e-06
1.12947e-05
0.00602521
9.93111e-06
0.00175056
1.80469e-06
2.42012e-06
0.000544458
1.06305e-06
0.000546361
9.96394e-07
0.00031898
2.6945e-07
0.000320086
3.48092e-07
9.19921e-05
9.24823e-05
6.81757e-05
0.00906279
0.000136536
0.0115976
0.000202747
0.0134503
0.000248723
0.0145352
0.000280294
0.0148585
0.000290968
9.27982e-05
9.28633e-05
0.000320766
2.40426e-07
0.000321489
2.21637e-07
0.000546799
1.22674e-06
0.000548335
9.0231e-07
0.00175716
1.84476e-06
2.46413e-06
1.35442e-05
0.00606949
9.59815e-06
0.00176377
1.80666e-06
2.19034e-06
0.000549572
4.88225e-07
0.000550868
1.25702e-06
0.000322482
8.82078e-08
0.000323059
3.62024e-07
9.31128e-05
9.34852e-05
7.86153e-05
0.00911782
0.000157094
0.0116398
0.00022875
0.0134678
0.000278632
0.0145358
0.000287931
9.37181e-05
9.39403e-05
0.000324067
3.04183e-07
0.000324682
2.06047e-07
0.000551527
1.15511e-06
0.000553613
4.22295e-07
0.00177265
2.06805e-06
2.37408e-06
1.60926e-05
0.00612353
9.73156e-06
0.00177825
1.99179e-06
2.09405e-06
0.000554357
9.16454e-07
0.000555472
1.2508e-06
0.000324969
2.14005e-07
0.000326088
7.7448e-08
9.40029e-05
9.43811e-05
9.66821e-05
0.00918083
0.0001934
0.0116761
0.000266363
0.0134797
0.000278647
9.46709e-05
9.4869e-05
0.000327139
2.17298e-07
0.000327307
1.54142e-07
0.000556735
7.80756e-07
0.000558322
8.34355e-07
0.00178907
2.50558e-06
2.37699e-06
1.84085e-05
0.00618954
1.24466e-05
0.00179546
2.27458e-06
2.05783e-06
0.000559201
9.65031e-07
0.000560529
9.91777e-07
0.000327959
2.91225e-07
0.000329009
9.90566e-08
9.5054e-05
9.51567e-05
0.000128226
0.0092445
0.000232588
0.0117088
0.000265335
9.53575e-05
9.55121e-05
0.000329672
2.24207e-07
0.000330211
1.55298e-07
0.000561765
1.21594e-06
0.000563341
9.55245e-07
0.0018083
3.41058e-06
2.11354e-06
2.74728e-05
0.00627111
2.04282e-05
0.00181568
3.36207e-06
1.95574e-06
0.000564798
6.40272e-07
0.000565615
1.47666e-06
0.000330996
2.41961e-07
0.00033159
3.11391e-07
9.57638e-05
9.58822e-05
0.000179524
0.00929899
0.000240018
9.60763e-05
9.62321e-05
0.00033271
3.48978e-07
0.000333519
4.01396e-08
0.000567649
1.36925e-06
0.000569157
5.93712e-07
0.00183421
5.06168e-06
3.80411e-06
4.67217e-05
0.00636396
4.14321e-05
0.00184343
6.43593e-06
5.11733e-06
0.000571108
1.30154e-06
0.000571442
1.70429e-06
0.000334011
3.20111e-07
0.000335049
3.80492e-07
9.6437e-05
9.68119e-05
0.000202332
9.71487e-05
9.72584e-05
0.000336149
3.22676e-07
0.000336383
2.27586e-07
0.000574494
1.87749e-06
0.000576944
1.16584e-06
0.00187235
1.05566e-05
7.56927e-06
9.56003e-05
6.40543e-05
0.00188771
1.35077e-05
1.26146e-05
0.000580596
2.49105e-06
0.000581999
3.51485e-06
0.000337535
8.829e-08
0.00033871
3.3955e-07
9.75609e-05
9.79618e-05
9.8243e-05
9.84531e-05
0.000340144
2.7962e-07
0.000340779
1.95655e-07
0.000588032
4.26209e-06
0.00059056
4.77768e-06
0.00193454
2.31984e-05
2.5586e-05
3.98871e-05
2.86483e-05
0.000596902
6.9265e-06
0.0006002
9.07459e-06
0.000342537
3.81371e-07
0.000344964
6.63532e-07
9.84594e-05
9.8742e-05
9.89057e-05
9.89788e-05
0.000347934
8.708e-07
0.000351013
1.27627e-06
0.000608179
1.50695e-05
0.00061395
1.95977e-05
0.000624779
2.88058e-05
3.06693e-05
0.000355547
1.95974e-06
0.000361043
3.30543e-06
9.91917e-05
9.96857e-05
0.000100389
0.000101481
0.000370273
5.46739e-06
0.000379587
9.90439e-06
0.000389646
1.84338e-05
3.43468e-05
0.000103319
0.000106482
0.0001118
0.000121543
0.00013991
-4.65512e-06
4.66024e-06
2.25185e-05
-9.56338e-06
-1.75987e-05
-3.38708e-06
8.07606e-06
3.1289e-05
-1.21349e-05
4.89714e-05
-1.59488e-05
-4.26671e-05
-7.01564e-06
-1.06192e-05
-1.73162e-06
9.85812e-06
-7.94332e-06
3.74585e-05
5.80809e-05
-2.13029e-05
1.35023e-05
0.000169241
-5.47563e-05
-0.000144402
-3.61771e-05
-2.94366e-06
-7.66398e-06
-7.07483e-07
1.05722e-05
-1.50768e-05
6.51845e-05
-4.17623e-06
4.09689e-05
-6.50559e-05
0.000197983
3.73395e-05
0.000769116
-0.000660907
-0.000200072
8.50771e-06
-0.000121692
5.8118e-06
-3.06516e-05
-2.01484e-06
-5.80849e-06
-3.51139e-07
1.09854e-05
-1.05946e-05
7.1561e-05
-2.65522e-06
4.33618e-05
4.56053e-05
-0.000228328
0.000886741
6.74651e-06
0.000226557
1.97149e-05
-0.000135332
1.39603e-05
0.00194778
-0.00181617
-0.000331768
-0.000106041
2.50001e-06
1.10353e-06
-2.69844e-05
-3.72004e-07
-5.70508e-06
-9.16266e-07
1.20223e-05
7.57369e-05
-3.38236e-06
4.61092e-05
-0.000358348
0.00207835
3.43316e-05
-0.000187425
0.00101776
2.36074e-05
7.22038e-06
0.000248912
5.1765e-06
-0.000282396
2.08487e-06
0.00358271
-0.00342523
-0.000488832
-2.49536e-05
-3.38198e-08
-2.39622e-05
-5.73479e-06
-2.90453e-07
1.25484e-05
7.9652e-05
-2.08971e-06
4.81079e-05
-0.000506297
0.00373097
-0.000337343
0.00222901
-0.000136529
0.00113866
4.28428e-06
1.19719e-05
0.000268196
2.01213e-06
2.76925e-06
8.27682e-05
-0.000458379
4.61848e-07
0.0054732
-0.00530371
-0.00065821
4.618e-08
1.25836e-05
-5.35345e-07
4.88059e-05
-0.000663058
0.0056304
-0.000495159
0.00388923
-0.00029606
0.00238885
-0.000105912
0.00124495
3.66722e-06
-4.3476e-06
-0.000278757
0.000291758
-5.03778e-06
-2.98818e-06
9.50175e-07
9.61413e-07
-8.50021e-05
3.06768e-07
8.69793e-05
-0.000642721
0.00742693
-0.00726672
-0.000817925
1.87547e-07
1.25898e-05
4.93923e-05
-0.000812467
0.00757665
-0.000653426
0.00578909
-0.000465607
0.00405876
-0.000266433
0.00254847
-0.000120774
0.00133815
1.66649e-05
8.5147e-06
-0.000296403
0.000303523
-3.03681e-06
-8.47986e-06