/*--------------------------------*- C++ -*----------------------------------*\
| =========                 |                                                 |
| \\      /  F ield         | OpenFOAM: The Open Source CFD Toolbox           |
|  \\    /   O peration     | Version:  v1912                                 |
|   \\  /    A nd           | Website:  www.openfoam.com                      |
|    \\/     M anipulation  |                                                 |
\*---------------------------------------------------------------------------*/
FoamFile
{
    version     2.0;
    format      ascii;
    class       volVectorField;
    location    "230";
    object      U;
}
// * * * * * * * * * * * * * * * * * * * * * * * * * * * * * * * * * * * * * //

dimensions      [0 1 -1 0 0 0 0];


internalField   nonuniform List<vector> 
3675
(
(0.999101 0.00118045 1.15567e-25)
(0.99915 0.00347165 0)
(0.990327 0.0037975 3.29904e-23)
(0.999239 0.00553225 -5.75495e-23)
(0.991018 0.011144 0)
(0.969829 0.00737061 -1.04869e-21)
(0.999356 0.007247 3.52515e-21)
(0.992281 0.0176908 -3.81072e-21)
(0.972165 0.0215159 1.07744e-21)
(0.93276 0.0130577 -7.35593e-23)
(0.999484 0.00854912 -6.82416e-21)
(0.993916 0.0230484 7.5416e-21)
(0.976408 0.0338394 0)
(0.938886 0.0378029 2.31261e-21)
(0.869248 0.0235925 -2.09198e-22)
(0.99961 0.00941818 3.30067e-21)
(0.995707 0.0270078 -1.01627e-22)
(0.981835 0.0435443 -1.26032e-22)
(0.949628 0.058594 -2.26271e-21)
(0.883534 0.0671227 0)
(0.754726 0.045158 2.15865e-22)
(0.999726 0.00986991 0)
(0.997473 0.0295316 3.20063e-21)
(0.987662 0.0503111 0)
(0.962758 0.0738768 1.22991e-22)
(0.907471 0.101019 3.22945e-22)
(0.793613 0.123209 -3.2294e-21)
(0.586773 0.0434389 -2.41847e-22)
(0.607441 0.118911 -3.87612e-22)
(0.999829 0.00994367 0)
(0.999094 0.0307079 -6.6918e-21)
(0.993266 0.0542141 6.6992e-21)
(0.976221 0.0833422 3.5611e-21)
(0.936304 0.122765 -2.7108e-22)
(0.85017 0.178109 4.93007e-21)
(0.647477 0.192768 6.89984e-22)
(0.700029 0.240696 3.41145e-22)
(0.393978 0.0627328 8.05025e-22)
(0.433088 0.180918 -4.66494e-22)
(0.999918 0.00969015 0)
(1.00051 0.0306952 -4.74539e-23)
(0.998286 0.0555728 -6.61576e-21)
(0.98859 0.0876475 -3.43905e-21)
(0.963821 0.133129 0)
(0.909798 0.20562 -1.78507e-21)
(0.76357 0.355852 -2.15901e-21)
(0.50493 0.278656 -1.42196e-21)
(0.592073 0.358224 1.13773e-21)
(0.183969 0.0401498 -1.797e-22)
(0.197472 0.118748 3.72897e-22)
(0.270707 0.266589 1.86699e-21)
(0.225007 0.194261 -3.22123e-22)
(0.999996 0.00916253 0)
(1.0017 0.0296774 0)
(1.00257 0.0548023 1.10749e-24)
(0.999214 0.087831 -9.7308e-23)
(0.987005 0.134842 -1.97422e-22)
(0.959741 0.209921 0)
(0.897269 0.366372 4.43128e-21)
(0.637029 0.560375 1.69758e-22)
(0.772707 0.592301 4.77443e-23)
(0.32978 0.33942 3.47013e-23)
(0.404062 0.408693 0)
(0.481765 0.490693 -7.28244e-22)
(0.036695 0.0318934 -1.52299e-21)
(0.0487345 0.0948496 -6.96945e-22)
(0.113551 0.206955 -7.05926e-21)
(0.0757572 0.153856 -2.3929e-21)
(1.00007 0.00841039 0)
(1.00267 0.0278342 0)
(1.00611 0.0523168 0)
(1.00795 0.0848735 4.51318e-23)
(1.00558 0.130751 0)
(0.997547 0.201296 9.02619e-23)
(0.982212 0.332441 -2.90333e-21)
(0.979404 0.556033 -4.14415e-22)
(0.621373 0.554129 -8.36823e-24)
(0.488764 0.487557 -8.71716e-23)
(0.769617 0.536504 9.6795e-23)
(0.166616 0.308676 8.67667e-21)
(0.290037 0.400953 -5.99113e-22)
(0.332649 0.384017 1.65578e-21)
(0.233989 0.2802 -1.56831e-21)
(1.00013 0.00747785 -4.43971e-24)
(1.00346 0.0253279 0)
(1.00895 0.048488 -5.01837e-21)
(1.01491 0.0795775 0)
(1.02003 0.12287 -7.22613e-23)
(1.0252 0.186855 0)
(1.03369 0.290597 -3.81553e-23)
(1.10128 0.484102 3.26023e-22)
(0.914239 0.447482 -3.71339e-22)
(1.09736 0.503631 -3.27602e-23)
(0.46239 0.344205 -1.18594e-22)
(0.287808 0.24743 1.11736e-22)
(0.714495 0.423007 6.51182e-22)
(0.466383 0.288361 0)
(0.0575667 0.132922 2.67629e-21)
(0.161737 0.245034 -6.13928e-21)
(0.132491 0.164518 0)
(1.00019 0.00640073 0)
(1.00409 0.0222962 -4.28081e-24)
(1.0112 0.0436235 4.98844e-21)
(1.02033 0.0725787 -3.93008e-23)
(1.03099 0.112523 0)
(1.04497 0.169556 6.80969e-23)
(1.06685 0.25333 0)
(1.14394 0.396056 6.14715e-22)
(1.22935 0.419611 -1.71319e-21)
(0.692869 0.2055 1.60856e-22)
(0.567565 0.274015 -1.31559e-21)
(1.01641 0.298744 -9.22332e-22)
(0.19372 0.133961 2.94241e-21)
(0.264449 0.154405 1.29477e-21)
(1.00025 0.0052087 0)
(1.00459 0.0188509 -8.42528e-24)
(1.01296 0.0379652 9.01723e-24)
(1.02451 0.064361 1.60413e-23)
(1.03915 0.10061 -2.80227e-23)
(1.05887 0.15089 3.18762e-21)
(1.08861 0.220204 2.13631e-21)
(1.15757 0.323238 4.28891e-22)
(1.28817 0.379549 2.24605e-21)
(1.15356 0.260599 0)
(0.449488 0.0578259 5.2498e-22)
(0.193842 0.0362963 0)
(0.36337 0.0932825 4.34617e-23)
(0.848911 0.170207 -3.19194e-22)
(0.123018 0.0330601 -1.59414e-22)
(1.00032 0.00392441 -7.94662e-21)
(1.005 0.0150787 3.99147e-24)
(1.01434 0.0316981 1.6146e-23)
(1.02771 0.0552741 -1.44132e-23)
(1.04517 0.087727 -1.57113e-23)
(1.06855 0.131797 -5.96408e-21)
(1.10239 0.189972 -3.92174e-21)
(1.16347 0.267536 -4.50602e-22)
(1.27974 0.32262 0)
(1.33597 0.287785 0)
(1.00197 0.142283 6.65336e-21)
(0.686379 0.0996839 -4.09665e-23)
(0.11993 0.00564759 1.12921e-22)
(0.320313 0.0211286 -1.10225e-23)
(0.0925124 0.00388509 -3.21456e-22)
(1.00039 0.0025648 7.88561e-21)
(1.00533 0.0110444 -2.01557e-24)
(1.01544 0.0249578 -3.99133e-24)
(1.03019 0.0455505 -2.07675e-23)
(1.04964 0.0742502 6.39523e-21)
(1.07529 0.112773 2.80593e-21)
(1.11086 0.162141 1.76736e-21)
(1.16647 0.223165 -1.6093e-23)
(1.25976 0.271087 0)
(1.35834 0.26776 -4.97884e-21)
(1.29151 0.204645 -8.12449e-21)
(0.889409 0.070686 8.20103e-23)
(0.553492 0.0438089 -5.58316e-21)
(0.594338 0.0555965 2.80247e-24)
(0.275994 0.00788846 1.1734e-23)
(0.065939 0.00218662 9.64026e-23)
(0.0705762 -0.00091781 0)
(1.00046 0.00114342 0)
(1.0056 0.0067965 0)
(1.01632 0.0178397 -3.40277e-24)
(1.03215 0.035342 0)
(1.05302 0.0603873 -5.00908e-22)
(1.08007 0.0940004 6.48241e-24)
(1.11606 0.136347 1.10811e-21)
(1.16737 0.186214 -5.08218e-24)
(1.24368 0.227969 -2.10447e-21)
(1.3349 0.237638 5.14409e-21)
(1.37606 0.214194 -5.94672e-21)
(1.22353 0.142323 0)
(0.810614 0.0394161 -5.04049e-21)
(0.511948 0.0182061 -8.76109e-23)
(0.531544 0.0234104 8.13974e-23)
(0.28732 0.0126315 1.02226e-20)
(0.0612957 -0.0017696 -1.0293e-22)
(0.0666947 0.00229261 6.62473e-21)
(1.00055 -0.000329163 0)
(1.00584 0.00237094 -7.67466e-21)
(1.01705 0.0104072 0)
(1.03375 0.0247387 3.37821e-24)
(1.05571 0.0462371 -3.86498e-22)
(1.08363 0.0754965 -3.78558e-21)
(1.11942 0.112191 -1.13127e-21)
(1.16706 0.15431 0)
(1.23192 0.191408 4.27426e-21)
(1.30873 0.207004 -1.23587e-23)
(1.37318 0.201128 6.6847e-22)
(1.36256 0.170194 0)
(1.15712 0.100948 1.22752e-20)
(0.753822 0.0276504 -1.26358e-21)
(0.476045 0.0117057 -1.23724e-21)
(0.491158 0.0110987 5.02622e-24)
(0.284296 0.0049709 0)
(0.293642 0.0059467 -1.27017e-21)
(0.132363 0.00366786 -3.65873e-21)
(0.0946058 0.00816273 -1.67175e-20)
(1.00063 -0.00184315 0)
(1.00603 -0.00220329 1.52188e-20)
(1.01767 0.00270195 0)
(1.03511 0.0137824 0)
(1.05797 0.0318175 -9.93376e-21)
(1.08654 0.0571685 3.67402e-21)
(1.12192 0.0892782 1.29833e-21)
(1.16646 0.125865 -1.2124e-21)
(1.22313 0.159551 -2.12654e-21)
(1.2885 0.178563 -8.54375e-24)
(1.34996 0.181248 5.49071e-21)
(1.38785 0.170389 -3.05412e-24)
(1.33547 0.135725 -7.27487e-21)
(1.09728 0.0758483 1.66332e-23)
(0.711488 0.0227988 -6.23274e-22)
(0.448843 0.00959702 1.18575e-21)
(0.460331 0.00843654 1.20363e-21)
(0.268524 0.00284428 1.14404e-21)
(0.2752 0.00230801 -2.21239e-22)
(0.130629 0.00180667 -3.28635e-24)
(0.132472 0.000462851 2.75846e-23)
(0.134901 0.000934746 2.68965e-21)
(0.135648 0.00193272 4.15148e-22)
(0.0414538 -0.000746565 1.74083e-21)
(0.02566 0.00220796 4.977e-21)
(1.00073 -0.00338787 0)
(1.00619 -0.00689858 -7.54156e-21)
(1.01817 -0.00524573 6.92065e-21)
(1.0363 0.00248567 5.87454e-21)
(1.05999 0.0170944 9.26717e-21)
(1.08919 0.0388672 0)
(1.12424 0.0671924 -1.26454e-21)
(1.16629 0.0997864 1.2278e-21)
(1.21683 0.131046 0)
(1.27361 0.152394 -2.75622e-23)
(1.3284 0.16079 4.76234e-21)
(1.37408 0.159336 5.36567e-24)
(1.38912 0.145452 -1.01449e-25)
(1.30176 0.111398 -7.07618e-21)
(1.0462 0.0610724 0)
(0.678536 0.020546 -5.02846e-21)
(0.427201 0.00847818 1.1672e-21)
(0.436416 0.00753183 5.94628e-22)
(0.256485 0.00248015 6.9323e-23)
(0.262024 0.00200516 -5.85789e-25)
(0.12485 0.000992827 -5.0066e-23)
(0.125909 0.000130465 -2.55554e-23)
(0.127997 -0.000262314 3.15465e-22)
(0.127505 0.000779681 1.28232e-22)
(0.03971 0.000203393 1.69958e-23)
(0.0403679 -8.52073e-05 0)
(0.0408122 -0.00034919 -5.71262e-22)
(0.0412051 0.000182982 -2.84703e-22)
(1.00083 -0.00494997 0)
(1.00631 -0.0116837 -7.20892e-24)
(1.01857 -0.0134085 -6.83395e-21)
(1.03735 -0.00915713 3.98757e-23)
(1.06191 0.00199327 -8.8156e-21)
(1.09185 0.020398 2.64172e-21)
(1.12685 0.0455415 -5.69781e-25)
(1.16707 0.0752229 3.02947e-24)
(1.21297 0.104902 5.57779e-24)
(1.26303 0.127997 -7.07756e-21)
(1.31185 0.140975 -9.54619e-21)
(1.35491 0.145302 4.54032e-24)
(1.38778 0.141739 0)
(1.38097 0.12693 6.80016e-21)
(1.26652 0.095227 7.17993e-21)
(1.00352 0.0524335 4.24087e-21)
(0.651668 0.0194625 -4.78102e-24)
(0.409031 0.00799197 0)
(0.416866 0.0071418 5.80164e-22)
(0.246061 0.00233232 2.02452e-22)
(0.25094 0.00203246 -6.09499e-22)
(0.12025 0.000797344 -4.80164e-23)
(0.121177 0.000247233 -9.6556e-23)
(0.123137 1.01481e-06 9.83538e-23)
(0.122545 0.000668425 -1.4655e-22)
(0.0386912 9.73148e-05 3.22396e-23)
(0.0390326 -6.0256e-05 2.05756e-24)
(0.039124 -0.000177346 -8.42033e-23)
(0.0393097 5.01918e-05 -2.05175e-24)
(1.00093 -0.00651094 0)
(1.00635 -0.0165163 0)
(1.01881 -0.021751 7.06933e-24)
(1.03823 -0.0211566 -5.69353e-21)
(1.06374 -0.0135807 4.27779e-21)
(1.09468 0.00152994 -5.03567e-21)
(1.13007 0.0239188 -7.62113e-25)
(1.16919 0.0514898 5.56634e-25)
(1.21167 0.0803193 -4.56659e-21)
(1.25635 0.104967 7.19403e-21)
(1.29988 0.121749 -4.51032e-21)
(1.33898 0.130758 -1.12816e-23)
(1.37269 0.133029 5.67794e-24)
(1.39342 0.128604 0)
(1.36679 0.114058 -6.81638e-21)
(1.23267 0.084622 -7.23565e-21)
(0.967599 0.0474435 0)
(0.62979 0.0189233 -6.29041e-22)
(0.39332 0.00780191 -1.06828e-21)
(0.400011 0.0070153 1.07016e-21)
(0.236531 0.00232657 -6.63152e-23)
(0.241072 0.00210932 -4.64885e-22)
(0.115942 0.000701669 -1.39977e-22)
(0.116809 0.0003175 -9.36389e-23)
(0.118756 0.000176106 -4.75418e-23)
(0.118078 0.0006316 0)
(0.0376518 7.10995e-05 1.55441e-23)
(0.0379748 -2.66468e-05 0)
(0.0383186 -8.42613e-05 0)
(0.0382787 4.98585e-05 3.14479e-23)
(1.00102 -0.00804485 0)
(1.00631 -0.021336 -8.29197e-21)
(1.01885 -0.0302181 0)
(1.03886 -0.0335128 0)
(1.06544 -0.0297329 -8.03268e-24)
(1.09775 -0.0179898 2.39698e-21)
(1.13409 0.00191053 0)
(1.17291 0.0279672 0)
(1.21309 0.0566226 4.42673e-21)
(1.2535 0.0829334 5.55402e-24)
(1.29222 0.103064 1.8678e-20)
(1.32729 0.116167 0)
(1.35819 0.122864 5.97249e-21)
(1.38373 0.124038 0)
(1.39289 0.119588 0)
(1.34944 0.105291 6.80502e-21)
(1.20112 0.0777485 0)
(0.937338 0.0446386 0)
(0.614755 0.0188225 -9.82907e-21)
(0.380919 0.00769339 1.12482e-21)
(0.385669 0.00692098 1.13099e-21)
(0.227619 0.00234855 -3.94964e-25)
(0.231842 0.00219952 6.52076e-23)
(0.111678 0.000672127 -4.57146e-23)
(0.112543 0.000375362 9.16264e-23)
(0.114542 0.000286881 4.63342e-23)
(0.113797 0.000629523 -9.21984e-23)
(0.0365153 5.71293e-05 1.511e-23)
(0.036822 -1.0309e-05 0)
(0.0372915 -4.25636e-05 4.60422e-23)
(0.0371426 4.79481e-05 0)
(1.00111 -0.00951507 -1.70222e-23)
(1.00613 -0.0260555 2.55937e-20)
(1.01858 -0.0387205 1.22529e-23)
(1.0391 -0.0461955 0)
(1.06688 -0.0465689 0)
(1.10101 -0.0384425 4.26135e-24)
(1.139 -0.0209267 2.92257e-25)
(1.17846 0.00405374 -2.38896e-21)
(1.2174 0.033192 0)
(1.2545 0.0615259 0)
(1.28887 0.0848661 -9.15636e-21)
(1.31979 0.101699 0)
(1.34722 0.112256 -6.07359e-21)
(1.37119 0.117379 -3.31202e-24)
(1.38934 0.118195 0)
(1.38817 0.113705 0)
(1.33053 0.0994228 0)
(1.17212 0.0734291 0)
(0.912606 0.0433418 8.43788e-21)
(0.61 0.0197151 -2.43801e-21)
(0.37695 0.00782383 -4.38604e-21)
(0.376538 0.00672272 -2.23124e-21)
(0.220079 0.00233028 -9.59756e-22)
(0.223413 0.00224706 -6.45395e-23)
(0.107398 0.000665003 -8.99355e-23)
(0.108246 0.000410041 2.26257e-23)
(0.110296 0.000358546 2.26576e-23)
(0.109502 0.000644118 -4.52724e-23)
(0.0352708 5.1997e-05 4.42998e-23)
(0.0355861 4.07717e-07 -3.72219e-24)
(0.0361474 -1.84288e-05 -1.48858e-23)
(0.0359323 4.85349e-05 3.71294e-24)
(1.00118 -0.0108723 3.59222e-23)
(1.00577 -0.0305515 1.11404e-21)
(1.01787 -0.0471152 -1.61389e-20)
(1.03873 -0.0591265 -2.63418e-23)
(1.06779 -0.0641712 6.89553e-24)
(1.10427 -0.0601297 0)
(1.14476 -0.0450751 -1.0907e-24)
(1.186 -0.0208871 2.31425e-21)
(1.22483 0.0094307 0)
(1.25949 0.0403701 0)
(1.28992 0.0670699 0)
(1.3166 0.0874682 0)
(1.34019 0.101548 1.20548e-20)
(1.36114 0.110058 6.3714e-24)
(1.37918 0.114244 6.276e-24)
(1.39099 0.11485 0)
(1.38056 0.11004 0)
(1.31093 0.0956395 0)
(1.14585 0.0709288 3.51761e-24)
(0.892948 0.0432667 8.17498e-24)
(0.603876 0.0203131 -6.02073e-21)
(0.391602 0.00832377 -4.15625e-21)
(0.382623 0.00849107 4.17833e-21)
(0.219271 0.00201139 4.05534e-21)
(0.217764 0.00210628 2.55695e-21)
(0.103422 0.000652933 0)
(0.104079 0.000419854 -4.45891e-23)
(0.106039 0.000394229 4.48067e-23)
(0.105279 0.000657316 0)
(0.0339426 5.06789e-05 0)
(0.0342616 6.15322e-06 0)
(0.0348876 -4.82064e-06 -1.47517e-23)
(0.0346279 5.08246e-05 0)
(1.00123 -0.0120509 3.80462e-23)
(1.00516 -0.0346534 -1.81514e-20)
(1.01655 -0.0551869 1.59987e-20)
(1.03744 -0.0721523 0)
(1.06777 -0.0825878 -5.03639e-21)
(1.10723 -0.0833533 -6.6208e-24)
(1.15121 -0.0710746 0)
(1.19562 -0.0475825 0)
(1.23565 -0.015275 0)
(1.26872 0.019107 8.29921e-24)
(1.29554 0.0495613 9.89474e-24)
(1.3179 0.0735538 1.11523e-23)
(1.33731 0.0909611 -2.39135e-20)
(1.35463 0.102546 6.37995e-24)
(1.37013 0.109497 -1.28327e-23)
(1.38338 0.113026 3.24541e-24)
(1.38974 0.113262 -6.56192e-21)
(1.37087 0.107936 0)
(1.29124 0.0933368 0)
(1.12204 0.0696461 -5.81589e-26)
(0.874258 0.0427837 1.64501e-23)
(0.589785 0.020816 -4.78524e-21)
(0.392914 0.00962198 -2.16644e-21)
(0.394501 0.0084614 8.59358e-23)
(0.25094 0.00287526 3.76287e-21)
(0.231776 0.00366039 0)
(0.106303 0.000308444 0)
(0.102759 -4.99278e-05 -7.09228e-22)
(0.102332 0.000338503 -1.32992e-22)
(0.102362 0.000525429 -6.62777e-22)
(0.032638 5.03543e-05 1.43729e-23)
(0.032915 9.30028e-06 3.0675e-23)
(0.0335517 2.22427e-06 -2.8999e-23)
(0.0332822 5.38558e-05 -1.80459e-24)
(1.00123 -0.012967 0)
(1.00423 -0.0381332 -3.84485e-23)
(1.01439 -0.0626255 0)
(1.03479 -0.085005 -5.92919e-23)
(1.06629 -0.101784 4.91788e-21)
(1.10932 -0.108388 2.95144e-21)
(1.15788 -0.099527 -1.54886e-24)
(1.20731 -0.0769162 0)
(1.2502 -0.0415976 5.77795e-21)
(1.28252 -0.00260375 0)
(1.30596 0.0322516 1.94442e-24)
(1.32389 0.060016 -9.77503e-24)
(1.33878 0.0806703 1.18259e-20)
(1.35201 0.095119 -1.28482e-20)
(1.36414 0.104557 -1.33202e-20)
(1.37533 0.110272 -1.34432e-20)
(1.38478 0.113152 1.32625e-20)
(1.38625 0.112863 -6.52597e-21)
(1.3597 0.106887 6.47403e-21)
(1.27177 0.0919643 0)
(1.09922 0.0683744 -1.87264e-24)
(0.853176 0.0422931 1.23605e-20)
(0.571683 0.0205984 -4.69592e-21)
(0.382245 0.0101199 1.03747e-21)
(0.387954 0.00938042 -4.10881e-24)
(0.256051 0.00411777 -5.97528e-23)
(0.256955 0.00357663 -3.72968e-21)
(0.1535 0.000815497 -1.33066e-21)
(0.146816 0.000887033 0)
(0.114025 8.94047e-05 -2.81863e-21)
(0.129197 0.00332794 5.39094e-21)
(0.0348506 -0.000396183 0)
(0.0326896 -0.000175721 4.67237e-22)
(0.0323291 -7.95958e-06 4.48403e-23)
(0.0323191 7.26096e-06 -1.80418e-24)
(1.00117 -0.0135197 0)
(1.0029 -0.0407015 0)
(1.01115 -0.0690061 0)
(1.0303 -0.0972627 0)
(1.06256 -0.12155 0)
(1.10963 -0.135391 -2.85952e-21)
(1.16392 -0.131143 0)
(1.22093 -0.110028 3.14448e-21)
(1.26885 -0.0702971 -5.56445e-21)
(1.30129 -0.0250701 3.30928e-24)
(1.32145 0.0150905 -1.04902e-23)
(1.33475 0.0469382 -1.14827e-20)
(1.34482 0.0708375 -1.22438e-23)
(1.35354 0.0879974 1.26534e-20)
(1.36172 0.0997263 1.31757e-20)
(1.36975 0.107338 1.3464e-20)
(1.37769 0.111952 -6.71237e-21)
(1.38406 0.114148 6.56838e-21)
(1.38103 0.113216 2.99798e-23)
(1.3475 0.106454 6.39436e-21)
(1.25228 0.0907988 1.31185e-20)
(1.07582 0.0672137 -1.41857e-20)
(0.830256 0.0417484 6.63627e-24)
(0.552099 0.0199198 -4.43296e-24)
(0.368459 0.0097142 -6.4264e-23)
(0.375106 0.00925043 6.40326e-23)
(0.248035 0.00430477 -7.61399e-22)
(0.252583 0.0041487 5.88899e-23)
(0.156093 0.00174317 0)
(0.156909 0.00148876 3.34575e-22)
(0.156458 0.00116613 6.66984e-22)
(0.157546 0.00151732 3.34107e-22)
(0.0880161 0.000242307 1.78346e-21)
(0.0830751 0.000701796 0)
(0.0385004 -0.000349756 2.1168e-21)
(0.0560242 0.00412876 -3.64397e-21)
(1.00105 -0.013599 2.35267e-20)
(1.00111 -0.042013 2.32316e-20)
(1.00658 -0.0737545 0)
(1.02336 -0.108261 1.835e-20)
(1.05552 -0.141376 -1.40094e-20)
(1.1066 -0.164302 0)
(1.16792 -0.166923 6.72764e-22)
(1.2364 -0.148596 3.16471e-22)
(1.29231 -0.102286 6.95003e-21)
(1.32571 -0.0485584 8.00927e-24)
(1.34238 -0.0019077 1.09904e-23)
(1.35068 0.0344415 1.12186e-20)
(1.35558 0.0616387 -1.26612e-20)
(1.35941 0.0813937 3.79827e-23)
(1.3632 0.0952343 1.27125e-23)
(1.36744 0.104556 0)
(1.37241 0.110566 1.36444e-20)
(1.37793 0.114166 0)
(1.3817 0.115656 -6.47739e-21)
(1.37447 0.113962 -1.2667e-20)
(1.33445 0.106183 -1.25688e-20)
(1.23225 0.0897488 6.45246e-21)
(1.05169 0.0662239 3.48601e-21)
(0.806603 0.0409594 0)
(0.533647 0.0198268 -5.80965e-22)
(0.354126 0.00893291 -9.47753e-22)
(0.360956 0.00866255 9.50662e-22)
(0.238066 0.00404394 -5.82652e-23)
(0.243061 0.00404238 5.55025e-23)
(0.149895 0.00179724 -2.47741e-22)
(0.151419 0.00157392 -1.03322e-22)
(0.154507 0.00151084 2.08176e-22)
(0.153209 0.00174496 -2.08982e-23)
(0.08997 0.000549494 -2.34215e-24)
(0.0906453 0.000483171 -2.25375e-22)
(0.0904746 0.000317264 -5.98536e-22)
(0.0910097 0.000466916 -3.00547e-22)
(0.02792 -0.000183898 -4.2446e-22)
(0.0272258 -0.000455399 -8.29652e-22)
(0.015584 0.00123238 4.33087e-22)
(1.00084 -0.0131062 -4.80857e-20)
(0.998877 -0.041699 -2.3219e-20)
(1.00053 -0.076121 0)
(1.01332 -0.116951 -1.83442e-20)
(1.04368 -0.160397 -2.22787e-21)
(1.09802 -0.194937 0)
(1.16822 -0.208618 -6.54761e-22)
(1.25456 -0.195409 -1.0181e-20)
(1.32254 -0.138913 -1.44808e-20)
(1.35725 -0.0733416 0)
(1.36954 -0.0186697 -1.18454e-20)
(1.37202 0.0226919 1.25235e-20)
(1.37122 0.0532751 1.23345e-20)
(1.36976 0.0755249 0)
(1.36876 0.091303 -2.57244e-23)
(1.36877 0.102151 0)
(1.37011 0.109365 -1.3565e-20)
(1.37288 0.113964 6.60389e-24)
(1.37656 0.116637 1.32458e-20)
(1.37806 0.117387 -4.21138e-23)
(1.36682 0.114784 1.24305e-20)
(1.32049 0.105937 0)
(1.21157 0.0888455 -3.05873e-24)
(1.02725 0.0652023 0)
(0.782967 0.0405233 0)
(0.515185 0.0192892 -4.79313e-21)
(0.34176 0.0058245 0)
(0.345743 0.00763197 9.99738e-22)
(0.22838 0.00349826 0)
(0.233155 0.00369678 -1.15551e-22)
(0.143266 0.00167805 1.01793e-22)
(0.144745 0.00146062 2.24446e-22)
(0.148002 0.00147179 -8.19302e-23)
(0.146536 0.00168918 -8.19717e-23)
(0.0861238 0.000567709 7.41729e-23)
(0.0871521 0.000522626 -7.43764e-23)
(0.0890435 0.00048663 -1.47069e-22)
(0.0881665 0.000546461 0)
(0.0284885 3.45008e-05 1.73159e-24)
(0.0287534 2.11428e-05 -5.70131e-23)
(0.0288538 -1.63881e-05 -5.15792e-24)
(0.0289416 2.16007e-05 -1.72934e-24)
(1.00055 -0.0119791 2.45696e-20)
(0.996305 -0.0394361 2.59834e-20)
(0.993091 -0.0752332 9.26369e-23)
(0.999518 -0.121793 0)
(1.02502 -0.177165 3.49695e-20)
(1.08127 -0.227435 5.58059e-23)
(1.1635 -0.259433 -2.67727e-21)
(1.2781 -0.255013 6.61787e-21)
(1.3635 -0.182168 7.43632e-21)
(1.39903 -0.0998711 1.17135e-23)
(1.40479 -0.0351344 2.42913e-20)
(1.39971 0.0118769 -1.21962e-20)
(1.39214 0.0459657 2.46048e-23)
(1.38478 0.0706192 2.55306e-23)
(1.37856 0.0881518 0)
(1.37394 0.100331 -2.69714e-23)
(1.37121 0.108567 0)
(1.3705 0.113961 0)
(1.37171 0.117333 -1.33231e-20)
(1.37399 0.119149 6.44936e-21)
(1.3734 0.119108 -6.23336e-21)
(1.35818 0.115543 -6.09798e-21)
(1.30568 0.105718 0)
(1.19049 0.0879639 7.20875e-26)
(1.00284 0.0642047 0)
(0.75985 0.0396071 3.88797e-21)
(0.271237 0.00416717 0)
(0.496845 0.0191572 0)
(0.219252 0.000475715 -6.52672e-23)
(0.22589 0.00281851 5.71977e-23)
(0.137141 0.00127707 0)
(0.138513 0.00120069 0)
(0.141494 0.00133046 6.08267e-23)
(0.140158 0.0015172 2.62254e-22)
(0.0821472 0.000523835 -1.0956e-22)
(0.0831167 0.000484046 -7.3253e-23)
(0.0850444 0.000476657 -7.37042e-23)
(0.0841145 0.000524773 7.3485e-23)
(0.0271739 3.68111e-05 1.70586e-23)
(0.0275325 2.9867e-05 -3.4198e-24)
(0.0281836 2.00741e-05 0)
(0.0278905 3.58473e-05 0)
(1.00021 -0.0102191 0)
(0.993637 -0.0350538 1.30046e-21)
(0.984704 -0.0703127 4.98247e-23)
(0.981938 -0.120881 1.97161e-22)
(0.997542 -0.188857 -1.89381e-20)
(1.05296 -0.26133 -1.54357e-20)
(1.15168 -0.324507 6.94278e-21)
(1.30893 -0.332965 3.08663e-23)
(1.418 -0.233623 1.25263e-23)
(1.4536 -0.128319 -2.75076e-20)
(1.45032 -0.0511803 -1.24168e-20)
(1.43544 0.00218324 2.50165e-23)
(1.41938 0.0399428 -1.42211e-20)
(1.40496 0.0669061 0)
(1.39282 0.0860005 2.73902e-23)
(1.38313 0.0992953 2.72733e-23)
(1.37595 0.10836 2.69546e-23)
(1.37132 0.114375 0)
(1.3692 0.118225 1.35956e-20)
(1.36934 0.120533 0)
(1.3705 0.12154 1.27161e-20)
(1.36789 0.1207 6.09061e-21)
(1.34865 0.116222 0)
(1.2902 0.105465 5.91091e-21)
(1.16921 0.0870793 3.01012e-24)
(0.978812 0.0631921 0)
(0.737648 0.0389532 0)
(0.258551 0.00503353 0)
(0.0984049 0.000932684 6.61497e-23)
(0.0995203 0.000122986 -6.60478e-23)
(0.48029 0.01877 -4.51797e-24)
(0.10301 0.000712723 0)
(0.135502 0.000487029 0)
(0.134761 -0.000357105 0)
(0.0787989 0.000281934 0)
(0.0795026 0.000369778 -1.80708e-23)
(0.0811565 0.000426635 -7.25268e-23)
(0.0803347 0.000457167 -5.42501e-23)
(0.0258621 3.31395e-05 2.69328e-23)
(0.0261934 2.72307e-05 0)
(0.0268342 2.0562e-05 -1.36477e-23)
(0.0265343 3.38469e-05 0)
(0.99984 -0.00789899 0)
(0.99118 -0.0286312 -2.7358e-20)
(0.976266 -0.0610003 -2.90288e-20)
(0.961962 -0.112358 2.90973e-20)
(0.961522 -0.190626 -1.88498e-22)
(1.00733 -0.290996 -5.24858e-21)
(1.12344 -0.407095 -1.15048e-20)
(1.3368 -0.431984 0)
(1.4748 -0.290751 -3.32994e-23)
(1.51198 -0.156032 5.88806e-20)
(1.50177 -0.0656413 -2.92636e-23)
(1.47844 -0.00584625 0)
(1.45369 0.0355277 2.88145e-20)
(1.43117 0.0646449 -1.47619e-20)
(1.41208 0.0850647 0)
(1.39661 0.0992387 -1.44253e-20)
(1.38455 0.108917 -2.72972e-23)
(1.37564 0.115372 0)
(1.36974 0.119534 1.77426e-22)
(1.36669 0.122087 1.33863e-20)
(1.36609 0.123468 -2.57277e-20)
(1.36628 0.123726 -2.98284e-24)
(1.36162 0.122136 -6.5117e-26)
(1.33839 0.116786 -5.76858e-21)
(1.27423 0.105141 0)
(1.14795 0.0861903 -5.9792e-21)
(0.955545 0.0622964 -3.14471e-24)
(0.717002 0.038281 7.5548e-21)
(0.24797 0.00514832 1.78468e-22)
(0.0943333 0.00101573 -6.45244e-23)
(0.0958538 0.000182836 -3.24445e-23)
(0.0224786 0.000155966 1.21653e-23)
(0.0225407 -7.27774e-06 1.75004e-24)
(0.0227603 8.04106e-05 -2.82654e-23)
(0.0229432 -0.000162249 2.83637e-23)
(0.465843 0.0182896 -4.64016e-21)
(0.0234492 0.000283241 0)
(0.0235523 2.35402e-06 0)
(0.0776648 -0.00102611 0)
(0.078942 -0.000228507 3.56823e-23)
(0.0247828 2.17983e-05 -3.32572e-24)
(0.0250252 1.65308e-05 3.31964e-24)
(0.0255564 1.75306e-05 0)
(0.025298 2.80441e-05 0)
(0.999474 -0.00515417 -5.47683e-23)
(0.989228 -0.0205188 0)
(0.968955 -0.0475996 2.94585e-20)
(0.942465 -0.0951834 -2.97274e-20)
(0.920711 -0.176992 -3.16818e-20)
(0.93846 -0.303659 2.08843e-20)
(1.05171 -0.494141 7.31036e-21)
(1.32114 -0.542721 -3.07023e-24)
(1.48612 -0.340815 3.65912e-20)
(1.53191 -0.173711 8.03083e-21)
(1.53116 -0.0740061 -6.54343e-23)
(1.51436 -0.0101627 3.00002e-23)
(1.48974 0.0336059 -1.45777e-20)
(1.46238 0.0642708 -9.77297e-22)
(1.43668 0.0856145 0)
(1.41484 0.100358 -5.20061e-22)
(1.39728 0.110405 0)
(1.38367 0.117101 0)
(1.37364 0.121412 -2.73997e-20)
(1.36693 0.124048 -1.32868e-20)
(1.3633 0.125514 2.60968e-20)
(1.36218 0.126094 -6.05047e-24)
(1.36147 0.125686 2.96632e-24)
(1.35475 0.123396 -5.64617e-24)
(1.32753 0.117207 0)
(1.25793 0.104731 -2.15542e-23)
(1.12697 0.0852997 0)
(0.93341 0.0613963 -6.42668e-21)
(0.698314 0.0375953 -7.46574e-21)
(0.238693 0.00502923 5.94751e-21)
(0.0899573 0.00107089 -3.18018e-23)
(0.0916616 0.000300403 -2.22708e-22)
(0.0215764 0.00014807 1.37637e-23)
(0.0217147 9.96118e-06 2.75183e-23)
(0.0220046 5.11586e-05 2.76606e-23)
(0.0221304 -0.000130762 -1.39323e-23)
(0.454683 0.0178663 -9.13018e-21)
(0.0243868 -0.000326053 1.6531e-24)
(0.0249206 -9.09497e-05 -2.80439e-23)
(0.999136 -0.00215704 2.77668e-20)
(0.987979 -0.0112677 1.77422e-22)
(0.963779 -0.0310746 2.63647e-22)
(0.926779 -0.0700596 -3.48039e-20)
(0.880206 -0.145145 7.14975e-20)
(0.849122 -0.286266 -7.05795e-22)
(0.899461 -0.546401 5.33342e-21)
(1.18057 -0.631223 -1.54976e-21)
(1.35102 -0.350039 -2.49183e-20)
(1.41863 -0.163771 -9.48404e-20)
(1.46738 -0.0667982 0)
(1.49819 -0.00625545 1.37462e-22)
(1.50323 0.0363934 0)
(1.48808 0.0667623 -1.04812e-21)
(1.46331 0.0881289 5.8562e-23)
(1.43735 0.102927 1.4422e-20)
(1.41441 0.113007 0)
(1.39571 0.119704 -2.72687e-23)
(1.38118 0.123983 2.75899e-20)
(1.37046 0.126556 1.36122e-20)
(1.36327 0.127944 -2.6281e-20)
(1.3593 0.128509 1.27498e-20)
(1.35779 0.128412 1.1891e-23)
(1.35621 0.127415 1.17155e-20)
(1.34738 0.124462 2.77821e-24)
(1.3162 0.117471 5.46997e-21)
(1.24146 0.104234 0)
(1.10653 0.0843786 0)
(0.912684 0.0605062 3.82109e-24)
(0.682113 0.0370823 0)
(0.23231 0.00458752 1.23272e-20)
(0.0858761 0.00107716 -3.12758e-23)
(0.0873013 0.00029723 -4.85535e-22)
(0.0204927 0.00015805 0)
(0.0206549 1.58552e-05 2.70397e-23)
(0.0209939 6.02048e-05 0)
(0.021165 -0.000114168 -1.35642e-23)
(0.449437 0.0186632 -8.88933e-21)
(0.998839 0.000913015 -5.52952e-20)
(0.987497 -0.00151398 -2.99108e-20)
(0.961253 -0.0128065 3.22279e-20)
(0.917266 -0.0396021 -1.64989e-21)
(0.8497 -0.0975037 -8.28463e-20)
(0.761657 -0.228233 3.98301e-22)
(0.783307 -0.461202 7.15099e-22)
(0.699438 -0.432773 0)
(0.963973 -0.74718 2.81699e-21)
(0.770753 -0.694149 1.56747e-22)
(0.694548 -0.611054 -1.01254e-20)
(1.17024 -0.395007 -6.5812e-23)
(0.809381 -0.498359 3.40618e-23)
(0.825756 -0.263667 0)
(1.03876 -0.0993515 9.90651e-20)
(0.901659 -0.166792 -3.50786e-20)
(1.20345 -0.0312148 5.51441e-20)
(1.3501 0.011188 0)
(1.43963 0.04681 3.81515e-20)
(1.47636 0.0736754 1.6228e-20)
(1.47659 0.0934051 0)
(1.45833 0.107391 -5.92056e-23)
(1.43443 0.116986 -2.82274e-23)
(1.41167 0.123352 2.74868e-23)
(1.39255 0.127375 -1.36915e-20)
(1.37754 0.129721 -1.3464e-20)
(1.36646 0.130895 1.30907e-20)
(1.35902 0.131272 -1.27909e-20)
(1.35487 0.1311 -1.23873e-20)
(1.35305 0.130437 -1.17882e-20)
(1.3506 0.128912 -5.53044e-24)
(1.33959 0.125329 -2.62937e-24)
(1.3045 0.117582 -5.34964e-21)
(1.225 0.10365 0)
(1.0868 0.0834434 5.64144e-21)
(0.893555 0.0597421 -3.00964e-24)
(0.668796 0.0372061 0)
(0.240226 0.00545335 1.03111e-20)
(0.0844107 0.00107266 6.06357e-23)
(0.0838326 8.77974e-05 -2.09427e-21)
(0.0194126 0.000162512 0)
(0.0195464 1.75249e-05 2.65528e-23)
(0.0198862 6.60924e-05 -3.34418e-24)
(0.0200632 -0.000118094 -1.00433e-23)
(0.444119 0.0184772 -8.69334e-24)
(0.99859 0.00389647 2.74937e-20)
(0.987718 0.00814105 2.98271e-20)
(0.961338 0.00573596 -3.27988e-20)
(0.914626 -0.00726391 7.60995e-20)
(0.835792 -0.041794 4.52496e-20)
(0.70853 -0.132452 5.60686e-20)
(0.622205 -0.371537 7.27719e-23)
(0.558565 -0.296663 2.21476e-20)
(0.561281 -0.556548 0)
(0.657656 -0.685362 0)
(0.460463 -0.47433 0)
(0.382104 -0.325474 7.93141e-21)
(0.599077 -0.478352 -5.86539e-21)
(0.551735 -0.636059 -2.8816e-21)
(0.612028 -0.280791 -5.57112e-23)
(0.237154 -0.120833 -5.68341e-21)
(0.209271 -0.139497 0)
(0.196864 -0.0520154 -4.86737e-21)
(0.313059 -0.0780528 0)
(0.659657 -0.167333 0)
(0.605906 -0.0139945 -2.59749e-20)
(0.674709 0.0333771 -5.46508e-20)
(0.370347 0.0178332 -3.9739e-20)
(0.461349 -0.0515685 -4.70944e-22)
(0.997269 0.0437626 5.72e-20)
(1.22858 0.06477 -4.31691e-20)
(1.37136 0.0853788 1.4768e-22)
(1.44028 0.101903 3.46486e-20)
(1.45856 0.114177 1.60132e-20)
(1.44918 0.122678 0)
(1.42892 0.128277 6.33307e-25)
(1.40727 0.13174 -1.41175e-20)
(1.38828 0.133654 -2.68475e-23)
(1.37313 0.134467 0)
(1.3619 0.134528 -1.29507e-20)
(1.35438 0.134095 1.24359e-20)
(1.35015 0.133326 -1.20055e-20)
(1.34807 0.132186 0)
(1.34471 0.130181 7.20975e-26)
(1.33146 0.126001 5.28952e-21)
(1.29254 0.117542 0)
(1.20868 0.102982 0)
(1.06787 0.0825404 0)
(0.875951 0.0592064 3.04469e-24)
(0.655968 0.0365781 -7.16435e-21)
(0.245109 0.00615122 2.59043e-21)
(0.111657 0.000633152 0)
(0.0953216 0.000702206 -1.96086e-21)
(0.0199747 0.000118785 0)
(0.0188547 -0.000145052 -6.67373e-24)
(0.0189866 7.72852e-06 1.11703e-22)
(0.0190058 -0.000144502 0)
(0.433962 0.018228 0)
(0.998386 0.00667071 0)
(0.988486 0.0172132 2.84154e-23)
(0.963545 0.023302 -1.34319e-22)
(0.918157 0.0236627 -7.65816e-20)
(0.83866 0.0137241 0)
(0.701293 -0.0249933 -6.14649e-20)
(0.515291 -0.201819 -2.41636e-20)
(0.490104 -0.102084 4.27357e-22)
(0.425088 -0.466166 -2.14902e-20)
(0.31847 -0.353163 2.21403e-20)
(0.279119 -0.473918 3.58924e-21)
(0.435138 -0.585936 -1.06532e-21)
(0.346071 -0.372586 0)
(0.18741 -0.214544 -1.76152e-22)
(0.179329 -0.0101668 1.07246e-20)
(0.317676 0.0143422 0)
(0.231739 0.0240251 -1.45986e-20)
(0.234519 0.0473648 1.99476e-20)
(0.481718 0.0737707 -8.0664e-20)
(0.193227 0.0282346 -4.96391e-20)
(0.158934 0.022531 -1.47397e-23)
(0.117547 0.00989992 0)
(0.845943 0.0817033 8.44187e-24)
(1.12164 0.0972872 0)
(1.30316 0.111552 -3.74767e-20)
(1.40039 0.122581 -1.65214e-20)
(1.43669 0.130017 0)
(1.43718 0.134637 -5.64574e-23)
(1.42154 0.137258 -2.68353e-22)
(1.40168 0.138491 -5.33477e-23)
(1.38324 0.138761 0)
(1.36821 0.138372 2.58548e-20)
(1.357 0.137552 1.25815e-20)
(1.34949 0.136475 1.20735e-20)
(1.34525 0.135224 -1.1479e-23)
(1.34293 0.133677 5.34612e-24)
(1.3386 0.131232 1.06791e-20)
(1.32305 0.126483 0)
(1.28041 0.117353 0)
(1.19257 0.102249 0)
(1.04969 0.0816725 0)
(0.858914 0.0582593 6.06029e-21)
(0.641183 0.0358007 0)
(0.238999 0.00634714 -3.15276e-22)
(0.114386 0.00205885 -6.37668e-23)
(0.115149 0.00117985 -3.86606e-21)
(0.0533568 0.000135897 1.91223e-23)
(0.0494005 0.000718287 -3.32688e-23)
(0.0326214 0.00247439 3.30225e-21)
(0.02242 -0.000329548 -1.84642e-21)