/*--------------------------------*- C++ -*----------------------------------*\
| =========                 |                                                 |
| \\      /  F ield         | OpenFOAM: The Open Source CFD Toolbox           |
|  \\    /   O peration     | Version:  v1912                                 |
|   \\  /    A nd           | Website:  www.openfoam.com                      |
|    \\/     M anipulation  |                                                 |
\*---------------------------------------------------------------------------*/
FoamFile
{
    version     2.0;
    format      ascii;
    class       volScalarField;
    location    "120";
    object      p;
}
// * * * * * * * * * * * * * * * * * * * * * * * * * * * * * * * * * * * * * //

dimensions      [0 2 -2 0 0 0 0];


internalField   nonuniform List<scalar> 
3675
(
0.0036346
0.00389985
0.0034124
0.00367135
0.00321354
0.00392663
0.00346282
0.00302292
0.00415057
0.00371089
0.00326668
0.00284464
0.00435085
0.00393196
0.00350697
0.00308222
0.00267976
0.00451658
0.00413276
0.00372213
0.00332157
0.0029131
0.00251976
0.00463612
0.00429901
0.00392139
0.00353532
0.00314486
0.00274772
0.00237087
0.00469465
0.00441985
0.00409038
0.00372763
0.0033498
0.00297269
0.002594
0.00223095
0.00468507
0.00448415
0.00421674
0.00389381
0.00354104
0.00317644
0.00281629
0.00245089
0.00209606
0.00460915
0.00448652
0.00429409
0.00402636
0.00370654
0.0033642
0.00301559
0.00266692
0.00230949
0.00197326
0.00447674
0.00441933
0.00431589
0.00411326
0.00383436
0.0035245
0.00319687
0.00286117
0.00252408
0.00218285
0.00185495
0.00430811
0.00428342
0.00427907
0.00415245
0.00392224
0.00365057
0.0033528
0.00304008
0.0027159
0.00239112
0.00206044
0.00174473
0.00415629
0.00406981
0.00418877
0.00414998
0.00396637
0.00373184
0.0034716
0.00318862
0.00288698
0.00257444
0.0022658
0.00194523
0.00163522
0.00409421
0.00378342
0.00404255
0.00411226
0.00396584
0.00376465
0.00354664
0.00330149
0.00303377
0.002745
0.00244977
0.00214597
0.0018346
0.00153743
0.00413632
0.00352237
0.00385558
0.0038026
0.0040563
0.00392632
0.00375077
0.00357272
0.00337156
0.00314611
0.00288802
0.00261282
0.00232141
0.00203039
0.00173257
0.00144501
0.0041714
0.00402334
0.00371346
0.00348493
0.00321959
0.00387571
0.00397798
0.00385365
0.0036879
0.00354756
0.00339253
0.00321086
0.00299092
0.00274647
0.0024807
0.00220465
0.00192431
0.00163482
0.00136028
0.00410488
0.00398101
0.00384043
0.00376498
0.00321119
0.00382449
0.00363148
0.00315807
0.00370321
0.00386386
0.00375903
0.00358062
0.00347596
0.00336395
0.00322643
0.00305137
0.00284666
0.00261371
0.00236106
0.00209438
0.00182449
0.00154721
0.0012813
0.00396819
0.00410342
0.00390405
0.00380323
0.00380322
0.00360151
0.00276209
0.00364205
0.0036045
0.00356484
0.00360095
0.00297693
0.00366931
0.00368055
0.00376547
0.00344303
0.00336494
0.0032917
0.00319316
0.00306425
0.00290328
0.00271061
0.00248821
0.00224461
0.00199172
0.0017318
0.00146426
0.00120885
0.00393423
0.00403743
0.00384218
0.00377398
0.00368937
0.0036947
0.00212544
0.00325429
0.00360108
0.00337173
0.00328871
0.0033374
0.00340475
0.00362622
0.0035605
0.00438647
0.00388386
0.00362215
0.00370786
0.00322025
0.00318101
0.00311671
0.00302905
0.00291134
0.00276287
0.00257874
0.00236862
0.00213813
0.00188928
0.00164575
0.00138831
0.00114421
0.00390691
0.00398701
0.00357686
0.00359432
0.00081155
0.00469397
0.00343716
0.00342406
0.00327271
0.00316255
0.00306572
0.00311534
0.00320597
0.00329022
0.00328529
0.0035561
0.00387312
0.00411864
0.00354057
0.00304026
0.00300458
0.00294931
0.00287166
0.00276819
0.00262723
0.00245404
0.00225259
0.00202976
0.00180389
0.00156578
0.00132007
0.00108461
-0.00169657
0.00338585
0.0033272
0.00320457
0.00319292
0.00309168
0.0029727
0.00288402
0.00291164
0.00301093
0.00311969
0.00313692
0.00322871
0.00326441
0.00286559
0.00283339
0.00279222
0.0027282
0.00263035
0.00249878
0.00233398
0.00214256
0.00193963
0.00171761
0.00149248
0.00125663
0.00103377
0.00316951
0.00314877
0.00304234
0.0030115
0.00289697
0.00279109
0.0027081
0.00272761
0.00281524
0.00292336
0.00295752
0.00306805
0.00311443
0.00269711
0.00268111
0.00264782
0.0025893
0.00249901
0.00237431
0.00221918
0.00204413
0.00184826
0.00164271
0.00142897
0.00120363
0.000985139
0.00300656
0.00297384
0.00285318
0.002814
0.00271343
0.00261529
0.00254306
0.00255157
0.00263418
0.00272715
0.00276679
0.00287396
0.00293229
0.00254607
0.0025339
0.0025068
0.00245662
0.00237123
0.00225357
0.00211114
0.00194757
0.00176878
0.00157249
0.00136985
0.00115318
0.000949493
0.00281499
0.00277683
0.00266572
0.00262547
0.00253491
0.00245336
0.00239234
0.00238523
0.00246087
0.00254453
0.00258296
0.00267855
0.00273748
0.0023954
0.00239502
0.00237529
0.0023251
0.00224628
0.00213793
0.00200634
0.00185819
0.00168995
0.00150897
0.00131683
0.00111015
0.000916389
0.00262429
0.00259045
0.00248742
0.00244872
0.0023699
0.0022987
0.00224365
0.00223514
0.0022993
0.00237213
0.00240981
0.00249599
0.00254897
0.00225884
0.00226327
0.00224455
0.00220289
0.00212625
0.00202567
0.00190878
0.00177565
0.00162611
0.00145503
0.00127048
0.00107751
0.000893522
0.00244526
0.00241394
0.00232175
0.00228259
0.00221403
0.00215074
0.00210726
0.00208913
0.00214798
0.00221087
0.0022509
0.00232429
0.00237529
0.00212475
0.00213404
0.00212338
0.00207659
0.00200503
0.0019186
0.00182045
0.00170474
0.00156546
0.00140594
0.00123376
0.00104961
0.000866944
0.00227826
0.00224844
0.00216479
0.00212735
0.00206776
0.0020136
0.00197344
0.00195261
0.00200386
0.0020617
0.00209736
0.00216082
0.00221809
0.00200058
0.00201149
0.00199421
0.00195098
0.00188756
0.00181746
0.0017397
0.00164044
0.00151381
0.00136204
0.00120007
0.00101773
0.000853318
0.00212386
0.00209158
0.00201558
0.00198783
0.00192986
0.00188277
0.00184877
0.00182098
0.00186882
0.00192031
0.00195167
0.00201275
0.00206454
0.00187719
0.0018887
0.0018735
0.00182489
0.00177352
0.00172613
0.00166984
0.00158464
0.00146395
0.00132475
0.00116881
0.00100397
0.000844512
0.00197685
0.00195155
0.00187694
0.00185025
0.00179938
0.00175923
0.00172764
0.00169527
0.00173971
0.00178757
0.00181665
0.00187687
0.00191411
0.0017614
0.0017713
0.00173948
0.00169653
0.00166791
0.00164959
0.00161006
0.00153201
0.00142368
0.00128889
0.00115158
0.00099002
0.000842751
0.00183706
0.00181425
0.00174479
0.0017216
0.00167519
0.00164402
0.00161394
0.0015712
0.00161744
0.00166048
0.00168871
0.00174502
0.00177956
0.00164484
0.00163947
0.00160085
0.00157255
0.00157904
0.0015888
0.00155707
0.00148306
0.00138246
0.00126598
0.00112951
0.000987293
0.000848572
0.00170484
0.00168613
0.00162171
0.00159672
0.00155656
0.00153054
0.0014982
0.00145326
0.00149729
0.00154043
0.00156889
0.00161804
0.00165219
0.00152593
0.00150269
0.0014555
0.00146479
0.00151727
0.00153607
0.00150351
0.0014373
0.00134723
0.00123899
0.00112346
0.000986896
0.00085854
0.00158305
0.0015605
0.0015019
0.00148242
0.00144452
0.00141888
0.00139013
0.00133869
0.00138014
0.00142294
0.00144761
0.00149893
0.00153345
0.00140161
0.00133728
0.00131717
0.00139892
0.00147144
0.00148446
0.00145111
0.0013915
0.00131518
0.00122309
0.00111826
0.000995189
0.00088153
0.0014611
0.00145656
0.00138735
0.0013697
0.00133308
0.00130927
0.00127782
0.0012213
0.00126691
0.00130895
0.00133507
0.00138141
0.00140685
0.00124352
0.00116303
0.00123509
0.00136621
0.00143078
0.00142451
0.00139235
0.00134937
0.00128928
0.00121492
0.00112381
0.00101307
0.000913581
0.00134667
0.00134367
0.00127958
0.00125515
0.00122124
0.00120106
0.0011564
0.00109963
0.00115573
0.00119544
0.00122717
0.00126904
0.00129542
0.00105
0.00102517
0.00122526
0.001352
0.00136745
0.00135295
0.00133664
0.00130917
0.00127093
0.00121075
0.0011368
0.00103999
0.000956555
0.0012412
0.00122762
0.00116835
0.0011454
0.00110912
0.00109784
0.00101159
0.000969021
0.00103476
0.00108322
0.00111675
0.00115606
0.00119023
0.000792166
0.00103793
0.00126182
0.00129163
0.00128089
0.00128102
0.00128191
0.00127808
0.00125702
0.00121785
0.00115444
0.00108005
0.001011
0.00112947
0.00112079
0.00105894
0.00103147
0.00099927
0.000989682
0.000658741
0.000836336
0.000916694
0.000963813
0.00100483
0.00104648
0.00107974
0.000755528
0.00117383
0.00120603
0.00118417
0.00119079
0.0012109
0.00123395
0.00124825
0.00124903
0.00122426
0.0011956
0.00112891
0.00107833
0.00101964
0.00100775
0.000949494
0.000910094
0.000883805
0.000833969
0.00039529
0.000468788
0.000816537
0.000835774
0.000888927
0.000931204
0.000970237
0.00109059
0.00112426
0.00107378
0.00107655
0.00110457
0.00114407
0.00118705
0.00122462
0.00124711
0.0012562
0.00123165
0.00119279
0.00115965
0.000904636
0.000892179
0.000827119
0.000773848
0.000860443
0.000105894
0.000974307
0.00052741
0.000745
0.00069044
0.000776161
0.000805421
0.000851452
0.00104642
0.00094783
0.000945722
0.000974474
0.00101975
0.00107976
0.00114619
0.00120938
0.0012599
0.00128226
0.00129511
0.00126464
0.00124894
0.000784967
0.000751783
0.000758695
0.000670373
-0.000507377
0.00085581
0.000922078
0.000816197
0.000428196
0.00093201
0.000865046
0.00065559
0.000718891
0.000815393
0.0008045
0.000833078
0.00087696
0.000939151
0.00101738
0.00110756
0.001199
0.00127489
0.0013344
0.00135276
0.00135341
0.00136507
0.000660393
0.000611753
0.00130213
-0.00136072
0.000873247
0.000668379
0.000685198
0.000675279
0.000679827
0.000839231
0.00147039
0.000797283
0.000670213
0.00066018
0.000692578
0.000729036
0.00078071
0.000855241
0.000957035
0.00107487
0.00119628
0.00130467
0.00138444
0.00144086
0.00146064
0.00149467
0.00101496
-0.00358486
0.000720633
0.000669811
0.000580428
0.00056605
0.00053393
0.000553312
0.00056518
0.000566864
0.000539408
0.000554753
0.000584593
0.000619598
0.000680516
0.000774854
0.000900619
0.00104885
0.00120282
0.00134521
0.00145432
0.00153936
0.00158278
0.00163987
0.000528982
0.000537381
0.000516698
0.000460926
0.000427071
0.000436216
0.000474005
0.000518107
0.00051482
0.000448793
0.000470114
0.000510656
0.000583783
0.000694822
0.000845638
0.00102647
0.00121697
0.00139022
0.0015426
0.00165066
0.00172358
0.00181069
0.000489876
0.000474809
0.000412565
0.000355372
0.000318973
0.000323914
0.000362212
0.000429691
0.000437974
0.000335295
0.000355699
0.000399786
0.000481679
0.000612842
0.000794092
0.00101124
0.00123862
0.00145694
0.00163909
0.00178569
0.00189013
0.00200026
0.000391665
0.00036575
0.000304414
0.000251715
0.000211508
0.000211665
0.000252239
0.00030853
0.000329426
0.000217872
0.000237653
0.000285225
0.00037736
0.000532392
0.000747404
0.00100218
0.00127419
0.00153872
0.00175647
0.0019444
0.00206921
0.00220831
0.000278559
0.000253996
0.000195392
0.000146028
9.63935e-05
0.000101551
0.000145675
0.000199626
0.000219244
0.000102258
0.000118179
0.000165204
0.000272433
0.000454056
0.000703313
0.00100416
0.0013267
0.00162652
0.00189752
0.00210625
0.00228351
0.00244116
0.000169044
0.000144361
9.13668e-05
3.48642e-05
-1.67345e-05
-1.0632e-05
3.7352e-05
8.85283e-05
0.000116428
-1.93831e-05
-1.30801e-05
3.78039e-05
0.000165045
0.000374905
0.00066632
0.00101356
0.00137892
0.00173279
0.00204359
0.00231454
0.00252301
0.00273823
6.23355e-05
3.81135e-05
-1.75962e-05
-7.48479e-05
-0.000134661
-0.000126378
-7.33102e-05
-1.57468e-05
7.8923e-06
-0.000152143
-0.000153414
-9.40215e-05
5.45548e-05
0.000300127
0.0006333
0.00102964
0.00144948
0.00186114
0.00222562
0.00254925
0.0028155
0.00306518
-3.90578e-05
-6.8167e-05
-0.000128339
-0.00018778
-0.000260396
-0.00023921
-0.000185162
-0.000125594
-9.97146e-05
-0.000296328
-0.000301157
-0.00022554
-5.20356e-05
0.000228008
0.000606463
0.0010573
0.00154162
0.00200115
0.00244017
0.00279688
0.00332519
0.00127186
-0.000153907
-0.000179384
-0.000240019
-0.000301457
-0.000400347
-0.000358577
-0.000294938
-0.00023495
-0.000210765
-0.00045792
-0.000457185
-0.000357088
-0.000159204
0.000155554
0.000584164
0.00109582
0.00163531
0.00218155
0.00262635
0.00337368
0.00148518
-0.000263875
-0.000289654
-0.000352753
-0.000423247
-0.000564619
-0.000486987
-0.000408838
-0.000343805
-0.00032037
-0.000636328
-0.000600077
-0.000491872
-0.000273187
8.3881e-05
0.000570002
0.00114065
0.0017636
0.00230594
0.00315663
0.0015444
-0.000377316
-0.000404535
-0.000462134
-0.000567874
-0.00074039
-0.000728903
-0.000512092
-0.000462958
-0.000432713
-0.000786153
-0.00074497
-0.000634464
-0.000387793
1.79821e-05
0.000559667
0.00121051
0.00182813
0.0027532
0.00139849
-0.000491431
-0.000522118
-0.000529139
-0.0010581
-0.000911947
-0.00078671
-0.000526567
-0.000583907
-0.000550808
-0.000922207
-0.000905901
-0.000786461
-0.000502349
-4.77623e-05
0.000568996
0.00122424
0.00218336
0.00112683
-0.000615071
-0.000653129
-0.00335377
-0.00175756
-0.000884931
-0.00104136
-0.000989657
-0.00119887
-0.00105081
-0.000746689
0.00177936
-0.000697807
-0.00108887
-0.00108543
-0.000943351
-0.000618338
-9.97947e-05
0.00053478
0.00147236
0.000772328
-0.000589421
-0.00101734
-0.00100097
-0.00105482
-0.00120168
-0.00113007
-0.00102462
-0.001031
-0.000998829
-0.00102261
-0.000304526
-0.00128215
-0.00127355
-0.00110135
-0.000727701
-0.000175885
0.000668024
0.00036538
-0.000905875
-0.00102587
-0.00103548
-0.00106302
-0.00109141
-0.00120713
-0.00139342
-0.00129842
-0.0011337
-0.00116432
-0.00104282
-0.00105679
-0.00107814
-0.00107855
-0.00149035
-0.00146757
-0.00126086
-0.000839632
-0.000159003
-5.45745e-05
-0.00106229
-0.00106211
-0.00107973
-0.00110962
-0.00120889
-0.00124694
-0.00138507
-0.00160766
-0.00148799
-0.00129229
-0.0013399
-0.00114315
-0.00118065
-0.00105791
-0.00107145
-0.00170867
-0.00166872
-0.0014026
-0.000935162
-0.000454515
-0.00108808
-0.00112201
-0.00122247
-0.0012607
-0.00137674
-0.00142926
-0.00158282
-0.00183814
-0.00169986
-0.00147478
-0.00152858
-0.00130862
-0.00135021
-0.00114891
-0.00119013
-0.00194564
-0.00183928
-0.00160061
-0.000803337
-0.00123017
-0.00127113
-0.00138946
-0.00144138
-0.00156834
-0.00162589
-0.00180072
-0.00210154
-0.00192997
-0.0016789
-0.00173304
-0.00148769
-0.0015355
-0.00131531
-0.00135792
-0.00215677
-0.0021245
-0.0010812
-0.00139864
-0.00144658
-0.00158227
-0.00163194
-0.0017806
-0.00184293
-0.00204824
-0.00236818
-0.00220035
-0.00190273
-0.00195928
-0.00168684
-0.00173748
-0.00149437
-0.00154041
-0.00252036
-0.00128587
-0.00158709
-0.00163337
-0.00179174
-0.00184676
-0.00201818
-0.00208399
-0.00231535
-0.00285375
-0.00246454
-0.00215522
-0.00222097
-0.00190289
-0.00196165
-0.00169432
-0.00173997
-0.00142789
-0.00179337
-0.00184702
-0.00202219
-0.00208439
-0.00228398
-0.00235755
-0.00266
-0.00165357
-0.00297766
-0.00242212
-0.00249538
-0.00215
-0.00221448
-0.001905
-0.00195661
-0.00201751
-0.00207991
-0.00228224
-0.00235012
-0.00257688
-0.00267855
-0.0031688
-0.00157867
-0.00281605
-0.00293909
-0.00241711
-0.00249061
-0.00214472
-0.00220695
-0.00227162
-0.00233633
-0.00257733
-0.00267607
-0.0030678
-0.00333071
-0.00329013
-0.00135615
-0.00279053
-0.00290372
-0.00240326
-0.00247071
-0.00255202
-0.0026491
-0.00302952
-0.00334051
-0.00361413
-0.00132388
-0.00275749
-0.00287951
-0.00300689
-0.00331314
-0.00391463
-0.0016276
-0.0203153
-0.0195933
-0.0203641
-0.0197428
-0.0192492
-0.0202335
-0.0205898
-0.0193622
-0.0188565
-0.0200749
-0.0210518
-0.0193262
-0.0210356
-0.0189565
-0.0184327
-0.0217825
-0.020412
-0.0183776
-0.0218957
-0.0184934
-0.0214812
-0.0185509
-0.0180233
-0.0235062
-0.0221368
-0.0207443
-0.0187379
-0.0166942
-0.0176559
-0.0227812
-0.0219373
-0.0181355
-0.0176269
-0.025242
-0.0238975
-0.0236679
-0.0224697
-0.0210444
-0.019065
-0.0170668
-0.0150516
-0.0160035
-0.0168281
-0.0173066
-0.0177286
-0.022412
-0.0228686
-0.0172036
-0.0269031
-0.0256727
-0.0245521
-0.0254469
-0.0242357
-0.023289
-0.0237177
-0.0227681
-0.021302
-0.01936
-0.0173994
-0.0154185
-0.0134375
-0.0143718
-0.0151884
-0.0156548
-0.0160727
-0.016476
-0.0168872
-0.0167659
-0.0274778
-0.0263256
-0.0272648
-0.0283593
-0.0281388
-0.0260226
-0.0241765
-0.0246346
-0.0250614
-0.0254995
-0.0245293
-0.023026
-0.0215106
-0.0196138
-0.0176945
-0.0157521
-0.0138006
-0.0118437
-0.0127609
-0.0135677
-0.0140237
-0.0144359
-0.0148348
-0.0152405
-0.0155478
-0.0159662
-0.01636
-0.0293256
-0.0278461
-0.0259589
-0.0264269
-0.0281728
-0.026882
-0.0273458
-0.029252
-0.0293502
-0.026318
-0.0247869
-0.0232367
-0.0216581
-0.0198168
-0.0179464
-0.0160474
-0.014133
-0.0122074
-0.0102685
-0.0111692
-0.0119668
-0.0124142
-0.0128212
-0.0132151
-0.0136156
-0.013916
-0.0143284
-0.0147173
-0.0151174
-0.0312011
-0.0296939
-0.02814
-0.0278142
-0.0282889
-0.0286589
-0.0288748
-0.0293256
-0.0301796
-0.0303595
-0.026581
-0.0249978
-0.0233899
-0.0217323
-0.0199572
-0.0181455
-0.0162981
-0.0144242
-0.0125389
-0.010636
-0.00870971
-0.00959281
-0.0103829
-0.0108235
-0.0112259
-0.0116159
-0.0120111
-0.0123061
-0.0127135
-0.0130977
-0.0134927
-0.033117
-0.0315549
-0.0313483
-0.0299917
-0.0284064
-0.028704
-0.029199
-0.0297994
-0.031142
-0.0302738
-0.0267984
-0.0251518
-0.0234706
-0.0217249
-0.0200248
-0.0182825
-0.0164946
-0.0146703
-0.0128267
-0.0109676
-0.00908344
-0.00717268
-0.00802662
-0.00881138
-0.00924676
-0.0096456
-0.0100325
-0.0104241
-0.0107145
-0.0111175
-0.0114988
-0.0118882
-0.0350825
-0.0334768
-0.0323176
-0.0332965
-0.0318752
-0.0302655
-0.0286269
-0.0291201
-0.029683
-0.0312279
-0.0321076
-0.0307465
-0.030161
-0.0269549
-0.0252386
-0.0234652
-0.0216293
-0.0200151
-0.0183455
-0.0166244
-0.0148583
-0.0130633
-0.0112487
-0.00941224
-0.00754505
-0.00565467
-0.00646668
-0.00724648
-0.00767764
-0.00807429
-0.00845987
-0.00884896
-0.00913574
-0.00953574
-0.00991451
-0.0103009
-0.0370608
-0.0354347
-0.0342784
-0.0352705
-0.0338035
-0.0330812
-0.0321589
-0.030493
-0.0287912
-0.0295739
-0.0317174
-0.0311212
-0.032206
-0.0306378
-0.0300393
-0.027043
-0.0252381
-0.0233703
-0.0214452
-0.0199158
-0.0183264
-0.0166829
-0.0149814
-0.0132397
-0.0114718
-0.00968284
-0.00786598
-0.00600535
-0.00415627
-0.00495588
-0.00568822
-0.00610692
-0.00650392
-0.00689049
-0.0072786
-0.00756305
-0.0079616
-0.0083397
-0.00872429
-0.0390998
-0.037416
-0.0362547
-0.0372588
-0.035762
-0.0340586
-0.0350532
-0.0340889
-0.0331719
-0.0326831
-0.0323927
-0.0306631
-0.0288804
-0.0316083
-0.0309967
-0.0320961
-0.03052
-0.0270426
-0.0251437
-0.0231824
-0.0211794
-0.0197333
-0.0182258
-0.0166609
-0.0150328
-0.0133523
-0.0116342
-0.00988946
-0.00812208
-0.00631382
-0.00447706
-0.00266392
-0.00346823
-0.00419759
-0.00457679
-0.00492689
-0.00530493
-0.00569553
-0.00598207
-0.00638548
-0.00676581
-0.00715209
-0.041183
-0.0394592
-0.0382724
-0.0393142
-0.0377499
-0.0360559
-0.0370743
-0.0360512
-0.0336656
-0.0341581
-0.0351349
-0.0346405
-0.0343269
-0.0330662
-0.0325781
-0.0325645
-0.0307554
-0.0288846
-0.031488
-0.031971
-0.0269479
-0.0249528
-0.0229088
-0.0208439
-0.0194762
-0.0180491
-0.0165621
-0.0150084
-0.0133913
-0.0117267
-0.010029
-0.00830596
-0.00655134
-0.0047568
-0.00293927
-0.00117741
-0.00204679
-0.00271498
-0.00308543
-0.00344288
-0.00381255
-0.00422077
-0.00435322
-0.00474523
-0.00514816
-0.00555608
-0.0432907
-0.0415547
-0.0403454
-0.0414061
-0.0397922
-0.0380807
-0.0390934
-0.0380449
-0.0356343
-0.0361354
-0.0371764
-0.0366215
-0.0362913
-0.033557
-0.0340477
-0.0350208
-0.0345312
-0.0345023
-0.0329429
-0.032461
-0.0326617
-0.0307596
-0.0287877
-0.0267532
-0.0246701
-0.0225612
-0.0204556
-0.0191559
-0.0178029
-0.016391
-0.0149121
-0.0133629
-0.011753
-0.0101011
-0.0084175
-0.00670703
-0.00495757
-0.00315465
-0.00131428
-0.000152911
-0.000762202
-0.00134495
-0.00170052
-0.00202492
-0.00236369
-0.00270158
-0.00293397
-0.0032844
-0.003628
-0.00420179
-0.0454422
-0.0436772
-0.0424517
-0.0435284
-0.0418871
-0.0401262
-0.0411778
-0.040087
-0.037648
-0.0381441
-0.0391738
-0.0386488
-0.0382906
-0.0355086
-0.0359931
-0.0371755
-0.0364653
-0.0364713
-0.033439
-0.0339249
-0.0348997
-0.0344171
-0.0346023
-0.0326681
-0.0306619
-0.0285887
-0.0264643
-0.0243104
-0.0221563
-0.0200283
-0.0187863
-0.017498
-0.016156
-0.0147488
-0.0132684
-0.0117172
-0.010113
-0.00846526
-0.00678663
-0.00506894
-0.00329723
-0.00139351
-0.000206551
6.14038e-05
-0.000236055
-0.000533686
-0.000784195
-0.00106522
-0.00135273
-0.00155775
-0.00189082
-0.00222203
-0.0025659
-0.00278811
-0.00313399
-0.00347252
-0.00417616
-0.0476412
-0.0458374
-0.0445964
-0.0456889
-0.0440193
-0.0422349
-0.0433046
-0.0421795
-0.039705
-0.0402323
-0.0412715
-0.0407449
-0.0403338
-0.0374518
-0.037966
-0.0390376
-0.0385035
-0.038474
-0.035389
-0.0358563
-0.0370839
-0.0363041
-0.0365736
-0.0346093
-0.03257
-0.0304593
-0.0282922
-0.0260936
-0.0238909
-0.0217101
-0.0195779
-0.0183803
-0.0171488
-0.0158688
-0.0145292
-0.013116
-0.0116254
-0.0100683
-0.00845468
-0.00680415
-0.00510333
-0.00335966
-0.00141956
-0.000233392
0.000116035
7.29242e-05
-9.735e-05
-0.00029849
-0.000428385
-0.000670851
-0.000934239
-0.00122575
-0.00140177
-0.00173641
-0.00207695
-0.00242174
-0.0498963
-0.0480434
-0.0467811
-0.0478911
-0.0461868
-0.0443801
-0.0454671
-0.0443161
-0.0418071
-0.042341
-0.0433967
-0.0428614
-0.0424251
-0.0395769
-0.0401019
-0.0411423
-0.0406207
-0.0405217
-0.0385838
-0.0365849
-0.034512
-0.0323636
-0.0301566
-0.027911
-0.02566
-0.0234275
-0.0212396
-0.0191243
-0.0179522
-0.0167662
-0.015542
-0.0142633
-0.0129133
-0.0114833
-0.00997797
-0.00840218
-0.00677347
-0.0050817
-0.00335664
-0.00139341
-0.000246319
0.000120658
0.00010111
-3.7345e-05
-0.000214245
-0.000291399
-0.000523383
-0.000785638
-0.00107321
-0.0521941
-0.0502972
-0.0490094
-0.0501392
-0.048399
-0.0465621
-0.0476671
-0.0464916
-0.0439423
-0.0444869
-0.0455617
-0.0450161
-0.0445663
-0.0416797
-0.0422094
-0.0432652
-0.0427363
-0.0426152
-0.040633
-0.0385966
-0.0364892
-0.0343043
-0.0320542
-0.0297667
-0.0274657
-0.0251814
-0.0229382
-0.0207656
-0.0186882
-0.0175208
-0.0163627
-0.0151854
-0.0139625
-0.0126734
-0.0113069
-0.00985397
-0.00832011
-0.00671752
-0.00503368
-0.00331699
-0.00133065
-0.000246805
0.000130305
0.000155906
5.64997e-05
-9.21955e-05
-0.0544895
-0.0525775
-0.0512811
-0.0524378
-0.0506536
-0.0487821
-0.0499054
-0.0487087
-0.0461179
-0.0466725
-0.0477667
-0.0472112
-0.0467469
-0.0438133
-0.0443537
-0.0454284
-0.0448891
-0.0447571
-0.0427297
-0.0406519
-0.0385031
-0.0362807
-0.0339918
-0.031657
-0.0293096
-0.026973
-0.0246757
-0.0224451
-0.0203096
-0.0182988
-0.0171056
-0.0159567
-0.0148101
-0.0136346
-0.0124034
-0.0110977
-0.00970548
-0.0082203
-0.0066482
-0.00497763
-0.00326923
-0.00126053
-0.000243106
-0.056887
-0.0548829
-0.0535728
-0.0547458
-0.052934
-0.0510387
-0.0521993
-0.0509652
-0.0483347
-0.0489
-0.0500143
-0.0494489
-0.048969
-0.0459879
-0.0465382
-0.0476334
-0.0470838
-0.0469418
-0.0448716
-0.0427497
-0.0405614
-0.0382957
-0.0359647
-0.0335873
-0.0311909
-0.0288044
-0.0264522
-0.0241662
-0.0219712
-0.0199024
-0.0179876
-0.0167367
-0.0155659
-0.0144317
-0.0132898
-0.0121093
-0.0108631
-0.00953181
-0.00810162
-0.00657472
-0.00493009
-0.00323249
-0.00120803
-0.000251752
-0.0593102
-0.0572804
-0.0559432
-0.0571562
-0.0552497
-0.0533674
-0.0545508
-0.0532512
-0.0505912
-0.0511634
-0.0522953
-0.0517227
-0.0512271
-0.0482046
-0.0487655
-0.0498825
-0.0493226
-0.0491669
-0.0470581
-0.0448926
-0.042659
-0.0403527
-0.0379782
-0.0355561
-0.0331138
-0.0306758
-0.0282706
-0.0259272
-0.0236752
-0.021548
-0.0195753
-0.0177777
-0.0164415
-0.015217
-0.0140656
-0.0129411
-0.0117994
-0.0106082
-0.00933962
-0.00797379
-0.00650127
-0.00489754
-0.00322939
-0.00120483
-0.000290544
-0.0617764
-0.0597224
-0.0583572
-0.0595939
-0.0576419
-0.0557094
-0.0569001
-0.0555755
-0.0528667
-0.0534388
-0.0545544
-0.0541367
-0.0535174
-0.0504635
-0.0510329
-0.0521584
-0.0515961
-0.0514259
-0.0492859
-0.0470782
-0.0448035
-0.0424514
-0.0400334
-0.0375649
-0.0350745
-0.0325877
-0.0301295
-0.0277314
-0.0254207
-0.0232365
-0.0212078
-0.019354
-0.0176806
-0.0162427
-0.0149381
-0.0137387
-0.0126033
-0.0114828
-0.0103381
-0.00912912
-0.00782942
-0.00642345
-0.00487687
-0.00325237
-0.00126228
-0.000367691
-0.0643051
-0.0622014
-0.0608167
-0.0620704
-0.0600868
-0.0581208
-0.0593463
-0.057964
-0.0551713
-0.0557951
-0.0570078
-0.0563942
-0.0558478
-0.0527172
-0.0532345
-0.0539914
-0.0537234
-0.0515473
-0.0493086
-0.0469882
-0.0445941
-0.0421302
-0.0396166
-0.0370787
-0.0345421
-0.0320321
-0.0295783
-0.027211
-0.0249668
-0.0228833
-0.0209762
-0.0192517
-0.0176928
-0.016153
-0.0147514
-0.0134765
-0.0122977
-0.0111745
-0.0100598
-0.00890357
-0.00767024
-0.0063358
-0.00486028
-0.00329945
-0.00137257
-0.00047536
-0.0668874
-0.0647337
-0.063323
-0.0646166
-0.0625782
-0.0605792
-0.0618081
-0.0604071
-0.0576391
-0.0582541
-0.0594533
-0.0588432
-0.0582389
-0.0560594
-0.0538499
-0.0515749
-0.0492195
-0.0467802
-0.0442714
-0.0417114
-0.0391258
-0.0365389
-0.0339768
-0.0314687
-0.0290452
-0.0267444
-0.0246012
-0.0226426
-0.020868
-0.0192639
-0.0177969
-0.0161673
-0.0146671
-0.0132986
-0.0120496
-0.0108926
-0.00978328
-0.00866738
-0.0074953
-0.00623545
-0.00483896
-0.00335655
-0.00151688
-0.000605861
-0.0695489
-0.0673286
-0.065897
-0.067195
-0.0651192
-0.0629845
-0.0639077
-0.0646717
-0.0629056
-0.0600909
-0.0607144
-0.0619348
-0.0613132
-0.0606828
-0.0584532
-0.0561965
-0.053881
-0.0514882
-0.0490109
-0.0464579
-0.0438507
-0.041217
-0.0385805
-0.0359662
-0.033405
-0.0309242
-0.0285664
-0.0263676
-0.0243526
-0.02253
-0.02088
-0.0193715
-0.0179633
-0.0162681
-0.0146822
-0.0132179
-0.0118796
-0.0106613
-0.00952741
-0.00842689
-0.00730701
-0.00611857
-0.00480274
-0.0034068
-0.00166514
-0.000747135
-0.0721993
-0.0699705
-0.0685107
-0.0698513
-0.0677158
-0.0653609
-0.0660408
-0.0666804
-0.0673312
-0.0654558
-0.0625732
-0.0639106
-0.0632462
-0.0645538
-0.0631857
-0.0609022
-0.0585941
-0.0562345
-0.0538021
-0.0512828
-0.0486876
-0.0460355
-0.043354
-0.0406679
-0.0380018
-0.0353848
-0.0328487
-0.0304321
-0.0281769
-0.0261081
-0.0242348
-0.0225413
-0.0209932
-0.0195463
-0.0181609
-0.0164284
-0.0147803
-0.0132317
-0.0118002
-0.0104989
-0.00931257
-0.00820192
-0.00711062
-0.00598412
-0.00474796
-0.00344375
-0.00179777
-0.000896548
-0.0749603
-0.0726212
-0.071171
-0.0725095
-0.070353
-0.0679989
-0.0686686
-0.0693233
-0.0699825
-0.0680562
-0.0652414
-0.065916
-0.0665465
-0.0671943
-0.0657421
-0.0638861
-0.0644492
-0.0634075
-0.0610475
-0.0586399
-0.0561614
-0.0536031
-0.0509635
-0.048266
-0.045537
-0.0428016
-0.0400836
-0.0374129
-0.0348187
-0.0323451
-0.0300315
-0.0279082
-0.025983
-0.0242434
-0.0226549
-0.0211735
-0.0197561
-0.0183629
-0.0166147
-0.0149356
-0.0133249
-0.0118098
-0.0104191
-0.00915768
-0.00800734
-0.00691926
-0.00583733
-0.00467176
-0.00346228
-0.00190122
-0.00106058
-0.077786
-0.0753862
-0.0738892
-0.0752984
-0.0730216
-0.0706513
-0.0713208
-0.0719606
-0.0726515
-0.0706947
-0.0678814
-0.0685509
-0.0691839
-0.0698375
-0.068346
-0.0651122
-0.065772
-0.0664164
-0.0670529
-0.0659685
-0.0635576
-0.0610973
-0.0585728
-0.0559676
-0.053287
-0.0505446
-0.0477684
-0.0449831
-0.0422137
-0.0394885
-0.0368384
-0.0343047
-0.0319326
-0.0297521
-0.0277764
-0.0259896
-0.0243585
-0.0228394
-0.0213888
-0.0199712
-0.0185584
-0.0168035
-0.0151195
-0.0134742
-0.0118967
-0.0104235
-0.00907696
-0.007862
-0.00674678
-0.00568579
-0.0045806
-0.00346011
-0.00197218
-0.00124546
-0.0806495
-0.0782336
-0.0766994
-0.0781407
-0.0757824
-0.0733472
-0.074042
-0.07472
-0.0754301
-0.0733783
-0.0705243
-0.0711959
-0.0718295
-0.0726051
-0.070989
-0.0677426
-0.0684055
-0.0690545
-0.0696951
-0.0685762
-0.0661195
-0.0636107
-0.061037
-0.0583855
-0.0556579
-0.0528704
-0.0500481
-0.0472141
-0.0443928
-0.0416138
-0.0389061
-0.0363137
-0.0338812
-0.031643
-0.0296128
-0.0277773
-0.0261032
-0.0245442
-0.0230573
-0.0216038
-0.0201631
-0.0190636
-0.016986
-0.0182509
-0.015306
-0.0136516
-0.0120376
-0.0105017
-0.00907459
-0.00778015
-0.00661197
-0.00554154
-0.00447781
-0.00343594
-0.0020176
-0.00144973
-0.0835905
-0.0811167
-0.0795649
-0.08103
-0.0786281
-0.0761557
-0.0768866
-0.0775753
-0.0782841
-0.076137
-0.073217
-0.073876
-0.0745481
-0.0752482
-0.0736804
-0.0703808
-0.0710253
-0.071629
-0.0723435
-0.0712238
-0.06873
-0.0661789
-0.0635543
-0.060856
-0.0580816
-0.0552474
-0.0523773
-0.0494951
-0.0466226
-0.0437891
-0.0410244
-0.0383731
-0.0358797
-0.0335819
-0.0314948
-0.0296099
-0.0278894
-0.0262897
-0.0247639
-0.0232726
-0.0217897
-0.0206794
-0.019854
-0.019116
-0.0174686
-0.0154813
-0.0166889
-0.0183362
-0.0138325
-0.0122093
-0.0106357
-0.00914422
-0.00776891
-0.00652991
-0.00542038
-0.00437237
-0.00338839
-0.00204525
-0.0016551
-0.0866272
-0.0840716
-0.0824906
-0.0839806
-0.0815255
-0.0790156
-0.0797563
-0.0804587
-0.0811799
-0.0789754
-0.0760254
-0.0767545
-0.0774186
-0.0781078
-0.0764427
-0.0739262
-0.0713864
-0.0687942
-0.0661274
-0.063379
-0.0605572
-0.057676
-0.0547586
-0.051827
-0.048904
-0.0460167
-0.0431946
-0.0404818
-0.0379282
-0.0355693
-0.0334274
-0.0314874
-0.0297211
-0.0280778
-0.026512
-0.0249825
-0.023461
-0.0223269
-0.0214847
-0.02073
-0.019912
-0.0193482
-0.0189373
-0.0175501
-0.0159457
-0.0139931
-0.0151969
-0.0167551
-0.0181711
-0.0185451
-0.0123847
-0.0108011
-0.00926861
-0.00782516
-0.00650841
-0.00533621
-0.00427411
-0.00332073
-0.00206452
-0.00182459
-0.0897205
-0.0871057
-0.085486
-0.0870057
-0.084491
-0.0819315
-0.0826875
-0.0834036
-0.084139
-0.0818823
-0.0788864
-0.0796246
-0.0802997
-0.0810007
-0.0792786
-0.076692
-0.074098
-0.07146
-0.0687493
-0.0659575
-0.0630883
-0.0601582
-0.0571928
-0.0542123
-0.0512378
-0.0482973
-0.045418
-0.0426458
-0.0400282
-0.0376084
-0.0354047
-0.0334143
-0.0315969
-0.0299102
-0.0283032
-0.026735
-0.0251766
-0.0240137
-0.0231543
-0.0223857
-0.0215503
-0.0209801
-0.0205688
-0.0197588
-0.0201687
-0.0193639
-0.0189396
-0.0178115
-0.0173346
-0.0159937
-0.0144569
-0.0125412
-0.0137269
-0.0152434
-0.0165899
-0.0169727
-0.0181052
-0.0185082
-0.0109726
-0.0094273
-0.00793715
-0.0065485
-0.00529995
-0.00419532
-0.00324074
-0.00207826
-0.00191798
-0.092758
-0.0901646
-0.0885412
-0.0901083
-0.0875222
-0.0849141
-0.0856874
-0.086422
-0.0871709
-0.0848539
-0.0818001
-0.0825553
-0.0832434
-0.0839581
-0.0821894
-0.0795321
-0.0768715
-0.0741794
-0.0714261
-0.0685875
-0.0656723
-0.0626958
-0.0596815
-0.0566515
-0.0536265
-0.0506316
-0.0476958
-0.0448619
-0.0421832
-0.0396993
-0.0374371
-0.0353877
-0.0335222
-0.0317887
-0.0301396
-0.0285308
-0.0269348
-0.0257417
-0.0248633
-0.0240766
-0.0232234
-0.022636
-0.0222164
-0.0213939
-0.0218096
-0.0210032
-0.0205951
-0.0197827
-0.0201904
-0.0179592