/*--------------------------------*- C++ -*----------------------------------*\
| =========                 |                                                 |
| \\      /  F ield         | OpenFOAM: The Open Source CFD Toolbox           |
|  \\    /   O peration     | Version:  v1912                                 |
|   \\  /    A nd           | Website:  www.openfoam.com                      |
|    \\/     M anipulation  |                                                 |
\*---------------------------------------------------------------------------*/
FoamFile
{
    version     2.0;
    format      ascii;
    class       surfaceScalarField;
    location    "330";
    object      phi;
}
// * * * * * * * * * * * * * * * * * * * * * * * * * * * * * * * * * * * * * //

dimensions      [0 3 -1 0 0 0 0];
oriented        oriented;


internalField   nonuniform List<scalar> 
7196
(
0.0051061
0.0049009
0.00622949
0.00888461
0.00245874
0.00244216
0.00618561
0.0100509
0.00447006
0.00687329
0.000925832
0.00151633
0.00596149
0.0102331
0.00522283
0.0092981
0.00258409
0.00521503
0.000294182
0.00122215
0.00577344
0.0101971
0.00526995
0.010186
0.00373727
0.00814492
0.00128589
0.00422332
7.77854e-05
0.00114436
0.00562886
0.0101556
0.00510805
0.010359
0.00419196
0.0097313
0.00232827
0.00710254
0.000564128
0.00373698
3.86915e-07
0.00114397
0.00550415
0.0101357
0.00494064
0.010323
0.00423002
0.0103209
0.00296392
0.00909565
0.00128198
0.00638469
0.000193726
0.00354364
-2.92781e-05
0.00117325
0.00538865
0.0101275
0.00480785
0.0102685
0.0041222
0.0104308
0.00318622
0.0100986
0.00186533
0.00851231
0.000599009
0.0059794
1.26085e-05
0.00350175
-3.84221e-05
0.00121167
0.00528025
0.0101204
0.00470641
0.0102289
0.00400025
0.0103905
0.00317477
0.0104422
0.00215463
0.0098093
0.00101444
0.00809687
0.000191592
0.00580042
-6.81111e-05
0.00353144
-3.64424e-05
0.00124811
0.00517602
0.0101142
0.00462597
0.0102008
0.00390161
0.0103276
0.00308036
0.0104849
0.00220018
0.0103967
0.00126148
0.00956226
0.000427305
0.00786116
-2.433e-05
0.00575664
-9.26206e-05
0.00358762
-2.98553e-05
0.00127797
0.00507849
0.0101055
0.00456632
0.0101739
0.00383316
0.0102693
0.00297811
0.0104298
0.00211831
0.0105667
0.00130759
0.0103506
0.000581706
0.00940786
7.17383e-05
0.00776509
-0.000119508
0.00578352
-9.08487e-05
0.00364861
-2.32776e-05
0.00130125
0.00498886
0.0100936
0.00452927
0.0101426
0.00379654
0.0102105
0.00289788
0.0103495
0.00199314
0.010555
0.00121068
0.0106636
0.000587166
0.0103451
0.000132748
0.00934685
-0.000110535
0.00775612
-0.000147095
0.00583977
-7.85394e-05
0.00370388
-1.70549e-05
0.0013183
0.00490573
0.0100821
0.00451422
0.0101087
0.00379383
0.0101453
0.0028504
0.010258
0.00186688
0.0104758
0.00103719
0.0107285
0.000452726
0.0107981
8.80627e-05
0.0103898
-0.000116417
0.00935273
-0.000185949
0.00779497
-0.000144299
0.00590553
-6.37353e-05
0.00375056
-1.13724e-05
0.00132967
0.00482895
0.0100698
0.00452362
0.0100727
0.00383366
0.0100689
0.00284754
0.0101481
0.00176002
0.0103648
0.000828936
0.010684
0.000219902
0.0109613
-7.53869e-05
0.0109615
-0.000191499
0.0104649
-0.000231424
0.00939821
-0.000205776
0.00785645
-0.000127657
0.00596945
-4.87539e-05
0.00378794
-7.09021e-06
0.00133677
0.00475652
0.0100574
0.00455701
0.0100364
0.00392041
0.00998598
0.00290119
0.0100152
0.00169058
0.0102176
0.000610349
0.0105834
-8.2233e-05
0.0109862
-0.000343002
0.0112289
-0.000361637
0.0111317
-0.000324917
0.0105584
-0.000274976
0.00946741
-0.000198103
0.0079269
-0.000106838
0.00602754
-3.51584e-05
0.00381601
-3.45808e-06
0.00134022
0.00468559
0.0100499
0.00460925
0.0100052
0.00405992
0.00989687
0.0030313
0.00985587
0.00168352
0.0100223
0.000399044
0.0104289
-0.000441143
0.0109423
-0.000698461
0.0113416
-0.000619119
0.0114864
-0.000487613
0.0112944
-0.000380505
0.0106639
-0.000280893
0.0095502
-0.000177859
0.00799792
-8.44127e-05
0.00607679
-2.41915e-05
0.00383674
-1.28161e-06
0.00134151
0.00461261
0.010046
0.00467584
0.00998335
0.0042503
0.00981481
0.00325318
0.00967499
0.00177027
0.00976912
0.000214655
0.0102067
-0.000858837
0.0108466
-0.00114216
0.011386
-0.000951817
0.0116743
-0.000720511
0.0117193
-0.000540135
0.011454
-0.000392398
0.0107754
-0.000264188
0.00963653
-0.000152113
0.00806562
-6.57444e-05
0.00611834
-1.54057e-05
0.00385087
6.92597e-07
0.00134081
0.00453385
0.0100498
0.00474316
0.00997866
0.00448282
0.00975083
0.00358391
0.00948408
0.00199479
0.00945047
9.48544e-05
0.00988892
-0.00134059
0.0106884
-0.0016887
0.0113931
-0.00135617
0.0117904
-0.00100903
0.0119629
-0.000751945
0.0119311
-0.00054761
0.0116092
-0.000378615
0.0108898
-0.000238685
0.0097231
-0.000127116
0.00812699
-4.91759e-05
0.00615211
-8.65106e-06
0.00386021
1.85759e-06
0.00133896
0.00444491
0.0100609
0.00479932
0.00999361
0.0047393
0.00972218
0.00402449
0.00931025
0.00241355
0.00906532
0.000103916
0.00944141
-0.0018943
0.0104426
-0.00237134
0.0113711
-0.00183249
0.0118694
-0.00134126
0.0121226
-0.0010083
0.0122192
-0.000747572
0.0121311
-0.000529488
0.0117601
-0.000350834
0.011002
-0.000210663
0.00980665
-0.000105094
0.00818291
-3.64539e-05
0.00617992
-4.26276e-06
0.00386633
2.49739e-06
0.00133646
0.00434243
0.0100785
0.00483014
0.0100301
0.00498877
0.00974413
0.00454888
0.00919778
0.00308254
0.00864126
0.000362977
0.00880626
-0.00250959
0.0100567
-0.00322734
0.0112986
-0.00238429
0.0119229
-0.0017111
0.0122393
-0.00129214
0.0124065
-0.000978129
0.0124498
-0.000717203
0.0123188
-0.000497521
0.0119068
-0.000321724
0.011113
-0.000184678
0.00988623
-8.67738e-05
0.00823323
-2.64931e-05
0.00620215
-2.9208e-07
0.00386912
3.23597e-06
0.00133322
0.00422453
0.0101009
0.00482084
0.0100878
0.00520056
0.00981832
0.00510289
0.00919013
0.00399454
0.00828577
0.00111955
0.0078847
-0.00308775
0.00938442
-0.00426007
0.0110894
-0.00297946
0.0118938
-0.00208814
0.0122999
-0.00158005
0.0125272
-0.00122364
0.012652
-0.00093018
0.0126628
-0.000676478
0.0124977
-0.00046321
0.0120482
-0.000290864
0.0112192
-0.000160386
0.00995985
-7.06284e-05
0.00827737
-1.82803e-05
0.00622014
2.14702e-06
0.00387021
3.49843e-06
0.00132973
0.00409286
0.0101227
0.00476447
0.0101573
0.00534088
0.00994746
0.00561634
0.00930487
0.00504423
0.00814044
0.00267475
0.00673056
-0.00321956
0.00801651
-0.00532689
0.0104512
-0.00344229
0.0115523
-0.00237713
0.0121828
-0.00181819
0.012538
-0.00144797
0.0127515
-0.00114667
0.0128685
-0.000877938
0.0128642
-0.000634671
0.0126692
-0.000427249
0.0121846
-0.000261231
0.0113201
-0.00013984
0.0100291
-5.75019e-05
0.00831659
-1.25774e-05
0.00623486
3.40965e-06
0.0038703
3.61393e-06
0.00132611
0.00394825
0.0101416
0.00466112
0.010226
0.00538502
0.0101131
0.00600792
0.00955588
0.00611159
0.00823752
0.00459948
0.00317897
0.00303674
-0.000223787
0.00288477
-0.00142816
0.00227818
-0.00325545
0.00449488
-0.00236305
0.00381326
-0.00190033
0.0103034
-0.00139415
-0.00234053
0.0115157
-0.00187791
0.0122425
-0.00157862
0.0126687
-0.00132497
0.0129298
-0.00107401
0.0130645
-0.00082379
0.0130533
-0.00059093
0.0128329
-0.000392895
0.0123163
-0.0002362
0.0114164
-0.000122451
0.010094
-4.80726e-05
0.00835208
-8.37754e-06
0.00624665
4.76298e-06
0.00386915
3.37053e-06
0.00132274
0.00379502
0.0101552
0.00451865
0.0102841
0.005333
0.010278
0.00621294
0.00990813
0.00698559
0.00868188
0.00679197
0.00299354
0.00305149
0.000583974
0.00237121
0.00153438
0.00208634
-0.00322739
0.0028567
-0.000712737
0.000874007
0.000781783
-0.00127924
-0.00113534
0.00057117
0.000894204
-0.00175761
0.00435216
-0.000994269
0.00127888
0.000887602
-0.000678568
-0.000647577
0.00322957
-0.00052634
-0.000921645
0.00957241
-0.000687869
-0.000998027
0.00395603
-0.00155547
0.0111932
-0.00148688
0.0121508
-0.001388
0.0127317
-0.00122524
0.013081
-0.00100526
0.013246
-0.000766523
0.0132289
-0.000546038
0.012986
-0.000359246
0.0124393
-0.000214214
0.0115082
-0.000107533
0.0101535
-4.05602e-05
0.00838427
-6.10019e-06
0.00625751
4.75635e-06
0.00386776
3.40933e-06
0.00131933
0.00363643
0.0101636
0.00434524
0.0103286
0.00519841
0.0104187
0.00622857
0.0102624
0.00746194
0.00943178
0.00864298
0.00327389
0.00355698
0.00260565
0.00192227
0.00356193
0.00105824
0.00103697
0.000438367
0.000399445
0.000535787
-0.00109752
0.000692288
-0.000865872
0.000550132
-0.000939285
0.000496235
0.0010674
-0.000496235
0.000967339
-0.000492201
0.00112351
0.000684172
-0.000288771
0.000288771
-0.000171985
0.00266903
-0.000265509
-0.000323673
0.00092084
0.00356691
-0.000532524
-0.000428221
0.00877537
-0.000330214
0.0032305
-0.00035145
-0.00105982
0.0107662
-0.00122972
0.0119925
-0.00125507
0.0127616
-0.00113576
0.0132115
-0.000929935
0.0134094
-0.000706968
0.0133899
-0.000501957
0.0131287
-0.000328525
0.0125537
-0.000193761
0.0115944
-9.65196e-05
0.0102094
-3.56128e-05
0.00841378
-4.20386e-06
0.00626647
4.87745e-06
0.0038663
2.97178e-06
0.00131636
0.00347443
0.010169
0.00414949
0.0103593
0.00500308
0.010524
0.0060958
0.0105514
0.00755643
0.0101679
0.00955558
0.00407616
0.00444302
0.00463511
0.00220071
0.00544368
0.00274841
0.0010403
0.000270411
0.000251665
0.000798254
-0.00142481
0.00176381
0.000719239
0.000652462
0.000719238
-0.000319793
0.000389153
-0.000389153
0.000360499
-0.00077166
0.000653587
-5.39114e-05
0.00227537
-8.13393e-05
-5.75242e-05
-0.000116329
0.0030161
-0.000213822
-0.000215429
0.00811636
-0.000185378
0.00284223
-0.000156345
0.00200546
-3.80266e-05
-4.35098e-05
-0.000810171
0.0103466
-0.00109006
0.0118274
-0.00116009
0.0127859
-0.00103825
0.0133198
-0.000849288
0.0135517
-0.000647993
0.0135359
-0.000460517
0.0132607
-0.000302995
0.0126629
-0.000178402
0.0116763
-8.90895e-05
0.0102629
-3.16842e-05
0.00844126
-3.82568e-06
0.00627518
4.56304e-06
0.00386471
2.83494e-06
0.00131353
0.00330955
0.0101729
0.00393716
0.0103813
0.00476407
0.0105983
0.00585716
0.0107626
0.00737365
0.0107342
0.00967945
0.0100441
0.00605217
0.00346767
0.00646981
0.00402538
0.00493746
-0.00161612
0.000303465
0.000339708
0.00627423
0.000879107
0.000532538
-4.93824e-05
0.000202283
0.00118149
0.000269226
0.000284609
0.000244169
0.000591663
-1.94156e-05
0.000190258
0.000547282
-1.31426e-05
0.00184168
-2.68445e-05
-2.3197e-05
0.00272591
-9.91111e-05
-0.000138073
0.007589
-0.000144741
0.00262071
-8.01817e-05
0.00172272
-1.80513e-05
-1.93322e-05
-0.000512691
0.000484132
-9.46712e-06
-8.91877e-06
-0.000723803
0.00998037
-0.00102937
0.0116967
-0.00104539
0.012793
-0.000930882
0.0134014
-0.000766338
0.0136701
-0.000591
0.0136664
-0.000425744
0.0133835
-0.000282103
0.0127666
-0.000166667
0.0117539
-8.29486e-05
0.0103142
-3.0058e-05
0.00846749
-3.7669e-06
0.00628351
3.91264e-06
0.00386363
2.28901e-06
0.00131124
0.00314196
0.0101756
0.00371475
0.0103953
0.00449565
0.0106498
0.00554691
0.0109086
0.00702218
0.0111141
0.00926567
0.011148
-0.00757506
0.0140542
0.00469459
0.00534012
0.00708464
0.0012665
0.00139076
0.00189465
0.0016403
0.00105958
-0.000756118
0.00139929
-0.00193183
0.00281094
0.000471509
0.000170842
0.0001577
0.000462979
-5.69148e-06
0.000445056
-5.27469e-06
0.00164586
-1.17091e-05
-1.05447e-05
0.00254257
-5.99288e-05
-0.000121596
0.00714478
-0.000157986
0.00245742
-5.95947e-05
0.0015834
-8.77891e-06
-8.94353e-06
-0.00042987
0.00041636
-4.54124e-06
-4.14613e-06
-0.000148781
0.000139314
-0.000749447
0.00970045
-0.000934042
0.0115854
-0.000914866
0.012777
-0.000819066
0.0134542
-0.000686145
0.0137652
-0.000540261
0.0137809
-0.000396046
0.0134974
-0.000265703
0.0128656
-0.000157889
0.0118288
-7.90181e-05
0.0103631
-2.86109e-05
0.00849234
-3.99667e-06
0.00629142
3.12208e-06
0.0038628
2.11841e-06
0.00130912
0.00297453
0.0101754
0.00348654
0.0104038
0.00420685
0.0106841
0.0051926
0.0110041
0.00657745
0.0113533
0.00861487
0.0117649
0.0128474
0.0123548
0.00877795
-0.00417283
-0.00337391
0.00195876
0.00150462
0.00883539
0.00528268
0.00300152
0.00107591
0.0034487
0.000943573
-0.00391433
0.00163616
0.00117467
0.000133623
0.000128348
0.00040713
-2.47875e-06
0.000398859
-2.27423e-06
0.001536
-6.10223e-06
-6.4261e-06
0.00239033
-5.45003e-05
-0.000162775
0.00680086
-0.00024275
0.00229921
-6.68633e-05
0.0014887
-6.51925e-06
-5.77829e-06
-0.000391759
0.00038502
-2.03984e-06
-1.84281e-06
-0.000124202
0.00011966
-0.000747421
0.00951383
-0.000786115
0.0114566
-0.000770376
0.0127283
-0.00071395
0.013482
-0.000619018
0.013844
-0.00050116
0.013886
-0.000374755
0.0136065
-0.000254251
0.012962
-0.000152238
0.0119021
-7.57425e-05
0.0104103
-2.79416e-05
0.00851628
-4.48877e-06
0.00629903
2.53562e-06
0.00386238
1.77229e-06
0.00130735
0.00280689
0.0101766
0.00325365
0.0104083
0.00390706
0.0107036
0.00481382
0.0110629
0.00608107
0.0115004
0.00790332
0.0120649
0.0112455
0.0133668
-0.00682663
0.0159773
0.0054668
0.00657273
-0.00319416
0.00145641
-0.00296102
0.00312913
0.00179065
-0.00145641
-0.00179065
0.00182576
0.00155007
0.00107591
0.00201949
0.000117182
0.000114908
0.000380272
-1.35471e-06
0.000374981
-1.13467e-06
0.00144467
-4.62869e-06
-5.83852e-06
0.00222053
-8.40967e-05
-0.000292262
0.00662433
-0.000278626
0.00211527
-0.000137497
0.00138973
-7.25102e-06
-4.67411e-06
-0.000370448
0.0003654
-1.47082e-06
-1.24562e-06
-0.000113065
0.000111025
-0.000577013
0.00930473
-0.000614261
0.0113005
-0.00064346
0.0126578
-0.000628542
0.0134915
-0.000568624
0.0139114
-0.000473434
0.0139847
-0.000359124
0.0137114
-0.000244404
0.0130542
-0.000145828
0.0119721
-7.22182e-05
0.0104545
-2.72265e-05
0.00853902
-5.51391e-06
0.00630708
1.6482e-06
0.0038625
1.62728e-06
0.00130572
0.00263947
0.0101764
0.00302035
0.0104099
0.00360025
0.0107151
0.00441964
0.0110978
0.00556056
0.0115834
0.00717961
0.0122242
0.0097416
0.0135688
0.0143472
0.0149968
0.00503861
-0.00201432
-0.00136151
0.00197826
0.00182576
0.0058894
0.00572194
-0.00155007
0.00136151
0.00010967
0.000108536
0.000361828
-1.05653e-06
0.000357028
-1.03907e-06
0.00132094
-4.88505e-06
-1.0414e-05
0.00204221
-0.000219201
-0.000212475
0.00637812
-0.000118323
0.00198573
-0.00022214
0.00122018
-2.64773e-05
-1.0263e-05
-0.000353337
0.000347457
-1.37063e-06
-9.82767e-07
-0.00010729
0.000105819
-0.000380031
0.0090705
-0.000478667
0.0111357
-0.000547612
0.0125769
-0.000567457
0.0134903
-0.000534978
0.013973
-0.000456212
0.0140818
-0.000349547
0.0138165
-0.000237265
0.0131456
-0.000140912
0.0120408
-7.07715e-05
0.0104981
-2.7475e-05
0.00856098
-5.66918e-06
0.00631439
1.08896e-06
0.00386304
1.13922e-06
0.00130458
0.00247157
0.0101769
0.00278622
0.0104106
0.00329163
0.0107186
0.00402197
0.0111128
0.00503657
0.0116218
0.00645903
0.0123039
0.00847227
0.0134935
0.0121345
0.0157815
-0.00412966
0.0118431
0.0131728
-0.00107982
0.00147598
0.00158211
0.000745935
-0.000983019
0.00405127
0.000104763
0.000103724
0.000343726
-1.15431e-06
0.000334916
-1.60441e-06
0.00112435
-4.07548e-05
-8.26155e-05
0.0018972
-0.000123943
-8.23445e-05
0.00612507
-4.46443e-05
0.00183389
-5.50165e-05
0.00104751
-6.54139e-05
-7.98861e-05
-0.000326952
0.000305685
-5.20972e-06
-2.29875e-06
-0.000102741
0.00010137
-0.000264083
0.00885591
-0.000389154
0.0109773
-0.000485706
0.0124952
-0.000532304
0.0134877
-0.000517668
0.0140344
-0.000444482
0.0141767
-0.000337661
0.0139169
-0.000227928
0.0132326
-0.000134841
0.0121049
-6.8225e-05
0.0105388
-2.66527e-05
0.00858197
-6.80827e-06
0.00632229
2.44404e-07
0.00386394
8.6617e-07
0.00130371
0.00230544
0.0101771
0.00255436
0.0104088
0.00298493
0.0107173
0.00362539
0.0111151
0.00451889
0.0116305
0.00575729
0.0123235
0.00740569
0.0133705
0.0101135
0.0155145
0.011392
0.0162327
-0.00200465
0.0070358
0.00954537
-0.00140377
-0.000427836
0.00102693
0.0003181
0.00273784
-0.000390231
-0.000300995
0.000100216
9.86114e-05
0.000277336
-1.24063e-05
0.000222299
-2.75786e-05
0.000954795
-2.45016e-05
-6.72586e-06
0.00177951
-2.79684e-05
-4.3381e-05
0.0059336
-2.92311e-05
0.00175123
-1.63598e-05
0.000903182
-6.34937e-07
-2.76909e-06
-0.000193531
0.000128118
-5.11181e-05
-9.63127e-05
9.1103e-05
-0.000204908
0.00867167
-0.000337448
0.010829
-0.000455447
0.0124183
-0.000521791
0.0134918
-0.000511059
0.014101
-0.000433124
0.0142722
-0.000323583
0.0140125
-0.000216814
0.0133146
-0.00012757
0.0121642
-6.48029e-05
0.010577
-2.72779e-05
0.00860244
-7.70521e-06
0.00633024
-8.61196e-07
0.00386566
7.96623e-07
0.00130292
0.00213927
0.0101772
0.00232353
0.010408
0.00267882
0.0107149
0.00323111
0.0111115
0.00401136
0.0116227
0.00508497
0.0123028
0.00647184
0.0132574
0.00847866
0.0150054
0.0100285
0.016878
0.00846755
0.0148009
0.00349136
0.00675313
-0.000266423
-0.00043269
0.00167222
-0.000160711
-0.00017743
-0.000122836
0.000759533
0.000195264
0.000534698
-7.61598e-05
7.86967e-05
5.11181e-05
0.000103616
9.689e-05
0.000876671
-1.03223e-06
-4.24543e-07
0.00172098
-1.31335e-05
-3.18735e-05
0.00578794
-2.7368e-05
0.0017023
-1.05483e-05
0.000861364
-3.50263e-07
-7.02653e-07
-9.4121e-05
9.3486e-05
-0.000171967
0.00850619
-0.000316815
0.0106904
-0.000454816
0.0123513
-0.000526757
0.0135075
-0.000502399
0.0141703
-0.000414743
0.0143633
-0.000305733
0.0141015
-0.000203799
0.0133908
-0.00012156
0.012221
-6.29729e-05
0.0106127
-2.7508e-05
0.00862224
-8.65458e-06
0.00633803
-1.27593e-06
0.00386774
1.774e-07
0.00130274
0.00197524
0.010177
0.00209534
0.0104054
0.00237846
0.0107083
0.00284398
0.011102
0.00351869
0.0116042
0.00444541
0.0122622
0.00562613
0.0131485
0.00717856
0.0145575
0.00855801
0.0164759
0.00834408
0.0170014
0.00557712
0.0127151
0.0014858
0.0051576
4.79134e-05
6.18135e-05
-0.00129983
0.00106947
-9.40135e-06
-2.66671e-05
-2.47999e-05
-3.54968e-05
-0.000396456
0.000274685
-3.89401e-05
-3.91884e-05
0.000119104
9.24538e-05
9.20293e-05
0.000849176
-5.64294e-07
-3.80889e-07
0.00168117
-1.07429e-05
-2.48923e-05
0.00566149
-2.06275e-05
0.00166548
-1.1683e-05
0.000839461
-3.44596e-07
-4.89023e-07
-9.13266e-05
9.09764e-05
-0.000160528
0.0083499
-0.000330252
0.0105658
-0.000481964
0.0123065
-0.000533112
0.0135382
-0.000482785
0.0142383
-0.000388615
0.0144462
-0.000286399
0.0141841
-0.000190667
0.0134599
-0.000115346
0.0122734
-6.23419e-05
0.0106475
-2.79041e-05
0.00864149
-1.05029e-05
0.00634726
-2.64098e-06
0.00387056
1.66991e-07
0.00130257
0.00181159
0.0101766
0.00187037
0.010402
0.00208046
0.0107034
0.00246261
0.0110897
0.00303978
0.0115809
0.00383709
0.0122125
0.0048503
0.0130381
0.0061052
0.0142219
0.00726401
0.0158515
0.00753967
0.0172803
0.00634623
0.0162323
0.00343549
0.0107655
0.000710868
0.00448452
-3.94264e-05
1.63419e-06
-0.00102023
0.000998733
2.18741e-05
4.75366e-05
6.13129e-05
4.97414e-05
-0.000195005
0.000186942
-1.33886e-06
-0.000215161
-6.51095e-06
-0.000235909
-4.05202e-06
3.27888e-06
-7.99159e-05
4.09757e-05
9.04121e-05
9.00312e-05
0.000829644
-4.72016e-07
-4.53534e-07
0.00165029
-9.69433e-06
-1.77367e-05
0.00553901
-2.03093e-05
0.00163478
1.71899e-06
-6.84413e-06
0.000818943
-4.8291e-07
-4.98906e-07
-8.95422e-05
8.91976e-05
-0.000177073
0.00819672
-0.000379233
0.0104631
-0.000517825
0.0122912
-0.000515033
0.0135704
-0.000448648
0.0142984
-0.000357266
0.0145171
-0.000262416
0.0142558
-0.000178112
0.0135227
-0.000110886
0.0123219
-6.15435e-05
0.0106812
-3.04879e-05
0.00866147
-1.25148e-05
0.00635714
-3.27216e-06
0.00387399
-4.05755e-07
0.00130298
0.00165062
0.010175
0.00164924
0.0103978
0.00178852
0.0106939
0.00208914
0.0110768
0.00257223
0.0115572
0.00325666
0.0121613
0.00413113
0.0129317
0.00517962
0.0139636
0.00617117
0.0153147
0.00659233
0.0167988
0.00618684
0.0174397
0.0046111
0.0150567
0.00208151
0.00939481
0.000315246
0.00414468
3.43396e-05
-9.7437e-06
-0.000985828
0.000977251
-3.08501e-05
-1.95915e-06
1.64976e-05
-0.000243047
0.000251376
1.35451e-05
-0.000224239
2.8728e-05
-0.000203339
4.04125e-05
3.33452e-05
-3.36916e-05
3.23527e-05
-4.02026e-05
-4.42546e-05
8.87256e-05
8.82721e-05
0.00047453
-2.71122e-07
-2.46451e-07
0.000335236
0.00162377
-4.20983e-06
-2.51398e-06
-1.55722e-05
0.00540465
-2.7142e-05
0.00160809
-2.01435e-06
-2.61448e-06
0.00050508
-2.88311e-05
0.00050666
-8.42356e-06
-8.77732e-05
8.72903e-05
-0.00023662
0.00805411
-0.000462508
0.0104078
-0.000509927
0.0122861
-0.000471436
0.0135932
-0.000403319
0.0143444
-0.000322489
0.0145772
-0.000242356
0.0143201
-0.000168655
0.0135805
-0.000109112
0.0123695
-6.35842e-05
0.0107142
-3.27088e-05
0.00868167
-1.41154e-05
0.00636798
-4.20578e-06
0.00387779
-4.75843e-07
0.00130346
0.0014907
0.0101749
0.00143179
0.0103924
0.00150129
0.010685
0.00172039
0.0110627
0.00211536
0.0115337
0.00269884
0.0121151
0.0034576
0.0128349
0.0043563
0.013755
0.00522569
0.0149091
0.00569873
0.0162083
0.00562236
0.0173633
0.0049067
0.0171441
0.00325071
0.0138875
0.00123684
0.00847321
0.000104596
0.00393669
4.13551e-05
6.20354e-05
-0.000958399
0.000947032
4.57062e-05
9.10821e-06
-0.000234169
0.000355218
-1.49114e-06
-0.000149435
-9.73255e-07
-0.000254765
1.86371e-05
1.31088e-05
-0.000110137
0.000120844
2.83857e-06
-8.90792e-05
7.66981e-06
-6.5698e-05
1.70312e-05
8.70191e-05
8.67727e-05
0.000304614
1.79037e-06
0.000505236
-2.78612e-06
0.000504107
-1.3846e-06
0.00159739
-1.83254e-06
-3.03475e-06
-2.26187e-05
0.00524183
-5.11862e-05
0.00157671
-2.33717e-06
-4.13391e-06
0.000503053
-9.59969e-07
0.000501032
-5.93614e-07
0.000298252
-2.06139e-06
-0.000361016
0.00795262
-0.000481776
0.0103796
-0.00045678
0.0122715
-0.000409705
0.0135996
-0.000354726
0.0143767
-0.000292306
0.0146271
-0.000225547
0.014377
-0.000164207
0.0136355
-0.000109087
0.012415
-6.63431e-05
0.0107479
-3.55268e-05
0.00870308
-1.5867e-05
0.00637964
-5.30767e-06
0.00388263
-9.26325e-07
0.00130438
0.00133235
0.0101734
0.00122112
0.0103856
0.00122082
0.0106729
0.00135948
0.0110459
0.00166719
0.0115109
0.00215806
0.0120745
0.00281886
0.0127538
0.00360412
0.013587
0.00438448
0.0145962
0.00488981
0.0157181
0.00496953
0.0168611
0.00467022
0.0175998
0.00379184
0.0166029
0.00224142
0.012883
0.00072917
0.00784864
3.16045e-05
0.00385512
2.34232e-05
2.65381e-05
-0.000937955
0.000944626
3.46834e-05
7.11121e-05
-0.000362588
0.000384728
1.78519e-05
5.71351e-06
-7.86686e-08
1.81646e-06
-2.97206e-05
2.82295e-05
-0.00013021
-5.87744e-07
-3.06939e-05
3.7421e-06
-2.4701e-05
2.75396e-05
-1.70312e-05
8.85631e-05
0.000296424
-9.58331e-07
0.000295325
-2.85359e-07
0.000499904
-7.04435e-07
0.000498104
-1.235e-06
0.0015608
-2.01729e-06
-4.68264e-06
-6.48729e-05
0.00508522
-0.00013953
0.00152181
-3.66052e-06
-8.53708e-06
0.000497022
-1.25517e-06
0.000493938
-1.04958e-06
0.000294552
-1.8665e-07
0.000294025
-6.71412e-08
8.65017e-05
-0.000447245
0.00791809
-0.000406419
0.0103293
-0.00037211
0.0122339
-0.000345998
0.0135909
-0.000311393
0.0143958
-0.000267321
0.0146689
-0.000216165
0.0144289
-0.000162511
0.013689
-0.000112982
0.0124616
-7.0573e-05
0.0107829
-3.86665e-05
0.00872588
-1.75516e-05
0.00639189
-6.21011e-06
0.00388791
-8.97449e-07
0.00130528
0.00117871
0.0101691
0.00101674
0.0103777
0.000947616
0.0106588
0.00100586
0.0110265
0.001226
0.0114871
0.0016278
0.0120411
0.00220468
0.0126887
0.0029033
0.0134546
0.00361846
0.0143531
0.00414579
0.0153402
0.00433314
0.0163544
0.00422409
0.0173073
0.00380049
0.0175911
0.00286996
0.0159744
0.00154039
0.0120717
0.000435011
0.00744523
-5.08449e-05
0.00378642
6.95551e-05
4.99868e-05
-0.000953783
0.000964669
1.25373e-05
1.73811e-05
-0.000408942
0.000433251
1.00303e-06
9.37126e-06
2.57968e-05
2.11014e-05
-3.56807e-05
5.35326e-05
-2.99672e-05
2.81508e-05
-3.12817e-05
8.55434e-05
8.5258e-05
0.000293486
-1.64681e-07
0.000292447
-1.95779e-07
0.000492961
-1.04031e-06
0.000489957
-1.67861e-06
0.00148078
-6.81117e-06
-1.70373e-05
-0.00020231
0.00504268
-0.000202394
0.00140478
-2.03911e-05
-4.31326e-05
0.000488157
-1.8605e-06
0.000482104
-2.48444e-06
0.000291428
-2.36315e-07
0.000290625
-2.47025e-07
8.50714e-05
8.50042e-05
-0.000324422
0.00783609
-0.000292545
0.0102497
-0.000293822
0.0121817
-0.000291923
0.0135714
-0.00027958
0.014408
-0.00025253
0.0147052
-0.00021361
0.01448
-0.000166963
0.013743
-0.000117313
0.0125084
-7.39099e-05
0.0108182
-3.9867e-05
0.00874819
-1.82885e-05
0.00640396
-6.40647e-06
0.00389342
-1.26873e-06
0.00130655
0.0010279
0.0101653
0.000820631
0.0103652
0.000685985
0.0106394
0.000659684
0.011005
0.000789398
0.0114631
0.00110518
0.0120097
0.00160546
0.0126403
0.00223811
0.0133539
0.00290862
0.0141645
0.00345017
0.0150487
0.00372579
0.0159476
0.00373501
0.0168435
0.003534
0.0175737
0.0030452
0.0174159
0.00215564
0.0153591
0.00106035
0.0114464
0.000241224
0.00715316
-7.99846e-05
0.00374895
4.61322e-05
7.13211e-05
-0.000972379
0.000978025
6.39089e-05
4.22763e-05
-0.000448928
0.000461724
7.23981e-07
-9.83124e-07
1.84107e-06
-1.37331e-07
-8.84588e-05
8.96418e-05
-1.80048e-07
-8.09055e-05
1.81787e-06
6.61637e-05
1.31656e-05
6.35958e-06
8.48396e-05
8.46438e-05
0.000289767
-1.82495e-07
0.000288403
-3.14163e-07
0.000478708
-3.41487e-06
0.000468194
-6.5232e-06
0.00135795
-5.79967e-05
-9.7488e-05
-0.000134075
0.00490677
-5.44408e-05
0.00131652
-8.74282e-05
-7.35371e-05
0.000458106
-1.03034e-05
0.000434678
-1.9705e-05
0.000286869
-3.2625e-07
0.000284788
-4.03778e-07
8.44075e-05
8.41604e-05
-0.000175146
0.00771869
-0.000205093
0.010161
-0.000234692
0.0121245
-0.000255528
0.0135474
-0.000260996
0.0144165
-0.00024951
0.0147411
-0.000217875
0.0145309
-0.000172313
0.013798
-0.000121587
0.012556
-7.65511e-05
0.0108549
-4.24406e-05
0.00877235
-1.9744e-05
0.0064173
-7.01774e-06
0.00389917
-1.05437e-06
0.0013076
0.000882133
0.0101581
0.000636684
0.0103493
0.000436096
0.0106151
0.000324317
0.0109747
0.000358079
0.0114363
0.000583363
0.0119849
0.00101102
0.0126042
0.00159255
0.0132859
0.0022332
0.0140293
0.00279083
0.0148238
0.00314071
0.0156338
0.00325104
0.0164316
0.00317138
0.0172062
0.00291911
0.0176998
0.00241834
0.0171532
0.00161545
0.014804
0.000728972
0.0109586
0.000129561
0.00694362
-7.2108e-05
0.00377293
1.44988e-05
3.36363e-05
-0.000985838
0.000997734
3.42366e-05
6.35074e-05
-0.000483991
0.00049893
2.64212e-05
2.25485e-05
5.94612e-06
1.40636e-05
-9.03224e-05
9.13178e-05
-2.71452e-07
-9.09868e-05
-3.18863e-07
9.08825e-05
6.00345e-07
-2.41686e-07
-2.1343e-05
2.11629e-05
-1.95251e-05
1.31656e-05
8.3978e-05
8.36638e-05
0.000281919
-5.45716e-07
0.000276422
-1.02583e-06
0.000413209
-3.65269e-05
0.000378905
-6.31838e-05
0.0012474
-4.52193e-05
-1.97279e-05
-3.22888e-05
0.00477237
-8.44873e-06
0.00120719
-1.10188e-05
-3.21613e-06
0.000356718
-6.52414e-05
0.000333723
-5.05422e-05
0.00026796
-1.84192e-06
0.000252247
-3.99213e-06
8.33375e-05
8.29338e-05
-0.000101244
0.00761484
-0.000152544
0.0100788
-0.000197483
0.0120664
-0.000235323
0.0135217
-0.000255733
0.0144227
-0.000253179
0.0147764
-0.000225837
0.0145844
-0.000178588
0.013855
-0.00012657
0.0126061
-7.82821e-05
0.0108907
-4.31249e-05
0.00879573
-1.95579e-05
0.00642984
-6.69259e-06
0.00390481
-1.14976e-06
0.00130875
0.000742367
0.0101484
0.000466957
0.0103278
0.000204333
0.010581
2.33834e-06
0.0109371
-6.83187e-05
0.0114011
6.03665e-05
0.0119593
0.000414596
0.0125814
0.000953353
0.0132434
0.00158091
0.0139382
0.00216098
0.0146591
0.00257173
0.0153928
0.00277282
0.016112
0.00278652
0.0168164
0.00266226
0.017463
0.0023947
0.0177235
0.00191421
0.0168544
0.00121316
0.0143199
0.000506974
0.0105812
6.43145e-05
0.00680719
-9.66473e-05
8.4582e-05
0.00378499
-0.001003
0.000952785
6.47137e-05
2.83698e-05
-0.000517948
0.000538672
3.77985e-06
9.73231e-06
2.85043e-05
1.59851e-05
-0.000111793
0.000119922
1.82917e-05
-0.000103686
1.44418e-05
9.5114e-05
2.14986e-06
5.49151e-06
-2.12027e-05
2.09312e-05
-2.15216e-05
2.17633e-05
8.23881e-05
8.13622e-05
0.000226033
-1.03125e-05
0.000185424
-2.25748e-05
0.000309222
-2.07183e-05
0.00029646
-6.96632e-06
0.00117893
-3.35934e-06
-6.70083e-07
-1.22989e-05
0.00468731
-3.88786e-06
0.00117126
-9.66327e-07
1.88681e-07
0.000287851
-2.40917e-06
0.000285332
-6.96895e-07
0.000162823
-4.26409e-05
0.000112281
7.95203e-05
7.55282e-05
-6.86348e-05
0.00753094
-0.000122561
0.0100039
-0.000178905
0.01201
-0.000229629
0.0134956
-0.000264367
0.0144339
-0.000267754
0.0148184
-0.00023757
0.0146434
-0.000185225
0.0139136
-0.000128258
0.012656
-7.86431e-05
0.0109262
-4.18977e-05
0.00881807
-1.93209e-05
0.00644247
-6.35852e-06
0.00391002
-1.03794e-06
0.00130979
0.000609875
0.0101357
0.000315542
0.0102998
-4.54794e-06
0.0105367
-0.0003008
0.0108842
-0.000485674
0.0113545
-0.000469631
0.0119311
-0.000194896
0.0125688
0.000307109
0.0132276
0.000936516
0.0138878
0.00154747
0.0145517
0.00201739
0.0152135
0.00229953
0.0158661
0.00240027
0.0164982
0.00236219
0.0171165
0.00221861
0.0176391
0.00195915
0.0176785
0.00151611
0.0165515
0.000916637
0.0139102
0.000355269
0.0102903
8.96505e-06
0.00670158
-0.000633948
0.00160483
4.76449e-05
1.88432e-05
-0.000118683
0.000123533
0.00378014
-0.000559634
-9.5999e-06
6.18329e-06
1.22417e-06
-0.000143652
0.000145758
1.67314e-06
-0.000137996
4.07617e-06
0.000130961
1.74654e-05
8.95039e-06
-4.30143e-05
5.10447e-05
1.02613e-05
-2.85726e-05
2.30811e-05
6.52157e-05
4.26409e-05
9.15628e-05
8.45965e-05
0.000282371
-3.98572e-07
0.000281936
-2.35511e-07
0.00116044
-1.10079e-06
-3.79182e-07
-8.1447e-06
0.00463059
-3.77446e-06
0.00115732
-6.35846e-07
-1.31028e-07
0.000281116
-1.45991e-07
0.000281176
1.28258e-07
8.21873e-05
8.14904e-05
-5.34109e-05
0.00746179
-0.000108062
0.00993305
-0.00017467
0.0119551
-0.000240824
0.013472
-0.000282681
0.0144488
-0.000283686
0.0148645
-0.000246017
0.0147042
-0.000186911
0.0139723
-0.000126299
0.0127037
-7.66118e-05
0.0109609
-4.1389e-05
0.00884014
-1.86946e-05
0.00645481
-6.19903e-06
0.00391518
-9.0155e-07
0.00131069
0.00048602
0.0101201
0.000186699
0.0102645
-0.000183085
0.0104783
-0.000575496
0.0108114
-0.000890304
0.0112888
-0.00100695
0.0118918
-0.000823996
0.0125602
-0.000359116
0.013235
0.000288687
0.0138754
0.000943514
0.0144917
0.0014731
0.015096
0.00182938
0.0156836
0.0020107
0.0162556
0.00205143
0.016809
0.00198625
0.0173488
0.00184604
0.0177522
0.00160278
0.0175919
0.00120494
0.0162632
0.00069944
0.013566
0.000242612
0.0100566
-3.03863e-05
0.00661328
0.00163728
3.32478e-05
5.78288e-05
-0.000235416
0.000264609
1.34969e-05
4.95444e-06
-0.000218603
1.68727e-06
3.42605e-07
-0.000105877
7.9006e-05
0.00380701
-0.00013771
-2.60561e-07
-3.03605e-07
-8.9928e-05
0.000147409
4.53287e-06
1.09223e-05
-7.36068e-05
7.51722e-05
1.07687e-07
-7.01858e-05
6.55145e-07
6.31945e-05
5.31556e-06
1.95899e-06
1.02613e-05
8.10919e-05
8.08564e-05
0.000280125
-4.92001e-08
0.000279927
-1.81641e-07
0.00115045
-8.22478e-07
-4.53405e-07