/*--------------------------------*- C++ -*----------------------------------*\
| =========                 |                                                 |
| \\      /  F ield         | OpenFOAM: The Open Source CFD Toolbox           |
|  \\    /   O peration     | Version:  v1912                                 |
|   \\  /    A nd           | Website:  www.openfoam.com                      |
|    \\/     M anipulation  |                                                 |
\*---------------------------------------------------------------------------*/
FoamFile
{
    version     2.0;
    format      ascii;
    class       volVectorField;
    location    "150";
    object      U;
}
// * * * * * * * * * * * * * * * * * * * * * * * * * * * * * * * * * * * * * //

dimensions      [0 1 -1 0 0 0 0];


internalField   nonuniform List<vector> 
3675
(
(0.999101 0.00118845 1.15364e-25)
(0.99915 0.00347966 0)
(0.990327 0.00382075 3.2935e-23)
(0.999239 0.00554016 -5.7442e-23)
(0.991018 0.0111672 0)
(0.969829 0.00740919 -1.04694e-21)
(0.999356 0.00725472 3.51802e-21)
(0.992282 0.0177137 -3.80337e-21)
(0.972166 0.0215544 1.07562e-21)
(0.932759 0.0131125 -7.34462e-23)
(0.999484 0.00855658 -6.80999e-21)
(0.993917 0.0230708 7.52684e-21)
(0.97641 0.0338775 0)
(0.938887 0.0378575 2.30885e-21)
(0.869247 0.0236654 -2.08964e-22)
(0.99961 0.00942531 3.29363e-21)
(0.995708 0.0270295 -1.01868e-22)
(0.981838 0.0435814 -1.25796e-22)
(0.949632 0.0586477 -2.25903e-21)
(0.883537 0.0671951 0)
(0.754726 0.0452537 2.15623e-22)
(0.999726 0.00987668 0)
(0.997474 0.0295523 3.19291e-21)
(0.987665 0.0503468 0)
(0.962764 0.0739288 1.22759e-22)
(0.907478 0.101089 3.22471e-22)
(0.793622 0.123303 -3.2252e-21)
(0.58677 0.0435491 -2.41665e-22)
(0.607445 0.119021 -3.87229e-22)
(0.999829 0.00995004 0)
(0.999096 0.0307276 -6.6767e-21)
(0.99327 0.0542482 6.68372e-21)
(0.976228 0.0833921 3.55357e-21)
(0.936314 0.122832 -2.70613e-22)
(0.850185 0.178198 4.92307e-21)
(0.647486 0.192876 6.89273e-22)
(0.700044 0.240803 3.40762e-22)
(0.393978 0.0628474 8.04471e-22)
(0.433097 0.181031 -4.66099e-22)
(0.999918 0.00969609 0)
(1.00051 0.0307137 -4.73339e-23)
(0.99829 0.0556051 -6.60049e-21)
(0.988598 0.0876949 -3.43179e-21)
(0.963834 0.133193 0)
(0.909817 0.205704 -1.78243e-21)
(0.763597 0.355955 -2.15547e-21)
(0.504947 0.278767 -1.42053e-21)
(0.592096 0.358329 1.13662e-21)
(0.183969 0.0402366 -1.79584e-22)
(0.197478 0.118833 3.72638e-22)
(0.270721 0.266674 1.86547e-21)
(0.225017 0.194345 -3.21883e-22)
(0.999996 0.00916802 0)
(1.0017 0.0296947 0)
(1.00258 0.0548327 1.10866e-24)
(0.999223 0.0878759 -9.70702e-23)
(0.987019 0.134903 -1.96962e-22)
(0.959761 0.209999 0)
(0.8973 0.366469 4.42274e-21)
(0.637061 0.560456 1.69619e-22)
(0.772741 0.592388 4.80708e-23)
(0.329797 0.339506 3.46721e-23)
(0.404083 0.408782 0)
(0.481793 0.490773 -7.27293e-22)
(0.0366963 0.0319438 -1.52207e-21)
(0.0487393 0.0948987 -6.96478e-22)
(0.113563 0.207003 -7.05316e-21)
(0.0757657 0.153904 -2.39104e-21)
(1.00007 0.00841542 0)
(1.00268 0.0278502 0)
(1.00611 0.0523452 0)
(1.00796 0.0849157 4.5011e-23)
(1.00559 0.130808 0)
(0.997568 0.201368 9.00448e-23)
(0.982244 0.332532 -2.89689e-21)
(0.979438 0.556108 -4.09427e-22)
(0.621397 0.554176 -8.33739e-24)
(0.488786 0.487597 -8.69963e-23)
(0.769641 0.536546 9.53961e-23)
(0.166632 0.308733 8.66914e-21)
(0.290057 0.401015 -5.98587e-22)
(0.332668 0.38405 1.65231e-21)
(0.234003 0.280227 -1.56498e-21)
(1.00013 0.00748238 -4.42543e-24)
(1.00346 0.0253425 0)
(1.00895 0.0485142 -5.0027e-21)
(1.01492 0.0796169 0)
(1.02004 0.122923 -7.2023e-23)
(1.02522 0.186924 0)
(1.03372 0.29068 -3.79481e-23)
(1.10132 0.484185 3.25924e-22)
(0.914245 0.447508 -3.72117e-22)
(1.09737 0.503672 -3.29172e-23)
(0.462402 0.344222 -1.26e-22)
(0.287818 0.247444 1.18714e-22)
(0.714503 0.423024 6.52789e-22)
(0.466388 0.288369 0)
(0.0575727 0.13294 2.67321e-21)
(0.161749 0.245061 -6.13124e-21)
(0.132498 0.164528 0)
(1.00019 0.00640474 0)
(1.00409 0.0223094 -4.26559e-24)
(1.0112 0.0436476 4.97285e-21)
(1.02034 0.0726153 -3.91763e-23)
(1.031 0.112574 0)
(1.04499 0.16962 6.78718e-23)
(1.06688 0.253408 0)
(1.14398 0.39614 6.08568e-22)
(1.22937 0.419666 -1.71812e-21)
(0.692847 0.205506 1.61085e-22)
(0.56756 0.27402 -1.31822e-21)
(1.01639 0.298765 -9.23754e-22)
(0.193723 0.133965 2.95421e-21)
(0.264447 0.154406 1.29723e-21)
(1.00025 0.00521215 0)
(1.00459 0.0188626 -8.39511e-24)
(1.01296 0.037987 8.98686e-24)
(1.02452 0.0643947 1.59783e-23)
(1.03916 0.100657 -2.78981e-23)
(1.05889 0.150951 3.17252e-21)
(1.08864 0.220278 2.12242e-21)
(1.1576 0.323321 4.1645e-22)
(1.2882 0.379622 2.25183e-21)
(1.15352 0.260633 0)
(0.449449 0.0578265 5.25604e-22)
(0.19383 0.0362958 0)
(0.363356 0.0932811 4.35244e-23)
(0.848866 0.170217 -3.19584e-22)
(0.123014 0.0330594 -1.59658e-22)
(1.00032 0.00392725 -7.91742e-21)
(1.005 0.0150887 3.97643e-24)
(1.01435 0.0317174 1.60852e-23)
(1.02772 0.0553046 -1.43505e-23)
(1.04519 0.0877705 -1.56483e-23)
(1.06857 0.131854 -5.93348e-21)
(1.10242 0.190043 -3.89307e-21)
(1.16351 0.267617 -4.3753e-22)
(1.27977 0.322702 0)
(1.33597 0.287849 0)
(1.00188 0.142306 6.66408e-21)
(0.686315 0.0996932 -4.10194e-23)
(0.119917 0.00564657 1.13044e-22)
(0.320267 0.0211306 -1.10363e-23)
(0.0925011 0.00388552 -3.2181e-22)
(1.00039 0.002567 7.85662e-21)
(1.00533 0.0110527 -2.00814e-24)
(1.01544 0.0249745 -3.97631e-24)
(1.0302 0.0455778 -2.06748e-23)
(1.04965 0.07429 6.36249e-21)
(1.07531 0.112826 2.79029e-21)
(1.11089 0.162208 1.75245e-21)
(1.1665 0.223244 -1.6094e-23)
(1.2598 0.271172 0)
(1.35836 0.267842 -4.99077e-21)
(1.29147 0.204704 -8.13671e-21)
(0.889267 0.0707088 8.21318e-23)
(0.553398 0.0438167 -5.59062e-21)
(0.594258 0.0556014 2.8041e-24)
(0.27594 0.0078898 1.17488e-23)
(0.0659262 0.00218724 9.65186e-23)
(0.0705642 -0.00091787 0)
(1.00046 0.00114491 0)
(1.00561 0.00680287 0)
(1.01633 0.0178535 -3.38766e-24)
(1.03216 0.0353658 0)
(1.05304 0.0604233 -5.01291e-22)
(1.08009 0.0940502 6.41838e-24)
(1.11609 0.136411 1.0925e-21)
(1.16741 0.186291 -4.97086e-24)
(1.24371 0.228055 -2.11765e-21)
(1.33492 0.237728 5.15635e-21)
(1.37605 0.214279 -5.95866e-21)
(1.22343 0.142382 0)
(0.810425 0.0394436 -5.0483e-21)
(0.511822 0.0182174 -8.77352e-23)
(0.531433 0.0234165 8.15128e-23)
(0.287253 0.0126331 1.02365e-20)
(0.061281 -0.00176953 -1.03054e-22)
(0.0666775 0.00229352 6.63327e-21)
(1.00055 -0.000328456 0)
(1.00584 0.00237519 -7.64451e-21)
(1.01706 0.0104179 0)
(1.03377 0.0247586 3.36321e-24)
(1.05573 0.0462689 -3.86823e-22)
(1.08366 0.0755422 -3.75288e-21)
(1.11946 0.112251 -1.11526e-21)
(1.1671 0.154384 0)
(1.23195 0.191495 4.30218e-21)
(1.30876 0.207099 -1.24097e-23)
(1.37319 0.201227 6.68184e-22)
(1.36251 0.170285 0)
(1.15697 0.10101 1.22945e-20)
(0.753582 0.0276834 -1.26547e-21)
(0.475888 0.0117195 -1.23905e-21)
(0.491016 0.0111079 5.03349e-24)
(0.284207 0.00497417 0)
(0.293562 0.00594871 -1.27189e-21)
(0.132326 0.00366912 -3.66345e-21)
(0.0945806 0.00816152 -1.67397e-20)
(1.00063 -0.0018433 0)
(1.00604 -0.00220136 1.51591e-20)
(1.01767 0.00270916 0)
(1.03513 0.0137982 0)
(1.05799 0.0318448 -9.87132e-21)
(1.08657 0.0572097 3.64229e-21)
(1.12196 0.0893349 1.26554e-21)
(1.1665 0.125938 -1.24398e-21)
(1.22317 0.159638 -2.14104e-21)
(1.28853 0.178662 -8.5702e-24)
(1.34998 0.181356 5.5032e-21)
(1.38784 0.170501 -3.05974e-24)
(1.33538 0.135825 -7.28616e-21)
(1.09705 0.0759165 1.66587e-23)
(0.711192 0.0228371 -6.24187e-22)
(0.44865 0.00961324 1.1875e-21)
(0.460156 0.00844789 1.20542e-21)
(0.268414 0.00284863 1.14569e-21)
(0.275101 0.00231131 -2.21556e-22)
(0.130581 0.00180799 -3.29091e-24)
(0.132425 0.000463024 2.76219e-23)
(0.13486 0.000934619 2.69322e-21)
(0.135604 0.00193382 4.15705e-22)
(0.0414403 -0.000746156 1.74303e-21)
(0.0256528 0.00220757 4.98366e-21)
(1.00073 -0.00338896 0)
(1.0062 -0.00689922 -7.51201e-21)
(1.01818 -0.00524238 6.89082e-21)
(1.03632 0.00249667 5.84421e-21)
(1.06002 0.0171166 9.20553e-21)
(1.08922 0.0389034 0)
(1.12428 0.0672448 -1.2325e-21)
(1.16634 0.099856 1.25987e-21)
(1.21687 0.131132 0)
(1.27365 0.152495 -2.76741e-23)
(1.32843 0.160904 4.77583e-21)
(1.37409 0.15946 5.37782e-24)
(1.38908 0.145579 -1.0116e-25)
(1.30161 0.111509 -7.08758e-21)
(1.04591 0.0611495 0)
(0.678178 0.0205895 -5.03577e-21)
(0.426966 0.00849665 1.16888e-21)
(0.436202 0.00754508 5.95494e-22)
(0.256352 0.00248534 6.94227e-23)
(0.261903 0.00200937 -5.86877e-25)
(0.124792 0.000994474 -5.01366e-23)
(0.125853 0.000130921 -2.55914e-23)
(0.127946 -0.00026207 3.15906e-22)
(0.127452 0.000781083 1.28412e-22)
(0.0396931 0.000203545 1.70191e-23)
(0.0403517 -8.52691e-05 0)
(0.0407975 -0.00034921 -5.72012e-22)
(0.0411896 0.000183132 -2.85081e-22)
(1.00083 -0.0049521 0)
(1.00631 -0.0116872 -7.1802e-24)
(1.01858 -0.0134094 -6.80446e-21)
(1.03737 -0.00915143 3.97678e-23)
(1.06193 0.00200963 -8.75478e-21)
(1.09188 0.0204285 2.61049e-21)
(1.1269 0.045589 -6.01311e-25)
(1.16712 0.0752889 3.06168e-24)
(1.21302 0.104986 5.63997e-24)
(1.26307 0.128099 -7.10806e-21)
(1.31188 0.141093 -9.57417e-21)
(1.35493 0.145435 4.55342e-24)
(1.38777 0.141883 0)
(1.38089 0.127075 6.81075e-21)
(1.26631 0.0953511 7.19088e-21)
(1.00316 0.052521 4.24673e-21)
(0.65124 0.0195115 -4.81343e-24)
(0.408751 0.00801269 0)
(0.416608 0.00715686 5.80979e-22)
(0.245901 0.00233824 2.02735e-22)
(0.250793 0.00203739 -6.10363e-22)
(0.120179 0.00079926 -4.80832e-23)
(0.12111 0.000247836 -9.66909e-23)
(0.123076 1.44322e-06 9.84925e-23)
(0.12248 0.000670098 -1.46757e-22)
(0.0386709 9.75007e-05 3.22845e-23)
(0.0390132 -6.02956e-05 2.06042e-24)
(0.0391062 -0.000177405 -8.43196e-23)
(0.0392913 5.0353e-05 -2.0546e-24)
(1.00093 -0.00651421 0)
(1.00636 -0.0165229 0)
(1.01882 -0.0217567 7.04112e-24)
(1.03825 -0.0211569 -5.66416e-21)
(1.06377 -0.0135709 4.24787e-21)
(1.09472 0.00155397 -4.97446e-21)
(1.13012 0.0239606 -7.4706e-25)
(1.16924 0.0515515 5.87441e-25)
(1.21173 0.0804018 -4.59961e-21)
(1.25641 0.10507 7.22559e-21)
(1.29992 0.121871 -4.52567e-21)
(1.33901 0.130898 -1.13078e-23)
(1.3727 0.133184 5.69023e-24)
(1.39338 0.128771 0)
(1.36666 0.114222 -6.82631e-21)
(1.23239 0.0847616 -7.24604e-21)
(0.967154 0.0475427 0)
(0.629282 0.0189784 -6.29888e-22)
(0.392989 0.00782502 -1.06967e-21)
(0.399705 0.00703221 1.07158e-21)
(0.236341 0.00233318 -6.64034e-23)
(0.240897 0.00211489 -4.65517e-22)
(0.115858 0.000703838 -1.40164e-22)
(0.116727 0.000318207 -9.3765e-23)
(0.118681 0.000176647 -4.76074e-23)
(0.118 0.000633518 0)
(0.0376274 7.13116e-05 1.55654e-23)
(0.0379514 -2.66814e-05 0)
(0.0382972 -8.43122e-05 0)
(0.0382565 5.00437e-05 3.14915e-23)
(1.00102 -0.00804938 0)
(1.00631 -0.0213461 -8.26374e-21)
(1.01886 -0.0302292 0)
(1.03888 -0.0335198 0)
(1.06548 -0.0297305 -7.97486e-24)
(1.0978 -0.0179732 2.367e-21)
(1.13414 0.00194552 0)
(1.17298 0.0280236 0)
(1.21315 0.0567018 4.4587e-21)
(1.25356 0.0830356 5.58552e-24)
(1.29228 0.103188 1.8741e-20)
(1.32732 0.116313 0)
(1.3582 0.123029 5.98587e-21)
(1.38371 0.124219 0)
(1.39282 0.119781 0)
(1.34926 0.105478 6.81423e-21)
(1.20076 0.0779055 0)
(0.936802 0.0447506 0)
(0.614158 0.0188843 -9.84307e-21)
(0.380529 0.00771938 1.12624e-21)
(0.385308 0.00694004 1.13239e-21)
(0.227396 0.00235587 -3.97931e-25)
(0.231636 0.00220572 6.52889e-23)
(0.111578 0.000674535 -4.57717e-23)
(0.112446 0.000376152 9.17425e-23)
(0.114453 0.000287504 4.63951e-23)
(0.113705 0.000631669 -9.2318e-23)
(0.0364861 5.73667e-05 1.513e-23)
(0.036794 -1.03446e-05 0)
(0.0372658 -4.26142e-05 4.61048e-23)
(0.0371159 4.81566e-05 0)
(1.00111 -0.00952097 -1.69698e-23)
(1.00613 -0.0260695 2.55102e-20)
(1.01859 -0.0387376 1.2196e-23)
(1.03913 -0.04621 0)
(1.06692 -0.0465751 0)
(1.10106 -0.0384347 4.20327e-24)
(1.13906 -0.0208996 2.84972e-25)
(1.17854 0.00410377 -2.42046e-21)
(1.21747 0.0332672 0)
(1.25457 0.0616267 0)
(1.28893 0.0849919 -9.18861e-21)
(1.31984 0.101849 0)
(1.34724 0.112429 -6.08796e-21)
(1.37119 0.117572 -3.31777e-24)
(1.38931 0.118406 0)
(1.38806 0.113927 0)
(1.33028 0.0996343 0)
(1.17167 0.0736054 0)
(0.91197 0.0434676 8.44836e-21)
(0.609299 0.0197846 -2.44136e-21)
(0.376489 0.00785334 -4.39123e-21)
(0.376113 0.00674474 -2.23397e-21)
(0.219817 0.00233837 -9.60848e-22)
(0.22317 0.00225393 -6.46131e-23)
(0.107281 0.000667641 -9.00384e-23)
(0.108133 0.00041091 2.26525e-23)
(0.110191 0.000359237 2.2685e-23)
(0.109394 0.000646483 -4.53266e-23)
(0.0352363 5.22577e-05 4.43536e-23)
(0.0355529 3.68276e-07 -3.72686e-24)
(0.0361168 -1.84837e-05 -1.49048e-23)
(0.0359006 4.87651e-05 3.71761e-24)
(1.00118 -0.0108797 3.58194e-23)
(1.00577 -0.0305697 1.11461e-21)
(1.01789 -0.0471389 -1.60838e-20)
(1.03876 -0.0591497 -2.62334e-23)
(1.06783 -0.0641873 6.83845e-24)
(1.10434 -0.060132 0)
(1.14484 -0.0450574 -1.06207e-24)
(1.18608 -0.0208447 2.34473e-21)
(1.22491 0.00950062 0)
(1.25957 0.0404685 0)
(1.28999 0.0671962 0)
(1.31667 0.0876213 0)
(1.34023 0.101727 1.20875e-20)
(1.36115 0.11026 6.38513e-24)
(1.37916 0.11447 6.28775e-24)
(1.39093 0.115094 0)
(1.38041 0.110293 0)
(1.31061 0.0958778 0)
(1.1453 0.071126 3.52103e-24)
(0.8922 0.0434068 8.18435e-24)
(0.603059 0.0203924 -6.02815e-21)
(0.391043 0.00835892 -4.16063e-21)
(0.382115 0.00851493 4.18302e-21)
(0.21896 0.0020216 4.05958e-21)
(0.21748 0.00211433 2.55973e-21)
(0.103285 0.000655801 0)
(0.103947 0.000420799 -4.46358e-23)
(0.105917 0.00039499 4.48564e-23)
(0.105152 0.000659885 0)
(0.0339023 5.09605e-05 0)
(0.0342228 6.10869e-06 0)
(0.0348516 -4.88213e-06 -1.47695e-23)
(0.0345907 5.10743e-05 0)
(1.00123 -0.0120598 3.79458e-23)
(1.00516 -0.0346761 -1.80973e-20)
(1.01656 -0.0552178 1.5944e-20)
(1.03747 -0.072185 0)
(1.06783 -0.0826151 -5.00817e-21)
(1.1073 -0.0833675 -6.56593e-24)
(1.15129 -0.071068 0)
(1.19571 -0.0475495 0)
(1.23575 -0.0152117 0)
(1.26882 0.019202 8.33126e-24)
(1.29563 0.0496873 9.92724e-24)
(1.31798 0.0737094 1.11848e-23)
(1.33736 0.0911451 -2.3979e-20)
(1.35466 0.102757 6.39536e-24)
(1.37014 0.109734 -1.28596e-23)
(1.38334 0.113287 3.25063e-24)
(1.38965 0.113543 -6.57176e-21)
(1.37067 0.108223 0)
(1.29084 0.0936043 0)
(1.12138 0.069866 -5.88719e-26)
(0.873385 0.0429405 1.60162e-23)
(0.588847 0.0209044 -4.78922e-21)
(0.392258 0.00966386 -2.16843e-21)
(0.39389 0.00849349 8.61004e-23)
(0.250534 0.00288922 3.76623e-21)
(0.231423 0.00366882 0)
(0.106136 0.000312859 0)
(0.102603 -4.7716e-05 -7.09878e-22)
(0.10219 0.000339525 -1.33122e-22)
(0.102214 0.000528589 -6.63409e-22)
(0.0325913 5.06552e-05 1.43866e-23)
(0.0328699 9.24907e-06 3.07059e-23)
(0.0335097 2.15542e-06 -2.90301e-23)
(0.0332389 5.41215e-05 -1.80643e-24)
(1.00123 -0.0129776 0)
(1.00423 -0.0381607 -3.83463e-23)
(1.01441 -0.0626644 0)
(1.03483 -0.0850484 -5.90835e-23)
(1.06635 -0.101824 4.8903e-21)
(1.1094 -0.108416 2.92305e-21)
(1.15798 -0.0995337 -1.57799e-24)
(1.20742 -0.0768945 0)
(1.25032 -0.0415423 5.80944e-21)
(1.28263 -0.00251338 0)
(1.30606 0.0323763 1.94537e-24)
(1.32398 0.0601733 -9.80735e-24)
(1.33886 0.0808588 1.18586e-20)
(1.35206 0.0953373 -1.28817e-20)
(1.36416 0.104804 -1.33525e-20)
(1.37531 0.110547 -1.34707e-20)
(1.38472 0.113452 1.32828e-20)
(1.38612 0.113184 -6.53494e-21)
(1.35944 0.107212 6.48152e-21)
(1.27128 0.0922634 0)
(1.09844 0.0686195 -2.64358e-24)
(0.852165 0.0424674 1.23698e-20)
(0.570616 0.0206962 -4.69921e-21)
(0.381496 0.0101657 1.03813e-21)
(0.387251 0.00941674 -4.11195e-24)
(0.255567 0.00413492 -5.97991e-23)
(0.256506 0.00359181 -3.73269e-21)
(0.153228 0.000823222 -1.33162e-21)
(0.146564 0.000890792 0)
(0.113839 9.19277e-05 -2.82106e-21)
(0.128982 0.00332841 5.39569e-21)
(0.034791 -0.000394625 0)
(0.0326359 -0.000175288 4.67638e-22)
(0.0322805 -7.99235e-06 4.48819e-23)
(0.0322686 7.66461e-06 -1.80584e-24)
(1.00117 -0.013532 0)
(1.0029 -0.0407341 0)
(1.01117 -0.0690534 0)
(1.03033 -0.097318 0)
(1.06262 -0.121605 0)
(1.10972 -0.135435 -2.83195e-21)
(1.16403 -0.131166 0)
(1.22106 -0.11002 3.17424e-21)
(1.26898 -0.0702517 -5.59468e-21)
(1.30143 -0.0249855 3.32456e-24)
(1.32158 0.0152129 -1.05231e-23)
(1.33486 0.0470964 -1.15173e-20)
(1.34491 0.0710297 -1.22771e-23)
(1.35361 0.0882221 1.26862e-20)
(1.36176 0.0999825 1.32076e-20)
(1.36975 0.107625 1.34943e-20)
(1.37766 0.112268 -6.72464e-21)
(1.38398 0.114493 6.57714e-21)
(1.38086 0.113581 3.10462e-23)
(1.34717 0.106819 6.40085e-21)
(1.25168 0.0911324 1.31282e-20)
(1.0749 0.0674862 -1.41945e-20)
(0.829094 0.041941 6.38637e-24)
(0.550894 0.0200291 -4.49073e-24)
(0.367614 0.00976498 -6.42977e-23)
(0.374309 0.00929053 6.40637e-23)
(0.247485 0.00432354 -7.61782e-22)
(0.252066 0.00416571 5.89215e-23)
(0.15577 0.00175131 0)
(0.156597 0.00149421 3.34774e-22)
(0.15617 0.00117117 6.6744e-22)
(0.157246 0.00152497 3.3432e-22)
(0.0878504 0.000244883 1.78465e-21)
(0.0829242 0.0007029 0)
(0.0384316 -0.000348034 2.11848e-21)
(0.055924 0.00412396 -3.64692e-21)
(1.00105 -0.013613 2.34803e-20)
(1.00112 -0.0420507 2.31827e-20)
(1.0066 -0.0738108 0)
(1.0234 -0.108329 1.82989e-20)
(1.05558 -0.141448 -1.39563e-20)
(1.1067 -0.164364 0)
(1.16805 -0.166964 6.1629e-22)
(1.23655 -0.148605 3.17283e-22)
(1.29247 -0.102252 6.98098e-21)
(1.32587 -0.048481 8.0336e-24)
(1.34254 -0.00178842 1.10234e-23)
(1.35081 0.0345998 1.12522e-20)
(1.35569 0.0618338 -1.26967e-20)
(1.3595 0.0816239 3.80838e-23)
(1.36325 0.0954986 1.27456e-23)
(1.36747 0.104854 0)
(1.3724 0.110897 1.36761e-20)
(1.37787 0.114529 0)
(1.38158 0.116049 -6.48514e-21)
(1.37425 0.114375 -1.26799e-20)
(1.33403 0.106592 -1.25785e-20)
(1.23152 0.0901197 6.45559e-21)
(1.05062 0.066525 3.4874e-21)
(0.805277 0.0411715 0)
(0.532293 0.0199491 -5.8122e-22)
(0.353176 0.00899149 -9.48027e-22)
(0.360058 0.00870836 9.50993e-22)
(0.237447 0.00406486 -5.82828e-23)
(0.242476 0.004061 5.55317e-23)
(0.14953 0.00180599 -2.47823e-22)
(0.151065 0.00157986 -1.03359e-22)
(0.154173 0.00151634 2.08276e-22)
(0.152866 0.00175321 -2.0909e-23)
(0.0897719 0.000552029 -2.34321e-24)
(0.0904536 0.000485212 -2.25494e-22)
(0.0902979 0.000319315 -5.9891e-22)
(0.0908252 0.000469306 -3.00721e-22)
(0.0278634 -0.000183303 -4.24725e-22)
(0.0271732 -0.000454491 -8.30266e-22)
(0.0155554 0.00123069 4.33405e-22)
(1.00084 -0.0131218 -4.79949e-20)
(0.998884 -0.0417418 -2.317e-20)
(1.00055 -0.0761865 0)
(1.01336 -0.117033 -1.82927e-20)
(1.04375 -0.160487 -2.22871e-21)
(1.09813 -0.195022 0)
(1.16837 -0.208683 -6.00425e-22)
(1.25474 -0.195439 -1.0266e-20)
(1.32273 -0.138894 -1.45409e-20)
(1.35744 -0.0732725 0)
(1.36972 -0.0185543 -1.18798e-20)
(1.37218 0.0228497 1.25588e-20)
(1.37136 0.0534725 1.23689e-20)
(1.36987 0.07576 0)
(1.36884 0.0915746 -2.57926e-23)
(1.36882 0.102459 0)
(1.37012 0.109708 -1.35964e-20)
(1.37285 0.114342 6.61697e-24)
(1.37648 0.11705 1.32654e-20)
(1.3779 0.117832 -4.33319e-23)
(1.36654 0.115248 1.24412e-20)
(1.31998 0.106393 0)
(1.21072 0.089256 -3.05953e-24)
(1.02602 0.0655335 0)
(0.781464 0.0407561 0)
(0.513677 0.0194243 -4.79472e-21)
(0.340688 0.00590104 0)
(0.344738 0.00768725 9.99889e-22)
(0.227685 0.00352338 0)
(0.232498 0.00371826 -1.15572e-22)
(0.142857 0.00168774 1.01804e-22)
(0.144348 0.00146727 2.2448e-22)
(0.147626 0.00147778 -8.19502e-23)
(0.14615 0.00169808 -8.19895e-23)
(0.0859005 0.000570399 7.41924e-23)
(0.086935 0.000524768 -7.44002e-23)
(0.0888388 0.000488609 -1.47132e-22)
(0.0879559 0.000548965 0)
(0.0284207 3.46948e-05 1.73238e-24)
(0.0286878 2.12957e-05 -5.70403e-23)
(0.0287932 -1.61635e-05 -5.16111e-24)
(0.0288784 2.17957e-05 -1.7303e-24)
(1.00055 -0.0119962 2.45252e-20)
(0.996312 -0.0394837 2.59379e-20)
(0.99311 -0.0753076 9.24501e-23)
(0.99956 -0.12189 0)
(1.0251 -0.177276 3.48663e-20)
(1.08139 -0.227545 5.53711e-23)
(1.16366 -0.259527 -2.62304e-21)
(1.27831 -0.255069 6.67182e-21)
(1.36372 -0.182167 7.46521e-21)
(1.39926 -0.0998119 1.17454e-23)
(1.405 -0.0350237 2.43587e-20)
(1.3999 0.0120336 -1.22304e-20)
(1.39231 0.0461647 2.4674e-23)
(1.38492 0.0708584 2.56008e-23)
(1.37867 0.0884299 0)
(1.37402 0.100647 -2.70404e-23)
(1.37125 0.108922 0)
(1.37049 0.114354 0)
(1.37166 0.117764 -1.33471e-20)
(1.37388 0.119618 6.45704e-21)
(1.37321 0.11961 -6.23891e-21)
(1.35783 0.116063 -6.10287e-21)
(1.30506 0.106225 0)
(1.18949 0.0884162 7.284e-26)
(1.00142 0.0645674 0)
(0.75816 0.0398614 3.88838e-21)
(0.270214 0.00421599 0)
(0.495173 0.0192995 0)
(0.218475 0.000514674 -6.52723e-23)
(0.225147 0.00284575 5.71909e-23)
(0.136683 0.00128938 0)
(0.138067 0.00120913 0)
(0.141073 0.00133747 6.083e-23)
(0.139725 0.0015275 2.62251e-22)
(0.0818975 0.000526822 -1.09563e-22)
(0.0828737 0.000486422 -7.32595e-23)
(0.0848144 0.00047876 -7.37193e-23)
(0.0838784 0.000527455 7.34957e-23)
(0.0270978 3.70087e-05 1.70617e-23)
(0.0274585 3.00011e-05 -3.4206e-24)
(0.0281138 2.01815e-05 0)
(0.0278186 3.60225e-05 0)
(1.00021 -0.0102374 0)
(0.993643 -0.0351055 1.30225e-21)
(0.984722 -0.0703953 4.97337e-23)
(0.981977 -0.120991 1.96765e-22)
(0.997616 -0.18899 -1.88865e-20)
(1.05308 -0.26147 -1.53834e-20)
(1.15186 -0.324638 6.83796e-21)
(1.30917 -0.333057 3.0978e-23)
(1.41827 -0.233644 1.25804e-23)
(1.45387 -0.128272 -2.75734e-20)
(1.45057 -0.0510752 -1.24498e-20)
(1.43567 0.00233843 2.50843e-23)
(1.41958 0.0401432 -1.42585e-20)
(1.40513 0.0671489 0)
(1.39296 0.0862844 2.74631e-23)
(1.38324 0.0996197 2.73451e-23)
(1.37602 0.108725 2.70247e-23)
(1.37135 0.114781 0)
(1.36918 0.118671 1.36289e-20)
(1.36926 0.121021 0)
(1.37036 0.122069 1.27321e-20)
(1.36765 0.121264 6.09499e-21)
(1.34823 0.116802 0)
(1.28947 0.106025 5.91293e-21)
(1.16804 0.0875754 3.01048e-24)
(0.977201 0.0635868 0)
(0.735757 0.0392256 0)
(0.257416 0.00507825 0)
(0.097956 0.000941911 6.61216e-23)
(0.0990924 0.000123887 -6.60199e-23)
(0.478437 0.0189181 -4.51752e-24)
(0.102598 0.000716306 0)
(0.13503 0.000498217 0)
(0.134275 -0.000338868 0)
(0.0785181 0.000286146 0)
(0.0792303 0.000372882 -1.80685e-23)
(0.0808994 0.000429101 -7.25241e-23)
(0.0800706 0.000460336 -5.42451e-23)
(0.0257773 3.33541e-05 2.69317e-23)
(0.0261108 2.73756e-05 0)
(0.0267559 2.06636e-05 -1.36501e-23)
(0.026454 3.40265e-05 0)
(0.999842 -0.00791816 0)
(0.991185 -0.0286861 -2.7314e-20)
(0.97628 -0.0610899 -2.89845e-20)
(0.961997 -0.112481 2.90501e-20)
(0.961592 -0.190781 -1.88111e-22)
(1.00745 -0.29117 -5.24814e-21)
(1.12364 -0.407276 -1.14009e-20)
(1.33708 -0.432122 0)
(1.47512 -0.2908 -3.34147e-23)
(1.51231 -0.156001 5.90094e-20)
(1.50207 -0.0655442 -2.93315e-23)
(1.47871 -0.0056938 0)
(1.45393 0.0357288 2.88888e-20)
(1.43137 0.0648909 -1.48009e-20)
(1.41225 0.0853537 0)
(1.39675 0.0995702 -1.44646e-20)
(1.38464 0.109291 -2.73702e-23)
(1.37569 0.115789 0)
(1.36974 0.119995 1.79967e-22)
(1.36664 0.122592 1.34141e-20)
(1.36598 0.124018 -2.57617e-20)
(1.3661 0.12432 -2.9857e-24)
(1.36133 0.122767 -6.5596e-26)
(1.33788 0.11743 -5.76957e-21)
(1.27337 0.105758 0)
(1.1466 0.0867314 -5.97877e-21)
(0.953723 0.0627221 -3.1434e-24)
(0.714893 0.0385704 7.55394e-21)
(0.246715 0.00519226 1.78469e-22)
(0.0938345 0.0010263 -6.44779e-23)
(0.0953776 0.000184364 -3.24243e-23)
(0.0223663 0.000157475 1.21547e-23)
(0.0224306 -7.36925e-06 1.74868e-24)
(0.0226537 8.06415e-05 -2.82461e-23)
(0.0228386 -0.000163558 2.83455e-23)
(0.463792 0.0184449 -4.63986e-21)
(0.0233469 0.000283423 0)
(0.0234514 1.59624e-06 0)
(0.0773653 -0.0010171 0)
(0.078649 -0.000223429 3.56721e-23)
(0.0246876 2.2071e-05 -3.32482e-24)
(0.0249328 1.67375e-05 3.31874e-24)
(0.0254691 1.76552e-05 0)
(0.0252084 2.8257e-05 0)
(0.999477 -0.00517391 -5.46954e-23)
(0.989231 -0.0205761 0)
(0.968966 -0.0476945 2.94134e-20)
(0.942493 -0.0953176 -2.9679e-20)
(0.920771 -0.177167 -3.16329e-20)
(0.938577 -0.303868 2.08304e-20)
(1.05191 -0.494376 7.25772e-21)
(1.32145 -0.542908 -3.07747e-24)
(1.48648 -0.340897 3.66569e-20)
(1.53228 -0.173701 8.03645e-21)
(1.53153 -0.0739218 -6.5574e-23)
(1.51469 -0.0100164 3.00701e-23)
(1.49003 0.0338059 -1.46144e-20)
(1.46263 0.0645191 -9.79535e-22)
(1.43689 0.0859081 0)
(1.41501 0.100696 -5.22327e-22)
(1.39741 0.110788 0)
(1.38376 0.117528 0)
(1.37368 0.121886 -2.74724e-20)
(1.36692 0.124569 -1.33195e-20)
(1.36324 0.126083 2.61477e-20)
(1.36205 0.126712 -6.05752e-24)
(1.36126 0.126351 2.96906e-24)
(1.3544 0.124098 -5.6489e-24)
(1.32694 0.117918 0)
(1.25692 0.105407 -2.32592e-23)
(1.12543 0.0858864 0)
(0.93136 0.0618528 -6.42343e-21)
(0.695971 0.0379026 -7.46359e-21)
(0.237309 0.0050739 5.94603e-21)
(0.0894076 0.00108158 -3.17709e-23)
(0.0911345 0.000301502 -2.22503e-22)
(0.0214516 0.00014991 1.37492e-23)
(0.0215921 1.00368e-05 2.74896e-23)
(0.0218858 5.16941e-05 2.76343e-23)
(0.0220138 -0.000132111 -1.39204e-23)
(0.452419 0.0180316 -9.13034e-21)
(0.0242863 -0.000324877 1.6524e-24)
(0.0248213 -9.0497e-05 -2.80331e-23)
(0.999138 -0.002177 2.7732e-20)
(0.987981 -0.0113261 1.77193e-22)
(0.963785 -0.0311728 2.63319e-22)
(0.926798 -0.0702012 -3.47594e-20)
(0.880251 -0.145336 7.13953e-20)
(0.849218 -0.286508 -7.04499e-22)
(0.899645 -0.54669 5.32059e-21)
(1.18088 -0.631454 -1.56431e-21)
(1.35138 -0.350142 -2.49678e-20)
(1.41902 -0.163784 -9.49941e-20)
(1.4678 -0.0667334 0)
(1.4986 -0.00612231 1.37762e-22)
(1.5036 0.0365871 0)
(1.4884 0.0670099 -1.05043e-21)
(1.46357 0.0884256 5.87209e-23)
(1.43756 0.10327 1.44615e-20)
(1.41457 0.113397 0)
(1.39583 0.120141 -2.73462e-23)
(1.38125 0.124469 2.76668e-20)
(1.37048 0.127091 1.36503e-20)
(1.36324 0.12853 -2.6349e-20)
(1.35921 0.129147 1.27692e-20)
(1.35763 0.129103 1.19039e-23)
(1.35596 0.128157 1.17256e-20)
(1.34697 0.12524 2.77926e-24)
(1.3155 0.118254 5.46841e-21)
(1.24029 0.104971 0)
(1.10477 0.0850116 0)
(0.910387 0.0609942 2.72632e-24)
(0.679516 0.0374087 0)
(0.230784 0.00463764 1.23267e-20)
(0.0852739 0.00108795 -3.12361e-23)
(0.0867234 0.000297919 -4.84948e-22)
(0.0203555 0.000159973 0)
(0.0205199 1.58874e-05 2.70028e-23)
(0.0208625 6.07696e-05 0)
(0.0210358 -0.000115664 -1.3547e-23)
(0.446929 0.0188343 -8.8932e-21)
(0.998841 0.000893172 -5.52279e-20)
(0.987498 -0.00157257 -2.98747e-20)
(0.961255 -0.0129059 3.21896e-20)
(0.917274 -0.0397475 -1.6522e-21)
(0.849727 -0.0977038 -8.27443e-20)
(0.761722 -0.2285 3.97819e-22)
(0.783443 -0.461511 7.1357e-22)
(0.69956 -0.433101 0)
(0.964246 -0.74749 2.84301e-21)
(0.771001 -0.694449 1.55227e-22)
(0.694732 -0.611404 -1.00997e-20)
(1.17056 -0.395134 -6.59425e-23)
(0.809636 -0.498537 3.41293e-23)
(0.825999 -0.263755 0)
(1.03907 -0.0993715 9.92126e-20)
(0.901912 -0.166844 -3.5129e-20)
(1.20384 -0.0311715 5.52398e-20)
(1.35055 0.0112987 0)
(1.44008 0.0469884 3.82372e-20)
(1.47677 0.0739155 1.62682e-20)
(1.47694 0.0937008 0)
(1.45861 0.107738 -5.93677e-23)
(1.43465 0.117383 -2.83096e-23)
(1.41183 0.123798 2.75679e-23)
(1.39267 0.127871 -1.37304e-20)
(1.3776 0.130269 -1.35015e-20)
(1.36647 0.131496 1.31257e-20)
(1.35897 0.131929 -1.28166e-20)
(1.35475 0.131813 -1.24051e-20)
(1.35286 0.131208 -1.17976e-20)
(1.35031 0.129735 -5.53336e-24)
(1.33911 0.126188 -2.62932e-24)
(1.30368 0.11844 -5.3488e-21)
(1.22366 0.104448 0)
(1.08481 0.0841242 5.6358e-21)
(0.890994 0.0602628 -3.00634e-24)
(0.665929 0.0375505 0)
(0.238481 0.0055077 1.03091e-20)
(0.0837378 0.00108553 6.05396e-23)
(0.0831988 9.02892e-05 -2.0912e-21)
(0.0192634 0.00016447 0)
(0.0193995 1.75168e-05 2.65073e-23)
(0.0197428 6.66229e-05 -3.33893e-24)
(0.0199218 -0.000119677 -1.00279e-23)
(0.441351 0.0186646 -8.69202e-24)
(0.998592 0.00387705 2.74611e-20)
(0.987717 0.00808334 2.97912e-20)
(0.961335 0.00563736 -3.27599e-20)
(0.914625 -0.00740931 7.60148e-20)
(0.835798 -0.0419972 4.51977e-20)
(0.708558 -0.132733 5.6011e-20)
(0.622306 -0.371882 7.26704e-23)
(0.558638 -0.297018 2.21236e-20)
(0.561441 -0.556923 0)
(0.65788 -0.685702 0)
(0.46065 -0.47454 0)
(0.382251 -0.32561 7.96337e-21)
(0.59929 -0.478538 -5.88909e-21)
(0.551939 -0.636392 -2.87153e-21)
(0.612224 -0.280884 -5.58263e-23)
(0.237239 -0.120876 -5.69535e-21)
(0.20935 -0.139553 0)
(0.196929 -0.0520322 -4.87395e-21)
(0.313152 -0.078077 0)
(0.659844 -0.167385 0)
(0.606081 -0.0139996 -2.60137e-20)
(0.674959 0.0334116 -5.47474e-20)
(0.370454 0.0178438 -3.97996e-20)
(0.461474 -0.0515874 -4.71104e-22)
(0.997668 0.0438467 5.73119e-20)
(1.22906 0.0649217 -4.32639e-20)
(1.37186 0.0856002 1.48033e-22)
(1.44074 0.10219 3.47386e-20)
(1.45894 0.114523 1.60579e-20)
(1.44948 0.123078 0)
(1.42915 0.12873 6.32505e-25)
(1.40743 0.132246 -1.41613e-20)
(1.38838 0.134213 -2.69279e-23)
(1.37318 0.135083 0)
(1.3619 0.135201 -1.29891e-20)
(1.35431 0.134827 1.24605e-20)
(1.35001 0.13412 -1.20218e-20)
(1.34785 0.133041 0)
(1.34437 0.131092 7.25389e-26)
(1.3309 0.126946 5.28771e-21)
(1.29159 0.118477 0)
(1.20714 0.103846 0)
(1.06564 0.0832704 0)
(0.873107 0.0597604 3.04186e-24)
(0.652809 0.0369463 -7.15759e-21)
(0.243141 0.00621445 2.58923e-21)
(0.110695 0.000659915 0)
(0.0945264 0.000702245 -1.95789e-21)
(0.0197983 0.00012284 0)
(0.0186923 -0.000143374 -6.66025e-24)
(0.0188296 8.86127e-06 1.11483e-22)
(0.0188525 -0.000145846 0)
(0.430935 0.0184299 0)
(0.998388 0.00665196 0)
(0.988485 0.0171573 2.83827e-23)
(0.963539 0.023206 -1.34184e-22)
(0.918147 0.0235206 -7.65025e-20)
(0.838647 0.0135244 0)
(0.701282 -0.0252741 -6.14018e-20)
(0.515333 -0.202183 -2.41372e-20)
(0.490114 -0.102447 4.26945e-22)
(0.425209 -0.466555 -2.14619e-20)
(0.318544 -0.353562 2.21116e-20)
(0.279252 -0.474209 3.58021e-21)
(0.435311 -0.586265 -1.06561e-21)
(0.346221 -0.372767 0)
(0.187492 -0.214642 -1.98943e-22)
(0.179375 -0.0101707 1.07397e-20)
(0.317761 0.0143449 0)
(0.231798 0.0240315 -1.46201e-20)
(0.234598 0.0473866 1.99817e-20)
(0.481953 0.0738348 -8.08232e-20)
(0.193302 0.0282541 -4.97301e-20)
(0.158975 0.022538 -1.47618e-23)
(0.117577 0.00990315 0)
(0.846367 0.0818222 8.43917e-24)
(1.12217 0.097477 0)
(1.30373 0.111815 -3.75712e-20)
(1.40091 0.122914 -1.65662e-20)
(1.43712 0.130414 0)
(1.43751 0.135093 -5.66333e-23)
(1.42177 0.137771 -2.71246e-22)
(1.40184 0.139061 -5.35166e-23)
(1.38333 0.139389 0)
(1.36824 0.13906 2.5934e-20)
(1.35697 0.138302 1.262e-20)
(1.3494 0.137289 1.20894e-20)
(1.34509 0.136104 -1.14918e-23)
(1.34267 0.134623 5.34923e-24)
(1.3382 0.132235 1.06828e-20)
(1.3224 0.127518 0)
(1.27932 0.11837 0)
(1.19082 0.10318 0)
(1.04719 0.0824534 0)
(0.855764 0.05885 6.05134e-21)
(0.637717 0.0361937 0)
(0.236849 0.00641309 -3.14884e-22)
(0.113288 0.00207908 -6.36209e-23)
(0.1141 0.00118946 -3.85824e-21)
(0.0528578 0.00014524 1.90764e-23)
(0.0489482 0.000717001 -3.31917e-23)
(0.0323229 0.00245859 3.2951e-21)
(0.0222158 -0.000326166 -1.84237e-21)