/*--------------------------------*- C++ -*----------------------------------*\
| =========                 |                                                 |
| \\      /  F ield         | OpenFOAM: The Open Source CFD Toolbox           |
|  \\    /   O peration     | Version:  v1912                                 |
|   \\  /    A nd           | Website:  www.openfoam.com                      |
|    \\/     M anipulation  |                                                 |
\*---------------------------------------------------------------------------*/
FoamFile
{
    version     2.0;
    format      ascii;
    class       volScalarField;
    location    "190";
    object      p;
}
// * * * * * * * * * * * * * * * * * * * * * * * * * * * * * * * * * * * * * //

dimensions      [0 2 -2 0 0 0 0];


internalField   nonuniform List<scalar> 
3753
(
-0.00712271
-0.00710077
-0.00686156
-0.00706047
-0.00684061
-0.0065989
-0.00702572
-0.00679927
-0.00657922
-0.00635138
-0.00700321
-0.0067638
-0.00654153
-0.00633284
-0.00610873
-0.00699949
-0.00673838
-0.00650936
-0.00629458
-0.00609078
-0.00587386
-0.00702335
-0.0067302
-0.00648306
-0.0062594
-0.0060547
-0.00585572
-0.00564956
-0.00708485
-0.0067458
-0.00646932
-0.00623282
-0.00602431
-0.00582044
-0.00563191
-0.00543026
-0.00718523
-0.00679321
-0.00647689
-0.0062201
-0.00600116
-0.00579086
-0.00559659
-0.00541324
-0.00521759
-0.00732543
-0.00687806
-0.00651162
-0.00622773
-0.00598957
-0.00576792
-0.00556611
-0.00537923
-0.00520125
-0.0050127
-0.00750213
-0.00700219
-0.00657558
-0.00625942
-0.00599763
-0.00575933
-0.00554377
-0.00535131
-0.00516763
-0.00499538
-0.00481419
-0.00770011
-0.00716533
-0.00666393
-0.0063166
-0.0060316
-0.00577135
-0.00553604
-0.00533139
-0.00513809
-0.00496287
-0.00479813
-0.00461719
-0.00787152
-0.00737507
-0.00677453
-0.00639993
-0.00609606
-0.00580779
-0.00554934
-0.0053236
-0.00511813
-0.00493782
-0.0047655
-0.00460166
-0.00442819
-0.00761247
-0.007975
-0.00796565
-0.00690517
-0.00650725
-0.0061905
-0.00587321
-0.00558844
-0.00533619
-0.00511304
-0.00491834
-0.00473638
-0.00457042
-0.00441335
-0.00424168
-0.00706461
-0.00754418
-0.00791518
-0.00795928
-0.00801606
-0.00663545
-0.0063098
-0.00596747
-0.00565562
-0.00537399
-0.00512698
-0.00491065
-0.00471748
-0.00454591
-0.00438242
-0.00422787
-0.00406138
-0.00679141
-0.00713012
-0.00728456
-0.00764487
-0.00814255
-0.0079603
-0.00795741
-0.00807877
-0.00644527
-0.00608785
-0.00575069
-0.00544058
-0.00516656
-0.00492427
-0.00471376
-0.00452868
-0.00435654
-0.00419871
-0.00404671
-0.0038884
-0.00659254
-0.00687762
-0.00703308
-0.00723567
-0.00734816
-0.00759533
-0.00769439
-0.00786677
-0.00849181
-0.00790253
-0.00800855
-0.00811287
-0.00622785
-0.00586842
-0.00553538
-0.00523439
-0.00496362
-0.0047282
-0.00452424
-0.00433909
-0.00417558
-0.00401821
-0.00387524
-0.00371315
-0.00637266
-0.00664785
-0.00678631
-0.00697504
-0.00711753
-0.0072859
-0.00736732
-0.00748819
-0.00739923
-0.00756699
-0.00718534
-0.00745183
-0.0090342
-0.00801969
-0.00807686
-0.00816091
-0.00600398
-0.00565467
-0.00532804
-0.00502961
-0.00476732
-0.00453873
-0.00433467
-0.00415974
-0.00399606
-0.00384608
-0.00370008
-0.00354686
-0.00615031
-0.00641874
-0.00654954
-0.00673201
-0.00686123
-0.00700009
-0.0070827
-0.00721977
-0.00714179
-0.00734272
-0.0074042
-0.00752041
-0.00746945
-0.00753882
-0.00976476
-0.00578911
-0.00544114
-0.00512208
-0.00483322
-0.00457624
-0.00434979
-0.00415668
-0.00398179
-0.00382333
-0.00367403
-0.00353384
-0.00337997
-0.00593202
-0.00619982
-0.00632228
-0.00650068
-0.00661942
-0.00675825
-0.00682837
-0.0069557
-0.00687908
-0.00704543
-0.00711021
-0.00725251
-0.00718383
-0.00557129
-0.00523857
-0.00492433
-0.00463905
-0.00438906
-0.00417241
-0.00398045
-0.00381067
-0.00365455
-0.00350619
-0.00336815
-0.0032154
-0.00571316
-0.00598245
-0.00609869
-0.00627957
-0.00638996
-0.00652999
-0.00659456
-0.00670287
-0.00664514
-0.00679409
-0.00686484
-0.00698912
-0.00691479
-0.00536991
-0.00503473
-0.00472784
-0.0044541
-0.00420915
-0.00399628
-0.00381076
-0.00364215
-0.00348542
-0.00334294
-0.00320528
-0.00306006
-0.00550736
-0.00576604
-0.0058802
-0.00605628
-0.00616862
-0.00630878
-0.00636832
-0.00647438
-0.00641601
-0.00656374
-0.00663295
-0.00673683
-0.00668009
-0.00515991
-0.00483866
-0.00454163
-0.00427055
-0.00403467
-0.00382799
-0.00364379
-0.00347503
-0.00332437
-0.00318116
-0.00304785
-0.0029028
-0.00529545
-0.00556001
-0.00566514
-0.00583939
-0.00595354
-0.00608365
-0.00614652
-0.00624954
-0.00620013
-0.00634466
-0.00640365
-0.00651201
-0.00644983
-0.00496514
-0.00464914
-0.00435712
-0.00409531
-0.0038665
-0.00366396
-0.0034794
-0.00331495
-0.00316325
-0.00302224
-0.0028929
-0.00274904
-0.00509955
-0.00534984
-0.00545449
-0.00563023
-0.00573514
-0.0058721
-0.00592457
-0.00603626
-0.00597755
-0.00612032
-0.00618064
-0.006285
-0.0062369
-0.00477138
-0.00446371
-0.00417739
-0.00392676
-0.00370357
-0.00350241
-0.00332092
-0.00315542
-0.00300461
-0.0028688
-0.00273864
-0.00259956
-0.00490118
-0.00515141
-0.00525173
-0.00542186
-0.00552655
-0.00565662
-0.00571522
-0.00581605
-0.00576213
-0.00590827
-0.00596057
-0.0060706
-0.00601069
-0.00458389
-0.00428066
-0.0040086
-0.00376475
-0.0035473
-0.00334681
-0.00316168
-0.00299549
-0.00285046
-0.00271497
-0.0025903
-0.00245194
-0.00471285
-0.00495534
-0.00505137
-0.00522035
-0.00531853
-0.00545503
-0.00549868
-0.00560749
-0.00555383
-0.00569094
-0.0057509
-0.00584895
-0.00579633
-0.00439979
-0.00410809
-0.003845
-0.0036113
-0.0033942
-0.00318851
-0.0030027
-0.00284132
-0.00269706
-0.00256763
-0.00244302
-0.00230646
-0.00452667
-0.0047668
-0.00485707
-0.00502429
-0.00511789
-0.00524957
-0.00529922
-0.0053956
-0.00534657
-0.00548817
-0.00552816
-0.00563903
-0.00559306
-0.00422279
-0.00394139
-0.00369165
-0.003462
-0.00324104
-0.00303071
-0.00284572
-0.00268788
-0.0025517
-0.00242096
-0.00229782
-0.002163
-0.00434764
-0.00457976
-0.00467007
-0.00483325
-0.00492177
-0.00505392
-0.00509804
-0.00519634
-0.00514495
-0.00528113
-0.00533037
-0.0054297
-0.00538204
-0.00405159
-0.00378426
-0.0035464
-0.00331748
-0.00308316
-0.00287043
-0.00269163
-0.00254331
-0.00240623
-0.00227719
-0.00215546
-0.00202411
-0.0041728
-0.00440184
-0.00448555
-0.00464335
-0.00473698
-0.004859
-0.00490686
-0.00499977
-0.00494796
-0.00508742
-0.005125
-0.00523384
-0.00517723
-0.00388826
-0.00364033
-0.00341243
-0.00316298
-0.00291902
-0.00271244
-0.00254641
-0.00239939
-0.0022637
-0.00213561
-0.00201718
-0.00188483
-0.00400591
-0.00422887
-0.00430901
-0.00446435
-0.00455044
-0.0046701
-0.00471899
-0.00481141
-0.00476345
-0.00489156
-0.00493401
-0.00503697
-0.00497849
-0.00373811
-0.00351288
-0.00326746
-0.00299459
-0.00275327
-0.00256527
-0.00240571
-0.00225864
-0.00212274
-0.00199859
-0.00187795
-0.00174902
-0.00384533
-0.00406623
-0.00413508
-0.00429054
-0.00437232
-0.00449275
-0.0045329
-0.00462077
-0.00457876
-0.00470445
-0.00474955
-0.00484785
-0.00479156
-0.00360397
-0.00339171
-0.00309793
-0.00281507
-0.00260136
-0.00242713
-0.00226703
-0.002121
-0.0019885
-0.0018601
-0.0017432
-0.00161059
-0.00369219
-0.00390925
-0.00396948
-0.00412341
-0.00419943
-0.00431703
-0.00436011
-0.00444291
-0.00439729
-0.00452608
-0.00456068
-0.0046521
-0.00460799
-0.00350995
-0.00323226
-0.00289441
-0.00265389
-0.00246647
-0.00229337
-0.0021332
-0.00198796
-0.00185258
-0.00172641
-0.0016068
-0.00147418
-0.00358257
-0.00376078
-0.00380921
-0.00396285
-0.00403625
-0.00415194
-0.0041853
-0.00426725
-0.00422791
-0.00434822
-0.00439012
-0.004474
-0.0044246
-0.00340281
-0.00298953
-0.00272019
-0.00252297
-0.0023383
-0.00216307
-0.00200243
-0.00185622
-0.00171886
-0.0015923
-0.00147024
-0.0013389
-0.00358344
-0.00362364
-0.00366319
-0.00381047
-0.00387987
-0.00399076
-0.00402458
-0.00410204
-0.00406345
-0.00418458
-0.00421089
-0.00429774
-0.004256
-0.00310664
-0.00279409
-0.00259479
-0.00240166
-0.00221153
-0.00203546
-0.0018744
-0.00172403
-0.00158794
-0.00145673
-0.00133681
-0.00120194
-0.0032386
-0.0037177
-0.00360751
-0.00362981
-0.00372729
-0.00384309
-0.00386789
-0.00394462
-0.00391432
-0.00402033
-0.00405138
-0.00413137
-0.00408883
-0.0028749
-0.00268096
-0.00248204
-0.0022781
-0.00208686
-0.00191016
-0.00174627
-0.00159657
-0.00145564
-0.00132573
-0.00120197
-0.00106421
-0.00298399
-0.00320503
-0.00341009
-0.00393694
-0.00356092
-0.003693
-0.00370784
-0.00379556
-0.00377234
-0.00386826
-0.00389796
-0.00397417
-0.00394022
-0.0027748
-0.002576
-0.00236018
-0.00215638
-0.00196607
-0.00178788
-0.00162197
-0.00146919
-0.00132722
-0.0011923
-0.00106429
-0.000925573
-0.00287905
-0.00307431
-0.00316345
-0.00324658
-0.00345724
-0.00428983
-0.00337834
-0.00358629
-0.00352422
-0.00372784
-0.00375825
-0.00382876
-0.00379751
-0.00267804
-0.00245392
-0.00224012
-0.00203898
-0.00184799
-0.00166794
-0.00150123
-0.00134254
-0.00119595
-0.00105611
-0.000928346
-0.000785039
-0.00277856
-0.00294008
-0.00302623
-0.00315059
-0.00322637
-0.0033143
-0.0033591
-0.00319
-0.00336728
-0.0049464
-0.00342183
-0.00366651
-0.00356894
-0.00255614
-0.00233385
-0.00212517
-0.0019233
-0.00173242
-0.00155175
-0.00137775
-0.00121758
-0.00106417
-0.000923077
-0.000788868
-0.00063944
-0.00265781
-0.00281608
-0.00289417
-0.00300155
-0.00307919
-0.00316846
-0.00322391
-0.00330877
-0.00325975
-0.00243214
-0.00221938
-0.00201083
-0.00181209
-0.00162049
-0.00143498
-0.00126008
-0.00109127
-0.000934797
-0.000785897
-0.000645903
-0.000492018
-0.00253364
-0.00269538
-0.00276655
-0.00287292
-0.0029398
-0.00301993
-0.0030596
-0.00313422
-0.00309275
-0.00231737
-0.00210546
-0.00190199
-0.00170438
-0.0015108
-0.00132395
-0.0011402
-0.00096573
-0.000801265
-0.000645497
-0.000500782
-0.000339733
-0.00241689
-0.00257448
-0.00264177
-0.00275032
-0.0028117
-0.00289591
-0.00293007
-0.00298801
-0.00295593
-0.00220345
-0.00199631
-0.00179564
-0.00159961
-0.00140583
-0.00121131
-0.00102182
-0.000838983
-0.000665689
-0.000503363
-0.000351019
-0.000183882
-0.00230079
-0.00245796
-0.00252297
-0.00262764
-0.00268819
-0.00276991
-0.0028027
-0.00286228
-0.00283008
-0.00209228
-0.00189044
-0.00169575
-0.0014991
-0.00130213
-0.00110261
-0.000903883
-0.000710707
-0.000528293
-0.000356931
-0.000197324
-2.05461e-05
-0.00218861
-0.00234279
-0.0024031
-0.00251013
-0.00257053
-0.00264836
-0.00268164
-0.00273861
-0.00270821
-0.00198628
-0.0017924
-0.00159733
-0.00140361
-0.00120188
-0.0009932
-0.000784669
-0.000580894
-0.000387744
-0.00020565
-3.75687e-05
0.000147744
-0.00208054
-0.00223118
-0.00228969
-0.00239197
-0.00245015
-0.00253655
-0.00256067
-0.00261832
-0.00259006
-0.00188621
-0.00169516
-0.00150836
-0.00131114
-0.00110233
-0.000885297
-0.000664426
-0.000448009
-0.000241685
-5.03288e-05
0.000128779
0.000322508
-0.00197817
-0.00212319
-0.00217855
-0.00227985
-0.00233697
-0.00241226
-0.00244259
-0.00249952
-0.00247052
-0.00178892
-0.00160829
-0.00142142
-0.00122109
-0.00100479
-0.000777431
-0.000542613
-0.000312463
-9.25773e-05
0.000112785
0.000301287
0.000503899
-0.00187798
-0.00201908
-0.00207303
-0.00217206
-0.00222416
-0.00230039
-0.00232859
-0.00238567
-0.00235557
-0.00170127
-0.00152661
-0.00133862
-0.00113217
-0.000909169
-0.000669122
-0.000420964
-0.00017223
6.34666e-05
0.000282393
0.000483328
0.000689139
-0.00178679
-0.00191843
-0.00197002
-0.00206611
-0.00211673
-0.00219332
-0.00222133
-0.00227146
-0.0022433
-0.00162111
-0.00144964
-0.00125698
-0.00104696
-0.000815791
-0.000561803
-0.000293981
-2.63641e-05
0.00022759
0.000460572
0.000675613
0.000891718
-0.00170548
-0.00182237
-0.00187278
-0.00196448
-0.00201386
-0.00208488
-0.00211327
-0.0021629
-0.00213555
-0.00154927
-0.00137282
-0.00117747
-0.000966838
-0.000723557
-0.000452519
-0.000162388
0.000125214
0.000398124
0.000654208
0.000884963
0.00108068
-0.00163224
-0.00173724
-0.00177962
-0.00186558
-0.00191417
-0.00198559
-0.00200832
-0.00205839
-0.00203316
-0.00147751
-0.00129298
-0.00110718
-0.000888572
-0.000632732
-0.000340681
-2.83517e-05
0.000285106
0.00058822
0.000852034
0.00117612
0.000447669
-0.00156118
-0.00178269
-0.00172031
-0.00175429
-0.0018154
-0.00189024
-0.00191212
-0.00195778
-0.00193465
-0.00139431
-0.00122739
-0.00104036
-0.000815466
-0.000542076
-0.000225707
0.000114025
0.000462517
0.00076687
0.00119329
0.000538671
-0.0014814
-0.00158831
-0.00162935
-0.00198564
-0.00247676
-0.00168549
-0.00179217
-0.00181694
-0.00186333
-0.00184134
-0.00132699
-0.0011673
-0.00098068
-0.000743196
-0.000449176
-0.000107422
0.000271452
0.000619938
0.00110639
0.000568487
-0.00140999
-0.00151614
-0.00155525
-0.00162061
-0.00166086
-0.00169883
-0.00177947
-0.00170431
-0.000985864
-0.00176675
-0.00174651
-0.00126836
-0.00111627
-0.000923854
-0.000673316
-0.000356532
2.48142e-05
0.000406219
0.000933947
0.000510833
-0.00134899
-0.0014471
-0.00147977
-0.00152958
-0.00155581
-0.00156994
-0.0015994
-0.00164999
-0.00168502
-0.00172228
-0.0017639
-0.00176786
-0.00156498
-0.0012207
-0.00106994
-0.000872838
-0.000603819
-0.000253367
0.000136033
0.000679093
0.000394222
-0.00129949
-0.00138747
-0.00141426
-0.00146266
-0.00148029
-0.00149566
-0.00151373
-0.00154911
-0.00157236
-0.00159011
-0.00161891
-0.00167415
-0.00170758
-0.00174927
-0.00178945
-0.00117874
-0.00103289
-0.000823342
-0.000529969
-0.000165879
0.000355056
0.000237052
-0.00125808
-0.00133604
-0.00135838
-0.00140459
-0.00141853
-0.00143098
-0.00144805
-0.00147992
-0.00149628
-0.00151512
-0.00152962
-0.0015663
-0.00158682
-0.00160828
-0.00163502
-0.00114876
-0.000998098
-0.000774672
-0.000463346
-7.64216e-06
5.73636e-05
-0.00122764
-0.00129425
-0.00131176
-0.00135048
-0.00136534
-0.00137443
-0.00138825
-0.00142114
-0.00143549
-0.00144768
-0.00146465
-0.00149602
-0.00151181
-0.0015311
-0.00154549
-0.00112351
-0.000969543
-0.00072473
-0.000367779
-0.000125064
-0.00120521
-0.001263
-0.00127395
-0.00130792
-0.00131914
-0.00132849
-0.00133771
-0.00136671
-0.00137943
-0.00139047
-0.00140459
-0.00143469
-0.00145116
-0.00146312
-0.00147952
-0.00111016
-0.000931533
-0.000685272
-0.000291108
-0.00119957
-0.00124073
-0.00124566
-0.00127637
-0.00128425
-0.0012888
-0.00129906
-0.00132294
-0.00133102
-0.0013438
-0.00135147
-0.00138074
-0.00139177
-0.00140508
-0.00142247
-0.00108656
-0.000936511
-0.0004265
-0.00119489
-0.00123488
-0.00123106
-0.00125081
-0.00125904
-0.00126008
-0.00126705
-0.00128931
-0.00129516
-0.00130252
-0.00131198
-0.00133661
-0.00134333
-0.00135549
-0.00136556
-0.00112527
-0.000528106
-0.0012835
-0.00122871
-0.0012264
-0.00124425
-0.00124329
-0.001246
-0.00124451
-0.00126125
-0.00126783
-0.00127316
-0.0012797
-0.0012993
-0.00130655
-0.00131468
-0.00132336
-0.000600867
-0.000713575
-0.00132167
-0.00125577
-0.00123928
-0.00123877
-0.00124291
-0.00123884
-0.00124952
-0.00125219
-0.00125408
-0.00125603
-0.001271
-0.00127596
-0.00128423
-0.00129244
-0.00066454
-0.00135374
-0.00131067
-0.00129025
-0.00126141
-0.00124725
-0.00124658
-0.00124649
-0.00124859
-0.00124737
-0.00125626
-0.00126062
-0.0012608
-0.00126535
-0.000564957
-0.00136904
-0.00141172
-0.00134205
-0.00130859
-0.00128884
-0.00126556
-0.00125543
-0.00124981
-0.00125044
-0.00125238
-0.00125397
-0.000581477
-0.00152522
-0.00142723
-0.00133054
-0.00130726
-0.00128483
-0.00126452
-0.00125548
-0.000729698
-0.00166208
-0.00142031
-0.00133152
-0.0937819
-0.0926423
-0.0936555
-0.0927477
-0.0925021
-0.0933706
-0.0934872
-0.0930188
-0.0925473
-0.0921979
-0.0935902
-0.0937291
-0.093615
-0.0929792
-0.0926506
-0.0922722
-0.0918758
-0.0938474
-0.0940345
-0.0940418
-0.0941148
-0.0928282
-0.0922709
-0.0923499
-0.0919445
-0.0915046
-0.0941263
-0.0943883
-0.0951194
-0.0942652
-0.094658
-0.0930847
-0.0915017
-0.0916306
-0.0920035
-0.0915914
-0.091197
-0.0944364
-0.0946889
-0.0953728
-0.0945244
-0.094735
-0.0933651
-0.0918122
-0.090139
-0.0909471
-0.0916853
-0.0913491
-0.0912682
-0.090872
-0.0949495
-0.095635
-0.0948099
-0.0950141
-0.0936737
-0.0921342
-0.0904766
-0.090258
-0.0887321
-0.0895925
-0.0910273
-0.0906749
-0.0909564
-0.0905244
-0.0959014
-0.0951072
-0.0940006
-0.0924754
-0.0908326
-0.0890891
-0.0903221
-0.0899821
-0.0888044
-0.0873317
-0.0881426
-0.0896906
-0.0894654
-0.0906042
-0.0901399
-0.0961692
-0.0954036
-0.0943304
-0.0928352
-0.0912073
-0.08947
-0.0876865
-0.090228
-0.0898878
-0.088557
-0.0874211
-0.0859475
-0.0867497
-0.0879643
-0.0895302
-0.0887878
-0.089817
-0.0964322
-0.0956811
-0.0946398
-0.0931991
-0.0915996
-0.0898709
-0.0880703
-0.0862815
-0.0886416
-0.0883443
-0.0872569
-0.0860125
-0.0846134
-0.0853671
-0.0865699
-0.0877027
-0.0880337
-0.0894634
-0.0889482
-0.0966773
-0.0959218
-0.0949074
-0.0935398
-0.0919953
-0.0902888
-0.0884779
-0.0866445
-0.0848911
-0.0872943
-0.0869741
-0.0858302
-0.0847468
-0.0831497
-0.0840334
-0.0851564
-0.0862924
-0.0866235
-0.0968907
-0.096105
-0.09511
-0.0938337
-0.0923642
-0.0907094
-0.0889053
-0.0870363
-0.0852049
-0.0834416
-0.0858734
-0.0855522
-0.0846825
-0.0832497
-0.0817439
-0.0825738
-0.0838452
-0.0848421
-0.0851721
-0.0970542
-0.0961828
-0.0951937
-0.094054
-0.0926822
-0.0911002
-0.0893374
-0.0874526
-0.0855558
-0.0837312
-0.0820112
-0.0844776
-0.0845884
-0.0830662
-0.0818469
-0.0804277
-0.081219
-0.0823909
-0.0834843
-0.0837967
-0.0971247
-0.0960646
-0.0950615
-0.0941407
-0.0929188
-0.0914376
-0.0897395
-0.0878786
-0.0859382
-0.0840372
-0.0822605
-0.0806454
-0.0847031
-0.0831043
-0.0827757
-0.0817003
-0.0805366
-0.0792138
-0.0799604
-0.0810539
-0.0821118
-0.0824409
-0.0834102
-0.0836495
-0.0970178
-0.0956071
-0.0945623
-0.0939902
-0.0930073
-0.0916872
-0.0900895
-0.0882796
-0.0863389
-0.0843716
-0.0825084
-0.0808319
-0.0793714
-0.0830187
-0.0826954
-0.0817361
-0.0814299
-0.0804095
-0.0793317
-0.0781179
-0.0788133
-0.0798147
-0.0807961
-0.0810918
-0.0820238
-0.0823643
-0.0965988
-0.0946137
-0.0934908
-0.0934433
-0.0928347
-0.0917735
-0.0903467
-0.0886344
-0.086726
-0.0847314
-0.0827787
-0.0810037
-0.0794796
-0.0782095
-0.0816552
-0.0813446
-0.0804403
-0.0801637
-0.0792266
-0.0782501
-0.0771545
-0.0777891
-0.0786928
-0.0795848
-0.0798489
-0.0807107
-0.0810184
-0.0956797
-0.0928579
-0.0916128
-0.0922866
-0.0922336
-0.0915748
-0.0904265
-0.0888926
-0.0870762
-0.0850935
-0.0830819
-0.0811935
-0.0795589
-0.0782315
-0.0771769
-0.0803667
-0.0800841
-0.0792605
-0.0790132
-0.078172
-0.0772976
-0.0763396
-0.0768813
-0.0776992
-0.0784971
-0.0787304
-0.0795076
-0.0797849
-0.0940418
-0.090143
-0.0887292
-0.0902811
-0.0909842
-0.0909172
-0.0901994
-0.0889598
-0.0873288
-0.0854296
-0.0834077
-0.0814267
-0.0796544
-0.0782101
-0.0771122
-0.0762921
-0.0792016
-0.0789431
-0.0782119
-0.0779981
-0.0772436
-0.0764827
-0.0756355
-0.0761544
-0.0768184
-0.077548
-0.077745
-0.0784335
-0.078679
-0.0914936
-0.0863797
-0.0847545
-0.0872256
-0.0888433
-0.0895724
-0.0894815
-0.0886989
-0.0873791
-0.0856695
-0.0837199
-0.0817049
-0.0798079
-0.078205
-0.0769933
-0.0761484
-0.0755552
-0.0781671
-0.0779424
-0.0772999
-0.0771153
-0.0764726
-0.0758072
-0.0751261
-0.0755178
-0.0761841
-0.0767031
-0.076884
-0.0775009
-0.0777099
-0.0879429
-0.0816411
-0.079771
-0.0830396
-0.085611
-0.0872929
-0.0880377
-0.0879184
-0.0870821
-0.085699
-0.08394
-0.0819842
-0.0800304
-0.078276
-0.0768924
-0.0759474
-0.0753671
-0.0750121
-0.0772745
-0.0770791
-0.0765116
-0.0763348
-0.075788
-0.0753226
-0.0748379
-0.0751429
-0.075535
-0.0759756
-0.076348
-0.076669
-0.0768692
-0.0834522
-0.0761601
-0.0740292
-0.0778179
-0.0812143
-0.0838812
-0.0856191
-0.0863767
-0.0862372
-0.0853639
-0.0839452
-0.0821782
-0.0802692
-0.0784388
-0.0768863
-0.0757678
-0.0751135
-0.0748037
-0.0746858
-0.0764531
-0.0760988
-0.0758391
-0.0757075
-0.0753704
-0.0750664
-0.0748755
-0.0749888
-0.0752311
-0.0755256
-0.0756224
-0.0758062
-0.0765215
-0.0782398
-0.0702623
-0.0678726
-0.0718272
-0.0757612
-0.0792754
-0.0820316
-0.0838208
-0.0845949
-0.0844542
-0.0835706
-0.0821555
-0.0804316
-0.0786315
-0.0769892
-0.0757001
-0.0748853
-0.0745326
-0.0744806
-0.0745869
-0.0758023
-0.0757258
-0.0754624
-0.075381
-0.0751563
-0.0751863
-0.0746732
-0.0753886
-0.0751289
-0.0752771
-0.0753325
-0.0755646
-0.0756448
-0.0758309
-0.0767992
-0.0726128
-0.0642999
-0.0616755
-0.0654295
-0.0695362
-0.0735996
-0.0772237
-0.0800595
-0.0819002
-0.0827107
-0.0825946
-0.0817394
-0.0803772
-0.0787577
-0.0771325
-0.0757443
-0.0747741
-0.0742917
-0.0742341
-0.0744029
-0.0745621
-0.075852
-0.0757611
-0.0754987
-0.075429
-0.0752683
-0.0752328
-0.0752599
-0.0747321
-0.0743092
-0.0746348
-0.0752904
-0.0752595
-0.0753412
-0.0753768
-0.0755975
-0.0756728
-0.0669031
-0.0586216
-0.0558075
-0.0590218
-0.0629198
-0.0671563
-0.071336
-0.0750551
-0.0779676
-0.0798762
-0.0807487
-0.080694
-0.0799148
-0.0786666
-0.0772181
-0.0758365
-0.0747634
-0.0741537
-0.0740157
-0.0742175
-0.0744946
-0.0744769
-0.0755279
-0.075468
-0.0753293
-0.0753152
-0.0755199
-0.0758743
-0.075166
-0.0742286
-0.0747553
-0.0737419
-0.0751878
-0.0753759
-0.0753349
-0.0753885
-0.0754122
-0.0614368
-0.0535573
-0.0506158
-0.0529932
-0.0563315
-0.0603456
-0.0646917
-0.0689684
-0.0727742
-0.0757724
-0.0777721
-0.0787398
-0.0787942
-0.0781517
-0.0770837
-0.0758765
-0.0748045
-0.0740989
-0.0738732
-0.0740653
-0.0744497
-0.0746819
-0.0742823
-0.0753775
-0.0753765
-0.0754097
-0.07485
-0.0753248
-0.075112
-0.0745762
-0.0734057
-0.0741257
-0.0749492
-0.0747449
-0.0729304
-0.0754471
-0.0753288
-0.0754472
-0.0753998
-0.0565258
-0.049396
-0.0463948
-0.0477072
-0.0501778
-0.0536065
-0.0577114
-0.0621431
-0.0665004
-0.0703928
-0.073493
-0.0756123
-0.0767216
-0.0769429
-0.076503
-0.0756875
-0.0747911
-0.0740882
-0.073785
-0.0739393
-0.0744074
-0.0748667
-0.0748638
-0.0738808
-0.0754899
-0.0753267
-0.0747227
-0.0745154
-0.0737957
-0.0722874
-0.0731612
-0.074379
-0.0740815
-0.0718404
-0.0524519
-0.0463186
-0.0433123
-0.0434588
-0.0448355
-0.0473643
-0.0508539
-0.0550203
-0.0595137
-0.0639419
-0.0679262
-0.0711499
-0.0734276
-0.0747304
-0.0751842
-0.0750218
-0.0745312
-0.0740106
-0.0737216
-0.0738271
-0.0743186
-0.0749665
-0.0753504
-0.0748919
-0.0731364
-0.0739759
-0.0736884
-0.0725575
-0.0710395
-0.0717437
-0.073461
-0.0730691
-0.0699607
-0.0494039
-0.044336
-0.0413576
-0.0404018
-0.040597
-0.0420052
-0.0445615
-0.0480797
-0.0522776
-0.0568125
-0.0613049
-0.0653921
-0.0687653
-0.0712454
-0.0728028
-0.073561
-0.0737482
-0.0736519
-0.0735619
-0.0737099
-0.0741957
-0.0749396
-0.0756168
-0.0757139
-0.0745633
-0.0717622
-0.0728124
-0.0723894
-0.0714351
-0.0685527
-0.0699334
-0.0719805
-0.071408
-0.0672685
-0.047415
-0.0432891
-0.0403495
-0.0384994
-0.0375951
-0.037813
-0.0392258
-0.0417777
-0.045291
-0.0494916
-0.0540501
-0.0586038
-0.0628054
-0.0663595
-0.0690896
-0.070966
-0.0720995
-0.0727091
-0.0730647
-0.073436
-0.0740093
-0.0748123
-0.0756742
-0.0761742
-0.0757115
-0.073611
-0.0695465
-0.0709819
-0.0714077
-0.0687162
-0.0654281
-0.0671611
-0.0700107
-0.0693294
-0.0636303
-0.0463498
-0.0429172
-0.0400112
-0.037545
-0.0357645
-0.0348957
-0.0351158
-0.0365063
-0.0390222
-0.0424971
-0.0466731
-0.0512385
-0.0558503
-0.0601794
-0.063944
-0.0669755
-0.0692308
-0.0708078
-0.071904
-0.0727599
-0.073597
-0.0745424
-0.0755458
-0.0763396
-0.0763951
-0.0750642
-0.0717876
-0.0663162
-0.0719613
-0.0688652
-0.0681239
-0.0655967
-0.0614088
-0.0636165
-0.067455
-0.066573
-0.0698148
-0.069339
-0.0589971
-0.0459609
-0.0429467
-0.0400634
-0.0372469
-0.0348741
-0.0331553
-0.0323091
-0.0325138
-0.0338569
-0.0363044
-0.039709
-0.0438334
-0.0483884
-0.0530528
-0.0575206
-0.0615263
-0.0649015
-0.0675915
-0.069666
-0.0712883
-0.0726616
-0.0739404
-0.0751697
-0.0762104
-0.0766919
-0.076012
-0.073543
-0.0689036
-0.0620061
-0.0686883
-0.0680105
-0.0657652
-0.0648083
-0.0615197
-0.0564484
-0.0591139
-0.0638562
-0.0627503
-0.0673133
-0.0664425
-0.0533997
-0.04598
-0.0431566
-0.040285
-0.0373213
-0.0346189
-0.0323372
-0.0306757
-0.0298435
-0.0300169
-0.0312866
-0.0336353
-0.0369384
-0.0409838
-0.045508
-0.0502171
-0.0548304
-0.0590971
-0.0628498
-0.0660187
-0.068634
-0.0708062
-0.0726745
-0.0743199
-0.0756942
-0.0765594
-0.0764577
-0.0747804
-0.0709844
-0.0648776
-0.0566458
-0.0654989
-0.0645787
-0.0616581
-0.060491
-0.0564893
-0.0505939
-0.0536818
-0.0592966
-0.0579744
-0.063624
-0.0625075
-0.0469379
-0.0461837
-0.0434045
-0.0405378
-0.0375506
-0.0347145
-0.0321279
-0.0299385
-0.0283314
-0.027506
-0.0276307
-0.0288038
-0.0310258
-0.034197
-0.0381337
-0.0426034
-0.0473438
-0.0521002
-0.0566361
-0.0607802
-0.0644405
-0.0676104
-0.0703223
-0.0726319
-0.0745287
-0.0758657
-0.0763132
-0.0753744
-0.0724952
-0.0672742
-0.0597323
-0.0503285
-0.0613103
-0.060161
-0.0565918
-0.0552312
-0.0505738
-0.0439575
-0.0474075
-0.053802
-0.0522822
-0.0589824
-0.0576254
-0.0397986
-0.0464242
-0.0428546
-0.0443294
-0.0378026
-0.0400115
-0.0414229
-0.0349495
-0.0322448
-0.0297764
-0.0276793
-0.0261247
-0.0252971
-0.0253601
-0.0264177
-0.0284877
-0.0314952
-0.0352912
-0.0396784
-0.0444271
-0.0493107
-0.0541109
-0.0586497
-0.0627961
-0.0664865
-0.0696793
-0.0723284
-0.074318
-0.075406
-0.0752025
-0.0732243
-0.0690206
-0.0623894
-0.0535958
-0.0432415
-0.0561571
-0.0548103
-0.0506401
-0.0491017
-0.0438824
-0.0367232
-0.0404437
-0.0474612
-0.045779
-0.053398
-0.0518403
-0.0322393
-0.0458336
-0.0473682
-0.0425854
-0.0433316
-0.0440205
-0.0447545
-0.0351987
-0.0373003
-0.0386464
-0.0397526
-0.0404659
-0.041125
-0.0418272
-0.032484
-0.0299125
-0.0275637
-0.0255594
-0.0240544
-0.0232201
-0.0232121
-0.0241372
-0.0260284
-0.0288422
-0.0324635
-0.036733
-0.0414565
-0.0464357
-0.0514669
-0.0563682
-0.0609636
-0.0651139
-0.0686849
-0.0715293
-0.0734265
-0.0740572
-0.0730099
-0.0698607
-0.0643271
-0.0564336
-0.0466384
-0.03567
-0.050126
-0.0485828
-0.0439164
-0.0422324
-0.0366096
-0.0291429
-0.0329997
-0.0404391
-0.0386279
-0.0469875
-0.0452357
-0.0245389
-0.0455528
-0.0463303
-0.0470487
-0.0426688
-0.0433957
-0.0440443
-0.0447539
-0.0327284
-0.0347216
-0.0360014
-0.0370526
-0.0377324
-0.038361
-0.0390309
-0.0398313
-0.0405266
-0.0411474
-0.0418263
-0.0301536
-0.0277169
-0.0254885
-0.0235763
-0.0221209
-0.0212763
-0.0211886
-0.0219659
-0.0236572
-0.0262459
-0.0296544
-0.0337641
-0.0384229
-0.043458
-0.0486736
-0.0538707
-0.0588274
-0.0633274
-0.0671383
-0.0700094
-0.0716264
-0.0716205
-0.0695989
-0.0652563
-0.0585037
-0.0495797
-0.0390921
-0.0279037
-0.0433415
-0.0416371
-0.0366082
-0.034831
-0.0289864
-0.0215361
-0.0253183
-0.032935
-0.0310678
-0.0398988
-0.0380105
-0.0169352
-0.0456423
-0.0463999
-0.0470752
-0.0303918
-0.0322762
-0.0334893
-0.0344852
-0.0351311
-0.0357288
-0.0363665
-0.0371267
-0.0377899
-0.0383825
-0.0390305
-0.0279577
-0.0256557
-0.0235468
-0.021728
-0.0203204
-0.0194639
-0.0192911
-0.019909
-0.0213793
-0.0237122
-0.0268688
-0.0307709
-0.0353079
-0.0403381
-0.0456669
-0.0510673
-0.0562683
-0.0609776
-0.0648683
-0.0675925
-0.0687648
-0.0679961
-0.064963
-0.0595062
-0.0517345
-0.0420762
-0.0312484
-0.0201616
-0.0359747
-0.0341792
-0.0289537
-0.0271401
-0.0212713
-0.0142101
-0.0176743
-0.0252106
-0.0233458
-0.0323422
-0.0304008
-0.0096479
-0.0281879
-0.0299641
-0.031111
-0.0320509
-0.0326627
-0.0332295
-0.0338349
-0.0345545
-0.035185
-0.0357491
-0.0363664
-0.0258937
-0.0237251
-0.021736
-0.0200084
-0.01865
-0.0177801
-0.0175191
-0.0179679
-0.0191984
-0.0212463
-0.0241117
-0.0277599
-0.0321163
-0.0370612
-0.0424016
-0.0478851
-0.0531916
-0.0579571
-0.0617654
-0.0641882
-0.0647909
-0.0632089
-0.0592158
-0.0528099
-0.0442893
-0.0342144
-0.0233861
-0.0126754
-0.0282875
-0.0264491
-0.0212217
-0.0194299
-0.0138282
-0.00705875
-0.0106584
-0.0175225
-0.0157059
-0.0245956
-0.0226461
-0.00293981
-0.0261147
-0.027784
-0.0288655
-0.0297497
-0.0303274
-0.0308638
-0.031437
-0.0321152
-0.0327127
-0.0332484
-0.033835
-0.0239583
-0.0219214
-0.0200492
-0.0184133
-0.0171031
-0.016221
-0.0158686
-0.0161403
-0.0171151
-0.018851
-0.0213879
-0.0247299
-0.0288371
-0.033605
-0.0388432
-0.0442799
-0.0495506
-0.0542228
-0.0578043
-0.0598037
-0.0597772
-0.0574049
-0.0525776
-0.045454
-0.0364654
-0.026304
-0.0157726
-0.00573545
-0.0205568
-0.0187293
-0.0136279
-0.0119569
-0.00678527
-0.000429414
-0.00351947
-0.0102778
-0.00898323
-0.0169004
-0.0149849
0.00302262
-0.024169
-0.0257337
-0.0267511
-0.0275804
-0.0281246
-0.0286307
-0.029172
-0.029809
-0.0303734
-0.0308814
-0.0314372
-0.0221475
-0.0202385
-0.0184812
-0.0169349
-0.0156737
-0.0147783
-0.0143333
-0.0144232
-0.0151291
-0.0165342
-0.0187072
-0.0216896
-0.0254686
-0.0299624
-0.0349867
-0.0402536
-0.0453577
-0.0498072
-0.053049
-0.0545578
-0.0538984
-0.0508243
-0.0453479
-0.0377508
-0.0286025
-0.0186404
-0.00868062
0.000450893
-0.0129133
-0.0110864
-0.00673559
-0.00501234
-2.45716e-05
0.00531891
0.00278256
-0.00329389
-0.00173113
-0.00928547
-0.00878078
0.00810729
-0.0223471
-0.0238097
-0.0247648
-0.0255405
-0.026052
-0.0265283
-0.0270384
-0.0276348
-0.0281667
-0.0286468
-0.0291721
-0.0204556
-0.0186706
-0.0170246
-0.0155663
-0.0143523
-0.0134437
-0.0129052
-0.0128096
-0.0132426
-0.0142982
-0.0160734
-0.018641
-0.0220182
-0.0261514
-0.0308649
-0.035857
-0.0406873
-0.0448158
-0.0476498
-0.0486484
-0.0474126
-0.043775
-0.0378481
-0.0300458
-0.0210004
-0.0114907
-0.00233413
0.0057645
-0.0058427
-0.00424471
7.00506e-05
0.00151372
0.00575455
0.0101132
0.00814494
0.00300283
0.00436287
-0.00267355
-0.00105452
-0.00864236
0.0122298
-0.0206433
-0.022008
-0.0229031
-0.0236268
-0.0241064
-0.0245536
-0.0250332
-0.0255903
-0.0260902
-0.0265429
-0.027038
-0.0188768
-0.0172108
-0.0156721
-0.0142986
-0.0131299
-0.0122058
-0.0115728
-0.0112921
-0.0114463
-0.0121379
-0.0134849
-0.0155912
-0.0185123
-0.0222187
-0.0265468
-0.031185
-0.035666
-0.0394148
-0.0418177
-0.042338
-0.0406205
-0.0365724
-0.0304148
-0.0226332
-0.0139271
-0.00509208
0.00313811
0.0101066
-0.00514688
-0.00367422
0.000615357
0.00210983
0.00589491
0.00713041
0.010597
0.013967
0.0125552
0.00838154
0.00952254
0.00353257
0.00495523
-0.00208911
-0.000483335
0.0153769
-0.0190519
-0.0203233
-0.0211611
-0.0218348
-0.0222839
-0.022703
-0.0231531
-0.0236721
-0.0241409
-0.0245666
-0.0250323
-0.0174044
-0.015852
-0.0144159
-0.0131224
-0.0119943
-0.0110538
-0.0103276
-0.00986103
-0.00972943
-0.010045
-0.0109439
-0.0125641
-0.0149949
-0.0182326
-0.02213
-0.0263667
-0.0304586
-0.0338103
-0.0358004
-0.0359067
-0.0338225
-0.0295322
-0.0233303
-0.0157834
-0.0076111
0.000426404
0.00762905
0.0134493
0.00116217
0.0026381