/*--------------------------------*- C++ -*----------------------------------*\
| =========                 |                                                 |
| \\      /  F ield         | OpenFOAM: The Open Source CFD Toolbox           |
|  \\    /   O peration     | Version:  v1912                                 |
|   \\  /    A nd           | Website:  www.openfoam.com                      |
|    \\/     M anipulation  |                                                 |
\*---------------------------------------------------------------------------*/
FoamFile
{
    version     2.0;
    format      ascii;
    class       volScalarField;
    location    "110";
    object      p;
}
// * * * * * * * * * * * * * * * * * * * * * * * * * * * * * * * * * * * * * //

dimensions      [0 2 -2 0 0 0 0];


internalField   nonuniform List<scalar> 
3753
(
-0.00269546
-0.00266107
-0.00258365
-0.00260656
-0.00255042
-0.00245884
-0.0025581
-0.0024953
-0.00242759
-0.00233672
-0.00252178
-0.00244487
-0.00237598
-0.00230813
-0.00221166
-0.00250293
-0.0024044
-0.00232814
-0.00225699
-0.0021841
-0.00208882
-0.00251038
-0.00238057
-0.00228575
-0.00220618
-0.00213604
-0.0020619
-0.00197628
-0.00255344
-0.00237909
-0.00225509
-0.00216301
-0.00209106
-0.00201552
-0.00194931
-0.00186875
-0.00263364
-0.00240744
-0.00224509
-0.00213311
-0.00205237
-0.00197249
-0.00190297
-0.00184245
-0.00177072
-0.0027548
-0.00247242
-0.00226159
-0.00212316
-0.00202426
-0.00193537
-0.00185989
-0.00179749
-0.0017446
-0.0016813
-0.00290757
-0.0025746
-0.00230656
-0.00213687
-0.00201558
-0.00191193
-0.00182485
-0.00175713
-0.00169951
-0.00165405
-0.00159713
-0.00308802
-0.00271968
-0.00237774
-0.00217687
-0.00203301
-0.0019088
-0.00180394
-0.00172511
-0.00165748
-0.00160958
-0.00157061
-0.00150892
-0.00323935
-0.00290702
-0.00246842
-0.00224241
-0.00208093
-0.00192966
-0.00180381
-0.0017054
-0.00162542
-0.001571
-0.00152492
-0.00148279
-0.00142313
-0.0031273
-0.00335757
-0.00329169
-0.00258538
-0.00233611
-0.00216054
-0.00197996
-0.00182921
-0.00170589
-0.00160825
-0.00153821
-0.00148116
-0.00143766
-0.00139721
-0.00133659
-0.00272911
-0.00307741
-0.00338588
-0.00333985
-0.00332695
-0.00244671
-0.00226226
-0.00205811
-0.00188206
-0.00173073
-0.00161002
-0.00151762
-0.00144765
-0.0013972
-0.00135192
-0.00131211
-0.00125845
-0.00258935
-0.00281085
-0.00290776
-0.00317559
-0.00359987
-0.00335012
-0.00332157
-0.00339699
-0.00238557
-0.00216569
-0.00196379
-0.00178402
-0.00163691
-0.00151804
-0.00142942
-0.00136435
-0.00130989
-0.00126871
-0.00123304
-0.00118967
-0.00251886
-0.00269041
-0.00279122
-0.00291247
-0.00295944
-0.00313606
-0.00320298
-0.00330292
-0.00395369
-0.00329237
-0.00336595
-0.00342881
-0.00228861
-0.00206469
-0.00186376
-0.00169091
-0.00154334
-0.00142939
-0.00134497
-0.0012771
-0.00122935
-0.00119004
-0.00116591
-0.00111932
-0.0024211
-0.00258991
-0.00267746
-0.00278463
-0.00286375
-0.00297161
-0.00302702
-0.00307768
-0.00301856
-0.0031053
-0.00269
-0.00288223
-0.00449268
-0.00340617
-0.00342919
-0.0034733
-0.00218824
-0.00197057
-0.00177135
-0.00159512
-0.0014539
-0.0013448
-0.00125818
-0.00119842
-0.00115156
-0.00112206
-0.00109533
-0.00105395
-0.00232049
-0.002481
-0.00256284
-0.00267151
-0.0027417
-0.00281853
-0.00287429
-0.00294664
-0.00289484
-0.00302694
-0.00305854
-0.00310305
-0.00308565
-0.00296383
-0.00521145
-0.00208819
-0.00186809
-0.00167221
-0.00150466
-0.0013673
-0.00125922
-0.00118157
-0.00112205
-0.00108204
-0.00105373
-0.00103014
-0.000983528
-0.00221874
-0.0023833
-0.00245846
-0.00255976
-0.00262161
-0.00270546
-0.00275309
-0.00281828
-0.00276696
-0.00286284
-0.00289721
-0.00297403
-0.0029354
-0.00198658
-0.00177621
-0.0015818
-0.00141525
-0.0012842
-0.00118391
-0.00110659
-0.00105275
-0.0010159
-0.000986599
-0.000960478
-0.000910935
-0.00211488
-0.00228115
-0.00235081
-0.00245969
-0.00251501
-0.0025958
-0.00263658
-0.00268705
-0.00265236
-0.00273997
-0.00278434
-0.00284573
-0.00280034
-0.00189142
-0.0016759
-0.00148835
-0.00133421
-0.00120661
-0.00110877
-0.00103763
-0.000985519
-0.000946477
-0.000919062
-0.000890035
-0.000846801
-0.00201742
-0.00218029
-0.00224958
-0.00235146
-0.00240908
-0.00249493
-0.00253356
-0.00258162
-0.00254679
-0.00262848
-0.00267032
-0.00271562
-0.00268581
-0.00178985
-0.00158648
-0.00140762
-0.00125348
-0.00113303
-0.00103999
-0.000970066
-0.000916843
-0.000881027
-0.000849907
-0.000823367
-0.00077974
-0.0019125
-0.00208144
-0.00214344
-0.00225065
-0.0023119
-0.00238494
-0.00242475
-0.00247175
-0.00244471
-0.0025295
-0.00256377
-0.00261327
-0.00257835
-0.00169676
-0.00149832
-0.00132405
-0.00117841
-0.00106297
-0.000973725
-0.000903153
-0.000852254
-0.000812521
-0.000781602
-0.000758661
-0.000716951
-0.00181973
-0.00197828
-0.00204139
-0.00214869
-0.00220262
-0.00228949
-0.00232186
-0.00237745
-0.00234136
-0.00242053
-0.00245424
-0.00250181
-0.00247995
-0.00160865
-0.00141723
-0.0012457
-0.00110737
-0.000996824
-0.000908551
-0.000839543
-0.000785366
-0.000744852
-0.000718384
-0.000694705
-0.000658609
-0.00172502
-0.00188141
-0.00194095
-0.00204748
-0.00210313
-0.00218104
-0.00221833
-0.0022669
-0.00223361
-0.00232431
-0.00235268
-0.00240593
-0.00237223
-0.00152071
-0.00133171
-0.00117233
-0.00104087
-0.000935524
-0.000847321
-0.000773435
-0.000717085
-0.000681138
-0.000654801
-0.000637393
-0.000603437
-0.00163781
-0.00178902
-0.00184475
-0.00194696
-0.00199702
-0.00208612
-0.00211127
-0.00216832
-0.00213533
-0.00221432
-0.00224944
-0.00229455
-0.00226623
-0.00143853
-0.00125776
-0.00110487
-0.000981675
-0.000876571
-0.000782414
-0.000706597
-0.000654034
-0.000618658
-0.000598638
-0.000582099
-0.000550455
-0.00155202
-0.00170083
-0.0017508
-0.0018544
-0.00190052
-0.00198105
-0.00201071
-0.00205803
-0.00202837
-0.00211801
-0.00213585
-0.00219428
-0.00217237
-0.00135574
-0.00118323
-0.00104368
-0.000925738
-0.00081653
-0.000717445
-0.000642107
-0.000592746
-0.000564996
-0.000543851
-0.000529135
-0.000498929
-0.00146896
-0.00161498
-0.00166585
-0.00176347
-0.00180432
-0.00188853
-0.00191462
-0.00196294
-0.00193169
-0.00201156
-0.00203744
-0.00208702
-0.00206232
-0.00128054
-0.00112081
-0.000992337
-0.000874339
-0.000752537
-0.000651082
-0.000581437
-0.000540748
-0.000511862
-0.000492206
-0.000478397
-0.000450408
-0.00138823
-0.00153201
-0.00157762
-0.00167522
-0.00172215
-0.00179382
-0.00182163
-0.00186563
-0.00183339
-0.00192073
-0.00193679
-0.0019949
-0.00196188
-0.0012071
-0.0010668
-0.000949857
-0.000814077
-0.000683334
-0.000587841
-0.000530052
-0.000489915
-0.000461515
-0.000441977
-0.000430445
-0.000399966
-0.00131226
-0.00145309
-0.00149657
-0.00159113
-0.001632
-0.00170682
-0.00173776
-0.00178076
-0.00175269
-0.00182518
-0.00184427
-0.00189768
-0.00186234
-0.00115027
-0.0010336
-0.000900356
-0.000741773
-0.000613846
-0.000535625
-0.00048291
-0.000441467
-0.000411819
-0.000395127
-0.000380145
-0.000351498
-0.00124266
-0.00137952
-0.0014129
-0.00151151
-0.00154983
-0.00162418
-0.00164546
-0.00168693
-0.00166324
-0.00173974
-0.00176333
-0.00181162
-0.00177857
-0.00110593
-0.00100418
-0.000826373
-0.000659475
-0.000557475
-0.000491361
-0.000436832
-0.000395102
-0.00036756
-0.000345628
-0.000333085
-0.000299297
-0.00118067
-0.00131295
-0.00133825
-0.00143287
-0.00146678
-0.00154242
-0.00156894
-0.00160597
-0.00157863
-0.00165626
-0.0016687
-0.00171314
-0.00169073
-0.00110706
-0.000943182
-0.000722017
-0.000594529
-0.000516783
-0.000450282
-0.000394162
-0.000351886
-0.000320573
-0.000299886
-0.000283333
-0.000248074
-0.00116411
-0.00125456
-0.00126748
-0.00136239
-0.00139424
-0.00146504
-0.00148105
-0.00151992
-0.00149762
-0.00157225
-0.00159418
-0.00163171
-0.00160374
-0.001093
-0.000797406
-0.000643423
-0.000557485
-0.000480995
-0.000411071
-0.000353202
-0.000309012
-0.000274968
-0.000252874
-0.000232545
-0.000197023
-0.00125831
-0.00121065
-0.00121471
-0.00129981
-0.00132645
-0.00139328
-0.0014114
-0.00144524
-0.00142427
-0.00149646
-0.00150234
-0.00154551
-0.00152405
-0.000898657
-0.000700897
-0.00061245
-0.000528577
-0.000445722
-0.000373536
-0.000313892
-0.000264763
-0.000231352
-0.000203682
-0.000183878
-0.000143253
-0.0010133
-0.00139745
-0.00125021
-0.00121279
-0.00126727
-0.00133587
-0.00134257
-0.00137509
-0.0013626
-0.00142156
-0.0014337
-0.00146939
-0.00144768
-0.000761686
-0.000678523
-0.000590975
-0.000496758
-0.00041126
-0.000336831
-0.000273503
-0.000224695
-0.000185933
-0.00015815
-0.000132815
-8.76297e-05
-0.000855215
-0.000985976
-0.00115036
-0.00161175
-0.00119234
-0.00127979
-0.00127849
-0.00132026
-0.0013154
-0.00135978
-0.00136822
-0.00139971
-0.00138691
-0.000756141
-0.000667852
-0.000562373
-0.000466059
-0.000379625
-0.000302341
-0.000236432
-0.000184207
-0.000143571
-0.000109263
-7.77495e-05
-2.98074e-05
-0.000842467
-0.000948466
-0.000999022
-0.00102173
-0.00118665
-0.00196486
-0.00103809
-0.00120241
-0.001157
-0.00131358
-0.00132401
-0.00134795
-0.00133854
-0.000749123
-0.000636438
-0.00053339
-0.000438472
-0.000349362
-0.000269394
-0.000202527
-0.00014416
-9.7617e-05
-5.64676e-05
-2.31136e-05
3.12607e-05
-0.000834548
-0.000907632
-0.000955846
-0.00101866
-0.00105019
-0.00109342
-0.00112086
-0.000901523
-0.0011001
-0.00261164
-0.00107609
-0.00127732
-0.00120043
-0.000723282
-0.000611834
-0.000510274
-0.000411512
-0.000321331
-0.000240275
-0.000165817
-0.000104807
-4.9961e-05
-5.44704e-06
3.64823e-05
9.89017e-05
-0.000807996
-0.000876291
-0.000916345
-0.000963492
-0.000997406
-0.00104058
-0.00107947
-0.00111885
-0.00108733
-0.000691069
-0.000587319
-0.000485006
-0.000388392
-0.000296457
-0.000210035
-0.000133856
-6.32335e-05
-3.41688e-06
5.11046e-05
0.000101044
0.000169939
-0.000779072
-0.000851034
-0.000883716
-0.000927762
-0.000950657
-0.0009855
-0.0010097
-0.00103904
-0.00101478
-0.000672377
-0.000566886
-0.000465971
-0.000368278
-0.000273572
-0.000184883
-9.89625e-05
-2.11449e-05
4.86637e-05
0.000112452
0.000169447
0.000247483
-0.000756981
-0.00082579
-0.000853819
-0.00090078
-0.000917667
-0.000954592
-0.000972609
-0.000985369
-0.000970615
-0.000648231
-0.000545481
-0.000447148
-0.000350498
-0.000254307
-0.000157111
-6.42822e-05
2.35302e-05
0.000104383
0.000177222
0.000244097
0.000330242
-0.000734006
-0.000805822
-0.000831774
-0.000874178
-0.000889112
-0.000924085
-0.000941139
-0.000954625
-0.000939977
-0.000630318
-0.000530891
-0.000435456
-0.000336021
-0.000235473
-0.00013208
-2.87148e-05
7.12859e-05
0.000163652
0.000247983
0.000324406
0.00042219
-0.00071309
-0.000783603
-0.000805647
-0.000853775
-0.000868733
-0.000899112
-0.000915477
-0.000925627
-0.000913142
-0.000611489
-0.000518668
-0.000422729
-0.000325163
-0.000218559
-0.000104992
9.65759e-06
0.000122286
0.000227793
0.000325248
0.000412409
0.000520816
-0.000695078
-0.000764055
-0.000785113
-0.000828975
-0.000842566
-0.000884353
-0.000892275
-0.000902987
-0.00089233
-0.00060253
-0.000510744
-0.000419399
-0.000315912
-0.000200961
-7.77566e-05
5.07251e-05
0.000178063
0.000299088
0.000408232
0.000508725
0.00062777
-0.000681647
-0.00074518
-0.00076371
-0.000809137
-0.000822784
-0.000853641
-0.000867449
-0.000878718
-0.00086688
-0.000590663
-0.000507092
-0.000414585
-0.000306914
-0.000183508
-4.90166e-05
9.48763e-05
0.000238048
0.000375002
0.000500588
0.00061296
0.000743278
-0.00067005
-0.00073063
-0.000747903
-0.000790425
-0.000799803
-0.000833805
-0.000846454
-0.000858729
-0.000845311
-0.000591633
-0.000510493
-0.000413002
-0.000297546
-0.000166795
-1.86479e-05
0.000140377
0.000304242
0.000459388
0.000601095
0.000728611
0.000864698
-0.000665852
-0.00071794
-0.000732948
-0.000773986
-0.000782265
-0.000815839
-0.000827957
-0.000834474
-0.00082279
-0.000592767
-0.00051145
-0.000409152
-0.000290539
-0.000151122
1.21266e-05
0.000192462
0.000377382
0.000553321
0.000711972
0.000856373
0.00100542
-0.000669705
-0.000709699
-0.000723839
-0.00076014
-0.000767346
-0.00079672
-0.000809807
-0.000815942
-0.000804995
-0.000603079
-0.000514095
-0.000408005
-0.000288074
-0.000135962
4.57251e-05
0.000250406
0.000457833
0.000655379
0.000839949
0.00100307
0.00113481
-0.00067653
-0.000709307
-0.000716039
-0.000748616
-0.000755839
-0.00078529
-0.00079219
-0.000799245
-0.000790457
-0.000605075
-0.000509392
-0.000414702
-0.000287047
-0.000121114
8.33032e-05
0.000312361
0.000547983
0.000778319
0.000973995
0.00123254
0.000460203
-0.000681124
-0.000836016
-0.000739998
-0.000720218
-0.000741671
-0.000776823
-0.000783665
-0.000787004
-0.000779981
-0.000601122
-0.000523492
-0.000425825
-0.000290305
-0.000105528
0.000125103
0.000383867
0.000656837
0.00089176
0.00125126
0.000550661
-0.000677657
-0.000716453
-0.000726658
-0.00104104
-0.00151463
-0.000691628
-0.000760498
-0.000770197
-0.000776818
-0.000770331
-0.000609108
-0.000538919
-0.000442275
-0.000293647
-8.65594e-05
0.00017166
0.000471588
0.000747795
0.00116468
0.000580467
-0.000684731
-0.00072184
-0.000728849
-0.000752154
-0.000777766
-0.000794087
-0.000860269
-0.000759174
-2.01146e-05
-0.00076032
-0.000755894
-0.000630518
-0.000566653
-0.000461907
-0.000298492
-6.68834e-05
0.000233077
0.000539101
0.000993224
0.000523517
-0.000700883
-0.000730934
-0.000731083
-0.000739733
-0.000750601
-0.000743001
-0.000756918
-0.000780385
-0.0007961
-0.000814127
-0.000838108
-0.000820369
-0.00059743
-0.000657189
-0.000594419
-0.00048563
-0.000303222
-3.60712e-05
0.000275833
0.000742462
0.000408601
-0.000728441
-0.000748717
-0.000743108
-0.000751387
-0.000753421
-0.000747233
-0.000749443
-0.000758623
-0.000761961
-0.000760024
-0.000770234
-0.000802109
-0.000816163
-0.000838841
-0.00086046
-0.000693444
-0.000634725
-0.00051199
-0.000302767
-1.66309e-05
0.000427451
0.000255018
-0.000762117
-0.000773841
-0.00076392
-0.000770628
-0.000769304
-0.000760595
-0.000761769
-0.000768331
-0.000764895
-0.000764131
-0.000759877
-0.000773482
-0.000774113
-0.000775953
-0.00078332
-0.000736421
-0.000674039
-0.000537528
-0.000305296
7.60759e-05
8.09766e-05
-0.000806931
-0.000807261
-0.000793025
-0.000793024
-0.000792378
-0.000780459
-0.000778623
-0.000786766
-0.000781846
-0.00077485
-0.000773267
-0.000782214
-0.000778285
-0.000778012
-0.000772886
-0.000789202
-0.000722776
-0.000558186
-0.000272542
-9.46056e-05
-0.000858842
-0.000849897
-0.000829627
-0.00082543
-0.000821788
-0.000810685
-0.000804235
-0.000808815
-0.000802072
-0.000794076
-0.000789968
-0.00079814
-0.000795399
-0.000788222
-0.000785403
-0.0008486
-0.000753886
-0.000580353
-0.000254237
-0.000928356
-0.000901176
-0.000874918
-0.000866745
-0.000859975
-0.000844599
-0.000839764
-0.000839871
-0.000829307
-0.000823535
-0.000813067
-0.000820564
-0.000812342
-0.000806689
-0.000805212
-0.000899711
-0.000825058
-0.000385076
-0.000997445
-0.000969078
-0.000934025
-0.000913533
-0.000907109
-0.000888489
-0.0008805
-0.000878539
-0.000866268
-0.000855648
-0.000847661
-0.000851249
-0.000839457
-0.000833086
-0.000824391
-0.00100654
-0.00048391
-0.00115912
-0.00103711
-0.00100297
-0.000979308
-0.000963586
-0.000947097
-0.000930582
-0.000921931
-0.000910503
-0.000898202
-0.000887638
-0.000886203
-0.00087551
-0.000865711
-0.000856304
-0.00055491
-0.000665527
-0.00120452
-0.00110658
-0.00104829
-0.00103228
-0.00101684
-0.00099729
-0.000981053
-0.000966547
-0.000951032
-0.000935878
-0.000929208
-0.000916389
-0.000907077
-0.00089764
-0.000631103
-0.00128157
-0.00119408
-0.00115741
-0.00110934
-0.00107951
-0.00105147
-0.00103344
-0.00101736
-0.000998668
-0.000985322
-0.000972526
-0.000955317
-0.000942254
-0.000541114
-0.00132133
-0.00133998
-0.0012511
-0.00118742
-0.00114916
-0.0011078
-0.00108007
-0.00105161
-0.00103428
-0.00101829
-0.00100217
-0.000556221
-0.00147498
-0.00135096
-0.00123192
-0.00118192
-0.00114119
-0.0011031
-0.00107632
-0.000705877
-0.00161268
-0.00133971
-0.00122767
-0.12049
-0.119518
-0.120091
-0.11942
-0.119828
-0.119242
-0.119759
-0.119675
-0.119718
-0.119923
-0.119511
-0.119529
-0.119596
-0.119697
-0.119659
-0.119869
-0.120046
-0.119556
-0.119667
-0.119573
-0.119625
-0.119643
-0.119702
-0.119809
-0.119977
-0.120186
-0.119658
-0.119693
-0.119647
-0.119416
-0.119622
-0.119484
-0.119969
-0.120058
-0.119851
-0.120133
-0.120284
-0.119653
-0.119734
-0.119559
-0.119159
-0.119712
-0.119217
-0.119805
-0.120509
-0.120157
-0.120098
-0.120139
-0.120231
-0.120409
-0.119763
-0.119364
-0.118801
-0.119753
-0.118855
-0.119558
-0.120334
-0.120608
-0.12094
-0.120911
-0.120301
-0.120363
-0.120371
-0.120553
-0.119052
-0.118351
-0.118404
-0.119238
-0.12014
-0.120852
-0.120656
-0.120771
-0.121194
-0.12109
-0.12106
-0.121183
-0.121671
-0.120497
-0.120756
-0.11866
-0.117869
-0.117901
-0.118844
-0.119921
-0.120812
-0.121203
-0.120709
-0.120885
-0.121251
-0.121232
-0.121029
-0.12104
-0.121217
-0.121117
-0.120651
-0.120957
-0.118248
-0.117454
-0.117446
-0.118391
-0.119656
-0.120795
-0.121428
-0.121371
-0.121396
-0.121229
-0.121242
-0.121051
-0.120854
-0.120751
-0.121135
-0.121173
-0.12133
-0.121172
-0.121129
-0.117911
-0.11719
-0.11712
-0.117956
-0.119334
-0.120761
-0.121726
-0.121899
-0.12134
-0.121327
-0.121165
-0.120971
-0.12087
-0.120095
-0.120356
-0.120688
-0.121043
-0.121255
-0.117725
-0.117101
-0.116956
-0.117611
-0.118993
-0.120669
-0.122033
-0.122571
-0.122114
-0.120804
-0.121085
-0.120838
-0.120871
-0.120061
-0.11892
-0.119392
-0.120232
-0.120463
-0.120753
-0.117704
-0.117184
-0.116964
-0.117394
-0.118685
-0.120514
-0.122282
-0.123298
-0.123143
-0.121828
-0.119744
-0.120377
-0.121008
-0.119775
-0.118892
-0.117393
-0.118065
-0.119219
-0.119886
-0.120118
-0.117827
-0.117373
-0.117089
-0.117336
-0.118453
-0.120305
-0.122406
-0.123982
-0.12432
-0.123185
-0.120918
-0.118217
-0.121449
-0.119817
-0.119459
-0.118589
-0.117363
-0.115675
-0.116467
-0.117814
-0.118879
-0.119292
-0.119915
-0.119928
-0.118024
-0.117522
-0.117181
-0.117387
-0.118357
-0.120086
-0.122368
-0.124473
-0.125501
-0.124799
-0.122498
-0.119386
-0.116386
-0.119701
-0.119417
-0.118598
-0.118165
-0.117023
-0.115655
-0.113989
-0.114781
-0.116165
-0.117382
-0.117836
-0.118789
-0.11916
-0.118165
-0.117428
-0.117027
-0.117381
-0.118352
-0.119941
-0.122198
-0.124674
-0.126427
-0.126496
-0.124453
-0.121008
-0.11737
-0.11448
-0.118431
-0.118048
-0.11699
-0.116544
-0.115314
-0.113979
-0.11259
-0.113229
-0.114471
-0.115701
-0.11615
-0.117243
-0.117671
-0.118076
-0.116876
-0.116385
-0.11709
-0.11825
-0.119842
-0.122
-0.124595
-0.126921
-0.127891
-0.126598
-0.123103
-0.11879
-0.115092
-0.112759
-0.116802
-0.116389
-0.115265
-0.114838
-0.113679
-0.112569
-0.111682
-0.11203
-0.112957
-0.11403
-0.114435
-0.115534
-0.115974
-0.117567
-0.115754
-0.115158
-0.116276
-0.117787
-0.119596
-0.121754
-0.124351
-0.126971
-0.128714
-0.128435
-0.125505
-0.120727
-0.116034
-0.11281
-0.111436
-0.115079
-0.114664
-0.113615
-0.113265
-0.112334
-0.11166
-0.111334
-0.111487
-0.111824
-0.112607
-0.112905
-0.11386
-0.114265
-0.116527
-0.114109
-0.113396
-0.114862
-0.116721
-0.118897
-0.12127
-0.123926
-0.126694
-0.128925
-0.129588
-0.127654
-0.123068
-0.117462
-0.112994
-0.110764
-0.110638
-0.113448
-0.113098
-0.112273
-0.112038
-0.111559
-0.111391
-0.11192
-0.111665
-0.111494
-0.1116
-0.111766
-0.112457
-0.112765
-0.114987
-0.112085
-0.11126
-0.112915
-0.115011
-0.117512
-0.120231
-0.123128
-0.126081
-0.128628
-0.129991
-0.129084
-0.125284
-0.119355
-0.113562
-0.109951
-0.109167
-0.110617
-0.112147
-0.111903
-0.111452
-0.111376
-0.111423
-0.112142
-0.113816
-0.113161
-0.111793
-0.111288
-0.111546
-0.111483
-0.111674
-0.113082
-0.109882
-0.108952
-0.110612
-0.112762
-0.115434
-0.11844
-0.12166
-0.124928
-0.127825
-0.129699
-0.129704
-0.126875
-0.121318
-0.114626
-0.109372
-0.107215
-0.108283
-0.111697
-0.111322
-0.111022
-0.111319
-0.111498
-0.112501
-0.114347
-0.1177
-0.116315
-0.113597
-0.112066
-0.111693
-0.111036
-0.111714
-0.110991
-0.107686
-0.106676
-0.108166
-0.110185
-0.112817
-0.115938
-0.119388
-0.122985
-0.126311
-0.128722
-0.129462
-0.127713
-0.122895
-0.116007
-0.109313
-0.105327
-0.105166
-0.108441
-0.11419
-0.111268
-0.111499
-0.112406
-0.112962
-0.115052
-0.118941
-0.121783
-0.122027
-0.117068
-0.114232
-0.113445
-0.112116
-0.111755
-0.111094
-0.112104
-0.108891
-0.105677
-0.104612
-0.105785
-0.107507
-0.109908
-0.112922
-0.116415
-0.120204
-0.123911
-0.126886
-0.128367
-0.127577
-0.123899
-0.117365
-0.109851
-0.103997
-0.101965
-0.104275
-0.11003
-0.117893
-0.111355
-0.11156
-0.112518
-0.113041
-0.114934
-0.115948
-0.119717
-0.124613
-0.12628
-0.121174
-0.118204
-0.116862
-0.11436
-0.113611
-0.112204
-0.11184
-0.106949
-0.103998
-0.102905
-0.103648
-0.104946
-0.106954
-0.109669
-0.112985
-0.116759
-0.120665
-0.12411
-0.126309
-0.126462
-0.123916
-0.118442
-0.110802
-0.103559
-0.0993705
-0.0999013
-0.105006
-0.113175
-0.122631
-0.112642
-0.113171
-0.115166
-0.116131
-0.119697
-0.121672
-0.124749
-0.128999
-0.126795
-0.131572
-0.122448
-0.118453
-0.117171
-0.114547
-0.113793
-0.105309
-0.102747
-0.101636
-0.101898
-0.102684
-0.104183
-0.106442
-0.109397
-0.112937
-0.116815
-0.120521
-0.123312
-0.124354
-0.12292
-0.118652
-0.111837
-0.103963
-0.0979508
-0.0962066
-0.099803
-0.10781
-0.118127
-0.128635
-0.115413
-0.116379
-0.119825
-0.120509
-0.124672
-0.125648
-0.129392
-0.13418
-0.132005
-0.126599
-0.127904
-0.137993
-0.122332
-0.123453
-0.118771
-0.117505
-0.104068
-0.101937
-0.100816
-0.100602
-0.100852
-0.101774
-0.103472
-0.105919
-0.10905
-0.112679
-0.116404
-0.119569
-0.121362
-0.120984
-0.117925
-0.112268
-0.104825
-0.0977208
-0.0938652
-0.0952476
-0.10221
-0.113011
-0.125028
-0.136194
-0.120153
-0.121156
-0.129447
-0.130718
-0.13507
-0.140095
-0.13793
-0.132062
-0.133512
-0.146114
-0.103254
-0.101519
-0.100381
-0.0997576
-0.0995083
-0.0998508
-0.100932
-0.102777
-0.105362
-0.108568
-0.112089
-0.115384
-0.11771
-0.118261
-0.116389
-0.111936
-0.105469
-0.0982762
-0.0929424
-0.0921199
-0.0971541
-0.107536
-0.120757
-0.133976
-0.145542
-0.135314
-0.13669
-0.141188
-0.147622
-0.144001
-0.138252
-0.139789
-0.154954
-0.102828
-0.101395
-0.100233
-0.0992957
-0.0986379
-0.0984571
-0.0989308
-0.100132
-0.102086
-0.104739
-0.107876
-0.111071
-0.113692
-0.114973
-0.114199
-0.110986
-0.105605
-0.0990677
-0.0930743
-0.0904154
-0.0933454
-0.102338
-0.115893
-0.130988
-0.144934
-0.156179
-0.14181
-0.143182
-0.148257
-0.154985
-0.15065
-0.144811
-0.145966
-0.163874
-0.1027
-0.101457
-0.100265
-0.0991168
-0.098162
-0.097563
-0.0974959
-0.0980738
-0.0993669
-0.101386
-0.104004
-0.106909
-0.109588
-0.111367
-0.111523
-0.109528
-0.105345
-0.0996821
-0.0938938
-0.0900389
-0.0908371
-0.0979808
-0.11092
-0.127136
-0.143493
-0.157445
-0.167105
-0.147446
-0.150029
-0.155201
-0.162509
-0.158407
-0.150917
-0.152771
-0.171265
-0.102765
-0.10161
-0.100388
-0.0991182
-0.0979759
-0.0970786
-0.0965807
-0.0966096
-0.097273
-0.0986326
-0.100648
-0.103114
-0.105643
-0.107672
-0.10854
-0.107646
-0.104723
-0.100113
-0.0949004
-0.0906976
-0.0898306
-0.0946988
-0.106215
-0.122725
-0.140913
-0.157775
-0.170549
-0.176741
-0.152102
-0.155648
-0.157166
-0.162658
-0.168177
-0.164873
-0.159349
-0.160816
-0.15183
-0.154199
-0.175757
-0.102929
-0.10179
-0.100543
-0.0992166
-0.0979741
-0.0968903
-0.0960836
-0.0956769
-0.0957915
-0.0965287
-0.0979136
-0.0998431
-0.102049
-0.104098
-0.105421
-0.105431
-0.103713
-0.100313
-0.0959405
-0.0919593
-0.0901556
-0.0929649
-0.102235
-0.117913
-0.137327
-0.156724
-0.173
-0.182692
-0.183454
-0.156533
-0.15824
-0.163153
-0.16418
-0.167996
-0.170877
-0.168829
-0.16581
-0.166664
-0.160124
-0.161843
-0.176332
-0.103124
-0.101956
-0.100692
-0.0993532
-0.0980709
-0.0968881
-0.0958861
-0.0951659
-0.0948466
-0.095044
-0.0958318
-0.0971863
-0.0989516
-0.100818
-0.10234
-0.10299
-0.102313
-0.100132
-0.0968113
-0.0933745
-0.0913842
-0.0927234
-0.0996909
-0.113364
-0.132633
-0.154132
-0.17377
-0.187712
-0.192058
-0.185961
-0.163727
-0.164982
-0.168417
-0.16877
-0.170339
-0.169865
-0.169472
-0.169701
-0.169759
-0.166347
-0.167456
-0.172565
-0.103305
-0.102088
-0.100816
-0.0994903
-0.0982062
-0.0969849
-0.0958765
-0.0949554
-0.0943221
-0.094092
-0.0943612
-0.0951639
-0.0964309
-0.0979694
-0.0994554
-0.100467
-0.10057
-0.0994878
-0.0973162
-0.0947058
-0.0929129
-0.0936012
-0.0986573
-0.109959
-0.127654
-0.149674
-0.172303
-0.190759
-0.200027
-0.197012
-0.183591
-0.168697
-0.169279
-0.170647
-0.170197
-0.169039
-0.164887
-0.166346
-0.170216
-0.169355
-0.169955
-0.170231
-0.164629
-0.103444
-0.101864
-0.102479
-0.0996069
-0.100599
-0.101184
-0.0983414
-0.0971192
-0.0959665
-0.094933
-0.0940953
-0.0935536
-0.0934098
-0.0937285
-0.0945047
-0.0956339
-0.0969081
-0.098018
-0.0986064
-0.0983678
-0.0972319
-0.095566
-0.0943005
-0.0948405
-0.0988135
-0.107922
-0.12339
-0.144378
-0.168148
-0.190589
-0.205715
-0.207896
-0.196544
-0.176466
-0.170553
-0.17035
-0.169222
-0.16789
-0.163866
-0.156189
-0.159486
-0.166904
-0.165135
-0.170102
-0.169456
-0.153242
-0.103197
-0.103847
-0.101738
-0.102048
-0.102359
-0.102669
-0.0984549
-0.0993984
-0.0999528
-0.100476
-0.100771
-0.10107
-0.101363
-0.0972522
-0.0960952
-0.0950125
-0.0940573
-0.0933085
-0.0928595
-0.0927884
-0.0931265
-0.0938341
-0.0947901
-0.0957927
-0.09658
-0.0968947
-0.0966007
-0.0958401
-0.0952074
-0.0958631
-0.0993147
-0.106985
-0.120171
-0.139284
-0.162567
-0.18685
-0.207051
-0.216309
-0.209852
-0.190582
-0.165264
-0.168734
-0.167619
-0.163929
-0.161755
-0.155149
-0.144506
-0.149438
-0.159845
-0.157242
-0.166443
-0.164796
-0.139692
-0.103064
-0.103395
-0.103723
-0.101758
-0.10207
-0.102362
-0.102674
-0.0973624
-0.0982576
-0.0987819
-0.0992798
-0.0995583
-0.0998426
-0.10012
-0.100492
-0.100791
-0.101071
-0.101366
-0.0962239
-0.0951336
-0.0941235
-0.093251
-0.0925944
-0.0922306
-0.0922101
-0.092532
-0.093136
-0.0939011
-0.0946596
-0.0952231
-0.0954533
-0.0953923
-0.0954158
-0.0963395
-0.0994741
-0.106286
-0.117813
-0.134759
-0.156669
-0.181018
-0.204098
-0.219299
-0.220585
-0.205495
-0.179691
-0.151105
-0.163082
-0.161084
-0.155082
-0.152242
-0.143655
-0.131301
-0.137123
-0.149568
-0.1464
-0.159037
-0.156516
-0.125193
-0.103089
-0.103422
-0.103729
-0.0963304
-0.0971762
-0.0976712
-0.0981438
-0.098407
-0.0986776
-0.0989401
-0.0992929
-0.0995756
-0.0998422
-0.100123
-0.095257
-0.0942348
-0.0933003
-0.0925145
-0.0919456
-0.0916507
-0.0916514
-0.0919232
-0.0923987
-0.092979
-0.0935578
-0.0940492
-0.0944365
-0.0949204
-0.0961071
-0.0990353
-0.105073
-0.115472
-0.13072
-0.150771
-0.174333
-0.198203
-0.217687
-0.225257
-0.217947
-0.195198
-0.164889
-0.135136
-0.153905
-0.151232
-0.143495
-0.140254
-0.130467
-0.118214
-0.123666
-0.137099
-0.133643
-0.14847
-0.145358
-0.109674
-0.0953598
-0.0961556
-0.0966212
-0.0970674
-0.0973154
-0.0975723
-0.0978205
-0.0981543
-0.0984224
-0.0986763
-0.0989425
-0.0943518
-0.0933991
-0.0925431
-0.0918408
-0.0913489
-0.0910995
-0.0910895
-0.0912798
-0.0916164
-0.0920448
-0.0925258
-0.0930794
-0.0938475
-0.0952005
-0.0979309
-0.103232
-0.11241
-0.126346
-0.144871
-0.167052
-0.190799
-0.212173
-0.225498
-0.224278
-0.208523
-0.179886
-0.147459
-0.118118
-0.142092
-0.138983
-0.130303
-0.126936
-0.117097
-0.103659
-0.111205
-0.123528
-0.120034
-0.135831
-0.132373
-0.0935615
-0.094451
-0.0951969
-0.0956331
-0.0960521
-0.096285
-0.0965279
-0.0967615
-0.0970756
-0.0973289
-0.0975702
-0.0978226
-0.0935081
-0.0926255
-0.0918457
-0.0912204
-0.0907865
-0.0905527
-0.0904971
-0.0905854
-0.090797
-0.0911381
-0.0916453
-0.0924236
-0.0937707
-0.0962589
-0.100838
-0.108735
-0.121045
-0.138157
-0.159174
-0.182203
-0.204333
-0.220987
-0.22641
-0.21626
-0.19312
-0.16107
-0.128677
-0.100825
-0.128832
-0.125538
-0.116458
-0.113312
-0.103815
-0.0879309
-0.095793
-0.110361
-0.108008
-0.122208
-0.118622
-0.0779472
-0.0936032
-0.0943003
-0.0947082
-0.0950997
-0.0953175
-0.0955455
-0.0957645
-0.0960582
-0.0962967
-0.0965251
-0.0967634
-0.0927239
-0.0919087
-0.0911996
-0.0906358
-0.0902342
-0.0899827
-0.0898548
-0.0898349
-0.0899409
-0.0902481
-0.0908838
-0.0920612
-0.0942127
-0.0980755
-0.104693
-0.115205
-0.13037
-0.149977
-0.172343
-0.194645
-0.21321
-0.223257
-0.21996
-0.201689
-0.17338
-0.140444
-0.10971
-0.0841326
-0.11485
-0.111405
-0.103853
-0.0997065
-0.0878822
-0.0729628
-0.0803835
-0.0956999
-0.0917051
-0.10823
-0.107791
-0.0634363
-0.0928141
-0.0934647
-0.0938457
-0.0942098
-0.0944134
-0.0946266
-0.0948313
-0.0951045
-0.0953276
-0.0955422
-0.0957659
-0.091994
-0.0912404
-0.0905899
-0.0900667
-0.0896664
-0.0893659
-0.0891498
-0.089038
-0.0890943
-0.0894426
-0.090307
-0.0920291
-0.0951679
-0.100567
-0.109262
-0.122192
-0.13966
-0.160761
-0.183012
-0.202792
-0.215965
-0.218187
-0.206414
-0.182072
-0.151312
-0.119579
-0.0915405
-0.0686879
-0.101687
-0.0978367
-0.0877789
-0.0840432
-0.0729489
-0.0590996
-0.0660278
-0.0802744
-0.0765971
-0.0940807
-0.0901649
-0.107733
-0.0503152
-0.0920778
-0.0926864
-0.0930437
-0.0933814
-0.0935716
-0.0937697
-0.0939607
-0.0942138
-0.0944223
-0.0946233
-0.0948322
-0.09131
-0.0906074
-0.0899979
-0.0894878
-0.0890577
-0.0886843
-0.0883701
-0.0881755
-0.0882262
-0.0887102
-0.0899308
-0.09234
-0.0966001
-0.10359
-0.114246
-0.129182
-0.148128
-0.169425
-0.189864
-0.205313
-0.211706
-0.205885
-0.18726
-0.159511
-0.128808
-0.0996966
-0.0748522
-0.0548684
-0.0998669
-0.0962689
-0.0862702
-0.0825624
-0.0728609
-0.0694322
-0.0590933
-0.0463787
-0.0527667
-0.0658896
-0.0625169
-0.0789406
-0.0752304
-0.0925209
-0.0887029
-0.0387507
-0.0913857
-0.0919593
-0.0922967
-0.0926099
-0.0927889
-0.092973
-0.0931517
-0.0933852
-0.0935796
-0.0937666
-0.0939611
-0.0906592
-0.0899925
-0.0894012
-0.0888756
-0.0883901
-0.087934
-0.0875353
-0.0872908
-0.0873871
-0.0880914
-0.0897801
-0.0929883
-0.0984373
-0.106973
-0.119323
-0.135647
-0.154997
-0.174981
-0.191867
-0.201495
-0.200567
-0.187745
-0.164683
-0.136113
-0.107328
-0.0815622
-0.0600292
-0.0428604
-0.0848199
-0.08119
-0.0715486
-0.068075
-0.0590176
-0.0558862
-0.0462911
-0.0348961
-0.0404
-0.0526137
-0.0495218
-0.0646856
-0.0612484
-0.0775417
-0.0738953
-0.0289491
-0.0907249
-0.0912727
-0.0915961
-0.0918889
-0.0920586
-0.0922299
-0.0923984
-0.0926143
-0.0927964
-0.0929705
-0.0931514
-0.0900259
-0.0893763
-0.0887785
-0.0882104
-0.0876455
-0.0870938
-0.086626
-0.086385
-0.0866072
-0.0876205
-0.0898716
-0.0939531
-0.100598
-0.110543
-0.124179
-0.141084
-0.159592
-0.176704
-0.188549
-0.191555
-0.183811
-0.165887
-0.140906
-0.11353
-0.0877745