/*--------------------------------*- C++ -*----------------------------------*\
| =========                 |                                                 |
| \\      /  F ield         | OpenFOAM: The Open Source CFD Toolbox           |
|  \\    /   O peration     | Version:  v1912                                 |
|   \\  /    A nd           | Website:  www.openfoam.com                      |
|    \\/     M anipulation  |                                                 |
\*---------------------------------------------------------------------------*/
FoamFile
{
    version     2.0;
    format      ascii;
    class       volScalarField;
    location    "50";
    object      p;
}
// * * * * * * * * * * * * * * * * * * * * * * * * * * * * * * * * * * * * * //

dimensions      [0 2 -2 0 0 0 0];


internalField   nonuniform List<scalar> 
3673
(
0.142889
0.125315
0.0738733
0.125434
0.0822451
0.048473
0.140238
0.103974
0.0631139
0.0634511
0.157305
0.125624
0.0838928
0.0699872
0.0780374
0.173529
0.144406
0.106701
0.0816464
0.080382
0.0857805
0.188985
0.162063
0.129403
0.0994323
0.0867856
0.0868215
0.0889289
0.203538
0.179188
0.151208
0.121191
0.0991986
0.0906584
0.0896096
0.0887798
0.216885
0.195572
0.171879
0.144071
0.117149
0.0991451
0.0920002
0.0894892
0.0862479
0.228715
0.210959
0.191501
0.166761
0.138253
0.112967
0.097611
0.0911095
0.0871022
0.0822166
0.238706
0.225068
0.210178
0.18904
0.160786
0.130922
0.10748
0.094667
0.0883662
0.083224
0.0773764
0.246516
0.23756
0.227827
0.210991
0.184129
0.151503
0.121338
0.101069
0.0906115
0.0843653
0.0785088
0.0721657
0.251812
0.248033
0.24418
0.232622
0.208256
0.173946
0.138192
0.110492
0.0944291
0.0859031
0.0796344
0.0733838
0.066884
0.254289
0.256058
0.25881
0.253773
0.233307
0.198213
0.157349
0.122397
0.100052
0.0881812
0.0808505
0.0745157
0.0681476
0.0617431
0.253717
0.261186
0.271144
0.274059
0.259368
0.224659
0.178737
0.136181
0.107173
0.0913701
0.0823534
0.0755663
0.0692827
0.06302
0.0568599
0.249971
0.263003
0.280471
0.292825
0.286344
0.253803
0.202812
0.151589
0.115231
0.0953196
0.0842688
0.0766456
0.0702347
0.064148
0.0581244
0.0522958
0.243086
0.261182
0.285978
0.309072
0.313824
0.286206
0.230424
0.168722
0.123681
0.0996299
0.0865647
0.0778303
0.0710546
0.0650496
0.0592435
0.0535265
0.0480552
0.233277
0.255574
0.286839
0.321391
0.340885
0.322368
0.262802
0.187959
0.131995
0.10382
0.0890389
0.0791355
0.0717761
0.065746
0.0601265
0.0546178
0.0492355
0.0441387
0.220947
0.24627
0.282404
0.327951
0.365753
0.362579
0.301614
0.209949
0.139514
0.10734
0.0914111
0.0804719
0.072425
0.066236
0.0607818
0.0554846
0.0502896
0.0452603
0.0405258
0.206654
0.233651
0.272433
0.326756
0.385119
0.406752
0.348992
0.235588
0.145279
0.109517
0.0933549
0.0816783
0.0729658
0.0665445
0.0611929
0.0561328
0.0511366
0.0462649
0.0415816
0.0371923
0.191059
0.218377
0.257266
0.316368
0.393629
0.452866
0.408226
0.265651
0.14765
0.109562
0.0944657
0.0825406
0.0733083
0.0666719
0.0613755
0.0565287
0.0517821
0.0470796
0.0425262
0.0381824
0.0341259
0.174849
0.201299
0.237875
0.29666
0.386156
0.48981
0.486246
0.301695
0.143141
0.106545
0.0942789
0.0827859
0.0733183
0.066581
0.0613416
0.0566786
0.0521857
0.0477169
0.0433001
0.0390678
0.0350537
0.031314
0.15866
0.18334
0.215738
0.269116
0.360836
0.494504
0.584681
0.350381
0.128896
0.0986144
0.0924503
0.0820672
0.07284
0.0661975
0.0610818
0.0565961
0.0523467
0.0481339
0.043921
0.0397948
0.0358774
0.0321791
0.0287697
0.143032
0.165341
0.192528
0.236758
0.318902
0.463428
0.59275
0.612385
0.495936
0.691954
0.578639
0.144568
0.303555
0.122877
0.0857603
0.0936489
0.0883032
0.0801718
0.0717008
0.0654444
0.0605517
0.0562838
0.0522778
0.0483169
0.0443426
0.0403872
0.0365518
0.0329415
0.0295717
0.0265043
0.128378
0.147972
0.169698
0.203285
0.266646
0.393488
0.601528
0.557435
0.718808
0.662645
0.709574
0.60399
0.415634
0.393262
0.135672
0.139609
0.311397
0.0846874
0.086911
0.0882922
0.0807656
0.0749875
0.0773044
0.0698659
0.0642737
0.0597028
0.0557134
0.0519895
0.048272
0.0445398
0.040801
0.0371107
0.0335653
0.0302649
0.0272383
0.024548
0.115002
0.131722
0.148241
0.171505
0.213577
0.301633
0.506204
0.432045
0.718128
0.610645
0.64025
0.765029
0.740625
0.631111
0.545423
0.0994985
0.142023
0.0664831
0.082125
0.0796456
0.0751559
0.0736148
0.0701642
0.0730859
0.0677915
0.0627354
0.0585159
0.0548592
0.0514839
0.0480141
0.0445098
0.0410081
0.0375141
0.034089
0.0308276
0.0278569
0.0252106
0.0228967
0.103106
0.116921
0.128708
0.142956
0.166288
0.215642
0.352619
0.250151
0.562674
0.471185
0.781864
0.777825
0.72094
0.65958
0.723971
0.0717341
0.0728739
0.0602136
0.0708582
0.0709498
0.0700301
0.0661442
0.0667263
0.067882
0.0674737
0.069827
0.0612238
0.0570596
0.053724
0.0507767
0.0475552
0.0442622
0.0409959
0.0377289
0.0344786
0.0313117
0.028354
0.0257459
0.023492
0.0215372
0.0928196
0.103773
0.111354
0.118193
0.127378
0.140919
0.141527
0.371445
0.26139
0.635712
0.54779
0.336192
0.440797
0.751369
0.709476
0.0670943
0.0665357
0.0681295
0.0669818
0.0674374
0.0652552
0.0602351
0.0622101
0.0652459
0.0654402
0.0664305
0.0648037
0.0668742
0.0556539
0.0523341
0.0499387
0.0469268
0.0438106
0.0407678
0.0377379
0.034699
0.0316883
0.0287939
0.026165
0.0239519
0.0220748
0.0204088
0.0842114
0.0924007
0.0962691
0.0971588
0.0961557
0.0873125
0.038927
-0.102126
-0.166639
0.330197
0.170212
0.08866
0.125725
0.066172
0.0653297
0.0659308
0.0652972
0.0638489
0.0603757
0.0547872
0.0574262
0.0613357
0.0637672
0.0646448
0.0642013
0.0651606
0.0507022
0.0491143
0.0462012
0.0431875
0.0403396
0.0375412
0.0347298
0.0319183
0.0291562
0.0265522
0.024295
0.0224747
0.0209025
0.0194476
0.077311
0.0828585
0.0834606
0.0795835
0.0711117
0.0508084
-0.0132594
-0.334485
-0.0709415
-0.381517
-0.448387
-0.560776
0.299655
-0.00965262
-0.117982
0.0649247
0.0644763
0.0632994
0.0623447
0.0594341
0.0554899
0.0490095
0.0525009
0.0568531
0.0601383
0.0612627
0.0631459
0.0639971
0.0484122
0.0455039
0.042465
0.0397559
0.037159
0.0345684
0.031974
0.0293977
0.026896
0.0246224
0.0227568
0.0212719
0.0199089
0.0185754
0.072114
0.075162
0.0728791
0.065175
0.051221
0.0242595
-0.0418628
-0.275183
-0.982534
-0.839887
-0.142366
-0.64138
-0.821119
-0.74508
0.0627483
0.0618953
0.0592791
0.0581167
0.0548537
0.0499623
0.0477805
0.0463077
0.0525257
0.0557183
0.0569853
0.0597637
0.0608591
0.044933
0.0417472
0.0390945
0.03664
0.0342361
0.0318488
0.0294825
0.0271513
0.0249387
0.0230306
0.021526
0.0202686
0.0190117
0.0177435
0.0686
0.0692929
0.0644503
0.0536416
0.0357131
0.00462609
-0.0610659
-0.231027
-0.779275
-1.20299
-0.970541
-0.892826
-0.983502
0.0588783
0.0578141
0.0548265
0.0535446
0.0501214
0.0480277
0.0443409
0.0464372
0.0440447
0.0514123
0.0527309
0.055444
0.0566513
0.0411462
0.038456
0.0360631
0.033788
0.0315656
0.0293983
0.027273
0.0252013
0.0233101
0.0217625
0.0205252
0.0193799
0.0181555
0.0169137
0.0667296
0.0652193
0.0580849
0.0447155
0.0238772
-0.0096242
-0.0731137
-0.204486
-0.597088
-0.895541
-1.06352
-1.07134
-0.962007
0.0544501
0.0532842
0.0508818
0.0508472
0.0482145
0.0443124
0.0406614
0.0426581
0.0461218
0.0482129
0.0408564
0.0511493
0.0522729
0.0379188
0.0355142
0.0333046
0.0311814
0.0291604
0.0272375
0.0253587
0.0235596
0.0219999
0.0207565
0.0196705
0.0185307
0.0173015
0.0160771
0.0664575
0.0628941
0.0536966
0.0381656
0.0151281
-0.0197594
-0.0799139
-0.188036
-0.462187
-0.762017
-0.765163
-0.931428
-1.01711
-1.047
-1.0052
0.0499027
0.0514702
0.0483489
0.0475488
0.0438693
0.040934
0.0374893
0.0394166
0.0422419
0.0451574
0.0460116
0.0374724
0.0350686
0.0328631
0.0307855
0.0288217
0.0270532
0.0253826
0.0237361
0.0222138
0.020968
0.0199303
0.018864
0.0176767
0.0164357
0.0152431
0.0677263
0.062267
0.051204
0.0338056
0.00902089
-0.0266993
-0.0834231
-0.176178
-0.373803
-0.625974
-0.717713
-0.674019
-0.767403
-0.824222
-0.914576
-0.955063
-1.01763
0.0439899
0.0432037
0.0406423
0.0379031
0.0346849
0.0365002
0.0391236
0.0416847
0.0423733
0.0324991
0.0304577
0.0284632
0.0267554
0.0252762
0.0238156
0.0223715
0.0211376
0.0201433
0.0191788
0.0180439
0.0168
0.0155749
0.0144107
0.070473
0.0632803
0.0505355
0.0314848
0.0052265
-0.031067
-0.0847817
-0.166506
-0.315771
-0.517736
-0.643866
-0.658421
-0.627156
-0.667022
-0.702902
-0.749175
-0.781723
-0.810257
-0.845116
-0.914754
-0.957783
0.0408225
0.0400611
0.0376835
0.0351732
0.0322394
0.032606
0.0363514
0.0386126
0.0392773
0.0302198
0.0281752
0.0263919
0.0250633
0.0238061
0.0224558
0.0212429
0.0202839
0.0194292
0.0184179
0.0171895
0.0159161
0.0147142
0.0135941
0.0746217
0.0658744
0.0516296
0.0310955
0.00350665
-0.0332964
-0.0846019
-0.158031
-0.276318
-0.437324
-0.56447
-0.618958
-0.618769
-0.584866
-0.614079
-0.637384
-0.657453
-0.675461
-0.690178
-0.713132
-0.746646
-0.778425
-0.807703
-0.838794
0.0378348
0.0371393
0.0355148
0.0325196
0.0300073
0.031377
0.0294083
0.0315521
0.035843
0.036424
0.0280186
0.0260154
0.024766
0.0237407
0.0224775
0.0212787
0.0203392
0.0195743
0.01873
0.017614
0.0163011
0.0150282
0.0138745
0.012796
0.0800846
0.0699811
0.0544343
0.0325614
0.00370649
-0.03369
-0.083249
-0.150376
-0.248312
-0.378652
-0.495603
-0.565681
-0.594915
-0.580875
-0.548986
-0.573135
-0.592326
-0.611829
-0.625654
-0.641182
-0.656294
-0.675241
-0.688213
-0.71101
0.0353506
0.0347569
0.0383489
0.0322954
0.0319973
0.0303337
0.0279293
0.029144
0.0314705
0.0310022
0.0324807
0.0257547
0.0243429
0.0236589
0.0224638
0.021255
0.0203168
0.0196066
0.0189165
0.0179893
0.016751
0.0153944
0.014159
0.0130572
0.0120294
0.0867543
0.0755248
0.0589042
0.0358433
0.0057361
-0.0324309
-0.0809355
-0.143385
-0.227537
-0.33563
-0.440161
-0.513809
-0.558201
-0.567899
-0.54729
-0.520085
-0.540274
-0.555189
-0.571963
-0.590371
-0.605429
-0.629728
-0.617175
-0.639571
-0.654261
-0.671606
-0.68182
0.0351881
0.0321395
0.0318422
0.0305012
0.0298989
0.0282502
0.0257795
0.0270542
0.0293411
0.0287991
0.0313901
0.0309497
0.0322489
0.0236549
0.0235921
0.0224381
0.0211872
0.0202352
0.0195439
0.0189577
0.0182323
0.0171802
0.0158472
0.0144944
0.0133162
0.0122768
0.0112958
0.0944987
0.0824138
0.0649974
0.0409283
0.00957056
-0.0296119
-0.0777615
-0.136954
-0.211596
-0.303542
-0.396352
-0.468653
-0.518508
-0.54403
-0.540038
-0.519292
-0.49379
-0.511862
-0.525684
-0.539448
-0.553566
-0.567384
-0.575399
-0.593585
-0.583972
-0.628094
-0.637769
0.0319952
0.0317505
0.0304119
0.0298247
0.0283623
0.0277546
0.0262656
0.022764
0.0251081
0.0272418
0.0266576
0.029291
0.0287644
0.0313108
0.0308954
0.0234991
0.0224073
0.0210763
0.0201055
0.0194119
0.0188753
0.0183091
0.0174861
0.0163052
0.0149248
0.0136138
0.0125124
0.0115345
0.0106106
0.103153
0.0905339
0.0726687
0.0478315
0.0152409
-0.0252368
-0.0737453
-0.130973
-0.199096
-0.27928
-0.36181
-0.430752
-0.481722
-0.514606
-0.52471
-0.514636
-0.49384
-0.471562
-0.486491
-0.498813
-0.510756
-0.524203
-0.534535
-0.542342
-0.555978
-0.549763
0.0303508
0.0297868
0.0282442
0.0276609
0.0263067
0.025688
0.0236437
0.0232839
0.0217914
0.0254202
0.0248064
0.0271669
0.0266164
0.029222
0.0287151
0.0223578
0.0209181
0.0199277
0.0192274
0.0187035
0.018232
0.0176126
0.0166592
0.0153828
0.0140057
0.0127738
0.011758
0.0108487
0.00997427
0.112512
0.0997392
0.0818598
0.0565877
0.0228369
-0.0192308
-0.0688406
-0.125329
-0.189184
-0.260845
-0.334647
-0.399376
-0.449673
-0.485256
-0.503628
-0.504366
-0.49117
-0.471805
-0.451621
-0.465257
-0.475772
-0.485491
-0.497714
-0.506537
-0.513225
-0.526461
-0.519533
-0.533629
-0.541148
-0.552421
-0.548556
0.0281686
0.0276145
0.0261341
0.0255807
0.0244453
0.0232536
0.0230619
0.0221596
0.0228229
0.0205404
0.0228461
0.0252691
0.0249021
0.0270904
0.0265616
0.0207076
0.01969
0.0189908
0.0184626
0.0180364
0.0175597
0.0168374
0.0157643
0.0144433
0.0131199
0.0119907
0.0110661
0.0102166
0.00939664
0.122323
0.109842
0.0924871
0.0672413
0.032501
-0.0114277
-0.0629293
-0.1199
-0.18133
-0.24692
-0.313487
-0.373657
-0.422378
-0.458631
-0.481054
-0.489232
-0.484414
-0.470134
-0.452369
-0.434102
-0.443043
-0.455128
-0.464664
-0.474907
-0.481626
-0.487971
-0.499776
-0.493632
-0.505867
-0.512294
-0.525355
-0.518839
0.026038
0.0255108
0.0245368
0.0254447
0.0231787
0.0230151
0.0219686
0.0204576
0.0213471
0.0225628
0.0223438
0.0181486
0.0249161
0.0250988
0.0247828
0.01941
0.0187022
0.0181648
0.0177545
0.017361
0.0168233
0.0159872
0.0148316
0.0135163
0.0122874
0.0112752
0.010442
0.00964755
0.00887156
0.132276
0.120597
0.104428
0.0798402
0.0444318
-0.00157459
-0.055815
-0.114561
-0.175225
-0.236666
-0.297321
-0.352898
-0.399396
-0.435338
-0.459643
-0.472062
-0.47362
-0.465558
-0.451181
-0.434592
-0.43233
-0.418373
-0.447631
-0.454352
-0.46133
-0.466554
-0.476803
-0.471441
-0.481031
-0.488085
-0.498756
-0.493098
0.0240818
0.0252659
0.0234883
0.0228702
0.0219042
0.021595
0.0204953
0.019107
0.0198486
0.0212511
0.0209953
0.0224348
0.0221693
0.0152889
0.0183663
0.0178142
0.0174063
0.0170576
0.0166439
0.0160202
0.0150889
0.0138916
0.0126328
0.0115287
0.0106468
0.00988899
0.00913315
0.0083904
0.142012
0.131695
0.117495
0.0944116
0.0588802
0.0106922
-0.0471973
-0.10916
-0.170722
-0.229592
-0.285432
-0.336556
-0.380345
-0.415289
-0.440337
-0.455118
-0.460626
-0.457815
-0.447988
-0.433836
-0.418808
-0.417117
-0.427456
-0.436132
-0.40479
-0.445711
-0.455753
-0.44974
-0.460795
-0.465885
-0.476912
-0.470951
-0.478761
0.0218211
0.0214947
0.0205503
0.0201588
0.0191395
0.0180189
0.0185474
0.0198079
0.019532
0.0211803
0.0209237
0.0174436
0.0170199
0.0166903
0.0163453
0.015877
0.0151752
0.0141754
0.0129804
0.0118213
0.0108682
0.0101016
0.00939564
0.00866104
0.00793754
0.151114
0.142748
0.131406
0.110922
0.0761355
0.0258737
-0.0366519
-0.103503
-0.167827
-0.225502
-0.27736
-0.324207
-0.364947
-0.398319
-0.423325
-0.439421
-0.447291
-0.448004
-0.442371
-0.431631
-0.418292
-0.404964
-0.403929
-0.413002
-0.419527
-0.425709
-0.429132
-0.432939
-0.437134
-0.391375
-0.441954
-0.446787
-0.452349
-0.455495
-0.460201
-0.46511
-0.47563
-0.470206
0.0204766
0.0200627
0.0191533
0.0187911
0.0179855
0.0170744
0.0174638
0.0184817
0.0182411
0.0197162
0.0194475
0.0166202
0.0162915
0.0159798
0.0156036
0.0150926
0.0143271
0.0132816
0.012127
0.0111053
0.0103062
0.00962863
0.00894732
0.00821379
0.00750143
0.159139
0.153279
0.14575
0.129228
0.0964994
0.0446293
-0.0235553
-0.0973266
-0.166698
-0.224473
-0.272878
-0.315538
-0.352972
-0.384304
-0.408619
-0.425294
-0.434626
-0.437557
-0.434944
-0.427531
-0.416637
-0.404417
-0.391724
-0.390463
-0.399345
-0.406332
-0.410795
-0.414458
-0.417991
-0.420257
-0.378671
-0.45128
-0.454794
0.0190467
0.0186761
0.0179543
0.0176428
0.0170103
0.0162477
0.0165412
0.0173976
0.0171758
0.0183725
0.0181436
0.0159017
0.0156061
0.0152587
0.0148669
0.0143332
0.0135038
0.0124231
0.0113542
0.0104994
0.00983503
0.00920926
0.00851771
0.00777851
0.00707614
0.165637
0.162738
0.159944
0.149016
0.120225
0.0678082
-0.00700784
-0.0902522
-0.167747
-0.226878
-0.271992
-0.310353
-0.344231
-0.373129
-0.396208
-0.41284
-0.423021
-0.427394
-0.426778
-0.4219
-0.413545
-0.402991
-0.391397
-0.37926
-0.377619
-0.386191
-0.392729
-0.397087
-0.400633
-0.403871
-0.407242
-0.410491
-0.414065
-0.417224
-0.418098
-0.367458
0.0178347
0.01753
0.0169701
0.0166827
0.0161662
0.0155305
0.0157347
0.0164767
0.016282
0.0172899
0.0170876
0.0152481
0.0149062
0.0145436
0.0141962
0.0136328
0.0126949
0.0116143
0.010686
0.00999894
0.0094295
0.00880663
0.00809283
0.00735152
0.0066637
0.170205
0.17053
0.173197
0.169687
0.147426
0.0963994
0.0143484
-0.0816917
-0.171757
-0.233476
-0.274925
-0.308585
-0.338582
-0.364684
-0.386065
-0.402109
-0.412619
-0.417927
-0.418665
-0.415533
-0.409223
-0.400526
-0.390287
-0.379211
-0.36799
-0.366573
-0.373944
-0.379609
-0.384116
-0.387435
-0.39037
-0.393586
-0.396857
-0.400334
-0.40335
-0.4065
-0.35635
0.0168552
0.0165757
0.0161041
0.0158582
0.0154309
0.0149026
0.0150305
0.0156634
0.0154915
0.0163779
0.0162029
0.0146107
0.0141959
0.0139161
0.013655
0.0129295
0.0118831
0.0108839
0.0101295
0.00958014
0.00905024
0.00840414
0.0076703
0.00693474
0.00627012
0.172532
0.176085
0.184517
0.190142
0.177953
0.131466
0.042499
-0.0706969
-0.180117
-0.24557
-0.282156
-0.310293
-0.335951
-0.358871
-0.378135
-0.39312
-0.403491
-0.409321
-0.410997
-0.40909
-0.404247
-0.397132
-0.388357
-0.378455
-0.368057
-0.357071
-0.355344
-0.362379
-0.368524
-0.372143
-0.375051
-0.377239
-0.380688
-0.383909
-0.387067
-0.389862
-0.392858
-0.345461
0.0159894
0.0157548
0.0153507
0.0151293
0.014792
0.0143258
0.0144115
0.0149601
0.0147994
0.0155656
0.0154141
0.0139421
0.0134875
0.0135564
0.0131154
0.0121503
0.0111064
0.0102583
0.00966532
0.00920251
0.00867312
0.00799507
0.00725198
0.00653585
0.00589365
0.178944
0.192836
0.208567
0.210848
0.174598
0.0799718
-0.0561623
-0.195318
-0.265173
-0.294442
-0.315662
-0.336338
-0.355615
-0.372346
-0.385852
-0.395671
-0.401646
-0.403937
-0.402924
-0.399144
-0.393212
-0.385691
-0.376998
-0.367558
-0.357424
-0.346397
-0.344376
-0.351577
-0.357014
-0.359147
-0.363144
-0.3663
-0.369271
-0.371916
-0.375351
-0.376534
-0.380703
-0.335414
0.0152326
0.0150257
0.0146974
0.0145035
0.0142223
0.0138365
0.0138186
0.0143542
0.0141996
0.0148658
0.0147224
0.0129766
0.0132934
0.0132347
0.0123836
0.0113439
0.0104145
0.00972586
0.00925879
0.00883808
0.00828479
0.00758135
0.00684667
0.00615648
0.00554258
0.197212
0.222679
0.243009
0.22806
0.130638
-0.0382038
-0.222158
-0.295172
-0.312854
-0.325005
-0.339826
-0.354884
-0.368622
-0.380253
-0.38915
-0.394934
-0.397547
-0.39718
-0.394211
-0.389165
-0.382596
-0.374934
-0.366483
-0.357286
-0.347066
-0.336317
-0.334457
-0.340791
-0.346236
-0.350913
-0.356081
-0.361252
-0.363108
-0.36585
-0.368748
-0.371392
-0.37463
-0.375045
-0.325823
0.0145849
0.0144045
0.0141255
0.0139393
0.013719
0.0126525
0.0133601
0.0137843
0.0136054
0.0142682
0.0141345
0.0127609
0.0132938
0.0125413
0.0115606
0.0106023
0.00980645
0.00926092
0.00888231
0.00846848
0.00788316
0.00717228
0.00646443
0.00580107
0.230321
0.269331
0.288121
0.20516
-0.0152126
-0.268808
-0.340468
-0.338524
-0.338801
-0.346562
-0.35668
-0.366901
-0.376256
-0.383892
-0.389179
-0.391844
-0.391901
-0.389564
-0.385224
-0.379381
-0.372506
-0.36491
-0.35662
-0.347329
-0.337089
-0.326617
-0.324946
-0.331277
-0.336108
-0.340039
-0.345631
-0.349108
-0.351815
-0.357064
-0.354248
-0.360436
-0.362696
-0.365504
-0.368269
-0.316471
0.0140138
0.0138508
0.0135643
0.0133793
0.013221
0.0119821
0.0123102
0.0133024
0.0130777
0.0137098
0.0135502
0.0132986
0.0125862
0.0116986
0.0107911
0.00992545
0.0092628
0.0088433
0.00851719
0.0080839
0.00748026
0.00678583
0.00610491
0.284428
0.338826
0.316748
0.0279512
-0.343207
-0.409795
-0.372206
-0.357652
-0.356752
-0.36102
-0.367125
-0.373793
-0.379841
-0.384351
-0.386823
-0.387094
-0.385226
-0.381467
-0.376223
-0.369952
-0.363012
-0.355495
-0.347103
-0.337603
-0.327371
-0.31714
-0.315719
-0.321781
-0.326541
-0.330777
-0.335678
-0.338211
-0.341503
-0.346293
-0.343796
-0.307661
0.0134437
0.0132878
0.0130999
0.0128848
0.0108553
0.0131605
0.0126478
0.0129925
0.0132353
0.0132007
0.0130051
0.0125227
0.0117152
0.0109343
0.0100663
0.00929635
0.00878187
0.00846121
0.00814598
0.00769353
0.00708969
0.006423
0.00577028
0.371152
0.374359
0.42954
0.183053
0.283658
0.43878
-0.322974
-0.0393857
-0.381058
-0.497495
-0.519083
-0.414535
-0.381683
-0.370628
-0.367875
-0.36923
-0.372796
-0.376942
-0.380409
-0.382459
-0.382748
-0.38119
-0.377899
-0.373168
-0.367402
-0.360972
-0.354046
-0.346422
-0.337734
-0.327999
-0.317807
-0.308169
-0.307035
-0.312837
-0.317323
-0.321277
-0.325913
-0.32913
-0.331564
-0.336642
-0.33397
-0.336991
-0.299758
0.0128667
0.0127293
0.00933454
0.0130665
0.0127993
0.0123345
0.0126389
0.012757
0.0125673
0.0125777
0.0135014
0.0116116
0.0109906
0.0101923
0.00935657
0.00873794
0.00836578
0.00809238
0.00776835
0.0073047
0.00671967
0.00608833
0.462851
0.481343
0.498564
0.383322
0.142721
0.105959
-0.322245
-0.301524
-0.0957786
-0.596109
-0.431772
-0.532756
-0.460457
-0.533383
-0.408859
-0.388
-0.37705
-0.3731
-0.373185
-0.375137
-0.37731
-0.378724
-0.378848
-0.377445
-0.374503
-0.370207
-0.364885
-0.358884
-0.352416
-0.345387
-0.337443
-0.328356
-0.318431
-0.308637
-0.300013
-0.299298
-0.304367
-0.308673
-0.312468
-0.316768
-0.319766
-0.32209
-0.326607
-0.324278
-0.328805
-0.331182
-0.336131
-0.333484
-0.292503
0.00690195
0.0124755
0.0125377
0.0121591
0.0114348
0.0118947
0.0124118
0.0123956
0.0109615
0.0102656
0.00942001
0.00870836
0.0082831
0.00798743
0.00772282
0.00738748
0.00693239
0.00638543
0.552232
0.580296
0.541457
0.472391
0.211844
0.192038
0.442719
-0.0876003
-0.341378
-0.235694
-0.641543
-0.573222
-0.586431
-0.497524
-0.433293
-0.481077
-0.544553
-0.406133
-0.387974
-0.378451
-0.374855
-0.374354
-0.375009
-0.375589
-0.375379
-0.373985
-0.371271
-0.367324
-0.362389
-0.356771
-0.350686
-0.344115
-0.336777
-0.328355
-0.318891
-0.309105
-0.300173
-0.292536
-0.291878
-0.296767
-0.300719
-0.303982
-0.308252
-0.311025
-0.313238
-0.317461
-0.315229
-0.319504
-0.321753
-0.326235
-0.323999
-0.285564
0.0121389
0.0120151
0.0114065
0.010841
0.0111407
0.0118468
0.0117324
0.0103184
0.00943464
0.00867836
0.00821753
0.00789369
0.00761843
0.0073496
0.00701698
0.00659524
0.57919
0.616359
0.653999
0.640287
0.542923
0.312513
0.132419
-0.606232
-0.61126
-0.606942
-0.511238
-0.460983
-0.418188
-0.447386
-0.48505
-0.551945
-0.570065
-0.398639
-0.384699
-0.377599
-0.374511
-0.373448
-0.373024
-0.372329
-0.37081
-0.368206
-0.364514
-0.359902
-0.354625
-0.348879
-0.342684
-0.335824
-0.327992
-0.319075
-0.309506
-0.300339
-0.292426
-0.285568
-0.285155
-0.287834
-0.292988
-0.296555
-0.300334
-0.302512
-0.304846
-0.308918
-0.306802
-0.310765
-0.312892
-0.317105
-0.31498
-0.278964
0.0114322
0.0112585
0.0107646
0.0104204
0.0105441
0.0110952
0.0109922
0.00936694
0.00866462
0.00812842
0.00783261
0.00752056
0.00724782
0.00698145
0.0066755
0.569594
0.622007
0.68736
0.66903
0.515397
-0.528263
-0.515529
-0.469544
-0.43075
-0.405076
-0.421431
-0.451115
-0.492632
-0.488511
-0.390696
-0.380997
-0.375489
-0.37257
-0.370989
-0.369684
-0.367924
-0.365319
-0.361785
-0.357426
-0.352439
-0.346996
-0.341127
-0.334662
-0.327322
-0.318939
-0.309733
-0.300517
-0.292287
-0.285362
-0.279113
-0.284134
-0.278444
-0.290394
-0.292883
-0.295283
-0.297217
-0.300946
-0.299023
-0.302118
-0.304997
-0.308535
-0.306604
-0.272715
0.0107574
0.0106193
0.0102519
0.00988961
0.0100685
0.0104838
0.010395
0.00796785
0.00810347
0.00775382
0.00746262
0.0071461
0.00687783
0.00663697
-0.477464
-0.467257
-0.433801
-0.411748
-0.394736
-0.405378
-0.423242
-0.448208
-0.456581
-0.493962
-0.481798
-0.384376
-0.377061
-0.372323
-0.369457
-0.367434
-0.365338
-0.362627
-0.359156
-0.354975
-0.350223
-0.34504
-0.339458
-0.333331
-0.326409
-0.318505
-0.309721
-0.300641
-0.292192
-0.285032
-0.278948
-0.273077
-0.277624
-0.281983
-0.285483
-0.272019
-0.287649
-0.29021
-0.293396
-0.291559
-0.29501
-0.296904
-0.301086
-0.298798
-0.300956
-0.266664
0.0102154
0.0101042
0.00979911
0.00476563
0.00950745
0.0122711
0.00999449
0.00993077
0.00816423
0.00690942
0.0076466
0.0074117
0.00708398
0.00677096
0.00652814
-0.477683
-0.467779
-0.438644
-0.432119
-0.413541
-0.399216
-0.387047
-0.394629
-0.406712
-0.421663
-0.42669
-0.448973
-0.457099
-0.378916
-0.372664
-0.368432
-0.365587
-0.363072
-0.360157
-0.356652
-0.352571
-0.347996
-0.343028
-0.337691
-0.331859
-0.3253
-0.317824
-0.309464
-0.30064
-0.292133
-0.284709
-0.278564
-0.273073
-0.267221
-0.271141
-0.275377
-0.278736
-0.280853
-0.282709
-0.284272
-0.286067
-0.288828
-0.26589
-0.289736
-0.2931
-0.29131
-0.294702
-0.296527
-0.300491
-0.29839
-0.260347
0.00977494
0.00966932
0.0100267
0.00943296
0.00915368
0.00755319
0.00770575
0.00760276
0.00770722
0.00731011
0.00705033
0.0066983
0.00640707
-0.439102
-0.432699
-0.416494
-0.412489
-0.400491
-0.390426
-0.380759
-0.386788
-0.395725
-0.405845
-0.409121
-0.422173
-0.427029
-0.373575
-0.367946
-0.364193
-0.361186
-0.35795
-0.354304
-0.350241
-0.345782
-0.340981
-0.335847
-0.330269
-0.324032
-0.31694
-0.308988
-0.300482
-0.292059
-0.284458
-0.278118
-0.272766
-0.267464
-0.261189
-0.265021
-0.269096
-0.271915
-0.274613
-0.275948
-0.27744
-0.279063
-0.288122
-0.259405
-0.289433
-0.292767
-0.291075
-0.253889
0.0114627
0.00518054
0.0090154
0.00892371
0.00664042
0.00753599
0.00746558
0.00720158
0.0073589
0.00753826
0.00698705
0.00665999
0.0063112
-0.416814
-0.412917
-0.402584
-0.399898
-0.391391
-0.383596
-0.375006
-0.380371
-0.387735
-0.395268
-0.39759
-0.40628
-0.409421
-0.368131
-0.363342
-0.359812
-0.356092
-0.352164
-0.348023
-0.34361
-0.338923
-0.333949
-0.328584
-0.32263
-0.315891
-0.308326
-0.300166
-0.291929
-0.284272
-0.277726
-0.272312
-0.267369
-0.26178
-0.254956
-0.258418
-0.262637
-0.265938
-0.267972
-0.269616
-0.271236
-0.272063
-0.252852
-0.247399
0.00762902
0.00911783
0.00725505
0.0073142
0.00738265
0.00717024
0.00687956
0.00704463
0.00727067
0.00734869
0.00736207
0.0066232
0.00625669
-0.402888
-0.400286
-0.393027
-0.391043
-0.384382
-0.377679
-0.369137
-0.37457
-0.381251
-0.387489
-0.389317
-0.395672
-0.39789
-0.363063
-0.359134
-0.354722
-0.350321
-0.34597
-0.341517
-0.336883
-0.332021
-0.326829
-0.321121
-0.314704
-0.307508
-0.299706
-0.291718
-0.284119
-0.277429
-0.271852
-0.267033
-0.262021
-0.255884
-0.248616
-0.251911
-0.25607
-0.259328
-0.261448
-0.263119
-0.264705
-0.266293
-0.267725
-0.269333
-0.270786
-0.270881
-0.246278
-0.24108
0.00726141
0.00739844
0.00724019
0.00730686
0.00729237
0.00713169
0.00685794
0.00654248
0.00670768
0.00698663
0.00720974
0.00722891
0.00726601
0.00726496
0.00623129
-0.39333
-0.39142
-0.38579
-0.384151
-0.378359
-0.371964
-0.363442
-0.368538
-0.375462
-0.381094
-0.382713
-0.387889
-0.389622
-0.359305
-0.354031
-0.348927
-0.344187
-0.339563
-0.334899
-0.330094
-0.325029
-0.31953
-0.313404
-0.306561
-0.299117
-0.291418
-0.283959
-0.277218
-0.271472
-0.266599
-0.261932
-0.256494
-0.249786
-0.242291
-0.245287
-0.249601
-0.252815
-0.254896
-0.256564
-0.258119
-0.259712
-0.261244
-0.262908
-0.264406
-0.265935
-0.240025
-0.234763
0.00711482
0.00710596
0.00726486
0.00724942
0.00711999
0.00708313
0.00682743
0.00653253
0.00619948
0.00636606
0.00666132
0.00693885
0.0069893
0.00717405
0.00721193
0.00718185
0.00715949
-0.386096
-0.38453
-0.379656
-0.378128
-0.372801
-0.365164
-0.36015
-0.364095
-0.36967
-0.375258
-0.376857
-0.381494
-0.383018
-0.354107
-0.348143
-0.34283
-0.337857
-0.333038
-0.328208
-0.32322
-0.317888
-0.312023
-0.305511
-0.29842
-0.291031
-0.283767
-0.277057
-0.27119
-0.266178
-0.261622
-0.256717
-0.250709
-0.243562
-0.235933
-0.239137
-0.243028
-0.246241
-0.248416
-0.25007
-0.251584
-0.253176
-0.254679
-0.256342
-0.257827
-0.259366
-0.233762
-0.228516
0.00720474
0.00720121
0.00711647
0.00706279
0.0068398
0.00678766
0.00650513
0.00622079
0.00633815
0.00662336
0.00668556
0.00692112
0.00699006
0.00713291
0.00718029
-0.37995
-0.378507
-0.374034
-0.372506
-0.364962
-0.362283
-0.354777
-0.35956
-0.365199
-0.369799
-0.371483
-0.375642
-0.377128
-0.348102
-0.34211
-0.336564
-0.331416
-0.326436
-0.321449
-0.316236
-0.310595
-0.304391
-0.297644
-0.29057
-0.283533
-0.276914
-0.270986
-0.265825
-0.261222
-0.256609
-0.251242
-0.244688
-0.237225
-0.229612
-0.232837
-0.236852
-0.24004
-0.242068
-0.243306
-0.245063
-0.246641
-0.24816
-0.249811
-0.25128
-0.25282
-0.227572
-0.222479
0.00708907
0.00703853
0.00684806
0.00678141
0.0065297
0.006468
0.00618971
0.0063039
0.00637351
0.00662109
0.00669569
0.00689526
0.00696964
-0.374234
-0.372855
-0.36782
-0.363134
-0.363009
-0.356672
-0.348734
-0.353945
-0.360051
-0.365471
-0.366848
-0.370853
-0.371775
-0.342115
-0.335882
-0.330186
-0.324903
-0.319796
-0.314629
-0.309166
-0.303241
-0.296822
-0.290062
-0.283265
-0.276771
-0.270834
-0.26555
-0.260822
-0.256294
-0.25137
-0.245472
-0.238466
-0.230869
-0.223473
-0.226684
-0.230374
-0.233683
-0.235632
-0.23726
-0.23885
-0.240433
-0.242085
-0.242982
-0.245075
-0.246298
-0.22163
-0.2167
0.00682942
0.00676562
0.00654072
0.0064773
0.00621987
0.00614221
0.00631019
0.00638566
0.00660534
0.00668302
-0.370845
-0.360687
-0.363906
-0.362677
-0.35719
-0.350948
-0.342764
-0.348104
-0.354464
-0.359828
-0.361078
-0.366064
-0.370196
-0.335991
-0.329541
-0.323782
-0.318391
-0.31315
-0.307792
-0.302104
-0.295992
-0.289537
-0.282983
-0.276631
-0.270716
-0.265344
-0.260472
-0.25589
-0.251191
-0.245837
-0.239445
-0.232154
-0.224636
-0.217594
-0.22083
-0.224469
-0.22741
-0.228383
-0.230633
-0.232357
-0.233986
-0.235353
-0.236985
-0.238514
-0.240148
-0.241611
-0.242002
-0.215877
-0.211179
0.00651975
0.00647317
0.00623646
0.00615417
0.00630158
0.0063764
-0.357209
-0.364307
-0.362898
-0.358295
-0.357014
-0.351558
-0.3451
-0.336013
-0.342138
-0.348709
-0.354266
-0.355622
-0.360136
-0.361428
-0.365819
-0.369809
-0.329701
-0.323204
-0.31741
-0.311926
-0.306553
-0.301033
-0.29519
-0.289023
-0.282709
-0.276504
-0.27063
-0.265195
-0.260188
-0.255488
-0.250839
-0.245836
-0.240037
-0.23327
-0.225894
-0.218635
-0.211962
-0.215078
-0.218738
-0.221626
-0.223968
-0.226742
-0.229507
-0.230555
-0.23206
-0.233642
-0.235063
-0.23667
-0.23823
-0.239748
-0.210449
-0.205756
0.00622359
0.0061525
-0.364509
-0.363141
-0.35867
-0.357355
-0.352744
-0.351348
-0.345765
-0.338769
-0.330466
-0.331475
-0.342994
-0.348479
-0.349928
-0.354617
-0.355974
-0.360449
-0.361722
-0.323311
-0.317015
-0.311128
-0.305562
-0.300095
-0.294458
-0.288542
-0.282453
-0.2764
-0.270577
-0.265099
-0.259976
-0.255137
-0.250433
-0.245596
-0.240249
-0.234069
-0.227086
-0.219813
-0.212873
-0.206477
-0.209709
-0.213115
-0.215823
-0.218338
-0.221124
-0.222936
-0.224397
-0.227239
-0.225736
-0.228977
-0.230263
-0.231801
-0.233342
-0.205031
-0.200391
-0.358987
-0.357677
-0.353106
-0.351703
-0.346947
-0.345496
-0.33971
-0.331124
-0.323907
-0.341495
-0.34266
-0.344112
-0.348828
-0.350263
-0.354952
-0.356277
-0.317247
-0.310879
-0.304944
-0.29938
-0.293852
-0.288118
-0.28222
-0.276312
-0.270552
-0.265047
-0.259829
-0.25486
-0.250055
-0.245256
-0.24019
-0.234522
-0.228061
-0.221021
-0.213944
-0.20729
-0.201084
-0.204241
-0.207658
-0.210488
-0.212775
-0.215295
-0.217264
-0.218685
-0.221436
-0.219994
-0.199681
-0.195144
-0.353414
-0.352025
-0.347283
-0.345834
-0.34056
-0.33626
-0.334037
-0.324586
-0.330167
-0.317996
-0.338756
-0.34308
-0.344412
-0.349149
-0.350547
-0.311253
-0.304807
-0.298984