/*--------------------------------*- C++ -*----------------------------------*\
| =========                 |                                                 |
| \\      /  F ield         | OpenFOAM: The Open Source CFD Toolbox           |
|  \\    /   O peration     | Version:  v1912                                 |
|   \\  /    A nd           | Website:  www.openfoam.com                      |
|    \\/     M anipulation  |                                                 |
\*---------------------------------------------------------------------------*/
FoamFile
{
    version     2.0;
    format      ascii;
    class       surfaceScalarField;
    location    "50";
    object      phi;
}
// * * * * * * * * * * * * * * * * * * * * * * * * * * * * * * * * * * * * * //

dimensions      [0 3 -1 0 0 0 0];
oriented        oriented;


internalField   nonuniform List<scalar> 
7196
(
0.00511676
0.00489016
0.00625178
0.00887289
0.00247277
0.00241729
0.00621401
0.0100447
0.00451118
0.00683436
0.000937161
0.00148001
0.00599245
0.0102305
0.00528826
0.00926757
0.00262697
0.00514442
0.000303759
0.00117612
0.00580654
0.0101949
0.00535096
0.0101676
0.00381832
0.00807614
0.0013245
0.00412353
8.62832e-05
0.00108972
0.0056648
0.0101526
0.00519879
0.010347
0.00430455
0.0096813
0.00240956
0.006991
0.000597128
0.00361254
7.24351e-06
0.00108235
0.00554371
0.010132
0.0050395
0.0103118
0.00436453
0.0102869
0.00308824
0.0090025
0.00135475
0.00623329
0.000220484
0.00339914
-2.46298e-05
0.00110686
0.00543217
0.0101234
0.00491565
0.0102558
0.00427291
0.0104033
0.00334523
0.0100299
0.00198482
0.00837231
0.000659137
0.00579455
3.23443e-05
0.00334201
-3.60772e-05
0.00114279
0.00532792
0.0101162
0.00482429
0.0102147
0.00416619
0.0103625
0.0033601
0.0103883
0.00231751
0.00969712
0.00111823
0.00791308
0.000237454
0.00558933
-5.57295e-05
0.0033615
-3.60543e-05
0.00117872
0.0052277
0.0101101
0.00475487
0.0101856
0.0040841
0.0102966
0.00328846
0.0104341
0.00239879
0.0103069
0.00141101
0.00940426
0.000509788
0.00764061
6.87515e-06
0.00552662
-8.70019e-05
0.00341229
-3.08695e-05
0.00120943
0.00513406
0.0101016
0.00470661
0.0101582
0.0040341
0.0102355
0.0032096
0.0103754
0.00234752
0.0104853
0.00149843
0.0102194
0.000706576
0.0092074
0.000131151
0.00751621
-0.000101743
0.00554124
-9.0494e-05
0.00347174
-2.51092e-05
0.0012344
0.00504784
0.0100901
0.00468103
0.0101272
0.00401732
0.0101749
0.00315544
0.0102896
0.00225241
0.0104704
0.00143801
0.0105456
0.000753773
0.0101721
0.000227492
0.00911096
-7.27351e-05
0.00748705
-0.00014022
0.00559085
-8.18667e-05
0.00352832
-1.93873e-05
0.00125362
0.00496766
0.0100792
0.00467692
0.0100941
0.00403532
0.0101091
0.00313692
0.0101933
0.00215927
0.0103827
0.00129966
0.0106086
0.000657968
0.0106413
0.000220202
0.0101792
-5.15114e-05
0.00908964
-0.000165943
0.00751264
-0.000145425
0.00565428
-6.94923e-05
0.00357825
-1.39767e-05
0.00126747
0.00489305
0.0100675
0.00469637
0.0100597
0.00409587
0.0100334
0.00316554
0.0100804
0.00209003
0.0102624
0.00112938
0.0105529
0.00046256
0.0108039
9.26252e-05
0.0107688
-9.60975e-05
0.0102237
-0.000191705
0.0091153
-0.000199242
0.00756631
-0.00013445
0.00571913
-5.60044e-05
0.00362011
-9.855e-06
0.00127716
0.00482203
0.010056
0.00473819
0.0100256
0.00420262
0.00995286
0.00325231
0.00994656
0.00206318
0.0101072
0.000954397
0.0104373
0.000200603
0.0108148
-0.000140772
0.0110372
-0.000235953
0.0109086
-0.000261308
0.0102931
-0.000254732
0.00917069
-0.000201405
0.00763312
-0.000117388
0.00578039
-4.32659e-05
0.00365335
-6.30752e-06
0.00128337
0.00475147
0.0100494
0.0047968
0.00999733
0.00436018
0.00986788
0.00341616
0.00978896
0.00210325
0.00990637
0.000794047
0.0102675
-0.000112078
0.0107499
-0.000461276
0.0111352
-0.000465145
0.0112662
-0.00039938
0.0110466
-0.000342058
0.0103803
-0.000275244
0.00924442
-0.000188042
0.00770364
-9.73261e-05
0.00583435
-3.26937e-05
0.00367959
-4.19211e-06
0.00128743
0.00467797
0.0100465
0.00486704
0.00997908
0.00456557
0.0097919
0.0036707
0.00961323
0.00224109
0.00965107
0.000668896
0.0100314
-0.000474138
0.0106295
-0.000866505
0.011155
-0.000770939
0.0114409
-0.000609335
0.0114761
-0.00048193
0.0111863
-0.000373336
0.0104783
-0.000269134
0.00932543
-0.000166848
0.00777304
-7.99312e-05
0.00588149
-2.40646e-05
0.00369933
-2.21897e-06
0.00128959
0.0045976
0.0100512
0.00493506
0.0099784
0.00480873
0.0097358
0.00403089
0.00943165
0.00251897
0.00933523
0.000617755
0.00970215
-0.000886992
0.0104441
-0.0013685
0.0111314
-0.00114835
0.0115323
-0.000877127
0.0117086
-0.00067512
0.0116691
-0.000513012
0.0113259
-0.000373952
0.010583
-0.000250924
0.00940942
-0.00014467
0.00783766
-6.39875e-05
0.00592135
-1.72592e-05
0.00371426
-1.00983e-06
0.0012905
0.00450627
0.0100633
0.00498862
0.00999755
0.00507062
0.00971646
0.004495
0.00927157
0.00299049
0.00896006
0.000705807
0.00924703
-0.00135352
0.0101686
-0.00199857
0.0110741
-0.00159659
0.0115796
-0.00119037
0.0118454
-0.000915022
0.0119485
-0.000697885
0.0118539
-0.000512768
0.0114647
-0.000356461
0.0106885
-0.000227712
0.0094924
-0.00012422
0.00789781
-5.13867e-05
0.00595542
-1.2641e-05
0.0037258
-1.98788e-07
0.00129067
0.00440053
0.0100816
0.00501373
0.0100382
0.00531936
0.00974869
0.0050349
0.00917651
0.00370666
0.00855528
0.00105441
0.00861144
-0.00185916
0.00975255
-0.00279321
0.0109632
-0.00211962
0.011597
-0.00154267
0.0119318
-0.00118482
0.0121151
-0.000915304
0.0121658
-0.000688283
0.0120293
-0.000493797
0.0116019
-0.000334354
0.010795
-0.000204731
0.00957286
-0.00010661
0.00795296
-4.11831e-05
0.00598394
-8.28322e-06
0.00373383
7.84994e-07
0.00128984
0.00427893
0.0101046
0.00499578
0.0100994
0.00552403
0.00983345
0.00559438
0.00918909
0.00465483
0.00822826
0.00190459
0.00770488
-0.00230727
0.00905947
-0.00376193
0.0107212
-0.0026905
0.011534
-0.00190602
0.0119603
-0.00146184
0.0122088
-0.00115028
0.01235
-0.000890513
0.012368
-0.000662781
0.0121982
-0.000468642
0.0117362
-0.000308221
0.0108984
-0.000182176
0.00964841
-9.05568e-05
0.00800229
-3.2457e-05
0.00600809
-5.29066e-06
0.00373986
1.4547e-06
0.00128834
0.00414315
0.0101267
0.00492858
0.0101717
0.00565104
0.00997232
0.00610164
0.00932613
0.00572453
0.00811927
0.00354392
0.00658895
-0.00230537
0.00770285
-0.00478327
0.0100807
-0.00315027
0.0111808
-0.00219348
0.0118214
-0.00169598
0.0121943
-0.00136812
0.0124265
-0.00109877
0.0125582
-0.000855182
0.0125603
-0.000631856
0.0123614
-0.00043905
0.011867
-0.000281607
0.0109978
-0.000162403
0.00972024
-7.70585e-05
0.00804686
-2.59853e-05
0.00602877
-3.26696e-06
0.00374452
2.10945e-06
0.0012861
0.00399445
0.0101457
0.00481291
0.0102422
0.00567683
0.0101459
0.00647543
0.00959841
0.00679009
0.00826051
0.00552483
0.00313179
0.00300636
0.000298043
0.00274152
-0.000904514
0.00214848
-0.00289928
0.00432289
-0.0021716
0.00366749
-0.00175665
0.0099803
-0.00129325
-0.00218355
0.0111708
-0.00176675
0.0118921
-0.00150015
0.0123263
-0.00127296
0.0126007
-0.00104444
0.0127474
-0.000813233
0.0127416
-0.000595881
0.0125182
-0.000409005
0.0119944
-0.000258289
0.0110937
-0.000145089
0.00978827
-6.68628e-05
0.00808771
-2.08158e-05
0.00604627
-1.00295e-06
0.00374749
2.53278e-06
0.00128341
0.00383707
0.0101593
0.00465758
0.010301
0.00560301
0.0103159
0.00665261
0.00996869
0.00764189
0.00874651
0.00772519
0.00299465
0.00306554
0.00114064
0.00228912
0.00211285
0.00203417
-0.00286018
0.00270239
-0.000149478
0.000815159
0.000718891
-0.00107954
-0.00100306
0.000534056
0.000836808
-0.0016383
0.0042045
-0.000915683
0.00122663
0.000851142
-0.000631325
-0.000607218
0.00313134
-0.000494968
-0.000868701
0.00931811
-0.000652756
-0.000936912
0.00384812
-0.00147942
0.0108833
-0.00142384
0.0118156
-0.00133943
0.0123926
-0.00119261
0.0127488
-0.000988757
0.0129228
-0.000764802
0.0129105
-0.000556459
0.0126656
-0.000378146
0.0121142
-0.000237074
0.0111857
-0.00012976
0.00985114
-5.83493e-05
0.00812519
-1.73588e-05
0.00606254
1.32531e-07
0.00374971
3.19336e-06
0.00128
0.00367461
0.0101675
0.00447131
0.0103454
0.0054451
0.0104589
0.00663405
0.0103344
0.00807629
0.00953425
0.00954526
0.00331069
0.00361559
0.00319309
0.00191432
0.00414874
0.00106701
0.00104293
0.00104206
0.000360366
0.000482239
-0.00089774
0.000633347
-0.00067256
0.000493707
-0.000822024
0.000452304
0.000986348
-0.000452304
0.00090747
-0.00046528
0.00108468
0.000661995
-0.000276143
0.000276143
-0.000164001
0.00261164
-0.000253245
-0.000308492
0.000898192
0.00348606
-0.000506682
-0.00041396
0.00857375
-0.000321206
0.00317016
-0.000336896
-0.00102719
0.0104867
-0.00119525
0.0116715
-0.00122567
0.0124257
-0.00111652
0.0128765
-0.000922954
0.013081
-0.000711605
0.0130657
-0.000516118
0.0128035
-0.000349086
0.0122262
-0.000216784
0.0112726
-0.000117949
0.00991072
-5.21649e-05
0.00815991
-1.41336e-05
0.00607667
1.42377e-06
0.00375127
3.19396e-06
0.00127661
0.00350884
0.0101727
0.00426327
0.0103755
0.00522623
0.0105642
0.00646457
0.0106283
0.00811761
0.0102929
0.0103884
0.00415725
0.00453385
0.00522857
0.00223076
0.00602179
0.00282237
0.00135466
0.000257579
0.000251789
0.00109235
-0.0017443
0.00208232
0.000728971
0.000653295
0.000518642
-0.000158295
0.00032832
-0.00032832
0.0003535
-0.000757182
0.000645024
-5.18607e-05
0.00223997
-7.90962e-05
-5.59394e-05
-0.000112245
0.00296479
-0.000208658
-0.000214042
0.00794521
-0.000184706
0.00279729
-0.000153751
0.00198214
-3.6733e-05
-4.23694e-05
-0.000797627
0.0100889
-0.00107155
0.0115172
-0.00114292
0.012452
-0.00102868
0.0129822
-0.000849248
0.0132186
-0.000657094
0.0132066
-0.000477109
0.0129316
-0.000324336
0.0123338
-0.000201056
0.0113557
-0.000109439
0.00996793
-4.68799e-05
0.00819253
-1.2315e-05
0.00609028
2.15167e-06
0.0037521
3.07651e-06
0.00127322
0.00334055
0.0101763
0.00403931
0.0103965
0.0049646
0.0106371
0.00618898
0.0108397
0.00787804
0.0108678
0.0104235
0.0102577
0.00660667
0.00357233
0.00699935
0.00414118
0.0055716
-0.00191429
0.000308279
0.000347475
0.00690532
0.000932033
0.000556605
9.92866e-05
0.000351071
0.00147354
0.000272101
0.000288215
0.000241253
0.000585149
-1.92321e-05
0.00018939
0.000542166
-1.29658e-05
0.00182287
-2.65291e-05
-2.28975e-05
0.00268317
-9.99509e-05
-0.000140066
0.00743342
-0.000145876
0.00257965
-8.12237e-05
0.00170617
-1.78399e-05
-1.9247e-05
-0.000508629
0.000481034
-9.15204e-06
-8.83874e-06
-0.00071934
0.00973671
-0.00101877
0.0113931
-0.00103665
0.01246
-0.000928348
0.0130613
-0.000771295
0.0133328
-0.000603149
0.0133327
-0.000443753
0.013051
-0.000303626
0.0124363
-0.000188617
0.0114348
-0.000102065
0.010023
-4.37776e-05
0.00822387
-1.09311e-05
0.00610317
2.07623e-06
0.00375279
2.17171e-06
0.00127075
0.00316971
0.0101787
0.00380626
0.0104093
0.00467492
0.0106861
0.00584326
0.0109828
0.00747121
0.0112464
0.00992024
0.0113711
-0.00814658
0.0150296
0.00486141
0.00551258
0.00768529
0.00133562
0.00145675
0.00197045
0.00170943
0.00121963
-0.000911373
0.0015671
-0.0021237
0.00305574
0.000623158
0.000170157
0.00015719
0.000460219
-5.72827e-06
0.000442555
-5.24976e-06
0.00162909
-1.20692e-05
-1.08259e-05
0.00250149
-6.19855e-05
-0.000124105
0.00699692
-0.000158777
0.00241667
-6.11009e-05
0.00156609
-8.96927e-06
-9.28024e-06
-0.000427486
0.000414105
-4.47569e-06
-4.19004e-06
-0.000148351
0.000139196
-0.000746441
0.00946421
-0.0009287
0.011285
-0.000912536
0.0124441
-0.000821725
0.0131117
-0.000694604
0.0134242
-0.000554389
0.0134433
-0.000414762
0.0131621
-0.000286956
0.0125346
-0.000178904
0.0115116
-9.68375e-05
0.010076
-4.1e-05
0.00825376
-1.01774e-05
0.00611523
1.31321e-06
0.00375329
1.27908e-06
0.00126911
0.00299939
0.0101783
0.00356826
0.0104166
0.00436662
0.0107176
0.00545581
0.0110735
0.00697494
0.011479
0.00918426
0.0119823
0.0137002
0.0127005
0.00925496
-0.00443382
-0.00356287
0.00203654
0.00156661
0.00930169
0.00546579
0.0032359
0.00115546
0.0036976
0.00099504
-0.00417513
0.00171176
0.0012319
0.000133465
0.000128213
0.000404649
-2.62282e-06
0.00039619
-2.37264e-06
0.00151738
-6.55512e-06
-6.77284e-06
0.00234892
-5.63659e-05
-0.000164138
0.00665589
-0.000241339
0.00225808
-6.79506e-05
0.00146909
-6.71979e-06
-6.1257e-06
-0.000388865
0.000381967
-2.08219e-06
-1.95902e-06
-0.000124023
0.000119544
-0.000744001
0.00927963
-0.000785366
0.011158
-0.0007728
0.0123953
-0.000720168
0.0131373
-0.000629721
0.0134996
-0.000516343
0.0135449
-0.000393594
0.0132687
-0.000274936
0.0126306
-0.000172223
0.0115869
-9.23575e-05
0.0101272
-3.92521e-05
0.00828263
-1.02206e-05
0.0061265
1.43545e-07
0.00375412
1.91188e-07
0.00126879
0.00282902
0.0101793
0.00332659
0.01042
0.00404904
0.0107341
0.00504688
0.0111265
0.00643131
0.011617
0.00839764
0.0122656
0.0119738
0.0137087
-0.00711894
0.016766
0.00561098
0.00674405
-0.00338241
0.0015313
-0.00309791
0.00326843
0.001866
-0.0015313
-0.001866
0.00188033
0.00160092
0.00115546
0.0021505
0.00011692
0.000114547
0.000376893
-1.4975e-06
0.000371344
-1.24348e-06
0.00142386
-5.03415e-06
-6.10916e-06
0.00217891
-8.50308e-05
-0.000290162
0.00647737
-0.000275307
0.00207441
-0.000136864
0.00136826
-7.38818e-06
-4.98054e-06
-0.000366555
0.000361336
-1.51914e-06
-1.35023e-06
-0.000112588
0.000110502
-0.000576825
0.00907097
-0.000617666
0.0110027
-0.000649251
0.0123243
-0.00063707
0.0131446
-0.000580535
0.0135637
-0.000488993
0.0136403
-0.000377713
0.0133714
-0.000264404
0.0127227
-0.000164895
0.0116593
-8.79388e-05
0.0101757
-3.79621e-05
0.00831013
-1.13776e-05
0.00613784
-1.6767e-06
0.00375577
-6.79692e-07
0.00126929
0.00265921
0.0101788
0.00308532
0.0104205
0.00372631
0.0107427
0.00462552
0.0111554
0.00586813
0.0116896
0.00760955
0.012405
0.010353
0.0138864
0.0150991
0.0153755
0.00521484
-0.00207976
-0.00140145
0.00201591
0.00186124
0.00611583
0.00584295
-0.00160092
0.00140145
0.000109002
0.000107756
0.000357468
-1.17306e-06
0.000352478
-1.12081e-06
0.00129894
-5.20947e-06
-1.05313e-05
0.0020011
-0.00021683
-0.000211092
0.00622956
-0.000117953
0.00194462
-0.000218815
0.0011987
-2.62276e-05
-1.04217e-05
-0.000348565
0.000342579
-1.40567e-06
-1.06669e-06
-0.000106406
0.000104883
-0.000383417
0.00883684
-0.000484542
0.0108381
-0.000555197
0.0122425
-0.000577055
0.0131412
-0.000547278
0.013622
-0.000471614
0.0137341
-0.000367653
0.0134746
-0.000256622
0.0128143
-0.00015933
0.0117305
-8.59547e-05
0.0102236
-3.81105e-05
0.00833667
-1.22322e-05
0.00614824
-3.35486e-06
0.0037583
-1.52986e-06
0.00127085
0.0024891
0.010179
0.00284411
0.01042
0.0034034
0.0107433
0.0042037
0.0111645
0.00530607
0.0117174
0.00683355
0.0124656
0.00898447
0.0137734
0.0128006
0.0161849
-0.00427459
0.012354
0.0134116
-0.00110597
0.00151767
0.00160408
0.000755263
-0.00101144
0.00409741
0.000103709
0.000102589
0.000338603
-1.24428e-06
0.000329715
-1.65745e-06
0.00110357
-4.03751e-05
-8.13092e-05
0.00185619
-0.000122706
-8.33609e-05
0.00597515
-4.56451e-05
0.00179307
-5.48459e-05
0.00102753
-6.42156e-05
-7.85458e-05
-0.000321633
0.00030057
-5.17506e-06
-2.34898e-06
-0.000101522
0.000100115
-0.000269201
0.00862135
-0.000396359
0.0106792
-0.000494115
0.0121594
-0.000542091
0.0131359
-0.000529691
0.01368
-0.000459507
0.0138259
-0.000355407
0.0135732
-0.000246935
0.0129018
-0.000153016
0.0117974
-8.34137e-05
0.0102688
-3.77921e-05
0.00836205
-1.43633e-05
0.0061592
-5.09119e-06
0.00376177
-1.96114e-06
0.00127272
0.00232106
0.010179
0.00260587
0.0104172
0.00308406
0.0107393
0.00378567
0.0111612
0.00475496
0.0117156
0.00608344
0.0124674
0.00783918
0.0136109
0.0106793
0.0158946
0.0119371
0.0166017
-0.00206591
0.00730911
0.00961293
-0.00144486
-0.0004384
0.001031
0.000316864
0.00273756
-0.000398995
-0.000307119
9.88685e-05
9.72091e-05
0.000272483
-1.2287e-05
0.000218337
-2.71582e-05
0.000935592
-2.41577e-05
-6.64359e-06
0.00173821
-2.84793e-05
-4.48618e-05
0.00578111
-3.03404e-05
0.00170942
-1.68498e-05
0.000884171
-6.47333e-07
-2.79043e-06
-0.000190035
0.00012582
-5.02391e-05
-9.48601e-05
8.96831e-05
-0.000210432
0.00843556
-0.000344738
0.0105299
-0.000463384
0.0120809
-0.000530757
0.013137
-0.000522405
0.0137429
-0.000447767
0.0139182
-0.00034125
0.0136675
-0.000235944
0.0129846
-0.000146051
0.0118599
-8.04934e-05
0.0103114
-3.92163e-05
0.00838681
-1.63096e-05
0.00617036
-6.79008e-06
0.00376654
-1.85375e-06
0.00127469
0.00215312
0.0101789
0.00236941
0.0104155
0.0027667
0.0107345
0.00337253
0.0111525
0.00421819
0.0116979
0.00536892
0.0124301
0.00684286
0.0134637
0.00895279
0.0153374
0.0105394
0.0172921
0.00884408
0.0150665
0.0036084
0.00671304
-0.000270193
-0.000438686
0.00163826
-0.000164067
-0.000181647
-0.000124575
0.000756583
0.000192286
0.000526746
-7.73127e-05
7.73967e-05
5.02391e-05
0.00010166
9.50142e-05
0.000857256
-1.09771e-06
-4.46872e-07
0.00167829
-1.37961e-05
-3.34135e-05
0.00563241
-2.83554e-05
0.00165898
-1.10502e-05
0.000841509
-3.56941e-07
-7.57438e-07
-9.22238e-05
9.15756e-05
-0.000177563
0.00826814
-0.000323603
0.0103899
-0.000461627
0.0120115
-0.00053453
0.013149
-0.000513145
0.0138081
-0.000429433
0.0140063
-0.000323813
0.0137552
-0.000223541
0.013062
-0.000140732
0.01192
-7.95147e-05
0.0103516
-4.04713e-05
0.00841087
-1.80982e-05
0.00618171
-7.37897e-06
0.00377206
-2.23408e-06
0.00127692
0.0019876
0.0101785
0.00213617
0.010412
0.00245645
0.0107257
0.00296875
0.0111382
0.0037001
0.0116705
0.00469264
0.0123741
0.00594592
0.013327
0.00757789
0.0148384
0.00900653
0.0168701
0.0087475
0.0173886
0.00580488
0.01287
0.00152305
0.0050792
4.8943e-05
6.17666e-05
-0.00125858
0.00102632
-1.06579e-05
-2.7421e-05
-2.40319e-05
-3.49719e-05
-0.000385008
0.000260638
-3.97642e-05
-3.99561e-05
0.000114965
9.04793e-05
9.00335e-05
0.000828699
-6.30075e-07
-3.95928e-07
0.00163695
-1.13547e-05
-2.66134e-05
0.00550303
-2.16538e-05
0.00162069
-1.20872e-05
0.000818519
-3.48452e-07
-5.39795e-07
-8.92761e-05
8.8918e-05
-0.000165435
0.00811012
-0.000335085
0.0102636
-0.000486384
0.0119635
-0.000539465
0.0131753
-0.0004934
0.013872
-0.000403876
0.0140863
-0.000305377
0.0138369
-0.000211502
0.0131327
-0.000135609
0.011976
-7.9884e-05
0.010391
-4.17749e-05
0.00843451
-2.04589e-05
0.0061948
-8.63518e-06
0.0037785
-1.84224e-06
0.00127898
0.00182257
0.010178
0.00190676
0.0104079
0.00214967
0.0107188
0.00257283
0.0111216
0.00319904
0.0116392
0.00405268
0.0123104
0.00512694
0.0131931
0.00644528
0.0144595
0.00764867
0.0161962
0.00792033
0.0176971
0.00663526
0.0165581
0.00355436
0.0108387
0.000718994
0.00440019
-3.92714e-05
-4.74581e-07
-0.000979177
0.000961054
2.13283e-05
4.57132e-05
6.05773e-05
4.8329e-05
-0.00018083
0.000172442
-2.33411e-06
-0.000201392
-6.90003e-06
-0.000221673
-3.75373e-06
3.98519e-06
-7.50086e-05
3.52337e-05
8.82843e-05
8.78856e-05
0.000808183
-5.36539e-07
-4.57951e-07
0.0016045
-1.05062e-05
-1.94608e-05
0.00537807
-2.11138e-05
0.00158845
1.29325e-06
-6.91242e-06
0.000797111
-4.69492e-07
-5.56535e-07
-8.73458e-05
8.6996e-05
-0.000180539
0.00795524
-0.000381369
0.0101582
-0.000519948
0.0119437
-0.000520972
0.0132028
-0.000459874
0.0139279
-0.000373712
0.0141545
-0.00028286
0.0139082
-0.000200331
0.0131974
-0.00013234
0.0120284
-8.01243e-05
0.0104293
-4.50701e-05
0.00845908
-2.26272e-05
0.0062089
-8.89196e-06
0.00378563
-2.05573e-06
0.00128115
0.00166045
0.0101761
0.00168165
0.010403
0.00185004
0.0107075
0.00218657
0.011105
0.00271226
0.0116084
0.00344494
0.0122468
0.00437107
0.0130663
0.00547159
0.0141666
0.00650099
0.0156071
0.0069305
0.0171859
0.00648615
0.0178462
0.00479707
0.0153154
0.00213316
0.00942457
0.000309434
0.00406789
3.52231e-05
-1.22472e-05
-0.000946997
0.00093935
-3.14839e-05
-1.9449e-06
1.56002e-05
-0.000229333
0.000237906
1.27446e-05
-0.000210664
2.70099e-05
-0.000189034
3.89506e-05
3.17317e-05
-2.8563e-05
2.62181e-05
-3.54636e-05
-3.92188e-05
8.64612e-05
8.60048e-05
0.000461339
-3.4846e-07
-2.76306e-07
0.000325845
0.00157634
-4.59027e-06
-2.77551e-06
-1.72084e-05
0.0052421
-2.74535e-05
0.00156031
-2.36661e-06
-2.76495e-06
0.000490731
-2.8132e-05
0.000492111
-8.29568e-06
-8.54483e-05
8.49776e-05
-0.000236998
0.00781105
-0.000460266
0.0100988
-0.000510667
0.0119336
-0.000477875
0.0132207
-0.000415876
0.01397
-0.000340602
0.0142122
-0.000264497
0.0139723
-0.000192403
0.0132574
-0.000131775
0.01208
-8.29966e-05
0.0104673
-4.76813e-05
0.00848417
-2.41095e-05
0.00622421
-9.32615e-06
0.00379306
-1.63615e-06
0.00128312
0.00149944
0.0101759
0.00146073
0.0103971
0.00155597
0.010697
0.00180665
0.0110874
0.00223863
0.0115785
0.00286365
0.0121896
0.00366624
0.0129516
0.00460832
0.0139295
0.00551016
0.0151574
0.00599332
0.0165441
0.00590127
0.0177707
0.00512271
0.0175205
0.00335516
0.0140934
0.0012471
0.00848696
8.82048e-05
0.00387332
4.53731e-05
6.10315e-05
-0.00091942
0.000910965
4.37417e-05
7.73162e-06
-0.000221198
0.000331484
-1.33019e-06
-0.000139274
-1.07837e-06
-0.00024079
1.77008e-05
1.27421e-05
-0.00010183
0.000112038
2.52309e-06
-8.16653e-05
6.82599e-06
-5.79498e-05
1.52326e-05
8.46252e-05
8.43446e-05
0.00029597
1.72248e-06
0.000490441
-2.92163e-06
0.000489176
-1.50787e-06
0.00154852
-2.25368e-06
-3.21336e-06
-2.38074e-05
0.00507911
-5.03545e-05
0.00152783
-2.61301e-06
-4.16374e-06
0.000487899
-1.11386e-06
0.000485826
-6.95644e-07
0.000289685
-2.02103e-06
-0.00035621
0.00770657
-0.000477558
0.0100652
-0.000458374
0.0119138
-0.000417738
0.0132225
-0.000369141
0.0139985
-0.000312375
0.01426
-0.0002495
0.0140293
-0.000189346
0.013315
-0.000132774
0.0121298
-8.63828e-05
0.010506
-5.06391e-05
0.00851074
-2.54549e-05
0.00624055
-9.73098e-06
0.00380136
-1.6523e-06
0.00128503
0.0013402
0.0101743
0.00124694
0.0103897
0.00126952
0.0106835
0.00143592
0.0110677
0.00177592
0.0115501
0.00230257
0.0121395
0.00300079
0.012855
0.00382237
0.0137374
0.00463092
0.0148086
0.00514643
0.0160041
0.00521775
0.0172276
0.00488486
0.0180085
0.00393125
0.0169444
0.00228523
0.0130552
0.000712125
0.00786308
7.65011e-06
0.00380829
2.96158e-05
2.77591e-05
-0.000902788
0.000913239
3.49455e-05
6.92273e-05
-0.000337679
0.000360142
1.64763e-05
4.84294e-06
-2.59533e-07
1.82686e-06
-2.6775e-05
2.54537e-05
-0.00012103
-5.05361e-07
-2.78465e-05
3.76678e-06
-2.20585e-05
2.45814e-05
-1.52326e-05
8.60643e-05
0.000287745
-9.76989e-07
0.000286548
-3.16765e-07
0.000484445
-8.80465e-07
0.000482561
-1.32804e-06
0.00151111
-2.37897e-06
-4.73986e-06
-6.43309e-05
0.00492255
-0.00013547
0.00147283
-3.82403e-06
-8.34799e-06
0.000481281
-1.36492e-06
0.000478215
-1.10227e-06
0.000285648
-2.25812e-07
0.000285039
-9.45895e-08
8.40436e-05
-0.000437836
0.00766711
-0.000403167
0.0100104
-0.000375434
0.0118718
-0.000355966
0.0132093
-0.000327914
0.014014
-0.000289359
0.0142999
-0.000241752
0.0140817
-0.000188916
0.0133711
-0.000137468
0.0121808
-9.09238e-05
0.0105464
-5.35564e-05
0.00853895
-2.65025e-05
0.00625752
-9.87115e-06
0.00380984
-1.16142e-06
0.00128657
0.0011857
0.0101699
0.00103985
0.0103813
0.000990991
0.0106681
0.00107371
0.0110457
0.00132203
0.0115215
0.00175481
0.0120978
0.00236371
0.0127765
0.00309301
0.0135844
0.00383248
0.0145357
0.00437003
0.0155849
0.00455142
0.0166704
0.0044211
0.0176913
0.00395062
0.0179891
0.00294404
0.0162856
0.00153973
0.0122276
0.000399571
0.0074712
-8.21595e-05
0.0037603
7.77905e-05
5.23896e-05
-0.000922841
0.000938063
1.44033e-05
1.81571e-05
-0.000385181
0.000410311
1.34949e-06
8.47722e-06
2.39961e-05
2.02207e-05
-3.187e-05
4.83568e-05
-2.70238e-05
2.5197e-05
-2.83482e-05
8.30669e-05
8.27475e-05
0.000284369
-2.03427e-07
0.000283254
-2.21004e-07
0.000477
-1.17427e-06
0.000473978
-1.7244e-06
0.00143197
-6.93235e-06
-1.6622e-05
-0.000196568
0.00487656
-0.00019543
0.00135807
-1.9906e-05
-4.17058e-05
0.000472026
-1.92003e-06
0.000466118
-2.46283e-06
0.000282137
-2.64944e-07
0.000281281
-2.61095e-07
8.25199e-05
8.24262e-05
-0.000318296
0.00758181
-0.000292588
0.00992707
-0.000299718
0.0118152
-0.000304161
0.0131855
-0.00029811
0.0140226
-0.000276342
0.0143344
-0.000240551
0.0141333
-0.000194254
0.013428
-0.000142294
0.0122323
-9.43061e-05
0.0105873
-5.43066e-05
0.00856689
-2.63909e-05
0.00627432
-9.25025e-06
0.00381819
-1.2137e-06
0.00128801
0.00103418
0.010166
0.000841287
0.0103684
0.000724706
0.0106476
0.000719959
0.0110218
0.000874395
0.0114933
0.001217
0.0120592
0.00174481
0.0127167
0.00240344
0.013466
0.00309487
0.0143218
0.00364639
0.0152593
0.00391787
0.0162183
0.00391039
0.017181
0.00367791
0.017964
0.00313509
0.017798
0.00217629
0.0156491
0.00102709
0.0116001
0.000191412
0.00719762
-0.000118202
0.00374594
5.66377e-05
7.5879e-05
-0.000947195
0.000958675
6.63241e-05
4.32592e-05
-0.000426296
0.000440649
1.17635e-06
-1.12367e-06
1.68314e-06
4.88161e-07
-8.18158e-05
8.3303e-05
-1.34447e-07
-7.48909e-05
1.55817e-06
6.05028e-05
1.18632e-05
5.83854e-06
8.22229e-05
8.19986e-05
0.00028032
-2.12862e-07
0.000278906
-3.29092e-07
0.000462598
-3.43995e-06
0.000452343
-6.38092e-06
0.00131183
-5.623e-05
-9.41415e-05
-0.000130346
0.00474109
-5.2536e-05
0.00127155
-8.44122e-05
-7.08415e-05
0.000442429
-1.00431e-05
0.000419766
-1.90616e-05
0.000277302
-3.47732e-07
0.000275224
-4.1012e-07
8.17303e-05
8.14687e-05
-0.000173459
0.00746306
-0.000207413
0.00983522
-0.000242445
0.0117537
-0.000269591
0.0131569
-0.000281238
0.0140275
-0.000274634
0.0143685
-0.000245789
0.0141848
-0.000200254
0.0134859
-0.000146803
0.0122848
-9.66441e-05
0.0106298
-5.60624e-05
0.00859673
-2.68398e-05
0.00629216
-9.12347e-06
0.00382627
-8.46377e-07
0.00128893
0.000887715
0.0101587
0.000655211
0.0103521
0.000470658
0.0106224
0.000378001
0.0109896
0.000433423
0.0114627
0.000682047
0.0120282
0.00113341
0.0126706
0.00173714
0.013383
0.00239561
0.0141651
0.0029625
0.0150056
0.00330994
0.0158671
0.0034062
0.0167225
0.00330186
0.0175571
0.0030108
0.0180882
0.00245452
0.0175198
0.00159329
0.0150829
0.000670806
0.0111207
6.78782e-05
0.00701152
-0.000114047
0.00379635
2.51326e-05
3.83791e-05
-0.000968546
0.000986724
3.84501e-05
6.60087e-05
-0.00046418
0.000482516
2.63208e-05
2.16646e-05
5.65564e-06
1.40731e-05
-8.41733e-05
8.55503e-05
-1.98623e-07
-8.49527e-05
-3.44237e-07
8.43616e-05
6.23879e-07
-1.03594e-07
-1.92616e-05
1.91279e-05
-1.77024e-05
1.18638e-05
8.12543e-05
8.0919e-05
0.000272336
-5.59932e-07
0.000266946
-1.01342e-06
0.000398859
-3.53355e-05
0.000365688
-6.09814e-05
0.00120392
-4.37794e-05
-1.90056e-05
-3.22142e-05
0.00460791
-8.1358e-06
0.00116514
-1.07102e-05
-3.03586e-06
0.000344154
-6.29344e-05
0.000322007
-4.8726e-05
0.000258677
-1.8067e-06
0.000243462
-3.87012e-06
8.05657e-05
8.01536e-05
-0.000102137
0.0073573
-0.000157146
0.00974939
-0.000207315
0.0116911
-0.000251019
0.0131267
-0.000277203
0.01403
-0.000279253
0.014402
-0.000254349
0.0142389
-0.000206801
0.013546
-0.000151601
0.0123399
-9.77308e-05
0.0106716
-5.57172e-05
0.00862577
-2.56238e-05
0.00630884
-8.24284e-06
0.00383366
-9.64215e-07
0.0012898
0.00074738
0.0101489
0.000483537
0.0103303
0.000235273
0.0105875
5.02217e-05
0.0109501
-1.37855e-06
0.0114243
0.000147648
0.0119971
0.00052236
0.0126392
0.00108003
0.0133275
0.00172279
0.0140556
0.00231122
0.0148163
0.00272068
0.0155948
0.0029101
0.0163632
0.00290256
0.0171217
0.0027477
0.0178202
0.00243724
0.0181056
0.00190395
0.0172092
0.00115662
0.0145971
0.000429104
0.0107595
-6.21608e-06
0.00690371
-0.00014267
0.000104283
0.00383469
-0.000993868
0.000950283
6.86929e-05
3.12224e-05
-0.000503883
0.000527793
4.81484e-06
9.71594e-06
2.79436e-05
1.66974e-05
-0.000105982
0.000114627
1.76802e-05
-9.79499e-05
1.36329e-05
8.91327e-05
2.07336e-06
5.25587e-06
-1.93036e-05
1.91052e-05
-1.9648e-05
1.97516e-05
7.95911e-05
7.85711e-05
0.00021809
-9.96988e-06
0.000178878
-2.17847e-05
0.000298227
-2.00089e-05
0.000285915
-6.71727e-06
0.00113704
-3.43375e-06
-6.5904e-07
-1.29131e-05
0.00452237
-3.70809e-06
0.00112968
-1.03991e-06
2.28168e-07
0.000277512
-2.34635e-06
0.00027514
-6.67368e-07
0.000157032
-4.11276e-05
0.000108304
7.67587e-05
7.2887e-05
-7.05791e-05
0.00727117
-0.000128214
0.00967081
-0.000189719
0.0116301
-0.000246267
0.0130957
-0.000286482
0.0140372
-0.00029416
0.0144418
-0.000266251
0.0142984
-0.000213345
0.0136079
-0.000152786
0.012395
-9.71053e-05
0.0107132
-5.32981e-05
0.00865353
-2.44179e-05
0.00632505
-7.56606e-06
0.00384012
-9.85656e-07
0.00129067
0.0006143
0.0101362
0.000330429
0.010302
2.31457e-05
0.0105424
-0.000258002
0.0108957
-0.000426131
0.0113748
-0.00039224
0.0119642
-9.9842e-05
0.0126192
0.000418429
0.0133008
0.00106073
0.0139895
0.00167899
0.0146878
0.0021483
0.0153886
0.0024208
0.016084
0.00250309
0.0167626
0.00243867
0.0174307
0.00226039
0.017997
0.00195676
0.0180528
0.00146627
0.0168995
0.000832175
0.014194
0.000262014
0.0104912
-6.90467e-05
0.00683008
-0.000627891
0.00161265
5.04468e-05
1.93513e-05
-0.000168886
0.000145159
0.00385844
-0.000550708
-8.50811e-06
6.1371e-06
2.16079e-06
-0.000138854
0.000141684
1.98703e-06
-0.000133231
4.08885e-06
0.000125567
1.70005e-05
9.03433e-06
-4.00673e-05
4.81764e-05
9.57226e-06
-2.64344e-05
2.11785e-05
6.2916e-05
4.11276e-05
8.8292e-05
8.1567e-05
0.000272157
-4.18801e-07
0.000271734
-2.26545e-07
0.00111838
-1.25551e-06
-3.69748e-07
-8.84673e-06
0.00446403
-3.53158e-06
0.00111541
-6.8919e-07
-6.17811e-08
0.000270843
-1.66388e-07
0.00027096
1.23993e-07
7.92157e-05
7.85539e-05
-5.64053e-05
0.00719883
-0.000115168
0.00959568
-0.000186605
0.0115701
-0.000257895
0.0130671
-0.00030482
0.0140479
-0.00031002
0.0144856
-0.000274514
0.0143597
-0.000214576
0.0136698
-0.000149944
0.012448
-9.38027e-05
0.0107538
-5.1464e-05
0.00868055
-2.29406e-05
0.00634032
-7.2168e-06
0.00384623
-9.69363e-07
0.00129171
0.000489976
0.0101205
0.000200002
0.0102665
-0.000158243
0.0104834
-0.000537222
0.0108215
-0.000837159
0.0113067
-0.000938218
0.0119208
-0.00073997
0.0126043
-0.000261147
0.0132987
0.000397621
0.0139638
0.00105871
0.0146097
0.00158796
0.015248
0.00193622
0.0158731
0.00210154
0.0164855
0.00211898
0.0170823
0.00202387
0.0176673
0.00184664
0.0181072
0.00156009
0.017959
0.00112148
0.0166102
0.000592339
0.0138637
0.000136624
0.0102856
-0.00011561
0.00677683
0.0016616
3.71799e-05
5.89967e-05
-0.00023081
0.000262819
1.35522e-05
4.87774e-06
-0.000213532
1.78906e-06
2.75725e-07
-0.000161492
0.000103829
0.00391615
-0.000134432
-5.86631e-08
-3.76844e-07
-8.71834e-05
0.000143233
4.58263e-06
1.09603e-05
-7.06354e-05
7.24487e-05
1.71695e-07
-6.72135e-05
6.67152e-07
6.01078e-05
5.06981e-06
1.92887e-06
9.57233e-06
7.81401e-05
7.79102e-05
0.000269815
-8.03939e-08
0.000269609
-1.73541e-07
0.00110792
-9.57977e-07
-4.20901e-07
-6.75793e-06
0.00441816