/*--------------------------------*- C++ -*----------------------------------*\
| =========                 |                                                 |
| \\      /  F ield         | OpenFOAM: The Open Source CFD Toolbox           |
|  \\    /   O peration     | Version:  v1912                                 |
|   \\  /    A nd           | Website:  www.openfoam.com                      |
|    \\/     M anipulation  |                                                 |
\*---------------------------------------------------------------------------*/
FoamFile
{
    version     2.0;
    format      ascii;
    class       volVectorField;
    location    "50";
    object      U;
}
// * * * * * * * * * * * * * * * * * * * * * * * * * * * * * * * * * * * * * //

dimensions      [0 1 -1 0 0 0 0];


internalField   nonuniform List<vector> 
3673
(
(0.647872 -0.0252684 -1.6958e-21)
(0.974662 -0.014447 -4.79398e-20)
(0.296587 -0.0518115 -3.41278e-24)
(1.01676 -0.00918421 2.22088e-20)
(0.763883 -0.0554483 -2.01181e-24)
(0.172446 -0.0532502 1.67511e-20)
(1.00698 -0.0124471 -1.72815e-37)
(0.960336 -0.0509434 1.37801e-24)
(0.563736 -0.0936793 -1.53208e-20)
(0.120747 -0.0448149 2.14783e-20)
(0.999672 -0.0149363 -2.38891e-41)
(1.00851 -0.0483807 0)
(0.839478 -0.0993919 -2.11586e-20)
(0.428274 -0.106708 -2.12806e-20)
(0.103458 -0.0383514 2.58766e-20)
(0.997719 -0.0154183 -3.70262e-24)
(1.00855 -0.0477045 -6.33403e-24)
(0.966607 -0.0947817 4.32012e-20)
(0.71213 -0.132636 2.28511e-20)
(0.354716 -0.106414 0)
(0.0994765 -0.0356143 -2.90318e-20)
(0.997635 -0.0149075 -3.39054e-51)
(1.00176 -0.0474194 1.63151e-20)
(1.00245 -0.0900038 -2.32721e-20)
(0.892223 -0.137702 -2.00177e-20)
(0.613943 -0.150079 2.60875e-20)
(0.320559 -0.104317 3.17351e-20)
(0.0997171 -0.0348075 0)
(0.997844 -0.0138988 0)
(0.997514 -0.046382 1.61532e-21)
(1.00307 -0.0867043 0)
(0.972091 -0.135054 6.39021e-24)
(0.814188 -0.169829 3.66508e-21)
(0.55197 -0.158547 0)
(0.306576 -0.103248 0)
(0.101561 -0.0347989 0)
(0.998013 -0.0125408 2.04943e-20)
(0.995427 -0.044203 -1.81839e-20)
(0.996531 -0.0837425 0)
(0.993453 -0.130784 1.59896e-20)
(0.928183 -0.175158 -2.41176e-20)
(0.751635 -0.191635 0)
(0.517785 -0.16268 -7.06432e-24)
(0.302378 -0.103063 0)
(0.103748 -0.0350505 0)
(0.998142 -0.0108686 -2.06001e-20)
(0.9941 -0.0409273 0)
(0.990881 -0.080094 1.85917e-23)
(0.991887 -0.126484 -1.60113e-20)
(0.974321 -0.174078 0)
(0.884954 -0.207289 1.27614e-23)
(0.709199 -0.205415 6.43442e-24)
(0.501027 -0.164574 -2.99534e-20)
(0.302564 -0.103176 3.32164e-20)
(0.105567 -0.0353264 -6.70394e-24)
(0.998273 -0.00887435 0)
(0.992868 -0.0366163 0)
(0.986518 -0.0752684 -2.06972e-23)
(0.984849 -0.121915 -3.82307e-23)
(0.983931 -0.17099 -3.36301e-23)
(0.95225 -0.212574 0)
(0.850711 -0.230767 -1.34105e-23)
(0.683651 -0.213146 2.63209e-20)
(0.493973 -0.165136 5.6681e-22)
(0.304175 -0.103276 -3.17426e-20)
(0.106809 -0.035538 1.30577e-23)
(0.998426 -0.00655235 -2.25444e-23)
(0.991581 -0.0312514 0)
(0.982522 -0.0689869 0)
(0.977435 -0.116432 2.15206e-23)
(0.979332 -0.167358 1.97379e-23)
(0.975438 -0.213342 1.71286e-23)
(0.933229 -0.243534 0)
(0.827309 -0.245894 0)
(0.669548 -0.216549 8.65348e-22)
(0.491569 -0.16494 -4.32958e-22)
(0.305804 -0.103277 0)
(0.107498 -0.0356509 -6.3534e-24)
(0.998612 -0.00391988 0)
(0.990276 -0.0247906 -2.47618e-20)
(0.978373 -0.0609974 0)
(0.969926 -0.109398 0)
(0.970448 -0.1631 0)
(0.976712 -0.212795 -2.1041e-20)
(0.969618 -0.249668 0)
(0.919911 -0.265353 1.25505e-23)
(0.812673 -0.253976 1.23276e-21)
(0.662089 -0.217353 2.42983e-20)
(0.491021 -0.164393 -2.5943e-20)
(0.306916 -0.103123 0)
(0.107672 -0.035652 0)
(0.998836 -0.00102602 2.39423e-20)
(0.989055 -0.0172304 2.48205e-20)
(0.973992 -0.0510511 2.58045e-24)
(0.961731 -0.100203 0)
(0.959757 -0.157562 2.72123e-20)
(0.969006 -0.211958 2.12622e-20)
(0.979148 -0.253593 3.77992e-23)
(0.96785 -0.276716 -1.3387e-23)
(0.91155 -0.278241 -3.67596e-20)
(0.803654 -0.257319 0)
(0.658111 -0.216905 4.61902e-20)
(0.490969 -0.163631 0)
(0.307299 -0.102782 0)
(0.107412 -0.0355564 1.02023e-23)
(0.999104 0.00204032 -4.78722e-20)
(0.988057 -0.00865233 -2.48472e-23)
(0.96957 -0.0389493 2.8059e-20)
(0.952563 -0.088213 3.00912e-20)
(0.947061 -0.149877 -2.74787e-20)
(0.956969 -0.210655 0)
(0.975808 -0.257613 0)
(0.986822 -0.284912 1.70829e-20)
(0.968687 -0.29342 1.23334e-20)
(0.90606 -0.284644 1.14256e-20)
(0.797988 -0.258121 -2.12084e-20)
(0.655846 -0.215846 5.08003e-24)
(0.490738 -0.162681 -2.2571e-20)
(0.306921 -0.102269 -2.42048e-20)
(0.106807 -0.0353817 -8.1778e-25)
(0.999416 0.00515028 2.39464e-20)
(0.98745 0.000739416 2.5909e-20)
(0.96548 -0.0246115 -2.79419e-20)
(0.942577 -0.0727733 -6.20759e-20)
(0.931791 -0.138983 -6.15793e-23)
(0.941001 -0.208154 5.5856e-23)
(0.965908 -0.262535 0)
(0.99076 -0.293238 -1.68753e-20)
(0.996637 -0.30425 1.38487e-20)
(0.969737 -0.302335 -1.09648e-20)
(0.902242 -0.287372 0)
(0.794383 -0.257588 -2.0052e-20)
(0.654261 -0.21443 1.99015e-20)
(0.489972 -0.161586 2.05899e-20)
(0.305851 -0.101634 1.04019e-23)
(0.105972 -0.0351463 -9.50863e-24)
(0.999764 0.00814036 4.63819e-23)
(0.987416 0.0105909 -2.5763e-20)
(0.962263 -0.00817668 1.19586e-22)
(0.932349 -0.0532751 -1.64755e-21)
(0.913711 -0.123564 0)
(0.920095 -0.203334 -3.66439e-20)
(0.950606 -0.268449 -5.69471e-23)
(0.987311 -0.303478 3.39273e-23)
(1.00862 -0.314329 -1.36263e-20)
(1.00463 -0.314612 0)
(0.970335 -0.306837 0)
(0.899712 -0.288026 9.20954e-21)
(0.7919 -0.256278 -1.85357e-20)
(0.652699 -0.212831 1.34405e-23)
(0.488581 -0.160417 0)
(0.304232 -0.100901 -1.04294e-23)
(0.104976 -0.0348633 0)
(1.00013 0.0108307 0)
(0.988096 0.0203988 -4.78639e-23)
(0.960583 0.00988302 -2.85926e-20)
(0.92295 -0.029311 6.73125e-20)
(0.893122 -0.101957 -1.18733e-23)
(0.89301 -0.194578 3.7409e-20)
(0.928616 -0.275155 0)
(0.97893 -0.316702 0)
(1.0132 -0.325739 -3.29221e-23)
(1.0228 -0.325001 0)
(1.01019 -0.320173 -9.37064e-24)
(0.970964 -0.308754 9.08439e-21)
(0.898005 -0.287398 1.72955e-20)
(0.789829 -0.254582 8.6604e-24)
(0.650857 -0.211188 -8.72766e-24)
(0.486604 -0.159203 0)
(0.302192 -0.100094 -8.85207e-24)
(0.103878 -0.0345449 -1.61491e-20)
(1.0005 0.0130515 0)
(0.989542 0.0295522 -9.93278e-23)
(0.961101 0.0286676 2.84471e-20)
(0.916044 -0.000999001 -6.74064e-20)
(0.8711 -0.0721092 -4.26246e-20)
(0.858642 -0.179429 1.72339e-22)
(0.897532 -0.282331 0)
(0.965341 -0.333938 -2.47989e-20)
(1.01421 -0.339577 2.67616e-23)
(1.03298 -0.335613 0)
(1.03259 -0.330715 0)
(1.01459 -0.322911 8.81735e-25)
(0.971668 -0.308984 8.53898e-24)
(0.896591 -0.286077 -8.02089e-21)
(0.787778 -0.252768 -7.39753e-24)
(0.648635 -0.209561 0)
(0.484123 -0.157961 -7.66242e-24)
(0.299857 -0.0992339 1.72096e-20)
(0.102737 -0.0342019 6.89803e-24)
(1.00083 0.014674 1.91696e-20)
(0.991672 0.0374157 -2.21154e-20)
(0.964258 0.046895 9.92861e-23)
(0.913748 0.0305784 6.58741e-20)
(0.850181 -0.0320809 4.11981e-20)
(0.81646 -0.153479 0)
(0.853734 -0.289604 0)
(0.944896 -0.356496 2.42387e-20)
(1.01257 -0.356326 2.68419e-23)
(1.03941 -0.34737 -4.76774e-24)
(1.04594 -0.340515 0)
(1.04019 -0.333565 0)
(1.01827 -0.323717 7.527e-25)
(0.972154 -0.308243 -1.78835e-23)
(0.895181 -0.284473 0)
(0.785581 -0.250963 1.45967e-20)
(0.64603 -0.207972 -6.85223e-24)
(0.481255 -0.156701 1.47315e-23)
(0.297326 -0.0983311 -7.51716e-24)
(0.101572 -0.0338438 -1.33076e-23)
(1.0011 0.0156344 -3.6989e-20)
(0.994272 0.0434529 1.58108e-21)
(0.97004 0.0630834 2.38852e-20)
(0.917766 0.0630973 -3.19875e-20)
(0.835746 0.0180306 -7.48255e-22)
(0.767961 -0.108088 -5.96292e-20)
(0.790256 -0.294714 5.35921e-20)
(0.912949 -0.385578 -8.48978e-23)
(1.00644 -0.375204 -5.25243e-23)
(1.04236 -0.359863 -1.15221e-20)
(1.05414 -0.350163 -2.13604e-23)
(1.05555 -0.342582 0)
(1.04632 -0.334363 -8.01046e-21)
(1.0211 -0.323382 7.4195e-21)
(0.972315 -0.307046 -7.16192e-24)
(0.893655 -0.282792 -1.35667e-20)
(0.783157 -0.249215 6.2882e-24)
(0.643073 -0.20642 6.85504e-24)
(0.478084 -0.155424 -7.06909e-24)
(0.294666 -0.0974052 7.54026e-24)
(0.100408 -0.0334807 -1.27244e-20)
(1.00129 0.015943 1.78249e-20)
(0.997039 0.0473393 2.05666e-20)
(0.977874 0.075868 -2.37476e-20)
(0.928664 0.0932158 1.04803e-22)
(0.835561 0.0742901 3.87987e-20)
(0.72181 -0.0331365 6.05747e-20)
(0.692293 -0.282445 -5.64665e-20)
(0.852932 -0.416252 -3.41682e-20)
(0.984478 -0.391491 8.38558e-23)
(1.03523 -0.369322 1.14895e-20)
(1.05531 -0.358017 -2.11159e-23)
(1.06363 -0.350003 0)
(1.06274 -0.342509 7.86823e-21)
(1.0509 -0.333932 6.48366e-25)
(1.02312 -0.322462 6.77041e-21)
(0.97215 -0.305655 0)
(0.891935 -0.281128 0)
(0.78048 -0.247537 1.23859e-20)
(0.63981 -0.204898 0)
(0.474692 -0.154139 0)
(0.291946 -0.096473 1.34397e-20)
(0.0992507 -0.0331187 5.91229e-24)
(1.0014 0.0156723 0)
(0.999663 0.049032 -1.70326e-20)
(0.986707 0.0843306 -3.87855e-23)
(0.945586 0.117486 -2.38884e-20)
(0.852292 0.129797 -7.10145e-20)
(0.698175 0.0691292 -5.48486e-20)
(0.543345 -0.213096 -4.23236e-20)
(0.719798 -0.418839 4.17767e-20)
(0.907377 -0.384734 0)
(0.992608 -0.364246 3.92799e-23)
(1.03649 -0.357092 9.61319e-21)
(1.0597 -0.352769 0)
(1.06909 -0.347554 7.67531e-21)
(1.0674 -0.341124 -6.61209e-24)
(1.05407 -0.332816 -6.61606e-21)
(1.02445 -0.321239 0)
(0.971644 -0.304209 5.96614e-21)
(0.889986 -0.279517 -5.71738e-21)
(0.777554 -0.24592 5.78464e-24)
(0.636303 -0.2034 -1.14715e-20)
(0.471161 -0.152855 -5.49833e-24)
(0.289199 -0.0955442 -5.21414e-25)
(0.0980995 -0.0327623 -5.02268e-24)
(1.00143 0.01493 0)
(1.00191 0.0487399 1.71924e-20)
(0.995336 0.088237 -6.97243e-23)
(0.966054 0.13336 2.34004e-20)
(0.885358 0.176302 5.91444e-20)
(0.711018 0.176958 5.01826e-20)
(0.520544 -0.0340754 3.46315e-20)
(0.492674 0.0520728 8.37709e-22)
(0.50892 -0.420552 0)
(0.339292 -0.152514 7.55421e-20)
(0.357923 -0.342358 -3.77742e-22)
(0.778532 -0.364405 0)
(0.479054 -0.291302 -1.38404e-20)
(0.613131 -0.279712 0)
(0.851549 -0.315611 0)
(0.714386 -0.276471 0)
(0.962427 -0.330965 -1.01012e-20)
(1.02544 -0.341863 8.49303e-21)
(1.05771 -0.345238 -7.69137e-21)
(1.07056 -0.34372 3.23893e-24)
(1.06986 -0.33893 6.40645e-21)
(1.05607 -0.331287 1.7559e-23)
(1.02515 -0.319883 -5.74134e-21)
(0.970796 -0.30276 -5.48626e-21)
(0.887801 -0.277956 -5.32158e-21)
(0.774395 -0.244348 1.0359e-20)
(0.632607 -0.201924 0)
(0.467546 -0.151586 4.49226e-25)
(0.286464 -0.0946224 -5.89116e-24)
(0.0969242 -0.0324045 -1.00525e-20)
(1.00141 0.0138318 -2.52642e-23)
(1.00367 0.0468199 0)
(1.00287 0.0880254 0)
(0.986666 0.140272 -1.4881e-22)
(0.927855 0.206219 -2.65357e-20)
(0.769171 0.271061 -3.37688e-22)
(0.48944 0.158441 0)
(0.51929 0.258322 -2.11702e-20)
(0.267446 -0.0194312 -3.58755e-20)
(0.267336 -0.273784 3.30807e-22)
(0.184776 -0.209127 -1.15912e-20)
(0.180295 -0.210406 8.90455e-21)
(0.15716 -0.143075 4.433e-21)
(0.283452 -0.232568 -1.7794e-22)
(0.442573 -0.204866 4.29649e-23)
(0.247318 -0.102996 0)
(0.157002 -0.107171 -5.45264e-22)
(0.496175 -0.181376 -9.14071e-22)
(0.349276 -0.14004 -1.52999e-21)
(0.638703 -0.22518 0)
(0.773245 -0.254891 0)
(0.575958 -0.188797 -1.53313e-23)
(0.923531 -0.300926 -9.08936e-21)
(1.00721 -0.325958 0)
(1.05031 -0.336653 0)
(1.06882 -0.338989 -1.05156e-22)
(1.0705 -0.336193 0)
(1.05703 -0.329554 -1.13521e-23)
(1.02526 -0.318454 -1.07664e-23)
(0.969606 -0.301308 1.00975e-20)
(0.885367 -0.276433 4.89017e-21)
(0.771031 -0.242816 0)
(0.628781 -0.200478 0)
(0.463896 -0.150327 5.06799e-24)
(0.283722 -0.0936969 1.05252e-20)
(0.0957121 -0.032039 9.36448e-21)
(1.00135 0.0124821 -2.26995e-23)
(1.00496 0.0436642 2.54369e-23)
(1.0089 0.0845446 0)
(1.00454 0.139433 0)
(0.969901 0.217352 1.41338e-22)
(0.860663 0.325871 5.46458e-22)
(0.567009 0.351901 2.02188e-20)
(0.634427 0.425167 -5.98091e-23)
(0.232394 0.122398 0)
(0.349203 0.317434 7.25378e-23)
(0.318566 0.249361 0)
(0.0557471 -0.0633956 6.59601e-22)
(0.0945517 -0.129324 7.90438e-21)
(0.104471 -0.137332 -3.89586e-21)
(0.0717183 -0.0892713 0)
(0.14453 -0.057014 1.22496e-21)
(0.0816604 -0.0359089 -3.37523e-21)
(0.240258 -0.0743282 1.09732e-21)
(0.413936 -0.128317 0)
(0.282402 -0.0967804 1.38484e-21)
(0.531411 -0.163677 3.98426e-21)
(0.710294 -0.215179 -2.20742e-21)
(0.498711 -0.146578 0)
(0.362623 -0.106811 -1.38463e-23)
(0.88387 -0.27662 8.01325e-21)
(0.984452 -0.310775 -1.30234e-23)
(1.03921 -0.327526 -6.34937e-21)
(1.06458 -0.33367 5.0055e-24)
(1.06957 -0.333231 0)
(1.05708 -0.327681 9.65007e-24)
(1.02483 -0.316944 -4.86865e-21)
(0.968066 -0.299851 -4.6323e-21)
(0.88269 -0.274943 4.49087e-21)
(0.767506 -0.241323 4.12096e-24)
(0.624866 -0.199055 8.90415e-21)
(0.460235 -0.149078 0)
(0.280959 -0.0927506 -9.77244e-21)
(0.0944599 -0.0316632 -4.10602e-24)
(1.00126 0.0109662 0)
(1.00584 0.039632 -1.11334e-20)
(1.01338 0.0787191 0)
(1.01835 0.132836 -1.19325e-20)
(1.00646 0.212836 -1.26074e-20)
(0.952619 0.339088 1.43144e-20)
(0.714296 0.484194 0)
(0.800028 0.510373 -5.23932e-22)
(0.327123 0.412112 1.84516e-20)
(0.439828 0.523326 -1.6804e-20)
(0.0360187 -0.0126194 0)
(0.0286908 0.0421057 0)
(0.170815 0.2112 -1.04122e-20)
(0.196026 0.29667 1.02448e-20)
(0.03448 -0.0651283 -1.44915e-20)
(0.103672 -0.0308902 8.72732e-22)
(0.212339 -0.0597141 1.95628e-23)
(0.0810061 -0.0220287 -3.43692e-23)
(0.197556 -0.0538149 1.22121e-21)
(0.328854 -0.092053 -4.53446e-21)
(0.473034 -0.134283 -3.92279e-21)
(0.661529 -0.191716 -8.84026e-21)
(0.453816 -0.12559 1.9439e-22)
(0.30484 -0.0836033 0)
(0.173928 -0.0467661 9.64195e-24)
(0.18343 -0.0494821 -1.94243e-23)
(0.845356 -0.256969 -7.43281e-21)
(0.959538 -0.296448 1.39442e-23)
(1.02564 -0.318163 -1.09463e-23)
(1.05843 -0.328321 -8.22925e-25)
(1.06744 -0.330118 9.45144e-24)
(1.05633 -0.325653 -1.85037e-23)
(1.02386 -0.315367 4.4548e-21)
(0.966181 -0.298396 -4.25476e-21)
(0.879797 -0.273484 8.04809e-24)
(0.763846 -0.239865 -1.6145e-20)
(0.6209 -0.19766 8.18926e-21)
(0.456557 -0.147818 0)
(0.278149 -0.0917806 -4.38444e-24)
(0.0931992 -0.0312826 4.12854e-24)
(1.00115 0.00935003 0)
(1.0064 0.0350196 1.25229e-21)
(1.01649 0.0713295 0)
(1.02819 0.122466 1.21137e-20)
(1.03399 0.198447 2.22474e-20)
(1.0224 0.321959 -4.94735e-21)
(0.921796 0.592317 -3.71422e-21)
(0.580765 0.611995 0)
(0.71708 0.663271 6.89937e-21)
(0.0695273 0.226861 2.34181e-21)
(0.108631 0.284048 0)
(0.221824 0.383179 -9.32025e-22)
(0.160564 0.336667 -7.18061e-22)
(0.030994 0.104376 -3.40344e-22)
(0.0437526 0.165651 0)
(0.0694121 -0.0175851 0)
(0.0643569 -0.0160854 -7.85572e-22)
(0.164027 -0.0431594 1.25409e-21)
(0.158059 -0.0413148 -9.55198e-24)
(0.287796 -0.0765156 4.42181e-21)
(0.436365 -0.119533 -3.75948e-24)
(0.620973 -0.17599 6.16201e-21)
(0.422281 -0.114333 -3.65385e-21)
(0.275123 -0.0723547 2.61255e-21)
(0.146633 -0.0381216 0)
(0.151221 -0.0394033 -1.19364e-21)
(0.0565426 -0.0141635 -3.69889e-25)
(0.059933 -0.0149293 3.68922e-25)
(0.808479 -0.240158 6.87835e-21)
(0.933681 -0.282717 -7.63497e-25)
(1.0106 -0.309514 -9.43194e-24)
(1.05112 -0.323011 -4.97192e-21)
(1.06434 -0.326832 -1.81581e-23)
(1.05483 -0.3235 -4.35193e-21)
(1.02238 -0.313741 4.18333e-24)
(0.963974 -0.296942 3.98708e-24)
(0.876708 -0.272056 1.12838e-20)
(0.760084 -0.238445 1.07169e-22)
(0.61689 -0.196274 2.8432e-25)
(0.452839 -0.146536 3.74086e-24)
(0.275306 -0.0907986 2.49894e-25)
(0.0919713 -0.0309085 0)
(1.00104 0.00768239 0)
(1.00671 0.0300573 1.4651e-20)
(1.01848 0.0629634 0)
(1.03482 0.109907 0)
(1.05234 0.179201 -2.51795e-21)
(1.06772 0.288085 -9.01463e-21)
(1.07605 0.534108 7.6697e-22)
(0.799536 0.734049 3.39823e-23)
(0.995409 0.789881 6.02659e-21)
(0.295909 0.513166 -2.41712e-21)
(0.456295 0.630287 4.51102e-21)
(0.684543 0.73164 0)
(0.576285 0.681147 -1.5831e-21)
(0.0532539 -0.0132237 0)
(0.0512497 -0.012722 7.35685e-25)
(0.141614 -0.0362587 -1.88324e-23)
(0.138779 -0.0353459 -1.18641e-21)
(0.264879 -0.0688925 -8.53454e-22)
(0.408137 -0.11031 3.93678e-23)
(0.583646 -0.162956 -7.6259e-21)
(0.395622 -0.105983 0)
(0.256071 -0.066438 3.29284e-21)
(0.132969 -0.0337468 1.17554e-21)
(0.135264 -0.0344654 4.59743e-24)
(0.047409 -0.0118065 2.92774e-24)
(0.0491062 -0.0121892 7.60602e-22)
(0.772186 -0.224236 -1.32442e-23)
(0.908115 -0.271131 -2.14609e-23)
(0.995438 -0.301488 5.14241e-21)
(1.04309 -0.317697 0)
(1.06039 -0.32344 8.70953e-24)
(1.05263 -0.321267 3.74997e-24)
(1.02042 -0.312081 0)
(0.961467 -0.295496 -3.57695e-21)
(0.873447 -0.270662 -3.40912e-21)
(0.756226 -0.237056 -6.87996e-21)
(0.612823 -0.194884 2.38843e-25)
(0.449079 -0.145233 -7.27692e-24)
(0.272462 -0.0898346 8.36086e-21)
(0.0908195 -0.0305509 -3.57003e-24)
(1.00093 0.00599939 0)
(1.00683 0.0249152 -4.58235e-21)
(1.01963 0.0540486 0)
(1.03895 0.0962289 6.85562e-21)
(1.06361 0.157963 -7.38393e-21)
(1.09515 0.25051 0)
(1.14754 0.441015 1.00201e-21)
(1.21329 0.664694 -3.42914e-21)
(0.482439 0.500779 0)
(0.622297 0.500148 -8.85058e-21)
(0.398325 0.341243 6.92812e-21)
(0.835254 0.519047 -4.21693e-23)
(0.107085 0.217804 0)
(0.269038 0.372552 0)
(0.364147 0.395706 0)
(0.0457694 -0.0113178 -1.51748e-21)
(0.0448389 -0.0110699 4.87867e-24)
(0.130036 -0.0329135 1.15881e-21)
(0.128366 -0.0323134 1.15807e-21)
(0.248005 -0.0640567 2.38705e-21)
(0.381697 -0.102461 0)
(0.542303 -0.148391 1.68365e-21)
(0.367067 -0.0975423 0)
(0.240266 -0.0619882 -7.26223e-22)
(0.124336 -0.0313104 -1.11858e-21)
(0.125954 -0.0318866 2.25793e-21)
(0.0429771 -0.0106079 0)
(0.0437914 -0.0108236 -3.66276e-25)
(0.738525 -0.211797 -4.76402e-23)
(0.884924 -0.261089 2.18212e-23)
(0.980658 -0.293911 0)
(1.0345 -0.312473 -4.00733e-24)
(1.0557 -0.320013 -3.91198e-21)
(1.04982 -0.318984 -3.74362e-24)
(1.01802 -0.310399 3.45545e-21)
(0.958684 -0.294064 -3.28839e-21)
(0.870017 -0.269306 6.34543e-21)
(0.75226 -0.235683 -3.21613e-24)
(0.608681 -0.193477 3.29828e-24)
(0.445295 -0.143939 -6.97667e-21)
(0.269681 -0.0889156 3.77599e-24)
(0.0897688 -0.0302165 7.26332e-21)
(1.00082 0.00432631 0)
(1.00683 0.0197138 7.19938e-24)
(1.02017 0.0448936 -4.82442e-24)
(1.04122 0.0821013 -6.96939e-21)
(1.06996 0.136158 0)
(1.11083 0.214939 0)
(1.1738 0.352758 -5.69111e-21)
(1.35561 0.574612 3.89976e-24)
(0.845269 0.27287 0)
(1.19824 0.411248 8.1318e-23)
(0.196632 0.225826 3.14345e-21)
(0.217554 0.145638 0)
(0.629137 0.289556 6.97283e-23)
(0.244834 0.124941 7.11865e-21)
(0.0420812 -0.0103782 -7.38337e-22)
(0.041541 -0.0102106 0)
(0.122067 -0.0308047 -1.07796e-24)
(0.120706 -0.030269 1.11524e-23)
(0.232165 -0.0598022 -1.45712e-21)
(0.347204 -0.0923042 -3.05251e-21)
(0.504205 -0.137086 0)
(0.32235 -0.0833694 -2.95911e-21)
(0.22243 -0.0573254 1.16304e-23)
(0.117289 -0.0294233 5.69867e-24)
(0.118711 -0.029976 4.07906e-24)
(0.0402601 -0.00990475 0)
(0.0408484 -0.0100779 -7.18827e-22)
(0.711129 -0.201655 4.8801e-23)
(0.864179 -0.252159 1.87908e-23)
(0.966259 -0.286846 4.11305e-24)
(1.0255 -0.307406 3.98301e-21)
(1.05041 -0.316592 0)
(1.04647 -0.316671 -3.38645e-21)
(1.01523 -0.308706 0)
(0.955633 -0.29266 3.09167e-24)
(0.86641 -0.267982 3.00017e-24)
(0.748179 -0.234312 5.9629e-21)
(0.604491 -0.192066 -2.94862e-24)
(0.441528 -0.142683 0)
(0.267011 -0.0880634 -7.49057e-21)
(0.0888318 -0.0299064 6.89349e-21)
(1.00071 0.00268105 0)
(1.00674 0.0145378 0)
(1.02028 0.0357086 -7.02039e-24)
(1.04214 0.0679383 1.21113e-23)
(1.07296 0.114636 1.36915e-21)
(1.11826 0.181744 0)
(1.18306 0.282952 3.88168e-21)
(1.36995 0.460717 0)
(1.38152 0.367615 -6.12392e-20)
(0.202025 0.0534964 5.6325e-21)
(0.670361 0.172187 0)
(0.317722 0.079568 0)
(0.916286 0.173882 4.08335e-20)
(0.0395826 -0.00975161 -6.94987e-22)
(0.0391216 -0.00960079 6.85478e-22)
(0.11526 -0.0290494 3.84001e-24)
(0.113713 -0.0284707 1.99188e-21)
(0.20704 -0.0534372 2.32478e-21)
(0.299421 -0.0784392 0)
(0.479647 -0.128802 0)
(0.287949 -0.0750328 0)
(0.173041 -0.0430049 0)
(0.10873 -0.0273327 1.90225e-21)
(0.111492 -0.0281927 -3.13145e-24)
(0.0380493 -0.00934036 6.60899e-22)
(0.0385541 -0.00950052 -6.49053e-25)
(0.688642 -0.19331 2.10952e-23)
(0.845276 -0.244241 -1.9056e-23)
(0.952239 -0.280274 -4.14637e-24)
(1.01618 -0.302519 3.62909e-21)
(1.04459 -0.313199 0)
(1.04263 -0.314343 -2.92916e-24)
(1.01206 -0.307024 0)
(0.952316 -0.291291 -5.32005e-24)
(0.862626 -0.266675 -5.48421e-21)
(0.743995 -0.232927 -1.42744e-25)
(0.600263 -0.190667 1.30156e-25)
(0.437834 -0.141502 6.47805e-21)
(0.264499 -0.0872776 0)
(0.087997 -0.0296195 -3.14185e-24)
(1.00062 0.0010764 0)
(1.00658 0.00944409 -3.4605e-21)
(1.0201 0.0266314 0)
(1.04216 0.0539955 2.91889e-24)
(1.07374 0.0938913 -1.39957e-21)
(1.1201 0.150649 6.38877e-22)
(1.18538 0.228451 6.02458e-21)
(1.3384 0.357702 -4.38296e-23)
(1.52234 0.361156 4.39634e-20)
(1.05194 0.106213 3.2403e-20)
(0.465198 0.0542474 4.69018e-22)
(0.179909 0.010685 -1.23789e-20)
(0.608718 0.0159618 3.02273e-20)
(0.0374604 -0.00921993 3.36655e-24)
(0.0369498 -0.00906 -1.26858e-21)
(0.103607 -0.0265768 -9.19088e-22)
(0.0953125 -0.0228542 4.57675e-22)
(0.148717 -0.0379342 6.49675e-22)
(0.279746 -0.0725271 0)
(0.461907 -0.123136 -1.58457e-21)
(0.27426 -0.0704704 0)
(0.142037 -0.0357254 -6.00384e-22)
(0.0423755 -0.011469 -1.94996e-22)
(0.0639927 -0.0118997 -2.96015e-22)
(0.0354429 -0.00872254 -6.07876e-22)
(0.036313 -0.00896105 -6.22321e-22)
(0.669256 -0.186304 -5.2585e-21)
(0.827815 -0.237145 0)
(0.938532 -0.274142 -3.81599e-21)
(1.0066 -0.297805 0)
(1.03832 -0.309832 0)
(1.03833 -0.312022 2.92372e-24)
(1.00852 -0.305375 0)
(0.94874 -0.289952 1.02934e-23)
(0.858669 -0.265356 0)
(0.739718 -0.23153 -2.66677e-24)
(0.59606 -0.18932 -5.61026e-21)
(0.434267 -0.140408 3.07583e-24)
(0.262168 -0.0865508 0)
(0.0872261 -0.0293461 3.15557e-24)
(1.00052 -0.000477594 0)
(1.00638 0.00447225 6.91872e-21)
(1.01972 0.0177449 -2.77928e-21)
(1.04158 0.0404149 0)
(1.07309 0.0741157 -2.2729e-24)
(1.11863 0.121746 -6.57716e-22)
(1.18302 0.183911 -6.24512e-21)
(1.30316 0.275863 1.31472e-20)
(1.51091 0.310712 4.67055e-23)
(1.44704 0.175451 -1.11292e-19)
(0.673427 -0.0315248 -1.11947e-19)
(0.3663 -0.015604 4.6291e-20)
(0.317192 -0.0138438 0)
(0.0962601 -0.0163999 1.16106e-20)
(0.22969 -0.0231594 1.68904e-20)
(0.0334853 -0.00853575 9.88547e-24)
(0.0309963 -0.00811463 0)
(0.036903 -0.00939237 -5.31093e-22)
(0.0343733 -0.00870905 -6.58107e-22)
(0.138308 -0.0346253 -6.52624e-22)
(0.26865 -0.0693067 2.69854e-21)
(0.447219 -0.118794 5.93604e-21)
(0.264639 -0.0678789 0)
(0.13545 -0.0338008 6.03724e-22)
(0.0332681 -0.00813113 0)
(0.0336293 -0.00836953 6.23833e-22)
(0.0178247 -0.00314884 1.09101e-22)
(0.652108 -0.180154 0)
(0.811361 -0.230695 -7.69126e-24)
(0.925002 -0.268384 0)
(0.996748 -0.293216 0)
(1.03162 -0.306504 0)
(1.03361 -0.30975 2.67339e-21)
(1.00464 -0.303777 2.55124e-21)
(0.944919 -0.288609 -4.97505e-24)
(0.854553 -0.264005 0)
(0.735391 -0.23014 2.45125e-24)
(0.591928 -0.188048 5.46913e-21)
(0.430861 -0.139393 0)
(0.259979 -0.0858614 -3.13298e-24)
(0.0865129 -0.0290865 2.84837e-24)
(1.00044 -0.00197165 3.7212e-21)
(1.00615 -0.000349502 -3.45939e-21)
(1.0192 0.00909819 2.82601e-21)
(1.04065 0.0272628 -1.69269e-21)
(1.07158 0.0553217 0)
(1.11544 0.0950509 -5.16379e-25)
(1.17721 0.14586 0)
(1.27572 0.213063 -2.04985e-20)
(1.45032 0.251693 -1.8885e-23)
(1.56752 0.187373 8.35891e-21)
(1.22032 0.0367931 6.46018e-20)
(0.474766 -0.0729876 -9.74548e-20)
(0.186109 -0.026516 5.9973e-20)
(0.22725 -0.0466907 -2.4283e-20)
(0.113073 -0.00838095 0)
(0.155242 -0.0216076 1.70588e-23)
(0.0598681 -0.0131852 4.54663e-23)
(0.0328204 -0.00809928 5.93676e-22)
(0.0326249 -0.00796562 -5.84041e-22)
(0.132927 -0.0332282 5.79709e-22)
(0.25991 -0.0670414 -2.49465e-21)
(0.434872 -0.114621 1.33157e-21)
(0.256356 -0.0659159 -1.8245e-23)
(0.13079 -0.0326375 5.77677e-22)
(0.0320813 -0.00781923 -5.64603e-22)
(0.0322122 -0.00793373 -2.22107e-24)
(0.636285 -0.174701 -4.59576e-21)
(0.79548 -0.22475 7.75526e-24)
(0.911491 -0.262855 -3.0763e-24)
(0.986614 -0.288706 0)
(1.02451 -0.303268 -2.67659e-21)
(1.02851 -0.307581 -2.5064e-21)
(1.00047 -0.302198 -4.56274e-24)
(0.940873 -0.287224 -4.49447e-24)
(0.85031 -0.262622 2.27763e-24)
(0.731074 -0.228789 -4.88224e-21)
(0.587906 -0.186855 -5.23988e-21)
(0.427616 -0.138445 2.65979e-24)
(0.257932 -0.085201 1.68781e-25)
(0.0858394 -0.0288339 -5.56134e-24)
(1.00036 -0.00339597 -3.75204e-21)
(1.00588 -0.00499582 0)
(1.01858 0.000720645 2.72365e-25)
(1.0395 0.0145599 7.04304e-23)
(1.0696 0.0374402 -6.87687e-25)
(1.1115 0.0703774 0)
(1.16954 0.112344 5.21414e-24)
(1.25447 0.16375 3.56249e-22)
(1.39094 0.19802 1.0842e-20)
(1.54767 0.169651 7.29709e-20)
(1.49766 0.074955 0)
(1.00532 -0.0417153 6.97165e-20)
(0.39244 -0.0712272 -2.53513e-20)
(0.175493 -0.0352831 -3.28701e-22)
(0.162917 -0.0449141 5.78386e-21)
(0.0581474 -0.00778029 -2.36312e-22)
(0.0621996 -0.0136262 -1.47592e-20)
(0.0729205 -0.0142761 1.54182e-20)
(0.0771352 -0.0226759 1.56922e-20)
(0.0206759 -0.00431848 0)
(0.0352887 -0.00947223 -1.10012e-20)
(0.0316759 -0.00780476 -5.52862e-22)
(0.0315508 -0.00769971 -5.43946e-22)
(0.128598 -0.0321825 1.64645e-21)
(0.252655 -0.0654964 -2.36672e-21)
(0.423228 -0.111184 6.48356e-21)
(0.250512 -0.063891 -2.01342e-21)
(0.126417 -0.0316958 0)
(0.0310718 -0.00757239 2.07202e-24)
(0.0311827 -0.00767967 -1.06997e-21)
(0.621118 -0.169695 -4.35207e-21)
(0.77976 -0.219069 -3.54569e-21)
(0.897794 -0.257388 3.08577e-24)
(0.976203 -0.284338 -5.19181e-24)
(1.01712 -0.300242 -2.89492e-25)
(1.02314 -0.305483 2.36204e-21)
(0.996031 -0.300583 4.55659e-24)
(0.936626 -0.285782 4.48787e-24)
(0.845991 -0.261231 2.29347e-21)
(0.7268 -0.227496 4.67371e-21)
(0.584025 -0.185744 0)
(0.424538 -0.137541 -2.66193e-24)
(0.255992 -0.0845553 2.97459e-24)
(0.0851985 -0.0285897 -5.442e-21)
(1.00029 -0.00473755 0)
(1.00557 -0.00944037 9.41389e-25)
(1.01786 -0.00736566 0)
(1.0382 0.0022965 1.6816e-21)
(1.06741 0.0203717 1.85655e-22)
(1.10735 0.0474264 3.4336e-24)
(1.16139 0.0822603 0)
(1.23652 0.123167 6.82154e-21)
(1.34562 0.152778 -2.16092e-20)
(1.48549 0.140943 -3.47504e-20)
(1.56644 0.0831395 7.98989e-23)
(1.37389 -0.00732567 0)
(0.848838 -0.0813098 -1.48448e-22)
(0.348177 -0.0651697 -1.01327e-19)
(0.163251 -0.0290416 -6.94414e-22)
(0.167884 -0.0388347 4.00285e-20)
(0.0862033 -0.0179171 -1.91582e-22)
(0.0819644 -0.0198059 0)
(0.0703032 -0.0166556 -6.89701e-21)
(0.0568269 -0.0196773 0)
(0.00911258 -0.00174571 9.72402e-21)
(0.0116528 -0.00352099 0)
(0.0150771 -0.00390724 -7.61336e-23)
(0.0123503 -0.00604336 -9.75158e-21)
(0.0306921 -0.00756504 5.13609e-22)
(0.0305699 -0.00746254 -5.07387e-22)
(0.124451 -0.0314444 2.48837e-21)
(0.245791 -0.0626741 -4.90099e-22)
(0.412275 -0.108105 6.05633e-21)
(0.24306 -0.0617379 -2.4023e-21)
(0.15352 -0.0407941 0)
(0.153645 -0.0396719 6.16397e-22)
(0.0300365 -0.00735275 -1.90594e-24)
(0.0301823 -0.00744027 -4.96661e-22)
(0.605903 -0.164848 4.07528e-21)
(0.763587 -0.213308 0)
(0.883882 -0.251993 0)
(0.965696 -0.280361 5.20519e-24)
(1.00962 -0.297389 -2.38625e-21)
(1.01756 -0.303383 2.24399e-21)
(0.99135 -0.29891 0)
(0.932218 -0.284299 -2.16049e-21)
(0.841646 -0.259863 0)
(0.722618 -0.226273 0)
(0.580294 -0.184692 0)
(0.421601 -0.136664 -5.07278e-21)
(0.254147 -0.083924 5.53283e-21)
(0.0845833 -0.0283508 -4.97884e-24)
(1.00022 -0.00598037 0)
(1.00521 -0.0136492 -1.80023e-24)
(1.01704 -0.0151357 1.24118e-24)
(1.03679 -0.00954663 0)
(1.06514 0.00399523 -4.38384e-22)
(1.10331 0.0258737 -1.65381e-21)
(1.15365 0.0548483 -2.67338e-24)
(1.2208 0.0883569 0)
(1.31192 0.114472 1.06577e-20)
(1.42623 0.111269 -1.52915e-23)
(1.53579 0.0747322 0)
(1.53085 0.0113274 -1.68314e-22)
(1.24683 -0.0638757 -5.30166e-20)
(0.743103 -0.0972643 7.66569e-20)
(0.328064 -0.0632318 -1.21242e-19)
(0.150443 -0.0277729 4.22493e-20)
(0.151064 -0.033826 -1.64798e-22)
(0.0578179 -0.0120151 -8.54772e-21)
(0.0850058 -0.0194468 -1.26233e-20)
(0.0848018 -0.0216272 1.23748e-20)
(0.0402791 -0.00928712 -1.65507e-22)
(0.0382037 -0.00852225 0)
(0.0225458 -0.00284261 4.72581e-21)
(0.00994583 -0.00359135 -1.03714e-20)
(0.0297036 -0.00732769 -4.86333e-22)
(0.0294729 -0.00734723 -4.76508e-22)
(0.0910571 -0.0245037 -6.55415e-22)
(0.152472 -0.0386515 6.2288e-22)
(0.151898 -0.0381365 0)
(0.239846 -0.0612584 3.66751e-24)
(0.40107 -0.104977 -1.08369e-21)
(0.237222 -0.0603562 -1.79739e-21)
(0.151016 -0.0379125 6.0654e-22)
(0.150321 -0.0376452 6.01616e-22)
(0.0911711 -0.0234396 -1.10487e-21)
(0.589426 -0.159707 0)
(0.746741 -0.207156 0)
(0.870128 -0.247263 0)
(0.955473 -0.276717 9.34324e-24)
(1.0021 -0.294606 -2.25754e-21)
(1.01176 -0.301254 0)
(0.986458 -0.297186 0)
(0.927712 -0.282802 0)
(0.837322 -0.258534 0)
(0.718545 -0.225114 0)
(0.576701 -0.183683 8.85699e-21)
(0.418786 -0.135801 -2.23841e-24)
(0.252383 -0.0833041 -5.31959e-21)
(0.0839925 -0.0281181 4.85978e-21)
(1.00016 -0.00710238 2.29593e-24)
(1.00478 -0.0175764 3.96944e-24)
(1.01607 -0.0225522 1.79794e-24)
(1.03523 -0.0209835 -1.23044e-24)
(1.06284 -0.0118073 6.66428e-22)
(1.09955 0.00539796 3.29211e-21)
(1.14674 0.029477 0)
(1.20729 0.0575592 0)
(1.28566 0.0810264 -9.32305e-21)
(1.38031 0.0835851 0)
(1.4803 0.0597473 -1.60616e-20)
(1.54864 0.0157845 0)
(1.46887 -0.0450941 4.70052e-20)
(1.136 -0.0983427 -1.08576e-22)
(0.674067 -0.102421 7.72257e-20)
(0.314409 -0.0620967 -4.69463e-20)
(0.155387 -0.0303933 -9.06628e-22)
(0.15113 -0.0339075 7.93444e-20)
(0.054121 -0.0121548 -3.65549e-20)
(0.0527527 -0.0124682 8.88293e-21)
(0.0101356 -0.00207202 8.02874e-21)
(0.0418978 -0.0104738 -1.9133e-22)
(0.0102755 -0.00326749 0)
(0.0415161 -0.0108082 -1.04528e-20)
(0.00947484 -0.00272167 -7.43411e-21)
(0.00964541 -0.00276675 -7.32186e-21)
(0.00571838 -0.000722289 5.63447e-21)
(0.0297334 -0.00771255 4.58551e-22)
(0.0895215 -0.0225051 2.14541e-24)
(0.0889194 -0.0221225 -5.48921e-22)
(0.149347 -0.0375651 5.88118e-22)
(0.148645 -0.0373436 5.77275e-22)
(0.233993 -0.0597693 0)
(0.387585 -0.101336 -1.13631e-21)
(0.230894 -0.0586876 1.67542e-21)
(0.147696 -0.0371805 5.49469e-25)
(0.146935 -0.0368847 -5.50313e-25)
(0.0884495 -0.021971 -1.07651e-21)
(0.0880378 -0.0218419 -5.37418e-22)
(0.0296939 -0.00745411 4.09478e-22)
(0.570183 -0.15311 0)
(0.73023 -0.202063 0)
(0.857343 -0.243069 9.94763e-24)
(0.945644 -0.273243 2.3156e-21)
(0.994536 -0.291862 0)
(1.00578 -0.299101 3.95029e-24)
(0.981416 -0.295429 0)
(0.923155 -0.281312 2.01807e-21)
(0.833051 -0.257258 -2.03405e-21)
(0.714586 -0.224009 -3.99568e-21)
(0.573242 -0.182698 4.22738e-21)
(0.416086 -0.134947 4.40231e-21)
(0.250691 -0.0826924 -4.90879e-21)
(0.0834077 -0.0278903 -4.29136e-24)