/*--------------------------------*- C++ -*----------------------------------*\
| =========                 |                                                 |
| \\      /  F ield         | OpenFOAM: The Open Source CFD Toolbox           |
|  \\    /   O peration     | Version:  v1912                                 |
|   \\  /    A nd           | Website:  www.openfoam.com                      |
|    \\/     M anipulation  |                                                 |
\*---------------------------------------------------------------------------*/
FoamFile
{
    version     2.0;
    format      ascii;
    class       surfaceScalarField;
    location    "50";
    object      phi;
}
// * * * * * * * * * * * * * * * * * * * * * * * * * * * * * * * * * * * * * //

dimensions      [0 3 -1 0 0 0 0];
oriented        oriented;


internalField   nonuniform List<scalar> 
7200
(
-8.34186e-05
0.0100465
-0.00017214
0.0100538
2.79761e-05
0.0100229
-0.000267933
0.010067
3.88784e-05
0.0100428
0.000179448
0.00985157
-0.000372927
0.0100842
2.64602e-05
0.0100793
0.000321611
0.00990055
0.000417446
0.00944724
-0.000487812
0.0101028
-1.57064e-05
0.0101263
0.000412739
0.00998814
0.000757942
0.00955996
0.000849683
0.00861722
-0.000612467
0.0101208
-8.97294e-05
0.0101768
0.000440921
0.010098
0.000991785
0.00975426
0.00151628
0.00889329
0.00170665
0.00342652
0.00351252
-0.00074556
0.0101363
-0.00019399
0.0102249
0.00040501
0.0102127
0.00109909
0.00999061
0.00194575
0.00932477
0.0028937
0.00375146
0.00395471
0.000835926
0.00261179
0.00155091
0.00279753
-0.000886121
0.0101491
-0.00032537
0.0102676
0.000310622
0.0103192
0.00108663
0.0102251
0.00211555
0.00982076
0.00361614
0.00860231
0.00217939
0.003123
0.00267827
0.00345579
0.00126646
0.0006768
0.000696192
0.00235474
0.000926032
0.000783201
-0.0010327
0.0101588
-0.000479214
0.0103029
0.000167268
0.0104109
0.000975758
0.01043
0.00207152
0.0102691
0.00373703
0.00969982
-0.00366628
0.00709094
0.00365043
0.00420548
0.00310113
0.00114281
0.00123378
0.00289064
0.00041358
0.000278771
0.000808971
0.000300802
-0.00121398
0.00152845
0.000611558
0.000378186
-0.00118444
0.0101662
-0.000651629
0.0103312
-1.57731e-05
0.0104858
0.000789766
0.0105968
0.00187972
0.0106218
0.00350198
0.0105041
0.00653322
0.0102574
0.00577085
-0.00522104
0.00170685
0.00139375
0.00562677
0.00434954
0.0018513
0.000819964
0.00210673
0.000978345
-0.00212043
0.00105296
0.000843804
0.000287526
0.000588321
-0.000966507
0.00157806
-0.00133904
0.0101701
-0.000838497
0.010353
-0.00022934
0.0105447
0.000548367
0.0107272
0.00159081
0.0108857
0.00309279
0.0110309
0.00558812
0.0114492
-0.00538001
0.00998047
0.00530706
0.00597666
-0.00262473
0.00279861
0.00153295
-0.00220301
0.00097203
-0.00211439
0.00212769
0.00175482
0.00175661
0.000641408
0.000614524
-0.00209973
0.000949673
-0.00125593
-0.00149848
0.0101744
-0.00103775
0.0103693
-0.000466149
0.0105897
0.000266941
0.0108261
0.00123941
0.0110785
0.00259495
0.0113835
0.00461465
0.0120043
0.00808421
0.0133454
0.0044331
-0.00199909
0.00441616
-0.00154312
0.00446188
0.00594787
-0.0019217
0.00134025
-0.000949673
-0.00167046
0.00179905
-0.00134025
0.00142461
0.000641405
-0.00165957
0.0101761
-0.00124557
0.0103822
-0.000721497
0.0106246
-4.34119e-05
0.0109
0.00084936
0.0112161
0.00205605
0.0116173
0.00371813
0.01228
0.00628774
0.0138007
-0.00315898
0.00722052
0.0137458
0.00249111
0.00317926
-0.000544434
-0.000709794
-0.000984404
0.00124033
0.00528
0.000440207
-0.00182186
0.0101762
-0.00145999
0.0103904
-0.000989079
0.0106497
-0.000373126
0.0109543
0.00043545
0.0113139
0.00150255
0.0117696
0.00289673
0.0124387
0.00480796
0.0137598
0.00599801
0.0150232
-0.00188804
0.00440525
0.0124561
-0.00122755
0.00111733
-0.00014201
0.00228256
-7.86356e-05
-0.000970735
0.000426298
-0.000440207
0.00450929
-0.00198696
0.0101781
-0.00168159
0.0103978
-0.00126879
0.0106701
-0.00071694
0.0109934
8.12295e-06
0.0113815
0.000949689
0.0118667
0.00213544
0.0125308
0.00361749
0.0136291
0.00472271
0.0150351
0.00434694
0.0150815
0.00231085
0.0108481
-0.000237609
-0.000465412
-0.000506902
0.00378863
0.000284288
0.00181187
-9.98872e-06
-2.62446e-05
0.000205651
-0.00215262
0.0101786
-0.00190729
0.0104037
-0.00155645
0.0106854
-0.0010724
0.0110255
-0.000429083
0.0114306
0.000400488
0.0119307
0.00142297
0.0125791
0.00262543
0.0135228
0.00360076
0.014751
0.00371249
0.0156695
0.00288063
0.0145117
0.00121645
0.00976338
-0.000103543
-2.83128e-05
-0.00336792
0.00305142
7.8866e-05
-4.47116e-05
0.00166631
2.34678e-05
7.73677e-05
-0.000179407
0.000169417
-0.0023206
0.010179
-0.00213735
0.0104086
-0.00185162
0.0106989
-0.00143628
0.0110492
-0.000872258
0.0114686
-0.000142336
0.0119733
0.000748822
0.0126047
0.00176188
0.0134426
0.00263418
0.0144894
0.00295148
0.0155121
0.00272104
0.0158291
0.00190402
0.0138241
0.000758665
0.00915605
-9.93341e-05
-5.22193e-05
-0.00295923
0.0028663
-1.06788e-05
6.3841e-05
0.00157036
7.55794e-05
9.92208e-05
0.000192883
0.000270249
-0.00248876
0.0101791
-0.00237118
0.0104127
-0.00215241
0.0107094
-0.00180858
0.0110711
-0.001322
0.0114989
-0.000679371
0.0120056
0.000105418
0.0126167
0.000986103
0.0133805
0.00178218
0.0142946
0.00220904
0.0152318
0.00225777
0.0159753
0.00199317
0.0157399
0.00131837
0.0132643
0.00054346
0.00876083
-8.22833e-05
-6.60828e-05
-0.00282229
0.00275135
-2.84778e-05
-8.2589e-06
-0.00159493
0.00159075
-7.8936e-06
1.34054e-06
3.66279e-05
2.61598e-06
-0.00030259
0.000349677
2.84829e-05
6.6877e-05
-0.00265891
0.0101791
-0.00260831
0.0104162
-0.00246028
0.0107206
-0.00219008
0.0110908
-0.00177788
0.0115269
-0.00121684
0.0120363
-0.00051981
0.0126307
0.000266038
0.0133367
0.00100802
0.0141547
0.00150407
0.0149996
0.00171239
0.0157772
0.00172529
0.0162432
0.00148771
0.0155705
0.000976338
0.0128314
0.000417616
0.00847583
-6.64624e-05
-6.62711e-05
-0.00270616
0.00265229
-2.8453e-05
-2.09224e-05
-0.00158392
0.00156176
-4.19861e-06
-2.18255e-06
8.38737e-07
-2.30602e-06
-0.000380811
0.000374893
-1.99759e-06
-0.000379365
-1.19553e-07
0.000377357
8.93725e-06
5.9925e-07
-6.6877e-05
9.53583e-05
-0.00282885
0.0101789
-0.00284717
0.0104179
-0.00277171
0.0107276
-0.00257788
0.0111083
-0.00224257
0.0115555
-0.00175699
0.012067
-0.00113359
0.0126501
-0.000416604
0.0133134
0.000288476
0.0140563
0.000834327
0.0148244
0.00115866
0.0155533
0.00131963
0.0161828
0.00133589
0.0163949
0.0011559
0.0153908
0.000760847
0.0124881
0.000329574
0.00826407
-5.37938e-05
-6.41439e-05
-0.00260981
0.00256956
-2.62354e-05
-2.38203e-05
-0.00154442
0.00152209
-3.30501e-06
-2.85375e-06
-1.4332e-06
-2.17235e-06
-0.00037077
0.000367515
-9.6712e-07
-0.000372677
-2.93492e-07
0.000375027
6.86779e-07
2.98007e-08
-0.000104772
0.000102769
-0.000104893
0.000104294
-0.00299928
0.0101794
-0.00308911
0.0104208
-0.00309021
0.0107364
-0.0029754
0.0111251
-0.00271814
0.0115838
-0.00230711
0.0121055
-0.00174769
0.012681
-0.0010812
0.0133146
-0.000397257
0.0139991
0.00018828
0.0147023
0.000603993
0.015379
0.000873043
0.0159999
0.00102995
0.0164887
0.0010684
0.0164824
0.000936145
0.0152155
0.000605289
0.0122123
0.000245828
0.00811259
-3.50867e-05
-5.93987e-05
-0.00252994
0.00250051
-2.43969e-05
-2.45458e-05
-0.00150287
0.00148259
-2.90395e-06
-3.0805e-06
-2.34079e-06
-2.2753e-06
-0.000361674
0.000359168
-8.0859e-07
-0.00036406
-4.78968e-07
0.000366043
2.36956e-08
-1.99572e-07
-0.000103186
0.000102214
-0.000103483
0.000103453
-0.00316978
0.0101785
-0.00333107
0.0104213
-0.0034108
0.0107414
-0.00338077
0.0111417
-0.00320692
0.0116138
-0.00287049
0.0121472
-0.00236916
0.0127269
-0.00174102
0.0133408
-0.00106319
0.0139805
-0.000439639
0.014627
5.48875e-05
0.0152514
0.000415013
0.015837
0.000666158
0.0163636
0.000828982
0.0167281
0.000891652
0.0165268
0.000776134
0.0150446
0.000472823
0.0119853
0.000130931
0.00800697
1.36066e-05
-3.9046e-05
-0.00246455
0.00244858
-1.91568e-05
-2.34677e-05
-0.0014634
0.00144516
-2.77859e-06
-3.41303e-06
-2.93014e-06
-2.43693e-06
-0.000352663
0.000350499
-7.46944e-07
-0.000355196
-5.53812e-07
0.000357119
-2.98502e-07
-3.57847e-07
-0.000101555
0.000100744
-0.000102036
0.000102236
-0.00334072
0.0101789
-0.00357356
0.0104209
-0.00373497
0.0107455
-0.00379564
0.0111562
-0.00371003
0.0116448
-0.00345423
0.0121974
-0.00300891
0.0127868
-0.00241017
0.013396
-0.00172803
0.0140056
-0.0010627
0.0146036
-0.000494074
0.0151759
-5.00527e-05
0.0157165
0.000285527
0.0162176
0.000528906
0.0166636
0.000701939
0.0169177
0.000768978
0.0165339
0.000645486
0.0148719
0.000340879
0.0117753
-2.83415e-05
0.00786788
0.000131012
3.62875e-05
-0.00242356
0.00243322
3.89973e-06
-1.40455e-05
-0.00142758
0.00141447
-2.3825e-06
-3.7038e-06
-3.43536e-06
-2.46528e-06
-0.00034335
0.000341319
-7.58205e-07
-0.000346112
-6.59239e-07
0.000348075
-5.14665e-07
-4.81001e-07
-9.95314e-05
9.87823e-05
-0.000100086
0.000100444
-0.00350926
0.0101765
-0.00381235
0.0104177
-0.00405909
0.010745
-0.00421544
0.0111652
-0.00423036
0.0116765
-0.00406448
0.012255
-0.00367709
0.0128656
-0.00310249
0.0134791
-0.00240357
0.0140715
-0.00168554
0.0146285
-0.00104246
0.015152
-0.000517397
0.0156432
-0.000105338
0.0161073
0.000206869
0.0165396
0.000451378
0.0169141
0.000626291
0.0170603
0.000676649
0.0165027
0.000532547
0.0146802
0.000217387
0.0115295
-0.000110316
0.00764332
0.000168405
0.000166365
-0.00243272
0.00245417
0.000109521
3.67596e-05
-0.00140572
0.00141267
3.62124e-07
-3.44969e-06
-3.70936e-06
-1.60704e-06
-0.000333666
0.000332026
-7.53671e-07
-0.000336646
-7.32609e-07
0.000338543
-6.6877e-07
-5.7434e-07
-9.71244e-05
9.63635e-05
-9.77852e-05
9.82662e-05
-0.0036752
0.0101729
-0.00404633
0.0104104
-0.00437809
0.0107366
-0.00463922
0.0111688
-0.00476949
0.0117043
-0.0047072
0.0123191
-0.00438487
0.0129626
-0.0038349
0.0135979
-0.00310568
0.0141812
-0.00232034
0.0147063
-0.00159575
0.0151817
-0.000990242
0.0156247
-0.000502833
0.0160407
-0.000122947
0.016437
0.000178865
0.016812
0.000416286
0.0171241
0.000579257
0.0171577
0.000605922
0.0164293
0.00044623
0.0144513
0.000168812
0.0112503
8.55788e-06
0.00751419
1.5363e-05
0.000105116
-0.0024414
0.00243678
0.000172997
0.000179118
-0.00144064
0.00148586
4.70585e-05
1.72085e-05
-6.34216e-07
9.41153e-06
-0.000325203
0.000325957
-4.03367e-07
-0.000327978
-6.84596e-07
0.000329048
-7.4127e-07
-5.4486e-07
-9.43847e-05
9.36281e-05
-9.51188e-05
9.56932e-05
-0.00383798
0.0101677
-0.00427119
0.0103977
-0.00468796
0.0107203
-0.00506263
0.01116
-0.00532327
0.0117225
-0.00538647
0.0123835
-0.00514392
0.0130781
-0.00462399
0.0137517
-0.00384626
0.0143385
-0.0029743
0.0148351
-0.0021584
0.0152689
-0.0014665
0.0156579
-0.000902434
0.0160243
-0.000457358
0.016375
-0.000103172
0.016719
0.000181581
0.0170467
0.000409622
0.0172937
0.000553952
0.0172096
0.000560821
0.0163147
0.000417082
0.014203
0.000232146
0.0110267
0.000167462
0.00741701
-5.77516e-05
-1.25832e-05
-0.00245589
0.00245107
2.01669e-05
8.59814e-05
-0.00149699
0.00152152
5.31144e-05
9.53196e-05
7.33918e-05
9.45703e-05
-0.000343195
0.000368064
2.21799e-05
-0.000332895
6.89989e-06
0.000325343
-2.89864e-08
1.85291e-06
-9.16539e-05
9.12474e-05
-9.23402e-05
9.28851e-05
-0.00399558
0.0101596
-0.00448026
0.0103768
-0.00497923
0.010689
-0.00547388
0.0111315
-0.00588823
0.0117249
-0.00610437
0.0124403
-0.00596649
0.0132059
-0.00549094
0.0139449
-0.00464796
0.0145534
-0.00366097
0.0150251
-0.00273322
0.0154098
-0.00194717
0.0157495
-0.00130563
0.016061
-0.00079498
0.0163619
-0.000387383
0.0166592
-5.79388e-05
0.0169585
0.000210209
0.017246
0.000420873
0.0174267
0.000548707
0.0172217
0.000555562
0.0161762
0.000452628
0.0139824
0.000342571
0.0108516
0.000262066
0.00728621
-7.42184e-05
-5.7072e-05
-0.00244905
0.00242111
-2.98131e-05
-1.05807e-05
-0.00156377
0.00158147
-4.28016e-06
6.72165e-06
3.44636e-05
9.25248e-06
-0.000443717
0.000463384
3.34485e-05
-0.00041285
6.44378e-05
0.000390238
5.11984e-05
7.19476e-05
-9.9968e-05
0.000122142
-9.30698e-05
9.12169e-05
-0.00414465
0.010146
-0.00466749
0.0103468
-0.00524262
0.0106401
-0.00586377
0.0110789
-0.00645469
0.0116979
-0.00685818
0.0124787
-0.00686746
0.0133413
-0.00646864
0.0141837
-0.00553074
0.0148277
-0.00438763
0.01528
-0.00332502
0.0156169
-0.00243396
0.0158966
-0.00171128
0.0161551
-0.00113342
0.0163994
-0.000673315
0.0166478
-0.000302631
0.0169038
1.48369e-06
0.0171672
0.000253272
0.0174136
0.000448774
0.0175266
0.000568594
0.0172086
0.000587458
0.0160413
0.00052594
0.0137991
0.000432802
0.0106809
0.000302587
0.00712237
-7.03544e-05
-6.84037e-05
-0.00239848
0.00236316
-3.89007e-05
-3.44483e-05
-0.00158055
0.00156546
-8.73886e-06
-6.00239e-06
-2.21387e-06
-7.45495e-06
-0.000491675
0.000489093
-1.69059e-06
-0.000486445
1.47857e-06
0.000482511
1.53213e-05
5.31513e-06
-0.000240675
0.000265315
8.7969e-06
-0.000199493
2.3246e-05
0.000173335
4.57812e-05
-0.00428066
0.010127
-0.00482386
0.0103024
-0.00546321
0.0105674
-0.00621217
0.0109885
-0.00700188
0.011626
-0.00763839
0.0124781
-0.0078686
0.0134797
-0.00760627
0.0144788
-0.00652574
0.0151786
-0.00516736
0.0156074
-0.00393574
0.0158907
-0.00292556
0.0161084
-0.00211518
0.0163004
-0.0014705
0.0164922
-0.000957297
0.0166833
-0.000543396
0.0168885
-0.0002067
0.0171119
7.30464e-05
0.0173473
0.000306306
0.017556
0.000492341
0.0176028
0.000610826
0.0171852
0.000644253
0.015923
0.000598762
0.0136331
0.000484537
0.0104989
0.000320274
0.00695539
-8.77915e-05
-6.55582e-05
-0.0023314
0.00229448
-3.34283e-05
-3.66416e-05
-0.00154604
0.00152281
-8.17803e-06
-7.49908e-06
-6.8183e-06
-8.21242e-06
-0.000481571
0.000476725
-3.88175e-06
-0.000484448
-3.13795e-06
0.000488936
-2.07062e-06
-2.9699e-06
-0.000284102
0.000283015
-6.13785e-07
-0.000282484
-1.44965e-07
0.000277802
2.82866e-06
6.29378e-07
-6.90261e-05
7.78203e-05
-4.57812e-05
-0.00440261
0.0101049
-0.00494042
0.0102435
-0.00562289
0.010462
-0.00649045
0.0108456
-0.00750208
0.0114887
-0.00843121
0.0124187
-0.00901983
0.0136293
-0.00898727
0.0148608
-0.00767835
0.0156315
-0.00601814
0.0160294
-0.00457236
0.0162441
-0.0034242
0.0163893
-0.00251883
0.016512
-0.00180534
0.0166352
-0.00123824
0.0167731
-0.000783496
0.0169234
-0.000415471
0.0170972
-0.000110363
0.0172953
0.000147839
0.0175058
0.000367679
0.0176806
0.00054747
0.0176661
0.000667506
0.0171619
0.000706629
0.0158151
0.00064973
0.0134679
0.000507374
0.0103118
0.000313651
-0.00015526
0.00679672
-0.00225072
0.00210823
5.46265e-05
-2.18166e-05
-0.00150019
0.00147823
-5.14419e-06
-6.33379e-06
-6.99692e-06
-7.02279e-06
-0.000464342
0.000459896
-3.71729e-06
-0.00046848
-3.37068e-06
0.000473257
-3.36125e-06
-3.43664e-06
-0.000277016
0.000274084
-9.58613e-07
-0.000279326
-8.31589e-07
0.000281503
-5.64374e-07
-7.95441e-07
-8.11315e-05
8.05156e-05
-8.12774e-05
8.0648e-05
-0.00450853
0.0100819
-0.0050085
0.0101729
-0.00569828
0.0103189
-0.00666271
0.0106342
-0.00791305
0.0112565
-0.00922331
0.0122807
-0.0103958
0.0137947
-0.0107216
0.0153636
-0.00904217
0.0162246
-0.0069599
0.0165732
-0.00524236
0.0166994
-0.00393131
0.0167511
-0.00292067
0.016791
-0.00213495
0.0168416
-0.00151369
0.0169106
-0.00101928
0.0170088
-0.000619873
0.0171277
-0.00029047
0.0172773
-1.22972e-05
0.0174553
0.000226805
0.0176466
0.0004358
0.0177922
0.000609331
0.0177243
0.000726077
0.0171424
0.000754695
0.0157101
0.000675945
0.0132993
0.000504574
0.0101209
-0.00155335
0.0035286
-1.01749e-05
-1.22212e-05
0.000299208
-0.000142157
0.0066398
-0.00146885
-2.99777e-05
-3.01081e-06
-9.45371e-06
-0.00044795
0.000444446
-1.6183e-06
-0.000451908
-2.38449e-06
0.000456036
-3.14722e-06
-2.89357e-06
-0.000266281
0.000263451
-8.95365e-07
-0.000268839
-8.13653e-07
0.000271435
-7.14929e-07
-8.41266e-07
-7.83227e-05
7.73626e-05
-7.9155e-05
7.99505e-05
-0.00460012
0.0100635
-0.00502705
0.0101004
-0.0056739
0.0101485
-0.00668379
0.01034
-0.00815694
0.0108781
-0.0099654
0.0119985
-0.0120256
0.0139104
-0.0128516
0.0159246
-0.0105812
0.0169026
-0.00795459
0.0172193
-0.00592993
0.0172608
-0.00444536
0.0172134
-0.00332263
0.0171531
-0.00245679
0.0171128
-0.00178082
0.0171087
-0.00124924
0.0171405
-0.000819499
0.0172084
-0.000468473
0.0173057
-0.000174343
0.0174393
7.99787e-05
0.0176021
0.000305849
0.0177765
0.000506533
0.0178949
0.000671763
0.0177786
0.000778623
0.0171185
0.000785619
0.0156005
0.000677395
0.0131264
0.000481381
0.00993871
0.00341207
-1.20023e-05
-1.37324e-05
-0.000650761
0.00064136
-4.46824e-07
-3.91178e-07
-0.00066165
-5.03127e-07
-9.00691e-07
0.000257959
-0.000120336
0.006502
-0.000409552
-8.7557e-07
-9.26854e-07
-0.000280363
0.00043871
2.70499e-06
1.96925e-05
-0.000256899
0.000255661
-3.8457e-07
-0.000258745
-5.3778e-07
0.00026094
-6.37559e-07
-6.97657e-07
-7.49923e-05
7.40962e-05
-7.58062e-05
7.66475e-05
-0.00468054
0.0100514
-0.00500244
0.0100389
-0.00554784
0.00997436
-0.00650879
0.00997347
-0.00811962
0.0103026
-0.0104752
0.0113878
-0.0137617
0.0137346
-0.0151583
0.016217
-0.0119829
0.0173263
-0.00878497
0.017733
-0.00651815
0.0178075
-0.00491239
0.0177278
-0.0037016
0.0175923
-0.00276828
0.0174645
-0.00204206
0.017374
-0.00147175
0.0173311
-0.00101447
0.0173354
-0.000641685
0.0173816
-0.000330988
0.0174623
-6.41597e-05
0.0175834
0.000169161
0.0177387
0.000381521
0.0179015
0.00057233
0.0179943
0.000729833
0.0178273
0.000816386
0.0170877
0.000796194
0.0154817
0.000656682
0.0129511
0.000432871
0.0097638
0.0033189
-1.18148e-05
-1.53658e-05
-0.00062869
0.000618023
-6.94782e-07
-6.67992e-07
-4.56066e-07
-6.0085e-07
-6.58812e-05
6.54275e-05
-6.62745e-05
-6.67817e-05
-6.76942e-05
0.000181461
-6.526e-05
0.00638606
-6.8577e-05
-6.95083e-05
-0.000257882
-2.80578e-06
4.78472e-07
-7.22234e-05
7.18372e-05
-7.27611e-05
7.34587e-05
-0.00475418
0.0100466
-0.00494902
0.00999799
-0.00534377
0.00983477
-0.00613633
0.00960188
-0.00768845
0.00954226
-0.0104468
0.0102741
-0.0151012
0.0127272
-0.0168297
0.015406
-0.0123979
0.0166319
-0.00887996
0.0174212
-0.00666735
0.0178821
-0.00515173
0.0180468
-0.00397653
0.0180027
-0.00303373
0.0178577
-0.00228073
0.0177031
-0.00168224
0.0175845
-0.00120068
0.0175173
-0.00080901
0.0175027
-0.000484052
0.0175346
-0.000207182
0.0176052
3.47224e-05
0.0177178
0.000253992
0.0178662
0.00045342
0.0180204
0.000634077
0.0180901
0.000776092
0.0178676
0.000838143
0.0170457
0.000786264
0.0153521
0.000614629
0.0127693
0.000359634
0.00958568
0.00327148
-3.77258e-06
-1.40805e-05
-0.000604041
0.000593745
-7.56768e-07
-7.85862e-07
-6.19984e-07
-7.65741e-07
-6.3704e-05
6.30056e-05
-6.43703e-05
-6.48267e-05
7.20904e-05
6.16618e-05
0.00625229
-7.23157e-05
-0.0048247
0.0100495
-0.00488102
0.00997854
-0.00509505
0.00974925
-0.00562965
0.00932805
-0.00683836
0.00875175
-0.00960923
0.00454085
0.00416377
-0.00703854
0.00552645
0.00487538
-0.00819034
-0.00934
0.00675819
-0.00714388
0.00562314
-0.00613559
0.013431
-0.00428741
-0.0073354
0.0150874
-0.00583074
0.0165847
-0.00482323
0.0175537
-0.00395688
0.0180271
-0.00315926
0.0181282
-0.00245945
0.0180364
-0.00186678
0.0178876
-0.00137474
0.0177585
-0.000969061
0.0176773
-0.000631839
0.0176505
-0.000345584
0.017673
-9.55875e-05
0.0177355
0.000126949
0.0178448
0.000330422
0.0179892
0.000520024
0.0181344
0.000688622
0.0181775
0.000809088
0.0178967
0.00084431
0.0169876
0.000758704
0.015208
0.000557227
0.0125717
0.000278722
0.00937912
0.0032662
6.00966e-05
6.99411e-06
-0.000581112
0.000578704
-5.45874e-07
-7.90411e-07
-5.9878e-07
-8.3163e-07
-6.08336e-05
6.0075e-05
-6.16186e-05
-6.22399e-05
1.10951e-05
0.000168895
0.0060727
-0.00489575
0.010056
-0.00481048
0.00997895
-0.00483283
0.00971628
-0.00506979
0.00918936
-0.00577307
0.00826272
-0.00779162
0.00362026
0.00331385
-0.00664804
0.00415033
-0.00606513
0.00358085
-0.00929474
0.00548118
-0.00445578
-0.00357896
0.00157208
0.00204331
-0.00773227
0.00197689
0.00171538
-0.00523035
0.00585293
-0.00328066
0.00188515
0.00160551
-0.0018727
-0.00208565
-0.00140501
0.00186442
0.00201902
-0.00207208
0.00961639
-0.00144878
-0.00152156
0.00410101
-0.00101396
-0.00362225
0.0128787
-0.0035723
0.0153336
-0.00337626
0.016973
-0.00296809
0.0178359
-0.00247711
0.0181458
-0.00197823
0.0181478
-0.00151904
0.0180319
-0.00111689
0.0179063
-0.000772377
0.0178179
-0.000477568
0.0177824
-0.000223073
0.0178005
2.12627e-06
0.0178603
0.000208581
0.0179666
0.000400098
0.018109
0.000578506
0.0182445
0.000730444
0.0182561
0.000828897
0.0179121
0.000836472
0.0169098
0.000723376
0.0150419
0.000502301
0.0123482
0.000243161
0.00914714
0.00320533
0.000108072
0.000121725
-0.000585656
0.000629626
1.32479e-05
2.96302e-06
6.87351e-07
-6.18722e-07
-5.78586e-05
5.73155e-05
-5.86458e-05
-5.92433e-05
8.66868e-05
3.38622e-05
0.0059521
-0.00497024
0.0100675
-0.00475148
0.00999697
-0.00458885
0.00973495
-0.00452886
0.0091753
-0.00470192
0.00811818
-0.005591
0.0030669
0.00299514
-0.00527334
0.00282845
-0.00419285
0.00223336
-0.00695531
0.00134153
0.00146235
0.00171831
-0.0041972
-0.00339861
0.00153797
0.00311005
-0.00153797
0.0018727
-0.00371868
0.00123685
-0.00160551
0.00140501
0.00110835
0.000756048
0.00160581
0.00273659
-0.00039993
-0.000307729
-0.00043981
0.00670495
-0.000271071
0.00163427
-0.000182091
-0.000164411
-0.000439338
0.00103118
-0.0015303
0.0108368
-0.00214687
0.0141043
-0.00230395
0.0163089
-0.00219508
0.0175539
-0.00192514
0.0180927
-0.00158097
0.0182097
-0.00122679
0.0181417
-0.000897891
0.0180318
-0.000603584
0.0179439
-0.000345823
0.0179051
-0.000115926
0.0179185
9.13075e-05
0.0179775
0.000281829
0.0180849
0.000461942
0.0182255
0.000626301
0.0183486
0.000763802
0.0183211
0.000841396
0.0179072
0.000822361
0.0168108
0.000691488
0.0148527
0.000480262
0.0121111
0.00028227
0.00895162
0.00320059
-4.55976e-06
4.32746e-05
-0.000671633
0.00071368
2.00781e-05
4.59955e-05
4.62389e-05
3.35486e-05
-6.03549e-05
7.36169e-05
-5.73865e-05
-5.66967e-05
0.000185017
-7.7599e-05
0.00584513
-0.00505039
0.0100791
-0.00470902
0.010025
-0.0043824
0.00979048
-0.00406302
0.00926908
-0.00375123
0.00822457
-0.0036056
0.00300427
0.00312848
-0.00323727
0.00104349
0.00106781
-0.00215612
0.00191399
-0.00562213
0.000936535
0.000558733
-0.00210763
-0.00193816
0.000308795
0.00034822
0.00325578
-0.00307654
0.0011623
0.000999451
-0.00216175
0.000316712
0.000756032
-0.000124769
0.000525735
-7.74287e-05
0.00125352
-3.50339e-05
-2.4037e-05
6.07432e-05
0.00506573
4.81373e-05
0.00102089
-2.75466e-05
-1.0918e-05
0.000383656
-4.00299e-05
0.000259074
-3.98367e-05
-0.000724039
0.0094138
-0.00125649
0.0130567
-0.00155353
0.0156672
-0.00161161
0.0172403
-0.00148634
0.017998
-0.00125656
0.0182395
-0.000985746
0.0182296
-0.000713364
0.0181415
-0.000461024
0.018059
-0.000230827
0.0180199
-2.35885e-05
0.0180334
0.000167708
0.0180916
0.000347409
0.0181994
0.000515004
0.0183368
0.000667755
0.0184447
0.000787547
0.0183749
0.000845029
0.0178845
0.00081004
0.0166922
0.000680135
0.0146529
0.000500691
0.0118927
0.000353198
0.00878352
0.00315491
-2.18107e-05
-1.00984e-05
-0.000747239
0.000746694
-3.31416e-06
-6.64249e-07
4.46107e-07
9.32331e-06
-0.000156377
0.000170745
5.72295e-06
-0.000125567
1.52013e-05
-0.000107165
2.7875e-05
0.000247949
-0.000122099
0.00571923
-0.00513646
0.0100901
-0.00468892
0.010059
-0.00422345
0.00986604
-0.00370072
0.00942814
-0.00303164
0.00854946
-0.00196087
0.00657978
-0.00118198
0.00203011
-0.000335988
0.00228248
0.00176953
-0.00137932
0.00065327
0.000729718
-0.0010897
0.00111604
0.000256531
0.000251783
-0.00214
-0.00158127
-0.00149701
0.000288558
0.00123305
-0.000924257
0.0011623
0.000191945
0.000114514
0.000220029
4.02057e-06
0.000199737
-3.74892e-06
0.000973469
4.79533e-05
6.02098e-05
-1.34968e-06
0.00438283
-3.97736e-05
0.000955237
4.5242e-05
2.10868e-05
0.000179108
-6.94229e-06
0.000170638
-2.45574e-06
7.44817e-05
3.46465e-05
-0.000314284
0.00847171
-0.000721072
0.0122243
-0.00104057
0.0150962
-0.00117362
0.0169276
-0.00114072
0.0178821
-0.000993072
0.0182467
-0.000784111
0.0183003
-0.000557592
0.018238
-0.000337874
0.0181661
-0.000132648
0.018129
5.84796e-05
0.0181426
0.000235186
0.0182037
0.000403284
0.0183111
0.000561128
0.0184434
0.000701864
0.0185303
0.000807255
0.0184127
0.00085047
0.0178441
0.000809711
0.0165627
0.000692477
0.0144611
0.000547829
0.0116981
0.000412589
0.00861893
0.00307072
-2.0664e-05
-1.70852e-05
-0.000741319
0.00072577
-3.36248e-06
-2.86703e-06
-2.85759e-06
-1.81502e-06
-0.000178987
0.000176533
-8.50279e-07
-0.000179034
-6.02264e-07
-0.000178495
-6.26869e-08
1.58928e-06
-4.30796e-05
4.8808e-05
-2.7875e-05
0.000277814
-0.000135943
0.00557787
-0.00523006
0.0101016
-0.00469221
0.0100933
-0.00411525
0.00995074
-0.00344375
0.00960904
-0.00255633
0.00895279
-0.00110394
0.00769249
-0.000863404
0.00223767
0.00213866
0.0027308
0.000105266
0.000357184
0.000477953
0.000810453
0.000713889
0.000272303
0.000111616
0.000144912
0.000363397
-0.0006357
3.86677e-05
3.49155e-05
0.00018714
3.14566e-05
0.000208708
3.86435e-05
0.000940653
1.52791e-05
-2.03382e-06
-1.29615e-05
0.00404781
3.36944e-05
0.000932369
-3.14951e-05
0.000227225
2.66968e-05
0.000235724
1.25788e-05
2.79701e-05
2.55156e-05
-9.33473e-05
0.00784376
-0.000408105
0.0115916
-0.000683184
0.0146056
-0.000849611
0.0166364
-0.000870724
0.0177598
-0.000777385
0.01824
-0.000617458
0.0183601
-0.000428304
0.0183284
-0.00023489
0.0182683
-4.76332e-05
0.018235
0.000127662
0.0182501
0.00029476
0.0183122
0.000451589
0.0184206
0.000599514
0.0185457
0.000728954
0.0186086
0.00082433
0.0184388
0.000861254
0.0177925
0.000823002
0.0164321
0.00072349
0.0142855
0.000594131
0.0115166
0.00044854
0.00844828
0.00297258
-1.94162e-05
-1.83102e-05
-0.000713202
0.000698007
-2.77022e-06
-2.63533e-06
-2.33604e-06
-2.1428e-06
-0.000170922
0.000168414
-8.53237e-07
-0.000172932
-8.45433e-07
-0.00017511
-6.52543e-07
-3.77953e-07
-4.97439e-05
4.88993e-05
-5.03396e-05
-5.03973e-05
0.00028808
-0.000139324
0.00542903
-0.00533013
0.0101101
-0.00471703
0.0101264
-0.0040531
0.0100312
-0.00327745
0.00978441
-0.00227451
0.0093272
-0.000748904
0.00859771
0.00224995
0.00768019
0.00283124
-0.00106363
-0.000992086
0.000832113
0.000531023
0.00287197
0.00269005
0.000502093
0.000656708
0.000323336
-0.000881575
0.000628391
0.000489022
5.69742e-05
8.06228e-05
1.49915e-05
0.000238451
1.25555e-05
0.000218975
1.74511e-05
0.000912087
7.35835e-06
5.99402e-05
0.00385085
4.36144e-05
0.000903032
4.27609e-05
-0.000137518
0.000327388
-1.34438e-06
-1.04077e-06
0.000100588
6.71236e-06
0.000110677
2.48022e-06
-1.27977e-05
0.00744857
-0.000199767
0.0111083
-0.000441157
0.0141972
-0.000606696
0.0163724
-0.000656109
0.0176385
-0.000601333
0.0182238
-0.000476528
0.0184083
-0.00031568
0.0184092
-0.00014375
0.0183644
2.61075e-05
0.0183365
0.000189436
0.0183554
0.000346067
0.0184177
0.000494393
0.0185257
0.000634668
0.0186399
0.000757088
0.0186759
0.00084394
0.0184561
0.000877765
0.0177378
0.000847095
0.0163085
0.000758669
0.014121
0.000627262
0.0113379
0.000463853
0.00827255
0.00287066
-1.84665e-05
-1.87954e-05
-0.000684077
0.000669889
-2.54222e-06
-2.58244e-06
-2.13941e-06
-2.16372e-06
-0.000162871
0.00016083
-7.07108e-07
-0.000164766
-7.26542e-07
-0.000166584
-4.94794e-07
-3.03965e-07
-4.70337e-05
4.61835e-05
-4.78734e-05
-4.85214e-05
0.000287652
-0.000137547
0.0052794
-0.00543434
0.0101162
-0.00476442
0.0101574
-0.00403357
0.0101068
-0.0031882
0.00994191
-0.00213298
0.00964284
-0.000655
0.00923326
0.0018117
0.00903591
-0.00215583
0.00474185
0.00365645
0.00430967
-0.000812357
0.00044866
-0.000979681
0.000909251
0.000902534
-0.00044866
-0.000627392
0.00122254
0.000848313
0.000323335
1.49899e-05
0.000119526
3.71586e-06
-5.33341e-07
0.000333263
-2.33841e-07
1.74736e-06
0.000894699
6.82236e-05
2.70572e-05
0.00378312
2.7835e-05
0.000904329
3.39609e-05
0.000355186
1.60729e-05
4.76923e-06
-2.63266e-05
2.49837e-05
-2.73657e-05
2.17003e-05
2.41817e-05
7.66802e-05
0.00717186
-7.63309e-05
0.0107433
-0.00027387
0.0138643
-0.000423369
0.0161396
-0.000487702
0.0175248
-0.000457751
0.018205
-0.000357516
0.0184502
-0.000220596
0.018486
-6.62328e-05
0.0184567
8.90198e-05
0.0184369
0.00024231
0.0184592
0.000390078
0.018522
0.000532353
0.0186281
0.000665581
0.0187314
0.000781551
0.0187383
0.000865708
0.0184681
0.000901025
0.0176839
0.000873346
0.0161939
0.000785679
0.0139626
0.000643614
0.0111582
0.000464609
0.00809566
0.00276921
-1.74936e-05
-1.86324e-05
-0.000655431
0.000641937
-2.39404e-06
-2.52604e-06
-2.06177e-06
-2.20714e-06
-0.000155487
0.000153649
-6.64629e-07
-0.000157338
-6.9758e-07
-0.000158979
-4.52811e-07
-2.9093e-07
-4.46667e-05
4.39686e-05
-4.53879e-05
-4.58796e-05
0.00028005
-0.000133523
0.00513272
-0.00554576
0.0101234
-0.00483309
0.0101848
-0.00404881
0.0101727
-0.00315729
0.0100759
-0.00208942
0.00989833
-0.000701146
0.00968895
0.00131436
0.00973057
0.00372461
0.0100531
0.00162903
-0.000603996
0.00312385
-0.000492462
0.00174549
0.00419318
0.000275142
-0.000463145
0.00108168
-0.000275142
0.000660304
2.78991e-05
2.47521e-05
2.65015e-05
0.000379903
2.3686e-05
1.9796e-05
0.000913773
1.76276e-05
5.176e-05
0.00373261
7.53847e-05
0.000928017
1.35885e-05
0.000404335
1.18514e-06
8.32688e-06
-3.12707e-05
4.73444e-05
0.000112366
0.00698331
-2.19304e-06
0.0104717
-0.000148256
0.0135892
-0.000283616
0.0159355
-0.000351157
0.0174182
-0.000338692
0.0181861
-0.000260004
0.0184895
-0.000139546
0.0185593
4.80186e-07
0.0185453
0.00014485
0.0185344
0.000290125
0.0185592
0.00043029
0.018624
0.000567285
0.0187264
0.000693772
0.0188191
0.000807973
0.018796
0.000890832
0.0184783
0.000924244
0.017633
0.00089667
0.0160829
0.000800245
0.013806
0.000644987
0.0109779
0.000454315
0.00792144
0.00267059
-1.66028e-05
-1.81717e-05
-0.00062748
0.000614673
-2.24804e-06
-2.42395e-06
-1.96335e-06
-2.16743e-06
-0.000148366
0.000146622
-6.36683e-07
-0.000150186
-6.81954e-07
-0.000151761
-4.45203e-07
-2.96769e-07
-4.25448e-05
4.18937e-05
-4.32325e-05
-4.36777e-05
0.00026708
-0.000127262
0.00499345
-0.00566684
0.010132
-0.00492366
0.010214
-0.00409744
0.0102334
-0.00317366
0.010189
-0.00211322
0.0100996
-0.000821931
0.0100191
0.000854333
0.0101489
0.00276119
0.010694
-0.00128517
0.00312776
0.00995589
0.000932028
0.00260743
-0.000163448
-0.000252218
-0.000307303
0.000896514
0.00384003
0.000352999
5.94208e-05
1.16051e-05
7.35253e-05
5.68402e-06
0.000419907
1.70533e-06
3.54033e-07
0.000937222
4.2502e-05
7.5047e-05
0.00371592
5.39505e-05
0.000947737
6.48567e-05
0.000433592
9.76831e-07
-1.08185e-06
-8.03316e-05
8.16784e-05
-1.71685e-07
1.51406e-06
0.000108189