/*--------------------------------*- C++ -*----------------------------------*\
| =========                 |                                                 |
| \\      /  F ield         | OpenFOAM: The Open Source CFD Toolbox           |
|  \\    /   O peration     | Version:  v1912                                 |
|   \\  /    A nd           | Website:  www.openfoam.com                      |
|    \\/     M anipulation  |                                                 |
\*---------------------------------------------------------------------------*/
FoamFile
{
    version     2.0;
    format      ascii;
    class       volVectorField;
    location    "10";
    object      U;
}
// * * * * * * * * * * * * * * * * * * * * * * * * * * * * * * * * * * * * * //

dimensions      [0 1 -1 0 0 0 0];


internalField   nonuniform List<vector> 
3675
(
(1.0008 0.00561889 7.42279e-25)
(1.00088 0.00841603 0)
(0.991615 0.0127755 1.99906e-22)
(1.001 0.0106722 -3.77479e-22)
(0.992257 0.0228939 0)
(0.967851 0.0159006 -6.25553e-21)
(1.00116 0.0125749 2.42363e-20)
(0.993594 0.031986 -2.4595e-20)
(0.969907 0.0331952 6.38619e-21)
(0.939592 0.0210327 -4.10044e-22)
(1.00134 0.0139611 -4.76806e-20)
(0.995414 0.0399575 4.93168e-20)
(0.974108 0.048647 0)
(0.945022 0.0484997 1.26666e-20)
(0.899122 0.0329901 -8.47154e-22)
(1.00151 0.0148496 2.34495e-20)
(0.997553 0.0463889 2.08918e-22)
(0.979783 0.0616803 -7.6709e-22)
(0.955246 0.0721591 -1.23894e-20)
(0.913208 0.0790671 0)
(0.833103 0.0588146 8.70367e-22)
(1.0017 0.0151595 0)
(0.999787 0.0512231 2.42405e-20)
(0.986251 0.0717328 0)
(0.968382 0.0905799 7.49494e-22)
(0.93808 0.116164 1.47246e-21)
(0.86932 0.143838 -1.29284e-20)
(0.668228 0.0604989 -7.25392e-22)
(0.687675 0.139132 -1.2682e-21)
(1.00192 0.0149942 0)
(1.00201 0.0543304 -4.89548e-20)
(0.992848 0.078805 4.77305e-20)
(0.982406 0.103237 2.31058e-20)
(0.967806 0.141352 -1.37707e-21)
(0.920929 0.204747 2.08431e-20)
(0.72455 0.217039 2.33421e-21)
(0.780818 0.271324 1.17914e-21)
(0.443911 0.0823815 2.30284e-21)
(0.48438 0.20126 -1.36393e-21)
(1.00215 0.0143407 0)
(1.00411 0.0558692 -3.77186e-22)
(0.999208 0.0830087 -4.7023e-20)
(0.995869 0.110759 -2.22879e-20)
(0.99609 0.154914 0)
(0.977621 0.23365 -7.7702e-21)
(0.843893 0.390077 -9.52236e-21)
(0.556786 0.302565 -4.50723e-21)
(0.653342 0.380918 3.47839e-21)
(0.199454 0.0561694 -5.09025e-22)
(0.213556 0.13182 1.03416e-21)
(0.28652 0.273169 5.57626e-21)
(0.240696 0.204052 -9.26951e-22)
(1.00241 0.0132796 0)
(1.00606 0.0559341 0)
(1.00508 0.0847473 5.81459e-24)
(1.00811 0.114047 -7.10469e-22)
(1.02021 0.159739 -1.29235e-21)
(1.02697 0.23826 0)
(0.998151 0.402808 2.20188e-20)
(0.676636 0.568747 4.86228e-22)
(0.835514 0.611354 -5.84645e-22)
(0.345713 0.344042 1.04998e-22)
(0.424574 0.41436 0)
(0.49704 0.496199 -2.80883e-21)
(0.0416735 0.0405943 -4.18047e-21)
(0.0536813 0.100045 -1.95119e-21)
(0.116616 0.206666 -2.18655e-20)
(0.0796722 0.155549 -7.1019e-21)
(1.00271 0.011804 0)
(1.00789 0.0547836 0)
(1.01034 0.0842494 0)
(1.01887 0.114064 3.52867e-22)
(1.03993 0.158661 0)
(1.06466 0.231311 5.83486e-22)
(1.08382 0.370907 -1.61291e-20)
(1.04578 0.587409 -1.03675e-20)
(0.618163 0.544664 -7.44467e-23)
(0.483423 0.475737 -4.719e-22)
(0.768559 0.536856 2.96056e-21)
(0.16997 0.305331 2.69486e-20)
(0.293346 0.395795 -1.85167e-21)
(0.327045 0.372645 9.40305e-21)
(0.223974 0.270609 -8.9691e-21)
(1.00307 0.0100017 -4.22166e-23)
(1.00959 0.0525143 0)
(1.01486 0.0818425 -4.63242e-20)
(1.02813 0.111372 0)
(1.05581 0.153761 -6.06391e-22)
(1.09276 0.219351 0)
(1.13143 0.329443 -4.51321e-22)
(1.20236 0.523039 5.07697e-22)
(0.906448 0.449638 1.26958e-21)
(1.11656 0.517294 2.94276e-22)
(0.440482 0.334995 1.54698e-20)
(0.272512 0.238625 -1.44629e-20)
(0.68885 0.411499 -2.72474e-21)
(0.441587 0.277845 0)
(0.0565891 0.125273 9.85595e-21)
(0.152639 0.232364 -2.47014e-20)
(0.126757 0.154301 0)
(1.00347 0.00789674 0)
(1.01114 0.0493839 -4.39132e-23)
(1.01861 0.077761 4.6097e-20)
(1.03594 0.106416 -3.52353e-22)
(1.06856 0.146256 0)
(1.11329 0.204877 5.69198e-22)
(1.16189 0.293395 0)
(1.25364 0.438019 1.26831e-20)
(1.28001 0.452218 8.32666e-21)
(0.66772 0.212956 -3.26164e-22)
(0.540635 0.265075 4.15228e-21)
(0.997307 0.311425 2.082e-21)
(0.180691 0.126895 -2.15921e-20)
(0.251621 0.147237 -3.77739e-21)
(1.00393 0.00554869 0)
(1.01249 0.0455456 -8.76375e-23)
(1.02177 0.072476 8.88942e-23)
(1.04229 0.099502 1.67892e-22)
(1.07885 0.136988 -3.00806e-22)
(1.12825 0.189087 3.49589e-20)
(1.18314 0.26242 2.96064e-20)
(1.2664 0.368037 2.43964e-20)
(1.37925 0.42061 -9.50878e-21)
(1.17006 0.291231 0)
(0.432767 0.0753235 -8.2925e-22)
(0.186358 0.0416421 0)
(0.340133 0.0974315 -8.77283e-23)
(0.816104 0.188122 5.36346e-22)
(0.11288 0.0332404 3.49865e-22)
(1.00443 0.00298495 -8.49312e-20)
(1.01371 0.0412832 4.33956e-23)
(1.02433 0.0663798 1.72704e-22)
(1.04712 0.0911348 -1.65641e-22)
(1.0871 0.126349 -1.62338e-22)
(1.13922 0.172841 -6.9994e-20)
(1.19737 0.234575 -6.0335e-20)
(1.27072 0.31539 -2.56952e-20)
(1.38429 0.370173 0)
(1.40097 0.329212 0)
(1.02204 0.175152 -1.64685e-20)
(0.663823 0.120534 7.54117e-23)
(0.11561 0.0122072 -1.54164e-22)
(0.316391 0.0380543 1.90608e-23)
(0.0906021 0.00960694 4.49182e-22)
(1.00501 0.000259516 8.42144e-20)
(1.01475 0.0366957 -2.17854e-23)
(1.02636 0.0598749 -4.3222e-23)
(1.05064 0.0817494 -2.47018e-22)
(1.0935 0.11446 8.09825e-20)
(1.14767 0.156568 3.5345e-20)
(1.20671 0.209256 3.09582e-20)
(1.27348 0.273631 -1.79862e-23)
(1.36658 0.324288 0)
(1.44805 0.320023 1.90857e-20)
(1.34045 0.247246 1.88883e-20)
(0.936312 0.101224 -1.80316e-22)
(0.561689 0.0599204 1.0601e-20)
(0.580817 0.0820839 6.98258e-26)
(0.278701 0.0241912 -2.02756e-23)
(0.066964 0.00603174 -1.57203e-22)
(0.070616 0.00441308 0)
(1.00562 -0.00258267 0)
(1.01572 0.0319828 0)
(1.02788 0.0531087 -4.14728e-23)
(1.05333 0.0719321 0)
(1.09796 0.101343 -2.72619e-22)
(1.15435 0.140315 1.33626e-22)
(1.2131 0.186134 3.09291e-20)
(1.27516 0.239151 -2.16737e-22)
(1.35069 0.284409 2.24762e-20)
(1.4344 0.297987 -1.95758e-20)
(1.4501 0.268938 1.88734e-20)
(1.27332 0.182452 0)
(0.896656 0.0636728 1.12422e-20)
(0.556823 0.028144 1.77731e-22)
(0.554037 0.0446711 -1.65658e-22)
(0.298514 0.0183267 -1.97179e-20)
(0.0641138 0.0031131 1.67943e-22)
(0.0713009 0.00490537 -1.19761e-20)
(1.00631 -0.00550308 0)
(1.01651 0.0272627 -8.84037e-20)
(1.02905 0.0463196 0)
(1.05536 0.062001 4.12112e-23)
(1.10093 0.0876189 -1.88719e-22)
(1.15942 0.123648 -7.18679e-20)
(1.21836 0.164835 -3.16657e-20)
(1.2761 0.209992 0)
(1.33973 0.25027 -4.73585e-20)
(1.41071 0.271208 8.46483e-23)
(1.4639 0.266639 3.20832e-22)
(1.42735 0.22237 0)
(1.22493 0.134412 -2.92721e-20)
(0.877205 0.0466172 2.60425e-21)
(0.557988 0.0187384 2.51793e-21)
(0.554494 0.0286906 -1.02349e-23)
(0.324041 0.00858753 0)
(0.313925 0.0175418 2.40381e-21)
(0.137341 0.00232152 6.66793e-21)
(0.0967756 0.00733745 3.14786e-20)
(1.007 -0.00838645 0)
(1.01723 0.0227245 1.76154e-19)
(1.02986 0.0396046 0)
(1.05694 0.052168 0)
(1.10316 0.0738326 -1.52849e-19)
(1.16255 0.106366 7.10123e-20)
(1.22284 0.144649 6.34507e-20)
(1.27757 0.184649 5.53065e-20)
(1.33266 0.22124 2.44381e-20)
(1.3915 0.244883 4.13302e-23)
(1.44717 0.252277 -1.95551e-20)
(1.47126 0.235375 8.68123e-24)
(1.4012 0.180171 1.76496e-20)
(1.19093 0.101448 -3.81947e-23)
(0.861522 0.0389468 1.27535e-21)
(0.557416 0.0161717 -2.40017e-21)
(0.557455 0.0220239 -2.4548e-21)
(0.33584 0.00602628 -2.28901e-21)
(0.328643 0.0124542 4.37606e-22)
(0.155343 0.00138106 6.45333e-24)
(0.151463 0.00443135 -5.28951e-23)
(0.143307 0.00824801 -5.06682e-21)
(0.147435 0.00715323 -7.89426e-22)
(0.043956 -0.000791778 -3.12623e-21)
(0.0245256 0.0012579 -9.49661e-21)
(1.00774 -0.011279 0)
(1.01773 0.0184608 -8.75302e-20)
(1.03039 0.0331184 8.55529e-20)
(1.05812 0.0423822 8.08348e-20)
(1.10517 0.0602722 1.49864e-19)
(1.16461 0.0888545 0)
(1.22607 0.124587 -6.36708e-20)
(1.28 0.161829 -5.67812e-20)
(1.32873 0.196037 0)
(1.3783 0.221101 1.76619e-22)
(1.42746 0.2342 -2.05062e-20)
(1.46792 0.232169 -1.8931e-23)
(1.46864 0.203337 -6.10659e-25)
(1.37564 0.14538 1.75556e-20)
(1.16372 0.0802964 0)
(0.845171 0.0352829 1.05894e-20)
(0.551347 0.0162163 -2.34718e-21)
(0.554524 0.0185158 -1.19272e-21)
(0.339814 0.00614981 -1.37158e-22)
(0.338201 0.0102765 1.39108e-24)
(0.164052 0.000181687 9.92179e-23)
(0.161458 0.0032909 5.0533e-23)
(0.157086 0.00715271 -6.22937e-22)
(0.158744 0.00536602 -2.54279e-22)
(0.050527 -7.00869e-07 -3.31464e-23)
(0.048445 0.00170684 0)
(0.0450779 0.00250572 1.06419e-21)
(0.0466895 0.00198721 5.39338e-22)
(1.00843 -0.0140421 0)
(1.01804 0.0145469 -8.55094e-23)
(1.03051 0.0268844 -8.4588e-20)
(1.05902 0.0326528 6.38094e-22)
(1.10701 0.046692 -1.4706e-19)
(1.16665 0.0715342 6.70611e-20)
(1.22778 0.104283 5.76731e-23)
(1.28273 0.140096 -5.36928e-23)
(1.3282 0.17343 -1.0398e-22)
(1.37023 0.199764 4.6277e-20)
(1.41223 0.216466 4.21592e-20)
(1.45234 0.222025 -2.05697e-23)
(1.47932 0.20973 0)
(1.45934 0.173152 -1.66495e-20)
(1.35036 0.119001 -1.71843e-20)
(1.13931 0.06696 -9.38256e-21)
(0.828994 0.0331951 2.17694e-24)
(0.541935 0.0166697 0)
(0.546611 0.0167236 -1.18309e-21)
(0.336888 0.00696388 -4.04437e-22)
(0.338697 0.00925395 1.22111e-21)
(0.167249 0.00052755 9.53162e-23)
(0.166221 0.00293145 1.92175e-22)
(0.165037 0.00601202 -1.95916e-22)
(0.165475 0.00469941 2.90715e-22)
(0.0541194 -0.000307777 -6.39284e-23)
(0.0526098 0.00133331 -4.05794e-24)
(0.0513677 0.00261134 1.65064e-22)
(0.0515923 0.00148756 4.04769e-24)
(1.00912 -0.0166709 0)
(1.01798 0.0111497 0)
(1.03023 0.0209772 8.42142e-23)
(1.05949 0.0228526 -7.87654e-20)
(1.10883 0.0328943 7.22936e-20)
(1.16913 0.0541111 -1.30811e-19)
(1.22974 0.0840745 -3.06403e-23)
(1.2843 0.118448 -5.65877e-23)
(1.32974 0.152112 5.16948e-20)
(1.36707 0.180124 -4.7694e-20)
(1.40232 0.199989 2.16122e-20)
(1.43772 0.210283 3.79595e-23)
(1.4698 0.207379 -1.85294e-23)
(1.48262 0.186284 0)
(1.44452 0.147382 1.62053e-20)
(1.32524 0.0999185 1.71775e-20)
(1.11654 0.0584474 0)
(0.815705 0.0322203 1.38274e-21)
(0.532 0.0166746 2.2692e-21)
(0.536616 0.0155072 -2.2708e-21)
(0.330796 0.00758303 1.36704e-22)
(0.333954 0.0087976 9.53871e-22)
(0.166413 0.00119714 2.82745e-22)
(0.166397 0.00277008 1.89229e-22)
(0.167106 0.00519679 9.50185e-23)
(0.166851 0.00463783 0)
(0.0552045 -0.00020123 -3.09047e-23)
(0.0543932 0.00116498 0)
(0.0545645 0.00219753 0)
(0.0541222 0.00123355 -6.24252e-23)
(1.00967 -0.0188827 0)
(1.0176 0.00839922 -9.09835e-20)
(1.02932 0.0154907 0)
(1.05948 0.0129785 0)
(1.11038 0.0185553 -1.38836e-22)
(1.17201 0.0361194 6.38013e-20)
(1.2326 0.0635872 0)
(1.28628 0.0968329 0)
(1.33146 0.131102 -5.08681e-20)
(1.36765 0.161396 -4.80769e-23)
(1.39771 0.184385 -8.85992e-20)
(1.42737 0.19864 0)
(1.45718 0.201772 -1.89434e-20)
(1.48004 0.190627 0)
(1.47822 0.164363 0)
(1.42577 0.126876 -1.61686e-20)
(1.30038 0.0863468 0)
(1.09631 0.0529032 0)
(0.809445 0.0328614 2.25288e-20)
(0.524787 0.0168049 -2.50977e-21)
(0.527604 0.0148628 -2.49354e-21)
(0.324133 0.00783499 -6.38147e-25)
(0.327371 0.00838406 -1.39577e-22)
(0.163658 0.00169879 9.57338e-23)
(0.164113 0.00263936 -1.91588e-22)
(0.165653 0.0045743 -9.49568e-23)
(0.165113 0.00464768 1.89636e-22)
(0.0547184 -3.6707e-05 -3.05432e-23)
(0.0543502 0.001055 0)
(0.0552059 0.00190905 -9.23719e-23)
(0.0545011 0.00116985 0)
(1.01012 -0.0207327 -1.72328e-22)
(1.01663 0.00656434 2.75009e-19)
(1.02774 0.0105646 1.57522e-22)
(1.05868 0.00301148 0)
(1.11159 0.00351359 0)
(1.17515 0.0170551 1.22301e-22)
(1.23669 0.0421683 1.44565e-23)
(1.28973 0.0747425 5.14481e-20)
(1.33363 0.109928 0)
(1.36944 0.142708 0)
(1.39773 0.169132 4.48097e-20)
(1.42214 0.187191 0)
(1.44723 0.195189 1.92366e-20)
(1.47059 0.19089 8.02193e-24)
(1.48273 0.173627 0)
(1.46754 0.145528 0)
(1.40451 0.111184 0)
(1.27655 0.0767414 0)
(1.08021 0.0494558 -2.0088e-20)
(0.811833 0.0335945 5.78205e-21)
(0.527098 0.0177891 1.04291e-20)
(0.524404 0.0154252 5.09929e-21)
(0.319033 0.00863378 2.17376e-21)
(0.321202 0.00838315 1.44854e-22)
(0.160289 0.00206199 1.9734e-22)
(0.160907 0.00254711 -4.89863e-23)
(0.162654 0.00409714 -4.85587e-23)
(0.162037 0.00458896 9.74671e-23)
(0.0535936 8.2888e-05 -9.3919e-23)
(0.0534327 0.000947085 7.76065e-24)
(0.0544884 0.00165463 3.10168e-23)
(0.0537599 0.00112291 -7.74113e-24)
(1.01034 -0.0218747 3.4993e-22)
(1.01515 0.00574071 4.68456e-21)
(1.02519 0.00644276 -1.76217e-19)
(1.05689 -0.00691073 -3.17631e-22)
(1.11192 -0.0124061 1.29406e-22)
(1.17817 -0.0034505 0)
(1.24155 0.0191349 -5.61668e-23)
(1.29524 0.0513496 -4.9838e-20)
(1.33813 0.0881383 0)
(1.37221 0.123653 0)
(1.39973 0.153685 0)
(1.42186 0.175738 0)
(1.44193 0.188121 -3.89682e-20)
(1.46204 0.189269 -1.73221e-23)
(1.4774 0.178668 -1.70813e-23)
(1.47854 0.157912 0)
(1.45219 0.130188 0)
(1.38193 0.0993826 0)
(1.25504 0.069928 -8.90789e-24)
(1.06891 0.0471578 -1.9823e-23)
(0.813584 0.0329681 1.42703e-20)
(0.546023 0.0177609 1.02189e-20)
(0.535821 0.0179897 -1.00516e-20)
(0.32334 0.0110664 -9.71076e-21)
(0.318648 0.00974311 -5.97725e-21)
(0.157285 0.00273007 0)
(0.157709 0.00279308 1.02642e-22)
(0.159277 0.00388342 -1.00516e-22)
(0.158757 0.00468645 0)
(0.0522921 0.000197664 0)
(0.0522375 0.000886686 0)
(0.0532798 0.00146136 3.1451e-23)
(0.0526076 0.00108891 0)
(1.01038 -0.0223512 3.5755e-22)
(1.01295 0.00629028 -1.87148e-19)
(1.02165 0.00332863 1.75426e-19)
(1.05364 -0.0165376 0)
(1.111 -0.0291019 -7.06385e-20)
(1.18063 -0.025755 -1.2464e-22)
(1.24703 -0.00600833 0)
(1.30236 0.0259339 0)
(1.34515 0.0649836 0)
(1.37751 0.104002 -4.07309e-23)
(1.40294 0.137715 -3.98333e-23)
(1.42392 0.163764 -3.88963e-23)
(1.44148 0.180479 7.82014e-20)
(1.45735 0.186475 -1.75356e-23)
(1.47118 0.181383 3.38693e-23)
(1.4776 0.166428 -7.9697e-24)
(1.46864 0.144269 1.62442e-20)
(1.43354 0.118024 0)
(1.35955 0.0905079 0)
(1.23688 0.0649073 -1.14519e-25)
(1.06016 0.0446119 -1.77184e-22)
(0.813866 0.0322956 1.15439e-20)
(0.555786 0.0197741 5.38254e-21)
(0.552176 0.0182014 -2.46716e-22)
(0.361519 0.0117143 -9.34998e-21)
(0.338283 0.014417 0)
(0.164508 0.00309607 0)
(0.159053 0.00328387 1.73448e-21)
(0.156602 0.00432272 3.15965e-22)
(0.157332 0.00533982 1.58648e-21)
(0.0510257 0.000458427 -3.41544e-23)
(0.0510162 0.000955904 -7.14254e-23)
(0.0519663 0.00137006 6.57676e-23)
(0.0513789 0.00113251 4.15966e-24)
(1.01014 -0.0217895 0)
(1.0102 0.00828887 -3.79943e-22)
(1.01686 0.0016568 0)
(1.0486 -0.0254295 -6.4599e-22)
(1.10796 -0.0463242 6.89302e-20)
(1.1816 -0.0499097 6.03618e-20)
(1.2522 -0.0340193 4.7447e-23)
(1.31118 -0.00228726 0)
(1.35504 0.0400261 -4.21595e-20)
(1.38579 0.083399 0)
(1.40842 0.121243 2.19837e-24)
(1.42701 0.151041 3.93159e-23)
(1.44317 0.171964 -3.85465e-20)
(1.45675 0.182677 3.65586e-20)
(1.46764 0.182501 3.47842e-20)
(1.47416 0.172474 3.32436e-20)
(1.47181 0.155025 -3.24338e-20)
(1.45427 0.132915 1.63063e-20)
(1.41325 0.108491 -1.65674e-20)
(1.33883 0.0837162 0)
(1.2216 0.0606237 -1.66174e-22)
(1.05283 0.0428219 -3.10195e-20)
(0.815158 0.0312389 1.13849e-20)
(0.559313 0.0193334 -2.60061e-21)
(0.557028 0.0207256 1.0193e-23)
(0.377239 0.0129583 1.51397e-22)
(0.37188 0.0141016 9.41772e-21)
(0.226303 0.00350635 3.44448e-21)
(0.216578 0.00434761 0)
(0.174624 0.00459957 7.11512e-21)
(0.192896 0.00950526 -1.42517e-20)
(0.0557068 0.000159197 0)
(0.0516795 0.00104881 -1.16035e-21)
(0.0507798 0.00153925 -1.08152e-22)
(0.0506552 0.00145311 4.35765e-24)
(1.00971 -0.0202972 0)
(1.00676 0.0121397 0)
(1.01087 0.00172718 0)
(1.04127 -0.032928 0)
(1.10201 -0.0633767 0)
(1.17995 -0.0757889 -5.8587e-20)
(1.25615 -0.0653543 0)
(1.32093 -0.0345813 -4.39095e-20)
(1.36777 0.0124898 4.07545e-20)
(1.39754 0.061737 -1.96559e-23)
(1.41682 0.104366 3.59411e-23)
(1.43176 0.13808 3.69282e-20)
(1.44538 0.162635 3.52002e-23)
(1.45765 0.177675 -3.6258e-20)
(1.46698 0.182255 -3.48336e-20)
(1.47203 0.176839 -3.34238e-20)
(1.47111 0.163607 1.62478e-20)
(1.46095 0.145149 -1.62115e-20)
(1.43698 0.123718 8.93001e-23)
(1.39294 0.101032 -1.66754e-20)
(1.32026 0.0783811 -3.48948e-20)
(1.20841 0.0576948 3.7291e-20)
(1.04768 0.0420842 -7.32172e-23)
(0.817841 0.0280151 1.53647e-23)
(0.561185 0.0160002 1.60744e-22)
(0.559227 0.0193495 -1.60359e-22)
(0.380951 0.0107898 1.93992e-21)
(0.379204 0.0139037 -1.50123e-22)
(0.237136 0.00502056 0)
(0.236066 0.00676994 -8.75494e-22)
(0.231391 0.00777425 -1.74192e-21)
(0.234669 0.0083533 -8.72356e-22)
(0.133637 0.00174973 -4.66589e-21)
(0.124612 0.00277912 0)
(0.0615726 0.00116231 -5.42562e-21)
(0.0850197 0.00808468 9.73922e-21)
(1.00899 -0.0175753 1.98764e-19)
(1.00285 0.0177887 2.0624e-19)
(1.00348 0.00410034 0)
(1.03135 -0.0383212 1.68874e-19)
(1.09189 -0.0793103 -1.45013e-19)
(1.17369 -0.102709 0)
(1.25684 -0.100921 9.93675e-20)
(1.33159 -0.0728568 2.95566e-22)
(1.38414 -0.0189224 -3.71429e-20)
(1.41337 0.0386736 -2.44914e-23)
(1.42871 0.0873789 -3.36905e-23)
(1.43895 0.125248 -3.62025e-20)
(1.44857 0.153235 3.48885e-20)
(1.45848 0.171823 -1.01579e-22)
(1.46694 0.180819 -3.41607e-23)
(1.47143 0.179969 0)
(1.4704 0.170715 -3.22074e-20)
(1.46271 0.155574 0)
(1.44639 0.136921 1.622e-20)
(1.4184 0.11645 3.2821e-20)
(1.37368 0.095284 3.36539e-20)
(1.30365 0.074629 -1.75827e-20)
(1.19742 0.0562978 -9.32008e-21)
(1.0446 0.0403404 0)
(0.822248 0.0181474 1.38448e-21)
(0.566307 0.00927436 2.35093e-21)
(0.562288 0.0152769 -2.36889e-21)
(0.382001 0.00762436 1.4741e-22)
(0.380876 0.0111261 -1.41008e-22)
(0.236877 0.00325809 6.46912e-22)
(0.236977 0.00554484 2.71216e-22)
(0.237163 0.00817007 -5.45404e-22)
(0.23723 0.00736424 5.47106e-23)
(0.142394 0.00218319 6.17697e-24)
(0.141297 0.0035943 5.95471e-22)
(0.138319 0.00442296 1.57706e-21)
(0.140363 0.00426695 7.90819e-22)
(0.0447214 -3.83665e-05 1.12621e-21)
(0.0421215 -4.97204e-05 2.24641e-21)
(0.024031 0.00155728 -1.17482e-21)
(1.00812 -0.0138962 -4.02446e-19)
(0.998425 0.0255655 -2.06879e-19)
(0.994883 0.00916883 0)
(1.01838 -0.0404286 -1.69189e-19)
(1.07636 -0.0927897 -4.52098e-21)
(1.16097 -0.129916 0)
(1.25273 -0.141148 -9.6134e-20)
(1.34302 -0.119579 1.19571e-19)
(1.40544 -0.0562481 6.97105e-20)
(1.43474 0.0132944 0)
(1.44507 0.0701058 3.20274e-20)
(1.44928 0.112916 -3.24796e-20)
(1.45359 0.144383 -3.41789e-20)
(1.45961 0.166204 0)
(1.46622 0.178776 6.64135e-23)
(1.47058 0.182061 0)
(1.47001 0.17671 3.21777e-20)
(1.46332 0.164849 -1.56694e-23)
(1.45015 0.148857 -3.16827e-20)
(1.42965 0.130466 -2.17183e-22)
(1.39979 0.110873 -3.28656e-20)
(1.35572 0.0911155 0)
(1.28896 0.0724105 8.43384e-24)
(1.1884 0.0548912 0)
(1.04119 0.0350163 0)
(0.830067 0.00573754 1.1364e-20)
(0.58006 -0.0107286 0)
(0.570177 0.00191383 -2.46149e-21)
(0.387847 0.00233331 0)
(0.383351 0.00764519 2.91721e-22)
(0.236447 0.00132676 -2.65284e-22)
(0.236187 0.00366965 -5.87091e-22)
(0.236415 0.00647625 2.15612e-22)
(0.236291 0.00546376 2.13541e-22)
(0.141833 0.00107058 -1.95305e-22)
(0.141529 0.0025683 1.96457e-22)
(0.142354 0.00410547 3.88666e-22)
(0.141883 0.00327762 0)
(0.048471 0.000347968 -4.60778e-24)
(0.0480358 0.00112451 1.5188e-22)
(0.0469009 0.0014303 1.37321e-23)
(0.0477022 0.00111627 4.60333e-24)
(1.00703 -0.00907177 2.03393e-19)
(0.993894 0.0352386 2.17204e-19)
(0.985182 0.0177419 7.8767e-22)
(1.00208 -0.0379677 0)
(1.05376 -0.102156 3.03636e-19)
(1.13957 -0.156896 8.97896e-22)
(1.2424 -0.187967 -9.82094e-20)
(1.35734 -0.177639 -7.54896e-20)
(1.43494 -0.101395 -3.24744e-20)
(1.46409 -0.0156298 -2.74126e-23)
(1.46731 0.0520148 -5.98081e-20)
(1.46367 0.101127 3.18516e-20)
(1.46117 0.136591 -6.3878e-23)
(1.46194 0.161436 -6.438e-23)
(1.46518 0.177021 0)
(1.46851 0.183726 6.07537e-23)
(1.46868 0.182085 0)
(1.46332 0.173496 0)
(1.45189 0.160042 3.16257e-20)
(1.43483 0.143596 -1.60018e-20)
(1.41202 0.125509 1.62582e-20)
(1.38167 0.106776 1.62594e-20)
(1.33911 0.0883555 0)
(1.27587 0.0706559 -1.22545e-25)
(1.17929 0.0518601 0)
(1.03479 0.0280355 -9.85917e-21)
(0.511336 -0.0112802 0)
(0.828642 0.00496701 0)
(0.406932 -0.0158776 1.59192e-22)
(0.397246 -0.00389096 -1.42783e-22)
(0.242565 -0.00353255 0)
(0.240362 0.000179884 0)
(0.237046 0.00432731 -1.59062e-22)
(0.238132 0.00301567 -6.85008e-22)
(0.141395 0.000108101 2.88404e-22)
(0.140778 0.00157267 1.93319e-22)
(0.141509 0.00304641 1.94532e-22)
(0.140989 0.00221062 -1.93445e-22)
(0.0482812 -7.40459e-07 -4.53029e-23)
(0.0481247 0.000781905 9.08683e-24)
(0.0484633 0.00131209 0)
(0.0482739 0.000768897 0)
(1.00585 -0.00353433 0)
(0.989361 0.046891 4.99418e-21)
(0.975104 0.030077 4.07714e-22)
(0.982592 -0.0290989 1.42454e-21)
(1.02266 -0.104853 -1.56035e-19)
(1.10737 -0.18349 -1.32366e-19)
(1.22479 -0.245143 1.93341e-19)
(1.37491 -0.251101 -1.17341e-22)
(1.47431 -0.154746 -6.27373e-23)
(1.5033 -0.048307 4.80336e-20)
(1.49691 0.0325116 2.79646e-20)
(1.48292 0.0895943 -5.74086e-23)
(1.47203 0.129866 2.85194e-20)
(1.4662 0.15797 0)
(1.46474 0.176232 -5.83489e-23)
(1.46558 0.185874 -5.86635e-23)
(1.46573 0.18744 -6.08976e-23)
(1.46188 0.181933 0)
(1.45232 0.170935 -3.0385e-20)
(1.43738 0.15636 0)
(1.41795 0.139687 -3.12802e-20)
(1.39414 0.12191 -1.62096e-20)
(1.36423 0.10391 0)
(1.3236 0.086283 -1.64392e-20)
(1.26299 0.0683922 -8.36017e-24)
(1.1679 0.0482797 0)
(1.02354 0.0260679 0)
(0.535403 -0.00412351 0)
(0.221161 -0.00498591 -1.74311e-22)
(0.219687 -0.00216397 1.74888e-22)
(0.818242 0.0118567 1.11619e-23)
(0.210299 -0.00503282 0)
(0.246509 -0.00428122 0)
(0.251952 -0.00936697 0)
(0.146479 -0.00251762 0)
(0.143714 -0.000212778 4.78235e-23)
(0.141764 0.00196276 1.91709e-22)
(0.142233 0.000979603 1.43098e-22)
(0.0481685 -0.000251894 -7.16765e-23)
(0.0479021 0.000516578 0)
(0.0481915 0.000993876 3.62374e-23)
(0.0479937 0.000456238 0)
(1.00453 0.00276508 0)
(0.98526 0.0599126 -2.24554e-19)
(0.965465 0.0463138 -2.17609e-19)
(0.961759 -0.0125099 2.00339e-19)
(0.983439 -0.0960856 -1.36811e-21)
(1.05979 -0.204934 -1.17871e-20)
(1.19075 -0.315902 -1.98787e-19)
(1.38703 -0.34435 0)
(1.51415 -0.21296 1.19461e-22)
(1.54505 -0.0814866 -8.5161e-20)
(1.53059 0.0119032 4.30582e-23)
(1.50626 0.0779832 0)
(1.48605 0.124252 -5.39836e-20)
(1.47277 0.156063 2.72244e-20)
(1.46556 0.177003 0)
(1.46266 0.188993 2.86671e-20)
(1.46141 0.193274 5.89919e-23)
(1.45837 0.19055 0)
(1.45079 0.182042 8.89076e-22)
(1.43798 0.169285 -2.99846e-20)
(1.42082 0.153843 6.1827e-20)
(1.40024 0.136868 7.62339e-24)
(1.37632 0.119306 1.01376e-25)
(1.34734 0.101809 1.62633e-20)
(1.30836 0.084332 0)
(1.24905 0.0661095 1.67187e-20)
(1.15447 0.046814 8.64091e-24)
(1.01109 0.0286265 -1.9408e-20)
(0.532256 0.00346054 -4.29583e-22)
(0.224902 -0.00194982 1.74105e-22)
(0.224581 -0.00182342 8.73928e-23)
(0.0532387 -0.00285883 -3.47652e-23)
(0.0536008 -0.00199364 -4.95136e-24)
(0.0532002 -0.000906863 7.93369e-23)
(0.0531097 -0.000800759 -7.96922e-23)
(0.807966 0.0161403 1.12919e-20)
(0.053899 -0.00279815 0)
(0.0543032 -0.00169261 0)
(0.154205 -0.00711447 0)
(0.150944 -0.00297947 -9.58498e-23)
(0.0501965 -0.00103696 8.97023e-24)
(0.0490237 6.03059e-05 -8.95681e-24)
(0.0483041 0.000729843 0)
(0.0484704 0.000137201 0)
(1.00316 0.00943798 -4.25899e-22)
(0.98163 0.0740443 0)
(0.957419 0.0655129 2.21203e-19)
(0.942444 0.0121442 -2.04998e-19)
(0.94019 -0.0714959 -1.87722e-19)
(0.993815 -0.2071 1.45247e-19)
(1.11415 -0.390051 1.03281e-19)
(1.35555 -0.451844 5.72599e-24)
(1.51424 -0.269164 -3.49354e-20)
(1.55772 -0.106461 8.9985e-21)
(1.54839 -0.00637683 7.14375e-23)
(1.52487 0.0665592 -4.47073e-23)
(1.50011 0.119745 2.55491e-20)
(1.48065 0.155943 -2.28396e-21)
(1.46774 0.179506 0)
(1.4604 0.193589 -1.67238e-21)
(1.4565 0.200077 0)
(1.45294 0.199818 0)
(1.4467 0.193564 5.81279e-20)
(1.43611 0.182551 2.99281e-20)
(1.42122 0.168258 -6.02335e-20)
(1.40295 0.152055 1.48911e-23)
(1.38209 0.134901 -7.66098e-24)
(1.35859 0.117471 1.5415e-23)
(1.33062 0.100104 0)
(1.29268 0.0826272 -2.2874e-22)
(1.23424 0.0647903 0)
(1.14106 0.0467383 1.77128e-20)
(0.999677 0.0291115 1.91073e-20)
(0.525346 0.00930649 -1.43158e-20)
(0.221757 0.00131383 8.73222e-23)
(0.223046 0.00116284 6.09619e-22)
(0.0539909 -0.00208939 -3.93027e-23)
(0.054517 -0.00119359 -7.92731e-23)
(0.0544141 -0.000415759 -7.94143e-23)
(0.0538608 -0.000395009 3.97643e-23)
(0.800681 0.0175415 2.2134e-20)
(0.0518994 -0.00219529 -4.51485e-24)
(0.0519122 -0.000772272 7.64636e-23)
(1.00166 0.0165334 2.22324e-19)
(0.978688 0.088451 1.38814e-21)
(0.951608 0.0866035 1.78418e-21)
(0.927704 0.0430363 -2.21859e-19)
(0.901322 -0.0299087 4.09588e-19)
(0.910405 -0.17173 -4.02821e-21)
(0.945112 -0.434915 3.00293e-20)
(1.18858 -0.538198 1.95429e-20)
(1.37232 -0.30063 3.04307e-20)
(1.4669 -0.112318 5.14435e-20)
(1.49877 -0.0150979 0)
(1.50992 0.0565482 -1.45408e-22)
(1.50153 0.115908 0)
(1.48501 0.157599 -2.87017e-21)
(1.46972 0.184156 -9.43406e-23)
(1.45865 0.200258 -2.69476e-20)
(1.45159 0.208512 0)
(1.44632 0.210049 5.2904e-23)
(1.44026 0.205584 -5.58385e-20)
(1.43136 0.196158 -2.79817e-20)
(1.41875 0.183107 5.82001e-20)
(1.40279 0.167709 -2.92713e-20)
(1.38425 0.150906 -2.97004e-23)
(1.36364 0.133477 -3.0483e-20)
(1.34083 0.11604 -7.68995e-24)
(1.31368 0.0987781 -1.59512e-20)
(1.27657 0.0814953 0)
(1.21929 0.0638857 0)
(1.1278 0.0455282 -2.37532e-22)
(0.989117 0.0288787 0)
(0.523574 0.0123108 -2.97557e-20)
(0.217447 0.00360333 8.72232e-23)
(0.218069 0.00366755 1.34986e-21)
(0.0529238 -0.0010961 0)
(0.0533424 -0.000264703 -7.93355e-23)
(0.0537759 0.000414676 0)
(0.0534947 0.000369748 3.99802e-23)
(0.800686 0.0190506 2.17168e-20)
(1.00007 0.0237063 -4.48161e-19)
(0.976279 0.102696 -2.42318e-19)
(0.94842 0.107943 2.34534e-19)
(0.919122 0.077423 -7.94271e-21)
(0.874465 0.0244789 -4.5112e-19)
(0.828897 -0.0947303 1.65396e-21)
(0.809872 -0.339156 4.00316e-21)
(0.724869 -0.295848 0)
(0.936494 -0.619452 -3.53674e-20)
(0.727612 -0.569905 2.69263e-21)
(0.689396 -0.459263 -6.04328e-20)
(1.15091 -0.363351 8.36917e-23)
(0.76106 -0.426847 -4.45039e-23)
(0.807715 -0.25287 0)
(1.1307 -0.0826485 -3.05209e-20)
(0.911572 -0.154241 1.26737e-20)
(1.29796 -0.00649407 -2.31417e-20)
(1.40513 0.0514191 0)
(1.4587 0.112234 -3.17406e-20)
(1.47149 0.160217 -2.2037e-20)
(1.4658 0.191144 0)
(1.4555 0.209552 9.65741e-23)
(1.44629 0.218988 4.79935e-23)
(1.43897 0.221646 -4.99661e-23)
(1.43209 0.218419 2.7184e-20)
(1.42398 0.210328 2.79254e-20)
(1.41334 0.198387 -2.84757e-20)
(1.39966 0.183684 2.9273e-20)
(1.38335 0.167268 2.89419e-20)
(1.36499 0.149956 3.05141e-20)
(1.34495 0.132411 1.49385e-23)
(1.32289 0.115017 7.51626e-24)
(1.29647 0.097836 1.55445e-20)
(1.26014 0.0804584 0)
(1.20376 0.0622793 -1.65493e-20)
(1.11394 0.0439943 8.41257e-24)
(0.981216 0.0286472 0)
(0.539641 0.0135493 -2.52518e-20)
(0.221845 0.0050967 -1.74995e-22)
(0.216092 0.00542688 5.90228e-21)
(0.0516637 -0.000256341 0)
(0.0519679 0.000505137 -7.92653e-23)
(0.0523021 0.00114507 9.94376e-24)
(0.0521123 0.00109781 2.98656e-23)
(0.804266 0.0177976 2.1011e-23)
(0.998306 0.0309647 2.25365e-19)
(0.97441 0.116046 2.42018e-19)
(0.947567 0.128292 -2.38011e-19)
(0.917187 0.111738 4.80911e-19)
(0.86543 0.0845301 2.41858e-19)
(0.782366 0.0134133 2.4612e-19)
(0.661895 -0.220795 3.06301e-22)
(0.6087 -0.138516 8.78814e-20)
(0.559261 -0.402613 0)
(0.599369 -0.534952 0)
(0.406451 -0.384183 0)
(0.33306 -0.270412 -3.26771e-20)
(0.534721 -0.40425 2.50194e-20)
(0.495223 -0.487456 -2.05772e-20)
(0.564204 -0.258333 6.96609e-23)
(0.217456 -0.109418 6.6811e-21)
(0.190075 -0.118565 0)
(0.188173 -0.053786 1.19485e-21)
(0.317394 -0.0837841 0)
(0.647749 -0.163917 0)
(0.660005 -0.0321016 5.85293e-21)
(0.846027 0.0274554 2.36698e-20)
(0.461943 0.00149487 6.8757e-21)
(0.473823 -0.0560135 -4.1342e-22)
(1.14621 0.0569605 -2.4628e-20)
(1.32193 0.108588 3.47758e-20)
(1.41008 0.161084 -1.34914e-22)
(1.44148 0.199349 -3.50794e-20)
(1.44474 0.221525 -1.98717e-20)
(1.43839 0.232063 0)
(1.43028 0.235085 -1.84273e-24)
(1.4225 0.232484 2.41685e-20)
(1.4145 0.225167 5.12442e-23)
(1.40524 0.214013 0)
(1.39368 0.19995 2.69429e-20)
(1.37955 0.183955 -2.88859e-20)
(1.36329 0.166853 2.85813e-20)
(1.34538 0.149221 0)
(1.32608 0.131569 -1.02634e-25)
(1.30473 0.114211 -1.55315e-20)
(1.2789 0.0969074 0)
(1.24293 0.078969 0)
(1.1871 0.0604636 0)
(1.10033 0.0427912 -8.39885e-24)
(0.975308 0.0278194 1.85102e-20)
(0.556044 0.0126324 -6.33098e-21)
(0.275698 0.00162576 0)
(0.24302 0.00585889 5.60863e-21)
(0.056959 -0.00107033 0)
(0.053237 0.000463463 2.03189e-23)
(0.0521095 0.00157756 -3.39492e-22)
(0.0511941 0.00168601 0)
(0.806523 0.0178975 0)
(0.996435 0.0380642 0)
(0.972861 0.128171 2.40085e-22)
(0.948553 0.146341 -9.42926e-22)
(0.921046 0.143036 -4.91107e-19)
(0.873545 0.142541 0)
(0.778655 0.129897 -2.71148e-19)
(0.57579 -0.0332271 -9.65887e-20)
(0.559235 0.0729739 1.73721e-21)
(0.435652 -0.307342 -8.50252e-20)
(0.337082 -0.20059 8.69554e-20)
(0.252153 -0.351 2.01809e-20)
(0.393895 -0.441287 -1.51249e-21)
(0.295743 -0.298697 0)
(0.160982 -0.170473 3.08747e-20)
(0.190915 -0.017069 -1.77985e-21)
(0.347915 -0.00955083 0)
(0.269917 0.00184162 1.68222e-21)
(0.340934 0.0193007 -3.0564e-21)
(0.706105 0.0845622 3.10114e-20)
(0.31706 0.0297292 1.18172e-20)
(0.205703 0.0016235 1.28786e-24)
(0.171334 -0.00462547 0)
(1.05401 0.112077 -1.1474e-23)
(1.26095 0.158575 0)
(1.3698 0.205691 3.69334e-20)
(1.41249 0.234986 2.0303e-20)
(1.42165 0.24768 0)
(1.41801 0.250768 8.48736e-23)
(1.41085 0.247945 -1.94577e-21)
(1.40315 0.240797 9.53599e-23)
(1.39484 0.230077 0)
(1.38506 0.216573 -5.25916e-20)
(1.3731 0.200975 -2.65005e-20)
(1.35891 0.183967 -2.85238e-20)
(1.34292 0.166261 2.83287e-23)
(1.3256 0.148456 -1.42939e-23)
(1.30704 0.13086 -2.96457e-20)
(1.2863 0.11341 0)
(1.26065 0.0956252 0)
(1.22462 0.0772429 0)
(1.16988 0.0588781 0)
(1.08747 0.0416586 -1.72196e-20)
(0.969422 0.0274091 0)
(0.565309 0.0142388 7.76078e-22)
(0.292629 0.00727169 1.82857e-22)
(0.285693 0.00690389 1.10579e-20)
(0.13415 -0.00132246 -5.8849e-23)
(0.123126 0.000267404 1.03105e-22)
(0.0839151 0.00501548 -1.03661e-20)
(0.0636363 -0.000580542 5.87435e-21)
(0.80737 0.0199665 -2.10592e-20)
(0.994404 0.044997 2.21718e-22)
(0.971657 0.138557 2.45217e-19)
(0.950708 0.161472 -2.4458e-19)
(0.928677 0.169255 4.98207e-19)
(0.893296 0.191463 2.61977e-19)
(0.809993 0.231512 2.96114e-19)
(0.58322 0.185345 -3.58737e-21)
(0.628334 0.277302 1.14964e-19)
(0.356267 -0.0145706 0)
(0.372652 -0.0859716 -2.90376e-22)