/*--------------------------------*- C++ -*----------------------------------*\
| =========                 |                                                 |
| \\      /  F ield         | OpenFOAM: The Open Source CFD Toolbox           |
|  \\    /   O peration     | Version:  v1912                                 |
|   \\  /    A nd           | Website:  www.openfoam.com                      |
|    \\/     M anipulation  |                                                 |
\*---------------------------------------------------------------------------*/
FoamFile
{
    version     2.0;
    format      ascii;
    class       volScalarField;
    location    "440";
    object      p;
}
// * * * * * * * * * * * * * * * * * * * * * * * * * * * * * * * * * * * * * //

dimensions      [0 2 -2 0 0 0 0];


internalField   nonuniform List<scalar> 
3754
(
-0.00651736
-0.00649011
-0.00627544
-0.00644513
-0.00624916
-0.00603181
-0.00640551
-0.00620313
-0.00600676
-0.0058029
-0.00637806
-0.00616286
-0.00596432
-0.00577897
-0.00557819
-0.00636922
-0.0061326
-0.00592735
-0.00573591
-0.00555489
-0.00536057
-0.00638796
-0.00611958
-0.00589627
-0.00569591
-0.00551403
-0.00533718
-0.00515292
-0.00644408
-0.00613028
-0.00587787
-0.00566454
-0.00547879
-0.00529718
-0.00513016
-0.00494984
-0.00653948
-0.00617249
-0.0058808
-0.00564723
-0.00545082
-0.00526281
-0.00509024
-0.00492786
-0.00475312
-0.00667571
-0.00625162
-0.00591067
-0.00565037
-0.00543464
-0.00523507
-0.00505503
-0.0048894
-0.00473197
-0.00456407
-0.0068482
-0.00636939
-0.0059695
-0.00567757
-0.00543832
-0.00522191
-0.00502793
-0.00485685
-0.00469409
-0.00454203
-0.00438123
-0.0070386
-0.00652641
-0.00605244
-0.00573015
-0.00546791
-0.00522956
-0.00501568
-0.00483223
-0.00466007
-0.00450541
-0.00436053
-0.00419963
-0.00720261
-0.00673191
-0.00615783
-0.00580873
-0.00552791
-0.00526174
-0.0050247
-0.00481998
-0.00463554
-0.00447605
-0.00432392
-0.00417952
-0.00402564
-0.00728686
-0.00696494
-0.00730688
-0.00628321
-0.00591104
-0.00561771
-0.00532283
-0.00505962
-0.00482837
-0.00462605
-0.00445213
-0.00429064
-0.00414437
-0.0040063
-0.00385374
-0.00733481
-0.00725893
-0.00643794
-0.00689721
-0.00728742
-0.00603419
-0.00573234
-0.00541268
-0.00512264
-0.00486214
-0.00463586
-0.00444015
-0.00426741
-0.00411579
-0.0039715
-0.00383551
-0.00368778
-0.00739864
-0.0074856
-0.00664847
-0.00618531
-0.00650514
-0.00699479
-0.00728878
-0.00728191
-0.00586311
-0.00552852
-0.00521346
-0.00492471
-0.00467145
-0.00444967
-0.00425946
-0.00409433
-0.00394162
-0.00380255
-0.00366877
-0.00352902
-0.00742966
-0.00720325
-0.00783538
-0.00670958
-0.00641835
-0.00600585
-0.00627308
-0.00660823
-0.00694686
-0.00703897
-0.00722984
-0.00733357
-0.00566416
-0.00532695
-0.00501547
-0.00473534
-0.00448506
-0.00426984
-0.00408573
-0.00392003
-0.00377547
-0.00363655
-0.00351159
-0.00336789
-0.00747626
-0.00678464
-0.00837871
-0.00684527
-0.00676199
-0.00650053
-0.00619143
-0.00580464
-0.00606272
-0.00636813
-0.00665939
-0.00673543
-0.00691656
-0.00652775
-0.00734569
-0.00740231
-0.00545824
-0.00513058
-0.00482501
-0.00454712
-0.00430498
-0.00409619
-0.00391155
-0.00375556
-0.00361051
-0.00347879
-0.0033506
-0.00321557
-0.00687023
-0.00910978
-0.00687625
-0.006831
-0.00659852
-0.00652574
-0.00626422
-0.00597365
-0.00560046
-0.00585221
-0.00614464
-0.00639393
-0.00647153
-0.00671505
-0.00677127
-0.005261
-0.00493415
-0.0046357
-0.00436695
-0.00412975
-0.00392272
-0.00374853
-0.00359225
-0.00345221
-0.00332098
-0.00319837
-0.00306237
-0.00663017
-0.00656655
-0.00635463
-0.00628296
-0.00604148
-0.00576479
-0.0053999
-0.00565147
-0.00593203
-0.0061716
-0.00623693
-0.00643816
-0.006498
-0.00506033
-0.00474821
-0.00445414
-0.00418865
-0.00395807
-0.00376039
-0.00358704
-0.00343561
-0.00329772
-0.00316719
-0.00304641
-0.00291119
-0.00638701
-0.00631752
-0.00612102
-0.00606803
-0.00583049
-0.00555915
-0.00519832
-0.00545177
-0.00572919
-0.00596203
-0.00602197
-0.00620635
-0.00627246
-0.00487574
-0.00456068
-0.00427358
-0.00401922
-0.00379333
-0.00359908
-0.00343187
-0.00328143
-0.0031427
-0.00301771
-0.00289697
-0.00276902
-0.00615398
-0.00610185
-0.00591114
-0.00585739
-0.00562715
-0.00535816
-0.00500939
-0.00525266
-0.00552363
-0.0057591
-0.00581412
-0.00599472
-0.00605942
-0.00468206
-0.00438051
-0.00410289
-0.00385092
-0.00363373
-0.00344536
-0.00327925
-0.00312844
-0.00299546
-0.00286941
-0.00275276
-0.00262477
-0.0059478
-0.00589014
-0.0057044
-0.00565947
-0.00542965
-0.00516014
-0.00481391
-0.00506342
-0.00532412
-0.00555167
-0.00561016
-0.00579396
-0.00584857
-0.00450329
-0.00420663
-0.0039337
-0.00369062
-0.00348017
-0.00329568
-0.00312899
-0.00298219
-0.00284785
-0.00272374
-0.00261086
-0.00248393
-0.0057389
-0.00569518
-0.0055088
-0.00545446
-0.00522833
-0.00496609
-0.00463404
-0.00486965
-0.00513178
-0.00535751
-0.00540569
-0.00558736
-0.00564337
-0.00432516
-0.00403648
-0.00376894
-0.00353671
-0.00333157
-0.00314825
-0.00298437
-0.00283623
-0.0027025
-0.00258339
-0.00246956
-0.00234735
-0.0055422
-0.0054866
-0.00530576
-0.00525607
-0.0050364
-0.00477951
-0.00445138
-0.00468717
-0.00493987
-0.00515881
-0.00521325
-0.00539272
-0.00544084
-0.00415306
-0.0038685
-0.00361482
-0.00338903
-0.00318939
-0.00300652
-0.00283876
-0.00268965
-0.00256148
-0.00244256
-0.00233413
-0.00221261
-0.00533774
-0.00528927
-0.00511395
-0.00506446
-0.00484456
-0.00459498
-0.00427848
-0.00450683
-0.00475434
-0.00497369
-0.00501326
-0.0051922
-0.00524808
-0.00398402
-0.00371059
-0.00346556
-0.00324962
-0.00305016
-0.00286189
-0.0026932
-0.00254868
-0.00242114
-0.00230816
-0.00219975
-0.00208001
-0.0051446
-0.00510276
-0.00491832
-0.0048733
-0.00465979
-0.00441623
-0.00410742
-0.00433367
-0.00457405
-0.00478418
-0.00482984
-0.00500593
-0.00504191
-0.00382176
-0.00355829
-0.00332623
-0.00311421
-0.0029107
-0.00271763
-0.00254955
-0.00240839
-0.00228877
-0.0021744
-0.0020674
-0.0019494
-0.00495156
-0.00490784
-0.00473501
-0.00468759
-0.00447924
-0.00424452
-0.00394318
-0.00416177
-0.00439842
-0.00460431
-0.00464451
-0.00481485
-0.00486016
-0.00366496
-0.00341513
-0.00319485
-0.00298337
-0.0027665
-0.0025708
-0.00240873
-0.00227692
-0.00215627
-0.00204349
-0.00193786
-0.00182328
-0.00477168
-0.00471896
-0.00455407
-0.0045061
-0.00430981
-0.00407493
-0.00378277
-0.00399857
-0.00422373
-0.00442477
-0.00446878
-0.00463693
-0.00467066
-0.00351562
-0.00328546
-0.0030743
-0.00284276
-0.00261596
-0.00242625
-0.00227674
-0.00214605
-0.00202661
-0.00191469
-0.0018123
-0.00169662
-0.00459044
-0.0045357
-0.00438111
-0.00433699
-0.00413822
-0.00391295
-0.00362987
-0.00384003
-0.00405948
-0.00425107
-0.00429623
-0.00445647
-0.0044951
-0.00337992
-0.00316969
-0.00294405
-0.00268797
-0.0024638
-0.00229248
-0.0021492
-0.00201824
-0.00189842
-0.00179033
-0.00168563
-0.00157323
-0.00441674
-0.00436421
-0.00420549
-0.0041672
-0.00397472
-0.00375318
-0.00348334
-0.00369131
-0.00390014
-0.00408847
-0.00412493
-0.0042846
-0.00432602
-0.00325752
-0.0030659
-0.00278761
-0.00252225
-0.00232551
-0.00216764
-0.00202355
-0.00189338
-0.00177679
-0.00166434
-0.00156325
-0.00144696
-0.00423601
-0.00419555
-0.00404236
-0.00400039
-0.00381603
-0.00360152
-0.00334344
-0.00354824
-0.00374696
-0.00392721
-0.00396674
-0.00412101
-0.00415193
-0.00318014
-0.00291819
-0.00259802
-0.0023749
-0.00220401
-0.00204694
-0.00190251
-0.00177293
-0.00165332
-0.00154296
-0.00143899
-0.00132246
-0.00407267
-0.00402686
-0.00388096
-0.00384514
-0.00366677
-0.00345489
-0.00324813
-0.00341319
-0.0036003
-0.00377607
-0.00380592
-0.00395763
-0.00399604
-0.00308549
-0.0026895
-0.00243794
-0.00225746
-0.00208895
-0.00192947
-0.00178432
-0.0016536
-0.00153186
-0.00142094
-0.00131432
-0.00119881
-0.0039107
-0.00387242
-0.00372974
-0.00369464
-0.00352406
-0.00332254
-0.00326321
-0.00328987
-0.00346138
-0.00362878
-0.00365917
-0.00380797
-0.00383078
-0.00280325
-0.00250837
-0.00232604
-0.00214926
-0.00197502
-0.00181443
-0.00166867
-0.00153364
-0.00141298
-0.00129721
-0.00119251
-0.00107317
-0.00375833
-0.00371924
-0.00358605
-0.00355917
-0.00338507
-0.00328089
-0.00293204
-0.00339856
-0.00329434
-0.00349463
-0.003516
-0.00365763
-0.00368528
-0.0025857
-0.00240885
-0.00222641
-0.00203857
-0.00186296
-0.00170151
-0.00155275
-0.00141819
-0.00129249
-0.00117779
-0.001069
-0.000946484
-0.00361487
-0.00358428
-0.00345067
-0.00343092
-0.0032323
-0.00309727
-0.00269132
-0.002899
-0.00361706
-0.00335832
-0.00336976
-0.00351907
-0.00354539
-0.00249917
-0.00231693
-0.00211741
-0.00192946
-0.00175451
-0.00159138
-0.00144041
-0.00130258
-0.00117562
-0.00105567
-0.000942354
-0.000818579
-0.00348317
-0.00345538
-0.00325484
-0.00319586
-0.00314268
-0.00286485
-0.0026
-0.00278267
-0.00293885
-0.00397159
-0.00305258
-0.00339257
-0.00341962
-0.00241564
-0.00220781
-0.00201003
-0.00182443
-0.00164857
-0.00148339
-0.0013314
-0.00118745
-0.00105563
-0.0009305
-0.000817149
-0.000688475
-0.00333461
-0.00324001
-0.00287058
-0.00305265
-0.00292617
-0.00274143
-0.00251269
-0.00266191
-0.00285737
-0.00300745
-0.00304853
-0.00462944
-0.00309539
-0.00230655
-0.00210032
-0.00190743
-0.00172089
-0.0015449
-0.00137888
-0.00121943
-0.00107373
-0.000934852
-0.000808206
-0.000688113
-0.000552982
-0.00300582
-0.00296025
-0.00279276
-0.00262258
-0.00240481
-0.00255093
-0.00272178
-0.00287572
-0.00292784
-0.00219525
-0.00199833
-0.00180529
-0.00162157
-0.00144466
-0.00127359
-0.00111296
-0.000958417
-0.000816209
-0.000681476
-0.000555278
-0.000415358
-0.00284502
-0.00280684
-0.00266655
-0.0025078
-0.00229323
-0.00244298
-0.00260613
-0.00274054
-0.00277697
-0.0020928
-0.0018965
-0.0017083
-0.00152551
-0.00134638
-0.00117372
-0.00100406
-0.000843613
-0.00069315
-0.00055123
-0.000419978
-0.000272544
-0.002712
-0.00268309
-0.00255126
-0.00239563
-0.00218885
-0.00233454
-0.00249623
-0.00262944
-0.00266043
-0.00199111
-0.00179935
-0.00161365
-0.00143214
-0.00125255
-0.00107202
-0.0008964
-0.000727354
-0.000567767
-0.000418944
-0.000279711
-0.000125836
-0.00259908
-0.00256999
-0.00244032
-0.00228918
-0.00208485
-0.00223027
-0.00238597
-0.00251606
-0.00254574
-0.00189174
-0.00170504
-0.0015251
-0.00134275
-0.00115973
-0.000974012
-0.000788972
-0.000609329
-0.000440276
-0.000282045
-0.000135185
2.87103e-05
-0.00248797
-0.00246061
-0.00233496
-0.00218142
-0.00198453
-0.00212708
-0.00228065
-0.00240686
-0.00243711
-0.00179747
-0.00161849
-0.00143787
-0.00125813
-0.00107016
-0.000875134
-0.000680065
-0.000489506
-0.000309335
-0.000139979
1.57442e-05
0.000188564
-0.00237997
-0.00235473
-0.00222667
-0.00207984
-0.00188804
-0.00202721
-0.00217442
-0.00230723
-0.00232832
-0.0017087
-0.00153232
-0.00135971
-0.0011763
-0.000981128
-0.000777572
-0.000569906
-0.000366342
-0.000172587
6.45647e-06
0.000173609
0.000355273
-0.00227324
-0.0022472
-0.0021253
-0.00198032
-0.00179707
-0.00193073
-0.00207402
-0.00219479
-0.00222219
-0.00162274
-0.00145649
-0.00128348
-0.00109675
-0.000893961
-0.000679874
-0.00045794
-0.000240234
-3.24912e-05
0.000161005
0.000338
0.000529036
-0.00217121
-0.00214404
-0.00202408
-0.00188618
-0.00170811
-0.00183793
-0.00197772
-0.00209461
-0.0021199
-0.00154601
-0.0013854
-0.0012111
-0.00101819
-0.000808567
-0.000581531
-0.000345876
-0.000109187
0.000114807
0.000322367
0.000512301
0.000707139
-0.00206861
-0.0020433
-0.001928
-0.00179443
-0.00162807
-0.00174847
-0.00188305
-0.00199898
-0.00202414
-0.00147677
-0.00131897
-0.00113983
-0.000943288
-0.000725281
-0.000483984
-0.000228278
2.77064e-05
0.000270467
0.000492606
0.000697274
0.000903183
-0.00197141
-0.00194688
-0.00183637
-0.00170831
-0.00155776
-0.00166352
-0.00179259
-0.00190181
-0.00192736
-0.0014153
-0.0012523
-0.0010706
-0.000873281
-0.000643045
-0.000384264
-0.000105897
0.000170584
0.000432475
0.000678703
0.000899652
0.00108657
-0.00187814
-0.00185569
-0.00174778
-0.00162626
-0.00149512
-0.00158958
-0.00170475
-0.00181364
-0.00183358
-0.00135376
-0.00118283
-0.00101062
-0.000805532
-0.000561915
-0.000281891
1.9145e-05
0.000321544
0.000615421
0.000868763
0.00118458
0.000448223
-0.0017886
-0.00176826
-0.00166005
-0.00157827
-0.00143389
-0.00164637
-0.00160441
-0.00172935
-0.00174842
-0.00128065
-0.00112756
-0.000954278
-0.000741933
-0.000481026
-0.000176214
0.000152462
0.000491434
0.000784228
0.00120286
0.000540163
-0.00170517
-0.00168594
-0.00154093
-0.00149694
-0.00136426
-0.0014607
-0.00234066
-0.00184976
-0.00164222
-0.00166419
-0.00122389
-0.00107814
-0.000904573
-0.000679942
-0.000397749
-6.71468e-05
0.000301057
0.000638094
0.00111592
0.000570377
-0.00161952
-0.00160257
-0.000841782
-0.00164497
-0.00156641
-0.00143271
-0.00130334
-0.00139873
-0.00153074
-0.00149283
-0.00156621
-0.00117588
-0.0010376
-0.000858513
-0.000620011
-0.000314498
5.58808e-05
0.000426277
0.000943124
0.000512813
-0.00142328
-0.00162842
-0.00158896
-0.00147415
-0.00144723
-0.00136759
-0.00125313
-0.00134025
-0.00143562
-0.00141194
-0.00155395
-0.00152125
-0.00162918
-0.00113912
-0.00100207
-0.00081773
-0.000560199
-0.000220681
0.000157759
0.000688712
0.000396285
-0.00165312
-0.00161508
-0.00149269
-0.00146644
-0.00139875
-0.00138337
-0.0013128
-0.00121455
-0.00129147
-0.0013706
-0.00135563
-0.00145119
-0.00143045
-0.00157565
-0.00154455
-0.00110801
-0.000975643
-0.000778281
-0.00049588
-0.000142486
0.000366324
0.000239498
-0.00150784
-0.00148363
-0.00141366
-0.00140187
-0.00134376
-0.00132943
-0.00126785
-0.00118422
-0.00125103
-0.00131966
-0.00130845
-0.00138562
-0.00137188
-0.00146473
-0.00144674
-0.00108915
-0.000951563
-0.000739545
-0.000438583
6.02855e-06
6.0782e-05
-0.00142858
-0.00141688
-0.0013594
-0.00134519
-0.00129487
-0.00128385
-0.0012323
-0.00116501
-0.0012204
-0.00127749
-0.00126536
-0.00133567
-0.00132399
-0.00140024
-0.00138708
-0.00107497
-0.00093346
-0.000699212
-0.000351974
-0.00012033
-0.00137334
-0.00135966
-0.00131027
-0.00129895
-0.00125541
-0.001249
-0.00120571
-0.00115402
-0.00120046
-0.0012424
-0.00123395
-0.00129061
-0.00128062
-0.00135045
-0.00133666
-0.00107286
-0.000905717
-0.000668394
-0.00028519
-0.00132725
-0.00131261
-0.00126822
-0.00126339
-0.00122796
-0.00122053
-0.00118883
-0.00116007
-0.00118972
-0.00121879
-0.00121373
-0.00125332
-0.001248
-0.00130206
-0.00129376
-0.00106026
-0.000919665
-0.000419913
-0.00128139
-0.00127413
-0.00123993
-0.00123332
-0.0012073
-0.00120321
-0.00118591
-0.00116736
-0.00119572
-0.00120506
-0.00119969
-0.00122873
-0.00122569
-0.00126475
-0.0012608
-0.00110908
-0.00052146
-0.00125038
-0.00124454
-0.00121899
-0.00121535
-0.00119636
-0.00120082
-0.0011933
-0.00126766
-0.00120192
-0.00120106
-0.00120497
-0.00121282
-0.00120912
-0.00123924
-0.00123478
-0.000594539
-0.00123082
-0.00122545
-0.00120686
-0.00120789
-0.00120259
-0.00120975
-0.00123507
-0.000707483
-0.00130838
-0.0012087
-0.00121235
-0.00120889
-0.00120917
-0.00122003
-0.00121794
-0.00121522
-0.00121359
-0.00121004
-0.00121434
-0.00122337
-0.00124079
-0.00134603
-0.000661362
-0.00127298
-0.00129706
-0.00121525
-0.00121844
-0.00121634
-0.0012149
-0.00121559
-0.00121704
-0.00123039
-0.00124369
-0.00133166
-0.0014056
-0.00136622
-0.000562908
-0.00127017
-0.00129341
-0.00121813
-0.00122056
-0.00122927
-0.00124139
-0.00131894
-0.00142007
-0.00152248
-0.000578367
-0.00126487
-0.00129065
-0.00131838
-0.00141161
-0.00165963
-0.000726576
-0.0962237
-0.0960734
-0.0952497
-0.095305
-0.0959093
-0.0957516
-0.0951929
-0.0952061
-0.0955331
-0.0959836
-0.0959485
-0.0960611
-0.0949865
-0.0952725
-0.095028
-0.0955081
-0.0962916
-0.0963507
-0.0961502
-0.096304
-0.0947781
-0.0950747
-0.0948151
-0.0953977
-0.0950152
-0.0971195
-0.0964269
-0.0967729
-0.0963654
-0.0965725
-0.0945378
-0.0948445
-0.0945858
-0.095548
-0.0944901
-0.0945928
-0.0972936
-0.0972257
-0.0965691
-0.0966078
-0.0968319
-0.0967991
-0.0943382
-0.0946393
-0.0943763
-0.0956906
-0.0946618
-0.0936277
-0.094149
-0.0944185
-0.0974575
-0.0970517
-0.0967131
-0.0970021
-0.0941324
-0.0941801
-0.0958325
-0.0948166
-0.093794
-0.0927605
-0.0933542
-0.0937284
-0.0939941
-0.0942163
-0.0976085
-0.0968537
-0.0939189
-0.0939619
-0.0959733
-0.0949622
-0.0939518
-0.0929261
-0.0918898
-0.0924291
-0.0928672
-0.0934087
-0.0934545
-0.0935835
-0.0937832
-0.0977504
-0.0969919
-0.09369
-0.093736
-0.0961141
-0.0951059
-0.0941013
-0.0930884
-0.092059
-0.0910318
-0.0915606
-0.0919956
-0.0923474
-0.092727
-0.0927648
-0.0933371
-0.0935376
-0.0978869
-0.0971283
-0.0935041
-0.0962551
-0.095251
-0.0942494
-0.0932444
-0.0922268
-0.0911992
-0.0902284
-0.0906904
-0.0911167
-0.0914825
-0.091914
-0.0921895
-0.0924074
-0.092804
-0.0925964
-0.0929593
-0.093306
-0.0980197
-0.097257
-0.0963889
-0.0953975
-0.0944
-0.0933994
-0.0923902
-0.0913683
-0.0903664
-0.0893041
-0.0898667
-0.090362
-0.0905802
-0.0910207
-0.0913221
-0.0915398
-0.0919558
-0.091746
-0.0981438
-0.0973608
-0.0964969
-0.0955372
-0.094553
-0.0935577
-0.0925537
-0.0915379
-0.0905203
-0.0894799
-0.0883944
-0.0889415
-0.0894059
-0.0897676
-0.0903684
-0.0903795
-0.0906161
-0.0910789
-0.0908608
-0.098244
-0.0973988
-0.0965339
-0.0956489
-0.0946991
-0.0937189
-0.0927213
-0.09171
-0.0906886
-0.0896509
-0.0885806
-0.087479
-0.088041
-0.0885071
-0.0888596
-0.0892899
-0.089534
-0.0897216
-0.0901491
-0.090374
-0.0982819
-0.0972933
-0.0964167
-0.0956835
-0.0948145
-0.093872
-0.0928917
-0.0918876
-0.0908665
-0.0898278
-0.0887657
-0.0876692
-0.086542
-0.0871233
-0.0875953
-0.087963
-0.0884194
-0.0886935
-0.0889301
-0.0893443
-0.0891173
-0.0895267
-0.0896195
-0.0905587
-0.0981856
-0.096916
-0.0960081
-0.0955522
-0.0948463
-0.0939909
-0.0930524
-0.0920682
-0.0910536
-0.0900157
-0.088955
-0.0878648
-0.0867386
-0.0855765
-0.0861801
-0.0866607
-0.087043
-0.0875088
-0.0877916
-0.0880244
-0.0884728
-0.0882416
-0.0886556
-0.0888875
-0.0893017
-0.0890918
-0.0978346
-0.0960766
-0.0951056
-0.095107
-0.0946978
-0.0940174
-0.0931744
-0.0922371
-0.0912449
-0.0902146
-0.0891553
-0.0880673
-0.0869453
-0.0857821
-0.0845935
-0.085206
-0.0856994
-0.0860964
-0.0865725
-0.0868669
-0.087102
-0.0875581
-0.0873271
-0.0877495
-0.0879775
-0.0884231
-0.0882027
-0.0970509
-0.0945371
-0.0934588
-0.0941328
-0.0942097
-0.093847
-0.0931942
-0.0923613
-0.0914221
-0.0904174
-0.0893677
-0.0882823
-0.0871616
-0.0860021
-0.0848049
-0.0836191
-0.0841941
-0.0847065
-0.0851188
-0.0856115
-0.0859153
-0.0861577
-0.0866249
-0.0863878
-0.0868218
-0.0870547
-0.0875074
-0.0872858
-0.0956087
-0.0920654
-0.090827
-0.092368
-0.0931546
-0.0933097
-0.0929982
-0.0923712
-0.0915477
-0.090603
-0.0895827
-0.0885098
-0.0873923
-0.0862341
-0.0850347
-0.0838171
-0.0825405
-0.0832306
-0.0837162
-0.0840905
-0.0846114
-0.0849399
-0.0851833
-0.0856664
-0.0854263
-0.0858694
-0.0861096
-0.0865766
-0.086343
-0.0932862
-0.0885187
-0.0870656
-0.0895631
-0.0912593
-0.0921643
-0.0924023
-0.0921425
-0.0915448
-0.0907287
-0.0897767
-0.0887377
-0.0876363
-0.0864824
-0.0852824
-0.0840452
-0.0827686
-0.0813991
-0.0820853
-0.082683
-0.0831993
-0.083634
-0.0839025
-0.084162
-0.0846773
-0.0844307
-0.0848926
-0.0851368
-0.0856173
-0.0853802
-0.0899446
-0.0839193
-0.0822042
-0.0855741
-0.0882676
-0.090125
-0.0911523
-0.0914788
-0.0912773
-0.090709
-0.0899006
-0.0889395
-0.0878778
-0.0867441
-0.0855491
-0.0843045
-0.0830158
-0.0816631
-0.0802189
-0.0809472
-0.081545
-0.0819737
-0.0825509
-0.0828729
-0.0833803
-0.0836507
-0.0834067
-0.0838427
-0.0841197
-0.0846316
-0.0843853
-0.0855993
-0.0784743
-0.0764687
-0.0804434
-0.0840394
-0.0869306
-0.0889531
-0.090113
-0.0905355
-0.0903951
-0.0898588
-0.089059
-0.0880868
-0.0869999
-0.0858289
-0.0845893
-0.083293
-0.0819419
-0.0805058
-0.0790789
-0.0797572
-0.0803764
-0.0808467
-0.0814269
-0.0817684
-0.0820618
-0.082599
-0.0822988
-0.0826444
-0.0835549
-0.083545
-0.083129
-0.080442
-0.072513
-0.07021
-0.074416
-0.0786311
-0.0824498
-0.085542
-0.0877387
-0.0890373
-0.0895629
-0.0894896
-0.088989
-0.0881983
-0.0872147
-0.0860992
-0.084888
-0.0835989
-0.0822446
-0.0808216
-0.0793148
-0.0776777
-0.0787876
-0.0792471
-0.0796409
-0.0802561
-0.0806388
-0.0809409
-0.0815069
-0.0812107
-0.0817322
-0.082007
-0.082487
-0.082253
-0.0825963
-0.0838165
-0.0747809
-0.0664072
-0.0638257
-0.0678658
-0.0723108
-0.0767572
-0.080797
-0.0840931
-0.0864689
-0.0879162
-0.0885537
-0.0885539
-0.0880928
-0.0873138
-0.0863181
-0.0851724
-0.0839178
-0.082576
-0.0811577
-0.0796548
-0.0780449
-0.0772125
-0.0762624
-0.0777807
-0.0790449
-0.0794596
-0.0797571
-0.0803507
-0.0800418
-0.0805985
-0.0808907
-0.0814585
-0.0811723
-0.0816904
-0.0819593
-0.0824618
-0.0822232
-0.0689641
-0.0605261
-0.0577092
-0.0612166
-0.0654762
-0.070145
-0.0748142
-0.0790701
-0.0825723
-0.0851358
-0.0867413
-0.0874978
-0.0875794
-0.0871644
-0.0863995
-0.0853928
-0.084216
-0.0829163
-0.0815187
-0.0800283
-0.0784288
-0.0766893
-0.0758771
-0.0767997
-0.0775169
-0.0747491
-0.0780249
-0.0792589
-0.079197
-0.0794018
-0.0797115
-0.0803067
-0.0800055
-0.080552
-0.0808341
-0.081404
-0.0811299
-0.0633349
-0.0552174
-0.0522295
-0.0548858
-0.058579
-0.0630374
-0.0679135
-0.0727929
-0.0772612
-0.0809718
-0.0837294
-0.0854996
-0.0863866
-0.08656
-0.0861964
-0.0854498
-0.0844344
-0.0832277
-0.081882
-0.080423
-0.078849
-0.0771409
-0.0752503
-0.0743235
-0.0753538
-0.0761041
-0.0765577
-0.0769189
-0.077283
-0.0776397
-0.0731619
-0.0779608
-0.0782775
-0.07812
-0.0790327
-0.0793601
-0.0796644
-0.0802532
-0.079965
-0.058219
-0.050791
-0.0477067
-0.049263
-0.0520586
-0.0559109
-0.0605461
-0.0656102
-0.0706871
-0.0753619
-0.0792806
-0.082236
-0.0841829
-0.0852126
-0.0854845
-0.0851813
-0.0844593
-0.0834386
-0.0822046
-0.080811
-0.0792846
-0.0776183
-0.0757804
-0.0737275
-0.0726877
-0.0737501
-0.0745691
-0.0750725
-0.0754822
-0.0758387
-0.0761874
-0.0715458
-0.0784875
-0.0790083
-0.0539148
-0.0474566
-0.0443406
-0.0446738
-0.0463233
-0.0492291
-0.0532143
-0.0580002
-0.0632309
-0.068491
-0.0733626
-0.0774879
-0.0806475
-0.0827803
-0.0839603
-0.0843454
-0.0841119
-0.0834211
-0.0824012
-0.0811417
-0.0796984
-0.0780981
-0.0763246
-0.0743369
-0.072117
-0.071152
-0.0720155
-0.0728599
-0.0734666
-0.0738933
-0.0742861
-0.07466
-0.0696172
-0.0506359
-0.0452545
-0.0421514
-0.0413072
-0.0417014
-0.0434159
-0.0464039
-0.0504911
-0.0553994
-0.0607737
-0.0661981
-0.0712567
-0.0755848
-0.0789526
-0.0812783
-0.0826232
-0.0831317
-0.0829787
-0.0823296
-0.0813161
-0.0800331
-0.0785385
-0.0768526
-0.0749533
-0.0727928
-0.0703332
-0.0689652
-0.0702195
-0.0714809
-0.0715959
-0.0721049
-0.0725765
-0.0730011
-0.06751
-0.048444
-0.0440454
-0.0409752
-0.0391573
-0.0383642
-0.0387964
-0.0405503
-0.0435884
-0.047745
-0.0527454
-0.0582365
-0.0638056
-0.0690375
-0.0735643
-0.0771396
-0.0796677
-0.0811873
-0.0818331
-0.0817742
-0.0811758
-0.0801757
-0.0788715
-0.0773192
-0.0755314
-0.0734827
-0.0711115
-0.0683719
-0.06674
-0.0680527
-0.0691412
-0.0696849
-0.0701978
-0.0713752
-0.0711021
-0.0651947
-0.0472248
-0.0435718
-0.0405354
-0.0380323
-0.036276
-0.0355193
-0.0359692
-0.0377342
-0.0407905
-0.0449817
-0.0500412
-0.0556203
-0.0613113
-0.0667008
-0.0714156
-0.0752005
-0.0779348
-0.0796422
-0.080439
-0.0804862
-0.0799505
-0.0789689
-0.0776421
-0.0760231
-0.0741141
-0.071885
-0.069273
-0.0662056
-0.0643068
-0.0657548
-0.0669676
-0.0676551
-0.0682276
-0.0687161
-0.0692435
-0.0696559
-0.0700267
-0.0717529
-0.0626313
-0.046737
-0.0435499
-0.0405394
-0.0376358
-0.0352157
-0.0335139
-0.0327807
-0.0332288
-0.0349778
-0.0380179
-0.0422084
-0.0472921
-0.0529282
-0.0587144
-0.0642418
-0.0691347
-0.073123
-0.076071
-0.077975
-0.0789345
-0.079103
-0.0786386
-0.0776812
-0.0763282
-0.0746277
-0.0725738
-0.0701351
-0.0672417
-0.0638029
-0.0616016
-0.0631853
-0.0645277
-0.0652806
-0.0659192
-0.0665047
-0.0670981
-0.067566
-0.0681373
-0.0686273
-0.069125
-0.0597855
-0.0467052
-0.0437427
-0.0407473
-0.0376666
-0.0348678
-0.0325294
-0.0308779
-0.0301576
-0.0305854
-0.0322906
-0.0352818
-0.0394348
-0.0445059
-0.0501649
-0.0560175
-0.0616601
-0.0667153
-0.0709029
-0.0740636
-0.0761722
-0.0773087
-0.0776081
-0.077225
-0.0762929
-0.074906
-0.073105
-0.0708844
-0.068198
-0.0649796
-0.061129
-0.0585929
-0.0603187
-0.0618028
-0.0626357
-0.0633435
-0.0639961
-0.0646524
-0.0651597
-0.065802
-0.0663758
-0.0669512
-0.0566227
-0.0468912
-0.0439924
-0.0410041
-0.0378859
-0.0349257
-0.0322349
-0.02998
-0.0283749
-0.0276588
-0.0280475
-0.0296834
-0.0325932
-0.0366721
-0.0416925
-0.0473378
-0.0532248
-0.0589565
-0.0641553
-0.0685295
-0.0719013
-0.0742218
-0.0755417
-0.0759837
-0.0756875
-0.0747793
-0.0733459
-0.0714262
-0.0690099
-0.0660401
-0.0624479
-0.0581447
-0.0552508
-0.0571269
-0.0587723
-0.0596864
-0.0604714
-0.0612011
-0.0619214
-0.0624875
-0.0632065
-0.0638412
-0.0644858
-0.053116
-0.0471317
-0.0449531
-0.043425
-0.0419267
-0.0381437
-0.0404594
-0.0351547
-0.0323209
-0.0297416
-0.0275707
-0.0260097
-0.025288
-0.0256227
-0.0271671
-0.029966
-0.0339333
-0.0388639
-0.0444575
-0.0503436
-0.056134
-0.0614526
-0.0659994
-0.0695763
-0.0721065
-0.0736181
-0.0742079
-0.0740007
-0.07311
-0.0716173
-0.0695573
-0.0669119
-0.0636208
-0.0596108
-0.0548192
-0.0515502
-0.0535841
-0.055399
-0.0564038
-0.05727
-0.058087
-0.0588854
-0.059515
-0.0603025
-0.061024
-0.0617266
-0.0492454
-0.0481063
-0.046522
-0.0453981
-0.0446385
-0.0439197
-0.0431461
-0.0423513
-0.0416223
-0.0390258
-0.0354116
-0.0376221
-0.0409321
-0.0401901
-0.0325581
-0.0298541
-0.0273892
-0.0253035
-0.0237843
-0.0230521
-0.0233218
-0.0247543
-0.027411
-0.0312325
-0.0360344
-0.0415363
-0.0473834
-0.053199
-0.0586097
-0.0633086
-0.0670772
-0.0698148
-0.0715164
-0.0722559
-0.0721347
-0.0712542
-0.0696865
-0.0674575
-0.0645505
-0.060899
-0.0564324
-0.0511309
-0.0474786
-0.0496727
-0.0516651
-0.0527554
-0.0537205
-0.0546197
-0.0555076
-0.0561908
-0.0570763
-0.0578734
-0.0586591
-0.0450214
-0.0477818
-0.0470352
-0.0462318
-0.0454006
-0.0446641
-0.0439876
-0.043232
-0.042353
-0.0416461
-0.0394309
-0.0387333
-0.036253
-0.0328119
-0.0349149
-0.0380728
-0.0373635
-0.0409964
-0.0402713
-0.0300977
-0.0275269
-0.0251787
-0.0231791
-0.0217026
-0.0209558
-0.0211498
-0.0224526
-0.0249435
-0.0285856
-0.03322
-0.038589
-0.0443578
-0.0501603
-0.0556306
-0.0604548
-0.0643972
-0.0673304
-0.0692166
-0.0701005
-0.0700584
-0.0691759
-0.0675115
-0.0650887
-0.0618831
-0.0578362
-0.0528939
-0.0470635
-0.0430894
-0.0453754
-0.0475513
-0.0487385
-0.0497907
-0.0507836
-0.0517633
-0.0525056
-0.0534894
-0.0543708
-0.0552511
-0.0404665
-0.0478103
-0.0471089
-0.0463241
-0.0394328
-0.038756
-0.0366388
-0.0359731
-0.0336117
-0.0303468
-0.0323405
-0.035343
-0.0346672
-0.0381337
-0.0374399
-0.0277745
-0.0253389
-0.0231087
-0.0211981
-0.0197636
-0.0190008
-0.0191131
-0.0202732
-0.0225762
-0.0260088
-0.0304398
-0.0356346
-0.0412813
-0.0470303
-0.0525221
-0.0574397
-0.0615311
-0.0646406
-0.066698
-0.0677145
-0.0677411
-0.066839
-0.0650576
-0.0624102
-0.058874
-0.0544097
-0.0489766
-0.0426234
-0.0385027
-0.0406853
-0.0430443
-0.0443398
-0.0454809
-0.0465668
-0.0476382
-0.0484499
-0.0495154
-0.0504977
-0.051461
-0.0355733
-0.0366409
-0.0359944
-0.0339776
-0.0333443
-0.0311038
-0.0280172
-0.0299005
-0.0327452
-0.0321037
-0.0354001
-0.0347386
-0.0255884
-0.0232888
-0.0211789
-0.0193574
-0.0179677
-0.0171882
-0.0172161
-0.0182245
-0.0203225
-0.0235197
-0.0277119
-0.0326917
-0.0381725
-0.0438238
-0.0492953
-0.0542686
-0.0584758
-0.0617354
-0.0639424
-0.0650757
-0.0651507
-0.0642111
-0.0622881
-0.0593882
-0.0555033
-0.0505983
-0.0446811
-0.0378611
-0.0334588
-0.0360072
-0.0382406
-0.0395351
-0.0407782
-0.0419727
-0.0431344
-0.044001
-0.0451684
-0.0462347
-0.0472912
-0.030427
-0.0339797
-0.033364
-0.0314496
-0.0308491
-0.028731
-0.0258232
-0.0275956
-0.0302813
-0.0296746
-0.0327985
-0.0321699
-0.0235379
-0.021375
-0.0193849
-0.017655
-0.0163108
-0.0155181
-0.0154609
-0.0163129
-0.0181942
-0.0211327
-0.0250551
-0.0297806
-0.0350522
-0.0405594
-0.0459648
-0.0509497
-0.0552337
-0.0586087
-0.0609378
-0.0621597
-0.0622648
-0.0612634
-0.059174
-0.0560062
-0.0517486
-0.0464137
-0.0400503
-0.032846
-0.0281171
-0.0305965
-0.0332876
-0.0349155
-0.0357903
-0.0369574
-0.0381872
-0.03914
-0.0404283
-0.0415991
-0.0427558
-0.0251202
-0.0314514
-0.0308669
-0.0290566
-0.0284889
-0.0264935
-0.0237637
-0.0254258
-0.0279522
-0.0273803
-0.0303304
-0.0297354
-0.0216212
-0.0195936
-0.0177237
-0.0160854
-0.0147904
-0.0139865
-0.0138479
-0.0145444
-0.0161999
-0.0188646
-0.0224879
-0.0269245
-0.0319434
-0.0372592
-0.0425498
-0.0474981
-0.051812
-0.0552619
-0.0576753
-0.0589596
-0.0590634
-0.0579764
-0.055706
-0.0522501
-0.0476322
-0.041893
-0.0351482
-0.0276494
-0.0227033
-0.0251738
-0.0278325
-0.0292179
-0.0305722
-0.031858
-0.0332977
-0.035013
-0.0349106
-0.0363535
-0.0377226
-0.0197539
-0.0290583
-0.028505
-0.0267987
-0.0262639
-0.0243905
-0.0218368
-0.0233897
-0.0257582
-0.0252211
-0.0279969
-0.0274356
-0.0198348
-0.017941
-0.0161895
-0.0146437
-0.0133997
-0.0125907
-0.0123767
-0.0129197
-0.0143495
-0.0167271
-0.0200302
-0.024145
-0.0288709
-0.0339499
-0.0390746
-0.0439331
-0.0482266
-0.0517027
-0.0541609
-0.0554666
-0.0555432
-0.0543521
-0.0518801
-0.0481468
-0.0431858
-0.0370925
-0.0300581
-0.0223608
-0.0172801
-0.0197026
-0.0223888
-0.0237753
-0.025147
-0.0264801
-0.0278257
-0.0287469
-0.0300878
-0.0312928
-0.0324755
-0.035267
-0.0144523
-0.0268
-0.0262781
-0.0246754
-0.0241731
-0.0224203
-0.0200395
-0.0214853
-0.0236983
-0.0231955
-0.0257986
-0.025271
-0.0181751
-0.0164118
-0.0147768
-0.0133232
-0.0121332
-0.0113243
-0.0110432
-0.0114413
-0.0126456
-0.0147301
-0.0176982
-0.0214649
-0.0258629
-0.0306593
-0.0355669
-0.0402821
-0.0445
-0.0479512
-0.0504054
-0.0516983
-0.0517179
-0.0503995
-0.0477311
-0.0437274
-0.0384671
-0.0321049
-0.0248637
-0.0171151
-0.0119541
-0.0142524
-0.0169114
-0.018259
-0.0196381
-0.0209924
-0.0223493
-0.0232844
-0.0246805
-0.0260035
-0.0273481
-0.028283
-0.0296223
-0.0308889
-0.031982
-0.00935087
-0.0246761
-0.0241855
-0.0226852
-0.022215
-0.0205804
-0.018368
-0.0197095
-0.0217706
-0.0213014
-0.0237345
-0.0232402
-0.0166372
-0.0150003
-0.0134793
-0.0121167
-0.0109827
-0.0101816
-0.00984277
-0.0101045
-0.0110896
-0.0128837
-0.0155073
-0.0189067
-0.0229461
-0.0274183
-0.0320606
-0.0365777
-0.0406647
-0.0440363
-0.0464411
-0.0476809
-0.0476155
-0.0461623
-0.0432965
-0.0390638
-0.0335714
-0.0270135
-0.0196979
-0.0120458
-0.0068893
-0.00895781
-0.011513
-0.0127939
-0.0141459