/*--------------------------------*- C++ -*----------------------------------*\
| =========                 |                                                 |
| \\      /  F ield         | OpenFOAM: The Open Source CFD Toolbox           |
|  \\    /   O peration     | Version:  v1912                                 |
|   \\  /    A nd           | Website:  www.openfoam.com                      |
|    \\/     M anipulation  |                                                 |
\*---------------------------------------------------------------------------*/
FoamFile
{
    version     2.0;
    format      ascii;
    class       surfaceScalarField;
    location    "440";
    object      phi;
}
// * * * * * * * * * * * * * * * * * * * * * * * * * * * * * * * * * * * * * //

dimensions      [0 3 -1 0 0 0 0];
oriented        oriented;


internalField   nonuniform List<scalar> 
7354
(
-3.56248e-06
0.00134721
-1.32686e-05
0.00413253
-2.80614e-06
0.00135002
-3.39213e-05
0.00695052
-1.35482e-05
0.00414327
-3.8436e-06
0.00135386
-6.14553e-05
0.0096882
-3.36098e-05
0.00697058
-1.42341e-05
0.00415366
-2.79245e-06
0.00135665
-9.49467e-05
0.012166
-6.04509e-05
0.00971504
-3.20707e-05
0.00698842
-1.15694e-05
0.00416244
-2.8293e-06
0.00135948
-0.000143476
0.0141818
-9.4782e-05
0.0122003
-5.59619e-05
0.00973894
-3.04111e-05
0.00700726
-1.15149e-05
0.00417112
-2.815e-06
0.0013623
-0.000184857
0.0155123
-0.000136912
0.0142239
-9.18453e-05
0.0122362
-5.55601e-05
0.00976408
-2.59552e-05
0.0070217
-1.13537e-05
0.00417966
-1.81933e-06
0.00136412
-0.000236638
0.0160076
-0.000186023
0.0155614
-0.00013287
0.0142649
-8.61216e-05
0.0122667
-4.58076e-05
0.00978394
-2.27746e-05
0.00703312
-9.36558e-06
0.00418721
-1.76733e-06
0.00136588
-0.000276659
0.0155681
-0.000230347
0.0160519
-0.000177332
0.0156059
-0.000120634
0.0142994
-7.13317e-05
0.0122923
-4.15464e-05
0.00980271
-1.97734e-05
0.00704353
-7.30952e-06
0.00419275
-1.66654e-06
0.00136755
-0.000314308
0.0142477
-0.000279174
0.015617
-0.000218795
0.0160934
-0.000150732
0.015636
-9.96266e-05
0.0143277
-6.40399e-05
0.0123147
-3.72487e-05
0.00982018
-1.82654e-05
0.00705448
-6.43699e-06
0.00419752
-1.72169e-06
0.00136927
-0.000339563
0.0121635
-0.000321143
0.0142897
-0.000258817
0.015657
-0.000186223
0.0161289
-0.000130022
0.0156664
-8.27389e-05
0.0143464
-5.23001e-05
0.0123298
-2.77772e-05
0.00982969
-1.53052e-05
0.00706335
-6.94821e-06
0.00420275
-1.73958e-06
0.00137101
-0.000343441
0.00952591
-0.000352013
0.0121944
-0.00027718
0.0143081
-0.000206188
0.015677
-0.000148244
0.0161471
-0.000104208
0.0156879
-6.92789e-05
0.0143634
-4.26143e-05
0.0123446
-2.73092e-05
0.0098417
-1.1954e-05
0.00706836
-4.34865e-06
0.00420536
-1.34129e-06
0.00137235
-0.000114266
0.00654756
-0.000193749
-0.000372581
0.00954648
-0.00028681
0.012204
-0.000211564
0.0143134
-0.00015927
0.015688
-0.000112706
0.0161556
-7.88493e-05
0.0156974
-5.12131e-05
0.014372
-3.56428e-05
0.012353
-1.81451e-05
0.00984789
-1.20214e-05
0.00707603
-6.06816e-06
0.00421008
-7.16672e-07
0.00137307
0.00215263
-8.41611e-05
-0.000200863
0.00655302
-0.000177175
0.00211093
-0.000152044
-0.000259694
0.00951936
-0.000190786
0.0121833
-0.000150832
0.014305
-0.000110094
0.0156854
-8.71672e-05
0.0161639
-6.48493e-05
0.0157111
-4.52742e-05
0.0143816
-3.07522e-05
0.0123656
-2.27639e-05
0.00985863
-1.1542e-05
0.0070815
-4.83718e-06
0.0042142
-1.4512e-06
0.00137452
0.00137943
-2.49735e-05
0.00209325
-0.000183188
-0.000130137
0.00648314
-5.9679e-05
0.00206948
-0.000153404
0.00132135
-6.22286e-05
-3.17375e-05
-0.000141108
0.00946969
-0.000119139
0.0121516
-9.51557e-05
0.0142901
-7.90831e-05
0.0156773
-6.23333e-05
0.0161614
-4.58265e-05
0.0157116
-3.94626e-05
0.0143903
-2.56348e-05
0.0123684
-1.72579e-05
0.00986435
-1.24043e-05
0.00708907
-5.61526e-06
0.00421837
-2.22991e-06
0.00137675
0.000431529
-9.70583e-06
0.00130413
-8.34127e-05
-8.25603e-05
0.00202117
-8.18293e-05
-4.57307e-05
0.00639856
-1.07994e-05
0.00199782
-3.63268e-05
0.00125963
-3.89245e-05
-6.99765e-05
-0.000417708
0.000390727
-3.52482e-05
-1.79167e-05
-6.78019e-05
0.00941835
-6.50379e-05
0.0121215
-6.19574e-05
0.0142729
-5.07289e-05
0.0156657
-4.33166e-05
0.0161589
-3.77057e-05
0.0157099
-3.18844e-05
0.0143966
-2.50894e-05
0.0123763
-2.17281e-05
0.00987367
-1.35041e-05
0.00709696
-7.67407e-06
0.00422381
-1.2116e-06
0.00137796
0.000252807
-1.55749e-06
0.000365262
-5.79468e-05
0.000343976
-6.12751e-05
0.00120677
-2.19449e-05
-7.02978e-06
0.00196928
-1.71868e-05
-1.65022e-05
0.00634773
-4.62449e-07
0.00196467
-6.18916e-06
0.00117645
-7.98473e-07
-5.20347e-06
-0.000320961
0.000302011
-1.99747e-05
-4.69609e-05
-0.000238856
0.000213372
-9.76415e-06
-3.96519e-06
-3.49935e-05
0.0093883
-3.85526e-05
0.012098
-3.70251e-05
0.0142592
-3.79509e-05
0.0156603
-3.19746e-05
0.0161531
-3.35226e-05
0.0157115
-2.63762e-05
0.0143979
-2.87114e-05
0.0123833
-2.11006e-05
0.00988127
-1.55218e-05
0.00710481
-7.44188e-06
0.00423004
-2.88725e-06
0.00138085
7.47161e-05
0.000176103
-2.06785e-05
0.000155137
-4.03082e-05
0.000286752
-6.6859e-06
0.000281834
-2.11231e-06
0.00116072
-1.79024e-06
3.30463e-07
0.00195162
-3.45134e-06
-6.8633e-06
0.00631557
4.02584e-06
0.00195219
-1.03399e-06
0.00115453
1.04986e-06
-1.04701e-06
-0.000277131
0.000276736
-4.0346e-07
-5.004e-07
-0.000108176
8.8201e-05
-7.07509e-05
6.09867e-05
-1.45957e-05
0.00936435
-2.35097e-05
0.0120845
-2.47304e-05
0.014246
-2.24317e-05
0.0156508
-2.92243e-05
0.0161489
-2.58837e-05
0.015711
-3.69646e-05
0.0144061
-3.37249e-05
0.0123959
-2.72088e-05
0.00989295
-1.85964e-05
0.00711596
-1.03569e-05
0.00423751
-1.96029e-06
0.00138281
4.03082e-05
8.15151e-05
7.94028e-05
0.000274987
-4.08471e-08
0.00027545
-1.32929e-07
0.0011511
-5.00117e-07
4.81686e-07
0.00194603
-7.01761e-07
-4.21094e-06
0.00630151
3.67686e-06
0.00194917
8.86063e-07
0.00114978
2.59322e-07
2.51753e-08
-0.000274257
0.000275104
2.03328e-07
1.46007e-07
-7.89024e-05
7.84989e-05
-6.17401e-06
0.00934701
-6.7373e-06
0.0120665
-1.25001e-05
0.0142361
-2.00417e-05
0.0156416
-2.53813e-05
0.0161483
-3.70161e-05
0.0157111
-3.42343e-05
0.0144066
-3.68311e-05
0.0124055
-3.09303e-05
0.00990529
-2.02985e-05
0.0071259
-1.07715e-05
0.00424632
-2.66197e-06
0.00138547
7.84581e-05
7.83251e-05
0.000274829
-2.25145e-07
0.00027512
1.89909e-07
0.00114876
-8.75551e-08
4.0153e-07
0.00194503
-6.95011e-08
-9.04747e-07
0.00629434
1.89998e-06
0.0019481
6.0397e-07
0.00114954
-1.59917e-07
2.7144e-07
-0.000275008
0.000275202
6.55551e-08
1.37031e-07
-7.84711e-05
7.86744e-05
-1.4983e-07
0.00934042
-6.38505e-06
0.0120604
-1.08239e-05
0.0142269
-1.47921e-05
0.015631
-2.77678e-05
0.0161391
-4.11321e-05
0.015718
-5.07981e-05
0.0144206
-4.38493e-05
0.0124184
-3.66517e-05
0.00992164
-2.5727e-05
0.00714086
-1.12298e-05
0.00425489
-3.42838e-06
0.0013889
7.84493e-05
7.86392e-05
0.000275103
1.11488e-08
0.000275427
7.82905e-08
0.00114892
2.12688e-07
3.33093e-07
0.00194733
-1.34501e-07
6.24689e-07
0.00629157
1.98975e-06
0.00194786
1.37124e-06
0.00114953
1.40549e-07
-1.4751e-07
-0.000275742
0.000275547
3.4418e-08
-4.35126e-08
-7.87762e-05
7.88418e-05
-3.23203e-07
0.00933436
4.31445e-07
0.0120492
-6.2207e-06
0.0142183
-2.53986e-05
0.0156286
-3.8844e-05
0.0161368
-4.98917e-05
0.0157171
-5.86001e-05
0.0144354
-5.77697e-05
0.0124395
-4.66492e-05
0.00994256
-2.72159e-05
0.00715685
-1.12865e-05
0.00426275
-2.367e-06
0.00139127
7.88529e-05
7.89312e-05
0.000275808
-4.81346e-08
0.000276018
1.2321e-07
0.00114867
3.32981e-07
3.91325e-07
0.00194823
2.49224e-07
4.85164e-07
0.00628885
1.91298e-06
0.00194877
1.45127e-06
0.00115011
2.53315e-07
-3.19073e-07
-0.000275711
0.000275894
-4.25872e-08
1.59669e-07
-7.88877e-05
7.89221e-05
5.52496e-06
0.00932927
6.80556e-07
0.0120423
-1.01136e-05
0.014203
-2.46911e-05
0.0156145
-4.95227e-05
0.0161364
-6.68322e-05
0.0157253
-7.22832e-05
0.0144499
-6.7924e-05
0.0124608
-4.96376e-05
0.00996499
-2.96674e-05
0.00717523
-1.4302e-05
0.00427468
-3.08073e-06
0.00139435
7.8874e-05
7.89972e-05
0.000276213
1.39281e-08
0.000276743
-1.38522e-07
0.0011504
-3.09479e-07
2.72961e-07
0.00194834
9.20265e-07
2.01984e-06
0.00628987
2.49213e-06
0.00194995
2.95917e-07
0.00115132
1.96621e-07
3.29978e-07
-0.000276281
0.000276494
4.00635e-08
1.43058e-07
-7.91569e-05
7.91143e-05
2.28423e-06
0.00932767
-2.66513e-06
0.0120348
-1.93972e-05
0.0141977
-4.26856e-05
0.0156076
-6.95715e-05
0.0161392
-9.10439e-05
0.015744
-9.6089e-05
0.014478
-7.91804e-05
0.0124904
-5.44791e-05
0.0099898
-3.01301e-05
0.00719105
-1.22499e-05
0.00428385
-3.39766e-06
0.00139775
7.91282e-05
7.89897e-05
0.000276254
-6.96485e-08
0.000276427
9.96431e-08
0.00115207
-1.55806e-07
3.24227e-07
0.00195067
1.29833e-06
1.9925e-06
0.00628977
3.87861e-07
0.00195201
1.15376e-06
0.00115193
2.6067e-07
1.79911e-07
-0.000276597
0.000277038
-2.44654e-07
1.60238e-07
-7.91327e-05
7.91728e-05
2.14768e-06
0.00932285
-5.9017e-06
0.0120213
-2.30057e-05
0.014178
-5.862e-05
0.0155967
-9.0605e-05
0.0161387
-0.000111023
0.015759
-0.000106581
0.0145054
-8.6166e-05
0.0125221
-5.93776e-05
0.010019
-3.28227e-05
0.00721163
-1.35627e-05
0.00429402
-2.858e-06
0.0014006
7.91031e-05
7.92028e-05
0.000276881
1.13311e-09
0.000277061
1.45073e-07
0.00115317
-2.74788e-07
3.31062e-07
0.00195379
2.14302e-07
1.95421e-06
0.00628799
1.97506e-06
0.00195282
1.35446e-06
0.00115433
-2.84809e-07
2.75908e-07
-0.000277147
0.000277378
2.93443e-08
9.38522e-08
-7.9363e-05
7.91184e-05
-1.78291e-07
0.00931713
-1.33157e-05
0.0120116
-4.54411e-05
0.0141648
-8.76917e-05
0.0155938
-0.000128093
0.0161558
-0.000138025
0.0157904
-0.000128955
0.0145482
-9.53467e-05
0.012558
-5.90098e-05
0.0100452
-3.1968e-05
0.00723003
-1.14483e-05
0.00430261
-1.94e-06
0.00140254
7.91195e-05
7.92646e-05
0.000277095
8.1989e-09
0.000277317
1.08753e-07
0.00115387
3.25432e-07
3.53978e-07
0.00195391
8.69135e-07
1.87253e-06
0.00628545
4.92612e-07
0.00195548
4.03048e-07
0.00115524
-1.75521e-07
1.60025e-07
-0.000277489
0.000277469
-2.64073e-07
1.039e-07
-7.93584e-05
7.93878e-05
-2.42686e-06
0.00930624
-2.39485e-05
0.0119901
-6.98284e-05
0.014147
-0.000126223
0.0155919
-0.000162801
0.0161806
-0.000170206
0.0158317
-0.000135717
0.0145886
-9.83073e-05
0.0125973
-6.07292e-05
0.010074
-2.85004e-05
0.00724708
-1.098e-05
0.00431165
-1.7914e-06
0.00140433
7.9396e-05
7.95047e-05
0.000277766
2.79315e-08
0.000277945
1.75263e-07
0.00115559
3.44982e-07
1.75035e-07
0.0019562
1.14997e-06
1.95006e-06
0.0062805
5.65408e-07
0.00195631
3.86422e-07
0.00115603
1.61194e-07
-2.05011e-07
-0.000278044
0.000277837
3.16805e-08
6.06431e-08
-7.96086e-05
7.93446e-05
-8.51726e-06
0.00929081
-4.52013e-05
0.0119655
-0.000109417
0.0141302
-0.000170442
0.0155996
-0.000205102
0.0162155
-0.000182824
0.0158788
-0.000142631
0.0146329
-9.59288e-05
0.0126325
-5.14903e-05
0.010097
-2.41075e-05
0.00726021
-8.76509e-06
0.00431862
-1.44184e-06
0.00140578
7.93725e-05
7.95477e-05
0.000278118
6.35662e-08
0.000278236
5.74561e-08
0.00115654
3.33907e-07
3.06334e-07
0.00195727
9.90848e-07
1.93051e-06
0.00627086
-8.0146e-07
0.00195745
3.89083e-07
0.001157
2.65617e-07
-3.37082e-07
-0.000277944
0.000278347
-2.41943e-07
8.66407e-08
-7.96084e-05
7.96401e-05
-1.7777e-05
0.00926339
-7.66835e-05
0.0119328
-0.000161557
0.0141213
-0.000228638
0.0156231
-0.000230264
0.0162629
-0.000196583
0.0159327
-0.000142157
0.0146792
-8.60287e-05
0.0126671
-4.67634e-05
0.0101196
-2.06558e-05
0.0072721
-5.81679e-06
0.004323
-3.85996e-07
0.00140616
7.97036e-05
7.97611e-05
0.000278623
5.88024e-08
0.000278816
1.12958e-07
0.00115792
3.48038e-07
-2.76352e-07
0.00195811
1.2695e-06
2.02769e-06
0.00625357
-2.51438e-06
0.0019572
1.05679e-07
0.00115782
1.54634e-07
3.35129e-07
-0.000278394
0.000278685
-2.55085e-08
8.50144e-08
-7.98477e-05
7.96058e-05
-3.84742e-05
0.00922518
-0.000130427
0.0119017
-0.000234559
0.0141272
-0.000275465
0.0156683
-0.000248703
0.016315
-0.000187811
0.0159784
-0.000126258
0.0147194
-7.31899e-05
0.0126935
-3.8772e-05
0.0101378
-1.70652e-05
0.00728335
-3.45667e-06
0.00432607
-2.2809e-07
0.00140639
7.96646e-05
7.97775e-05
0.000278963
6.98457e-08
0.000278566
1.20503e-07
0.00115891
3.08538e-07
-1.27583e-07
0.0019589
3.25263e-07
2.03104e-06
0.00622143
-8.37285e-06
0.0019562
1.89621e-07
0.00115903
-1.47342e-07
1.31573e-07
-0.000279045
0.000279131
6.88904e-08
-1.4394e-07
-7.98626e-05
7.9837e-05
-7.69951e-05
0.00917174
-0.000205009
0.0118721
-0.000299106
0.0141509
-0.000296139
0.0157157
-0.000234449
0.0163617
-0.000168949
0.0160211
-0.000107314
0.0147535
-6.33031e-05
0.012718
-3.24552e-05
0.0101531
-9.90491e-06
0.0072898
-2.65047e-06
0.00432849
7.79205e-07
0.00140561
7.99069e-05
8.00274e-05
0.00027943
9.59438e-09
0.000279257
4.51257e-08
0.00115888
3.1367e-07
1.63642e-07
0.00195776
4.68019e-07
-8.46406e-07
0.00616415
-1.8867e-05
0.00195108
-1.6929e-06
0.00115903
-2.90738e-07
3.3113e-07
-0.000279272
0.000279117
7.99624e-09
1.16747e-07
-7.98835e-05
7.99524e-05
-0.000146463
0.0091132
-0.00031297
0.011886
-0.000341523
0.0141962
-0.000284374
0.0157657
-0.000209197
0.0164019
-0.000141218
0.016055
-8.72366e-05
0.0147774
-4.79672e-05
0.0127335
-1.98992e-05
0.0101631
-5.99273e-06
0.00729314
1.33621e-06
0.00432793
1.16786e-06
0.00140445
7.9962e-05
8.00071e-05
0.000279418
1.25867e-08
0.000279477
1.05162e-07
0.00115927
3.19322e-07
-9.65614e-08
0.00195181
-1.57443e-06
-1.06486e-05
0.00607461
-4.62706e-05
0.00193711
-4.16557e-06
0.00115754
-1.05367e-07
1.45045e-07
-0.00027994
0.000279589
5.97171e-08
-1.32212e-07
-8.01238e-05
8.01318e-05
-0.000277879
0.00907811
-0.000369806
0.0119142
-0.000318384
0.0142302
-0.000237698
0.0157942
-0.000169033
0.0164297
-0.000107446
0.0160752
-6.40678e-05
0.0147935
-3.41177e-05
0.0127477
-1.15038e-05
0.0101687
-1.20301e-06
0.00729568
2.93131e-06
0.00432617
1.51643e-06
0.00140293
8.01444e-05
8.02496e-05
0.000279892
1.69085e-08
0.000279742
5.36215e-08
0.0011559
3.10151e-07
-2.47636e-07
0.00193375
-7.29177e-06
-5.41507e-05
0.00597296
-0.000122075
0.00190372
-1.62367e-05
0.00115166
-2.35984e-07
3.12026e-07
-0.000279767
0.000279855
-1.92768e-07
1.19454e-07
-8.01174e-05
8.01771e-05
-0.000386385
0.00909469
-0.00033712
0.011933
-0.000252622
0.0142452
-0.000183101
0.0158082
-0.000123414
0.0164457
-8.00976e-05
0.0160912
-4.26464e-05
0.0148021
-1.74215e-05
0.0127537
-4.94921e-06
0.0101724
2.89739e-06
0.00729572
3.46724e-06
0.00432422
2.81968e-06
0.00140011
8.0194e-05
8.02476e-05
0.00028015
1.43981e-08
0.000279798
1.05126e-07
0.00114457
3.69521e-07
-5.66503e-07
0.00187936
-2.97937e-05
-0.000171264
0.00596767
-0.000209835
0.00182086
-6.35761e-05
0.00112977
-1.55576e-06
1.18829e-07
-0.000280045
0.00027974
6.94673e-08
6.47607e-08
-8.03671e-05
8.01743e-05
-0.000334044
0.00909161
-0.000238915
0.0119193
-0.000174903
0.014237
-0.000128829
0.0158136
-8.85306e-05
0.0164541
-5.58401e-05
0.0161044
-2.97107e-05
0.0148144
-1.08103e-05
0.0127595
3.67556e-06
0.0101716
6.42129e-06
0.00729276
7.07553e-06
0.00431997
3.37903e-06
0.00139673
8.01887e-05
8.02938e-05
0.000280056
5.27194e-08
0.000279602
-1.12676e-07
0.00110405
-4.32447e-07
-3.64501e-06
0.00178352
-0.000133918
-0.000180492
0.00591208
-9.79661e-05
0.00175156
-0.000177884
0.00105334
-1.08994e-05
-1.96763e-06
-0.000279551
0.000278241
-2.46713e-07
1.70795e-07
-8.03586e-05
8.04281e-05
-0.000182856
0.00903555
-0.000146765
0.0118911
-0.00011641
0.0142246
-8.393e-05
0.015809
-5.73056e-05
0.0164556
-3.1706e-05
0.0161064
-1.39114e-05
0.0148175
-3.11032e-07
0.0127635
7.81903e-06
0.0101702
1.28898e-05
0.00728695
9.995e-06
0.00431335
3.79505e-06
0.00139294
8.04808e-05
8.03681e-05
0.000278018
-2.08897e-07
0.000274594
-2.21065e-07
0.000972102
-1.45758e-05
-3.81016e-05
0.00170691
-0.000135839
-6.22142e-05
0.00580929
-1.78534e-05
0.00166672
-5.77713e-05
0.000924656
-6.65191e-05
-6.39199e-05
-0.000273217
0.00026413
-1.81217e-06
-5.90693e-07
-8.05389e-05
8.02922e-05
-8.52518e-05
0.00897404
-8.11663e-05
0.0118559
-6.90229e-05
0.0142096
-5.20995e-05
0.0158038
-3.35336e-05
0.0164574
-1.52166e-05
0.0161077
-5.48282e-07
0.0148177
1.19619e-05
0.0127594
1.58094e-05
0.0101673
1.44776e-05
0.00728247
9.51068e-06
0.00430763
4.81597e-06
0.00138812
8.00833e-05
7.98622e-05
0.000253623
-4.06907e-06
0.000225732
-1.02102e-05
0.000857586
-4.90443e-05
-1.97241e-05
0.00162753
-2.30329e-05
-1.83392e-05
0.00574223
1.51061e-07
0.00161686
-7.18137e-06
0.000807914
-1.35312e-06
-6.74608e-06
-0.000184345
0.000158473
-4.06468e-05
-2.25333e-05
-7.92715e-05
7.74594e-05
-4.03536e-05
0.00893322
-4.2821e-05
0.0118297
-3.8099e-05
0.0141956
-2.8969e-05
0.0157993
-1.5802e-05
0.016458
-2.88121e-06
0.01611
1.29483e-05
0.0148167
1.58502e-05
0.0127593
2.06593e-05
0.0101611
1.75333e-05
0.00727444
1.35913e-05
0.00429886
5.06549e-06
0.00138306
7.33903e-05
6.31801e-05
0.000109428
8.97043e-05
0.000785585
-7.31059e-07
2.65168e-08
0.00160218
-3.65339e-06
-7.2578e-06
0.00570584
3.29633e-06
0.00160269
-3.57627e-07
0.000778395
2.83189e-07
-2.74704e-07
-8.29582e-05
8.16051e-05
-4.06468e-05
-1.79651e-05
0.00890837
-2.16828e-05
0.0118133
-1.83652e-05
0.014185
-7.34628e-06
0.0157908
5.11842e-07
0.0164546
1.27489e-05
0.0161102
1.58783e-05
0.0148167
2.52973e-05
0.0127547
2.48843e-05
0.0101538
2.31815e-05
0.00726485
1.56649e-05
0.00428826
5.8773e-06
0.00137718
8.0874e-05
8.09005e-05
0.000774665
-4.34156e-08
1.19957e-07
0.00159643
-1.00728e-06
-4.36015e-06
0.00568835
3.88715e-06
0.00159861
1.12306e-06
0.000774248
1.15277e-07
-5.5897e-08
-8.06258e-05
8.0909e-05
-4.5143e-06
0.0088912
-8.25212e-06
0.0118032
-3.47488e-06
0.0141812
3.48942e-06
0.0157878
1.41951e-05
0.0164532
1.99333e-05
0.0161062
3.18023e-05
0.0148102
3.25765e-05
0.012747
3.24624e-05
0.0101445
2.77549e-05
0.00725276
1.74082e-05
0.00427673
6.80469e-06
0.00137037
8.08655e-05
8.09855e-05
0.000772978
1.01107e-07
1.61958e-07
0.00159416
9.22673e-08
-2.0979e-06
0.00568246
3.47139e-06
0.00159796
8.01416e-08
0.000774023
1.91729e-07
-1.13499e-07
-8.09296e-05
8.10449e-05
-2.25294e-07
0.00888317
2.25507e-06
0.0117974
5.52531e-06
0.0141791
1.18565e-05
0.0157902
2.39821e-05
0.0164491
3.06673e-05
0.0161073
3.1942e-05
0.0148108
3.61871e-05
0.0127433
3.49071e-05
0.0101373
3.11418e-05
0.00723903
2.06909e-05
0.00426284
7.79338e-06
0.00136258
8.11459e-05
8.13079e-05
0.000773953
8.69884e-08
7.435e-08
0.00159551
3.58226e-07
-9.70273e-07
0.00568045
2.75478e-06
0.0015981
8.74112e-07
0.000774147
3.27452e-08
-1.45769e-07
-8.11944e-05
8.13861e-05
2.72337e-06
0.0088827
8.91087e-06
0.011794
1.57657e-05
0.0141752
2.31925e-05
0.015791
2.70923e-05
0.0164527
4.05498e-05
0.0160987
4.62861e-05
0.0148007
4.84028e-05
0.0127298
4.27538e-05
0.0101257
3.59418e-05
0.00722378
2.31353e-05
0.0042475
8.7634e-06
0.00135382
8.14731e-05
8.15474e-05
0.000774387
5.81662e-08
5.93263e-08
0.0015973
-1.71728e-07
5.73106e-08
0.00568032
2.79134e-06
0.00159916
8.98543e-07
0.000775334
4.70821e-08
-1.19724e-07
-8.14017e-05
8.14344e-05
7.1866e-06
0.00888443
1.39749e-05
0.0117958
1.83328e-05
0.0141801
3.22209e-05
0.0157858
4.21741e-05
0.0164511
4.70258e-05
0.016098
4.95983e-05
0.0147995
5.36423e-05
0.0127189
5.069e-05
0.010111
4.13496e-05
0.00720556
2.69313e-05
0.00422933
9.64289e-06
0.00134417
8.14925e-05
8.15518e-05
0.000775029
6.34187e-08
6.94294e-08
0.00159856
6.58951e-07
1.49514e-07
0.00568447
2.88699e-06
0.00160074
6.08283e-07
0.0007759
-5.81527e-08
8.57452e-08
-8.14321e-05
8.14792e-05
8.49308e-06
0.00888991
1.54205e-05
0.0117988
2.78975e-05
0.0141844
3.53999e-05
0.0157926
4.41693e-05
0.0164539
5.44356e-05
0.0160931
6.17342e-05
0.0147914
6.07084e-05
0.0127089
5.82873e-05
0.010094
4.52227e-05
0.00718727
3.0019e-05
0.00420896
1.09812e-05
0.00133319
8.15426e-05
8.1612e-05
0.000776417
6.58696e-08
7.53967e-08
0.0016002
6.93739e-07
1.34008e-06
0.00568856
3.06103e-06
0.00160244
6.44355e-07
0.000776915
5.16484e-08
5.94848e-08
-8.16977e-05
8.16396e-05
1.0466e-05
0.00889486
1.98798e-05
0.0118068
2.9049e-05
0.0141908
4.19632e-05
0.0157948
5.52626e-05
0.0164531
6.28198e-05
0.0160921
7.10416e-05
0.0147811
7.01887e-05
0.012697
6.58969e-05
0.0100734
5.40012e-05
0.00716329
3.25213e-05
0.00418742
1.1888e-05
0.0013213
8.17054e-05
8.17808e-05
0.000777673
-1.17689e-07
5.31621e-08
0.00160305
7.29944e-07
3.89617e-07
0.00569558
3.06153e-06
0.00160531
7.99724e-07
0.000778204
5.60104e-08
5.73571e-08
-8.18403e-05
8.18919e-05
1.17333e-05
0.00890301
2.18772e-05
0.0118139
3.53342e-05
0.0141974
4.67757e-05
0.0158033
6.1718e-05
0.0164542
7.23198e-05
0.0160908
7.78092e-05
0.0147735
8.42841e-05
0.0126786
7.5491e-05
0.0100519
6.05154e-05
0.0071353
3.78367e-05
0.00416147
1.21823e-05
0.00130912
8.17742e-05
8.18274e-05
0.000778738
6.80241e-08
1.27701e-07
0.00160494
7.64544e-07
1.47974e-06
0.00570272
3.11323e-06
0.00160725
7.4395e-07
0.000779526
9.36325e-08
-8.25763e-08
-8.18847e-05
8.19407e-05
1.17873e-05
0.0089131
2.4475e-05
0.0118248
4.14534e-05
0.0142027
5.8835e-05
0.0158062
7.20872e-05
0.0164545
8.57245e-05
0.0160829
9.35178e-05
0.0147642
9.28963e-05
0.0126612
8.61009e-05
0.0100263
6.63301e-05
0.0071068
4.03074e-05
0.00413334
1.05991e-05
0.00129852
8.20087e-05
8.21364e-05
0.000780145
7.23476e-08
7.38596e-08
0.00160796
7.75917e-07
3.26537e-07
0.00571143
2.7539e-06
0.00161031
7.56857e-07
0.000780953
4.91936e-08
-1.13618e-07
-8.20538e-05
8.21475e-05
1.31306e-05
0.00892444
2.84801e-05
0.0118378
4.60499e-05
0.0142155
6.52232e-05
0.015813
8.08743e-05
0.0164593
9.39895e-05
0.0160824
0.000105618
0.0147515
0.000101755
0.0126455
9.52536e-05
0.00999737
7.55132e-05
0.0070716
4.30657e-05
0.00410088
1.31964e-05
0.00128533
8.22198e-05
8.22937e-05
0.00078159
6.79862e-08
7.07943e-08
0.00160997
6.73283e-07
8.71153e-07
0.00572253
1.15086e-06
0.00161226
4.63213e-07
0.000782402
-1.12101e-07
5.71322e-08
-8.218e-05
8.22292e-05
1.62704e-05
0.00893665
3.29493e-05
0.0118509
5.53265e-05
0.0142254
7.16272e-05
0.0158223
9.2498e-05
0.0164608
0.000107929
0.0160801
0.000117159
0.0147361
0.000120116
0.0126207
0.000106883
0.009966
8.14311e-05
0.00703323
4.36381e-05
0.00407044
3.1694e-05
0.00125363
8.22972e-05
8.2368e-05
0.000782932
6.33256e-08
7.99945e-08
0.00161326
-1.3206e-07
2.06623e-06
0.00573413
2.61086e-06
0.00161621
-1.80102e-06
0.000783196
1.12834e-07
8.63199e-08
-8.24251e-05
8.2313e-05
1.99794e-05
0.00894962
3.97034e-05
0.0118665
5.89602e-05
0.0142381
8.28567e-05
0.0158319
0.000105787
0.0164629
0.000123759
0.0160735
0.000132878
0.0147234
0.000128804
0.0125987
0.000116255
0.00993117
8.68273e-05
0.00699004
7.42724e-05
0.00402786
7.38864e-05
8.23764e-05
8.24563e-05
0.000783158
3.37648e-08
-1.27832e-07
0.00162178
-3.50239e-06
4.16943e-06
0.00574446
5.47401e-06
0.00161935
6.51752e-06
-1.47353e-06
0.000781354
1.11224e-08
-8.24206e-09
-8.25427e-05
8.26555e-05
2.44135e-05
0.00896491
4.17495e-05
0.0118837
6.68625e-05
0.014254
9.21096e-05
0.0158456
0.000115635
0.0164711
0.000134972
0.0160714
0.000146861
0.0147053
0.00014807
0.0125669
0.00012997
0.00988803
0.000114916
0.0069494
0.000135813
8.26893e-05
8.25614e-05
0.000461071
-9.77715e-09
-2.47117e-07
0.000317038
0.00162207
-5.56523e-07
2.00281e-06
5.22853e-06
0.00575817
5.4773e-06
0.00162381
1.40502e-06
2.32518e-06
0.00048631
-1.87216e-05
0.000491701
-6.86432e-06
-8.25532e-05
8.25643e-05
2.40844e-05
0.00898258
4.88058e-05
0.0119018
7.5013e-05
0.0142711
0.000107865
0.0158534
0.000135513
0.0164705
0.00015496
0.0160633
0.000165315
0.0146881
0.000162156
0.0125347
0.000155121
0.00984783
0.000179205
8.25545e-05
8.23074e-05
0.000295247
3.06894e-06
0.000493524
-2.3795e-06
0.000496231
-7.04124e-07
0.00162593
1.25528e-06
1.85471e-06
4.38084e-06
0.00577357
4.30519e-06
0.00162922
7.73466e-07
1.41514e-06
0.000497075
5.60984e-07
0.000498187
1.21338e-06
0.000289747
-1.36457e-06
2.74245e-05
0.00900396
5.34431e-05
0.0119233
8.57257e-05
0.0142933
0.000117216
0.0158717
0.000145888
0.0164796
0.000171619
0.016057
0.000177948
0.0146723
0.00018721
0.0125026
0.000210871
8.53764e-05
0.000288431
-1.06291e-06
0.000288096
-3.69636e-07
0.000498785
6.56879e-07
0.00049984
7.99281e-07
0.00163165
6.14986e-07
1.3414e-06
5.59763e-06
0.00579064
4.75957e-06
0.00163426
6.48269e-07
1.04501e-06
0.000500387
2.27081e-07
0.000501005
7.97117e-07
0.000288602
5.53295e-08
0.000289721
9.39584e-08
8.40118e-05
3.0204e-05
0.0090272
6.17835e-05
0.0119473
9.72674e-05
0.0143132
0.000134769
0.0158828
0.000165903
0.0164853
0.000183283
0.0160516
0.000208142
0.0146513
0.000229245
8.29489e-05
8.25793e-05
0.000290113
2.64913e-07
0.000290662
2.50268e-07
0.000500965
6.54632e-07
0.000502089
2.17094e-07
0.00163796
7.49808e-07
1.14573e-06
6.08542e-06
0.00580953
5.22778e-06
0.00164083
7.35352e-07
1.15843e-06
0.00050233
4.07414e-07
0.000502838
5.36878e-07
0.000290701
1.88634e-07
0.000291336
1.62409e-07
8.26346e-05
8.27286e-05
3.62411e-05
0.00905274
6.82864e-05
0.0119763
0.000109721
0.0143383
0.000148027
0.0159007
0.000176364
0.0164922
0.000211717
0.0160481
0.000234835
8.29935e-05
8.32438e-05
0.000291832
1.58458e-07
0.000292093
-4.44693e-08
0.000503265
3.22974e-07
0.000503957
4.53493e-07
0.00164484
8.33115e-07
1.23504e-06
5.72374e-06
0.00583412
5.92864e-06
0.00164806
8.14642e-07
1.19553e-06
0.000504227
4.65737e-07
0.000505174
2.11129e-07
0.000292383
1.17832e-07
0.000292805
1.15278e-07
8.34324e-05
8.35948e-05
3.89772e-05
0.00908205
8.07603e-05
0.0120052
0.000124787
0.0143615
0.000161408
0.0159156
0.000200268
0.0165037
0.000223912
8.37533e-05
8.37088e-05
0.000293006
1.21847e-07
0.00029333
1.29699e-07
0.00050523
7.77371e-07
0.000505962
5.02963e-07
0.00165135
9.14978e-07
1.52342e-06
7.54077e-06
0.00585901
6.54056e-06
0.00165522
7.31359e-07
1.32689e-06
0.000506696
8.08476e-08
0.000507288
6.03742e-07
0.000293835
-3.96748e-08
0.000293909
1.36808e-07
8.38266e-05
8.39419e-05
4.67206e-05
0.00911609
9.13837e-05
0.0120386
0.000134642
0.0143883
0.000175641
0.0159403
0.000199113
8.40638e-05
8.41935e-05
0.0002945
1.86251e-07
0.000294854
1.498e-07
0.000507427
7.75814e-07
0.000508806
1.43987e-07
0.00165999
1.09155e-06
1.67737e-06
8.98427e-06
0.00588899
7.75985e-06
0.00166407
9.30451e-07
1.52864e-06
0.000509033
5.04923e-07
0.000509685
6.74309e-07
0.000294811
1.23534e-07
0.000295476
-6.14502e-08
8.41538e-05
8.42906e-05
5.56143e-05
0.00915186
0.000106939
0.0120663
0.000146672
0.0144173
0.00016045
8.44769e-05
8.46267e-05
0.000296111
1.40444e-07
0.000296127
1.28431e-07
0.000510313
4.64294e-07
0.00051138
6.09669e-07
0.00166985
1.30243e-06
1.90157e-06
1.00733e-05
0.00592464
9.89409e-06
0.00167472
1.16326e-06
1.72416e-06
0.0005117
6.10565e-07
0.00051272
5.0887e-07
0.000296437
1.95405e-07
0.000297138
-2.74638e-08
8.47502e-05
8.46888e-05
7.01926e-05
0.00918861
0.000112003
0.012101
0.000117763
8.48292e-05
8.49576e-05
0.000297449
1.53594e-07
0.000297893
1.65406e-07
0.000513168
8.54279e-07
0.000514339
7.30748e-07
0.00168111
2.108e-06
1.57965e-06
1.37075e-05
0.0059665
1.46226e-05
0.00168768
1.92765e-06
1.39311e-06
0.000515187
3.15616e-07
0.000515947
9.63393e-07
0.000298329
1.74376e-07
0.00029866
1.78081e-07
8.51531e-05
8.51256e-05
8.20416e-05
0.00921857
7.4e-05
8.52792e-05
8.54446e-05
0.000299289
2.25148e-07
0.000299992
2.84878e-08
0.000517111
9.44534e-07
0.00051828
4.10773e-07
0.00169639
2.51531e-06
2.48716e-06
1.91893e-05
0.00600603
2.33158e-05
0.00170468
2.88192e-06
3.44652e-06
0.0005194
8.06838e-07
0.000519757
1.03682e-06
0.000300126
1.81413e-07
0.000300901
1.88425e-07
8.5619e-05
8.57971e-05
4.44216e-05
8.60222e-05
8.60507e-05
0.000301638
2.06975e-07
0.000301844
2.0492e-07
0.000521188
1.08399e-06
0.000523041
6.33663e-07
0.00171564
4.08958e-06
4.13881e-06
4.25035e-05
1.56866e-05
0.00172656
4.92708e-06
7.47083e-06
0.000524696
1.22748e-06
0.000526202
1.94005e-06
0.000302622
2.92609e-08
0.000303462
1.96682e-07
8.62321e-05
8.64205e-05
8.66275e-05
8.68324e-05
0.000304319
2.2671e-07
0.000304711
2.418e-07
0.000528566
1.72574e-06
0.000530437
2.26828e-06
0.00174422
1.00124e-05
1.48258e-05
2.14467e-05
8.87134e-06
0.000532891
2.47239e-06
0.000536629
3.73261e-06
0.000305637
3.01638e-07
0.000307193
3.8324e-07
8.68616e-05
8.70583e-05
8.7285e-05
8.75268e-05
0.000308492
4.27333e-07
0.000310157
6.03151e-07
0.000539718
6.92346e-06
0.0005442
1.03437e-05
0.000550392
1.52551e-05
1.3355e-05
0.000312027
6.02606e-07
0.000314772
9.8765e-07
8.78284e-05
8.82116e-05
8.8639e-05
8.92421e-05
0.000319653
2.04153e-06
0.000325252
4.74534e-06
0.000330495
1.00118e-05
2.05845e-05
8.98447e-05
9.08323e-05
9.28738e-05
9.76191e-05
0.000107631
1.3737e-05
-1.37368e-05
-5.89343e-05
2.00372e-05
5.26345e-05
7.0872e-06
-2.08243e-05
-7.12263e-05
1.9379e-05
-0.00011755
2.68569e-05
0.00011073
1.62874e-05
3.63474e-05
3.50775e-06
-2.43317e-05
1.18606e-05
-7.95803e-05
-0.000127842
2.96698e-05
-2.29318e-05
-0.000407895
6.38397e-05
0.000393843
0.000104086
6.87067e-06
2.94773e-05
1.55112e-06
-2.58836e-05
1.86599e-05
-0.000134642
6.9792e-06
-8.50087e-05
6.72781e-05
-0.000426842
-4.149e-05
-0.00142671
0.00138039
0.00015166
-1.47374e-05
0.000373858
-6.76827e-06
9.62188e-05
2.37189e-06
2.7105e-05
8.09327e-07
-2.66932e-05
1.44693e-05
-0.000142132
4.04169e-06
-8.8241e-05
-4.30379e-05
0.000161304
-0.0014777
-7.62822e-06
-0.00044778
-2.48573e-05
0.000108786
-1.16873e-05
-0.00200175
0.00194744
0.000205977
0.00035524
-4.38598e-06
-1.85448e-06
9.1822e-05
1.04892e-06
2.6055e-05
3.05233e-07
-2.69982e-05
-0.000145718
2.30601e-06
-9.02397e-05
0.000218152
-0.00205859
-3.12312e-05
0.000132671
-0.00155981
-1.93139e-05
-6.45749e-06
-0.000468983
-3.56743e-06
0.000180449
-1.44716e-06
-0.00233205
0.00227305
0.00026498
8.84845e-05
-4.80557e-07
8.71099e-05
2.55744e-05
3.41199e-07
-2.73374e-05
-0.000149869
1.60695e-06
-9.15042e-05
0.000278612
-0.0023925
0.000212524
-0.00213844
0.000118163
-0.0016438
-1.61009e-05
-1.80587e-05
-0.000481818
-2.57911e-06
-3.89651e-06
-0.00015183
0.000247494
-2.16644e-07
-0.00240658
0.00235158
0.000319985
2.95093e-07
-2.76323e-05
1.52648e-06
-9.2735e-05
0.000333247
-0.00246121
0.000285544
-0.00246552
0.000210106
-0.00223037
0.000125473
-0.00173022
-2.07052e-05
-1.83427e-05
0.000494104
-0.000504312
-1.57565e-06
-4.31152e-06
-2.9883e-06
-2.78066e-06
0.0001542
-1.27537e-06
-0.000155502
0.000305923
-0.00220867
0.00216695
0.000361718
2.89473e-07
-2.79207e-05
-9.37203e-05
0.000372752
-0.00224817
0.000345372
-0.00252103
0.000293495
-0.0025489
0.000222142
-0.00232704
0.000149714
-0.00182666
-3.19432e-05
-2.1328e-05
0.000515834
-0.000528606
-7.92662e-06
-6.81727e-06
0.000159094
-0.0001508
-9.86749e-06
0.000158484
-3.70014e-06
0.000157192