/*--------------------------------*- C++ -*----------------------------------*\
| =========                 |                                                 |
| \\      /  F ield         | OpenFOAM: The Open Source CFD Toolbox           |
|  \\    /   O peration     | Version:  v1912                                 |
|   \\  /    A nd           | Website:  www.openfoam.com                      |
|    \\/     M anipulation  |                                                 |
\*---------------------------------------------------------------------------*/
FoamFile
{
    version     2.0;
    format      ascii;
    class       surfaceScalarField;
    location    "460";
    object      phi;
}
// * * * * * * * * * * * * * * * * * * * * * * * * * * * * * * * * * * * * * //

dimensions      [0 3 -1 0 0 0 0];
oriented        oriented;


internalField   nonuniform List<scalar> 
7351
(
-3.56095e-06
0.00134735
-1.32634e-05
0.00413269
-2.80512e-06
0.00135015
-3.391e-05
0.00695056
-1.35439e-05
0.00414343
-3.84317e-06
0.001354
-6.14379e-05
0.00968811
-3.36007e-05
0.00697062
-1.42307e-05
0.00415381
-2.79315e-06
0.00135679
-9.49237e-05
0.0121658
-6.04368e-05
0.00971495
-3.20635e-05
0.00698845
-1.15686e-05
0.00416259
-2.83105e-06
0.00135962
-0.000143451
0.0141815
-9.47636e-05
0.0122001
-5.59502e-05
0.00973883
-3.0408e-05
0.00700729
-1.1517e-05
0.00417127
-2.81718e-06
0.00136243
-0.000184833
0.0155121
-0.000136891
0.0142237
-9.18291e-05
0.012236
-5.55541e-05
0.00976398
-2.59569e-05
0.00702173
-1.13578e-05
0.00417981
-1.82157e-06
0.00136425
-0.000236627
0.0160074
-0.000186
0.0155612
-0.000132849
0.0142647
-8.61131e-05
0.0122665
-4.58086e-05
0.00978383
-2.27799e-05
0.00703315
-9.37076e-06
0.00418736
-1.76943e-06
0.00136602
-0.000276703
0.0155679
-0.000230322
0.0160517
-0.000177304
0.0156056
-0.000120623
0.0142992
-7.13323e-05
0.012292
-4.15526e-05
0.0098026
-1.97811e-05
0.00704356
-7.3151e-06
0.00419291
-1.66838e-06
0.00136769
-0.000311035
0.0142459
-0.000279129
0.0156168
-0.000218759
0.0160931
-0.000150718
0.0156357
-9.96267e-05
0.0143275
-6.40471e-05
0.0123145
-3.72586e-05
0.00982008
-1.82745e-05
0.00705452
-6.44234e-06
0.00419768
-1.72342e-06
0.00136941
-0.000335458
0.012165
-0.000322718
0.0142895
-0.000258773
0.0156568
-0.000186207
0.0161286
-0.000130021
0.0156661
-8.27466e-05
0.0143462
-5.23122e-05
0.0123296
-2.77895e-05
0.00982959
-1.53146e-05
0.00706339
-6.9531e-06
0.00420291
-1.74163e-06
0.00137115
-0.000343327
0.00952586
-0.000351968
0.0121943
-0.000277148
0.0143079
-0.00020617
0.0156767
-0.00014824
0.0161468
-0.000104215
0.0156876
-6.92926e-05
0.0143632
-4.26299e-05
0.0123444
-2.73224e-05
0.0098416
-1.19629e-05
0.0070684
-4.35324e-06
0.00420552
-1.34379e-06
0.0013725
0.00654759
-0.000193724
-0.000114259
-0.000372525
0.00954642
-0.00028678
0.0122039
-0.000211547
0.0143132
-0.000159263
0.0156878
-0.000112711
0.0161553
-7.88634e-05
0.0156972
-5.12314e-05
0.0143718
-3.566e-05
0.0123528
-1.8158e-05
0.00984779
-1.20294e-05
0.00707608
-6.07279e-06
0.00421025
-7.19342e-07
0.00137322
0.00655306
-0.000177148
-0.000200845
-0.00215261
0.0021109
-0.000152007
-8.41629e-05
-0.000259686
0.00951932
-0.000190765
0.0121831
-0.000150822
0.0143048
-0.000110095
0.0156851
-8.71796e-05
0.0161637
-6.4869e-05
0.0157108
-4.52949e-05
0.0143814
-3.07693e-05
0.0123654
-2.27756e-05
0.00985854
-1.15491e-05
0.00708155
-4.84158e-06
0.00421437
-1.45325e-06
0.00137467
0.00648318
-5.96784e-05
-0.000130127
-0.00209326
0.00206949
-0.000153377
-0.000183211
-0.0013794
0.00132151
-6.22969e-05
-3.18251e-05
-2.48932e-05
-0.000141097
0.00946966
-0.000119125
0.0121514
-9.51529e-05
0.0142898
-7.90924e-05
0.015677
-6.23523e-05
0.0161611
-4.58494e-05
0.0157114
-3.94836e-05
0.0143901
-2.56506e-05
0.0123683
-1.72679e-05
0.00986426
-1.24101e-05
0.00708912
-5.61862e-06
0.00421853
-2.23105e-06
0.0013769
0.00639861
-1.07982e-05
-4.57306e-05
-0.00202118
0.00199783
-3.63256e-05
-8.18186e-05
-0.00130384
0.00125963
-3.8939e-05
-7.02221e-05
-8.31245e-05
-8.24165e-05
-0.000417618
0.000390574
-3.52532e-05
-0.000431509
-1.79341e-05
-9.68835e-06
-6.77903e-05
0.00941832
-6.50328e-05
0.0121213
-6.19635e-05
0.0142727
-5.07454e-05
0.0156654
-4.33396e-05
0.0161586
-3.77294e-05
0.0157096
-3.19041e-05
0.0143964
-2.51028e-05
0.0123761
-2.17357e-05
0.00987358
-1.3508e-05
0.00709701
-7.67583e-06
0.00422398
-1.21198e-06
0.00137811
0.00634778
-4.5953e-07
-1.65004e-05
-0.00196929
0.00196468
-6.18856e-06
-1.71871e-05
-0.00120678
0.00117646
-7.97706e-07
-5.20314e-06
-2.19459e-05
-7.03003e-06
-0.000320976
0.000302012
-1.99758e-05
-0.000344234
-4.69639e-05
0.000365386
-5.79357e-05
-6.12649e-05
-0.000238852
0.00021336
-9.76097e-06
-0.000252885
-3.90108e-06
-1.63089e-06
-3.4988e-05
0.00938828
-3.85552e-05
0.0120979
-3.70375e-05
0.014259
-3.79715e-05
0.0156601
-3.1999e-05
0.0161529
-3.35452e-05
0.0157112
-2.63933e-05
0.0143976
-2.87215e-05
0.0123831
-2.11052e-05
0.00988118
-1.55232e-05
0.00710486
-7.44202e-06
0.00423021
-2.88768e-06
0.001381
0.00631562
4.02756e-06
-6.86222e-06
-0.00195163
0.0019522
-1.03236e-06
-3.4509e-06
-0.00116073
0.00115454
1.05008e-06
-1.04695e-06
-1.79025e-06
3.30413e-07
-0.000277132
0.000276737
-4.03153e-07
-0.000281835
-5.00302e-07
0.000286753
-6.6863e-06
-2.11238e-06
-0.000108178
8.8202e-05
-0.000155142
0.0001761
-2.0676e-05
-4.03065e-05
-7.07435e-05
6.09825e-05
-7.46446e-05
-1.45968e-05
0.00936432
-2.35182e-05
0.0120844
-2.47473e-05
0.0142458
-2.24545e-05
0.0156505
-2.92481e-05
0.0161486
-2.59037e-05
0.0157108
-3.69777e-05
0.0144059
-3.3731e-05
0.0123957
-2.72099e-05
0.00989287
-1.85954e-05
0.00711601
-1.03562e-05
0.00423768
-1.96101e-06
0.00138296
0.00630156
3.67691e-06
-4.21177e-06
-0.00194604
0.00194918
8.87112e-07
-7.01302e-07
-0.00115111
0.00114979
2.59841e-07
2.53276e-08
-5.00241e-07
4.81643e-07
-0.000274258
0.000275105
2.03468e-07
-0.000275451
1.45991e-07
0.000274988
-4.08839e-08
-1.32958e-07
-7.8903e-05
7.84998e-05
-7.94033e-05
8.15157e-05
4.03065e-05
-6.1788e-06
0.00934698
-6.7491e-06
0.0120664
-1.2519e-05
0.0142359
-2.00643e-05
0.0156413
-2.54028e-05
0.0161481
-3.70321e-05
0.0157108
-3.42429e-05
0.0144064
-3.6833e-05
0.0124053
-3.09281e-05
0.0099052
-2.02955e-05
0.00712595
-1.07705e-05
0.00424648
-2.6631e-06
0.00138562
0.00629439
1.8995e-06
-9.0662e-07
-0.00194504
0.00194811
6.04089e-07
-6.9968e-08
-0.00114877
0.00114955
-1.59509e-07
2.71554e-07
-8.7663e-08
4.01611e-07
-0.00027501
0.000275204
6.57737e-08
-0.000275122
1.37042e-07
0.00027483
-2.25218e-07
1.89868e-07
-7.8472e-05
7.86754e-05
-7.8326e-05
7.84589e-05
-1.57121e-07
0.00934038
-6.39911e-06
0.0120603
-1.08435e-05
0.0142266
-1.48132e-05
0.0156308
-2.77858e-05
0.0161388
-4.11434e-05
0.0157177
-5.08016e-05
0.0144204
-4.38469e-05
0.0124182
-3.66465e-05
0.00992155
-2.57228e-05
0.0071409
-1.12289e-05
0.00425505
-3.42949e-06
0.00138905
0.00629162
1.98888e-06
6.22263e-07
-0.00194734
0.00194787
1.37112e-06
-1.35468e-07
-0.00114893
0.00114954
1.40873e-07
-1.47606e-07
2.12464e-07
3.33009e-07
-0.000275743
0.000275549
3.46149e-08
-0.000275428
-4.35102e-08
0.000275105
1.1087e-08
7.82913e-08
-7.87771e-05
7.88428e-05
-7.864e-05
7.84502e-05
-3.31421e-07
0.00933432
4.17229e-07
0.012049
-6.23889e-06
0.0142181
-2.54165e-05
0.0156284
-3.88573e-05
0.0161366
-4.98978e-05
0.0157168
-5.85988e-05
0.0144351
-5.77633e-05
0.0124394
-4.66417e-05
0.00994247
-2.7211e-05
0.00715688
-1.12856e-05
0.00426291
-2.36801e-06
0.00139142
0.00628889
1.91218e-06
4.82597e-07
-0.00194824
0.00194878
1.45091e-06
2.48022e-07
-0.00114868
0.00115012
2.5358e-07
-3.19161e-07
3.32663e-07
3.91243e-07
-0.000275712
0.000275896
-4.24297e-08
-0.00027602
1.59619e-07
0.00027581
-4.82244e-08
1.23162e-07
-7.88887e-05
7.89233e-05
-7.89322e-05
7.88539e-05
5.51624e-06
0.00932922
6.66589e-07
0.0120421
-1.013e-05
0.0142028
-2.47056e-05
0.0156142
-4.95312e-05
0.0161362
-6.6833e-05
0.015725
-7.22772e-05
0.0144496
-6.79143e-05
0.0124606
-4.96287e-05
0.00996488
-2.96623e-05
0.00717526
-1.43013e-05
0.00427484
-3.08171e-06
0.0013945
0.0062899
2.49127e-06
2.01729e-06
-0.00194834
0.00194996
2.95633e-07
9.19051e-07
-0.00115041
0.00115133
1.96902e-07
3.29812e-07
-3.09813e-07
2.72821e-07
-0.000276282
0.000276495
4.02129e-08
-0.000276744
1.43017e-07
0.000276214
1.38175e-08
-1.38565e-07
-7.91578e-05
7.91154e-05
-7.89982e-05
7.8875e-05
2.27617e-06
0.00932761
-2.67725e-06
0.0120347
-1.94103e-05
0.0141975
-4.26955e-05
0.0156074
-6.95748e-05
0.0161389
-9.10394e-05
0.0157438
-9.60785e-05
0.0144778
-7.91684e-05
0.0124902
-5.44695e-05
0.00998969
-3.01253e-05
0.00719108
-1.22495e-05
0.00428401
-3.39877e-06
0.0013979
0.0062898
3.87211e-07
1.99012e-06
-0.00195068
0.00195202
1.15343e-06
1.29715e-06
-0.00115208
0.00115194
2.60936e-07
1.79797e-07
-1.56158e-07
3.24147e-07
-0.000276598
0.000277039
-2.44518e-07
-0.000276428
1.60172e-07
0.000276255
-6.97608e-08
9.95786e-08
-7.91336e-05
7.91738e-05
-7.89906e-05
7.91292e-05
2.14016e-06
0.00932279
-5.91229e-06
0.0120212
-2.30159e-05
0.0141778
-5.86255e-05
0.0155964
-9.06033e-05
0.0161385
-0.000111014
0.0157587
-0.000106567
0.0145052
-8.61527e-05
0.0125219
-5.93682e-05
0.0100189
-3.28185e-05
0.00721165
-1.35626e-05
0.00429417
-2.85908e-06
0.00140076
0.00628801
1.97446e-06
1.95199e-06
-0.00195379
0.00195282
1.35424e-06
2.13231e-07
-0.00115318
0.00115434
-2.84523e-07
2.75747e-07
-2.75117e-07
3.30959e-07
-0.000277147
0.000277379
2.94863e-08
-0.000277061
9.3807e-08
0.000276882
1.01813e-09
1.45032e-07
-7.93638e-05
7.91192e-05
-7.92036e-05
7.9104e-05
-1.84448e-07
0.00931706
-1.33234e-05
0.0120115
-4.5447e-05
0.0141646
-8.76929e-05
0.0155935
-0.000128085
0.0161556
-0.000138012
0.0157902
-0.000128939
0.014548
-9.53336e-05
0.0125578
-5.90011e-05
0.0100451
-3.19644e-05
0.00723005
-1.14485e-05
0.00430276
-1.94106e-06
0.0014027
0.00628547
4.92285e-07
1.87052e-06
-0.00195391
0.00195548
4.0282e-07
8.6814e-07
-0.00115387
0.00115524
-1.7526e-07
1.59911e-07
3.25105e-07
3.5393e-07
-0.000277489
0.000277469
-2.63941e-07
-0.000277318
1.03838e-07
0.000277095
8.09226e-09
1.08697e-07
-7.93591e-05
7.93886e-05
-7.92653e-05
7.91203e-05
-2.43166e-06
0.00930617
-2.39538e-05
0.01199
-6.98321e-05
0.0141468
-0.000126218
0.0155917
-0.000162789
0.0161803
-0.000170188
0.0158314
-0.000135702
0.0145884
-9.82951e-05
0.0125971
-6.07213e-05
0.0100739
-2.84977e-05
0.0072471
-1.09806e-05
0.0043118
-1.79245e-06
0.00140449
0.00628052
5.65425e-07
1.94835e-06
-0.0019562
0.00195631
3.86308e-07
1.14909e-06
-0.00115559
0.00115604
1.61463e-07
-2.05157e-07
3.44687e-07
1.74957e-07
-0.000278044
0.000277837
3.18162e-08
-0.000277945
6.06014e-08
0.000277766
2.7828e-08
1.75232e-07
-7.96092e-05
7.93452e-05
-7.95053e-05
7.93966e-05
-8.52037e-06
0.00929074
-4.52026e-05
0.0119653
-0.000109414
0.0141299
-0.000170436
0.0155993
-0.00020508
0.0162152
-0.000182809
0.0158785
-0.000142616
0.0146327
-9.59172e-05
0.0126323
-5.14837e-05
0.0100969
-2.41056e-05
0.00726023
-8.76594e-06
0.00431877
-1.44296e-06
0.00140593
0.00627087
-8.01197e-07
1.929e-06
-0.00195727
0.00195744
3.89148e-07
9.90095e-07
-0.00115655
0.001157
2.65862e-07
-3.37194e-07
3.33616e-07
3.06294e-07
-0.000277944
0.000278347
-2.41819e-07
-0.000278236
8.65843e-08
0.000278118
6.34729e-08
5.74085e-08
-7.96089e-05
7.96407e-05
-7.95483e-05
7.9373e-05
-1.7775e-05
0.00926331
-7.66882e-05
0.0119326
-0.000161572
0.0141211
-0.000228605
0.0156228
-0.000230251
0.0162627
-0.000196569
0.0159325
-0.000142142
0.0146789
-8.60188e-05
0.0126668
-4.67585e-05
0.0101195
-2.06548e-05
0.00727211
-5.81789e-06
0.00432315
-3.87176e-07
0.00140632
0.00625358
-2.51238e-06
2.02772e-06
-0.0019581
0.00195719
1.05683e-07
1.26891e-06
-0.00115792
0.00115782
1.54945e-07
3.35025e-07
3.47776e-07
-2.76394e-07
-0.000278393
0.000278684
-2.53833e-08
-0.000278815
8.49752e-08
0.000278622
5.87133e-08
1.12931e-07
-7.98481e-05
7.96063e-05
-7.97615e-05
7.97041e-05
-3.84794e-05
0.0092251
-0.000130425
0.0119015
-0.000234469
0.0141269
-0.00027546
0.0156681
-0.000248691
0.0163148
-0.000187794
0.0159781
-0.000126246
0.0147191
-7.31826e-05
0.0126933
-3.87687e-05
0.0101376
-1.70649e-05
0.00728336
-3.45794e-06
0.00432622
-2.29286e-07
0.00140655
0.00622145
-8.37409e-06
2.02835e-06
-0.0019589
0.00195619
1.91071e-07
3.25198e-07
-0.00115891
0.00115903
-1.4709e-07
1.31453e-07
3.08293e-07
-1.27563e-07
-0.000279044
0.00027913
6.90199e-08
-0.000278565
-1.43984e-07
0.000278962
6.9762e-08
1.20462e-07
-7.98629e-05
7.98375e-05
-7.97779e-05
7.9665e-05
-7.69474e-05
0.00917162
-0.000208143
0.0118751
-0.000299152
0.0141506
-0.000296128
0.0157155
-0.000234431
0.0163614
-0.000168935
0.0160208
-0.000107306
0.0147533
-6.3298e-05
0.0127178
-3.24532e-05
0.010153
-9.90521e-06
0.00728981
-2.65186e-06
0.00432864
7.78186e-07
0.00140577
0.00616419
-1.88543e-05
-8.3801e-07
-0.00195775
0.00195107
-1.69492e-06
4.67402e-07
-0.00115888
0.00115903
-2.90152e-07
3.31243e-07
3.13453e-07
1.63709e-07
-0.000279271
0.000279116
8.10928e-09
-0.000279256
1.16706e-07
0.000279429
9.51876e-09
4.51134e-08
-7.98837e-05
7.99527e-05
-8.00277e-05
7.99072e-05
-0.000146548
0.00911003
-0.000309824
0.0118858
-0.000341501
0.014196
-0.000284351
0.0157654
-0.000209182
0.0164017
-0.000141209
0.0160547
-8.72309e-05
0.0147772
-4.79642e-05
0.0127333
-1.98984e-05
0.010163
-5.99334e-06
0.00729315
1.33498e-06
0.00432808
1.16714e-06
0.00140461
0.00607458
-4.62842e-05
-1.0657e-05
-0.00195181
0.00193711
-4.15689e-06
-1.5719e-06
-0.00115927
0.00115754
-1.05583e-07
1.44492e-07
3.19164e-07
-9.64918e-08
-0.000279939
0.000279589
5.99287e-08
-0.000279475
-1.32198e-07
0.000279417
1.25122e-08
1.05134e-07
-8.0124e-05
8.01321e-05
-8.00073e-05
7.99622e-05
-0.000277826
0.00907803
-0.000369763
0.0119141
-0.000318355
0.01423
-0.000237682
0.0157939
-0.000169024
0.0164295
-0.000107441
0.0160749
-6.40648e-05
0.0147933
-3.41165e-05
0.0127475
-1.15037e-05
0.0101685
-1.20368e-06
0.00729569
2.93042e-06
0.00432632
1.51603e-06
0.00140309
0.00597298
-0.000122069
-5.41545e-05
-0.00193375
0.00190371
-1.62453e-05
-7.29266e-06
-0.0011559
0.00115167
-2.34113e-07
3.13257e-07
3.09972e-07
-2.4731e-07
-0.000279766
0.000279853
-1.9284e-07
-0.000279741
1.19305e-07
0.000279891
1.68709e-08
5.3654e-08
-8.01176e-05
8.01775e-05
-8.02498e-05
8.01446e-05
-0.000386351
0.00909462
-0.000337097
0.0119328
-0.000252606
0.0142449
-0.000183092
0.015808
-0.000123409
0.0164455
-8.00952e-05
0.016091
-4.26458e-05
0.0148018
-1.74216e-05
0.0127534
-4.94958e-06
0.0101723
2.89694e-06
0.00729572
3.46683e-06
0.00432437
2.81963e-06
0.00140027
0.0059677
-0.00020982
-0.000171251
-0.00187935
0.00182086
-6.35733e-05
-2.9798e-05
-0.00114457
0.00112977
-1.55698e-06
1.17457e-07
3.69773e-07
-5.66251e-07
-0.000280044
0.00027974
7.00984e-08
-0.000279796
6.506e-08
0.000280149
1.43033e-08
1.05095e-07
-8.03673e-05
8.01745e-05
-8.0248e-05
8.01943e-05
-0.000334032
0.00909155
-0.000238902
0.0119191
-0.000174893
0.0142367
-0.000128824
0.0158134
-8.8529e-05
0.0164539
-5.58406e-05
0.0161042
-2.97119e-05
0.0148141
-1.08113e-05
0.0127593
3.67513e-06
0.0101715
6.42128e-06
0.00729277
7.07569e-06
0.00432011
3.37929e-06
0.00139689
0.00591212
-9.79623e-05
-0.000180487
-0.00178352
0.00175157
-0.000177876
-0.000133911
-0.00110405
0.00105334
-1.08988e-05
-1.96765e-06
-4.33649e-07
-3.64577e-06
-0.000279551
0.000278241
-2.47057e-07
-0.000279603
1.70459e-07
0.000280057
5.2841e-08
-1.12523e-07
-8.03589e-05
8.0429e-05
-8.02939e-05
8.01888e-05
-0.000182847
0.0090355
-0.000146754
0.011891
-0.000116404
0.0142243
-8.39289e-05
0.0158088
-5.73074e-05
0.0164554
-3.1709e-05
0.0161062
-1.39139e-05
0.0148172
-3.12378e-07
0.0127633
7.8189e-06
0.0101701
1.28904e-05
0.00728695
9.99582e-06
0.0043135
3.79567e-06
0.0013931
0.00580934
-1.78515e-05
-6.22148e-05
-0.00170692
0.00166673
-5.77701e-05
-0.000135835
-0.000972106
0.000924667
-6.6518e-05
-6.39189e-05
-1.45751e-05
-3.81004e-05
-0.000273215
0.000264128
-1.81204e-06
-0.000274592
-5.90746e-07
0.000278016
-2.0926e-07
-2.21363e-07
-8.05398e-05
8.02927e-05
-8.03693e-05
8.04818e-05
-8.5244e-05
0.00897399
-8.11606e-05
0.0118557
-6.9022e-05
0.0142094
-5.21024e-05
0.0158036
-3.35384e-05
0.0164572
-1.52213e-05
0.0161075
-5.51578e-07
0.0148175
1.19606e-05
0.0127592
1.58098e-05
0.0101672
1.4479e-05
0.00728247
9.51222e-06
0.00430778
4.81706e-06
0.00138828
0.00574228
1.53381e-07
-1.83391e-05
-0.00162755
0.00161688
-7.18098e-06
-2.30333e-05
-0.000857601
0.00080793
-1.3529e-06
-6.74633e-06
-4.90446e-05
-1.9724e-05
-0.000184346
0.000158475
-4.06471e-05
-0.000225732
-2.25333e-05
0.000253622
-4.06894e-06
-1.021e-05
-7.92714e-05
7.74593e-05
-7.98621e-05
8.00835e-05
-4.03486e-05
0.00893317
-4.28195e-05
0.0118295
-3.81019e-05
0.0141954
-2.89749e-05
0.015799
-1.58087e-05
0.0164578
-2.8869e-06
0.0161098
1.29447e-05
0.0148165
1.58493e-05
0.0127591
2.06605e-05
0.010161
1.75357e-05
0.00727445
1.35938e-05
0.004299
5.06704e-06
0.00138321
0.00570589
3.29792e-06
-7.25781e-06
-0.00160219
0.0016027
-3.56841e-07
-3.65334e-06
-0.000785601
0.000778412
2.83348e-07
-2.748e-07
-7.31247e-07
2.66197e-08
-8.29601e-05
8.16072e-05
-8.97065e-05
0.00010943
-4.06471e-05
-6.31803e-05
7.33904e-05
-1.79642e-05
0.00890832
-2.16855e-05
0.0118131
-1.83715e-05
0.0141848
-7.35462e-06
0.0157906
5.0368e-07
0.0164544
1.27427e-05
0.01611
1.58751e-05
0.0148164
2.52972e-05
0.0127545
2.48867e-05
0.0101536
2.3185e-05
0.00726486
1.56683e-05
0.0042884
5.87933e-06
0.00137733
0.0056884
3.88762e-06
-4.36093e-06
-0.00159645
0.00159862
1.12363e-06
-1.00717e-06
-0.000774682
0.000774266
1.15443e-07
-5.5957e-08
-4.35452e-08
1.20035e-07
-8.06278e-05
8.09112e-05
-8.09026e-05
8.0876e-05
-4.51593e-06
0.00889115
-8.25711e-06
0.011803
-3.48328e-06
0.0141809
3.47959e-06
0.0157876
1.41862e-05
0.016453
1.99272e-05
0.016106
3.17998e-05
0.0148099
3.25776e-05
0.0127468
3.24662e-05
0.0101444
2.77598e-05
0.00725276
1.74127e-05
0.00427687
6.80713e-06
0.00137052
0.00568251
3.47117e-06
-2.09922e-06
-0.00159417
0.00159798
8.02172e-08
9.20466e-08
-0.000772996
0.000774041
1.91861e-07
-1.13547e-07
1.00996e-07
1.62027e-07
-8.09318e-05
8.10472e-05
-8.09877e-05
8.08677e-05
-2.2901e-07
0.00888312
2.24768e-06
0.0117973
5.51498e-06
0.0141789
1.18455e-05
0.0157899
2.39729e-05
0.0164489
3.06617e-05
0.0161071
3.19408e-05
0.0148106
3.61899e-05
0.0127431
3.49125e-05
0.0101372
3.11482e-05
0.00723903
2.06964e-05
0.00426298
7.79621e-06
0.00136273
0.0056805
2.75411e-06
-9.71784e-07
-0.00159552
0.00159812
8.73958e-07
3.57727e-07
-0.000773972
0.000774165
3.2835e-08
-1.4584e-07
8.68762e-08
7.43778e-08
-8.11967e-05
8.13886e-05
-8.13103e-05
8.11482e-05
2.71861e-06
0.00888265
8.90227e-06
0.0117939
1.57542e-05
0.014175
2.3181e-05
0.0157907
2.70835e-05
0.0164525
4.05455e-05
0.0160985
4.62866e-05
0.0148005
4.84074e-05
0.0127296
4.27611e-05
0.0101256
3.59497e-05
0.00722378
2.31418e-05
0.00424763
8.76666e-06
0.00135396
0.00568038
2.79035e-06
5.57912e-08
-0.00159732
0.00159918
8.98227e-07
-1.72344e-07
-0.000774406
0.000775353
4.7136e-08
-1.19781e-07
5.80461e-08
5.93224e-08
-8.14041e-05
8.14369e-05
-8.15499e-05
8.14755e-05
7.18069e-06
0.00888437
1.39649e-05
0.0117957
1.83203e-05
0.0141799
3.22091e-05
0.0157856
4.21662e-05
0.0164509
4.70234e-05
0.0160978
4.96012e-05
0.0147993
5.36491e-05
0.0127187
5.0699e-05
0.0101108
4.1359e-05
0.00720556
2.69389e-05
0.00422946
9.64667e-06
0.00134431
0.00568452
2.88571e-06
1.48057e-07
-0.00159857
0.00160076
6.07904e-07
6.58322e-07
-0.000775048
0.000775918
-5.81188e-08
8.56993e-08
6.33167e-08
6.93994e-08
-8.14346e-05
8.14817e-05
-8.15543e-05
8.1495e-05
8.48653e-06
0.00888985
1.54096e-05
0.0117986
2.78843e-05
0.0141842
3.53888e-05
0.0157924
4.41635e-05
0.0164537
5.44357e-05
0.0160929
6.17395e-05
0.0147912
6.07172e-05
0.0127087
5.82981e-05
0.0100939
4.52336e-05
0.00718726
3.00277e-05
0.00420908
1.09857e-05
0.00133333
0.00568861
3.05947e-06
1.33875e-06
-0.00160021
0.00160245
6.43877e-07
6.93112e-07
-0.000776436
0.000776932
5.16552e-08
5.9468e-08
6.57845e-08
7.53474e-08
-8.17002e-05
8.16421e-05
-8.16145e-05
8.15451e-05
1.04584e-05
0.0088948
1.98673e-05
0.0118066
2.90353e-05
0.0141905
4.19534e-05
0.0157946
5.52593e-05
0.0164529
6.28229e-05
0.0160918
7.10491e-05
0.0147809
7.01996e-05
0.0126968
6.59096e-05
0.0100732
5.40138e-05
0.00716328
3.25312e-05
0.00418754
1.18936e-05
0.00132144
0.00569562
3.05961e-06
3.88335e-07
-0.00160306
0.00160532
7.99206e-07
7.29335e-07
-0.00077769
0.000778221
5.59974e-08
5.73527e-08
-1.17752e-07
5.30874e-08
-8.18427e-05
8.18944e-05
-8.17832e-05
8.17079e-05
1.17243e-05
0.00890295
2.18631e-05
0.0118138
3.5321e-05
0.0141972
4.67687e-05
0.0158031
6.17184e-05
0.016454
7.23256e-05
0.0160906
7.78194e-05
0.0147733
8.42968e-05
0.0126784
7.55059e-05
0.0100517
6.05294e-05
0.00713528
3.78485e-05
0.00416158
1.21898e-05
0.00130925
0.00570276
3.11059e-06
1.47833e-06
-0.00160495
0.00160726
7.43296e-07
7.63929e-07
-0.000778754
0.000779543
9.35919e-08
-8.25516e-08
6.79891e-08
1.27608e-07
-8.1887e-05
8.19431e-05
-8.18297e-05
8.17766e-05
1.17751e-05
0.00891303
2.44592e-05
0.0118246
4.14423e-05
0.0142025
5.88315e-05
0.015806
7.20907e-05
0.0164542
8.57337e-05
0.0160827
9.35293e-05
0.014764
9.29115e-05
0.012661
8.61191e-05
0.0100261
6.63456e-05
0.00710678
4.03224e-05
0.00413345
1.06128e-05
0.00129863
0.00571146
2.74947e-06
3.24118e-07
-0.00160797
0.00161032
7.55955e-07
7.75219e-07
-0.000780161
0.000780968
4.91285e-08
-1.13584e-07
7.23413e-08
7.37375e-08
-8.20561e-05
8.21497e-05
-8.21387e-05
8.20111e-05
1.31136e-05
0.00892438
2.84649e-05
0.0118376
4.60428e-05
0.0142153
6.52249e-05
0.0158128
8.08855e-05
0.0164591
9.39979e-05
0.0160822
0.000105632
0.0147513
0.000101775
0.0126453
9.52713e-05
0.00999722
7.5523e-05
0.00707158
4.30972e-05
0.00410096
1.3207e-05
0.00128543
0.00572257
1.14145e-06
8.65383e-07
-0.00160997
0.00161226
4.61339e-07
6.72107e-07
-0.000781605
0.000782416
-1.122e-07
5.71875e-08
6.80002e-08
7.06521e-08
-8.21822e-05
8.22314e-05
-8.22958e-05
8.22221e-05
1.62504e-05
0.00893659
3.29387e-05
0.0118507
5.53255e-05
0.0142252
7.16294e-05
0.0158221
9.24935e-05
0.0164606
0.000107943
0.0160799
0.000117178
0.0147359
0.000120132
0.0126205
0.000106923
0.00996582
8.15081e-05
0.00703317
4.36554e-05
0.00407052
3.17124e-05
0.00125371
0.00573416
2.59848e-06
2.05386e-06
-0.00161326
0.00161621
-1.80667e-06
-1.35208e-07
-0.000782945
0.000783207
1.12699e-07
8.6334e-08
6.33345e-08
7.98181e-08
-8.24272e-05
8.2315e-05
-8.237e-05
8.22994e-05
1.99657e-05
0.00894957
3.96997e-05
0.0118663
5.89601e-05
0.0142379
8.41375e-05
0.0158304
0.000105808
0.0164627
0.000123778
0.0160733
0.000132895
0.0147231
0.000128851
0.0125985
0.000118929
0.0099284
8.68168e-05
0.00699001
7.42975e-05
0.00402793
7.39195e-05
0.0057445
5.46806e-06
4.16215e-06
-0.00162178
0.00161934
-1.47736e-06
6.5128e-06
-3.51205e-06
-0.000783167
0.000781357
1.08179e-08
-8.40454e-09
3.36773e-08
-1.28104e-07
-8.25445e-05
8.26572e-05
-8.24582e-05
8.23784e-05
2.44081e-05
0.00896486
4.17487e-05
0.0118836
6.68745e-05
0.0142551
9.08649e-05
0.0158454
0.000115654
0.0164709
0.000134989
0.0160712
0.000146891
0.0147051
0.000148054
0.0125694
0.00012735
0.00988786
0.000114949
0.00694936
0.00013586
0.00575821
5.47535e-06
5.22665e-06
-0.00162206
0.0016238
2.32384e-06
1.40345e-06
2.00009e-06
-5.59136e-07
-0.000486303
0.000491691
-6.86591e-06
-0.000461067
-1.87234e-05
0.000317036
-9.98488e-09
-2.47494e-07
-8.25544e-05
8.25653e-05
-8.25628e-05
8.26909e-05
2.40836e-05
0.00898252
4.88117e-05
0.0119016
7.50137e-05
0.014271
0.000107869
0.0158532
0.000135529
0.0164703
0.000154984
0.0160631
0.000165336
0.0146878
0.000162213
0.0125345
0.000155155
0.00984766
0.000179256
0.0057736
4.30484e-06
4.38136e-06
-0.00162592
0.00162921
1.41502e-06
7.73287e-07
1.85394e-06
1.25465e-06
-0.000497063
0.000498174
1.21282e-06
-0.000496219
5.60038e-07
-0.000493513
-7.0562e-07
-2.381e-06
-0.000295244
0.000289743
-1.36469e-06
3.06877e-06
8.25553e-05
8.23078e-05
2.74278e-05
0.00900391
5.34498e-05
0.0119232
8.57393e-05
0.0142931
0.000117229
0.0158715
0.00014591
0.0164794
0.000171644
0.0160568
0.000177976
0.014672
0.000187256
0.0125024
0.000210916
0.00579067
4.7601e-06
5.59889e-06
-0.00163163
0.00163424
1.04518e-06
6.48456e-07
1.34128e-06
6.15147e-07
-0.000500373
0.000500991
7.97224e-07
-0.000499827
2.26954e-07
-0.000498772
7.98799e-07
6.56432e-07
-0.000288594
0.000289713
9.38232e-08
-0.000288089
5.50132e-08
-0.000288425
-3.7004e-07
-1.06325e-06
-8.53765e-05
8.40118e-05
3.0209e-05
0.00902715
6.17904e-05
0.0119471
9.72844e-05
0.014313
0.000134789
0.0158826
0.000165929
0.0164851
0.000183311
0.0160514
0.000208186
0.0146511
0.000229288
0.00580957
5.22848e-06
6.08682e-06
-0.00163795
0.00164081
1.15872e-06
7.35624e-07
1.14576e-06
7.50086e-07
-0.000502317
0.000502825
5.37125e-07
-0.000502076
4.07492e-07
-0.000500952
2.16986e-07
6.54646e-07
-0.000290692
0.000291327
1.62471e-07
-0.000290654
1.88554e-07
-0.000290105
2.50118e-07
2.64743e-07
-8.26336e-05
8.27274e-05
-8.25785e-05
-8.29486e-05
3.62461e-05
0.00905269
6.82985e-05
0.0119761
0.000109739
0.0143381
0.000148052
0.0159005
0.000176393
0.016492
0.000211755
0.0160479
0.000234881
0.00583416
5.92933e-06
5.72472e-06
-0.00164483
0.00164805
1.19579e-06
8.14862e-07
1.23509e-06
8.33407e-07
-0.000504214
0.000505161
2.11428e-07
-0.000503944
4.65857e-07
-0.000503252
4.53439e-07
3.2307e-07
-0.000292374
0.000292796
1.1538e-07
-0.000292085
1.17825e-07
-0.000291823
-4.44982e-08
1.58443e-07
-8.34308e-05
8.35933e-05
-8.32423e-05
-8.29921e-05
3.89846e-05
0.00908201
8.07753e-05
0.0120051
0.000124809
0.0143613
0.000161436
0.0159154
0.000200304
0.0165035
0.000223956
0.00585906
6.54155e-06
7.54162e-06
-0.00165133
0.00165521
1.32714e-06
7.31473e-07
1.5234e-06
9.15123e-07
-0.000506683
0.000507275
6.04003e-07
-0.000505949
8.09632e-08
-0.000505217
5.02924e-07
7.77472e-07
-0.000293827
0.000293901
1.36922e-07
-0.000293321
-3.96622e-08
-0.000292997
1.29684e-07
1.21857e-07
-8.38251e-05
8.39405e-05
-8.37073e-05
-8.37517e-05
4.67294e-05
0.00911605
9.1401e-05
0.0120385
0.000134669
0.0143881
0.000175676
0.0159401
0.000199157
0.00588904
7.76139e-06
8.98504e-06
-0.00165998
0.00166406
1.52892e-06
9.30512e-07
1.67738e-06
1.09162e-06
-0.00050902
0.000509673
6.74541e-07
-0.000508794
5.04979e-07
-0.000507414
1.43912e-07
7.75859e-07
-0.000294803
0.000295468
-6.13373e-08
-0.000294845
1.23545e-07
-0.000294492
1.49795e-07
1.86271e-07
-8.41523e-05
8.42893e-05
-8.4192e-05
-8.40623e-05
5.56243e-05
0.00915183
0.000106961
0.0120662
0.000146706
0.0144171
0.000160493
0.0059247
9.89628e-06
1.00741e-05
-0.00166984
0.00167471
1.72458e-06
1.16334e-06
1.90162e-06
1.30243e-06
-0.000511688
0.000512708
5.09099e-07
-0.000511368
6.10608e-07
-0.0005103
6.09589e-07
4.64324e-07
-0.000296429
0.000297131
-2.73622e-08
-0.000296119
1.95403e-07
-0.000296104
1.28413e-07
1.40454e-07
-8.47489e-05
8.46876e-05
-8.46253e-05
-8.44755e-05
7.02007e-05
0.00918859
0.000112034
0.0121009
0.000117808
0.00596656
1.46302e-05
1.37108e-05
-0.0016811
0.00168768
1.3934e-06
1.92753e-06
1.57975e-06
2.10797e-06
-0.000515175
0.000515936
9.63655e-07
-0.000514327
3.1568e-07
-0.000513156
7.30663e-07
8.54275e-07
-0.000298322
0.000298653
1.78175e-07
-0.000297886
1.74375e-07
-0.000297441
1.65391e-07
1.53601e-07
-8.51518e-05
8.51245e-05
-8.49564e-05
-8.4828e-05
8.20624e-05
0.00921856
7.4045e-05
0.00600612
2.36153e-05
1.88878e-05
-0.00169638
0.00170468
3.44776e-06
2.88253e-06
2.48736e-06
2.51522e-06
-0.000519389
0.000519745
1.03691e-06
-0.000518268
8.06803e-07
-0.000517099
4.10698e-07
9.44549e-07
-0.000300118
0.000300893
1.88529e-07
-0.000299984
1.81412e-07
-0.000299282
2.84727e-08
2.2515e-07
-8.56179e-05
8.5796e-05
-8.54435e-05
-8.52781e-05
4.44674e-05
1.56993e-05
4.2525e-05
-0.00171534
0.00172655
7.47604e-06
4.93106e-06
4.13864e-06
4.08905e-06
-0.000524685
0.000526192
1.94103e-06
-0.00052303
1.22772e-06
-0.000521177
6.33493e-07
1.08386e-06
-0.000302614
0.000303455
1.96727e-07
-0.000301837
2.92375e-08
-0.000301631
2.04904e-07
2.06984e-07
-8.62311e-05
8.64196e-05
-8.60497e-05
-8.60212e-05
-0.00174424
8.87514e-06
2.14507e-05
1.48274e-05
1.00148e-05
-0.000532884
0.000536625
3.73482e-06
-0.000530426
2.47315e-06
-0.000528555
2.26789e-06
1.72616e-06
-0.00030563
0.000307187
3.83578e-07
-0.000304704
3.01645e-07
-0.000304312
2.41713e-07
2.26656e-07
-8.68607e-05
8.70575e-05
-8.68315e-05
-8.66266e-05
-0.000550391
1.33586e-05
-0.000544197
1.52573e-05
-0.000539715
1.03448e-05
6.92516e-06
-0.000312021
0.000314768
9.88217e-07
-0.000310151
6.02595e-07
-0.000308486
6.02963e-07
4.27543e-07
-8.78275e-05
8.82111e-05
-8.75258e-05
-8.72841e-05
-0.000330495
2.05872e-05
-0.00032525
1.00128e-05
-0.000319651
4.74575e-06
2.04204e-06
-8.98442e-05
9.08324e-05
-8.92416e-05
-8.86386e-05
-0.000107633
-9.76202e-05
-9.28745e-05
-1.36897e-05
1.36895e-05
7.05608e-06
-2.07457e-05
-5.87293e-05
5.24604e-05
1.9958e-05
1.92842e-05
-7.09576e-05
3.49005e-06
-2.42358e-05
1.62267e-05
3.62335e-05
-0.000117153
0.000110375
2.67349e-05
2.95097e-05
-0.000127379
1.17958e-05
-7.92633e-05
1.54229e-06
-2.5778e-05
2.28292e-05
0.000103772
6.84299e-06
2.93903e-05
-0.00040668
6.34469e-05
0.000392796
-1.85449e-05
6.67708e-05
-0.000425398
-0.000134128
6.9355e-06
-8.46565e-05
8.03147e-07
-2.65813e-05
1.46683e-05
9.59467e-05
2.35787e-06
2.70323e-05
-4.11898e-05
-0.00142323
0.0013778
0.000150065
-6.72375e-06
0.000372997
-4.26458e-05
0.000159342
-0.00147316
-1.437e-05
-0.000446116
-7.5592e-06
-0.000141562
4.00943e-06
-8.7863e-05
2.95609e-07
-2.68771e-05
9.15807e-05
1.04374e-06
2.59883e-05
-2.46681e-05
0.000107655
-0.00199753
0.00194427
0.000203311
-4.35966e-06
-1.8354e-06
0.000215028
-0.00205322
-3.07864e-05
0.00013056
-0.00155396
-1.89797e-05
-0.000467041
-6.36534e-06
-3.49739e-06
-0.000145112
2.26486e-06
-8.98328e-05
3.32981e-07
-2.72104e-05
8.82647e-05
4.76643e-07
2.55114e-05
0.000178301
-0.00232859
0.00227033
0.000261566
8.69059e-05
0.000274332
-0.00238789
0.000209019
-0.00213168
0.000115973
-1.76279e-05
-0.00163651
-1.58098e-05
-0.000479674
-3.82499e-06
-2.52353e-06
-0.000149213
-1.57376e-06
-0.000151137
-9.10737e-05
2.88983e-07
-2.74997e-05
2.1198e-07
0.000244277
-0.00240512
0.00235106
0.000315629
0.00032802
-0.00245882
0.000280541
-0.00245942
0.000206197
-0.00222191
-0.000491693
-2.69299e-06
-2.9168e-06
0.000123226
-1.79453e-05
-0.00172141
-2.03951e-05
-0.000501725
-4.23483e-06
-1.54525e-06
-0.000153464
-1.49771e-06
-0.000154739
-1.24989e-06
-9.22825e-05
2.83272e-07
-2.77833e-05
0.000302244
-0.00221072
0.00216939
0.00035695
0.000367136
-0.00224984