/*--------------------------------*- C++ -*----------------------------------*\
| =========                 |                                                 |
| \\      /  F ield         | OpenFOAM: The Open Source CFD Toolbox           |
|  \\    /   O peration     | Version:  v1912                                 |
|   \\  /    A nd           | Website:  www.openfoam.com                      |
|    \\/     M anipulation  |                                                 |
\*---------------------------------------------------------------------------*/
FoamFile
{
    version     2.0;
    format      ascii;
    class       volVectorField;
    location    "460";
    object      U;
}
// * * * * * * * * * * * * * * * * * * * * * * * * * * * * * * * * * * * * * //

dimensions      [0 1 -1 0 0 0 0];


internalField   nonuniform List<vector> 
3753
(
(0.0489943 0.020718 0)
(0.150273 0.0618946 1.88805e-23)
(0.0484945 0.0205137 -8.78704e-24)
(0.252723 0.102054 0)
(0.148771 0.061286 -9.28646e-24)
(0.0480164 0.0203118 8.8396e-24)
(0.352129 0.139399 -6.63381e-21)
(0.250238 0.101058 -7.25837e-24)
(0.147322 0.0606917 -8.95756e-21)
(0.0475531 0.0201143 8.2216e-24)
(0.442206 0.171595 5.83478e-21)
(0.348682 0.138031 -6.37428e-21)
(0.247803 0.100076 7.33135e-21)
(0.145887 0.0601031 8.30454e-24)
(0.0470882 0.0199185 -8.30685e-21)
(0.515346 0.195967 -5.07136e-24)
(0.437838 0.169883 5.61499e-21)
(0.345286 0.136688 0)
(0.245409 0.0991177 6.73138e-24)
(0.144468 0.0595195 -8.32451e-24)
(0.0466391 0.0197279 0)
(0.56394 0.210063 1.99341e-25)
(0.510148 0.193956 5.09883e-21)
(0.433534 0.168211 5.15842e-24)
(0.341952 0.135375 -5.90727e-21)
(0.243032 0.0981584 -6.74202e-24)
(0.143084 0.0589492 0)
(0.0461877 0.0195369 0)
(0.582008 0.212262 -4.73635e-24)
(0.558031 0.207809 -4.80393e-21)
(0.505041 0.192004 0)
(0.429317 0.166575 5.19287e-21)
(0.338643 0.134064 0)
(0.240688 0.0972104 0)
(0.14171 0.0583831 0)
(0.0457356 0.0193452 -7.48036e-21)
(0.566746 0.202264 0)
(0.575534 0.209824 4.7816e-21)
(0.552238 0.205629 0)
(0.500029 0.190091 9.00707e-24)
(0.425129 0.164948 -1.45164e-23)
(0.33536 0.132764 0)
(0.238368 0.0962746 0)
(0.140338 0.0578163 0)
(0.0452945 0.0191569 6.90811e-24)
(0.519326 0.181253 5.38321e-24)
(0.559843 0.199696 -4.86148e-21)
(0.569185 0.207478 0)
(0.54655 0.203498 4.45085e-21)
(0.49506 0.188196 -9.01588e-24)
(0.420976 0.163333 3.78478e-25)
(0.332116 0.131479 0)
(0.236067 0.0953421 0)
(0.138978 0.0572548 0)
(0.0448658 0.0189772 -6.94143e-24)
(0.444626 0.151667 2.97241e-24)
(0.512097 0.178592 -2.63654e-24)
(0.553084 0.197253 4.68975e-21)
(0.562994 0.205208 -4.36236e-21)
(0.540952 0.2014 4.28995e-21)
(0.490141 0.186317 0)
(0.416869 0.161734 9.18854e-24)
(0.328894 0.130199 0)
(0.233791 0.0944231 0)
(0.137656 0.0567077 -6.87633e-21)
(0.0444335 0.0187976 0)
(0.35006 0.116658 -3.7099e-21)
(0.437095 0.148918 1.96141e-23)
(0.505061 0.176122 -4.98696e-21)
(0.546588 0.194926 1.79338e-23)
(0.556957 0.202986 -4.19006e-21)
(0.535429 0.199329 0)
(0.485278 0.184456 0)
(0.412788 0.160145 -4.24304e-24)
(0.325718 0.128939 0)
(0.231544 0.0935078 5.59226e-21)
(0.136334 0.0561653 6.61413e-21)
(0.0440089 0.018618 0)
(0.244157 0.0794775 5.22247e-21)
(0.342009 0.11377 -3.5195e-24)
(0.429847 0.14646 -1.1073e-24)
(0.498472 0.17382 0)
(0.540348 0.192671 0)
(0.551049 0.200812 -1.61974e-23)
(0.529985 0.197285 3.97661e-21)
(0.480456 0.182615 0)
(0.40876 0.158575 4.24744e-24)
(0.322555 0.12768 0)
(0.22932 0.0926122 -5.37313e-21)
(0.135045 0.0556333 3.05026e-24)
(0.0435891 0.0184388 0)
(0.234446 0.0761694 -2.07141e-21)
(0.159219 0.0510251 1.80193e-21)
(0.163368 0.0524293 -1.81818e-21)
(0.334494 0.111296 0)
(0.423416 0.144264 5.47762e-21)
(0.492318 0.171637 -4.74347e-21)
(0.534335 0.190501 0)
(0.545264 0.198682 -3.89651e-21)
(0.524616 0.195274 7.29927e-24)
(0.475699 0.180797 3.87518e-21)
(0.40477 0.157022 0)
(0.319458 0.126452 0)
(0.227141 0.0917274 -1.06767e-25)
(0.133766 0.0551047 -3.05541e-24)
(0.0431771 0.0182625 0)
(0.226206 0.0734714 9.18238e-22)
(0.146336 0.0470281 1.76054e-21)
(0.152927 0.048564 1.79664e-21)
(0.104624 0.0332441 -1.60241e-21)
(0.108314 0.0343477 4.04002e-22)
(0.328494 0.10925 -6.38817e-21)
(0.41769 0.142271 5.27553e-21)
(0.486527 0.169587 -1.74153e-23)
(0.528515 0.188402 0)
(0.539601 0.196602 -7.51543e-24)
(0.519332 0.193294 -3.66937e-21)
(0.471014 0.179008 0)
(0.40085 0.155494 1.87937e-24)
(0.316403 0.125235 2.06454e-24)
(0.225001 0.0908608 -2.46029e-24)
(0.132509 0.0545826 0)
(0.0427939 0.0180995 0)
(0.221171 0.0716314 2.05523e-21)
(0.139146 0.0444467 -3.40122e-21)
(0.141721 0.0453237 0)
(0.0878468 0.0280495 -4.05939e-22)
(0.0970484 0.0302422 0)
(0.0630597 0.0198916 3.22108e-23)
(0.0653154 0.0206958 5.34789e-22)
(0.0666716 0.0209978 -5.60458e-22)
(0.323623 0.107576 2.49507e-23)
(0.412501 0.140469 -7.36928e-25)
(0.481024 0.167646 6.53274e-25)
(0.522875 0.186372 0)
(0.534055 0.194564 0)
(0.514136 0.191348 0)
(0.466402 0.177244 0)
(0.396988 0.153987 -1.88151e-24)
(0.313418 0.124048 4.1262e-21)
(0.222907 0.0900076 -2.25768e-24)
(0.131317 0.054085 5.60154e-21)
(0.0424006 0.0179345 0)
(0.217751 0.0704812 -1.91973e-21)
(0.136215 0.0433535 3.29004e-21)
(0.137332 0.0436631 -6.61153e-21)
(0.0817864 0.0257163 1.92458e-21)
(0.0834985 0.026405 -3.97883e-22)
(0.0420322 0.0134892 5.23081e-22)
(0.0454372 0.0144198 1.78555e-23)
(0.0591893 0.0185518 -1.73669e-23)
(0.0524203 0.0155323 3.2394e-22)
(0.0364617 0.0115073 -5.0488e-22)
(0.0381572 0.0120096 7.60529e-24)
(0.0389647 0.0121929 7.83402e-24)
(0.319421 0.106159 0)
(0.407687 0.138811 -5.05947e-21)
(0.475767 0.165794 1.68669e-23)
(0.51739 0.184399 0)
(0.528622 0.192572 3.34054e-24)
(0.509035 0.189436 3.39914e-21)
(0.461857 0.175508 -3.43208e-21)
(0.393212 0.152514 -1.41706e-23)
(0.310496 0.122882 0)
(0.220878 0.0891773 -4.54261e-21)
(0.130135 0.0535949 5.36783e-21)
(0.0420265 0.0177772 0)
(0.214981 0.0696232 1.80647e-21)
(0.134406 0.0428147 3.15265e-21)
(0.135163 0.0429641 3.24087e-21)
(0.0802278 0.0251812 -2.95299e-21)
(0.0808307 0.0253772 3.7785e-21)
(0.0388674 0.0121247 4.06053e-24)
(0.0390828 0.0121838 -1.57533e-21)
(0.0402242 0.0126445 5.71432e-22)
(0.0394016 0.0123668 -2.503e-23)
(0.0138948 0.0045283 -3.61633e-22)
(0.0154173 0.00507208 0)
(0.0337784 0.0102172 -4.56427e-22)
(0.0230658 0.00552795 -2.38117e-22)
(0.0116706 0.0037427 3.56079e-22)
(0.012326 0.00384719 0)
(0.0125665 0.00390809 0)
(0.315644 0.104898 5.84576e-21)
(0.403143 0.137249 4.86068e-21)
(0.470693 0.164014 7.81742e-24)
(0.512051 0.182484 3.65432e-21)
(0.523299 0.190618 -3.34457e-21)
(0.504013 0.187559 3.24903e-21)
(0.457419 0.17381 -3.29029e-21)
(0.389524 0.151071 3.46184e-21)
(0.307655 0.121744 0)
(0.218905 0.0883728 -4.35234e-21)
(0.129 0.0531214 0)
(0.0416603 0.0176241 0)
(0.212533 0.0688579 1.77448e-21)
(0.132916 0.0423781 2.92939e-23)
(0.133536 0.0425003 0)
(0.0793033 0.0249169 -7.33668e-22)
(0.0797403 0.0250335 -2.9161e-21)
(0.0384209 0.0119776 3.93513e-24)
(0.0384633 0.0119775 -7.90477e-24)
(0.0386818 0.0120448 -1.03046e-21)
(0.0385791 0.0120389 3.97228e-24)
(0.0124133 0.0038502 -6.94071e-22)
(0.0124785 0.00387509 -1.74864e-24)
(0.0129224 0.00406803 -3.84985e-22)
(0.0125849 0.00392894 0)
(0.0109354 0.00354557 2.24492e-22)
(0.0064094 0.00148324 4.77189e-23)
(0.312121 0.103728 -1.14355e-20)
(0.39882 0.135774 9.23661e-24)
(0.465787 0.162292 -3.9005e-21)
(0.50683 0.18061 -3.51574e-21)
(0.518078 0.188708 1.54074e-24)
(0.499105 0.185718 -1.55494e-24)
(0.453073 0.172144 -6.30905e-21)
(0.385931 0.14966 -3.3133e-21)
(0.304899 0.120636 0)
(0.216991 0.0875856 0)
(0.127897 0.0526651 -2.3471e-24)
(0.0412921 0.0174681 4.83813e-21)
(0.21025 0.068138 1.00427e-20)
(0.131527 0.041951 2.8643e-24)
(0.132128 0.04208 -2.98359e-21)
(0.0784872 0.024679 -2.77085e-21)
(0.0788803 0.024794 9.75738e-26)
(0.038071 0.011883 -9.67589e-22)
(0.0381272 0.0118753 9.69038e-22)
(0.0382931 0.011919 0)
(0.0382142 0.0119247 -9.87115e-22)
(0.012298 0.00381389 6.68494e-22)
(0.0123015 0.00381812 -6.72859e-22)
(0.0123623 0.00383492 -6.84941e-22)
(0.012332 0.00383116 -6.79362e-22)
(0.308811 0.102631 -1.09896e-23)
(0.394653 0.134346 0)
(0.461002 0.160617 3.74527e-21)
(0.501726 0.178784 -3.37774e-21)
(0.512964 0.18683 -1.54213e-24)
(0.494294 0.183913 2.9842e-21)
(0.448839 0.170516 3.01634e-21)
(0.38243 0.148281 1.51422e-24)
(0.302216 0.119555 0)
(0.215143 0.0868299 0)
(0.12681 0.0522116 -4.70292e-21)
(0.0409609 0.0173224 -1.16239e-23)
(0.208085 0.0674372 -3.28077e-21)
(0.130184 0.0415332 -2.84792e-21)
(0.130766 0.0416569 -2.88453e-21)
(0.0776925 0.0244386 2.62054e-24)
(0.0780887 0.0245578 2.70646e-24)
(0.0377057 0.0117729 0)
(0.0377839 0.0117738 -9.5346e-22)
(0.0379462 0.0118269 0)
(0.0378828 0.0118259 3.70824e-24)
(0.0121837 0.00378363 7.99665e-25)
(0.0122125 0.00378564 6.54021e-22)
(0.0122589 0.00379833 -6.63269e-22)
(0.012227 0.00379615 6.55355e-22)
(0.3056 0.101563 5.39836e-21)
(0.390601 0.132967 2.059e-24)
(0.45634 0.158986 3.59675e-21)
(0.496713 0.176985 0)
(0.507945 0.184989 0)
(0.489595 0.182145 0)
(0.444713 0.168924 2.81819e-24)
(0.379041 0.146941 3.02659e-21)
(0.299638 0.118514 0)
(0.213348 0.0860899 -1.79243e-24)
(0.12576 0.0517684 -8.93156e-21)
(0.0406198 0.0171827 0)
(0.20596 0.0667552 -6.21217e-21)
(0.128895 0.0411153 2.74754e-21)
(0.12946 0.0412413 2.78177e-21)
(0.0769154 0.0242007 -6.61877e-22)
(0.077303 0.024312 -2.62301e-24)
(0.0373436 0.0116625 0)
(0.0374174 0.0116648 0)
(0.0375766 0.0117129 -9.32293e-22)
(0.0375167 0.0117152 0)
(0.0120672 0.00374742 -6.30404e-22)
(0.012103 0.00375143 1.27029e-21)
(0.012162 0.00377407 -2.5245e-24)
(0.0121401 0.00376884 -6.38736e-22)
(0.302509 0.10054 0)
(0.386662 0.131621 -2.06241e-24)
(0.451759 0.157382 1.74151e-24)
(0.491795 0.175221 3.11195e-21)
(0.503024 0.183179 0)
(0.485004 0.180412 2.7538e-21)
(0.440702 0.16737 -2.75849e-21)
(0.375771 0.14564 0)
(0.297139 0.117499 1.50105e-24)
(0.211592 0.0853646 3.59784e-21)
(0.124743 0.0513485 2.12945e-24)
(0.0402751 0.0170393 -7.98941e-24)
(0.203933 0.0660963 1.52241e-21)
(0.127623 0.0407161 1.71264e-23)
(0.128188 0.0408386 2.69416e-21)
(0.0761562 0.023957 -2.45212e-24)
(0.0765244 0.0240686 -6.50817e-22)
(0.0369763 0.011548 0)
(0.0370408 0.0115483 8.81993e-22)
(0.0372259 0.0116051 0)
(0.037158 0.0115975 0)
(0.0119612 0.00371456 -6.1318e-22)
(0.0119924 0.00371879 6.17792e-22)
(0.0120396 0.00373479 6.23722e-22)
(0.0120132 0.00373101 -6.20897e-22)
(0.299491 0.099533 0)
(0.382794 0.1303 -4.0358e-21)
(0.447243 0.155799 -3.31822e-21)
(0.486948 0.173481 -4.17588e-24)
(0.498197 0.181398 3.06418e-23)
(0.480526 0.178713 0)
(0.436826 0.165854 -2.63736e-21)
(0.372605 0.144374 0)
(0.294703 0.116508 -2.92587e-24)
(0.209885 0.084664 0)
(0.123731 0.0509295 4.01183e-21)
(0.0399547 0.0169041 7.97815e-21)
(0.201938 0.0654499 -1.46859e-21)
(0.126405 0.0403182 -2.55422e-21)
(0.12694 0.0404395 -2.63031e-21)
(0.0754219 0.0237309 -2.43456e-21)
(0.0757966 0.0238384 2.45501e-24)
(0.036619 0.0114314 0)
(0.036687 0.0114377 3.36112e-24)
(0.0368444 0.0114869 8.66687e-22)
(0.0367684 0.0114855 -3.35831e-24)
(0.0118367 0.00367563 -5.95142e-22)
(0.0118593 0.00367808 5.99876e-22)
(0.0119319 0.00370177 -6.07633e-22)
(0.0118981 0.00369152 -6.03993e-22)
(0.29652 0.0985457 4.67957e-21)
(0.378968 0.128993 0)
(0.442792 0.15424 0)
(0.482167 0.171759 -2.80401e-21)
(0.493463 0.179642 5.20262e-24)
(0.476172 0.177044 2.4909e-21)
(0.433062 0.164374 1.25273e-24)
(0.369525 0.14314 0)
(0.292336 0.115547 1.42461e-24)
(0.208216 0.0839808 -3.23354e-21)
(0.122746 0.050522 -3.26153e-23)
(0.0396334 0.0167676 3.77352e-21)
(0.199972 0.0648128 0)
(0.125191 0.0399363 -2.72433e-23)
(0.125735 0.0400571 0)
(0.0747014 0.023499 -1.19181e-21)
(0.0750575 0.0236028 1.78274e-21)
(0.0362677 0.0113267 -8.26089e-22)
(0.0363274 0.011325 3.2161e-24)
(0.0364803 0.0113726 0)
(0.0364212 0.011371 0)
(0.0117208 0.00363785 -5.77901e-22)
(0.0117587 0.00364681 5.81994e-22)
(0.0118061 0.00366254 0)
(0.0117762 0.00365861 -5.85697e-22)
(0.293585 0.0975682 0)
(0.375186 0.127699 -7.01968e-24)
(0.438365 0.152685 0)
(0.477437 0.170047 0)
(0.488813 0.1779 0)
(0.471922 0.175404 1.24837e-24)
(0.429407 0.162931 -2.38924e-21)
(0.366535 0.141941 0)
(0.290019 0.11461 2.68426e-21)
(0.206581 0.0833124 -3.0694e-21)
(0.121774 0.0501152 -3.09259e-23)
(0.0393019 0.0166281 -6.77967e-24)
(0.198036 0.0641843 -1.36809e-21)
(0.124009 0.0395559 2.39796e-21)
(0.124532 0.0396752 0)
(0.0739888 0.0232778 2.27825e-21)
(0.0743432 0.0233801 -8.99262e-24)
(0.0359194 0.0112144 7.90552e-22)
(0.0359941 0.0112262 7.97546e-22)
(0.0361496 0.0112686 8.08433e-22)
(0.0360764 0.0112619 -3.13062e-24)
(0.0116058 0.00360478 -1.70811e-24)
(0.0116377 0.0036082 5.6477e-22)
(0.0116793 0.00362386 -5.71999e-22)
(0.0116602 0.00361945 -5.67848e-22)
(0.290676 0.0965954 -8.38619e-24)
(0.371407 0.126405 7.02633e-24)
(0.433941 0.151126 -1.13361e-23)
(0.472734 0.168329 4.97567e-24)
(0.484244 0.176173 4.54484e-24)
(0.467787 0.173794 2.2599e-21)
(0.425848 0.161522 0)
(0.363609 0.140773 -5.70561e-24)
(0.287755 0.113695 0)
(0.204956 0.0826434 -2.89507e-21)
(0.120795 0.0497074 3.37825e-21)
(0.0389704 0.0164873 3.37679e-21)
(0.196118 0.063558 -1.30616e-21)
(0.122847 0.0391847 2.28156e-21)
(0.123368 0.0393062 0)
(0.0732899 0.0230578 -2.18975e-21)
(0.0736525 0.0231636 0)
(0.0355847 0.0111116 -7.66603e-22)
(0.0356512 0.0111163 0)
(0.0357874 0.011155 0)
(0.0357411 0.011155 0)
(0.0115006 0.00357093 -1.05456e-24)
(0.0115316 0.00357964 -5.4588e-22)
(0.0115856 0.00359331 -5.55108e-22)
(0.0115566 0.00358573 0)
(0.287759 0.0956199 4.27751e-21)
(0.36758 0.125093 1.29436e-23)
(0.429469 0.14954 2.88109e-21)
(0.468051 0.1666 2.51895e-21)
(0.479747 0.174448 -4.5372e-24)
(0.463738 0.172212 2.04352e-24)
(0.422365 0.160149 -2.13153e-21)
(0.360745 0.139631 0)
(0.285498 0.112781 0)
(0.203328 0.0819731 -2.73336e-21)
(0.119814 0.0492959 -6.38784e-21)
(0.038647 0.0163474 3.15362e-21)
(0.19421 0.0629349 -3.66152e-21)
(0.12169 0.0388126 4.40199e-21)
(0.122206 0.0389302 8.67855e-24)
(0.0726165 0.0228462 -5.29293e-22)
(0.0729638 0.0229483 -8.36793e-24)
(0.0352498 0.0110057 -7.36538e-22)
(0.0353232 0.011018 -2.88993e-24)
(0.035475 0.0110554 0)
(0.035418 0.0110579 0)
(0.0113935 0.00353754 -3.63029e-24)
(0.0114171 0.00354198 -5.28854e-22)
(0.0114608 0.00355479 -5.35885e-22)
(0.011443 0.00355023 5.33645e-22)
(0.284796 0.09463 8.06582e-24)
(0.363655 0.123743 -3.21821e-21)
(0.424926 0.147907 -2.68357e-21)
(0.463351 0.164832 2.41958e-21)
(0.475306 0.172736 -1.02262e-24)
(0.459765 0.170666 -2.04021e-24)
(0.418949 0.158809 3.82162e-24)
(0.357899 0.138498 -7.93367e-24)
(0.283245 0.111867 0)
(0.2017 0.0812998 3.1044e-23)
(0.118827 0.0488785 1.13511e-23)
(0.0383098 0.0162043 2.99809e-21)
(0.192278 0.0623018 1.22956e-21)
(0.120559 0.0384489 -2.10478e-21)
(0.121075 0.0385706 -2.17514e-21)
(0.0719359 0.0226289 -2.03361e-21)
(0.0722857 0.0227303 0)
(0.0349278 0.0109068 0)
(0.0349955 0.0109162 7.09324e-22)
(0.0351332 0.0109495 7.31316e-22)
(0.0350851 0.0109549 2.80596e-24)
(0.0112921 0.00350459 -1.69791e-24)
(0.0113216 0.00351544 -5.11472e-22)
(0.0113706 0.00352439 5.23191e-22)
(0.0113403 0.00352142 -5.15821e-22)
(0.281706 0.0935973 -1.48785e-23)
(0.359542 0.122314 -3.16991e-21)
(0.420229 0.146185 -2.58317e-21)
(0.458627 0.163033 -2.3067e-21)
(0.470917 0.171049 1.02091e-24)
(0.455863 0.169161 0)
(0.41557 0.157488 -1.10332e-23)
(0.355056 0.137364 7.93104e-24)
(0.280987 0.110949 2.14359e-21)
(0.200072 0.0806231 -9.02979e-24)
(0.117826 0.0484537 -7.64723e-25)
(0.0379682 0.0160626 -1.12488e-23)
(0.190269 0.0616437 1.16898e-21)
(0.11942 0.0380795 -3.93242e-24)
(0.119943 0.0382073 -2.04984e-21)
(0.0712857 0.0224254 5.87846e-24)
(0.0716283 0.0225251 1.98533e-21)
(0.0346088 0.0108046 0)
(0.0346668 0.0108072 -1.35308e-24)
(0.03483 0.010854 -2.72825e-24)
(0.0347708 0.0108546 4.08401e-24)
(0.0111904 0.0034741 -4.92357e-22)
(0.0112109 0.0034811 0)
(0.0112503 0.00348728 -5.01859e-22)
(0.0112274 0.00348717 -4.9872e-22)
(0.278346 0.0924751 -9.52448e-23)
(0.355115 0.120752 0)
(0.415352 0.144354 5.01935e-21)
(0.453888 0.161231 0)
(0.466592 0.169412 7.26044e-24)
(0.452016 0.167688 0)
(0.412208 0.156172 1.40113e-23)
(0.352219 0.136229 0)
(0.278737 0.110027 -2.00471e-21)
(0.198417 0.0799314 9.03396e-24)
(0.116823 0.0480302 -2.04505e-23)
(0.037614 0.0159149 2.58055e-21)
(0.188034 0.0609218 5.52e-21)
(0.118259 0.0377029 -1.94829e-21)
(0.118821 0.0378453 -2.00261e-21)
(0.0706333 0.0222163 3.2139e-24)
(0.070963 0.0223159 4.90924e-22)
(0.0343028 0.0107077 1.29021e-24)
(0.0343663 0.0107176 -1.28934e-24)
(0.0345123 0.01076 0)
(0.0344516 0.0107555 0)
(0.0110771 0.0034378 4.75304e-22)
(0.0111119 0.00344643 -4.77941e-22)
(0.0111605 0.00345866 9.5632e-25)
(0.0111352 0.00345711 -4.83344e-22)
(0.274555 0.0912004 0)
(0.350239 0.118965 -5.81636e-21)
(0.410303 0.142446 1.18951e-24)
(0.449197 0.159495 7.60664e-24)
(0.462358 0.167829 -3.94381e-25)
(0.448218 0.166231 0)
(0.408862 0.154856 -1.71073e-21)
(0.349387 0.135088 1.74009e-21)
(0.276463 0.109091 7.53483e-24)
(0.19676 0.079235 -7.82324e-24)
(0.1158 0.047597 -2.40157e-21)
(0.0372547 0.0157618 -4.44736e-24)
(0.185368 0.0600644 0)
(0.116941 0.0372801 1.89925e-21)
(0.117601 0.0374542 -1.89039e-21)
(0.0699727 0.0220081 0)
(0.070323 0.0221096 1.37854e-21)
(0.0339963 0.010613 -2.84086e-24)
(0.0340633 0.0106196 -6.33714e-22)
(0.0341971 0.010661 -6.46481e-22)
(0.034153 0.0106629 -1.25217e-24)
(0.0109918 0.0034099 4.59447e-22)
(0.0110131 0.00341767 -4.61955e-22)
(0.011055 0.00342993 -4.70142e-22)
(0.0110313 0.00342606 -4.65988e-22)
(0.26992 0.0895886 1.67349e-21)
(0.344864 0.116932 -2.83867e-21)
(0.405256 0.140628 0)
(0.444663 0.157847 -4.12346e-25)
(0.458228 0.16628 -1.33766e-23)
(0.444457 0.16478 1.6055e-21)
(0.405521 0.153534 6.39861e-24)
(0.346545 0.133938 1.63278e-21)
(0.274173 0.108143 0)
(0.195084 0.078531 1.94864e-21)
(0.114757 0.0471525 2.22183e-21)
(0.0369022 0.0156117 1.25769e-23)
(0.181615 0.0588595 2.58904e-21)
(0.115208 0.0367389 -1.40031e-23)
(0.116167 0.0370032 1.85489e-21)
(0.0692661 0.0217841 -2.2077e-21)
(0.0696412 0.0218928 1.38814e-23)
(0.0336951 0.0105158 0)
(0.033764 0.0105293 0)
(0.0338973 0.010567 -1.22751e-24)
(0.0338419 0.0105626 6.18014e-22)
(0.0108824 0.00337712 4.40212e-22)
(0.0109181 0.00338559 -4.46678e-22)
(0.0109577 0.00339954 0)
(0.0109428 0.0033991 0)
(0.264082 0.0873986 3.30192e-21)
(0.339388 0.115022 -1.92602e-23)
(0.400495 0.138958 -2.12193e-21)
(0.440333 0.156262 -7.20911e-24)
(0.454192 0.164756 -1.64023e-21)
(0.44073 0.163336 -5.77199e-24)
(0.402183 0.15221 -1.48489e-21)
(0.34368 0.132775 -5.71751e-24)
(0.271878 0.107191 1.61e-21)
(0.193393 0.0778167 -1.7874e-21)
(0.113724 0.0467097 -2.03772e-21)
(0.0365326 0.0154544 -8.13802e-24)
(0.174842 0.056449 1.55335e-23)
(0.112005 0.0357469 4.12329e-23)
(0.11388 0.0363615 -1.77227e-21)
(0.0683498 0.021503 -1.16634e-23)
(0.0688846 0.0216461 -1.69663e-21)
(0.0334042 0.0104251 -5.15893e-24)
(0.0334552 0.0104318 1.15863e-24)
(0.0335881 0.0104707 0)
(0.033539 0.0104687 -1.15862e-24)
(0.0107963 0.00334818 0)
(0.0108256 0.00335931 -4.30482e-22)
(0.0108612 0.00336974 -4.36712e-22)
(0.0108393 0.00336623 -4.34434e-22)
(0.257859 0.0853268 1.27638e-23)
(0.334468 0.113363 2.37505e-21)
(0.39614 0.137403 1.58962e-23)
(0.436195 0.154732 1.69158e-21)
(0.450238 0.163257 0)
(0.437034 0.1619 5.77582e-24)
(0.398852 0.150884 1.40748e-21)
(0.340826 0.131609 -1.40262e-21)
(0.269573 0.106228 -5.55203e-24)
(0.191708 0.077097 2.00422e-23)
(0.112673 0.0462522 1.85103e-21)
(0.0361503 0.0152924 0)
(0.166666 0.0539296 -5.11704e-22)
(0.103084 0.0325695 -1.37066e-23)
(0.108627 0.0346485 -2.75318e-23)
(0.0665062 0.0209846 5.0184e-23)
(0.0676397 0.021303 4.02509e-22)
(0.0330689 0.0103221 5.62636e-22)
(0.0331574 0.0103372 -1.13418e-21)
(0.0333159 0.0103808 1.13652e-24)
(0.0332474 0.0103682 0)
(0.0107041 0.00332103 8.25822e-22)
(0.0107285 0.0033288 -4.15873e-22)
(0.0107562 0.00333715 -4.23072e-22)
(0.0107408 0.00333633 -4.19413e-22)
(0.252858 0.0836541 2.97434e-21)
(0.330287 0.111897 0)
(0.39211 0.135941 0)
(0.432216 0.153258 1.23981e-23)
(0.446364 0.161785 0)
(0.433379 0.160475 -2.70284e-21)
(0.395543 0.149557 0)
(0.337976 0.130437 1.31356e-21)
(0.267272 0.105256 1.3663e-21)
(0.190003 0.0763618 -1.48835e-21)
(0.111592 0.0457837 -1.65337e-21)
(0.0357665 0.0151318 -2.86039e-24)
(0.161843 0.0521537 -2.96991e-21)
(0.0931887 0.0298035 7.83338e-22)
(0.0967674 0.0308198 8.51531e-22)
(0.0570468 0.0176385 0)
(0.0642627 0.0202462 -2.47955e-22)
(0.0322918 0.0101135 0)
(0.0326207 0.0101837 4.27637e-24)
(0.0329325 0.0102718 -6.36604e-24)
(0.0327902 0.0102417 -4.28711e-24)
(0.010608 0.00329186 -3.99591e-22)
(0.010637 0.00329834 4.00577e-22)
(0.0106846 0.00331273 -4.08869e-22)
(0.0106582 0.00330553 -4.05889e-22)
(0.249164 0.0823522 -2.24114e-23)
(0.326639 0.110594 0)
(0.388342 0.134576 0)
(0.42838 0.151834 -1.24198e-23)
(0.442567 0.160336 1.34727e-21)
(0.429763 0.159055 3.37211e-25)
(0.392257 0.14823 2.73242e-23)
(0.335134 0.129256 0)
(0.264966 0.104276 1.2368e-21)
(0.188281 0.0756185 2.64961e-21)
(0.110515 0.0453161 0)
(0.0353679 0.0149633 4.09038e-24)
(0.15922 0.0511667 8.2665e-22)
(0.0904424 0.0285962 -1.20397e-23)
(0.0913939 0.0289341 -7.5494e-22)
(0.0449403 0.0141914 -1.18377e-21)
(0.0479888 0.0154957 2.42744e-22)
(0.0189391 0.00444117 0)
(0.0279193 0.00829851 0)
(0.0317278 0.0100034 1.62174e-23)
(0.0305194 0.00946859 2.43596e-22)
(0.0103809 0.00322652 -3.8425e-22)
(0.0104956 0.00325224 3.88232e-22)
(0.0105733 0.00328018 -2.52364e-24)
(0.0105336 0.00326977 -3.91401e-22)
(0.246208 0.0813175 2.79783e-21)
(0.323344 0.109427 0)
(0.384787 0.133288 6.59085e-24)
(0.424665 0.150449 0)
(0.438845 0.158908 0)
(0.426196 0.157644 -1.15239e-21)
(0.388985 0.146899 -1.1328e-21)
(0.332302 0.128072 -1.08568e-21)
(0.262653 0.103285 -1.10693e-21)
(0.186565 0.0748691 1.16711e-21)
(0.109418 0.0448322 -1.26393e-21)
(0.0349583 0.0147942 1.14553e-21)
(0.157386 0.0505852 -4.15889e-21)
(0.0892907 0.0282123 -1.48175e-21)
(0.089731 0.0283051 1.20336e-23)
(0.0437102 0.0136166 -3.56853e-22)
(0.0441307 0.013771 0)
(0.0103387 0.00325439 3.78745e-22)
(0.0106091 0.00335017 -1.96254e-22)
(0.0126996 0.00398414 -2.10961e-22)
(0.0113012 0.00375856 0)
(0.00523636 0.00117971 0)
(0.00905546 0.00290798 1.65636e-22)
(0.0101894 0.00319689 3.80409e-22)
(0.00972315 0.00311291 1.73302e-22)
(0.243659 0.080448 0)
(0.320313 0.10836 2.08051e-21)
(0.381394 0.132056 -1.28592e-23)
(0.421062 0.149101 -1.4168e-21)
(0.435195 0.157498 -1.24129e-21)
(0.422668 0.15624 1.06819e-21)
(0.385755 0.14557 3.80779e-24)
(0.329484 0.126878 0)
(0.260357 0.102286 -9.76534e-22)
(0.184836 0.0741038 1.01733e-21)
(0.108294 0.0443381 -2.29285e-24)
(0.0345382 0.0146172 0)
(0.155834 0.0501214 8.18161e-22)
(0.088468 0.027995 1.41193e-21)
(0.0888052 0.0280509 1.13991e-23)
(0.0432603 0.0134823 0)
(0.0434569 0.01354 3.51356e-22)
(0.0102155 0.00317521 -7.1314e-25)
(0.0102266 0.00316779 -3.68412e-22)
(0.0102983 0.003201 3.78544e-22)
(0.0102553 0.00318798 0)
(0.241378 0.0796771 -2.4437e-21)
(0.317471 0.107359 0)
(0.378143 0.130872 1.52956e-21)
(0.417556 0.147781 1.27309e-21)
(0.431612 0.156104 1.1645e-21)
(0.419196 0.154841 7.88268e-24)
(0.382548 0.144236 -3.80724e-24)
(0.326685 0.125677 9.01598e-22)
(0.258051 0.101272 8.70477e-22)
(0.183078 0.0733224 -7.53179e-25)
(0.107159 0.043834 -8.62405e-22)
(0.0341105 0.0144357 0)
(0.154459 0.0496928 -7.96681e-22)
(0.0877223 0.0277843 -1.35758e-21)
(0.0880445 0.0278442 0)
(0.0429276 0.0133898 1.29458e-24)
(0.0430936 0.0134413 -3.4371e-22)
(0.0101612 0.00315637 -3.46277e-22)
(0.0101698 0.00315128 -3.50059e-22)
(0.0102 0.00316076 -3.55501e-22)
(0.0101921 0.00316758 -3.54255e-22)
(0.239263 0.0789608 -1.87101e-23)
(0.31477 0.106405 0)
(0.375001 0.129722 -5.60918e-24)
(0.414137 0.146484 -1.18926e-21)
(0.428101 0.154722 0)
(0.415767 0.153444 -7.25178e-24)
(0.379375 0.142898 -1.68744e-21)
(0.323899 0.124466 -7.63742e-22)
(0.255744 0.100246 0)
(0.181308 0.0725267 6.93293e-22)
(0.105997 0.0433125 0)
(0.0336637 0.0142482 0)
(0.153174 0.0492797 -7.48713e-22)
(0.0870274 0.0275647 0)
(0.0873135 0.0276262 2.66866e-21)
(0.0425899 0.0132992 2.53846e-24)
(0.0427721 0.0133501 -3.82874e-24)
(0.0101017 0.00313569 -6.539e-25)
(0.0101165 0.00313346 -3.35796e-22)
(0.010141 0.00314398 6.7216e-25)
(0.0101402 0.00315012 -6.50489e-25)
(0.237259 0.0782806 9.13353e-24)
(0.312179 0.105487 -1.78705e-21)
(0.371959 0.128601 3.08887e-25)
(0.410804 0.145205 1.1885e-21)
(0.424652 0.153349 0)
(0.412393 0.152048 8.24587e-22)
(0.376237 0.141554 0)
(0.321127 0.123242 1.40951e-24)
(0.253432 0.0992024 0)
(0.17952 0.0717123 0)
(0.104811 0.0427765 -4.36241e-22)
(0.0331962 0.0140547 0)
(0.151935 0.0488792 -1.44108e-21)
(0.0863288 0.0273414 1.24298e-21)
(0.0866283 0.0274065 -4.9289e-24)
(0.042256 0.0131936 4.86196e-24)
(0.0424232 0.0132473 -1.24978e-21)
(0.0100265 0.00311698 -3.18134e-22)
(0.010043 0.00311463 -3.23851e-22)
(0.0100786 0.00312393 -3.29341e-22)
(0.0100742 0.00313061 0)
(0.235351 0.0776298 -1.06545e-22)
(0.309693 0.1046 -1.70872e-21)
(0.369002 0.127499 -1.27272e-21)
(0.407551 0.143944 -1.12434e-21)
(0.421273 0.151982 -1.70003e-24)
(0.409062 0.150648 -1.42855e-24)
(0.373124 0.140198 0)
(0.318361 0.122 0)
(0.251105 0.0981358 -1.91746e-25)
(0.177701 0.070874 3.50122e-22)
(0.103586 0.0422228 -2.11074e-22)
(0.032715 0.0138537 -9.27498e-26)
(0.150752 0.0484895 1.93597e-21)
(0.0856731 0.0271344 1.17901e-21)
(0.0859542 0.0271943 2.43091e-21)
(0.0419219 0.0130851 2.98061e-22)
(0.0420938 0.0131403 0)
(0.00994571 0.00309109 -3.07699e-22)
(0.00996053 0.00308832 6.02167e-25)
(0.00999923 0.0031012 -3.16188e-22)
(0.00999292 0.00310566 -3.13504e-22)
(0.233523 0.0770005 -1.0528e-22)
(0.307277 0.103731 -1.61713e-21)
(0.366139 0.126421 1.20127e-21)
(0.404374 0.14269 2.04164e-24)
(0.417956 0.150617 1.7e-24)
(0.405783 0.149244 1.42866e-24)
(0.370041 0.13883 0)
(0.315606 0.120741 0)
(0.248759 0.0970447 1.9188e-25)
(0.175858 0.0700159 3.62277e-22)
(0.102325 0.0416482 0)
(0.0322157 0.0136478 3.26373e-22)
(0.149622 0.0481138 2.51556e-21)
(0.0850305 0.026927 1.12323e-21)
(0.0853086 0.0269878 1.14709e-24)
(0.0416155 0.012995 0)
(0.0417667 0.0130379 -1.13974e-21)
(0.00987761 0.00306558 -2.944e-22)
(0.00989139 0.00306548 -5.83936e-25)
(0.0099198 0.00307589 -3.03408e-22)
(0.00991249 0.00308042 -2.99203e-22)
(0.231749 0.0763876 1.90461e-21)
(0.304949 0.102884 0)
(0.363355 0.125354 -1.2171e-21)
(0.401271 0.141444 0)
(0.414702 0.149252 0)
(0.402549 0.147833 0)
(0.366981 0.137445 -5.21894e-22)
(0.312851 0.119458 3.77863e-22)
(0.246402 0.0959277 -1.61706e-22)
(0.173966 0.0691256 1.17709e-23)
(0.101031 0.0410586 -2.00386e-25)
(0.0316921 0.0134363 2.29113e-25)
(0.148521 0.0477509 -6.22655e-22)
(0.084425 0.0267256 1.07004e-21)
(0.0846851 0.0267869 -2.20502e-21)
(0.0413021 0.0128968 0)
(0.0414609 0.0129432 0)
(0.00980755 0.00304738 0)
(0.00981369 0.00304372 -2.84138e-22)
(0.00984182 0.00305008 -2.90209e-22)
(0.0098373 0.00305694 -2.88173e-22)
(0.230044 0.075794 1.90693e-21)
(0.302691 0.102049 1.36792e-21)
(0.360643 0.124294 -2.10512e-24)
(0.398236 0.140199 -1.65997e-24)
(0.411508 0.147885 0)
(0.399359 0.14641 4.93586e-22)
(0.363951 0.136041 -7.77074e-22)
(0.310087 0.118142 0)
(0.244011 0.0947772 -9.86307e-24)
(0.172034 0.0682077 0)
(0.0996793 0.0404499 5.32661e-25)
(0.0311588 0.0132266 2.0749e-24)
(0.147465 0.047403 -2.84374e-21)
(0.0838154 0.0265344 1.01449e-21)
(0.0840773 0.026591 4.0604e-24)
(0.0410147 0.0128004 0)
(0.0411679 0.0128506 1.03758e-21)
(0.00972935 0.00302365 -1.05186e-24)
(0.00973735 0.00301984 -2.71873e-22)
(0.00977473 0.0030304 -2.78635e-22)
(0.00976055 0.00303363 -2.75244e-22)
(0.228396 0.075216 0)
(0.30051 0.101225 0)
(0.358008 0.123238 1.60847e-24)
(0.395277 0.138959 -8.65425e-22)
(0.408377 0.146513 0)
(0.396216 0.14497 4.10208e-22)
(0.360931 0.134609 0)
(0.307312 0.116794 -1.6886e-26)
(0.241575 0.0935891 0)
(0.170049 0.0672607 3.8141e-22)
(0.0982716 0.0398331 -3.32672e-25)
(0.0306262 0.0130108 1.21599e-21)
(0.146442 0.0470738 5.59687e-22)
(0.0832393 0.0263498 9.69222e-22)
(0.0834869 0.0264044 0)
(0.0407236 0.0127135 3.86778e-24)
(0.0408756 0.0127582 -3.86237e-24)
(0.00966369 0.00300094 -1.01415e-24)
(0.00967619 0.00299833 -2.59957e-22)
(0.00970472 0.00300952 -2.65709e-22)
(0.00970084 0.00301354 -2.63152e-22)
(0.226815 0.0746471 -1.73642e-21)
(0.298401 0.100399 0)
(0.355442 0.122186 9.32024e-22)
(0.392389 0.137722 0)
(0.405307 0.14513 0)
(0.393111 0.14351 -4.45422e-22)
(0.357924 0.133146 -6.73061e-26)
(0.304529 0.115412 1.68927e-26)
(0.239107 0.0923648 -5.57158e-22)
(0.167989 0.0662793 -5.93882e-22)
(0.0968022 0.0392346 0)
(0.0302383 0.0127127 -1.55817e-21)
(0.145453 0.0467712 2.05745e-21)
(0.0826556 0.0261845 -9.21699e-22)
(0.0829085 0.0262283 -9.41788e-25)
(0.0404437 0.0126258 0)
(0.040588 0.0126691 0)
(0.0095916 0.0029808 -2.45964e-22)
(0.00960551 0.00297821 -2.48703e-22)
(0.00963765 0.00298793 0)
(0.00963434 0.0029929 -2.51956e-22)
(0.225312 0.0740643 7.73412e-25)
(0.296348 0.099574 0)
(0.352961 0.121151 -9.72694e-22)
(0.389577 0.136481 0)
(0.402299 0.143734 4.38596e-22)
(0.390044 0.142023 -1.28151e-25)
(0.354933 0.131647 6.73258e-26)
(0.30172 0.113984 1.16932e-22)
(0.236571 0.0910979 4.96368e-22)
(0.165883 0.0652893 0)
(0.0952319 0.0385809 0)
(0.0306277 0.0124511 0)
(0.144633 0.0463286 -1.01007e-24)
(0.0821153 0.0261089 3.50311e-24)
(0.0823331 0.0260941 -9.20066e-22)
(0.0401591 0.0125408 0)
(0.0403028 0.0125821 0)
(0.00952889 0.00295985 -2.35227e-22)
(0.00954224 0.00295933 -2.37698e-22)
(0.00956937 0.00296749 0)
(0.00956284 0.0029713 -2.40357e-22)
(0.223827 0.0734824 -7.72762e-25)
(0.294375 0.0987739 1.09235e-21)
(0.350553 0.120116 0)
(0.386842 0.135233 0)
(0.399353 0.142318 -5.08314e-22)
(0.387013 0.140503 1.28112e-25)
(0.351942 0.130106 1.85066e-23)
(0.298868 0.112512 -1.12953e-25)
(0.234024 0.0897938 0)
(0.163455 0.0642401 0)
(0.0952734 0.0378586 0)
(0.0265055 0.0100861 0)
(0.143698 0.0460038 0)
(0.081847 0.0257143 0)
(0.0819013 0.026079 8.69002e-22)
(0.0397946 0.0124965 0)
(0.0399979 0.0125105 8.55904e-22)
(0.00946927 0.00293844 0)
(0.009476 0.002937 -2.27277e-22)
(0.00949989 0.00294566 -2.32636e-22)
(0.00949502 0.00294945 4.51112e-25)
(0.222409 0.0729251 0)
(0.292478 0.0979854 0)
(0.348237 0.119083 0)
(0.384183 0.133971 -1.38201e-22)
(0.396464 0.140875 -3.34115e-25)
(0.384017 0.138947 6.03538e-23)