/*--------------------------------*- C++ -*----------------------------------*\
| =========                 |                                                 |
| \\      /  F ield         | OpenFOAM: The Open Source CFD Toolbox           |
|  \\    /   O peration     | Version:  v1912                                 |
|   \\  /    A nd           | Website:  www.openfoam.com                      |
|    \\/     M anipulation  |                                                 |
\*---------------------------------------------------------------------------*/
FoamFile
{
    version     2.0;
    format      ascii;
    class       surfaceScalarField;
    location    "210";
    object      phi;
}
// * * * * * * * * * * * * * * * * * * * * * * * * * * * * * * * * * * * * * //

dimensions      [0 3 -1 0 0 0 0];
oriented        oriented;


internalField   nonuniform List<scalar> 
7354
(
-3.50184e-06
0.00134621
-1.30823e-05
0.00412581
-2.75393e-06
0.00134899
-3.35746e-05
0.00693681
-1.33771e-05
0.00413646
-3.80389e-06
0.00135283
-6.0977e-05
0.00966863
-3.32951e-05
0.00695675
-1.4093e-05
0.00414678
-2.77741e-06
0.00135563
-9.44015e-05
0.0121429
-6.00191e-05
0.00969537
-3.18113e-05
0.00697448
-1.14813e-05
0.00415551
-2.82245e-06
0.00135848
-0.000142931
0.0141574
-9.43013e-05
0.0121772
-5.56115e-05
0.00971919
-3.0224e-05
0.00699324
-1.14632e-05
0.00416417
-2.80341e-06
0.0013613
-0.000184373
0.0154882
-0.000136448
0.0141996
-9.14603e-05
0.012213
-5.52995e-05
0.00974428
-2.58364e-05
0.00700763
-1.13146e-05
0.0041727
-1.79315e-06
0.00136311
-0.000236205
0.015984
-0.000185614
0.0155373
-0.000132518
0.0142407
-8.58555e-05
0.0122436
-4.56452e-05
0.0097641
-2.26956e-05
0.00701903
-9.32221e-06
0.00418025
-1.72793e-06
0.00136484
-0.00027623
0.015545
-0.000229984
0.0160284
-0.000177048
0.0155819
-0.000120425
0.0142752
-7.11872e-05
0.0122691
-4.14428e-05
0.00978286
-1.97078e-05
0.00702942
-7.25081e-06
0.00418577
-1.61722e-06
0.00136646
-0.000313801
0.0142253
-0.000278777
0.0155938
-0.00021856
0.0160699
-0.000150621
0.0156121
-9.9563e-05
0.0143036
-6.39753e-05
0.0122917
-3.71744e-05
0.00980034
-1.81878e-05
0.00704036
-6.35551e-06
0.00419051
-1.67342e-06
0.00136814
-0.000338925
0.0121429
-0.000320619
0.0142671
-0.000258552
0.0156338
-0.000186173
0.0161054
-0.000130066
0.0156426
-8.27828e-05
0.0143224
-5.22874e-05
0.0123068
-2.77131e-05
0.00980987
-1.52047e-05
0.00704921
-6.84727e-06
0.00419569
-1.70273e-06
0.00136985
-0.000342667
0.00950875
-0.00035128
0.0121735
-0.000276808
0.0142854
-0.000206138
0.0156538
-0.00014838
0.0161238
-0.000104383
0.0156642
-6.93878e-05
0.0143396
-4.26181e-05
0.0123217
-2.72174e-05
0.00982188
-1.18254e-05
0.00705419
-4.24448e-06
0.00419824
-1.32095e-06
0.00137119
-0.000113956
0.00653508
-0.000193267
-0.000371632
0.00952911
-0.000286279
0.012183
-0.000211438
0.0142907
-0.000159425
0.0156648
-0.000112996
0.0161324
-7.91169e-05
0.0156739
-5.13582e-05
0.0143483
-3.56307e-05
0.0123301
-1.80277e-05
0.00982809
-1.18619e-05
0.00706182
-5.96372e-06
0.0042029
-7.02082e-07
0.0013719
0.00214793
-8.39456e-05
-0.000200252
0.00654041
-0.000176701
0.00210628
-0.000151619
-0.000259066
0.00950191
-0.000190553
0.0121621
-0.000150931
0.0142822
-0.000110428
0.0156623
-8.75606e-05
0.0161408
-6.51566e-05
0.0156877
-4.54068e-05
0.0143581
-3.07028e-05
0.0123428
-2.25916e-05
0.00983883
-1.13609e-05
0.00706723
-4.73731e-06
0.00420694
-1.42438e-06
0.00137333
0.00137613
-2.49174e-05
0.00208868
-0.00018264
-0.000129775
0.00647067
-5.95395e-05
0.00206494
-0.000152961
0.00131821
-6.20505e-05
-3.16408e-05
-0.000140852
0.00945221
-0.000119168
0.0121304
-9.54584e-05
0.0142672
-7.9542e-05
0.0156542
-6.27946e-05
0.0161385
-4.61489e-05
0.0156885
-3.95588e-05
0.0143669
-2.55375e-05
0.0123457
-1.70521e-05
0.00984452
-1.22029e-05
0.0070747
-5.50048e-06
0.00421102
-2.18121e-06
0.0013755
0.000430381
-9.68488e-06
0.00130107
-8.31691e-05
-8.23293e-05
0.00201677
-8.15998e-05
-4.56198e-05
0.00638624
-1.07987e-05
0.00199347
-3.62291e-05
0.0012567
-3.88176e-05
-6.97754e-05
-0.000416607
0.000389703
-3.51442e-05
-1.78663e-05
-6.77998e-05
0.00940086
-6.52579e-05
0.0121002
-6.23907e-05
0.0142501
-5.12745e-05
0.0156427
-4.38062e-05
0.0161361
-3.80007e-05
0.0156869
-3.19323e-05
0.0143733
-2.49345e-05
0.0123536
-2.1473e-05
0.0098538
-1.32738e-05
0.00708247
-7.52725e-06
0.00421636
-1.15183e-06
0.00137665
0.000252115
-1.55458e-06
0.00036432
-5.77849e-05
0.000343099
-6.11077e-05
0.00120401
-2.18868e-05
-7.01504e-06
0.001965
-1.71508e-05
-1.64917e-05
0.00633546
-5.12494e-07
0.00196039
-6.17899e-06
0.00117377
-7.9414e-07
-5.18759e-06
-0.000320157
0.000301261
-1.99194e-05
-4.68325e-05
-0.000238206
0.000212798
-9.73495e-06
-3.95598e-06
-3.51358e-05
0.00937074
-3.89053e-05
0.0120767
-3.75591e-05
0.0142364
-3.85325e-05
0.0156375
-3.24526e-05
0.0161306
-3.37656e-05
0.0156888
-2.63644e-05
0.0143748
-2.84909e-05
0.0123607
-2.08015e-05
0.00986132
-1.52515e-05
0.00709019
-7.26763e-06
0.00422247
-2.82619e-06
0.00137948
7.45185e-05
0.000175639
-2.06252e-05
0.000154736
-4.0203e-05
0.000286045
-6.66945e-06
0.000281139
-2.10797e-06
0.00115808
-1.78695e-06
3.24903e-07
0.00194736
-3.46561e-06
-6.88505e-06
0.00630326
3.95342e-06
0.00194791
-1.05071e-06
0.0011519
1.04675e-06
-1.04111e-06
-0.000276452
0.000276059
-3.99705e-07
-4.98809e-07
-0.000107903
8.79842e-05
-7.05626e-05
6.08281e-05
-1.48362e-05
0.00934668
-2.39376e-05
0.0120631
-2.53064e-05
0.0142231
-2.30216e-05
0.015628
-2.96563e-05
0.0161265
-2.60675e-05
0.0156885
-3.68661e-05
0.0143831
-3.34347e-05
0.0123733
-2.68489e-05
0.00987292
-1.8281e-05
0.00710121
-1.01609e-05
0.0042298
-1.91268e-06
0.00138139
4.0203e-05
8.13151e-05
7.92074e-05
0.000274315
-4.16598e-08
0.000274775
-1.34036e-07
0.00114847
-5.02838e-07
4.71303e-07
0.00194175
-7.27317e-07
-4.25449e-06
0.00628909
3.58942e-06
0.00194485
8.61162e-07
0.00114714
2.57661e-07
2.33223e-08
-0.000273588
0.000274431
2.05004e-07
1.45873e-07
-7.87086e-05
7.83094e-05
-6.47293e-06
0.00932922
-7.23318e-06
0.012045
-1.30998e-05
0.0142132
-2.05982e-05
0.015619
-2.57535e-05
0.0161262
-3.71087e-05
0.0156887
-3.40672e-05
0.0143838
-3.64726e-05
0.0123829
-3.05131e-05
0.00988515
-1.99496e-05
0.007111
-1.05747e-05
0.00423847
-2.62035e-06
0.00138402
7.82679e-05
7.8134e-05
0.000274156
-2.26106e-07
0.000274442
1.86957e-07
0.00114611
-9.20698e-08
3.93653e-07
0.0019407
-1.03683e-07
-9.59249e-07
0.00628178
1.81008e-06
0.00194372
5.70943e-07
0.00114686
-1.61445e-07
2.71273e-07
-0.00027433
0.000274522
6.73258e-08
1.35897e-07
-7.82799e-05
7.84853e-05
-4.82759e-07
0.00932248
-6.87862e-06
0.0120388
-1.13952e-05
0.014204
-1.53005e-05
0.0156085
-2.80645e-05
0.0161171
-4.11422e-05
0.0156958
-5.05349e-05
0.0143978
-4.34192e-05
0.0123958
-3.6182e-05
0.00990139
-2.53504e-05
0.00712578
-1.10388e-05
0.00424689
-3.38693e-06
0.00138741
7.82595e-05
7.84467e-05
0.000274422
9.31658e-09
0.00027474
7.60127e-08
0.00114623
2.07054e-07
3.22303e-07
0.00194293
-1.70145e-07
5.54497e-07
0.00627885
1.89332e-06
0.00194341
1.33445e-06
0.00114682
1.3786e-07
-1.50223e-07
-0.000275055
0.000274858
3.59976e-08
-4.39336e-08
-7.85826e-05
7.86504e-05
-6.58748e-07
0.00931626
-6.54635e-08
0.0120275
-6.76275e-06
0.0141955
-2.583e-05
0.0156063
-3.9051e-05
0.016115
-4.98143e-05
0.0156951
-5.8257e-05
0.0144127
-5.72631e-05
0.0124169
-4.61312e-05
0.00992218
-2.68327e-05
0.00714158
-1.11012e-05
0.00425461
-2.32376e-06
0.00138973
7.86598e-05
7.87359e-05
0.000275116
-4.98149e-08
0.000275319
1.20185e-07
0.00114594
3.27217e-07
3.82287e-07
0.00194376
2.06978e-07
4.21617e-07
0.00627595
1.82218e-06
0.00194425
1.40934e-06
0.00114735
2.48937e-07
-3.19003e-07
-0.000275012
0.000275192
-4.10749e-08
1.58078e-07
-7.8692e-05
7.87282e-05
5.19263e-06
0.00931101
2.2243e-07
0.0120205
-1.05949e-05
0.0141803
-2.50573e-05
0.0155923
-4.96422e-05
0.0161149
-6.66598e-05
0.0157035
-7.18603e-05
0.0144273
-6.73623e-05
0.0124381
-4.90997e-05
0.00994445
-2.92821e-05
0.00715977
-1.41156e-05
0.0042664
-3.03876e-06
0.00139277
7.86786e-05
7.8799e-05
0.000275507
1.20154e-08
0.00027603
-1.40511e-07
0.00114761
-3.14468e-07
2.61245e-07
0.00194379
8.79625e-07
1.95548e-06
0.00627679
2.40235e-06
0.00194535
2.61107e-07
0.0011485
1.92345e-07
3.25193e-07
-0.00027557
0.000275778
4.10054e-08
1.41827e-07
-7.89571e-05
7.89164e-05
1.9785e-06
0.00930925
-3.09059e-06
0.012013
-1.98177e-05
0.014175
-4.29615e-05
0.0155856
-6.95929e-05
0.0161178
-9.07747e-05
0.0157224
-9.55838e-05
0.0144555
-7.85757e-05
0.0124676
-5.39294e-05
0.0099691
-2.97545e-05
0.0071754
-1.20777e-05
0.00427543
-3.36354e-06
0.00139612
7.89284e-05
7.87879e-05
0.000275536
-7.14126e-08
0.000275702
9.64339e-08
0.00114923
-1.60618e-07
3.15038e-07
0.00194605
1.25845e-06
1.94325e-06
0.00627652
3.08444e-07
0.00194734
1.11747e-06
0.00114906
2.56068e-07
1.78738e-07
-0.000275869
0.000276306
-2.43087e-07
1.58439e-07
-7.89298e-05
7.8971e-05
1.86405e-06
0.00930431
-6.27879e-06
0.0119995
-2.33629e-05
0.0141554
-5.88064e-05
0.0155748
-9.05324e-05
0.0161176
-0.000110674
0.0157375
-0.000106029
0.014483
-8.55427e-05
0.0124992
-5.88298e-05
0.00999817
-3.24606e-05
0.00719578
-1.34065e-05
0.00428546
-2.83668e-06
0.00139894
7.88998e-05
7.89964e-05
0.000276146
-7.77136e-10
0.000276319
1.42285e-07
0.00115028
-2.78771e-07
3.19958e-07
0.0019491
1.84178e-07
1.90708e-06
0.00627459
1.89085e-06
0.00194808
1.32254e-06
0.00115141
-2.87463e-07
2.72667e-07
-0.000276405
0.000276632
3.01512e-08
9.27719e-08
-7.91549e-05
7.89121e-05
-4.4177e-07
0.00929847
-1.36526e-05
0.0119898
-4.57122e-05
0.0141423
-8.77725e-05
0.0155721
-0.000127911
0.0161348
-0.000137601
0.0157691
-0.000128358
0.0145258
-9.47178e-05
0.0125351
-5.84875e-05
0.0100242
-3.16369e-05
0.007214
-1.13201e-05
0.00429393
-1.93472e-06
0.00140085
7.89114e-05
7.90537e-05
0.000276347
6.51443e-09
0.000276562
1.05714e-07
0.00115093
3.21565e-07
3.45563e-07
0.00194916
8.38312e-07
1.83301e-06
0.00627191
4.12963e-07
0.00195067
3.71809e-07
0.00115227
-1.78667e-07
1.60547e-07
-0.000276733
0.000276709
-2.62439e-07
1.02559e-07
-7.91465e-05
7.91767e-05
-2.66609e-06
0.0092875
-2.42157e-05
0.0119683
-6.99945e-05
0.0141246
-0.000126186
0.0155704
-0.000162527
0.0161597
-0.00016972
0.0158104
-0.000135117
0.0145662
-9.77014e-05
0.0125743
-6.02414e-05
0.0100528
-2.82136e-05
0.00723088
-1.08796e-05
0.00430284
-1.79956e-06
0.00140261
7.91835e-05
7.92894e-05
0.000277004
2.64855e-08
0.000277177
1.72662e-07
0.0011526
3.41742e-07
1.64947e-07
0.00195139
1.12144e-06
1.90541e-06
0.00626685
4.8661e-07
0.00195144
3.56407e-07
0.00115302
1.57016e-07
-2.05578e-07
-0.000277277
0.000277066
3.2435e-08
5.99908e-08
-7.93919e-05
7.91298e-05
-8.72171e-06
0.009272
-4.5391e-05
0.0119437
-0.000109463
0.0141078
-0.000170286
0.0155781
-0.000204741
0.0161947
-0.000182322
0.0158576
-0.00014205
0.0146105
-9.53718e-05
0.0126094
-5.10677e-05
0.0100756
-2.38676e-05
0.00724385
-8.69424e-06
0.0043097
-1.46848e-06
0.00140404
7.91563e-05
7.93289e-05
0.000277346
6.22825e-08
0.000277457
5.47781e-08
0.00115351
3.31583e-07
2.97787e-07
0.00195239
9.59964e-07
1.89572e-06
0.00625711
-8.69399e-07
0.00195252
3.57563e-07
0.00115395
2.60267e-07
-3.35087e-07
-0.000277166
0.000277564
-2.40545e-07
8.56006e-08
-7.93889e-05
7.94213e-05
-1.79278e-05
0.00924456
-7.67509e-05
0.011911
-0.00016145
0.014099
-0.000228353
0.0156017
-0.000229862
0.0162423
-0.000196091
0.0159116
-0.000141626
0.0146567
-8.55426e-05
0.0126439
-4.63989e-05
0.0100981
-2.04616e-05
0.00725559
-5.77864e-06
0.00431398
-4.28182e-07
0.00140442
7.94837e-05
7.95387e-05
0.000277838
5.76394e-08
0.000278025
1.10547e-07
0.00115485
3.44798e-07
-2.85595e-07
0.00195317
1.24235e-06
1.99694e-06
0.00623975
-2.57137e-06
0.00195223
7.98052e-08
0.00115473
1.4976e-07
3.32798e-07
-0.000277606
0.000277891
-2.49434e-08
8.42863e-08
-7.96243e-05
7.93839e-05
-3.85454e-05
0.00920634
-0.000130342
0.0118799
-0.000234276
0.0141049
-0.000275086
0.0156469
-0.000248295
0.0162945
-0.000187379
0.0159574
-0.000125812
0.014697
-7.27853e-05
0.0126703
-3.84718e-05
0.0101161
-1.69115e-05
0.00726669
-3.44532e-06
0.00431695
-2.81435e-07
0.00140465
7.94415e-05
7.9552e-05
0.000278168
6.85678e-08
0.000277765
1.17601e-07
0.0011558
3.05994e-07
-1.34686e-07
0.00195392
3.02543e-07
2.01816e-06
0.0062076
-8.40632e-06
0.00195118
1.65963e-07
0.0011559
-1.51083e-07
1.32451e-07
-0.000278243
0.000278324
6.92049e-08
-1.44342e-07
-7.96362e-05
7.96113e-05
-7.69368e-05
0.00915295
-0.000204705
0.0118503
-0.000298658
0.0141285
-0.000295732
0.0156944
-0.000234109
0.0163412
-0.00016861
0.0160002
-0.000106963
0.0147312
-6.29711e-05
0.0126948
-3.22098e-05
0.0101314
-9.79719e-06
0.00727301
-2.6592e-06
0.00431929
7.2501e-07
0.00140388
7.96801e-05
7.97979e-05
0.000278622
8.55539e-09
0.000278444
4.29388e-08
0.00115573
3.1121e-07
1.54294e-07
0.00195275
4.53291e-07
-8.43155e-07
0.00615037
-1.8867e-05
0.00194605
-1.705e-06
0.00115586
-2.93332e-07
3.30056e-07
-0.00027846
0.000278301
8.48708e-09
1.16e-07
-7.96535e-05
7.9723e-05
-0.000146192
0.00909442
-0.00031238
0.011864
-0.000340981
0.0141737
-0.000284025
0.0157443
-0.00020896
0.0163815
-0.000140989
0.0160342
-8.69779e-05
0.0147552
-4.77138e-05
0.0127103
-1.97167e-05
0.0101413
-5.91526e-06
0.00727624
1.31161e-06
0.00431866
1.11797e-06
0.00140271
7.97315e-05
7.97744e-05
0.000278601
1.16512e-08
0.000278653
1.02565e-07
0.0011561
3.18662e-07
-1.02345e-07
0.00194678
-1.57991e-06
-1.05987e-05
0.00606095
-4.61847e-05
0.00193208
-4.1686e-06
0.00115435
-1.07896e-07
1.47699e-07
-0.000279116
0.000278763
6.02344e-08
-1.32346e-07
-7.98904e-05
7.98989e-05
-0.000277219
0.00905927
-0.000369031
0.0118921
-0.000317905
0.0142076
-0.000237487
0.0157728
-0.000168927
0.0164095
-0.000107332
0.0160545
-6.39015e-05
0.0147714
-3.39315e-05
0.0127245
-1.13672e-05
0.0101467
-1.15224e-06
0.00727868
2.90328e-06
0.00431683
1.47635e-06
0.00140119
7.99107e-05
8.00135e-05
0.000279065
1.63047e-08
0.000278911
5.17647e-08
0.00115272
3.10487e-07
-2.54309e-07
0.00192875
-7.27286e-06
-5.39628e-05
0.00595945
-0.000121753
0.00189876
-1.61979e-05
0.00114847
-2.37953e-07
3.13223e-07
-0.000278939
0.000279022
-1.91482e-07
1.19078e-07
-7.98811e-05
7.99416e-05
-0.000385363
0.0090756
-0.000336418
0.0119106
-0.000252325
0.0142225
-0.000183052
0.0157869
-0.000123443
0.0164256
-8.00822e-05
0.0160707
-4.25615e-05
0.01478
-1.73022e-05
0.0127304
-4.84927e-06
0.0101504
2.93322e-06
0.00727862
3.44592e-06
0.00431482
2.78421e-06
0.00139836
7.99577e-05
8.00093e-05
0.000279318
1.40604e-08
0.000278961
1.0292e-07
0.0011414
3.71625e-07
-5.70181e-07
0.0018745
-2.97002e-05
-0.00017071
0.00595401
-0.00020922
0.00181613
-6.33815e-05
0.00112663
-1.55377e-06
1.23694e-07
-0.00027921
0.000278901
6.99969e-08
6.44722e-08
-8.01284e-05
7.99367e-05
-0.000333136
0.00907232
-0.000238478
0.0118967
-0.000174825
0.0142142
-0.000128941
0.0157924
-8.86751e-05
0.0164342
-5.59139e-05
0.0160841
-2.96894e-05
0.0147924
-1.07321e-05
0.0127363
3.74336e-06
0.0101496
6.44746e-06
0.00727559
7.05374e-06
0.00431051
3.35006e-06
0.00139498
7.99508e-05
8.00537e-05
0.00027922
5.26183e-08
0.000278762
-1.13803e-07
0.00110099
-4.26069e-07
-3.64034e-06
0.0017789
-0.000133489
-0.000179922
0.00589847
-9.76722e-05
0.00174701
-0.000177326
0.00105043
-1.0867e-05
-1.95394e-06
-0.000278715
0.000277405
-2.45414e-07
1.70652e-07
-8.01182e-05
8.01881e-05
-0.000182375
0.00901623
-0.000146606
0.0118685
-0.000116519
0.0142018
-8.41809e-05
0.015788
-5.75516e-05
0.0164358
-3.1859e-05
0.0160862
-1.39496e-05
0.0147956
-2.7603e-07
0.0127403
7.86745e-06
0.0101482
1.29042e-05
0.00726972
9.97585e-06
0.00430386
3.77367e-06
0.00139118
8.02405e-05
8.01264e-05
0.000277186
-2.07888e-07
0.000273768
-2.22147e-07
0.000969445
-1.45178e-05
-3.79868e-05
0.00170249
-0.000135403
-6.20198e-05
0.00579592
-1.77948e-05
0.0016624
-5.75872e-05
0.000922154
-6.632e-05
-6.37166e-05
-0.000272402
0.00026334
-1.80579e-06
-5.88089e-07
-8.0297e-05
8.00512e-05
-8.509e-05
0.00895473
-8.12278e-05
0.0118333
-6.92908e-05
0.014187
-5.24621e-05
0.0157829
-3.38643e-05
0.0164378
-1.54347e-05
0.0160877
-6.38034e-07
0.0147959
1.19566e-05
0.0127362
1.5835e-05
0.0101452
1.4492e-05
0.00726518
9.50265e-06
0.00429811
4.80424e-06
0.00138636
7.98432e-05
7.9621e-05
0.000252877
-4.05432e-06
0.000225069
-1.01796e-05
0.000855313
-4.88963e-05
-1.9666e-05
0.00162334
-2.29572e-05
-1.82887e-05
0.00572899
1.38885e-07
0.0016127
-7.15288e-06
0.0008058
-1.34759e-06
-6.72655e-06
-0.000183817
0.000158024
-4.05277e-05
-2.24651e-05
-7.9033e-05
7.72271e-05
-4.03763e-05
0.0089139
-4.30398e-05
0.011807
-3.84889e-05
0.014173
-2.94225e-05
0.0157784
-1.62025e-05
0.0164386
-3.15248e-06
0.0160903
1.28109e-05
0.0147951
1.58201e-05
0.0127362
2.06701e-05
0.010139
1.75469e-05
0.00725712
1.35879e-05
0.00428931
5.06682e-06
0.00138128
7.31726e-05
6.29928e-05
0.000109128
8.94616e-05
0.000783545
-7.27678e-07
2.63099e-08
0.00159805
-3.64307e-06
-7.25532e-06
0.00569263
3.25471e-06
0.00159855
-3.58715e-07
0.000776383
2.82271e-07
-2.71842e-07
-8.2735e-05
8.13875e-05
-4.05277e-05
-1.8106e-05
0.00888899
-2.20088e-05
0.0117906
-1.88468e-05
0.0141625
-7.88078e-06
0.0157701
4.79319e-08
0.0164354
1.2422e-05
0.0160906
1.57093e-05
0.0147952
2.52366e-05
0.0127316
2.48849e-05
0.0101317
2.31921e-05
0.00724751
1.56737e-05
0.00427869
5.88961e-06
0.00137538
8.06599e-05
8.06863e-05
0.000772667
-4.21657e-08
1.17726e-07
0.00159232
-1.01286e-06
-4.38341e-06
0.0056751
3.82759e-06
0.00159446
1.10972e-06
0.000772251
1.13892e-07
-5.45358e-08
-8.04145e-05
8.0697e-05
-4.73721e-06
0.00887175
-8.66223e-06
0.0117804
-4.03329e-06
0.0141586
2.89425e-06
0.0157673
1.3674e-05
0.0164342
1.95637e-05
0.0160868
3.15874e-05
0.0147888
3.24919e-05
0.012724
3.24496e-05
0.0101224
2.7768e-05
0.00723541
1.74308e-05
0.00426714
6.82469e-06
0.00136854
8.06551e-05
8.07731e-05
0.000770981
1.01553e-07
1.59068e-07
0.00159001
7.60958e-08
-2.13425e-06
0.00566911
3.40238e-06
0.00159378
6.20718e-08
0.000772017
1.89319e-07
-1.11931e-07
-8.07185e-05
8.0833e-05
-4.95023e-07
0.00886361
1.78429e-06
0.0117746
4.90966e-06
0.0141566
1.12068e-05
0.0157698
2.34092e-05
0.0164303
3.02523e-05
0.0160881
3.17052e-05
0.0147896
3.60887e-05
0.0127204
3.48941e-05
0.0101153
3.11609e-05
0.00722167
2.07213e-05
0.00425324
7.81808e-06
0.00136072
8.0935e-05
8.10944e-05
0.000771939
8.6863e-08
7.11194e-08
0.00159131
3.37579e-07
-1.01775e-06
0.00566697
2.67939e-06
0.00159387
8.50426e-07
0.00077212
3.05341e-08
-1.44942e-07
-8.09825e-05
8.11726e-05
2.41678e-06
0.008863
8.38493e-06
0.0117712
1.50879e-05
0.0141528
2.24833e-05
0.0157707
2.64771e-05
0.0164341
4.00949e-05
0.0160798
4.60144e-05
0.0147797
4.828e-05
0.012707
4.27304e-05
0.0101037
3.5962e-05
0.00720643
2.31724e-05
0.00423788
8.79092e-06
0.00135193
8.126e-05
8.13316e-05
0.000772348
5.80149e-08
5.59546e-08
0.00159306
-1.94397e-07
7.15703e-09
0.0056667
2.70926e-06
0.00159487
8.71045e-07
0.000773278
4.4222e-08
-1.18563e-07
-8.11866e-05
8.12181e-05
6.84951e-06
0.00886458
1.34099e-05
0.0117729
1.76098e-05
0.0141577
3.14556e-05
0.0157658
4.15065e-05
0.0164327
4.65412e-05
0.0160792
4.93096e-05
0.0147787
5.35063e-05
0.0126962
5.06535e-05
0.010089
4.13666e-05
0.00718823
2.69691e-05
0.00421969
9.67247e-06
0.00134225
8.12767e-05
8.13332e-05
0.000772961
6.30372e-08
6.55847e-08
0.00159425
6.33418e-07
9.4723e-08
0.00567067
2.79892e-06
0.00159639
5.80086e-07
0.000773812
-6.084e-08
8.58874e-08
-8.12146e-05
8.12599e-05
8.12711e-06
0.00886988
1.48046e-05
0.0117757
2.71051e-05
0.014162
3.45885e-05
0.0157727
4.34738e-05
0.0164358
5.39271e-05
0.0160746
6.14185e-05
0.0147708
6.05532e-05
0.0126863
5.82349e-05
0.0100721
4.52372e-05
0.00716996
3.00576e-05
0.00419931
1.10109e-05
0.00133124
8.13237e-05
8.13899e-05
0.000774313
6.58259e-08
7.13564e-08
0.00159582
6.66197e-07
1.28502e-06
0.00567457
2.96589e-06
0.00159802
6.13411e-07
0.00077479
4.80115e-08
6.03528e-08
-8.14758e-05
8.1416e-05
1.00701e-05
0.00887465
1.92104e-05
0.0117836
2.82065e-05
0.0141684
4.11119e-05
0.0157751
5.45392e-05
0.0164352
6.22889e-05
0.0160738
7.06983e-05
0.0147606
7.00053e-05
0.0126745
6.58251e-05
0.0100516
5.40004e-05
0.00714601
3.25607e-05
0.00417776
1.19179e-05
0.00131932
8.14825e-05
8.15544e-05
0.000775531
-1.17287e-07
4.86875e-08
0.0015986
7.02653e-07
3.32616e-07
0.00568137
2.95838e-06
0.00160081
7.67382e-07
0.00077604
5.22245e-08
5.79393e-08
-8.16148e-05
8.1664e-05
1.1283e-05
0.00888258
2.11259e-05
0.0117907
3.44314e-05
0.0141751
4.59041e-05
0.0157837
6.09807e-05
0.0164365
7.17622e-05
0.0160727
7.74349e-05
0.0147532
8.40606e-05
0.0126563
7.53939e-05
0.0100302
6.05034e-05
0.00711807
3.78684e-05
0.00415181
1.22141e-05
0.00130711
8.15475e-05
8.15969e-05
0.000776555
6.84534e-08
1.22809e-07
0.00160041
7.35186e-07
1.41712e-06
0.00568826
2.99262e-06
0.00160267
7.08336e-07
0.00077732
8.90916e-08
-8.07397e-08
-8.16549e-05
8.17082e-05
1.12559e-05
0.00889249
2.36498e-05
0.0118015
4.05273e-05
0.0141805
5.79544e-05
0.0157867
7.13302e-05
0.0164369
8.51269e-05
0.016065
9.30937e-05
0.0147442
9.26375e-05
0.012639
8.59755e-05
0.0100047
6.63071e-05
0.00708963
4.03355e-05
0.00412368
1.06403e-05
0.00129647
8.17772e-05
8.19006e-05
0.000777919
7.28432e-08
6.84757e-08
0.00160334
7.44707e-07
2.37686e-07
0.0056967
2.59246e-06
0.00160563
7.15471e-07
0.0007787
4.45818e-08
-1.11959e-07
-8.18199e-05
8.191e-05
1.2455e-05
0.00890369
2.75965e-05
0.0118145
4.51372e-05
0.0141933
6.43442e-05
0.0157937
8.00888e-05
0.016442
9.3347e-05
0.0160647
0.000105143
0.0147316
0.000101459
0.0126236
9.5103e-05
0.00997589
7.54687e-05
0.0070545
4.30829e-05
0.00409124
1.32493e-05
0.00128322
8.19837e-05
8.20529e-05
0.000779312
6.90706e-08
6.52201e-08
0.00160524
6.29685e-07
7.04425e-07
0.00570758
8.81899e-07
0.00160744
4.00385e-07
0.000780091
-1.16938e-07
5.88764e-08
-8.1941e-05
8.19865e-05
1.54894e-05
0.00891583
3.2118e-05
0.0118275
5.44406e-05
0.0142032
7.07372e-05
0.0158031
9.16665e-05
0.0164437
0.000107227
0.0160627
0.000116633
0.0147165
0.000119771
0.0125989
0.000106701
0.00994466
8.13591e-05
0.00701622
4.36551e-05
0.00406084
3.17684e-05
0.00125145
8.2056e-05
8.21216e-05
0.000780588
6.38064e-08
7.35542e-08
0.00160836
-2.15934e-07
1.74068e-06
0.00571909
2.25674e-06
0.00161118
-1.93613e-06
0.0007808
1.06648e-07
8.64748e-08
-8.21805e-05
8.20643e-05
1.92839e-05
0.00892866
3.89269e-05
0.011843
5.80852e-05
0.0142159
8.19303e-05
0.0158128
0.000104897
0.016446
0.000122993
0.0160563
0.000132296
0.014704
0.000128424
0.0125772
0.000116036
0.00990998
8.67189e-05
0.00697316
7.42336e-05
0.00401837
7.40493e-05
8.21289e-05
8.22032e-05
0.000780689
3.21365e-08
-1.3536e-07
0.00161664
-3.7098e-06
3.94444e-06
0.0057292
5.24324e-06
0.00161409
6.38227e-06
-1.5685e-06
0.000778768
1.45595e-09
-1.17621e-08
-8.22896e-05
8.23973e-05
2.38509e-05
0.00894376
4.10273e-05
0.0118601
6.59754e-05
0.0142318
9.1136e-05
0.0158266
0.000114684
0.0164543
0.000134146
0.0160545
0.000146228
0.0146862
0.000147636
0.0125456
0.000129688
0.00986701
0.000114711
0.00693268
0.000135794
8.24298e-05
8.22948e-05
0.000459433
-1.58369e-08
-2.57988e-07
0.000315904
0.00161673
-6.20423e-07
1.92298e-06
5.10473e-06
0.00574263
5.3193e-06
0.00161835
1.35323e-06
2.26879e-06
0.000484528
-1.87101e-05
0.000489846
-6.8862e-06
-8.2283e-05
8.22854e-05
2.35953e-05
0.00896119
4.8078e-05
0.011878
7.4089e-05
0.0142489
0.000106826
0.0158344
0.000134488
0.016454
0.000154069
0.0160466
0.000164629
0.0146692
0.000161664
0.0125136
0.000154743
0.00982698
0.000178936
8.22703e-05
8.20129e-05
0.000294142
3.05252e-06
0.000491637
-2.41028e-06
0.0004943
-7.40375e-07
0.00162043
1.22375e-06
1.81285e-06
4.30723e-06
0.00575774
4.17935e-06
0.00162361
7.4965e-07
1.3849e-06
0.000495122
5.31822e-07
0.000496203
1.18777e-06
0.000288623
-1.36557e-06
2.69662e-05
0.00898232
5.27121e-05
0.0118994
8.47566e-05
0.014271
0.000116117
0.0158528
0.000144803
0.0164632
0.000170673
0.0160406
0.000177212
0.0146536
0.000186647
0.0124817
0.000210402
8.5066e-05
0.000287282
-1.06849e-06
0.000286921
-3.78736e-07
0.000496789
6.3778e-07
0.000497824
7.77844e-07
0.001626
6.01177e-07
1.31411e-06
5.52761e-06
0.00577454
4.6457e-06
0.00162853
6.3239e-07
1.02181e-06
0.000498361
2.14809e-07
0.00049896
7.85789e-07
0.000287406
4.65329e-08
0.000288506
8.8474e-08
8.37007e-05
2.97424e-05
0.00900528
6.10119e-05
0.0119231
9.62374e-05
0.0142908
0.000133598
0.015864
0.000164751
0.0164692
0.000182292
0.0160355
0.000207359
0.0146329
0.000228606
8.26325e-05
8.22539e-05
0.000288885
2.58554e-07
0.000289419
2.44259e-07
0.000498917
6.44453e-07
0.000500026
2.05203e-07
0.0016322
7.36793e-07
1.12126e-06
6.0152e-06
0.00579316
5.11329e-06
0.00163499
7.19853e-07
1.13683e-06
0.000500261
3.98639e-07
0.000500753
5.2942e-07
0.000289451
1.84102e-07
0.000290077
1.6053e-07
8.23007e-05
8.2389e-05
3.57634e-05
0.00903055
6.74831e-05
0.0119519
0.000108631
0.0143158
0.000146791
0.015882
0.000175165
0.0164763
0.000210695
0.0160322
0.000234004
8.26477e-05
8.28921e-05
0.000290566
1.55547e-07
0.000290819
-4.69761e-08
0.000501175
3.15469e-07
0.000501855
4.41542e-07
0.00163897
8.2033e-07
1.21094e-06
5.64458e-06
0.00581746
5.81467e-06
0.00164212
7.97965e-07
1.17319e-06
0.000502118
4.57248e-07
0.000503049
2.05633e-07
0.000291103
1.15046e-07
0.000291519
1.14436e-07
8.30766e-05
8.32372e-05
3.84726e-05
0.00905955
7.98899e-05
0.0119806
0.000123621
0.014339
0.000160116
0.015897
0.000199038
0.0164879
0.000222864
8.3393e-05
8.33462e-05
0.000291714
1.19588e-07
0.00029203
1.26776e-07
0.000503101
7.68239e-07
0.000503821
4.9121e-07
0.00164537
8.98673e-07
1.49718e-06
7.45032e-06
0.00584207
6.4231e-06
0.00164916
7.13416e-07
1.30479e-06
0.000504546
7.38051e-08
0.000505123
5.96098e-07
0.000292529
-4.15656e-08
0.0002926
1.36018e-07
8.34616e-05
8.35761e-05
4.61757e-05
0.00909328
9.04548e-05
0.0120138
0.000133425
0.0143657
0.000174305
0.0159218
0.000197861
8.36959e-05
8.38228e-05
0.000293184
1.8386e-07
0.000293529
1.46989e-07
0.000505257
7.65664e-07
0.000506621
1.33139e-07
0.00165389
1.07378e-06
1.65107e-06
8.87478e-06
0.00587173
7.63827e-06
0.00165789
9.10344e-07
1.50569e-06
0.00050684
4.95478e-07
0.000507478
6.66316e-07
0.000293482
1.2097e-07
0.000294141
-6.14226e-08
8.37816e-05
8.39176e-05
5.50029e-05
0.00912873
0.000105935
0.0120413
0.000145378
0.0143946
0.000159077
8.41018e-05
8.42489e-05
0.000294768
1.38109e-07
0.000294777
1.25524e-07
0.000508097
4.55357e-07
0.000509151
5.97152e-07
0.00166362
1.28053e-06
1.87381e-06
9.94584e-06
0.00590703
9.75644e-06
0.00166841
1.13987e-06
1.70073e-06
0.000509461
6.00409e-07
0.000510465
5.0138e-07
0.00029508
1.92407e-07
0.000295775
-2.76393e-08
8.43702e-05
8.43088e-05
6.95131e-05
0.00916516
0.000110913
0.0120758
0.000116406
8.44472e-05
8.45728e-05
0.000296079
1.51231e-07
0.000296514
1.62515e-07
0.000510903
8.42755e-07
0.000512059
7.17137e-07
0.00167473
2.07971e-06
1.55183e-06
1.35483e-05
0.00594853
1.44624e-05
0.00168122
1.89655e-06
1.36817e-06
0.000512894
3.06127e-07
0.00051364
9.5343e-07
0.000296943
1.71552e-07
0.000297268
1.76914e-07
8.47656e-05
8.4738e-05
8.12444e-05
0.00919482
7.28204e-05
8.48895e-05
8.50521e-05
0.000297888
2.22322e-07
0.00029858
2.61322e-08
0.000514788
9.31536e-07
0.000515942
3.97827e-07
0.00168983
2.47898e-06
2.45218e-06
1.89953e-05
0.00598768
2.30932e-05
0.00169804
2.84333e-06
3.41122e-06
0.000517046
7.93069e-07
0.000517389
1.02409e-06
0.000298707
1.78332e-07
0.000299474
1.8706e-07
8.5224e-05
8.54008e-05
4.35516e-05
8.56233e-05
8.56493e-05
0.000300201
2.0407e-07
0.000300398
2.01468e-07
0.000518801
1.06717e-06
0.000520637
6.17214e-07
0.0017089
4.043e-06
4.0909e-06
4.22801e-05
1.54127e-05
0.00171972
4.87139e-06
7.40174e-06
0.000522271
1.20977e-06
0.000523761
1.92179e-06
0.000301164
2.64174e-08
0.000301994
1.94429e-07
8.58278e-05
8.60148e-05
8.62189e-05
8.64204e-05
0.000302839
2.22737e-07
0.00030322
2.37217e-07
0.000526101
1.70373e-06
0.000527952
2.24037e-06
0.00173735
9.93782e-06
1.47115e-05
2.134e-05
8.76e-06
0.000530382
2.44185e-06
0.00053409
3.69404e-06
0.000304134
2.96751e-07
0.000305677
3.79507e-07
8.6447e-05
8.66415e-05
8.68645e-05
8.7102e-05
0.000306961
4.21633e-07
0.000308607
5.95389e-07
0.000537164
6.86387e-06
0.000541621
1.02547e-05
0.000547818
1.51445e-05
1.32507e-05
0.000310457
5.93461e-07
0.000313176
9.75649e-07
8.73993e-05
8.77793e-05
8.82015e-05
8.87976e-05
0.000318021
2.02041e-06
0.000323574
4.70316e-06
0.000328781
9.93838e-06
2.04595e-05
8.93914e-05
9.03676e-05
9.23886e-05
9.70924e-05
0.000107031
1.3925e-05
-1.3932e-05
-5.96269e-05
2.02693e-05
5.32643e-05
7.1592e-06
-2.1094e-05
-7.19749e-05
1.95003e-05
-0.000118664
2.71632e-05
0.000111757
1.64622e-05
3.67872e-05
3.54011e-06
-2.46486e-05
1.19696e-05
-8.03971e-05
-0.000128875
2.97137e-05
-2.30987e-05
-0.000411051
6.41888e-05
0.000397079
0.000105113
6.93345e-06
2.98347e-05
1.57212e-06
-2.62169e-05
1.88022e-05
-0.00013571
7.0323e-06
-8.5863e-05
6.64895e-05
-0.000429071
-4.09382e-05
-0.00143353
0.00139125
0.00014712
-1.48541e-05
0.00037768
-6.71764e-06
9.71874e-05
2.36652e-06
2.74648e-05
8.26656e-07
-2.70447e-05
1.44917e-05
-0.000143171
4.1026e-06
-8.91479e-05
-4.31617e-05
0.000155749
-0.00147979
-7.7635e-06
-0.000450027
-2.49867e-05
0.000104922
-1.09429e-05
-0.001999
0.00195078
0.000195152
0.000358999
-4.48942e-06
-1.82516e-06
9.28401e-05
1.08439e-06
2.63885e-05
2.66844e-07
-2.73194e-05
-0.000146843
2.17488e-06
-9.10926e-05
0.000205785
-0.00204919
-2.96578e-05
0.000125885
-0.00155746
-1.88996e-05
-6.16489e-06
-0.000470151
-3.44011e-06
0.000171204
-1.42067e-06
-0.00231129
0.00225976
0.000246469
8.94385e-05
-4.84521e-07
8.80994e-05
2.59025e-05
3.00387e-07
-2.76521e-05
-0.000150843
1.50956e-06
-9.23268e-05
0.000258025
-0.00236367
0.000199304
-0.00212279
0.000111318
-0.00163793
-1.52911e-05
-1.58633e-05
-0.000482957
-2.51099e-06
-3.64561e-06
-0.000152779
0.000231564
-2.08066e-07
-0.00235729
0.00231107
0.000292532
2.61051e-07
-2.7921e-05
1.41239e-06
-9.34932e-05
0.000302787
-0.00240219
0.000264281
-0.00242877
0.000198225
-0.00220986
0.000121842
-0.00172282
-2.08088e-05
-1.64121e-05
0.000493941
-0.000504174
-1.36766e-06
-3.79911e-06
-2.68699e-06
-2.25136e-06
0.000155012
-1.21035e-06
-0.000156342
0.000282209
-0.00211763
0.00208606
0.000323913
2.59528e-07
-2.81983e-05
-9.44534e-05
0.000330471
-0.00214546
0.000313682
-0.00245173
0.000274474
-0.00250515
0.000215681
-0.00230385
0.000153098
-0.00182118
-3.37905e-05
-2.1142e-05
0.000514497
-0.000527631
-7.8002e-06
-6.15746e-06
0.00015935
-0.000151072
-9.68286e-06
0.000158977
-3.45059e-06