/*--------------------------------*- C++ -*----------------------------------*\
| =========                 |                                                 |
| \\      /  F ield         | OpenFOAM: The Open Source CFD Toolbox           |
|  \\    /   O peration     | Version:  v1912                                 |
|   \\  /    A nd           | Website:  www.openfoam.com                      |
|    \\/     M anipulation  |                                                 |
\*---------------------------------------------------------------------------*/
FoamFile
{
    version     2.0;
    format      ascii;
    class       surfaceScalarField;
    location    "110";
    object      phi;
}
// * * * * * * * * * * * * * * * * * * * * * * * * * * * * * * * * * * * * * //

dimensions      [0 3 -1 0 0 0 0];
oriented        oriented;


internalField   nonuniform List<scalar> 
7194
(
-2.09064e-06
0.00132867
0.00397828
-2.24128e-06
0.00133091
-1.00354e-05
0.00398608
-2.38736e-06
0.0013333
-2.59429e-05
0.00658985
-1.04063e-05
0.00399411
-2.38117e-06
0.00133569
-4.72346e-05
0.0090553
-2.57878e-05
0.00660524
-1.03834e-05
0.00400212
-2.25238e-06
0.00133795
-7.77324e-05
0.0112731
-5.04758e-05
0.00907999
-2.52668e-05
0.00662013
-1.02302e-05
0.0040101
-2.28848e-06
0.00134024
-0.000118129
0.0131109
-8.17304e-05
0.0113043
-4.77204e-05
0.00910245
-2.58398e-05
0.00663574
-1.05936e-05
0.00401841
-1.96537e-06
0.00134221
-0.000163616
0.0144472
-0.000121764
0.0131509
-8.15751e-05
0.0113382
-4.86507e-05
0.00912526
-2.3377e-05
0.00664853
-8.92579e-06
0.00402537
-1.83592e-06
0.00134405
-0.000208582
0.0151752
-0.000166515
0.0144919
-0.00012008
0.0131895
-7.58571e-05
0.0113654
-4.36764e-05
0.00914556
-2.11379e-05
0.00666074
-8.08277e-06
0.00403162
-1.72548e-06
0.00134578
-0.000248576
0.0152292
-0.000214721
0.0152234
-0.000163846
0.0145357
-0.00011476
0.0132284
-7.32068e-05
0.0113949
-3.99832e-05
0.00916441
-1.97584e-05
0.00667242
-7.43768e-06
0.00403734
-1.39239e-06
0.00134717
-0.000278029
0.0145762
-0.00025747
0.015272
-0.000211728
0.0152713
-0.00015735
0.0145783
-0.000103244
0.0132584
-6.42e-05
0.0114191
-3.56991e-05
0.00918035
-1.70217e-05
0.00668201
-5.33812e-06
0.00404128
-1.39903e-06
0.00134858
-0.000291129
0.0132494
-0.000298857
0.0146176
-0.000257423
0.0153177
-0.000198144
0.0153121
-0.000138563
0.0146136
-9.43325e-05
0.0132885
-5.67326e-05
0.0114402
-3.2027e-05
0.00919536
-1.56254e-05
0.0066923
-5.94624e-06
0.00404583
-1.0573e-06
0.00134964
-0.000284598
0.0113276
-0.000328904
0.0132795
-0.000294897
0.0146551
-0.000236518
0.0153561
-0.000173949
0.0153475
-0.000124114
0.0146434
-8.07161e-05
0.0133125
-4.99228e-05
0.0114581
-2.76991e-05
0.00920744
-1.22997e-05
0.00669865
-5.30011e-06
0.00405008
-9.54308e-07
0.00135059
-0.000244897
0.00893898
-0.000349093
0.0113478
-0.00032482
0.0133094
-0.000262128
0.0146807
-0.00020046
0.0153826
-0.000149885
0.0153733
-0.000104026
0.0146667
-6.80181e-05
0.0133306
-4.18109e-05
0.0114722
-2.3428e-05
0.00921857
-1.27384e-05
0.00670609
-4.87009e-06
0.004054
-9.83926e-07
0.00135158
-5.04723e-05
0.0062311
-0.000109672
-0.000356478
0.00894637
-0.000342359
0.0113653
-0.000274514
0.0133218
-0.000216123
0.0146963
-0.000166233
0.0153989
-0.000120323
0.0153896
-8.58522e-05
0.0146845
-6.01634e-05
0.013349
-3.86093e-05
0.0114874
-2.25649e-05
0.0092284
-1.1563e-05
0.00671279
-4.68605e-06
0.0040577
-9.60934e-07
0.00135254
0.00211726
-0.0021353
-3.24283e-05
-0.00014159
0.00621797
-0.000201759
0.0020714
-6.3812e-05
-0.000348354
0.00895237
-0.000267475
0.0113583
-0.000210038
0.0133157
-0.000165924
0.014696
-0.00012933
0.0154079
-0.000101983
0.0154057
-7.52472e-05
0.0146996
-4.99441e-05
0.0133603
-3.24743e-05
0.0114973
-1.92822e-05
0.00923612
-9.96181e-06
0.00671807
-4.53973e-06
0.00406128
-1.02294e-06
0.00135357
-2.00219e-05
0.00139746
-0.00142234
-8.96157e-07
-6.64917e-06
0.00204095
-0.000111134
-0.00019519
0.00620467
-0.000139857
0.00201337
-0.000174181
0.00135408
-1.55267e-05
-4.90275e-06
-0.000227289
0.00891219
-0.000182437
0.0113307
-0.000152774
0.0133025
-0.000127846
0.0146945
-0.000105148
0.0154111
-8.15158e-05
0.015412
-5.91329e-05
0.0147088
-4.44369e-05
0.0133723
-2.98566e-05
0.0115079
-2.06013e-05
0.00924676
-1.14567e-05
0.00672499
-4.05755e-06
0.00406432
-1.25985e-06
0.00135483
-3.59971e-06
-4.41017e-08
0.000446521
-0.000446653
-7.63872e-07
0.000441626
-1.75375e-06
0.00129965
-1.68771e-05
-3.98341e-05
0.00198983
-0.000171648
-0.000100326
0.00611928
-4.15745e-05
0.00195926
-0.000109288
0.00126558
-8.70598e-05
-5.30492e-05
-0.000439365
0.00042934
-5.5003e-06
-2.64259e-06
-0.000124051
0.0088538
-0.000116036
0.0112939
-0.000106457
0.0132811
-9.53661e-05
0.0146848
-8.00894e-05
0.0154097
-6.47365e-05
0.0154176
-5.37017e-05
0.0147181
-4.04506e-05
0.0133829
-2.91548e-05
0.0115164
-1.88889e-05
0.00925419
-1.19505e-05
0.00673288
-5.59918e-06
0.00406866
-1.3156e-06
0.00135615
-0.000449194
-1.05844e-06
-1.30534e-08
0.000261645
-0.000262347
-6.15181e-08
0.000260165
-2.74051e-07
0.000421664
-9.20089e-06
0.000400129
-1.82979e-05
0.0012377
-8.01067e-05
-6.3656e-05
0.00191339
-5.44494e-05
-3.64117e-05
0.00603981
-8.15996e-06
0.00189611
-2.42953e-05
0.00118593
-1.70396e-05
-4.04795e-05
-0.000380333
0.000353319
-6.00457e-05
-3.3253e-05
-0.000257936
0.0002532
-7.63571e-07
-4.13847e-07
-6.64537e-05
0.00880422
-7.37739e-05
0.0112613
-7.52422e-05
0.013261
-7.18852e-05
0.0146766
-6.50249e-05
0.01541
-5.88171e-05
0.0154227
-4.8326e-05
0.0147259
-3.86791e-05
0.0133924
-3.11099e-05
0.0115286
-2.22063e-05
0.00926445
-1.17496e-05
0.00673904
-5.90112e-06
0.00407325
-1.37744e-06
0.00135753
-0.000263293
-1.12384e-07
-4.41444e-08
7.58168e-05
-7.58783e-05
7.55428e-05
0.000245729
-1.72895e-06
0.00023122
-3.78855e-06
0.000331737
-5.85243e-05
0.000311679
-4.35974e-05
0.00114447
-1.04124e-05
-2.57455e-06
0.00187222
-1.25155e-05
-1.51956e-05
0.00598909
-5.36093e-07
0.00186946
-5.40231e-06
0.00112348
-1.73076e-07
-3.13526e-06
-0.000289913
0.000279201
-6.32675e-06
-1.8713e-05
-0.000207718
0.000169015
-2.13426e-05
-9.75118e-06
-7.5129e-05
7.43656e-05
-3.66908e-05
0.00876714
-4.80997e-05
0.0112341
-5.34236e-05
0.0132426
-5.41286e-05
0.0146657
-5.42257e-05
0.0154054
-4.98298e-05
0.0154242
-4.4613e-05
0.0147319
-3.98246e-05
0.0134011
-3.13928e-05
0.0115378
-2.19395e-05
0.00927464
-1.47245e-05
0.00674786
-6.72831e-06
0.00407861
-1.6986e-06
0.00135923
-7.59907e-05
7.26368e-05
6.88483e-05
0.000148246
-3.77547e-05
0.000104649
0.000271072
-2.2831e-06
0.000269171
-6.72536e-07
0.00111195
-1.19639e-06
2.18463e-07
0.00185775
-3.48822e-06
-7.74954e-06
0.00595909
1.05784e-06
0.00185817
-9.56131e-07
0.00110662
5.53837e-07
-6.30992e-07
-0.00026641
0.000266329
-9.19756e-08
-3.74575e-07
-8.59362e-05
7.96098e-05
-5.90971e-05
3.77547e-05
-2.14635e-05
0.00874051
-3.26801e-05
0.0112134
-3.98037e-05
0.0132282
-4.62112e-05
0.0146577
-4.76873e-05
0.0154032
-4.74582e-05
0.0154271
-4.72316e-05
0.0147393
-4.23485e-05
0.0134121
-3.43549e-05
0.0115502
-2.66127e-05
0.00928653
-1.61723e-05
0.00675731
-7.47632e-06
0.00408439
-1.73114e-06
0.00136097
7.73268e-05
7.66544e-05
0.000265306
-1.72502e-07
0.000265499
2.53964e-08
0.00110324
-3.26817e-07
2.27396e-07
0.00185178
-1.35615e-06
-4.8526e-06
0.00594072
1.76027e-06
0.00185341
-5.69353e-07
0.00110218
4.08764e-07
-3.1364e-07
-0.00026481
0.000265304
6.06411e-08
5.81282e-08
-7.62798e-05
7.6188e-05
-1.34587e-05
0.00872129
-2.41181e-05
0.0111977
-3.12219e-05
0.0132133
-3.72829e-05
0.0146473
-4.4442e-05
0.0154002
-4.83424e-05
0.0154282
-5.05204e-05
0.0147475
-4.6931e-05
0.0134246
-4.1016e-05
0.0115646
-2.99615e-05
0.00930033
-1.80164e-05
0.00676785
-8.30219e-06
0.00409096
-2.09052e-06
0.00136306
7.60156e-05
7.60411e-05
0.000265063
-8.52099e-08
0.000265234
5.68347e-08
0.00110085
-1.79152e-07
1.56213e-07
0.00184915
-5.90305e-07
-2.99631e-06
0.00592918
1.07894e-06
0.00185088
3.18276e-08
0.00110016
2.70172e-07
-1.50482e-07
-0.000264837
0.000265212
3.47658e-08
8.27002e-08
-7.60992e-05
7.616e-05
-9.59352e-06
0.00870677
-1.64755e-05
0.0111829
-2.66582e-05
0.0132026
-3.50025e-05
0.0146378
-4.37266e-05
0.0153956
-5.39303e-05
0.0154316
-5.68069e-05
0.0147573
-5.56564e-05
0.0134393
-4.67483e-05
0.0115814
-3.53611e-05
0.00931767
-2.13921e-05
0.00678094
-9.85196e-06
0.00409873
-2.18449e-06
0.00136525
7.60749e-05
7.61318e-05
0.0002651
-6.69721e-08
0.000265222
3.42019e-08
0.00109966
-1.41853e-07
5.21052e-08
0.00184836
-4.76106e-07
-1.70992e-06
0.00592044
8.56779e-07
0.00184915
2.88883e-07
0.00109952
2.60165e-07
-8.39758e-08
-0.000265003
0.000265261
1.26927e-08
6.81107e-08
-7.62145e-05
7.62494e-05
-6.49261e-06
0.00869679
-1.34938e-05
0.0111698
-2.41607e-05
0.0131918
-3.57422e-05
0.0146298
-4.90375e-05
0.0153907
-5.94704e-05
0.0154342
-6.6735e-05
0.0147684
-6.47673e-05
0.0134573
-5.47902e-05
0.0116009
-3.71651e-05
0.00933345
-2.16714e-05
0.00679277
-9.36298e-06
0.00410591
-1.98634e-06
0.00136724
7.61825e-05
7.62167e-05
0.000265198
-7.77678e-08
0.000265231
1.85518e-08
0.00109908
-7.71418e-08
4.02818e-08
0.00184776
-3.188e-07
-1.32553e-06
0.005914
1.2813e-06
0.00184837
2.46388e-07
0.0010993
1.71591e-07
-9.62271e-08
-0.000265074
0.000265324
1.05041e-08
7.36149e-08
-7.62849e-05
7.62977e-05
-5.33995e-06
0.00868863
-1.22006e-05
0.0111578
-2.31338e-05
0.0131792
-4.14122e-05
0.0146222
-6.05538e-05
0.0153918
-7.57926e-05
0.0154433
-8.02022e-05
0.0147839
-7.4279e-05
0.0134768
-5.9983e-05
0.0116237
-4.22939e-05
0.00935407
-2.37653e-05
0.00680717
-9.23707e-06
0.00411316
-2.04542e-06
0.00136929
7.622e-05
7.62386e-05
0.000265325
-7.85354e-08
0.00026535
1.5902e-08
0.00109903
-9.10254e-09
-3.88451e-08
0.00184718
-1.39732e-07
-1.02093e-06
0.00590859
1.09331e-06
0.00184817
2.92525e-07
0.00109913
1.7017e-07
-3.11027e-08
-0.000265183
0.000265351
4.40343e-09
7.09796e-08
-7.63122e-05
7.63229e-05
-3.51446e-06
0.00867995
-1.18857e-05
0.0111466
-2.75478e-05
0.0131653
-4.65437e-05
0.0146082
-7.03587e-05
0.0153864
-8.94358e-05
0.0154525
-9.78455e-05
0.0148074
-8.7811e-05
0.0135046
-6.75817e-05
0.011649
-4.44964e-05
0.00937481
-2.31989e-05
0.00682114
-9.90342e-06
0.00412102
-2.61798e-06
0.00137191
7.62444e-05
7.62604e-05
0.00026542
-7.81625e-08
0.000265371
1.04072e-08
0.00109904
-7.52527e-09
-3.27454e-08
0.00184727
-1.11377e-07
-4.8421e-07
0.00590461
9.5162e-07
0.00184806
3.01879e-07
0.00109917
1.74025e-07
-1.91848e-08
-0.00026524
0.000265403
7.85968e-09
9.98697e-08
-7.63314e-05
7.63359e-05
-4.45211e-06
0.00867252
-1.42606e-05
0.0111333
-3.32769e-05
0.0131521
-6.39856e-05
0.0146018
-9.34356e-05
0.0153904
-0.000112665
0.0154674
-0.000113415
0.014833
-9.80359e-05
0.0135351
-7.24337e-05
0.0116769
-4.562e-05
0.00939723
-2.34721e-05
0.00683471
-8.09821e-06
0.00412651
-8.1576e-07
0.00137273
7.62579e-05
7.62683e-05
0.000265477
-8.16097e-08
0.000265427
1.81884e-08
0.00109911
-2.43563e-10
-4.28791e-08
0.00184749
8.60716e-08
-1.83496e-07
0.00589978
5.61512e-07
0.0018481
3.39524e-07
0.00109925
1.72728e-07
-1.00213e-08
-0.000265339
0.000265505
8.43805e-09
6.81122e-08
-7.63682e-05
7.63762e-05
-3.72282e-06
0.00866198
-1.94245e-05
0.0111194
-4.69731e-05
0.0131351
-8.35671e-05
0.014592
-0.000117626
0.0153953
-0.000136117
0.0154901
-0.000130039
0.014865
-0.000107303
0.01357
-7.59267e-05
0.0117072
-4.29133e-05
0.00941667
-2.19795e-05
0.00684859
-7.02729e-06
0.00413272
-7.30769e-07
0.00137346
7.62947e-05
7.63129e-05
0.000265592
-8.60472e-08
0.000265438
1.10806e-07
0.00109936
4.48033e-09
-3.25907e-08
0.00184779
1.33062e-07
3.46379e-07
0.00589633
-6.16054e-07
0.00184815
2.03209e-07
0.00109953
1.77006e-07
-3.75132e-09
-0.000265439
0.000265616
-4.19049e-09
-1.09564e-08
-7.6381e-05
7.63897e-05
-6.9042e-06
0.00864947
-2.68176e-05
0.0110993
-6.36723e-05
0.0131152
-0.000112285
0.0145866
-0.000150045
0.0154093
-0.000162646
0.0155227
-0.000144683
0.0149024
-0.000111405
0.0136054
-7.30027e-05
0.0117373
-4.18682e-05
0.00943657
-1.79806e-05
0.00685955
-6.46997e-06
0.00413847
-4.65431e-07
0.00137393
7.63037e-05
7.64146e-05
0.000265666
-4.44433e-08
0.000265519
1.14183e-07
0.00109967
1.4836e-08
-2.66107e-08
0.00184832
1.71951e-07
1.22693e-06
0.00588911
-9.09416e-07
0.00184749
2.17254e-07
0.0010997
1.7804e-07
-9.96889e-10
-0.000265525
0.000265705
-3.00096e-09
-8.9537e-09
-7.64036e-05
7.63996e-05
-1.0542e-05
0.00863319
-3.95893e-05
0.0110752
-9.38645e-05
0.0130967
-0.00015
0.0145866
-0.000186604
0.0154332
-0.000184556
0.0155626
-0.00015453
0.0149455
-0.00011125
0.0136437
-6.87801e-05
0.0117642
-3.703e-05
0.00945562
-1.64219e-05
0.0068695
-3.19643e-06
0.0041412
-2.2898e-07
0.00137416
7.63553e-05
7.64695e-05
0.000265797
-7.68965e-08
0.000265656
1.15051e-07
0.00109988
1.46942e-08
-1.77552e-08
0.00184847
2.4966e-07
1.56192e-06
0.00587888
-1.87483e-06
0.00184768
-1.18578e-07
0.00109993
1.73957e-07
-7.40268e-09
-0.000265663
0.000265844
-3.20606e-09
-7.68072e-09
-7.64606e-05
7.64578e-05
-1.76562e-05
0.00861126
-6.35352e-05
0.0110449
-0.000133904
0.0130806
-0.000197429
0.0145974
-0.00022137
0.0154701
-0.00019614
0.0156042
-0.000153012
0.0149873
-0.000101943
0.0136769
-6.14573e-05
0.0117887
-3.14556e-05
0.00947065
-1.10291e-05
0.00687733
-2.88649e-06
0.00414385
1.6376e-07
0.001374
7.6381e-05
7.64961e-05
0.000265901
-4.16617e-08
0.000265802
8.18633e-08
0.00110019
1.13171e-08
-2.32849e-08
0.0018487
5.42453e-07
1.07775e-06
0.00586347
-3.32047e-06
0.00184716
-3.40676e-07
0.00109987
1.87708e-07
1.58003e-08
-0.00026577
0.00026595
-5.89421e-09
2.48338e-08
-7.64885e-05
7.64854e-05
-3.01767e-05
0.00857791
-9.96572e-05
0.0110106
-0.0001899
0.0130731
-0.000246585
0.0146226
-0.00023904
0.015513
-0.000199206
0.0156504
-0.000141953
0.0150273
-9.26676e-05
0.0137081
-5.21207e-05
0.0118093
-2.32006e-05
0.00948282
-6.71238e-06
0.00688116
6.86481e-07
0.00414333
1.75493e-06
0.00137226
7.64439e-05
7.65258e-05
0.000266044
-8.19113e-08
0.000265927
9.36513e-08
0.00110039
2.98422e-08
-5.59305e-09
0.00184762
6.20781e-07
1.80404e-06
0.00583726
-5.76883e-06
0.00184488
-5.71895e-07
0.00109991
1.16534e-07
1.97882e-08
-0.000265931
0.000266114
5.01929e-09
1.21464e-08
-7.65506e-05
7.65449e-05
-5.47356e-05
0.00853299
-0.000159895
0.0109806
-0.000257812
0.0130843
-0.000278573
0.0146622
-0.000243214
0.015557
-0.000182934
0.0156913
-0.000125713
0.0150604
-7.69776e-05
0.0137329
-4.13977e-05
0.0118275
-1.58679e-05
0.00949199
-3.1337e-06
0.00688499
1.66885e-06
0.00414344
2.11378e-06
0.00137015
7.64631e-05
7.65569e-05
0.00026622
-7.5719e-08
0.000266116
9.88981e-08
0.00110049
1.05621e-07
-5.72463e-08
0.00184664
3.56895e-08
-1.87487e-08
0.00579449
-1.19414e-05
0.00184176
-8.79651e-07
0.00109976
5.82678e-08
9.4011e-08
-0.000266121
0.000266237
7.58232e-10
1.4509e-08
-7.6569e-05
7.65742e-05
-0.000103684
0.00847678
-0.000241117
0.0109639
-0.000308244
0.013114
-0.000285066
0.014704
-0.000221814
0.0155958
-0.000157856
0.0157235
-0.000102809
0.0150862
-6.11823e-05
0.0137527
-2.86151e-05
0.0118403
-9.33292e-06
0.00949819
1.06831e-06
0.0068856
5.37301e-06
0.00414018
2.5333e-06
0.00136762
7.64986e-05
7.65976e-05
0.000266387
-4.31716e-08
0.000266258
7.12105e-08
0.00109973
1.89645e-07
-1.20349e-07
0.00184247
-7.34017e-07
-5.05827e-06
0.00572376
-2.78991e-05
0.00183335
-2.81624e-06
0.00109873
7.43064e-09
1.12292e-07
-0.000266304
0.000266355
8.02724e-09
4.83364e-08
-7.66121e-05
7.66131e-05
-0.000191637
0.0084273
-0.000328379
0.0109841
-0.000319926
0.0131489
-0.000253456
0.0147357
-0.000186316
0.0156243
-0.000128234
0.0157489
-8.12652e-05
0.0151063
-4.31944e-05
0.0137673
-1.81361e-05
0.0118491
-2.11934e-06
0.0095014
3.89145e-06
0.0068871
7.51122e-06
0.00413521
2.9341e-06
0.00136468
7.657e-05
7.66413e-05
0.000266616
-7.0716e-08
0.000266391
1.04925e-07
0.00109796
2.04974e-07
-1.64967e-07
0.00183152
-3.22919e-06
-2.5936e-05
0.00562916
-7.10986e-05
0.00181233
-8.71312e-06
0.00109534
-3.06652e-07
1.11154e-07
-0.000266485
0.00026652
-2.75681e-08
1.79774e-08
-7.66897e-05
7.66979e-05
-0.000322617
0.00842154
-0.000346773
0.0110109
-0.000273115
0.0131685
-0.000203792
0.0147531
-0.000145058
0.0156411
-9.79265e-05
0.0157656
-5.75069e-05
0.0151206
-2.84443e-05
0.0137776
-7.98069e-06
0.011855
4.44921e-06
0.00950084
1.12164e-05
0.00688338
7.91046e-06
0.00413023
3.42937e-06
0.00136125
7.66272e-05
7.67322e-05
0.000266751
-2.55367e-08
0.000266507
8.00193e-08
0.00109214
4.59826e-07
-4.86799e-07
0.00180044
-1.40437e-05
-9.55592e-05
0.00557718
-0.000175072
0.00176041
-3.10695e-05
0.00108405
-8.01822e-07
1.71811e-07
-0.000266563
0.000266289
-3.20803e-08
5.45313e-08
-7.67502e-05
7.67229e-05
-0.000361997
0.00843677
-0.000273622
0.0110114
-0.000203864
0.0131686
-0.000151602
0.0147597
-0.000106181
0.0156494
-6.77075e-05
0.0157758
-3.79623e-05
0.0151302
-1.27896e-05
0.0137825
3.67585e-06
0.0118557
1.21884e-05
0.00949988
1.25231e-05
0.00687878
9.56026e-06
0.0041241
3.99141e-06
0.00135725
7.66974e-05
7.67775e-05
0.000266794
-4.50735e-08
0.000266227
8.00938e-08
0.0010713
1.51394e-07
-1.43826e-06
0.00172468
-5.98296e-05
-0.000195967
0.00557197
-0.00016082
0.00167597
-0.000126356
0.00104407
-3.59858e-06
-2.41122e-07
-0.000266372
0.000265645
-7.46478e-08
2.75699e-08
-7.6832e-05
7.68001e-05
-0.000238859
0.00840201
-0.000177462
0.010985
-0.000137124
0.0131542
-0.000101364
0.0147549
-7.18442e-05
0.0156536
-4.48135e-05
0.0157827
-1.90305e-05
0.0151364
-2.29272e-06
0.0137884
1.19522e-05
0.011856
1.63151e-05
0.00949608
2.02343e-05
0.0068681
1.11871e-05
0.0041169
4.74886e-06
0.00135251
7.67551e-05
7.68352e-05
0.000265896
-9.94912e-08
0.000264483
-2.53797e-08
0.000996942
-2.17156e-06
-1.05322e-05
0.00164894
-0.000168935
-0.000107
0.00548282
-4.27038e-05
0.00161565
-0.000127535
0.000922142
-3.72033e-05
-1.4352e-05
-0.00026431
0.000261233
-5.21983e-07
-6.74093e-08
-7.68628e-05
7.67883e-05
-0.000120481
0.00834504
-0.000105097
0.010953
-8.7553e-05
0.0131404
-6.71163e-05
0.0147502
-4.61786e-05
0.0156549
-2.26813e-05
0.0157863
-4.84201e-06
0.015139
9.98092e-06
0.0137904
1.95496e-05
0.0118528
2.28049e-05
0.00949352
1.84116e-05
0.00686088
1.57456e-05
0.0041059
6.50558e-06
0.00134599
7.66889e-05
7.66635e-05
0.000259669
-6.06996e-07
0.000250876
-1.73995e-06
0.000876773
-5.97492e-05
-6.38154e-05
0.00156362
-5.49647e-05
-3.16702e-05
0.00539924
-5.22059e-06
0.00154104
-2.01285e-05
0.000813097
-1.87345e-05
-4.51264e-05
-0.00024036
0.000213169
-1.00128e-05
-3.8354e-06
-7.65961e-05
7.60742e-05
-5.5873e-05
0.00829584
-5.75506e-05
0.010923
-5.10788e-05
0.0131243
-3.86636e-05
0.0147427
-2.07678e-05
0.015653
-4.7247e-06
0.0157862
8.96882e-06
0.01514
2.26239e-05
0.0137873
2.75456e-05
0.011848
2.97571e-05
0.00948217
2.66679e-05
0.00684995
1.59951e-05
0.0040964
5.9901e-06
0.00134001
7.54672e-05
7.37272e-05
0.000175597
-2.21763e-05
0.000149485
-3.77027e-05
0.000765769
-6.38674e-06
-1.25163e-06
0.00151784
-8.46911e-06
-1.09166e-05
0.0053524
1.88457e-06
0.0015152
-2.57359e-06
0.00074642
9.82349e-08
-8.78778e-07
-0.000104358
8.56237e-05
-6.98918e-05
5.9879e-05
-2.65045e-05
0.0082648
-3.13696e-05
0.0109033
-2.62757e-05
0.013112
-1.6811e-05
0.0147387
-6.2167e-06
0.0156545
7.11823e-06
0.0157881
1.96488e-05
0.015143
2.97749e-05
0.0137851
3.37043e-05
0.0118441
3.45767e-05
0.00947426
2.92957e-05
0.00683666
1.98968e-05
0.0040825
6.85315e-06
0.00133315
3.77027e-05
7.92367e-05
7.79848e-05
0.000737998
-1.92362e-07
1.44867e-07
0.00150561
-1.32259e-06
-4.85196e-06
0.00532748
3.28048e-06
0.00150735
1.46458e-07
0.00073536
1.46553e-07
-8.03879e-08
-7.71061e-05
7.72038e-05
-1.04517e-05
0.00824389
-1.22839e-05
0.0108894
-9.94444e-06
0.0131051
-1.31162e-06
0.0147338
9.73552e-06
0.0156519
2.13884e-05
0.0157863
3.22621e-05
0.0151405
3.82332e-05
0.0137806
4.23373e-05
0.0118363
4.33334e-05
0.00946022
3.33847e-05
0.00682316
2.24178e-05
0.00406693
8.83387e-06
0.00132432
7.70115e-05
7.71564e-05
0.00073393
-1.48122e-08
1.25367e-07
0.00150258
-7.74932e-08
-2.63812e-06
0.00531662
3.04366e-06
0.00150538
4.80569e-07
0.000734009
9.62399e-08
-2.57702e-08
-7.7076e-05
7.72227e-05
-2.43683e-06
0.00823404
-1.5603e-06
0.010881
3.4205e-06
0.0131004
1.1658e-05
0.0147319
2.25518e-05
0.0156508
3.19354e-05
0.0157867
4.1965e-05
0.0151368
4.73587e-05
0.0137756
5.14377e-05
0.0118282
4.60156e-05
0.00944759
3.90651e-05
0.00680652
2.26349e-05
0.00405314
8.44955e-06
0.00131588
7.72082e-05
7.73341e-05
0.00073387
-2.63083e-08
9.02827e-08
0.00150257
1.75239e-07
-1.00694e-06
0.00531231
2.88374e-06
0.00150503
5.85634e-07
0.000734302
6.48282e-08
-1.43761e-08
-7.73083e-05
7.74051e-05
2.85677e-06
0.00822962
5.62862e-06
0.0108788
1.20568e-05
0.0131
2.00616e-05
0.0147344
3.05089e-05
0.0156522
4.23819e-05
0.0157863
4.96292e-05
0.0151345
5.78133e-05
0.0137692
5.89705e-05
0.0118153
5.24875e-05
0.00943416
4.28812e-05
0.00678627
2.56147e-05
0.00403598
9.44421e-06
0.00130645
7.73793e-05
7.74701e-05
0.000734395
6.3075e-10
8.31629e-08
0.00150362
3.97537e-07
-6.28774e-08
0.00531198
3.24265e-06
0.00150585
6.50383e-07
0.000734948
5.42471e-08
-2.21477e-08
-7.74558e-05
7.7521e-05
5.37774e-06
0.00822987
1.10487e-05
0.0108798
1.97552e-05
0.0131003
2.98539e-05
0.0147351
4.03086e-05
0.0156543
5.13858e-05
0.0157845
6.07679e-05
0.0151315
6.51589e-05
0.013763
6.15881e-05
0.0118061
5.8317e-05
0.00941874
4.48946e-05
0.006767
3.13769e-05
0.00401406
9.98701e-06
0.00129646
7.75218e-05
7.76053e-05
0.000735262
3.36489e-08
5.02539e-08
0.00150529
4.99859e-07
1.12287e-07
0.0053141
3.14947e-06
0.00150786
6.68244e-07
0.000735792
3.50448e-08
8.40424e-08
-7.75832e-05
7.76373e-05
8.66872e-06
0.00823226
1.65029e-05
0.010883
2.56277e-05
0.0131045
3.78248e-05
0.0147375
5.0676e-05
0.015655
6.04833e-05
0.0157848
6.8715e-05
0.015128
7.41702e-05
0.0137504
7.64754e-05
0.011788
6.64997e-05
0.00939713
5.56121e-05
0.00674276
3.23067e-05
0.00399174
1.07778e-05
0.00128569
7.76709e-05
7.77213e-05
0.000736198
3.69738e-08
5.62374e-08
0.00150746
5.17003e-07
1.0484e-06
0.00531901
2.70955e-06
0.0015099
7.01202e-07
0.000736837
2.25686e-08
5.23958e-09
-7.78053e-05
7.78399e-05
1.02603e-05
0.0082385
1.93855e-05
0.0108893
3.08594e-05
0.0131115
4.51849e-05
0.014743
5.72829e-05
0.0156582
7.04529e-05
0.0157831
8.09559e-05
0.0151212
8.46966e-05
0.0137422
8.65187e-05
0.011768
7.66051e-05
0.00937614
5.7645e-05
0.00671744
3.6519e-05
0.003966
1.45897e-05
0.00127109
7.78769e-05
7.79332e-05
0.000737295
1.29778e-08
4.43561e-08
0.00151025
7.01662e-07
1.34561e-06
0.00532513
2.79901e-06
0.0015122
7.54561e-07
0.000737932
2.69902e-08
3.59086e-08
-7.79384e-05
7.79605e-05
1.18167e-05
0.00824607
2.3563e-05
0.0108966
3.72387e-05
0.0131194
5.14998e-05
0.0147488
6.66049e-05
0.015662
8.06308e-05
0.0157834
8.8855e-05
0.015117
9.37146e-05
0.013735
9.03191e-05
0.0117543
8.48927e-05
0.00934889
6.51539e-05
0.00668879
4.05763e-05
0.00394
2.9296e-05
0.00124178
7.79733e-05
7.80177e-05
0.000738534
3.94786e-08
5.95664e-08
0.00151279
7.53727e-07
1.53133e-06
0.00533284
2.57088e-06
0.00151456
1.03003e-06
0.000739245
3.07294e-08
1.1774e-08
-7.80536e-05
7.808e-05
1.3084e-05
0.00825655
2.77182e-05
0.0109061
4.53901e-05
0.0131255
6.07519e-05
0.0147547
7.80022e-05
0.0156647
8.92254e-05
0.015783
0.000100581
0.0151102
0.000104703
0.0137206
0.000102497
0.0117367
9.14263e-05
0.00932262
7.25617e-05
0.0066568
6.19703e-05
0.00390732
5.66288e-05
7.81194e-05
7.81791e-05
0.000739895
4.11309e-08
6.1233e-08
0.00151524
8.55835e-07
1.44331e-06
0.00534259
1.89909e-06
0.00151716
6.48674e-07
0.000740802
1.09348e-07
1.30075e-08
-7.81909e-05
7.82211e-05
1.47939e-05
0.00826949
3.1038e-05
0.0109205
4.94846e-05
0.0131368
6.90232e-05
0.0147637
8.59889e-05
0.0156679
0.000101535
0.015782
0.000110842
0.015104
0.00011418
0.0137089
0.000110963
0.0117171
9.76503e-05
0.00929752
9.33322e-05
0.00662543
0.000103976
7.82621e-05
7.83234e-05
0.000741545
7.88476e-08
3.40086e-08
0.00151819
4.14502e-07
1.13922e-06
0.00535472
1.52538e-06
0.00152018
-9.00021e-08
0.000742124
3.46673e-08
3.41849e-08
-7.83364e-05
7.84453e-05
1.9094e-05
0.00828143
3.71563e-05
0.0109328
5.60154e-05
0.0131498
7.58278e-05
0.0147738
9.44238e-05
0.015675
0.00011119
0.0157817
0.000121114
0.0150971
0.000128161
0.0136917
0.000124602
0.0116902
0.00012129
0.00926956
0.000136009
7.85241e-05
7.85583e-05
0.000742462
2.31819e-08
5.23253e-08
0.00152252
-1.20366e-06
1.93626e-06
0.00536635
5.54306e-06
0.00152584
-1.79376e-06
0.00074241
3.73338e-09
-4.17283e-08
-7.85924e-05
7.86268e-05
2.28423e-05
0.00829576
4.0511e-05
0.0109483
6.32172e-05
0.0131624
8.54043e-05
0.0147828
0.000106504
0.0156797
0.000120103
0.0157827
0.00013247
0.0150928
0.000137519
0.0136788
0.000142621
0.0116688
0.000159275
7.86499e-05
7.87023e-05
0.000741145
3.32076e-08
2.84455e-08
0.00152411
5.32666e-06
-1.65357e-06
5.76205e-06
0.0053778
5.62758e-06
0.00152865
-3.17863e-07
1.31806e-06
0.000438351
-2.07607e-07
0.000301197
1.16285e-08
-7.86606e-05
7.8664e-05
2.45033e-05
0.00831176
4.61926e-05
0.0109653
6.89028e-05
0.0131789
9.43445e-05
0.014795
0.000113675
0.0156861
0.00013136
0.0157838
0.000140533
0.0150897
0.000153175
0.0136682
0.000169397
7.86972e-05
7.87258e-05
0.000459431
-1.57535e-05
0.000464575
-6.79636e-06
0.00153118
1.33139e-06
1.90871e-06
5.04565e-06
0.00539238
4.88362e-06
0.00153389
1.32676e-06
1.58962e-06
0.000467295
-3.03745e-06
0.0004695
-8.86986e-07
-7.87375e-05
7.85299e-05
0.00028258
2.86295e-06
2.65361e-05
0.00833143
5.08257e-05
0.0109834
7.76304e-05
0.0131956
0.000102862
0.0148058
0.00012353
0.0156939
0.000140799
0.0157835
0.000157207
0.0150857
0.000175342
0.000276664
-8.79745e-07
0.000470488
3.44256e-07
0.000471833
5.64483e-07
0.00153646
1.10575e-06
1.366e-06
5.28524e-06
0.00540869
4.94411e-06
0.00153934
8.50477e-07
1.15674e-06
0.000472477
6.83311e-07
0.000473213
8.54462e-07
0.000274667
-1.03989e-06
0.000274286
-5.05801e-07
8.1393e-05
3.01201e-05
0.00835212
5.59803e-05
0.011005
8.54844e-05
0.013213
0.00010988
0.0148194
0.000131243
0.0157035
0.00015034
0.0157904
0.000169722
8.05132e-05
0.000274621
9.63186e-09
0.000275072
1.14561e-07
0.000473684
6.34919e-07
0.000474596
4.54584e-07
0.00154268
8.64695e-07
1.08123e-06
5.67296e-06
0.00542774
5.40271e-06
0.00154558
1.14327e-06
9.01087e-07
0.000474997
4.50217e-07
0.000475547
6.06278e-07
0.000275585
1.70693e-07
0.000276284
1.56378e-07
7.94736e-05
7.89678e-05
3.31875e-05
0.00837492
6.29711e-05
0.0110275
9.24674e-05
0.0132304
0.000115951
0.0148347
0.000138605
0.0157152
0.00015358
7.89777e-05
7.90924e-05
0.000276725
1.93922e-07
0.000277037
1.43147e-07
0.000475958
4.5337e-07
0.000476542
4.98201e-07
0.00154923
1.13427e-06
8.88395e-07
6.40486e-06
0.00544865
5.86035e-06
0.00155254
1.21209e-06
8.79361e-07
0.000477271
4.14544e-07
0.000477762
4.1037e-07
0.000277381
1.06339e-07
0.000277879
1.08577e-07
7.92634e-05
7.94199e-05
3.80273e-05
0.00839985
7.02543e-05
0.0110498
9.85515e-05
0.0132478
0.000121389
0.0148519
0.000129903
7.9614e-05
7.97572e-05
0.00027823
1.02244e-07
0.000278593
1.35447e-07
0.000478276
6.19524e-07
0.000478746
4.19382e-07
0.00155663
1.32985e-06
9.9044e-07
7.20861e-06
0.00547272
6.75154e-06
0.00156019
1.31949e-06
9.78505e-07
0.000479584
3.73225e-07
0.00048002
4.4365e-07
0.000278943
6.46936e-08
0.000279252
1.01735e-07
7.98637e-05
7.99723e-05
4.40155e-05
0.00842609
7.78094e-05
0.0110705
0.000100212
0.013269
0.000103203
8.00746e-05
8.02101e-05
0.000279737
1.33648e-07
0.000280055
1.01548e-07
0.000480685
6.64453e-07
0.000481221
4.55263e-07
0.00156453
1.47492e-06
1.38968e-06
8.70009e-06
0.00550027
7.75915e-06
0.00156865
1.2402e-06
1.39715e-06
0.000482126
4.14884e-07
0.000482445
6.59605e-07
0.000280323
1.0571e-07
0.000280656
1.107e-07
8.02749e-05
8.03765e-05
5.33514e-05
0.00845053
7.97756e-05
0.0110909
7.52984e-05
8.05102e-05
8.06117e-05
0.000281216
1.04843e-07
0.000281453
2.17827e-07
0.000483358
5.62062e-07
0.000484228
5.20222e-07
0.00157432
1.43358e-06
1.59223e-06
1.13141e-05
0.0055312
1.11001e-05
0.00157889
1.55695e-06
1.62555e-06
0.000484928
5.39229e-07
0.000485591
7.34442e-07
0.000281777
9.1905e-08
0.000282314
1.22407e-07
8.07175e-05
8.08282e-05
5.8986e-05
0.00847132
5.08601e-05
8.09332e-05
8.1151e-05
0.000282722
1.54276e-07
0.000283115
1.26937e-07
0.000486384
6.39769e-07
0.000487361
6.15197e-07
0.0015862
1.88712e-06
2.11424e-06
1.57522e-05
0.00555729
1.71375e-05
0.00159241
2.34542e-06
2.54822e-06
0.000488342
5.75269e-07
0.000489063
9.04201e-07
0.000283526
1.28593e-07
0.00028417
9.05657e-08
8.12431e-05
8.13656e-05
3.46677e-05
8.15199e-05
8.16468e-05
0.000284645
1.64677e-07
0.000285112
1.47288e-07
0.000490162
7.87387e-07
0.000491463
8.13378e-07
0.00160154
3.00416e-06
3.61838e-06
3.30843e-05
1.44714e-05
0.00160921
4.13584e-06
5.32592e-06
0.000492772
1.03572e-06
0.000493914
1.40512e-06
0.000285536
1.51331e-07
0.000286282
1.57929e-07
8.17755e-05
8.1866e-05
8.20307e-05
8.21778e-05
0.000286867
2.0167e-07
0.000287489
1.91262e-07
0.000495406
1.51111e-06
0.000497303
1.72124e-06
0.00162231
8.57735e-06
1.14005e-05
1.69149e-05
8.65096e-06
0.000499485
1.95354e-06
0.000501795
3.01408e-06
0.00028829
2.34656e-07
0.000289383
3.11174e-07
8.23291e-05
8.24869e-05
8.26884e-05
8.28795e-05
0.00029052
3.73875e-07
0.000291829
4.11482e-07
0.000505174
5.19718e-06
0.000508689
7.88397e-06
0.000513325
1.22783e-05
1.19545e-05
0.000293264
5.17868e-07
0.0002955
7.76551e-07
8.3114e-05
8.34249e-05
8.37986e-05
8.42098e-05
0.00029914
1.55669e-06
0.000303496
3.52605e-06
0.000308046
7.72848e-06
1.58496e-05
8.47273e-05
8.55036e-05
8.70598e-05
9.05855e-05
9.83139e-05
-3.47463e-06
3.47545e-06
2.0565e-06
-5.5322e-06
-1.43378e-05
4.22518e-06
1.35891e-05
4.0195e-06
-1.62981e-05
1.01056e-06
-6.54211e-06
6.05658e-06
5.45794e-05
-5.23857e-05
3.71994e-06
9.86751e-06
2.622e-06
-1.79104e-05
4.50454e-07
-6.99213e-06
-4.37462e-06
5.10589e-05
-8.45585e-06
-3.22053e-05
-1.66682e-06
6.02015e-06
5.39465e-05
-1.10676e-06
-5.30314e-05
8.20155e-06
-1.85659e-05
1.6283e-07
-7.15366e-06
-3.2394e-06
6.19055e-05
-1.56069e-06
-0.000490366
-2.59739e-05
0.000508003
-3.20316e-06
-1.69963e-06
-2.57114e-05
-1.55095e-06
-6.52338e-07
5.15562e-05
-1.99297e-07
-8.16724e-07
-5.51305e-05
-2.89881e-07
7.54876e-06
-1.92203e-05
7.13728e-08
-7.22646e-06
-2.36426e-06
5.64995e-05
9.28939e-06
-1.59717e-06
-0.000474705
-1.72711e-05
-0.00149979
-4.44977e-05
0.00151828
-1.79464e-05
0.000524233
2.2818e-06
-2.6241e-05
-5.33727e-07
-1.23077e-06
-5.62076e-05
-1.14343e-07
-3.61402e-07
4.94343e-05
-1.42336e-07
-1.02212e-07
7.34842e-06
-1.94399e-05
1.13271e-07
-7.34158e-06
4.32554e-05
1.59978e-05
-1.50864e-06
-1.21921e-06
-0.00046534
-3.91589e-09