/*--------------------------------*- C++ -*----------------------------------*\
| =========                 |                                                 |
| \\      /  F ield         | OpenFOAM: The Open Source CFD Toolbox           |
|  \\    /   O peration     | Version:  v1912                                 |
|   \\  /    A nd           | Website:  www.openfoam.com                      |
|    \\/     M anipulation  |                                                 |
\*---------------------------------------------------------------------------*/
FoamFile
{
    version     2.0;
    format      ascii;
    class       volVectorField;
    location    "110";
    object      U;
}
// * * * * * * * * * * * * * * * * * * * * * * * * * * * * * * * * * * * * * //

dimensions      [0 1 -1 0 0 0 0];


internalField   nonuniform List<vector> 
3675
(
(0.0779944 -0.0263449 0)
(0.233444 -0.0774061 0)
(0.077483 -0.0261827 1.8311e-21)
(0.231992 -0.0769356 1.94106e-21)
(0.0769807 -0.0260146 0)
(0.383482 -0.124737 -1.58952e-21)
(0.230574 -0.0764708 1.79942e-24)
(0.0765038 -0.0258536 0)
(0.526925 -0.168187 0)
(0.381225 -0.12401 0)
(0.229185 -0.0760118 0)
(0.076028 -0.0256959 0)
(0.655788 -0.205485 0)
(0.523949 -0.167238 0)
(0.378999 -0.123291 0)
(0.227811 -0.0755627 0)
(0.0755639 -0.0255407 -1.54477e-21)
(0.762702 -0.234645 0)
(0.652142 -0.204327 -1.21642e-24)
(0.520979 -0.166294 0)
(0.376812 -0.12259 0)
(0.226474 -0.0751218 1.48982e-21)
(0.0751017 -0.0253858 0)
(0.840559 -0.253893 0)
(0.758462 -0.233297 -6.07571e-22)
(0.648541 -0.203191 1.21527e-24)
(0.518056 -0.165366 0)
(0.374634 -0.121885 0)
(0.225127 -0.0746742 0)
(0.0746369 -0.0252319 0)
(0.883417 -0.261908 -5.90709e-22)
(0.83574 -0.252354 5.70296e-22)
(0.754267 -0.231973 0)
(0.644947 -0.202058 0)
(0.515141 -0.164437 0)
(0.372469 -0.121182 1.21004e-24)
(0.22378 -0.0742306 0)
(0.0741791 -0.0250797 2.60622e-21)
(0.887266 -0.258033 1.17348e-21)
(0.877972 -0.260163 0)
(0.830955 -0.250843 0)
(0.750089 -0.230665 -5.5453e-22)
(0.641379 -0.200936 0)
(0.512215 -0.163508 0)
(0.370298 -0.12048 -1.20984e-24)
(0.222445 -0.073789 -1.27289e-21)
(0.073717 -0.0249255 0)
(0.850658 -0.242448 -6.01298e-22)
(0.881122 -0.256067 -5.6102e-22)
(0.872559 -0.258454 5.43257e-22)
(0.826197 -0.249357 5.2036e-22)
(0.745901 -0.229357 9.96337e-25)
(0.637785 -0.199807 0)
(0.509285 -0.162574 0)
(0.368127 -0.119775 1.09563e-24)
(0.221087 -0.0733407 0)
(0.073259 -0.0247719 0)
(0.775215 -0.216284 -1.24609e-24)
(0.843755 -0.240251 5.76808e-22)
(0.874999 -0.254144 -5.43571e-22)
(0.86718 -0.256783 -5.20079e-22)
(0.821435 -0.247878 0)
(0.741713 -0.22805 -9.95723e-25)
(0.634173 -0.19867 0)
(0.506347 -0.161637 0)
(0.365955 -0.11907 -3.18047e-24)
(0.219751 -0.0728979 0)
(0.0728044 -0.0246176 0)
(0.665674 -0.181582 -6.45976e-22)
(0.767535 -0.213865 0)
(0.836847 -0.23811 0)
(0.868944 -0.252285 3.65683e-24)
(0.861837 -0.255137 -5.78299e-24)
(0.816675 -0.246401 4.85887e-22)
(0.737495 -0.226732 -4.8228e-22)
(0.630551 -0.197526 0)
(0.503408 -0.160695 0)
(0.363759 -0.118354 3.07689e-24)
(0.218422 -0.0724561 0)
(0.0723511 -0.0244624 0)
(0.529422 -0.141034 7.3602e-22)
(0.657235 -0.178961 -2.52081e-24)
(0.759752 -0.211502 -4.48913e-24)
(0.830075 -0.236081 5.34248e-22)
(0.863005 -0.25048 -4.00065e-24)
(0.85653 -0.253499 -4.66453e-22)
(0.811904 -0.244919 4.52824e-22)
(0.733249 -0.225404 0)
(0.626903 -0.196373 9.32247e-22)
(0.500447 -0.159746 0)
(0.361596 -0.11765 -1.02324e-21)
(0.217102 -0.0720133 -1.11448e-21)
(0.0719073 -0.0243162 0)
(0.375586 -0.09754 4.09042e-22)
(0.520183 -0.138271 5.52686e-24)
(0.648444 -0.176354 4.85129e-24)
(0.752253 -0.209337 4.49595e-24)
(0.823563 -0.234142 5.19069e-22)
(0.857183 -0.248704 3.64521e-24)
(0.851246 -0.251871 0)
(0.807113 -0.243432 1.67534e-24)
(0.728999 -0.224076 -8.50404e-22)
(0.623262 -0.195223 0)
(0.497507 -0.158802 8.6925e-22)
(0.359451 -0.116944 9.07905e-22)
(0.215791 -0.0715757 0)
(0.0714567 -0.0241675 9.29095e-22)
(0.253837 -0.0648654 -3.48845e-22)
(0.365383 -0.0947715 1.74181e-22)
(0.250607 -0.0639669 -3.30545e-22)
(0.509936 -0.135339 0)
(0.640207 -0.174088 6.12806e-22)
(0.745305 -0.207327 -5.48863e-22)
(0.81734 -0.232273 3.74804e-24)
(0.851468 -0.24696 -3.64961e-24)
(0.845986 -0.250252 -3.30314e-24)
(0.802328 -0.241948 -3.27468e-24)
(0.724734 -0.222741 2.44224e-24)
(0.619613 -0.194064 0)
(0.494571 -0.157853 0)
(0.357305 -0.116238 -9.25534e-22)
(0.214493 -0.0711423 0)
(0.0710151 -0.0240188 0)
(0.256186 -0.0653313 3.58855e-22)
(0.169578 -0.0427011 7.59018e-23)
(0.245649 -0.0628499 0)
(0.351799 -0.0911711 -1.8513e-22)
(0.238285 -0.0606892 -2.88538e-22)
(0.167344 -0.0422079 -7.59677e-24)
(0.500923 -0.132935 -7.10101e-22)
(0.633055 -0.172083 5.81839e-22)
(0.738884 -0.205432 -5.16729e-22)
(0.811342 -0.230468 -7.32739e-24)
(0.845843 -0.245247 -4.30365e-22)
(0.840757 -0.248644 3.30435e-24)
(0.79754 -0.240463 2.36384e-24)
(0.72048 -0.221405 -7.89072e-25)
(0.615981 -0.192909 -8.08949e-22)
(0.491675 -0.156917 7.87553e-22)
(0.355197 -0.115544 8.81094e-22)
(0.213195 -0.0707087 9.55636e-22)
(0.0705832 -0.023874 0)
(0.170992 -0.0430267 0)
(0.105528 -0.0263308 -8.10033e-25)
(0.105131 -0.0262198 -1.02068e-22)
(0.163603 -0.0413137 -6.25412e-23)
(0.22828 -0.0578957 -2.68939e-22)
(0.341758 -0.088406 1.91893e-22)
(0.220063 -0.0562174 6.23486e-22)
(0.155633 -0.0392355 0)
(0.103748 -0.0259488 9.89723e-23)
(0.104566 -0.0261337 -2.00889e-22)
(0.493996 -0.130996 -6.92397e-24)
(0.62683 -0.170277 5.77092e-22)
(0.73289 -0.203661 -4.82957e-22)
(0.805547 -0.228732 4.51639e-22)
(0.840308 -0.243566 4.09211e-22)
(0.83556 -0.247049 0)
(0.792773 -0.238984 -7.63614e-25)
(0.716238 -0.220074 7.37356e-22)
(0.612373 -0.19176 -7.73402e-22)
(0.488786 -0.155981 -7.49768e-22)
(0.353117 -0.114859 -7.77155e-22)
(0.211939 -0.0702867 9.08978e-22)
(0.0701592 -0.0237316 1.62566e-21)
(0.105895 -0.0264048 8.10227e-25)
(0.106188 -0.0264861 1.05993e-22)
(0.0617579 -0.0152932 -9.22449e-23)
(0.0615332 -0.0152426 0)
(0.102559 -0.0257637 -3.04065e-24)
(0.100563 -0.025239 3.22343e-24)
(0.14142 -0.035283 2.33281e-22)
(0.214922 -0.0546725 -3.19579e-22)
(0.335952 -0.0866073 -7.65919e-22)
(0.212116 -0.0537793 -4.74904e-24)
(0.131293 -0.0331535 -3.0296e-22)
(0.0911497 -0.0225097 -7.93826e-24)
(0.0971426 -0.0245398 5.62869e-24)
(0.0608081 -0.0151018 -1.40583e-24)
(0.0612667 -0.0151871 9.30805e-23)
(0.488502 -0.129422 6.08735e-22)
(0.621231 -0.168656 5.35993e-22)
(0.727219 -0.201996 0)
(0.79992 -0.22705 -8.54024e-22)
(0.834859 -0.241914 1.58694e-24)
(0.830404 -0.245466 0)
(0.788032 -0.237512 -6.9603e-25)
(0.712027 -0.218748 7.03697e-22)
(0.608817 -0.190622 0)
(0.485966 -0.155062 -7.59025e-22)
(0.351051 -0.114171 -7.40621e-22)
(0.210705 -0.069871 7.73061e-23)
(0.0697387 -0.0235909 -7.52148e-22)
(0.0619457 -0.0153434 9.33201e-23)
(0.0621102 -0.015378 -9.70354e-23)
(0.0199031 -0.00488971 4.19751e-25)
(0.0198544 -0.0048823 7.0999e-23)
(0.0601123 -0.0149763 0)
(0.0588562 -0.0147334 8.81999e-23)
(0.0800809 -0.0188567 4.079e-23)
(0.0703727 -0.0179605 -2.47833e-24)
(0.127314 -0.0319043 7.14626e-23)
(0.210127 -0.053149 4.75527e-24)
(0.332059 -0.0855305 -7.19004e-22)
(0.208848 -0.0527789 4.50223e-24)
(0.125655 -0.0313594 -4.29367e-24)
(0.0623079 -0.0157197 -9.18274e-23)
(0.0649491 -0.0164305 9.71364e-23)
(0.0518183 -0.0121446 -8.95234e-24)
(0.0564093 -0.0141161 0)
(0.0196426 -0.00483256 5.40174e-25)
(0.0197621 -0.00485616 -5.40449e-25)
(0.483819 -0.128112 5.85434e-22)
(0.616088 -0.167184 -4.99679e-22)
(0.721815 -0.200416 4.52298e-22)
(0.79445 -0.225419 3.25747e-24)
(0.829484 -0.240286 3.76518e-22)
(0.825291 -0.243897 3.60135e-22)
(0.783323 -0.236047 6.96068e-25)
(0.70786 -0.217433 0)
(0.6053 -0.189491 6.68826e-22)
(0.483172 -0.154145 0)
(0.349047 -0.113504 -7.037e-22)
(0.209492 -0.0694613 0)
(0.0693284 -0.0234532 0)
(0.0199525 -0.00490538 -1.78246e-25)
(0.0199989 -0.00491355 -7.43301e-23)
(0.019454 -0.00479872 6.63845e-23)
(0.0190783 -0.00474075 7.02103e-23)
(0.0347772 -0.00600169 7.5702e-24)
(0.0238726 -0.00629146 -2.20867e-23)
(0.0611945 -0.0152297 -9.50409e-23)
(0.060624 -0.0150425 9.2406e-23)
(0.124626 -0.0310808 -6.24025e-23)
(0.207671 -0.0525259 -2.88064e-22)
(0.328917 -0.0847519 -8.27533e-22)
(0.206835 -0.0523244 4.37296e-24)
(0.123953 -0.0308957 -6.56667e-23)
(0.0601558 -0.0148832 8.81652e-23)
(0.0603501 -0.0149502 -1.41212e-24)
(0.0201658 -0.00508656 7.38207e-23)
(0.0215722 -0.005637 -5.83194e-23)
(0.0169588 -0.00434991 5.63574e-23)
(0.0181695 -0.00465065 6.30549e-23)
(0.479648 -0.126968 5.73561e-22)
(0.611277 -0.165816 3.88143e-24)
(0.716616 -0.198898 -4.20551e-22)
(0.789086 -0.223822 -5.85806e-24)
(0.824176 -0.23868 -3.60652e-22)
(0.820226 -0.242342 0)
(0.778667 -0.234595 0)
(0.703753 -0.216129 0)
(0.601837 -0.188373 -6.69145e-22)
(0.480442 -0.153248 -6.90253e-22)
(0.347086 -0.112847 0)
(0.208307 -0.069059 0)
(0.0689242 -0.0233181 -6.81193e-22)
(0.00964945 -0.00153758 7.82379e-24)
(0.0196666 -0.00486883 0)
(0.0194596 -0.00479328 -1.28972e-22)
(0.0599675 -0.014838 -8.63476e-23)
(0.0598511 -0.0148108 8.69285e-23)
(0.123383 -0.0307794 2.59353e-22)
(0.20587 -0.0521283 4.40719e-24)
(0.326159 -0.0840691 -1.62573e-22)
(0.205143 -0.051942 2.58547e-22)
(0.122902 -0.030666 0)
(0.0596737 -0.0147524 -8.39947e-23)
(0.059741 -0.0147845 8.5497e-23)
(0.019315 -0.00474707 -1.25331e-22)
(0.0193745 -0.00476927 6.31539e-23)
(0.475817 -0.125923 -5.24358e-22)
(0.606697 -0.164518 9.14784e-22)
(0.711571 -0.197432 -4.10764e-22)
(0.783826 -0.222261 0)
(0.818934 -0.237095 -3.42573e-22)
(0.815214 -0.240801 0)
(0.774066 -0.233156 -3.1887e-22)
(0.6997 -0.214839 2.93376e-22)
(0.598449 -0.187272 6.0806e-22)
(0.477776 -0.152365 0)
(0.345164 -0.112202 0)
(0.207142 -0.0686659 0)
(0.0685323 -0.0231884 0)
(0.0192686 -0.00473359 2.37195e-25)
(0.0192189 -0.00472554 -6.10696e-23)
(0.0595421 -0.0147332 -8.2323e-23)
(0.0594577 -0.0147142 -8.15592e-23)
(0.122432 -0.0305704 2.46049e-22)
(0.204252 -0.051748 2.4794e-22)
(0.323614 -0.0834222 7.62535e-22)
(0.203584 -0.0515636 2.53887e-22)
(0.12198 -0.0304614 -2.98772e-22)
(0.0592877 -0.014666 0)
(0.0593542 -0.014698 8.04678e-23)
(0.019181 -0.0047105 -1.10357e-25)
(0.0191963 -0.0047219 6.05549e-23)
(0.472187 -0.124939 -5.22739e-22)
(0.602296 -0.16328 4.33113e-22)
(0.706641 -0.196002 3.82024e-22)
(0.778646 -0.220724 6.09757e-24)
(0.813755 -0.235529 0)
(0.810259 -0.239274 -2.43335e-24)
(0.769527 -0.23173 2.97133e-22)
(0.695728 -0.213564 0)
(0.595137 -0.186188 0)
(0.475186 -0.151503 5.84011e-25)
(0.343303 -0.111574 0)
(0.20602 -0.0682847 -6.52942e-25)
(0.0681441 -0.0230624 -6.21828e-22)
(0.0191483 -0.00470308 5.94647e-23)
(0.0191059 -0.00469682 2.53846e-25)
(0.0591498 -0.0146457 -6.71413e-25)
(0.059064 -0.0146247 9.7873e-25)
(0.121517 -0.0303561 -2.889e-22)
(0.202744 -0.0513753 -2.36817e-22)
(0.321195 -0.082802 -2.38964e-24)
(0.202098 -0.0511939 -6.70091e-24)
(0.12108 -0.0302435 -5.5592e-23)
(0.0588841 -0.0145738 7.585e-23)
(0.0589555 -0.0146073 7.58926e-23)
(0.0190674 -0.00468312 -5.66126e-23)
(0.0190863 -0.00469517 -1.69312e-25)
(0.46871 -0.123997 -4.95453e-22)
(0.598017 -0.162074 -4.23323e-22)
(0.701808 -0.194601 3.72499e-22)
(0.773536 -0.219209 0)
(0.80863 -0.233976 3.13151e-22)
(0.805362 -0.237759 0)
(0.765062 -0.230317 0)
(0.691843 -0.212307 0)
(0.59192 -0.185124 0)
(0.472645 -0.150649 -6.02263e-22)
(0.341468 -0.110951 6.35974e-22)
(0.204904 -0.0679061 6.52781e-25)
(0.0677473 -0.0229277 5.95427e-25)
(0.0190318 -0.00467553 -1.11561e-22)
(0.0189875 -0.00466839 2.51202e-25)
(0.0587401 -0.0145489 0)
(0.0586502 -0.0145259 9.90088e-25)
(0.120641 -0.030141 1.66236e-22)
(0.201274 -0.0510058 -2.22824e-22)
(0.318862 -0.0821942 -1.32659e-22)
(0.200651 -0.0508291 2.17187e-22)
(0.120207 -0.0300297 -2.14568e-22)
(0.05847 -0.0144723 0)
(0.0585411 -0.014505 1.43608e-22)
(0.0189398 -0.00465285 -4.13955e-25)
(0.0189632 -0.00466554 -5.46219e-23)
(0.465343 -0.12308 -8.78158e-25)
(0.59383 -0.160895 3.87585e-22)
(0.697058 -0.193226 -3.4501e-22)
(0.768474 -0.217705 0)
(0.803548 -0.232432 -5.95512e-25)
(0.80053 -0.236254 2.81732e-22)
(0.760683 -0.228918 -5.21195e-25)
(0.688045 -0.211065 -2.73498e-22)
(0.588771 -0.184075 2.51736e-22)
(0.470181 -0.149817 -5.39656e-22)
(0.33969 -0.110347 0)
(0.203791 -0.0675265 0)
(0.0673621 -0.0227974 5.74694e-22)
(0.0189006 -0.00464426 -5.21342e-23)
(0.0188558 -0.00463699 1.0418e-22)
(0.0583285 -0.0144478 6.90503e-23)
(0.0582402 -0.0144254 6.91998e-23)
(0.119778 -0.0299269 3.08682e-22)
(0.199851 -0.0506425 2.15053e-22)
(0.316592 -0.0815999 1.21193e-22)
(0.199237 -0.0504653 2.05006e-22)
(0.119352 -0.0298187 -1.53057e-22)
(0.058055 -0.0143716 0)
(0.0581305 -0.0144043 6.73102e-23)
(0.0188058 -0.00461962 -5.04511e-23)
(0.0188317 -0.00463227 -2.32752e-25)
(0.462068 -0.122189 -1.95015e-23)
(0.589716 -0.159735 3.83142e-22)
(0.692344 -0.191862 0)
(0.763456 -0.216216 -2.99718e-22)
(0.798518 -0.230897 -2.81406e-22)
(0.795762 -0.234757 0)
(0.756392 -0.227534 -3.187e-24)
(0.684346 -0.209845 2.53081e-22)
(0.585703 -0.183047 0)
(0.467758 -0.148997 0)
(0.337909 -0.109742 0)
(0.202697 -0.0671535 6.38334e-22)
(0.0670017 -0.0226719 -5.56496e-22)
(0.0187673 -0.00461162 -9.95057e-23)
(0.0187225 -0.00460443 0)
(0.0579158 -0.0143461 -1.27026e-24)
(0.0578268 -0.0143239 -1.28942e-22)
(0.118934 -0.029715 4.7908e-23)
(0.198464 -0.0502864 0)
(0.314378 -0.0810164 -3.76641e-22)
(0.197856 -0.0501133 -1.99698e-22)
(0.118519 -0.0296073 -1.44728e-22)
(0.0576519 -0.0142718 0)
(0.057721 -0.0143046 -6.41286e-23)
(0.0186715 -0.00458703 -4.76084e-23)
(0.0186984 -0.00459957 -2.37274e-25)
(0.458836 -0.121305 -4.04281e-22)
(0.585652 -0.158592 0)
(0.687662 -0.190504 3.21247e-22)
(0.758443 -0.214719 -5.46036e-25)
(0.793516 -0.229358 -1.07221e-24)
(0.791064 -0.233265 2.53279e-22)
(0.752188 -0.226163 0)
(0.680729 -0.208641 0)
(0.582702 -0.182035 -2.55837e-22)
(0.465381 -0.148189 0)
(0.336153 -0.10914 -5.18007e-22)
(0.201607 -0.0667718 -5.61446e-25)
(0.0666072 -0.022537 1.10842e-21)
(0.0186334 -0.00457883 -9.39676e-23)
(0.0185871 -0.00457189 9.2856e-23)
(0.0575132 -0.0142464 -6.20253e-23)
(0.0574267 -0.0142234 -6.04578e-23)
(0.11811 -0.029508 8.92431e-23)
(0.197106 -0.0499371 0)
(0.312211 -0.0804443 4.65646e-22)
(0.196513 -0.0497668 -6.4211e-24)
(0.1177 -0.0294023 4.46915e-23)
(0.0572502 -0.0141718 0)
(0.0573202 -0.0142033 -6.61486e-25)
(0.0185435 -0.00455533 0)
(0.0185674 -0.00456848 0)
(0.45566 -0.120438 3.81921e-22)
(0.581593 -0.157446 0)
(0.682967 -0.189141 0)
(0.753435 -0.213218 5.45837e-25)
(0.788547 -0.227812 0)
(0.786431 -0.231774 4.59064e-25)
(0.748071 -0.224804 0)
(0.677196 -0.207457 2.32762e-22)
(0.579765 -0.18104 0)
(0.463004 -0.147377 0)
(0.33441 -0.108536 0)
(0.200501 -0.0663868 -5.31258e-22)
(0.0661931 -0.0224009 5.58633e-22)
(0.0185044 -0.00454747 0)
(0.018461 -0.00454 2.44373e-25)
(0.0571124 -0.0141471 -7.38746e-25)
(0.0570427 -0.0141286 -9.48809e-25)
(0.117303 -0.0293037 4.2206e-23)
(0.195779 -0.049595 6.89782e-25)
(0.310061 -0.0798743 -5.43446e-22)
(0.19519 -0.0494276 -1.72069e-22)
(0.116903 -0.0292007 -1.28961e-22)
(0.0568546 -0.0140755 0)
(0.0569266 -0.0141038 -5.68296e-23)
(0.0184121 -0.00452314 0)
(0.0184373 -0.00453572 -2.26423e-25)
(0.452482 -0.119568 2.16015e-24)
(0.577511 -0.156298 0)
(0.678227 -0.187763 0)
(0.74839 -0.21169 2.50942e-22)
(0.783592 -0.226249 -9.02303e-25)
(0.781862 -0.230284 2.25529e-22)
(0.744031 -0.223459 0)
(0.673722 -0.206286 -4.37577e-25)
(0.576842 -0.180047 2.36142e-22)
(0.460652 -0.146569 0)
(0.332625 -0.107919 -5.29878e-22)
(0.199374 -0.0659991 -5.17917e-22)
(0.065778 -0.0222594 -1.99962e-24)
(0.0183732 -0.00451583 -2.68797e-25)
(0.0183333 -0.00450873 -4.15508e-23)
(0.0567241 -0.0140499 0)
(0.0566583 -0.0140322 -9.43368e-25)
(0.116516 -0.0291042 7.98351e-23)
(0.194472 -0.0492588 1.66087e-22)
(0.307946 -0.0793133 9.89294e-23)
(0.193889 -0.049093 5.55486e-24)
(0.116119 -0.0290039 1.60532e-22)
(0.0564747 -0.0139809 0)
(0.0565442 -0.0140082 -5.34988e-23)
(0.0182817 -0.00449259 0)
(0.0183202 -0.00450594 4.06858e-23)
(0.44928 -0.118694 -1.41362e-24)
(0.573367 -0.15513 0)
(0.673384 -0.186342 -2.71246e-22)
(0.743286 -0.210121 0)
(0.77864 -0.22466 -2.26209e-22)
(0.777345 -0.228795 -2.1474e-22)
(0.740056 -0.22213 0)
(0.670291 -0.205129 5.21625e-24)
(0.573925 -0.179051 8.92856e-25)
(0.458278 -0.14575 4.48947e-22)
(0.33084 -0.107297 0)
(0.198205 -0.0655885 0)
(0.0653572 -0.0221174 5.37009e-22)
(0.0182496 -0.00448508 -3.9336e-23)
(0.0182109 -0.00447807 -7.84255e-23)
(0.0563448 -0.0139547 -7.69722e-25)
(0.0562781 -0.0139374 -9.24665e-25)
(0.115739 -0.0289084 -7.99225e-23)
(0.19318 -0.0489234 -1.59696e-22)
(0.305823 -0.0787477 0)
(0.192602 -0.0487572 1.503e-22)
(0.115348 -0.0288116 1.87162e-22)
(0.0560978 -0.0138878 0)
(0.056167 -0.0139143 0)
(0.0181613 -0.00446306 -3.77434e-23)
(0.0181983 -0.00447592 3.02123e-25)
(0.446005 -0.117797 0)
(0.569062 -0.153914 0)
(0.668381 -0.184858 2.42525e-22)
(0.738081 -0.20849 -2.16606e-22)
(0.773675 -0.223045 2.15802e-22)
(0.772872 -0.227316 2.05788e-22)
(0.736125 -0.220817 -2.08582e-22)
(0.666863 -0.203969 2.13682e-22)
(0.570999 -0.178049 2.19812e-22)
(0.455879 -0.144914 0)
(0.329006 -0.106651 5.01617e-22)
(0.197029 -0.0651743 -4.96509e-22)
(0.0649326 -0.0219709 0)
(0.0181276 -0.00445479 -7.4364e-23)
(0.0180871 -0.00444768 -3.6947e-23)
(0.0559738 -0.0138627 -4.86504e-23)
(0.0559079 -0.013845 -4.82663e-23)
(0.114981 -0.0287171 7.05734e-23)
(0.191922 -0.0485953 -5.72796e-25)
(0.303649 -0.0781683 0)
(0.191339 -0.0484252 1.41671e-22)
(0.114598 -0.02862 -1.07307e-22)
(0.0557331 -0.0137987 0)
(0.0557978 -0.0138236 -4.72744e-23)
(0.0180386 -0.00443309 -3.55198e-23)
(0.018076 -0.00444576 0)
(0.442583 -0.116868 3.00703e-22)
(0.564505 -0.152622 -2.67711e-22)
(0.663133 -0.183265 2.32606e-22)
(0.73273 -0.20678 0)
(0.768707 -0.221423 -9.692e-24)
(0.768439 -0.225854 -7.71783e-25)
(0.732214 -0.219512 2.7477e-24)
(0.663437 -0.202806 -1.99053e-22)
(0.568048 -0.177027 2.13866e-22)
(0.453434 -0.144055 -4.24908e-22)
(0.327136 -0.105987 4.91516e-22)
(0.195825 -0.0647447 -5.47503e-22)
(0.0644752 -0.0218174 -5.25988e-22)
(0.0180089 -0.00442584 -3.48965e-23)
(0.0179683 -0.00441808 -3.47632e-23)
(0.0556072 -0.0137729 -4.60024e-23)
(0.0555438 -0.013757 -4.40592e-25)
(0.11423 -0.0285244 6.61912e-23)
(0.190662 -0.0482659 0)
(0.301401 -0.0775715 -2.64852e-22)
(0.190061 -0.0480922 -1.31569e-22)
(0.113859 -0.0284311 -6.86482e-23)
(0.0553713 -0.0137069 0)
(0.0554396 -0.0137309 -4.42435e-23)
(0.0179237 -0.00440493 -3.3666e-23)
(0.0179568 -0.00441703 2.67807e-25)
(0.438857 -0.115859 0)
(0.559511 -0.151177 2.31834e-22)
(0.657517 -0.181518 0)
(0.727258 -0.20502 -3.94254e-22)
(0.763751 -0.219817 3.88817e-25)
(0.764046 -0.224417 -3.8473e-22)
(0.728314 -0.218208 -1.54032e-24)
(0.659982 -0.201624 -3.91868e-22)
(0.565057 -0.175983 0)
(0.450934 -0.14317 -4.15476e-22)
(0.32522 -0.105303 4.42873e-22)
(0.194578 -0.0643015 -5.65931e-23)
(0.0639917 -0.0216547 -2.97665e-23)
(0.0178865 -0.00439745 2.5839e-25)
(0.0178571 -0.00439398 -1.7601e-25)
(0.0552503 -0.0136822 -7.96304e-25)
(0.0551902 -0.0136673 -7.99274e-25)
(0.113496 -0.0283364 -3.07617e-23)
(0.189377 -0.047928 -2.60858e-22)
(0.298932 -0.0769205 -3.2267e-24)
(0.188774 -0.0477516 0)
(0.113129 -0.0282451 1.23806e-22)
(0.0550188 -0.0136203 -4.09315e-23)
(0.0550893 -0.0136435 -4.13533e-23)
(0.0178041 -0.00437378 -3.13115e-23)
(0.0178404 -0.00438544 0)
(0.434571 -0.114698 -2.68555e-22)
(0.553886 -0.149502 2.03436e-22)
(0.651548 -0.179626 2.03836e-22)
(0.72173 -0.203267 -1.84889e-22)
(0.758858 -0.218259 3.75436e-22)
(0.759698 -0.222994 1.41079e-24)
(0.724409 -0.216893 1.83339e-22)
(0.656497 -0.20042 0)
(0.562003 -0.174908 0)
(0.448391 -0.142262 -8.34012e-25)
(0.323265 -0.1046 -3.53166e-23)
(0.193278 -0.0638372 4.87841e-22)
(0.0634985 -0.0214869 5.02671e-22)
(0.0177694 -0.0043682 -6.16552e-23)
(0.0177419 -0.00436525 -1.77714e-25)
(0.0549051 -0.0135968 0)
(0.0548472 -0.01358 3.95986e-23)
(0.112772 -0.0281503 9.11382e-23)
(0.188063 -0.0475835 1.23549e-22)
(0.295971 -0.0761701 7.54942e-23)
(0.187347 -0.0473798 -1.18379e-22)
(0.112388 -0.0280544 2.74199e-23)
(0.0546837 -0.0135352 -3.8061e-23)
(0.0547483 -0.0135587 3.85579e-23)
(0.0176891 -0.00434643 2.2674e-25)
(0.0177267 -0.00435743 0)
(0.429338 -0.113242 -2.37751e-22)
(0.547401 -0.147486 1.57123e-24)
(0.645348 -0.177704 2.00011e-22)
(0.716306 -0.201603 -8.53886e-24)
(0.754083 -0.216744 1.4431e-24)
(0.755393 -0.221574 -1.73731e-22)
(0.720495 -0.21556 2.76527e-24)
(0.652965 -0.199189 -1.40494e-24)
(0.558905 -0.173806 0)
(0.445799 -0.141327 -1.8949e-23)
(0.321271 -0.103875 -9.00037e-25)
(0.191928 -0.0633489 -1.01007e-24)
(0.0629925 -0.0213172 -2.9047e-23)
(0.01766 -0.0043421 2.85326e-23)
(0.0176327 -0.00433758 2.8508e-23)
(0.0545691 -0.0135117 3.71595e-23)
(0.0545139 -0.0134965 0)
(0.112036 -0.0279575 -3.64376e-25)
(0.186522 -0.0471999 1.09593e-22)
(0.291971 -0.0751401 -8.60551e-24)
(0.185538 -0.0469423 -1.07652e-22)
(0.111606 -0.0278538 -2.52163e-23)
(0.0543491 -0.013451 -9.0012e-25)
(0.0544183 -0.0134753 0)
(0.0175857 -0.00431998 0)
(0.0176175 -0.00433109 -2.78206e-23)
(0.422402 -0.111193 1.78156e-22)
(0.540293 -0.145313 -1.70227e-22)
(0.639319 -0.175943 -1.11314e-23)
(0.711137 -0.200024 0)
(0.749443 -0.215253 1.71764e-22)
(0.751125 -0.22015 0)
(0.716561 -0.21421 -1.35191e-24)
(0.649398 -0.197932 1.40477e-24)
(0.555767 -0.172676 3.7246e-22)
(0.443178 -0.140366 -8.10665e-25)
(0.319198 -0.103114 0)
(0.190567 -0.0628606 5.01539e-22)
(0.0624718 -0.0211399 -2.78515e-23)
(0.017552 -0.00431489 0)
(0.0175267 -0.00431184 0)
(0.0542397 -0.0134275 3.43561e-23)
(0.0541858 -0.0134113 -3.39244e-23)
(0.111208 -0.0277468 -1.04037e-22)
(0.184277 -0.046698 0)
(0.28498 -0.0732989 -2.50203e-22)
(0.182439 -0.0462177 0)
(0.11066 -0.0276264 -2.33687e-23)
(0.0540193 -0.0133696 0)
(0.0540894 -0.0133934 3.28514e-23)
(0.0174777 -0.00429371 -2.52962e-23)
(0.0175134 -0.00430537 0)
(0.413791 -0.108633 4.64935e-23)
(0.533497 -0.143451 -2.11015e-22)
(0.633816 -0.17434 -2.73832e-24)
(0.706259 -0.198504 1.60548e-22)
(0.744924 -0.213782 1.28091e-24)
(0.746888 -0.218724 0)
(0.712617 -0.212839 0)
(0.645792 -0.196645 1.68254e-22)
(0.552579 -0.171512 3.69338e-22)
(0.440482 -0.139372 -8.04915e-25)
(0.317104 -0.102341 0)
(0.189177 -0.0623502 5.15199e-22)
(0.0619338 -0.020957 -5.82677e-22)
(0.0174478 -0.00428854 -2.49203e-23)
(0.0174222 -0.00428492 0)
(0.0539019 -0.0133411 0)
(0.0538525 -0.0133246 3.01623e-23)
(0.110016 -0.0274742 -2.23542e-23)
(0.179611 -0.0456787 -2.48704e-24)
(0.272836 -0.0699842 1.49206e-22)
(0.174735 -0.0441623 7.16099e-23)
(0.10897 -0.0272681 0)
(0.0536627 -0.0132815 2.82309e-23)
(0.0537497 -0.0133088 2.99195e-23)
(0.0173776 -0.00426927 -2.31343e-23)
(0.0174104 -0.00428017 -2.38021e-23)
(0.405893 -0.106585 3.45878e-24)
(0.527789 -0.141868 0)
(0.628885 -0.172848 -1.70308e-22)
(0.701651 -0.197044 2.28587e-24)
(0.740516 -0.212332 0)
(0.742684 -0.217291 0)
(0.708662 -0.211449 -1.58245e-22)
(0.642166 -0.195334 -3.36064e-22)
(0.549351 -0.170323 -7.15449e-25)
(0.437762 -0.138351 8.04748e-25)
(0.314943 -0.101532 4.82911e-22)
(0.187759 -0.0618292 5.36817e-22)
(0.0613788 -0.0207634 -6.09869e-22)
(0.0173471 -0.0042631 0)
(0.017321 -0.00425928 -2.25016e-23)
(0.053529 -0.0132535 8.12235e-25)
(0.0534269 -0.0132213 -2.67809e-23)
(0.107334 -0.0269429 2.022e-23)
(0.165748 -0.0414946 5.64741e-23)
(0.262997 -0.0674615 4.94845e-23)
(0.156315 -0.0397762 -3.40943e-23)
(0.103832 -0.0260508 0)
(0.0530692 -0.0131535 0)
(0.0532881 -0.0132018 -2.6281e-23)
(0.0172698 -0.00424318 -4.19291e-23)
(0.0173101 -0.00425459 0)
(0.400214 -0.105006 2.0279e-22)
(0.523066 -0.140464 1.65836e-22)
(0.624388 -0.171457 0)
(0.697251 -0.195634 -2.28926e-24)
(0.736206 -0.210897 0)
(0.738517 -0.215853 1.06211e-24)
(0.704709 -0.210039 5.70019e-25)
(0.638512 -0.193994 0)
(0.546094 -0.1691 7.15168e-25)
(0.434981 -0.137297 -8.24583e-22)
(0.312788 -0.100714 -4.84603e-25)
(0.186286 -0.0612741 5.59816e-22)
(0.0607815 -0.0205671 0)
(0.0172455 -0.00423951 2.07611e-23)
(0.0172007 -0.00422725 1.50912e-25)
(0.0527914 -0.0131155 0)
(0.0522854 -0.0130213 -2.57884e-23)
(0.0923504 -0.022665 -3.97464e-24)
(0.150533 -0.0380994 5.40149e-24)
(0.258161 -0.0658671 -1.87442e-22)
(0.148008 -0.0372624 -1.8155e-22)
(0.0780429 -0.02019 3.215e-23)
(0.0493852 -0.012049 -2.85549e-23)
(0.0513999 -0.0129204 0)
(0.0171107 -0.0042035 0)
(0.0171837 -0.00422048 4.13576e-25)
(0.396151 -0.103794 -1.85513e-22)
(0.519009 -0.139233 -2.99225e-25)
(0.620241 -0.170166 2.00145e-24)
(0.693034 -0.19427 1.19872e-22)
(0.731995 -0.209478 -9.48674e-25)
(0.734389 -0.214406 -2.06134e-24)
(0.700763 -0.208607 1.35021e-22)
(0.634838 -0.192622 0)
(0.542811 -0.167848 3.65456e-22)
(0.432173 -0.136212 0)
(0.310544 -0.0998527 5.0939e-22)
(0.184742 -0.0607038 0)
(0.0601584 -0.0203581 1.34934e-21)
(0.0170318 -0.00418929 1.81488e-23)
(0.0168644 -0.00416264 1.69968e-23)
(0.045013 -0.0102823 -6.49144e-24)
(0.0303281 -0.00509101 0)
(0.0730669 -0.0183758 2.57812e-24)
(0.14655 -0.0366962 7.55609e-23)
(0.255481 -0.0650721 7.14544e-25)
(0.145721 -0.0364426 -8.43935e-23)
(0.0719357 -0.0178202 9.48912e-23)
(0.0184953 -0.00497061 1.57189e-23)
(0.0206986 -0.00511507 -1.48772e-23)
(0.0158461 -0.00403806 4.23019e-23)
(0.016564 -0.00414166 8.66737e-25)
(0.392873 -0.102835 -3.5725e-25)
(0.515369 -0.138138 -2.23086e-24)
(0.616358 -0.16895 -1.84365e-23)
(0.688978 -0.192939 0)
(0.727866 -0.208064 9.49199e-25)
(0.730301 -0.212949 -2.44902e-22)
(0.696825 -0.207152 -1.28922e-22)
(0.631159 -0.191224 0)
(0.5395 -0.166561 0)
(0.429325 -0.135099 -1.59389e-26)
(0.308261 -0.0989687 -5.29896e-22)
(0.183158 -0.0601115 -1.29728e-21)
(0.059533 -0.0201424 -2.14052e-23)
(0.0147563 -0.0037166 -2.61106e-24)
(0.00835084 -0.001292 5.01415e-23)
(0.0173567 -0.00438337 -2.1731e-23)
(0.0169335 -0.00423166 -1.86923e-23)
(0.0713703 -0.0176374 -7.11173e-23)
(0.145057 -0.0363144 -7.19245e-23)
(0.253512 -0.0646021 1.17692e-24)
(0.144621 -0.0362238 7.08213e-23)
(0.0710241 -0.0175385 0)
(0.0168012 -0.00413009 1.71353e-23)
(0.0168717 -0.00416673 -1.77515e-23)
(0.390083 -0.102041 -1.29532e-24)
(0.512079 -0.137145 -1.84264e-23)
(0.612684 -0.167783 0)
(0.685059 -0.191633 9.36963e-23)
(0.723821 -0.206653 2.10743e-22)
(0.726254 -0.211477 1.24878e-22)
(0.692895 -0.205671 -5.10579e-25)
(0.627469 -0.189791 0)
(0.536158 -0.165238 -3.78243e-22)
(0.426411 -0.133941 4.48133e-22)
(0.305913 -0.0980489 5.40523e-22)
(0.181524 -0.0594907 6.74992e-22)
(0.0588526 -0.0199148 1.56634e-21)
(0.0167795 -0.00412591 0)
(0.0167667 -0.00412028 1.64266e-23)
(0.0707965 -0.0175062 -1.53652e-23)
(0.144124 -0.0361453 0)
(0.251831 -0.0642016 -3.42045e-23)
(0.143772 -0.0360615 0)
(0.0706174 -0.0174671 0)
(0.0167381 -0.00410884 -1.57908e-23)
(0.0167451 -0.00411277 -1.60822e-23)
(0.387602 -0.101333 -1.28222e-22)
(0.509024 -0.136214 1.57094e-24)
(0.609189 -0.166657 -1.84047e-22)
(0.681256 -0.190344 -1.94808e-23)
(0.719852 -0.20524 8.57393e-23)
(0.72225 -0.209988 9.71562e-23)
(0.688984 -0.204161 1.16954e-22)
(0.623779 -0.188324 0)
(0.532766 -0.163871 3.6234e-22)
(0.423456 -0.132745 0)
(0.303485 -0.0970872 0)
(0.179828 -0.0588489 -7.27553e-22)
(0.058156 -0.0196841 -8.62924e-22)
(0.0167174 -0.00410976 3.094e-23)
(0.0167175 -0.00410703 -1.1858e-25)
(0.0704431 -0.0174419 -1.3319e-23)
(0.143322 -0.0359726 5.31486e-23)
(0.25036 -0.0638278 0)
(0.142995 -0.0358801 0)
(0.0702659 -0.017395 -1.86056e-25)
(0.0166903 -0.00410068 0)
(0.0166912 -0.00410354 -1.4296e-23)
(0.385357 -0.100687 -8.44388e-25)
(0.506142 -0.135324 1.77219e-23)
(0.605829 -0.165555 -1.96032e-23)
(0.677555 -0.18906 -8.93858e-23)
(0.715954 -0.203818 -9.73594e-23)
(0.718288 -0.208477 -2.01811e-22)
(0.685092 -0.202622 1.11349e-22)
(0.620065 -0.186817 -4.72731e-22)
(0.529349 -0.162463 0)
(0.420457 -0.131514 4.79847e-22)
(0.301009 -0.096095 0)
(0.178086 -0.0581856 7.90733e-22)
(0.0574377 -0.0194441 9.22404e-22)
(0.0166602 -0.00409884 2.6745e-23)
(0.0166552 -0.00409291 1.27964e-23)
(0.0700894 -0.017361 1.86016e-25)
(0.142562 -0.0357856 0)
(0.249014 -0.0634721 3.20141e-25)
(0.142259 -0.0356952 0)
(0.0699118 -0.0173116 0)
(0.0166153 -0.0040806 0)
(0.016626 -0.00408762 0)
(0.38324 -0.10007 8.76946e-23)
(0.503399 -0.134464 -7.55401e-23)
(0.602595 -0.164472 0)
(0.673959 -0.187782 5.51659e-25)
(0.712125 -0.202383 8.89739e-23)
(0.714369 -0.206943 -1.08293e-22)
(0.681211 -0.201047 2.41713e-22)
(0.616339 -0.185268 1.43473e-22)
(0.525919 -0.161018 -4.21198e-22)
(0.417395 -0.130233 5.04196e-22)
(0.298504 -0.095069 0)
(0.176254 -0.0574783 0)
(0.0566707 -0.0191997 -1.02854e-21)
(0.0165828 -0.00407859 1.10686e-23)
(0.0165785 -0.00407414 1.05573e-23)
(0.0697399 -0.017274 0)
(0.14185 -0.0356049 1.23856e-25)
(0.24774 -0.0631273 -2.06694e-25)
(0.141564 -0.035515 -1.23813e-25)
(0.0695771 -0.0172302 0)
(0.0165362 -0.00406211 0)
(0.0165473 -0.00406887 -9.89136e-24)
(0.381246 -0.0994813 -5.21837e-25)
(0.500791 -0.133629 0)
(0.599468 -0.163397 3.48707e-23)
(0.670451 -0.186498 3.84465e-23)
(0.708369 -0.200934 -1.56709e-25)
(0.710492 -0.205379 -1.03809e-22)
(0.677346 -0.199435 -1.35132e-22)
(0.61262 -0.183676 0)
(0.522441 -0.159517 -4.42418e-22)
(0.414297 -0.128899 5.34568e-22)
(0.295859 -0.0939772 0)
(0.174337 -0.0567604 9.42458e-22)
(0.0558521 -0.0189049 -1.14497e-24)
(0.0165061 -0.00405916 -8.86795e-24)
(0.016499 -0.00405467 8.35453e-24)
(0.069412 -0.0171926 0)
(0.141177 -0.0354317 -8.6984e-26)
(0.24653 -0.0627923 -4.70542e-26)
(0.14089 -0.0353403 8.69525e-26)
(0.0692436 -0.017148 0)
(0.0164686 -0.00404471 -7.23931e-24)
(0.0164694 -0.00405009 -7.80648e-24)
(0.379349 -0.0989105 -2.6767e-23)
(0.498284 -0.132806 -5.81169e-23)
(0.596451 -0.162325 -4.15191e-23)
(0.667034 -0.185203 0)
(0.704676 -0.199461 -1.18101e-25)
(0.706657 -0.203783 0)
(0.673494 -0.197777 0)
(0.608876 -0.182031 1.47054e-22)
(0.518905 -0.157953 -4.68947e-22)
(0.411091 -0.127507 0)
(0.293129 -0.0928425 0)
(0.17231 -0.0560145 -1.08397e-24)
(0.0551807 -0.0184546 1.239e-21)
(0.0164358 -0.0040415 -6.66769e-24)
(0.01643 -0.00403692 6.20934e-24)
(0.0690826 -0.0171136 0)
(0.140523 -0.0352576 -9.98698e-26)
(0.24538 -0.0624731 2.73017e-23)
(0.140259 -0.0351706 1.31275e-25)
(0.0689207 -0.0170671 0)
(0.0163872 -0.00402668 5.12668e-24)
(0.0164004 -0.00403297 -5.66944e-24)
(0.377554 -0.0983605 2.23096e-23)
(0.49589 -0.131991 -6.83485e-26)
(0.593535 -0.161247 0)
(0.6637 -0.183894 -8.88323e-24)