/*--------------------------------*- C++ -*----------------------------------*\
| =========                 |                                                 |
| \\      /  F ield         | OpenFOAM: The Open Source CFD Toolbox           |
|  \\    /   O peration     | Version:  v1912                                 |
|   \\  /    A nd           | Website:  www.openfoam.com                      |
|    \\/     M anipulation  |                                                 |
\*---------------------------------------------------------------------------*/
FoamFile
{
    version     2.0;
    format      ascii;
    class       volVectorField;
    location    "330";
    object      U;
}
// * * * * * * * * * * * * * * * * * * * * * * * * * * * * * * * * * * * * * //

dimensions      [0 1 -1 0 0 0 0];


internalField   nonuniform List<vector> 
3675
(
(0.999101 0.00117315 1.16866e-25)
(0.99915 0.00346487 0)
(0.990325 0.00377531 3.33409e-23)
(0.999239 0.00552612 -5.8213e-23)
(0.991016 0.0111233 0)
(0.969824 0.00733241 -1.05963e-21)
(0.999356 0.00724164 3.56815e-21)
(0.992279 0.0176721 -3.8551e-21)
(0.972158 0.0214802 1.08867e-21)
(0.932749 0.0130013 -7.42736e-23)
(0.999484 0.00854467 -6.90909e-21)
(0.993913 0.0230321 7.63094e-21)
(0.976399 0.033807 0)
(0.938872 0.0377497 2.33521e-21)
(0.869232 0.023514 -2.10669e-22)
(0.99961 0.00941474 3.34258e-21)
(0.995703 0.0269943 -1.00849e-22)
(0.981825 0.0435159 -1.27423e-22)
(0.949611 0.0585454 -2.28481e-21)
(0.883512 0.067048 0)
(0.754704 0.0450502 2.17383e-22)
(0.999726 0.0098676 0)
(0.997469 0.0295212 3.24544e-21)
(0.98765 0.0502874 0)
(0.962738 0.073834 1.24351e-22)
(0.907442 0.10095 3.25682e-22)
(0.793579 0.123106 -3.2533e-21)
(0.586753 0.0432995 -2.42985e-22)
(0.607411 0.118773 -3.89793e-22)
(0.999828 0.00994258 0)
(0.99909 0.0307009 -6.78067e-21)
(0.993253 0.0541958 6.78803e-21)
(0.976197 0.0833063 3.60437e-21)
(0.936269 0.122704 -2.73736e-22)
(0.850123 0.178014 4.96969e-21)
(0.647438 0.192632 6.94041e-22)
(0.699981 0.240563 3.43242e-22)
(0.393959 0.0625689 8.08463e-22)
(0.433054 0.180754 -4.68656e-22)
(0.999917 0.00969039 0)
(1.0005 0.030692 -4.81445e-23)
(0.998272 0.0555602 -6.70339e-21)
(0.988564 0.0876193 -3.48074e-21)
(0.963781 0.133078 0)
(0.909743 0.205538 -1.80004e-21)
(0.763501 0.355724 -2.17814e-21)
(0.504883 0.278497 -1.42975e-21)
(0.592012 0.358074 1.14374e-21)
(0.183958 0.0399903 -1.80442e-22)
(0.197449 0.118587 3.7436e-22)
(0.270663 0.266427 1.87553e-21)
(0.224974 0.1941 -3.23505e-22)
(0.999995 0.00916422 0)
(1.00169 0.0296783 0)
(1.00256 0.0547961 1.10444e-24)
(0.999185 0.0878111 -9.86534e-23)
(0.986962 0.134802 -2.00006e-22)
(0.95968 0.209852 0)
(0.897186 0.366261 4.47768e-21)
(0.636932 0.560224 1.70479e-22)
(0.772603 0.592153 4.60599e-23)
(0.329728 0.339256 3.48636e-23)
(0.403999 0.408525 0)
(0.481684 0.490538 -7.33268e-22)
(0.0366893 0.0317946 -1.52869e-21)
(0.0487202 0.0947492 -6.99722e-22)
(0.113516 0.206851 -7.09301e-21)
(0.0757325 0.153753 -2.40347e-21)
(1.00007 0.00841365 0)
(1.00267 0.0278394 0)
(1.00609 0.0523175 0)
(1.00792 0.0848625 4.58084e-23)
(1.00553 0.130721 0)
(0.997481 0.201241 9.14725e-23)
(0.982122 0.332351 -2.93835e-21)
(0.97928 0.555914 -4.40637e-22)
(0.621269 0.554006 -8.52694e-24)
(0.488675 0.487446 -8.80929e-23)
(0.7695 0.536397 1.04055e-22)
(0.166572 0.308549 8.71821e-21)
(0.289976 0.400814 -6.01982e-22)
(0.332579 0.383925 1.6739e-21)
(0.233934 0.280125 -1.5857e-21)
(1.00013 0.00748284 -4.51814e-24)
(1.00345 0.025338 0)
(1.00893 0.048496 -5.10587e-21)
(1.01487 0.079576 0)
(1.01998 0.122851 -7.35717e-23)
(1.02513 0.186814 0)
(1.0336 0.290525 -3.9275e-23)
(1.10115 0.484 3.26142e-22)
(0.914119 0.447405 -3.67276e-22)
(1.09722 0.503541 -3.19318e-23)
(0.462311 0.344139 -8.0659e-23)
(0.287757 0.247379 7.5993e-23)
(0.714392 0.422935 6.42835e-22)
(0.466312 0.288313 0)
(0.0575497 0.132873 2.69283e-21)
(0.161696 0.244961 -6.18208e-21)
(0.132464 0.164481 0)
(1.00019 0.0064076 0)
(1.00408 0.0223116 -4.36392e-24)
(1.01118 0.0436396 5.07547e-21)
(1.0203 0.0725874 -3.99913e-23)
(1.03093 0.112517 0)
(1.0449 0.169528 6.9333e-23)
(1.06675 0.253275 0)
(1.14381 0.395971 6.47541e-22)
(1.22921 0.419528 -1.68666e-21)
(0.692797 0.205466 1.59638e-22)
(0.567493 0.273971 -1.30197e-21)
(1.01629 0.298688 -9.14712e-22)
(0.193688 0.133938 2.88173e-21)
(0.264413 0.154382 1.282e-21)
(1.00025 0.00521765 0)
(1.00458 0.0188721 -8.58901e-24)
(1.01294 0.0379901 9.18431e-24)
(1.02447 0.0643809 1.63884e-23)
(1.03909 0.100617 -2.86964e-23)
(1.05879 0.150876 3.26927e-21)
(1.08851 0.220164 2.21141e-21)
(1.15744 0.32317 4.96004e-22)
(1.28802 0.379467 2.2147e-21)
(1.15345 0.260539 0)
(0.449462 0.0578171 5.21544e-22)
(0.193827 0.0362925 0)
(0.363332 0.0932706 4.31313e-23)
(0.848837 0.170175 -3.17051e-22)
(0.123005 0.033056 -1.58126e-22)
(1.00032 0.00393566 -8.10179e-21)
(1.00499 0.0151063 4.07225e-24)
(1.01432 0.0317328 1.6476e-23)
(1.02767 0.0553061 -1.4754e-23)
(1.0451 0.0877472 -1.60506e-23)
(1.06846 0.131797 -6.12883e-21)
(1.10229 0.189947 -4.07625e-21)
(1.16334 0.267483 -5.2111e-22)
(1.27958 0.322546 0)
(1.33582 0.287705 0)
(1.00192 0.142237 6.59242e-21)
(0.686344 0.0996611 -4.06687e-23)
(0.119926 0.00564833 1.12237e-22)
(0.320313 0.0211246 -1.09443e-23)
(0.0925115 0.00388426 -3.19478e-22)
(1.00039 0.00257861 8.0396e-21)
(1.00532 0.0110791 -2.05526e-24)
(1.01541 0.0250033 -4.07223e-24)
(1.03014 0.045596 -2.12679e-23)
(1.04956 0.0742853 6.57052e-21)
(1.07519 0.112789 2.88984e-21)
(1.11074 0.162132 1.84752e-21)
(1.16633 0.223126 -1.60859e-23)
(1.25961 0.271023 0)
(1.35817 0.267678 -4.91225e-21)
(1.2914 0.204564 -8.05313e-21)
(0.889424 0.0706423 8.13062e-23)
(0.553509 0.0437925 -5.54024e-21)
(0.594332 0.0555814 2.80086e-24)
(0.276008 0.00788544 1.16505e-23)
(0.0659425 0.00218586 9.57354e-23)
(0.0705787 -0.000917349 0)
(1.00046 0.00116008 0)
(1.00559 0.00683917 0)
(1.01629 0.0178972 -3.48286e-24)
(1.0321 0.0354023 0)
(1.05294 0.060439 -5.00646e-22)
(1.07996 0.0940335 6.82299e-24)
(1.11593 0.136354 1.19093e-21)
(1.16723 0.186191 -5.67855e-24)
(1.24352 0.227915 -2.0332e-21)
(1.33473 0.237558 5.07533e-21)
(1.37591 0.214096 -5.87803e-21)
(1.22347 0.142235 0)
(0.810702 0.0393667 -4.99289e-21)
(0.51201 0.0181872 -8.68703e-23)
(0.531584 0.0233961 8.07109e-23)
(0.287347 0.0126273 1.01421e-20)
(0.0613014 -0.00176953 -1.02217e-22)
(0.0667023 0.00229144 6.57498e-21)
(1.00054 -0.000309338 0)
(1.00582 0.00242247 -7.83177e-21)
(1.01702 0.0104781 0)
(1.03369 0.0248156 3.45785e-24)
(1.05562 0.0463072 -3.86465e-22)
(1.08352 0.0755483 -3.95874e-21)
(1.11928 0.112215 -1.21614e-21)
(1.1669 0.154301 0)
(1.23174 0.191365 4.12368e-21)
(1.30855 0.206929 -1.20793e-23)
(1.37301 0.201024 6.68939e-22)
(1.36243 0.170075 0)
(1.15713 0.100848 1.2156e-20)
(0.753992 0.0275919 -1.25156e-21)
(0.476159 0.0116826 -1.2259e-21)
(0.491246 0.0110812 4.98213e-24)
(0.284354 0.00496503 0)
(0.293685 0.00594176 -1.25997e-21)
(0.132384 0.00366601 -3.63069e-21)
(0.0946182 0.00816288 -1.65881e-20)
(1.00063 -0.00181978 0)
(1.00602 -0.00214183 1.55286e-20)
(1.01763 0.00278795 0)
(1.03505 0.0138781 0)
(1.05787 0.0319082 -1.02622e-20)
(1.08641 0.0572413 3.84205e-21)
(1.12177 0.0893224 1.46984e-21)
(1.16629 0.125874 -1.0463e-21)
(1.22294 0.159521 -2.04854e-21)
(1.2883 0.178496 -8.39704e-24)
(1.34977 0.181145 5.41901e-21)
(1.38768 0.170255 -3.01995e-24)
(1.33539 0.13558 -7.20336e-21)
(1.09737 0.0757322 1.64725e-23)
(0.711752 0.0227302 -6.17157e-22)
(0.449019 0.0095694 1.17437e-21)
(0.460476 0.00841515 1.19222e-21)
(0.268615 0.00283696 1.13356e-21)
(0.275275 0.00230178 -2.1928e-22)
(0.130666 0.00180467 -3.2579e-24)
(0.132505 0.000462098 2.73566e-23)
(0.134926 0.000934107 2.66816e-21)
(0.135677 0.00193081 4.11766e-22)
(0.0414619 -0.000746881 1.72757e-21)
(0.0256639 0.00220808 4.93793e-21)
(1.00073 -0.00336054 0)
(1.00618 -0.00682601 -7.69423e-21)
(1.01813 -0.00514281 7.07429e-21)
(1.03623 0.0026024 6.03144e-21)
(1.05988 0.0172085 9.58831e-21)
(1.08904 0.0389637 0)
(1.12407 0.0672588 -1.4325e-21)
(1.16609 0.0998141 1.05952e-21)
(1.21661 0.13103 0)
(1.27339 0.152335 -2.69538e-23)
(1.3282 0.160689 4.68724e-21)
(1.37389 0.159195 5.29535e-24)
(1.38898 0.14528 -1.01685e-25)
(1.30174 0.111225 -7.00291e-21)
(1.04639 0.0609374 0)
(0.678908 0.0204673 -4.97781e-21)
(0.427447 0.00844609 1.15572e-21)
(0.436628 0.00750667 5.88852e-22)
(0.256617 0.00247126 6.86645e-23)
(0.262135 0.00199744 -5.84498e-25)
(0.124904 0.000990398 -4.9608e-23)
(0.125959 0.000129398 -2.5326e-23)
(0.128038 -0.000263194 3.12691e-22)
(0.12755 0.000777479 1.27089e-22)
(0.0397237 0.000203208 1.6849e-23)
(0.0403804 -8.51731e-05 0)
(0.040822 -0.000349209 -5.66721e-22)
(0.0412161 0.000182781 -2.82384e-22)
(1.00082 -0.00491824 0)
(1.00629 -0.0115987 -7.35513e-24)
(1.01852 -0.0132865 -6.98581e-21)
(1.03726 -0.00901657 3.91136e-23)
(1.06178 0.00213384 -9.12952e-21)
(1.09168 0.0205214 2.80226e-21)
(1.12665 0.0456331 -4.07894e-25)
(1.16685 0.0752722 2.8642e-24)
(1.21273 0.104903 5.25344e-24)
(1.26279 0.127949 -6.9148e-21)
(1.31161 0.140878 -9.39122e-21)
(1.3547 0.14516 4.46773e-24)
(1.3876 0.141554 0)
(1.38086 0.126717 6.73017e-21)
(1.26659 0.0950222 7.10607e-21)
(1.00383 0.0522778 4.19871e-21)
(0.652162 0.0193736 -4.73791e-24)
(0.409359 0.00795543 0)
(0.417153 0.00711297 5.74415e-22)
(0.246241 0.00232193 2.00477e-22)
(0.251095 0.00202331 -6.03589e-22)
(0.120325 0.000794427 -4.75597e-23)
(0.121248 0.000245869 -9.56425e-23)
(0.123197 -1.74615e-07 9.74391e-23)
(0.122609 0.000665767 -1.45178e-22)
(0.0387109 9.70919e-05 3.19451e-23)
(0.0390508 -6.02403e-05 2.03913e-24)
(0.0391392 -0.000177324 -8.34683e-23)
(0.0393262 4.99822e-05 -2.03338e-24)
(1.00092 -0.00647431 0)
(1.00633 -0.0164174 0)
(1.01876 -0.0216076 7.21321e-24)
(1.03813 -0.0209891 -5.84412e-21)
(1.06359 -0.0134099 4.43149e-21)
(1.09449 0.00168415 -5.3488e-21)
(1.12984 0.0240393 -8.39479e-25)
(1.16893 0.051564 3.98487e-25)
(1.2114 0.0803398 -4.39906e-21)
(1.25608 0.104932 7.02861e-21)
(1.29962 0.121658 -4.42852e-21)
(1.33875 0.130616 -1.11308e-23)
(1.37249 0.132837 5.60571e-24)
(1.39326 0.128369 0)
(1.36673 0.1138 -6.74684e-21)
(1.23284 0.0843841 -7.16151e-21)
(0.96805 0.0472659 0)
(0.630421 0.0188234 -6.22601e-22)
(0.393739 0.00776091 -1.0575e-21)
(0.400385 0.00698288 1.0594e-21)
(0.236764 0.00231477 -6.56584e-23)
(0.241278 0.00209885 -4.60294e-22)
(0.116042 0.000698261 -1.38615e-22)
(0.116903 0.000315888 -9.27307e-23)
(0.118837 0.000174667 -4.70861e-23)
(0.118165 0.000628477 0)
(0.0376786 7.08297e-05 1.53971e-23)
(0.0379998 -2.6643e-05 0)
(0.03834 -8.42552e-05 0)
(0.0383017 4.96071e-05 3.1154e-23)
(1.00102 -0.0080028 0)
(1.00629 -0.0212217 -8.43332e-21)
(1.01879 -0.0300507 0)
(1.03875 -0.0333147 0)
(1.06528 -0.0295275 -8.32568e-24)
(1.09754 -0.0178001 2.54961e-21)
(1.13383 0.00206427 0)
(1.17262 0.02807 0)
(1.21278 0.0566653 4.26449e-21)
(1.25319 0.0829129 5.39413e-24)
(1.29193 0.102981 1.83489e-20)
(1.32701 0.116026 0)
(1.35795 0.122668 5.89544e-21)
(1.38353 0.12379 0)
(1.39276 0.119298 0)
(1.34946 0.104986 6.73606e-21)
(1.20141 0.0774757 0)
(0.937942 0.0444377 0)
(0.615541 0.0187102 -9.72411e-21)
(0.381442 0.00764726 1.11328e-21)
(0.386139 0.00688474 1.11955e-21)
(0.227914 0.00233542 -3.91153e-25)
(0.232106 0.00218783 6.45574e-23)
(0.111806 0.000668249 -4.52648e-23)
(0.112664 0.000373548 9.07259e-23)
(0.114649 0.000285249 4.58817e-23)
(0.113911 0.000625953 -9.1295e-23)
(0.0365505 5.6811e-05 1.49638e-23)
(0.0368552 -1.03082e-05 0)
(0.0373204 -4.25611e-05 4.56025e-23)
(0.0371734 4.76533e-05 0)
(1.00111 -0.00946705 -1.72817e-23)
(1.0061 -0.025924 2.601e-20)
(1.01851 -0.0385261 1.25354e-23)
(1.03898 -0.0459627 0)
(1.06669 -0.0463239 0)
(1.10076 -0.0382118 4.55293e-24)
(1.1387 -0.0207343 3.28977e-25)
(1.17813 0.00418986 -2.23241e-21)
(1.21704 0.0332607 0)
(1.25414 0.0615232 0)
(1.28853 0.0847935 -8.99319e-21)
(1.31948 0.10156 0)
(1.34694 0.112056 -5.99451e-21)
(1.37096 0.117122 -3.27547e-24)
(1.38916 0.117885 0)
(1.38808 0.113356 0)
(1.33064 0.0990681 0)
(1.17256 0.07312 0)
(0.91338 0.0431163 8.35059e-21)
(0.610963 0.0195885 -2.41175e-21)
(0.377595 0.00777073 -4.34065e-21)
(0.37712 0.0066811 -2.20828e-21)
(0.220441 0.00231578 -9.50078e-22)
(0.22374 0.00223417 -6.3893e-23)
(0.107557 0.000660692 -8.90454e-23)
(0.108398 0.000408061 2.24022e-23)
(0.110432 0.000356763 2.2434e-23)
(0.109645 0.000640135 -4.48254e-23)
(0.0353156 5.16317e-05 4.38655e-23)
(0.0356285 4.11176e-07 -3.68582e-24)
(0.0361851 -1.84215e-05 -1.47406e-23)
(0.0359721 4.81978e-05 3.67667e-24)
(1.00118 -0.0108178 3.64273e-23)
(1.00574 -0.0304012 1.1093e-21)
(1.0178 -0.0468908 -1.64119e-20)
(1.0386 -0.0588546 -2.68837e-23)
(1.06758 -0.0638808 7.17875e-24)
(1.104 -0.0598513 0)
(1.14442 -0.0448377 -1.23371e-24)
(1.18561 -0.0207119 2.1627e-21)
(1.22442 0.00952941 0)
(1.25908 0.040388 0)
(1.28952 0.0670093 0)
(1.31624 0.087334 0)
(1.33987 0.101346 1.18903e-20)
(1.36086 0.109792 6.29457e-24)
(1.37896 0.11392 6.2034e-24)
(1.39084 0.114473 0)
(1.38053 0.109628 0)
(1.31115 0.0952332 0)
(1.14645 0.0705819 3.48232e-24)
(0.89391 0.0430164 8.08985e-24)
(0.605032 0.0201708 -5.95568e-21)
(0.392409 0.00825964 -4.11329e-21)
(0.383346 0.00844385 4.13479e-21)
(0.219717 0.00199291 4.01417e-21)
(0.218166 0.00209133 2.53113e-21)
(0.103616 0.000648217 0)
(0.104264 0.000417746 -4.41478e-23)
(0.106208 0.000392326 4.43633e-23)
(0.105455 0.000652968 0)
(0.033998 5.02717e-05 0)
(0.0343144 6.16375e-06 0)
(0.0349351 -4.80262e-06 -1.46071e-23)
(0.0346778 5.04493e-05 0)
(1.00122 -0.0119893 3.85363e-23)
(1.00513 -0.0344825 -1.84181e-20)
(1.01647 -0.0549293 1.62699e-20)
(1.03729 -0.0718362 0)
(1.06754 -0.0822451 -5.17563e-21)
(1.10691 -0.0830197 -6.89328e-24)
(1.15082 -0.0707842 0)
(1.19517 -0.0473615 0)
(1.23518 -0.0151412 0)
(1.26824 0.0191489 8.14442e-24)
(1.29508 0.0495148 9.73711e-24)
(1.31748 0.0734255 1.0993e-23)
(1.33693 0.0907577 -2.35873e-20)
(1.35431 0.102273 6.30071e-24)
(1.36987 0.109161 -1.26808e-23)
(1.38318 0.11263 3.21013e-24)
(1.38963 0.112814 -6.49196e-21)
(1.37092 0.107458 0)
(1.29159 0.092877 0)
(1.12282 0.0692602 -5.71808e-26)
(0.87543 0.042507 1.71568e-23)
(0.591144 0.020661 -4.7357e-21)
(0.393883 0.00954785 -2.14403e-21)
(0.395392 0.00840051 8.50759e-23)
(0.25154 0.00284895 3.72485e-21)
(0.232289 0.00364283 0)
(0.106548 0.000301057 0)
(0.102986 -5.40482e-05 -7.02211e-22)
(0.102536 0.000336201 -1.31676e-22)
(0.102576 0.000520118 -6.5621e-22)
(0.0327048 4.99124e-05 1.42315e-23)
(0.032979 9.32431e-06 3.03732e-23)
(0.03361 2.25709e-06 -2.87136e-23)
(0.0333431 5.34499e-05 -1.78683e-24)
(1.00122 -0.0128981 0)
(1.00419 -0.0379403 -3.89488e-23)
(1.01431 -0.0623316 0)
(1.03463 -0.0846393 -6.03198e-23)
(1.06603 -0.101381 5.05398e-21)
(1.10897 -0.10799 3.0902e-21)
(1.15743 -0.0991745 -1.4079e-24)
(1.2068 -0.0766407 0)
(1.24965 -0.0414227 5.62733e-21)
(1.28196 -0.00253443 0)
(1.30543 0.0322213 1.94153e-24)
(1.3234 0.0598948 -9.61891e-24)
(1.33835 0.0804666 1.16647e-20)
(1.35163 0.09484 -1.26839e-20)
(1.36382 0.104209 -1.3157e-20)
(1.37508 0.109858 -1.3288e-20)
(1.38461 0.112678 1.31203e-20)
(1.38619 0.112338 -6.45749e-21)
(1.35983 0.106341 6.40773e-21)
(1.27227 0.0914491 0)
(1.1002 0.0679475 -6.396e-25)
(0.85458 0.0419909 1.22346e-20)
(0.573259 0.0204321 -4.64701e-21)
(0.383373 0.010041 1.02696e-21)
(0.389005 0.0093141 -4.06706e-24)
(0.256782 0.00408669 -5.91512e-23)
(0.257626 0.0035481 -3.69213e-21)
(0.153911 0.000802037 -1.31759e-21)
(0.147194 0.000878979 0)
(0.1143 8.38473e-05 -2.79076e-21)
(0.129517 0.00332562 5.33617e-21)
(0.0349391 -0.000398553 0)
(0.0327686 -0.000176416 4.62655e-22)
(0.0323993 -7.97288e-06 4.43996e-23)
(0.0323928 6.64899e-06 -1.78645e-24)
(1.00116 -0.013443 0)
(1.00287 -0.0404854 0)
(1.01106 -0.0686728 0)
(1.03012 -0.096842 0)
(1.06227 -0.121079 0)
(1.10922 -0.134919 -2.99429e-21)
(1.16341 -0.130717 0)
(1.22034 -0.109687 3.00221e-21)
(1.2682 -0.0700744 -5.41976e-21)
(1.30065 -0.0249695 3.23647e-24)
(1.32084 0.0150785 -1.03364e-23)
(1.33418 0.0468253 -1.13212e-20)
(1.34431 0.0706343 -1.20848e-23)
(1.35309 0.0877124 1.24919e-20)
(1.36135 0.0993664 1.30147e-20)
(1.36945 0.106908 1.33047e-20)
(1.37747 0.111456 -6.63743e-21)
(1.38393 0.113592 6.49983e-21)
(1.38102 0.112612 2.81919e-23)
(1.34774 0.105836 6.32946e-21)
(1.25295 0.0902264 1.29884e-20)
(1.07702 0.0667455 -1.40442e-20)
(0.831914 0.0414216 6.98616e-24)
(0.553905 0.0197406 -4.35289e-24)
(0.369752 0.00962984 -6.36105e-23)
(0.376318 0.00918014 6.33859e-23)
(0.248883 0.00427195 -7.53824e-22)
(0.253374 0.004118 5.83049e-23)
(0.156592 0.00172898 0)
(0.15739 0.00147816 3.31291e-22)
(0.156895 0.00115605 6.60425e-22)
(0.158005 0.0015037 3.30827e-22)
(0.0882684 0.000237921 1.76609e-21)
(0.0833035 0.000699562 0)
(0.0386026 -0.000352598 2.09608e-21)
(0.0561749 0.00413614 -3.60733e-21)
(1.00104 -0.0135147 2.37482e-20)
(1.00108 -0.0417731 2.34663e-20)
(1.00649 -0.0733797 0)
(1.02317 -0.10778 1.85982e-20)
(1.0552 -0.140828 -1.42666e-20)
(1.10615 -0.163743 0)
(1.16734 -0.166408 9.43321e-22)
(1.23571 -0.148177 3.13722e-22)
(1.29156 -0.102007 6.80529e-21)
(1.32496 -0.0484225 7.8978e-24)
(1.34167 -0.00189952 1.08384e-23)
(1.35002 0.0343378 1.10614e-20)
(1.35499 0.0614363 -1.24977e-20)
(1.35889 0.0811029 3.75044e-23)
(1.36275 0.0948631 1.2553e-23)
(1.36708 0.104111 0)
(1.37214 0.110051 1.34828e-20)
(1.37774 0.113584 0)
(1.3816 0.115013 -6.4107e-21)
(1.37454 0.113275 -1.25385e-20)
(1.33481 0.105492 -1.24439e-20)
(1.2331 0.0891178 6.38963e-21)
(1.05314 0.0657146 3.45157e-21)
(0.808533 0.0406079 0)
(0.5357 0.0196358 -5.74851e-22)
(0.355591 0.00884041 -9.38153e-22)
(0.362337 0.00858636 9.4104e-22)
(0.239031 0.00400898 -5.76894e-23)
(0.243967 0.00401022 5.49484e-23)
(0.150467 0.00178247 -2.45339e-22)
(0.151975 0.00156293 -1.02318e-22)
(0.155026 0.00150032 2.06146e-22)
(0.153745 0.00173071 -2.06938e-23)
(0.0902789 0.000545032 -2.3195e-24)
(0.0909427 0.000479339 -2.23184e-22)
(0.0907453 0.00031338 -5.92704e-22)
(0.0912944 0.000462601 -2.97624e-22)
(0.0280061 -0.000184797 -4.20356e-22)
(0.0273057 -0.000456869 -8.21425e-22)
(0.0156273 0.00123503 4.28797e-22)
(1.00083 -0.0130145 -4.85176e-20)
(0.998845 -0.0414357 -2.34539e-20)
(1.00044 -0.0757035 0)
(1.01312 -0.116406 -1.85935e-20)
(1.04335 -0.159762 -2.22277e-21)
(1.09753 -0.194279 0)
(1.16756 -0.207993 -9.15101e-22)
(1.25375 -0.194892 -9.7793e-21)
(1.32166 -0.138568 -1.42013e-20)
(1.35637 -0.0731658 0)
(1.36871 -0.0186395 -1.16908e-20)
(1.37125 0.0225979 1.23647e-20)
(1.37053 0.0530735 1.21758e-20)
(1.36916 0.0752281 0)
(1.36824 0.0909204 -2.54042e-23)
(1.36834 0.10169 0)
(1.36977 0.10883 -1.34046e-20)
(1.37263 0.113358 6.52893e-24)
(1.3764 0.115963 1.31046e-20)
(1.37801 0.116652 -4.01594e-23)
(1.36697 0.114009 1.23057e-20)
(1.32099 0.10517 0)
(1.21264 0.0881551 -3.02894e-24)
(1.02898 0.064652 0)
(0.785188 0.0401483 0)
(0.517485 0.0190851 -4.74188e-21)
(0.34342 0.00571023 0)
(0.347296 0.0075473 9.89623e-22)
(0.229468 0.0034591 0)
(0.234181 0.00366178 -1.14413e-22)
(0.143913 0.00166233 1.00816e-22)
(0.145375 0.00144902 2.22288e-22)
(0.148594 0.001461 -8.11387e-23)
(0.147146 0.00167439 -8.11814e-23)
(0.0864771 0.000563129 7.3462e-23)
(0.0874946 0.000518765 -7.36613e-23)
(0.0893639 0.000482944 -1.45648e-22)
(0.0884975 0.000542081 0)
(0.0285942 3.41805e-05 1.71495e-24)
(0.0288552 2.08716e-05 -5.64644e-23)
(0.0289468 -1.67757e-05 -5.108e-24)
(0.0290393 2.12732e-05 -1.71264e-24)
(1.00054 -0.0118809 2.47803e-20)
(0.996276 -0.0391509 2.61989e-20)
(0.993003 -0.0747739 9.35326e-23)
(0.999324 -0.12118 0)
(1.02468 -0.176435 3.54668e-20)
(1.08074 -0.226658 5.78813e-23)
(1.16275 -0.258667 -2.9349e-21)
(1.27714 -0.25437 6.36336e-21)
(1.36245 -0.181743 7.30249e-21)
(1.39799 -0.0996498 1.15714e-23)
(1.40381 -0.0350803 2.39905e-20)
(1.39881 0.0117929 -1.20423e-20)
(1.39134 0.0457644 2.42939e-23)
(1.38408 0.0703157 2.52132e-23)
(1.37795 0.0877572 0)
(1.37343 0.0998532 -2.66493e-23)
(1.3708 0.108012 0)
(1.37018 0.113332 0)
(1.37149 0.116632 -1.31745e-20)
(1.37387 0.118379 6.38259e-21)
(1.37342 0.118277 -6.17058e-21)
(1.35842 0.114677 -6.03639e-21)
(1.30635 0.104873 0)
(1.1918 0.0872134 7.10049e-26)
(1.00486 0.063614 0)
(0.762378 0.0392074 3.8479e-21)
(0.272824 0.00409678 0)
(0.499406 0.0189453 0)
(0.220467 0.000418732 -6.462e-23)
(0.227053 0.00277894 5.66478e-23)
(0.137868 0.00125854 0)
(0.13922 0.00118726 0)
(0.142162 0.0013187 6.02447e-23)
(0.140844 0.00150096 2.59753e-22)
(0.0825454 0.000518966 -1.08523e-22)
(0.0835036 0.000479991 -7.25571e-23)
(0.085409 0.000472937 -7.29996e-23)
(0.0844896 0.000520278 7.27848e-23)
(0.0272943 3.64889e-05 1.6897e-23)
(0.0276492 2.96316e-05 -3.38733e-24)
(0.0282931 1.98668e-05 0)
(0.0280035 3.55553e-05 0)
(1.0002 -0.0101155 0)
(0.993611 -0.0347497 1.29035e-21)
(0.984626 -0.0698149 5.0258e-23)
(0.981755 -0.120201 1.99054e-22)
(0.997199 -0.188024 -1.91862e-20)
(1.05239 -0.260412 -1.56868e-20)
(1.15083 -0.323558 7.4406e-21)
(1.3078 -0.332166 3.03518e-23)
(1.41675 -0.233106 1.22754e-23)
(1.45237 -0.128047 -2.72174e-20)
(1.44916 -0.0511006 -1.22706e-20)
(1.43439 0.00210886 2.47174e-23)
(1.41845 0.0397408 -1.40592e-20)
(1.40414 0.0665947 0)
(1.39212 0.0855928 2.70668e-23)
(1.38254 0.0988003 2.69488e-23)
(1.37546 0.107784 2.66304e-23)
(1.37093 0.113722 0)
(1.36892 0.117497 1.34323e-20)
(1.36916 0.119732 0)
(1.37043 0.120668 1.25823e-20)
(1.36797 0.119768 6.02985e-21)
(1.34901 0.115262 0)
(1.29106 0.104539 5.8525e-21)
(1.17078 0.0862685 2.98065e-24)
(0.981155 0.0625612 0)
(0.740501 0.038533 0)
(0.260306 0.00496971 0)
(0.0991067 0.000919357 6.55215e-23)
(0.100191 0.000122302 -6.54218e-23)
(0.483132 0.0185512 -4.46935e-24)
(0.103659 0.000708184 0)
(0.136251 0.000470621 0)
(0.135531 -0.00038375 0)
(0.0792466 0.000275602 0)
(0.0799371 0.000364936 -1.79012e-23)
(0.0815666 0.00042257 -7.18424e-23)
(0.0807562 0.000452162 -5.37397e-23)
(0.0259974 3.27984e-05 2.66811e-23)
(0.0263249 2.69878e-05 0)
(0.0269583 2.03735e-05 -1.35185e-23)
(0.026662 3.3556e-05 0)
(0.999829 -0.00779144 0)
(0.99116 -0.0283123 -2.75645e-20)
(0.976202 -0.0604703 -2.92374e-20)
(0.961804 -0.111617 2.93217e-20)
(0.9612 -0.189689 -1.90354e-22)
(1.00675 -0.289918 -5.25119e-21)
(1.12252 -0.405925 -1.19988e-20)
(1.33551 -0.431014 0)
(1.47337 -0.290143 -3.27683e-23)
(1.51057 -0.15571 5.8314e-20)
(1.50044 -0.0655362 -2.89734e-23)
(1.47722 -0.00591191 0)
(1.45261 0.0353229 2.84964e-20)
(1.43021 0.0643235 -1.45966e-20)
(1.41126 0.084642 0)
(1.39591 0.0987249 -1.42555e-20)
(1.38396 0.108319 -2.69701e-23)
(1.37517 0.114694 0)
(1.36938 0.11878 1.73287e-22)
(1.36644 0.121256 1.32263e-20)
(1.36594 0.122562 -2.54553e-20)
(1.36626 0.122747 -2.952e-24)
(1.36178 0.121098 -6.43782e-26)
(1.33888 0.115728 -5.7131e-21)
(1.2753 0.104134 0)
(1.14982 0.085319 -5.92017e-21)
(0.95823 0.0616272 -3.11357e-24)
(0.7202 0.0378408 7.47491e-21)
(0.249902 0.00508562 1.76565e-22)
(0.0951074 0.00100049 -6.39201e-23)
(0.0965954 0.000181132 -3.21392e-23)
(0.0226549 0.000153696 1.20564e-23)
(0.0227139 -7.06811e-06 1.7343e-24)
(0.0229282 8.00917e-05 -2.80101e-23)
(0.0231083 -0.000160173 2.81071e-23)
(0.468984 0.0180619 -4.58938e-21)
(0.023611 0.000283141 0)
(0.0237118 3.53374e-06 0)
(0.07814 -0.00103984 0)
(0.0794083 -0.000235958 3.53504e-23)
(0.0249345 2.14018e-05 -3.29508e-24)
(0.0251725 1.62175e-05 3.28906e-24)
(0.0256956 1.73213e-05 0)
(0.0254411 2.77145e-05 0)
(0.999464 -0.00504436 -5.51021e-23)
(0.989214 -0.0201902 0)
(0.968911 -0.0470461 2.96704e-20)
(0.942344 -0.0943939 -2.99576e-20)
(0.920436 -0.17596 -3.19159e-20)
(0.937919 -0.302412 2.11432e-20)
(1.05078 -0.49273 7.56136e-21)
(1.31978 -0.541596 -3.03717e-24)
(1.48463 -0.340152 3.62966e-20)
(1.53042 -0.173359 8.0136e-21)
(1.5297 -0.0738819 -6.48443e-23)
(1.51297 -0.0102219 2.97009e-23)
(1.48848 0.0333965 -1.44216e-20)
(1.46127 0.0639368 -9.72011e-22)
(1.43572 0.0851741 0)
(1.41402 0.0998228 -5.15587e-22)
(1.3966 0.109784 0)
(1.38311 0.116397 0)
(1.3732 0.120629 -2.70662e-20)
(1.36661 0.123187 -1.31258e-20)
(1.36309 0.124575 2.57968e-20)
(1.36208 0.125077 -5.98643e-24)
(1.36151 0.124594 2.93581e-24)
(1.355 0.122248 -5.58979e-24)
(1.32817 0.116048 0)
(1.25923 0.103641 -1.91559e-23)
(1.12916 0.0843685 0)
(0.936461 0.0606892 -6.36284e-21)
(0.701879 0.0371339 -7.38639e-21)
(0.240815 0.00496544 5.88418e-21)
(0.090805 0.00105559 -3.15083e-23)
(0.0924767 0.00029913 -2.20648e-22)
(0.0217706 0.00014536 1.3642e-23)
(0.0219056 9.88003e-06 2.72751e-23)
(0.0221902 5.03754e-05 2.74145e-23)
(0.0223128 -0.000128685 -1.38075e-23)
(0.458144 0.0176253 -9.02626e-21)
(0.0245462 -0.00032788 1.63805e-24)
(0.0250786 -9.15787e-05 -2.77873e-23)
(0.999126 -0.00204674 2.79239e-20)
(0.987972 -0.010935 1.78472e-22)
(0.963757 -0.0305078 2.65168e-22)
(0.926703 -0.0692371 -3.50125e-20)
(0.880005 -0.14404 7.19854e-20)
(0.84868 -0.284861 -7.12066e-22)
(0.898602 -0.544755 5.3964e-21)
(1.17926 -0.629992 -1.47979e-21)
(1.3497 -0.34942 -2.46914e-20)
(1.41731 -0.163439 -9.41758e-20)
(1.46599 -0.0666722 0)
(1.49675 -0.00631137 1.36204e-22)
(1.50183 0.0361792 0)
(1.4868 0.0664146 -1.04273e-21)
(1.46219 0.0876684 5.79104e-23)
(1.43639 0.102368 1.42555e-20)
(1.4136 0.112359 0)
(1.39505 0.118973 -2.69372e-23)
(1.38064 0.123171 2.72516e-20)
(1.37005 0.125664 1.34427e-20)
(1.36298 0.126972 -2.59547e-20)
(1.35913 0.127456 1.26066e-20)
(1.35774 0.127278 1.17656e-23)
(1.35632 0.126206 1.15933e-20)
(1.34772 0.123199 2.75061e-24)
(1.317 0.116209 5.4184e-21)
(1.24302 0.103061 0)
(1.10905 0.0833872 0)
(0.916123 0.0597603 5.28511e-24)
(0.686065 0.0365978 0)
(0.23464 0.00451524 1.21885e-20)
(0.0867997 0.00106176 -3.09923e-23)
(0.0881897 0.000296437 -4.81123e-22)
(0.0207046 0.00015526 0)
(0.0208636 1.58274e-05 2.68067e-23)
(0.0211976 5.93862e-05 0)
(0.0213655 -0.000111944 -1.34465e-23)
(0.453264 0.0184157 -8.77935e-21)
(0.998829 0.0010221 -5.55982e-20)
(0.987498 -0.00118272 -3.00736e-20)
(0.961255 -0.0122372 3.24029e-20)
(0.91724 -0.0387657 -1.63706e-21)
(0.849594 -0.0963553 -8.33303e-20)
(0.761369 -0.226707 4.00665e-22)
(0.782668 -0.459444 7.22551e-22)
(0.698871 -0.430927 0)
(0.962744 -0.745592 2.69204e-21)
(0.769632 -0.692651 1.64115e-22)
(0.693685 -0.609153 -1.02509e-20)
(1.16903 -0.394387 -6.52062e-23)
(0.808327 -0.49755 3.37462e-23)
(0.82489 -0.263292 0)
(1.03796 -0.0991354 9.84224e-20)
(0.900906 -0.166524 -3.4852e-20)
(1.20243 -0.0311249 5.47408e-20)
(1.34883 0.0111326 0)
(1.43821 0.0465976 3.78012e-20)
(1.47495 0.0733194 1.60615e-20)
(1.4753 0.092926 0)
(1.45721 0.106808 -5.85423e-23)
(1.43349 0.116311 -2.78932e-23)
(1.41089 0.122591 2.7152e-23)
(1.39192 0.126531 -1.35234e-20)
(1.37704 0.128796 -1.32967e-20)
(1.36609 0.12989 1.2927e-20)
(1.35878 0.130185 -1.26373e-20)
(1.35474 0.129929 -1.22514e-20)
(1.35306 0.129181 -1.16662e-20)
(1.35078 0.127579 -5.47402e-24)
(1.34005 0.123947 -2.60355e-24)
(1.30549 0.116215 -5.29718e-21)
(1.22684 0.102392 0)
(1.08969 0.0823911 5.58821e-21)
(0.897406 0.0589565 -2.97992e-24)
(0.673158 0.0367005 0)
(0.242882 0.00537462 1.01934e-20)
(0.085438 0.00105388 6.00843e-23)
(0.0848021 8.41187e-05 -2.07542e-21)
(0.0196417 0.000159699 0)
(0.0197721 1.75464e-05 2.63302e-23)
(0.0201071 6.53329e-05 -3.31583e-24)
(0.020281 -0.000115787 -9.95795e-24)
(0.448327 0.0182086 -8.59205e-24)
(0.998581 0.00400281 2.76393e-20)
(0.987725 0.00846569 2.99893e-20)
(0.961361 0.00629735 -3.29763e-20)
(0.914651 -0.00643245 7.64896e-20)
(0.835789 -0.0406355 4.54945e-20)
(0.708427 -0.130863 5.63456e-20)
(0.621736 -0.36961 7.32728e-23)
(0.558235 -0.294677 2.22648e-20)
(0.560536 -0.554524 0)
(0.656618 -0.683638 0)
(0.459611 -0.473321 0)
(0.381465 -0.324859 7.77801e-21)
(0.598155 -0.477503 -5.75144e-21)
(0.550791 -0.634376 -2.931e-21)
(0.611294 -0.280422 -5.5172e-23)
(0.23683 -0.12066 -5.62819e-21)
(0.208939 -0.139254 0)
(0.196634 -0.0519501 -4.83765e-21)
(0.312802 -0.0779755 0)
(0.659104 -0.167126 0)
(0.605577 -0.0139305 -2.58061e-20)
(0.674374 0.033382 -5.42309e-20)
(0.370295 0.0178817 -3.94785e-20)
(0.461065 -0.0514666 -4.70769e-22)
(0.996469 0.0436991 5.67283e-20)
(1.22739 0.0645748 -4.27713e-20)
(1.36995 0.0850331 1.46239e-22)
(1.43885 0.101418 3.42905e-20)
(1.45725 0.113574 1.58371e-20)
(1.44806 0.121973 0)
(1.42799 0.127484 6.32779e-25)
(1.40651 0.130863 -1.3942e-20)
(1.38768 0.132695 -2.65111e-23)
(1.37267 0.133427 0)
(1.36158 0.133404 -1.2782e-20)
(1.35418 0.132886 1.22888e-20)
(1.35007 0.13203 -1.18732e-20)
(1.34813 0.130801 0)
(1.34496 0.128719 7.13788e-26)
(1.33204 0.124496 5.23918e-21)
(1.29374 0.116066 0)
(1.21083 0.101639 0)
(1.07116 0.081426 0)
(0.880238 0.0583808 3.01382e-24)
(0.660768 0.0360435 -7.08796e-21)
(0.248094 0.00606119 2.56151e-21)
(0.113123 0.000593313 0)
(0.0965339 0.000701329 -1.94278e-21)
(0.020244 0.000112711 0)
(0.0191028 -0.000147654 -6.61915e-24)
(0.0192269 6.04847e-06 1.10785e-22)
(0.0192408 -0.000142584 0)
(0.438549 0.0179418 0)
(0.998378 0.00677301 0)
(0.988499 0.0175268 2.85608e-23)
(0.963587 0.0238463 -1.34918e-22)
(0.918228 0.0244718 -7.694e-20)
(0.838758 0.0148583 0)
(0.701392 -0.0234107 -6.17681e-20)
(0.515121 -0.199788 -2.42928e-20)
(0.4901 -0.100058 4.29353e-22)
(0.424523 -0.464078 -2.163e-20)
(0.318132 -0.351014 2.22824e-20)
(0.278481 -0.472451 3.63363e-21)
(0.434328 -0.584279 -1.06398e-21)
(0.345374 -0.37171 0)
(0.18705 -0.214104 -6.47638e-23)
(0.179246 -0.0101457 1.0659e-20)
(0.317565 0.0143552 0)
(0.231704 0.0240425 -1.45068e-20)
(0.234594 0.0473544 1.98035e-20)
(0.481553 0.0736998 -7.99752e-20)
(0.193304 0.0282532 -4.92566e-20)
(0.158971 0.0225482 -1.46466e-23)
(0.117618 0.00993778 0)
(0.845241 0.0815433 8.42979e-24)
(1.12047 0.0969831 0)
(1.30173 0.11109 -3.70918e-20)
(1.39892 0.121977 -1.63414e-20)
(1.43536 0.129294 0)
(1.43605 0.133814 -5.57715e-23)
(1.42062 0.136347 -2.63597e-22)
(1.40095 0.137496 -5.26676e-23)
(1.38267 0.137684 0)
(1.36779 0.13721 2.55153e-20)
(1.35671 0.136304 1.24135e-20)
(1.34934 0.135138 1.19355e-20)
(1.34523 0.133795 -1.13548e-23)
(1.34305 0.132157 5.28974e-24)
(1.33894 0.129635 1.05684e-20)
(1.32378 0.124851 0)
(1.28184 0.115767 0)
(1.19505 0.100818 0)
(1.0534 0.0804951 0)
(0.863663 0.0573895 6.00068e-21)
(0.646437 0.0352365 0)
(0.242248 0.00625511 -3.11957e-22)
(0.116051 0.00203063 -6.32185e-23)
(0.116743 0.00116573 -3.83199e-21)
(0.0541182 0.000122175 1.89689e-23)
(0.050091 0.000720344 -3.2998e-23)
(0.0330771 0.00249898 3.27485e-21)
(0.0227313 -0.000335069 -1.83105e-21)