/*--------------------------------*- C++ -*----------------------------------*\
| =========                 |                                                 |
| \\      /  F ield         | OpenFOAM: The Open Source CFD Toolbox           |
|  \\    /   O peration     | Version:  v1912                                 |
|   \\  /    A nd           | Website:  www.openfoam.com                      |
|    \\/     M anipulation  |                                                 |
\*---------------------------------------------------------------------------*/
FoamFile
{
    version     2.0;
    format      ascii;
    class       surfaceScalarField;
    location    "80";
    object      phi;
}
// * * * * * * * * * * * * * * * * * * * * * * * * * * * * * * * * * * * * * //

dimensions      [0 3 -1 0 0 0 0];
oriented        oriented;


internalField   nonuniform List<scalar> 
7354
(
-2.45575e-05
0.00993456
-0.000151484
0.0100963
0.000794239
0.00917441
-0.000358214
0.01024
0.00123551
0.00965486
0.00291676
0.00313974
0.00318206
-0.000595994
0.0102833
0.00135924
0.0101163
0.00470938
0.00359258
0.00426934
0.00199677
0.000585613
0.000598557
0.00400422
0.000606169
0.000568342
-0.000863011
0.0102976
0.00134679
0.0102956
0.00540029
0.00461152
0.00481395
0.00562721
0.00123451
0.00073507
0.00643957
0.00178322
0.0016737
-0.000612878
0.00119848
-0.00176682
0.00237298
-0.00116534
0.0103153
0.00120412
0.0104404
0.00535776
0.0103379
0.00712803
0.00204118
0.00188187
0.00717254
0.00476941
-0.00310805
0.00434254
-0.0043407
0.00475918
0.0013647
0.00167554
-0.00150011
0.010337
0.000929824
0.0105895
0.00480765
0.0109905
-0.00984504
0.0161108
0.00534471
0.00589987
-0.0051813
0.00527613
0.00194633
0.00145974
-0.0042756
0.00232163
0.00215446
-0.00167554
0.00304021
-0.00186121
0.0103584
0.00053844
0.0107285
0.00403018
0.0113668
0.0139808
0.0131206
0.00601009
-0.00314623
0.00421124
-0.0017304
0.00623028
0.00567969
-0.00449995
0.00217065
-0.00266196
0.00183738
-0.00217065
0.00166316
-0.00224204
0.0103778
5.3251e-05
0.0108434
0.00318173
0.0115769
0.0114236
0.013924
-0.00319277
0.00988487
0.0126587
0.00219056
0.00294057
-0.000372516
-0.000547347
-0.00113413
0.0012411
0.00467749
0.000529033
-0.00263897
0.010395
-0.000500638
0.0109317
0.00230748
0.0117175
0.00895387
0.0140467
0.00894426
0.0148646
-0.0016162
0.0044732
0.0111032
-0.00130153
0.000863206
-0.000111002
0.00226227
-7.38653e-05
-0.00093762
0.00067358
-0.000108472
-0.000243861
0.00392449
0.000285172
-0.00304643
0.0104081
-0.00110259
0.0109968
0.00141491
0.0118243
0.00672786
0.0139435
0.00742172
0.0155691
0.00472487
0.014613
0.00163473
0.00997122
-9.8882e-05
-0.000403779
-0.000639832
0.00326281
0.000581659
-1.90751e-05
0.00179277
-8.17873e-05
-8.85347e-05
0.000520686
-1.28888e-05
0.0001767
-0.00346364
0.01042
-0.00173789
0.0110435
0.0005062
0.0119054
0.00475568
0.0137965
0.00576609
0.0155991
0.00416344
0.0161305
0.00225606
0.0139918
0.000325514
0.00925578
0.000235756
0.000154098
-0.00302162
0.00293223
-9.45283e-06
-0.000162563
0.000157626
0.00166004
-2.31565e-05
-6.65978e-06
-0.00045243
0.000393336
-2.26913e-05
-2.02788e-05
0.000144737
-0.0038887
0.0104301
-0.00239709
0.011079
-0.000414832
0.0119644
0.00299136
0.0136696
0.00414628
0.0154162
0.00324095
0.0165217
0.00221485
0.0161716
0.000989035
0.0133284
1.94869e-05
0.00890649
0.000103423
0.000226325
-0.00290665
0.00289174
0.000250668
0.000179684
0.00165213
3.93735e-06
-5.45901e-06
0.000372155
-1.96809e-06
0.000366609
-1.10539e-06
-0.000124458
0.000101767
-0.00431893
0.010437
-0.00307368
0.0111068
-0.00134422
0.0120082
0.00138226
0.0135736
0.00260343
0.0152124
0.00219995
0.0164571
0.00173893
0.0169977
0.00120254
0.015958
0.00048594
0.012862
0.000140741
0.008774
-4.48149e-05
3.64898e-05
-0.00288616
0.00289504
9.45475e-05
0.000231924
-0.00173268
0.00176341
0.000113766
0.000106181
2.90117e-05
7.01181e-05
-0.000361582
0.000366121
-5.97364e-07
-4.27107e-07
9.97993e-05
9.86942e-05
-0.00475601
0.0104451
-0.00376823
0.0111314
-0.00227981
0.0120422
-0.000116183
0.0135066
0.00113198
0.015045
0.00113659
0.0162758
0.00105816
0.0171378
0.00100014
0.0172002
0.000724468
0.0157193
0.000398592
0.0126043
0.000184723
-0.000108824
0.00869791
-0.00289853
0.00272337
0.000130337
3.30142e-05
-0.00181154
0.00186454
7.22523e-06
3.43331e-05
0.000124762
5.90298e-05
-0.000459054
0.000486741
8.60806e-05
-0.000424087
7.12137e-05
0.000384398
1.07362e-05
3.04299e-05
-9.82671e-05
9.76701e-05
-0.00519619
0.010451
-0.00447509
0.0111521
-0.00322082
0.0120722
-0.00153866
0.0134649
-0.000285371
0.0149239
7.70217e-05
0.0161044
0.000303782
0.0170303
0.00055568
0.0175821
0.000647948
0.0172768
0.000577936
0.0155398
0.000385868
0.0124031
-0.0020464
0.00470568
-1.51161e-05
-2.96765e-05
0.000111756
7.68513e-05
0.00850901
-0.00189524
-1.40726e-05
-6.75854e-06
6.05456e-06
-3.74114e-06
-0.000573051
0.000577442
2.83604e-06
-0.000553472
1.4753e-05
0.000529739
8.17624e-05
3.53009e-05
-0.00021005
0.0002392
5.69313e-05
-0.000138836
0.000108406
-0.00564106
0.010458
-0.00519867
0.0111744
-0.00417021
0.0121013
-0.00292002
0.0134534
-0.00166917
0.0148485
-0.000976322
0.0159773
-0.000474061
0.0168821
5.21694e-07
0.0175855
0.000341189
0.0178887
0.000542846
0.0173119
0.000550416
0.0153751
0.000361237
0.0121536
0.00467487
0.000100661
6.87909e-06
-0.000870728
0.000858409
-1.72921e-06
-1.09203e-06
-0.000528488
-4.16033e-07
-1.3571e-06
-0.000370162
0.000106539
0.000178129
0.00822393
-0.000574057
3.14936e-05
-0.000579843
-9.73274e-07
0.000582291
1.20363e-06
-1.29033e-06
-0.000332048
0.000335009
-1.23359e-07
-0.000319563
2.26704e-06
0.000292816
2.81459e-05
8.55683e-06
5.69313e-05
-0.0060929
0.0104656
-0.00593678
0.0111962
-0.00512524
0.0121292
-0.00429053
0.013472
-0.00303593
0.0148201
-0.00202854
0.0159006
-0.00125706
0.0167603
-0.000594498
0.0174769
-8.18762e-05
0.0180086
0.000315194
0.0181162
0.000554443
0.0173079
0.000557727
0.0151784
0.000397749
0.0118623
0.00452903
0.000154262
0.000169588
-0.000865792
0.00094008
2.16193e-05
4.71017e-06
9.38303e-07
-1.47099e-06
-8.81903e-05
8.64598e-05
-8.9283e-05
-8.96996e-05
-9.10568e-05
-0.000335379
-3.29138e-06
0.00021942
-3.82491e-05
0.00804229
-0.000335449
-9.03858e-07
0.000336109
1.0243e-07
-6.28373e-07
-9.59013e-05
9.57778e-05
-9.36341e-05
8.50773e-05
-0.0065502
0.0104724
-0.00668783
0.0112165
-0.0060906
0.0121614
-0.00568803
0.0135266
-0.00440652
0.0148424
-0.00308165
0.0158733
-0.00204135
0.0166847
-0.00120189
0.0173677
-0.000553466
0.0179483
-3.01847e-05
0.018354
0.000381687
0.0182887
0.000602622
0.0172629
0.000610529
0.0149653
0.00045672
0.0116249
0.00448511
-3.15679e-05
3.70899e-05
-0.000985512
0.00104624
2.32912e-05
7.01959e-05
6.82434e-05
5.58755e-05
-9.06355e-05
0.000112252
-8.59263e-05
-8.49888e-05
-9.43483e-05
0.000320105
-0.000169407
0.00789107
-9.5252e-05
9.58804e-05
-0.00701705
0.0104826
-0.00745392
0.0112387
-0.0070712
0.0121969
-0.00714181
0.0136153
-0.00579803
0.014918
-0.004142
0.0159026
-0.00282679
0.0166587
-0.0018122
0.0172948
-0.00104153
0.0178558
-0.000424929
0.0183429
9.30786e-05
0.0186426
0.000478355
0.0184127
0.000677247
0.0171961
0.000653574
0.0147681
0.000515205
0.0114297
0.00438689
-4.15506e-05
-2.97961e-05
-0.00107808
0.00106054
-9.04042e-06
-5.05084e-06
-2.69247e-06
7.89944e-06
-0.00023904
0.000255885
6.43316e-06
-0.000191452
2.25947e-05
-0.000168127
4.49046e-05
0.000332407
-0.000173371
0.00773151
-0.00749185
0.010492
-0.00822777
0.0112563
-0.00807059
0.0122379
-0.00868988
0.0137448
-0.0072273
0.0150445
-0.00520923
0.0159852
-0.00361138
0.0166869
-0.00242262
0.0172691
-0.00153261
0.0177856
-0.000836798
0.0182676
-0.000253638
0.0186893
0.000230924
0.0188899
0.00058234
0.0185073
0.00073059
0.017119
0.000689465
0.0145935
0.000528851
0.0112332
0.00427566
-2.96504e-05
-3.26496e-05
-0.00103927
0.00101108
-7.56152e-06
-5.86615e-06
-4.41849e-06
-4.16664e-06
-0.0002577
0.000251118
-2.47586e-06
-0.000260837
-1.93254e-06
-0.000262492
-1.05665e-06
1.27682e-06
-6.74989e-05
7.39301e-05
-4.49046e-05
0.00025834
-8.0503e-05
0.00755299
-0.00797542
0.0105023
-0.00900368
0.0112681
-0.00910191
0.0122873
-0.0103797
0.0139279
-0.0087211
0.0152385
-0.00629306
0.016128
-0.00439949
0.0167734
-0.00303101
0.0172951
-0.00202043
0.0177569
-0.00125079
0.0181994
-0.000619115
0.0186331
-8.1058e-05
0.019001
0.000364619
0.0191076
0.00066166
0.0185758
0.000770497
0.0170379
0.000707001
0.014415
0.000489261
0.0110022
0.00420441
1.20554e-05
-2.15288e-05
-0.000985461
0.000966692
-5.84952e-06
-5.07829e-06
-3.17504e-06
-3.89862e-06
-0.000239827
0.00023438
-2.13491e-06
-0.000243975
-1.73915e-06
-0.00024733
-1.08662e-06
-3.97463e-07
-7.22153e-05
6.97367e-05
-7.41491e-05
-7.52069e-05
0.000186349
5.47322e-05
0.00731141
-0.00846588
0.0105106
-0.00977364
0.011272
-0.0101843
0.0123502
-0.0122698
0.0141772
-0.010301
0.0155077
-0.00739804
0.0163436
-0.005193
0.0169213
-0.00363864
0.017381
-0.00251
0.0177844
-0.00166526
0.0181714
-0.000988111
0.0185681
-0.000416553
0.0189685
7.50257e-05
0.0192902
0.000468669
0.0193005
0.000719894
0.0186261
0.00080185
0.0169431
0.000698169
0.0142058
0.000460802
0.0107278
0.00408054
0.000114408
6.40586e-05
-0.000950389
0.000963973
1.62539e-06
-3.2291e-06
-1.59863e-06
-3.69015e-06
-0.000224604
0.000220533
-1.79307e-06
-0.000228213
-1.47906e-06
-0.000230628
-7.77591e-07
-1.6168e-07
-6.65104e-05
6.43727e-05
-6.82512e-05
-6.93392e-05
0.000207579
2.21198e-05
0.00708171
-0.00895652
0.0105144
-0.0105255
0.0112627
-0.011354
0.0124414
-0.0144322
0.0145128
-0.0119919
0.015868
-0.00853273
0.0166421
-0.00599387
0.0171445
-0.00424729
0.0175297
-0.0029973
0.0178683
-0.00207599
0.0181949
-0.0013579
0.0185411
-0.000762027
0.0189132
-0.000245392
0.0192888
0.000199417
0.019559
0.000550286
0.01947
0.000769785
0.0186579
0.000817527
0.0168238
0.000698512
0.013968
0.000476915
0.0104587
0.00396418
2.43815e-05
0.000114124
-0.000984829
0.000993817
5.63684e-05
4.89588e-05
3.1825e-05
1.13076e-05
-0.000213806
0.000215872
-4.64779e-07
-0.0002159
-1.15269e-06
-0.000216943
-5.81166e-07
-1.18291e-07
-6.19518e-05
6.01565e-05
-6.34321e-05
-6.4211e-05
0.000309134
-0.000133384
0.00690613
-0.00944204
0.0105167
-0.0112559
0.0112445
-0.0126574
0.0125659
-0.0169368
0.014946
-0.0138003
0.0163211
-0.00969197
0.0170275
-0.00679748
0.0174455
-0.00485253
0.0177498
-0.00348242
0.0180146
-0.00248667
0.018279
-0.0017266
0.0185633
-0.00110569
0.0188847
-0.000574428
0.0192418
-0.000105955
0.0195941
0.000298216
0.0198108
0.000619743
0.0196201
0.000811843
0.0186634
0.000840478
0.0166819
0.000716093
0.0137287
0.000537328
0.0102307
0.00387963
-4.22225e-05
-6.52446e-06
-0.00101476
0.00102692
-2.08791e-06
1.42625e-05
3.02627e-05
6.29149e-05
-0.000254048
0.000266096
4.42929e-05
-0.00023924
3.41274e-05
-0.000222284
1.48388e-05
4.87391e-06
-5.83008e-05
5.78326e-05
-5.94554e-05
-6.00382e-05
0.000381835
-0.000206092
0.00673067
-0.00991777
0.0105185
-0.0119591
0.0112201
-0.014138
0.0127245
-0.019825
0.0154543
-0.015676
0.0168217
-0.010824
0.0174529
-0.00757007
0.0178002
-0.0054397
0.0180324
-0.00395889
0.0182263
-0.00289638
0.018424
-0.00209574
0.0186481
-0.00145188
0.0189091
-0.000907201
0.0192174
-0.000426681
0.0195621
4.66204e-06
0.0198876
0.000385264
0.020045
0.000683007
0.019749
0.000855329
0.0186484
0.00086869
0.0165295
0.000756369
0.0135097
0.000592991
0.0100197
0.00375571
-4.66426e-05
-3.53839e-05
-0.00102577
0.00100411
-1.20148e-05
-8.55544e-06
-5.68875e-06
3.35892e-07
-0.000307897
0.000307102
-1.29627e-06
-0.000298947
5.30326e-06
-0.000286887
1.81981e-05
4.21152e-05
-0.000111667
0.000126686
2.9251e-05
-7.75429e-05
-6.27066e-05
0.000402022
-0.000219171
0.00654794
-0.0103806
0.0105231
-0.0126267
0.0111856
-0.015794
0.012876
-0.0230405
0.0159401
-0.0174548
0.017233
-0.0117929
0.0177908
-0.00822103
0.0181037
-0.00595137
0.0183119
-0.00439971
0.018473
-0.00329334
0.0186232
-0.00246238
0.0187903
-0.00179863
0.0189947
-0.00124041
0.0192419
-0.000749643
0.0195403
-0.000306565
0.019873
0.000100681
0.0201722
0.000461199
0.0202666
0.000743253
0.0198612
0.000896321
0.0186207
0.000904197
0.0163818
0.000798408
0.0133042
0.000614566
0.00980726
0.00361823
-4.31053e-05
-3.84714e-05
-0.000980707
0.000954427
-1.31138e-05
-7.1707e-06
-6.08607e-06
-5.85498e-06
-0.000300271
0.00029421
-5.94003e-06
-0.000303978
-4.85076e-06
-0.000307122
-2.54187e-06
3.14032e-07
-0.000172906
0.000172638
-1.03741e-06
-0.000168185
5.75675e-07
-0.000154445
4.45122e-06
1.43488e-05
2.92506e-05
0.000379735
-0.000198903
0.00636715
-0.0108355
0.0105226
-0.0132408
0.0111374
-0.0175272
0.0129182
-0.0263651
0.0162004
-0.0187989
0.0172842
-0.0123323
0.0177722
-0.00856467
0.0181344
-0.00627186
0.018424
-0.00473257
0.0186448
-0.00363756
0.0188169
-0.00280697
0.0189678
-0.00213878
0.0191301
-0.00157357
0.0193278
-0.00107691
0.0195688
-0.000627592
0.0198613
-0.000207173
0.0201806
0.000186667
0.0204468
0.000535536
0.0204742
0.000801001
0.0199567
0.000940224
0.0185845
0.000943866
0.0162365
0.000820202
0.0130985
0.000599851
0.00958731
0.00349275
-3.42772e-05
-3.90585e-05
-0.000933252
0.000908448
-1.82276e-05
-1.72648e-05
-0.000280931
0.000255633
1.22177e-05
-0.000286233
-1.84562e-06
-0.000289901
-2.39457e-06
-1.53069e-06
-0.000167326
0.000163181
-1.78886e-06
-0.000170927
-1.2494e-06
-0.000172772
-6.9969e-07
1.77889e-07
-4.8625e-05
4.75868e-05
-4.805e-05
-4.35994e-05
0.000322312
-0.000139578
0.00618451
-0.0112614
0.0104681
-0.013755
0.0110362
-0.0190752
0.0126851
-0.0293879
0.0159412
-0.0191334
0.0165348
-0.0120196
0.0169715
-0.00831422
0.0175216
-0.00620645
0.018069
-0.00483433
0.0185256
-0.00385329
0.0188605
-0.00308871
0.0190984
-0.00245211
0.019281
-0.00189805
0.0194543
-0.00140291
0.0196538
-0.00094985
0.0198907
-0.000523618
0.0201777
-0.000117828
0.0204849
0.000265013
0.0207174
0.000602927
0.0206721
0.000855817
0.0200412
0.000987073
0.0185412
0.000973774
0.0160831
0.000821866
0.0128765
0.000561667
0.00934812
0.00339338
-1.04842e-05
-2.96252e-05
-0.000882003
0.000863224
-1.54551e-05
-1.25941e-05
-0.000411448
0.000395452
-1.14398e-06
-1.04508e-06
-0.000172881
-5.79861e-08
-1.15765e-07
-0.000158427
-2.21211e-06
-0.000159818
-4.33534e-07
-0.00016165
-5.47762e-07
1.1159e-08
-4.58151e-05
4.40276e-05
-4.70648e-05
-4.77647e-05
0.000258785
-4.55951e-05
0.00597144
-0.0115802
0.0102755
-0.0141591
0.0108723
-0.0201119
0.0120726
-0.0313258
0.0146229
-0.0175946
0.0144023
-0.010352
0.0148671
-0.0071499
0.0158071
-0.00553898
0.016854
-0.00454794
0.0177826
-0.00382561
0.0184976
-0.00322575
0.0189975
-0.00268651
0.0193325
-0.00218532
0.0195682
-0.00171609
0.0197671
-0.00126976
0.0199737
-0.00084397
0.0202108
-0.000433134
0.020493
-3.4334e-05
0.020784
0.000342272
0.0209781
0.000671094
0.0208566
0.000913615
0.0201148
0.00103036
0.0184846
0.000993919
0.0159112
0.000808124
0.01263
0.000528477
0.00907862
0.00328104
5.42577e-05
1.25667e-05
-0.000842778
0.000839287
-6.9563e-06
-9.16267e-06
-0.000383788
0.000370415
-1.04754e-06
-1.00973e-06
-5.30244e-07
-3.87416e-07
-3.96359e-05
3.84943e-05
-4.06799e-05
4.07957e-05
-4.08502e-05
-4.30601e-05
-4.34922e-05
-4.40387e-05
0.000259016
-3.39688e-05
0.00574645
-0.011755
0.0100351
-0.01421
0.00524406
0.00508189
-0.00928656
0.00578093
0.00544478
-0.0111789
-0.016204
0.00642622
-0.0148493
0.00537398
-0.00879222
0.0103528
-0.00453239
-0.00702457
0.0110747
-0.00494228
0.0126593
-0.00416105
0.014429
-0.00375551
0.0160614
-0.00344118
0.0173981
-0.00312312
0.0183948
-0.0027709
0.0190818
-0.0023884
0.0195353
-0.00198695
0.019839
-0.00157448
0.0200715
-0.00116187
0.0202915
-0.000752814
0.0205303
-0.000348973
0.0208077
4.47401e-05
0.0210814
0.0004163
0.021233
0.00073874
0.0210314
0.00097356
0.0201718
0.00107166
0.0184068
0.00100698
0.0157126
0.000802361
0.012356
0.000537963
0.00879981
0.00314897
3.39592e-05
6.42107e-05
-0.00083697
0.000840857
5.04141e-05
1.49091e-05
-0.000362063
0.000356902
-7.90879e-07
-9.82362e-07
-5.01278e-07
-2.99405e-07
-3.65682e-05
3.55222e-05
-3.75773e-05
3.79647e-05
0.000330004
-0.000135021
0.00555136
-0.0118045
0.00986419
-0.0138271
0.00496514
0.00468725
-0.00901653
0.00497387
-0.00875319
0.00481873
-0.0166508
0.00622773
-0.0165784
0.00253798
0.00283443
-0.0105497
0.00434469
-0.00724225
0.00487625
-0.00817242
0.00225677
0.00266615
-0.00537208
-0.00311298
-0.00145487
0.00113874
0.00156087
-0.00148731
0.00583383
-0.00101847
-0.00128475
0.00256163
-0.000933018
-0.00212922
0.00826147
-0.00230143
0.0107995
-0.00253032
0.0132037
-0.00267795
0.0152979
-0.00271013
0.016985
-0.00262447
0.0182481
-0.0024369
0.0191301
-0.00216377
0.0197118
-0.00182882
0.0200932
-0.00145774
0.0203671
-0.00106674
0.0206054
-0.000669466
0.0208505
-0.000269905
0.0211224
0.000121834
0.0213757
0.000492756
0.0214792
0.000812584
0.0211924
0.00103419
0.0202095
0.0011097
0.0183041
0.00102692
0.0154882
0.000825057
0.0120688
0.000591554
0.00853838
0.00304792
-3.61334e-05
2.15068e-06
-0.00083609
0.000838609
3.14693e-05
6.90153e-05
-0.000369617
0.000393327
1.97022e-05
7.02859e-06
-4.32093e-08
2.25093e-06
-3.37403e-05
3.2951e-05
-3.47221e-05
3.50215e-05
0.000405151
-0.000211468
0.0053574
-0.0118318
0.00989164
-0.0129822
0.00455588
0.00446288
-0.00854604
0.00475779
-0.00801985
0.00416132
-0.0103144
0.00238871
0.00219447
-0.00700056
0.00108863
0.00177347
-0.00809529
0.00768278
-0.00817213
0.00302731
0.00234479
-0.00266615
0.00180996
-0.00302731
0.000355094
0.000807932
-0.000235536
0.000566381
0.00108406
0.00151768
-0.000443456
-1.82898e-05
0.00368821
3.45038e-05
0.000857553
-0.000358415
-0.000412676
0.000563721
-0.00064927
0.00660912
-0.00122831
0.00949727
-0.00169239
0.012218
-0.00202431
0.0146118
-0.00221909
0.0165794
-0.00226999
0.0180809
-0.00218558
0.0191517
-0.00198589
0.0198686
-0.00169959
0.0203349
-0.00135614
0.0206563
-0.000980857
0.0209167
-0.000587908
0.0211683
-0.000188523
0.0214329
0.000204206
0.0216642
0.000574512
0.0217175
0.000888538
0.021338
0.00109582
0.0202236
0.00115731
0.0181736
0.00106675
0.0152467
0.000873555
0.0117867
0.000657827
0.00828572
0.00292291
-5.12842e-05
-3.52541e-05
-0.000838229
0.000820044
-1.79524e-05
2.54829e-06
-0.000409544
0.00043039
3.6061e-07
1.02758e-05
2.89484e-05
2.38782e-05
-4.21891e-05
6.18966e-05
-3.51595e-05
3.29086e-05
0.000451232
-0.000243375
0.00514912
-0.0118826
0.00999261
-0.0121004
0.0044494
0.00456068
-0.00745794
0.0039937
-0.00678692
0.00379201
-0.00998141
0.00238018
0.00204474
-0.00887879
0.00141046
0.00164806
0.00663406
-0.0063654
0.00212001
0.00182796
0.00639866
-0.00530997
-0.00720956
0.000942152
0.000119558
0.000267441
-0.000113734
0.000376775
-6.12549e-06
1.69982e-05
0.000704786
0.000134395
1.07244e-05
0.00302797
0.000622789
0.000116421
0.000105342
-5.86049e-05
-2.84188e-05
-0.000348981
0.00572953
-0.000805347
0.00860998
-0.00124515
0.0114386
-0.00162346
0.0140159
-0.0018877
0.0161969
-0.00201386
0.0179089
-0.0019926
0.0191582
-0.001841
0.0200097
-0.00158845
0.0205671
-0.00126416
0.0209393
-0.00089524
0.0212242
-0.000506231
0.0214859
-0.000106403
0.0217438
0.000289665
0.0219489
0.000661444
0.0219448
0.000969683
0.021464
0.0011676
0.0202134
0.00121672
0.0180235
0.00112137
0.014999
0.000933189
0.0115111
0.000708408
0.00802852
0.00277466
-5.16908e-05
-4.35806e-05
-0.000801374
0.000774538
-2.44825e-05
-1.65836e-05
-0.000434181
0.000423158
-4.24754e-06
-2.69115e-06
9.21977e-07
-2.1493e-06
-9.84109e-05
9.90459e-05
-2.68926e-07
-9.02664e-05
2.13548e-06
7.44573e-05
1.63987e-05
8.0768e-06
0.000470098
-0.000252124
0.00493088
-0.0119083
0.010004
-0.0112093
0.00910121
-0.00613132
0.0037937
-0.00541156
0.00384113
-0.00750931
0.00132964
0.00129476
-0.00620002
0.00122641
0.00125639
-0.00630256
0.00231733
-0.00600012
0.00174226
0.00539883
-0.00475433
0.000765957
0.00104677
-0.00677053
0.00168103
-0.00436781
5.82308e-06
-3.04207e-07
1.66915e-05
0.000173641
2.28888e-05
4.31602e-05
-0.000266072
2.42642e-05
0.000848232
2.69109e-05
-5.25445e-05
0.00273122
4.11152e-07
2.35367e-05
2.84946e-06
-3.84773e-05
-2.29889e-05
-8.89179e-06
-0.000272996
0.00519693
-0.0006094
0.00797391
-0.00100131
0.0108162
-0.00137257
0.0135005
-0.00166112
0.0158439
-0.00182096
0.0177369
-0.00183705
0.0191541
-0.00171762
0.0201386
-0.00148604
0.020789
-0.00117571
0.0212197
-0.000813155
0.0215313
-0.000420953
0.0218003
-1.83542e-05
0.022052
0.000382139
0.0222281
0.00075546
0.0221593
0.00105825
0.0215732
0.00124585
0.0201845
0.00128382
0.0178609
0.0011847
0.0147476
0.000987211
0.0112321
0.000735392
0.00776325
0.00261803
-5.00476e-05
-4.54118e-05
-0.000749596
0.000722106
-2.42628e-05
-1.86686e-05
-0.000410554
0.000393252
-4.01287e-06
-3.19319e-06
-1.51931e-06
-2.45185e-06
-9.6207e-05
9.3206e-05
-1.24847e-06
-9.81962e-05
-7.05791e-07
9.98155e-05
1.60142e-07
-5.27614e-07
-2.66123e-05
2.63446e-05
-2.4476e-05
1.63992e-05
0.000469473
-0.00024926
0.00471076
-0.0119403
0.0100238
-0.0104039
0.00919887
0.00359522
-0.00613959
0.00297257
0.00326137
-0.00473607
0.00116517
0.00116473
0.00143016
0.00127012
-0.00412859
0.000703933
-0.00350912
0.000675286
0.00289327
-0.00227507
0.0006083
0.00064053
-0.00713996
0.00268675
-0.00539779
0.00435102
-0.00358505
-0.00268675
-2.59109e-05
1.03055e-05
9.00454e-06
8.22721e-06
4.56151e-05
-2.47028e-05
-1.56916e-06
2.30852e-06
2.56399e-06
1.03503e-05
0.000807116
-2.19832e-05
7.00166e-05
2.51783e-07
2.20566e-06
-6.48898e-05
0.00252281
-2.48178e-05
5.10232e-07
7.70636e-06
8.89179e-06
-3.1882e-05
-0.000231649
0.00481885
-0.000515588
0.00748784
-0.000864268
0.0103076
-0.00121456
0.0130536
-0.00149928
0.0155219
-0.00167222
0.0175718
-0.00170743
0.0191438
-0.00160601
0.0202584
-0.0013896
0.021003
-0.00108465
0.021491
-0.000723576
0.0218341
-0.00033084
0.0221127
7.95969e-05
0.0223548
0.000483535
0.0224999
0.000855354
0.0223623
0.00115481
0.0216641
0.00133164
0.0201368
0.00135984
0.0176856
0.00124579
0.014489
0.00102389
0.0109434
0.000740717
0.00749201
0.00246204
-4.77183e-05
-4.54615e-05
-0.000695388
0.000668892
-2.35369e-05
-1.87018e-05
-0.000378326
0.000360767
-3.67806e-06
-3.07469e-06
-1.5999e-06
-2.15421e-06
-8.74427e-05
8.46009e-05
-1.17812e-06
-8.99197e-05
-7.22787e-07
9.18162e-05
-1.25277e-07
-5.55576e-07
-2.5272e-05
2.40234e-05
-2.59774e-05
2.6505e-05
0.000452305
-0.000237346
0.00449548
-0.0119938
0.0100548
-0.00977682
0.00939655
-0.00457468
0.00763427
0.00258705
-3.36554e-05
-0.00114696
0.000849679
0.000716787
0.00336885
0.00247967
-0.00167813
0.000568266
-0.00105717
0.000543799
0.000496394
0.000900154
0.000709356
-0.0028811
-0.00220584
0.00156531
-0.00095696
-2.15776e-05
-1.33522e-05
2.35452e-06
-3.42475e-06
-4.42015e-06
6.72707e-06
-1.85712e-06
7.77984e-05
3.35452e-06
-8.54385e-07
1.72478e-06
0.000766657
-2.63694e-05
7.33184e-05
-6.63736e-06
-1.09238e-05
-1.60801e-06
2.49494e-06
-1.91361e-06
-6.84879e-05
0.00235929
-3.30185e-06
-0.000223298
0.00452617
-0.000474025
0.0070972
-0.000787825
0.00988045
-0.00110711
0.0126611
-0.0013787
0.0152281
-0.00155104
0.0174152
-0.00159426
0.019132
-0.00150427
0.0203729
-0.0012935
0.021212
-0.000993124
0.0217604
-0.000630642
0.0221341
-0.000230688
0.0224228
0.00018311
0.0226553
0.000592842
0.0227622
0.000967224
0.02255
0.00125775
0.0217378
0.00142459
0.0200721
0.00143482
0.0174964
0.00129455
0.0142185
0.00103911
0.010645
0.000726003
0.00721823
0.00231321
-4.42441e-05
-4.43948e-05
-0.000641873
0.000616864
-2.26526e-05
-1.83822e-05
-0.000345695
0.000328639
-3.48127e-06
-2.99515e-06
-1.6095e-06
-2.01621e-06
-7.90042e-05
7.63984e-05
-1.08642e-06
-8.14218e-05
-6.74259e-07
8.30957e-05
-9.87241e-08
-4.87931e-07
-2.26197e-05
2.14404e-05
-2.33426e-05
2.38981e-05
0.000420855
-0.000214161
0.00428851
-0.0120758
0.01009
-0.00932279
0.00960099
-0.0038793
0.00870096
-0.00315924
0.00725526
0.00309408
0.0038132
-0.000864696
0.000618058
-0.00133486
0.00218455
-0.000618058
0.000876687
0.000628307
-0.000388578
0.00015534
3.30185e-06
5.15924e-06
6.69109e-07
5.13698e-06
-8.51905e-07
7.26434e-05
3.9439e-06
-1.60047e-06
-3.48224e-06
0.000729439
-2.80638e-05
7.31074e-05
-2.69205e-05
2.04104e-06
-3.55618e-06
-1.16875e-06
-7.73988e-06
-1.9143e-06
-9.07361e-05
0.00222629
-0.000233918
0.00428561
-0.000459791
0.00676875
-0.000737921
0.00951087
-0.00103199
0.012314
-0.00128561
0.0149625
-0.00144956
0.0172704
-0.00149199
0.0191198
-0.00140431
0.0204836
-0.0011972
0.0214162
-0.000895394
0.022025
-0.000529167
0.0224327
-0.000124788
0.0227305
0.000296296
0.022952
0.000709057
0.0230202
0.0010822
0.0227257
0.00136785
0.0217944
0.0015169
0.0199901
0.00150208
0.0172887
0.00132731
0.0139303
0.00103599
0.0103349
0.000696539
0.00694237
0.00217856
-3.79414e-05
-4.17482e-05
-0.000590189
0.000567269
-2.13907e-05
-1.77472e-05
-0.000313848
0.000297469
-3.32114e-06
-2.91087e-06
-1.61219e-06
-1.93583e-06
-7.09832e-05
6.85326e-05
-1.0278e-06
-7.3333e-05
-6.49507e-07
7.48897e-05
-9.93556e-08
-4.60002e-07
-2.01773e-05
1.9089e-05
-2.08527e-05
2.13406e-05
0.000376316
-0.000174858
0.00408647
-0.0121841
0.0101216
-0.00901897
0.009786
-0.00361223
0.00933408
0.0064406
0.00951584
0.00176636
-0.00051298
0.00222107
-0.000380297
0.00210426
0.00347552
-0.000371173
0.00073492
0.000257134
-1.24611e-06
-2.09869e-06
-6.57862e-07
3.39719e-06
-7.58407e-07
-1.52189e-06
7.00024e-05
-4.84925e-07
-1.49319e-05
0.000689505
-3.6175e-05
6.61492e-05
-2.43139e-05
7.0401e-06
-2.89929e-05
-3.70144e-06
-2.07495e-06
-5.65665e-06
-1.34006e-05
-0.000119868
0.00211178
-0.000253728
0.0040791
-0.000453438
0.00648383
-0.000708664
0.00918725
-0.000975446
0.0120037
-0.00120757
0.0147204
-0.00135903
0.0171372
-0.00139612
0.0191116
-0.00130498
0.0205912
-0.00109514
0.021616
-0.000792155
0.0222878
-0.000419699
0.0227277
-9.09799e-06
0.0230357
0.000418631
0.0232425
0.000835908
0.0232663
0.00120526
0.0228883
0.00147891
0.0218323
0.00160662
0.0198857
0.00155741
0.0170585
0.00134374
0.0136225
0.00101876
0.0100125
0.00065791
0.00666058
0.00206135
-2.3467e-05
-3.44427e-05
-0.000542088
0.000523171
-1.91177e-05
-1.65869e-05
-0.000283132
0.000267623
-3.11514e-06
-2.80981e-06
-1.57807e-06
-1.84636e-06
-6.33007e-05
6.09715e-05
-9.78957e-07
-6.55662e-05
-6.2551e-07
6.70433e-05
-1.04221e-07
-4.4228e-07
-1.78799e-05
1.68535e-05
-1.85295e-05
1.89895e-05
0.00033607
-0.000126945
0.00387711
-0.01232
0.0101519
-0.0088354
0.00993827
-0.00355692
0.00973053
0.00516236
0.0106124
-0.00150752
0.00448471
0.00864335
0.000980598
0.00165336
-0.000176716
-0.000235793
-0.000134405
0.000489058
0.00294861
0.000122731
-7.23569e-06
-2.78998e-06
-1.73181e-06
-2.45211e-05
-3.32448e-06
-1.69421e-06
6.0591e-05
-9.48381e-06
-2.40625e-05
0.000654975
-6.16296e-05
5.36284e-05
-2.93348e-05
-3.49049e-05
-7.24311e-06
-6.74978e-06
6.59831e-06
-1.0303e-05
4.5224e-06
-0.000149831
0.00200734
-0.000266474
0.00389162
-0.00045637
0.00623122
-0.000688294
0.00889989
-0.000931286
0.0117272
-0.00114218
0.0145035
-0.00127683
0.0170177
-0.00130345
0.0191101
-0.00120598
0.0207018
-0.000990513
0.0218145
-0.000679492
0.0225473
-0.000300723
0.0230194
0.000116652
0.0233375
0.000548157
0.0235303
0.000967443
0.023504
0.00133328
0.023034
0.00159123
0.0218475
0.00168965
0.0197535
0.00160183
0.0168004
0.00134885
0.0132924
0.000995682
0.00967459
0.00062878
0.00636763
0.00194504
2.4923e-06
-1.3341e-05
-0.000502159
0.000491247
-1.27105e-05
-1.35317e-05
-0.000254282
0.000240636
-2.84203e-06
-2.69077e-06
-1.55551e-06
-1.70024e-06
-5.58571e-05
5.36552e-05
-9.28502e-07
-5.80737e-05
-6.06775e-07
5.94956e-05
-1.06674e-07
-4.3147e-07
-1.56866e-05
1.47095e-05
-1.63095e-05
1.67518e-05
0.000333171
-0.000122367
0.00366561
-0.0124768
0.010175
-0.00874356
0.01006
-0.00361956
0.010001
0.00386287
0.0110301
0.00443003
0.0106674
-0.000910121
0.00274558
0.0074069
-0.000598748
0.000453029
-5.36215e-05
0.00127087
-1.66802e-05
-0.000376041
0.000199335
-0.000122731
0.00249153
-2.79059e-06
-1.36306e-05
-1.15623e-05
-3.77983e-06
-3.97856e-05
-9.7564e-07
-3.69417e-06
4.37307e-05
-1.42895e-05
-0.000112761
0.000617395
1.87673e-05
-3.68205e-05
-4.82544e-05
-1.07981e-05
-1.01371e-05
1.53694e-05
-2.00499e-05
-2.58621e-06
-2.95991e-06
-0.000160941
0.0019013
-0.000286233
0.00372118
-0.000460114
0.00600281
-0.000673971
0.00864238
-0.000894333
0.0114791
-0.00108185
0.0143085
-0.00119955
0.0169136
-0.00120968
0.0191138
-0.00110184
0.0208129
-0.000878103
0.0220131
-0.000559474
0.0228059
-0.000175297
0.0233114
0.000248625
0.0236368
0.000686061
0.0238117
0.00110531
0.0237318
0.00146313
0.0231622
0.00170031
0.0218368
0.00176431
0.019591
0.00163559
0.0165135
0.00134863
0.0129393
0.000980804
0.00932242
0.000627388
0.0060732
0.00182463
-8.31337e-06
6.06384e-06
-0.000478532
0.000470825
1.00852e-05
-6.48062e-07
-0.000229935
0.000221641
-2.05431e-06
-2.46659e-06
-1.488e-06
-1.40703e-06
-4.87823e-05
4.67826e-05
-8.66253e-07
-5.09049e-05
-5.77194e-07
5.2203e-05
-1.08116e-07
-4.05666e-07
-1.35624e-05
1.26314e-05
-1.41703e-05
1.46017e-05
0.000368652
-0.000170751
0.00346766
-0.0126515
0.0101927
-0.00871451
0.0101462
-0.00374806
0.0101884
0.00269665
0.0111672
0.00389514
0.0115653
0.00327209
0.0101411
0.0016089
0.00633312
-0.000237471
-0.000297565
-0.000244711
0.00213759
0.000145715
0.001047
-8.88525e-06
-1.19034e-05
0.000129036
-3.78053e-06
-2.12186e-05
1.7064e-07
-2.23836e-05
-2.55272e-06
-5.0538e-05
-5.3724e-06
-6.70888e-06
5.56031e-05
-1.42408e-05
-0.000108782
-2.69716e-05
-0.000103649
0.000559525
-3.1866e-05
2.53418e-05
-2.86762e-05
-7.49705e-06
-7.20265e-06
6.74044e-06
-9.32886e-06
-0.00018349
0.00179815
-0.000299839
0.00356058
-0.000466864
0.00579543
-0.000661522
0.00840935
-0.000859655
0.0112567
-0.00102653
0.0141353
-0.00112191
0.0168256
-0.00111675
0.0191286
-0.00099548
0.0209301
-0.000761142
0.0222147
-0.000433973
0.0230644
-4.11103e-05
0.023601
0.000389933
0.0239328
0.000831137
0.0240859
0.00124885
0.023946
0.00159374
0.0232688
0.00180412
0.0217969
0.00183131
0.0193953
0.00166569
0.0161963
0.00135387
0.0125661
0.000984858
0.0089648
0.000652731
0.00578888
0.00171326
-3.93543e-05
-2.01458e-05
-0.000458886
0.000448691
1.67982e-06
1.78686e-05
-0.00022011
0.000220401
6.92083e-06
2.79954e-06
-5.76469e-07
1.44854e-06
-4.23523e-05
4.10183e-05
-7.54684e-07
-4.43131e-05
-5.41112e-07
4.53733e-05
-1.08468e-07
-3.708e-07
-1.15393e-05
1.06681e-05
-1.21171e-05
1.25227e-05
0.000407081
-0.000209492
0.0032694
-0.0128355
0.0102023
-0.00872012
0.0101983
-0.0039062
0.0103044
0.00170252
0.0111826
0.00319834
0.0118642
0.00321443
0.0116228
0.00238552
0.00936462
0.00115805
0.00575646
-0.000304284
-0.000276901
-0.00193039
0.00177144