/*--------------------------------*- C++ -*----------------------------------*\
| =========                 |                                                 |
| \\      /  F ield         | OpenFOAM: The Open Source CFD Toolbox           |
|  \\    /   O peration     | Version:  v1912                                 |
|   \\  /    A nd           | Website:  www.openfoam.com                      |
|    \\/     M anipulation  |                                                 |
\*---------------------------------------------------------------------------*/
FoamFile
{
    version     2.0;
    format      ascii;
    class       surfaceScalarField;
    location    "270";
    object      phi;
}
// * * * * * * * * * * * * * * * * * * * * * * * * * * * * * * * * * * * * * //

dimensions      [0 3 -1 0 0 0 0];
oriented        oriented;


internalField   nonuniform List<scalar> 
7352
(
0.00711958
0.00289242
0.0107431
0.00638848
0.00176668
0.00112574
0.0123514
0.00840369
0.00424323
0.00391193
0.000165492
0.000960242
0.012913
0.00945138
0.00623438
0.00641254
0.000978226
0.00309919
-0.000116489
0.00107672
0.0129914
0.00993561
0.00747397
0.00821179
0.00205461
0.00533614
-0.000143961
0.00312665
-5.34643e-05
0.00113017
0.0128755
0.010132
0.00810161
0.00930797
0.00296744
0.00729896
3.71313e-05
0.00515503
-0.00017701
0.00325018
-1.0399e-05
0.00114056
0.0126948
0.0101986
0.00834579
0.0098878
0.00353002
0.00874537
0.000278858
0.00705723
-0.000277348
0.00525536
-7.78361e-05
0.00331762
-1.99142e-05
0.00116047
0.0125018
0.010211
0.00839358
0.0101509
0.00376146
0.00965636
0.000395961
0.00862826
-0.000335626
0.0071155
-0.000187612
0.00536512
-8.14762e-05
0.00337917
-1.57241e-05
0.00117618
0.0123175
0.0102023
0.00836251
0.0102421
0.00375792
0.0101544
0.000289306
0.00976301
-0.000428826
0.00872145
-0.000311997
0.00723988
-0.0001872
0.00547084
-6.92578e-05
0.0034327
-5.59678e-06
0.00118178
0.0121502
0.0101853
0.00832185
0.010243
0.0036168
0.0103832
-4.78602e-05
0.0104915
-0.00063251
0.00996669
-0.000463252
0.00887269
-0.000330791
0.00738347
-0.00016634
0.00556792
-4.2271e-05
0.00346937
-2.61684e-06
0.00118439
0.0120038
0.0101624
0.00831378
0.0101934
0.00340817
0.0104516
-0.000591962
0.0109273
-0.000980349
0.0108394
-0.000683285
0.0101867
-0.000514199
0.00905609
-0.000308942
0.00752606
-0.000121712
0.00564736
-2.91635e-05
0.00349592
-2.16885e-06
0.00118656
0.0118851
0.0101317
0.00836667
0.0101095
0.00318041
0.0104211
-0.00131802
0.0111776
-0.00146128
0.0114083
-0.000999546
0.0111556
-0.000753411
0.0104259
-0.000495702
0.00924284
-0.000248988
0.00765334
-9.41737e-05
0.00571236
-2.43495e-05
0.0035181
-1.45596e-06
0.00118802
0.0117941
0.010099
0.00850971
0.00998866
0.00297231
0.0103176
-0.00221795
0.0113211
-0.00205676
0.0117731
-0.00141434
0.0118231
-0.00106493
0.0114671
-0.000733998
0.0106642
-0.000425754
0.00941961
-0.000206363
0.00776552
-7.98073e-05
0.00576782
-2.04023e-05
0.00353705
-1.73882e-06
0.00118976
0.0117332
0.0100619
0.00877352
0.00983514
0.0028167
0.0101443
-0.00329827
0.0113979
-0.00274328
0.0120076
-0.0019058
0.0122645
-0.00144672
0.0122049
-0.00102836
0.0117615
-0.00065424
0.0108927
-0.000370527
0.00958377
-0.000180305
0.00786602
-6.99872e-05
0.00581741
-1.95543e-05
0.00355487
-1.91257e-06
0.00119168
0.0116967
0.0100285
0.00918925
0.00964619
0.00276379
0.00988804
-0.00456146
0.0114075
-0.00348602
0.0121406
-0.00244301
0.0125448
-0.00187577
0.0126936
-0.00137042
0.0125469
-0.000932089
0.0120393
-0.000584699
0.0111069
-0.000330309
0.00973377
-0.000160068
0.00795611
-6.56044e-05
0.00586346
-1.9082e-05
0.00357205
-1.64388e-06
0.00119332
0.0116685
0.0100062
0.00978319
0.00943452
0.00290723
0.00950274
-0.0059654
0.011292
-0.00421323
0.0121347
-0.00296753
0.0126652
-0.00229995
0.012969
-0.00172895
0.0130521
-0.00124385
0.0128587
-0.000843792
0.0122984
-0.000529417
0.011306
-0.000296958
0.00987066
-0.000149701
0.00804021
-6.19874e-05
0.00590637
-1.73091e-05
0.00358771
-2.07791e-06
0.0011954
0.0116169
0.0099936
0.0105651
0.00922431
0.00346948
0.00887225
-0.0073444
0.0108818
-0.00476185
0.0118406
-0.0033579
0.012525
-0.00263324
0.0129984
-0.00204604
0.0132861
-0.00155466
0.0133629
-0.0011279
0.0131428
-0.000765464
0.0125345
-0.000478284
0.0114873
-0.000277349
0.00999832
-0.000141034
0.00811926
-5.81175e-05
0.00594718
-1.77608e-05
0.0036034
-2.91306e-06
0.00119831
0.0115927
0.00988822
0.0114352
0.00912346
0.0049037
0.00779009
-0.00823349
0.00976133
-0.00479403
0.0109139
-0.0034024
0.0118851
-0.00273403
0.0126258
-0.0022269
0.0131793
-0.00180224
0.0135336
-0.00139772
0.0136327
-0.00101828
0.0133956
-0.000693428
0.0127496
-0.000446108
0.0116561
-0.000260944
0.0101182
-0.000130957
0.0081921
-5.57287e-05
0.00598515
-1.93123e-05
0.0036198
-3.74963e-06
0.00120206
0.0115538
0.00985392
0.0123125
0.00456766
0.0044433
0.00481873
0.00330326
0.00304538
0.00285979
-0.00417368
0.00393011
-0.00338696
0.00318713
-0.00222611
0.00881104
-0.00161763
-0.00283569
0.0103472
-0.00242516
0.0115762
-0.00215906
0.012558
-0.00190097
0.013278
-0.00159116
0.0137271
-0.00124726
0.0138617
-0.000914256
0.0136164
-0.000643155
0.0129467
-0.00041769
0.0118128
-0.0002404
0.0102277
-0.000124189
0.00826056
-5.69613e-05
0.0060228
-2.12368e-05
0.00363728
-4.21266e-06
0.00120628
0.0113948
0.010019
0.0131787
0.00445303
0.00453465
0.00553371
0.00385268
0.006192
0.003785
-0.00344827
0.00257784
-0.000508344
-0.00155827
0.000766251
0.000897479
0.00396263
0.00145705
0.00129278
-0.00185929
0.0035633
-0.00237501
0.0009109
0.000654993
-0.000540476
0.00227035
-0.000402037
-0.000940678
0.00751583
-0.000599812
-0.0010376
0.00298327
-0.00161466
0.00953672
-0.00177286
0.01119
-0.00177026
0.0124272
-0.00163481
0.0133217
-0.00139471
0.0138745
-0.00110222
0.0140497
-0.000842313
0.0138156
-0.000597781
0.0131267
-0.000383621
0.0119561
-0.000225891
0.0103294
-0.000122133
0.00832574
-5.89878e-05
0.00606055
-2.24603e-05
0.00365553
-4.4154e-06
0.00121069
0.0110947
0.0102571
0.013607
0.0046621
0.0049286
0.00686653
0.00377851
0.0074371
0.00396408
0.00541485
0.00115938
0.00117341
0.000945106
3.59836e-06
-0.00132445
0.000711285
0.00147753
-0.000711285
0.000539749
0.000756634
-0.000388995
0.000759419
0.000265998
-0.000180098
0.00165846
-0.000245606
-0.000141201
0.000498582
0.0025054
-0.00046281
-0.0002888
0.00641767
-0.000227702
0.00214787
-0.000242286
-0.00115518
0.00891903
-0.00139856
0.0108183
-0.00147941
0.0122718
-0.00140915
0.0133361
-0.00120881
0.0139811
-0.00100535
0.0142127
-0.000776905
0.0139947
-0.00054666
0.0132898
-0.000357469
0.0120876
-0.000217654
0.0104249
-0.000122258
0.00838901
-5.98404e-05
0.00609793
-2.27574e-05
0.00367387
-4.73339e-06
0.00121542
0.0106869
0.0104498
0.0136082
0.00504758
0.00520833
0.00797582
0.00412338
0.00821096
0.00469346
0.00673196
0.0012158
0.0012456
0.00809341
0.00131774
0.00128489
-0.00115607
0.00175438
0.000561063
0.000557086
-0.000567814
0.000124797
-0.000377773
0.000197675
0.00126576
-5.38883e-05
-1.62262e-05
-0.000124797
0.00194345
-8.43825e-05
-0.000273902
0.00584065
-0.000304258
0.00178869
-2.75678e-05
-4.53687e-05
0.00104374
-8.60716e-06
-1.16557e-05
-0.000894449
0.00841491
-0.00112559
0.0104645
-0.0012621
0.0121248
-0.00119096
0.0133183
-0.00108696
0.0140627
-0.000918956
0.0143548
-0.000705048
0.0141531
-0.000504831
0.0134372
-0.000339284
0.0122093
-0.000213439
0.0105161
-0.000121555
0.00845072
-5.95537e-05
0.00613472
-2.32268e-05
0.00369237
-4.96948e-06
0.00122039
0.0102497
0.0105052
0.0132577
0.0108003
0.00849244
0.0047661
0.00877881
0.00492195
0.00921691
0.00139189
0.00160798
0.00961351
0.00231219
0.00198467
0.00237284
0.000597337
0.00298688
0.000631558
-0.00360524
0.00422628
0.000696707
0.000666531
1.07274e-05
0.000550337
0.000143787
0.000127561
0.000557112
-3.59203e-06
-8.48316e-07
0.000406685
0.00165501
-5.56112e-05
-8.46109e-05
-0.000279934
0.00537539
-0.000149255
0.00157122
-0.000112706
-0.000107767
0.000588942
-5.93981e-05
0.000564116
-2.05432e-05
-0.000115905
0.000107298
-0.00064566
0.00793498
-0.00098573
0.0101881
-0.00104599
0.0119798
-0.00105639
0.0132877
-0.000984684
0.0141285
-0.000824352
0.0144741
-0.000645871
0.0142942
-0.000474134
0.013572
-0.000327572
0.0123234
-0.000208354
0.0106029
-0.000119519
0.00851069
-5.96326e-05
0.00617112
-2.33781e-05
0.00371078
-5.40966e-06
0.0012258
0.00980246
0.0105072
0.012795
0.0109679
-0.0105493
0.0190968
0.00534487
0.0056867
0.0098945
0.00233164
0.00215348
0.00426715
0.00486488
0.000753283
0.00546623
0.00100663
-0.00579505
0.00589188
0.00221536
0.00165585
0.00114768
0.00177924
-0.00244577
0.00314248
0.000103706
0.000102858
0.000348858
-1.5717e-06
0.00053371
-2.52054e-05
0.000492664
-4.35658e-05
0.0014623
-0.000114164
-5.68496e-05
-8.80899e-05
0.00489076
-7.29434e-05
0.00135845
-3.10088e-05
-1.4396e-05
0.000458071
-7.81128e-05
0.000429383
-7.90802e-05
0.000332054
-3.73937e-06
-0.000637741
0.00758699
-0.000817885
0.00996001
-0.000906208
0.0118297
-0.000945648
0.0132487
-0.000874702
0.0141788
-0.000750434
0.0145786
-0.00059977
0.0144198
-0.000452959
0.0136974
-0.000316845
0.0124319
-0.000202139
0.0106855
-0.000116504
0.00856756
-5.91674e-05
0.00620691
-2.45476e-05
0.00372991
-5.4076e-06
0.0012312
0.00934101
0.0105044
0.0122306
0.0110716
0.0181767
0.0118881
0.0157816
-0.0156417
0.00274947
0.00245551
0.0153982
0.00607005
0.00617671
0.00204681
0.00654915
0.00178104
-0.00758706
0.00170854
0.00105317
0.00389576
0.00490239
-0.00655825
0.00626983
0.00250378
0.000101286
0.000311321
-4.47226e-06
0.000278424
-1.06699e-05
0.000387283
-7.20651e-05
0.000357385
-2.69528e-05
0.00128599
-1.01232e-05
-5.51205e-06
-8.89157e-05
0.0045139
-0.000171967
0.00122377
-4.64796e-06
-6.07407e-06
0.000335306
-8.92943e-06
0.000323935
-3.02536e-06
0.000228363
-2.80521e-05
0.000203635
-5.43522e-05
9.75466e-05
-0.000590302
0.00735942
-0.000664527
0.00971833
-0.000797806
0.0116818
-0.000833698
0.0132077
-0.000792804
0.0142212
-0.000690644
0.0146695
-0.000567215
0.014534
-0.000431738
0.0138123
-0.000303326
0.0125331
-0.000195899
0.0107649
-0.000114825
0.00862322
-6.0093e-05
0.00624246
-2.47125e-05
0.00374922
-5.24404e-06
0.00123645
0.00886758
0.0105044
0.0116093
0.0111257
0.0167422
0.0125061
-0.0142755
0.0300121
0.00525735
0.00629234
-0.00733716
0.00782543
0.0022612
-0.0077761
0.00289444
-0.00515564
0.00219438
0.00258126
0.00671835
0.0015983
0.00091232
-0.00606756
-0.00501439
0.00250378
9.30743e-05
8.24043e-05
0.000131569
0.000104617
0.000315454
-1.64215e-06
0.000311189
-1.24773e-06
0.0011519
-6.27243e-06
-1.07707e-05
-0.000210393
0.00432043
-0.00018643
0.00103413
-1.54115e-05
-3.87849e-05
0.000307656
-1.11431e-06
0.000302333
-7.5083e-07
9.56872e-05
9.26619e-05
5.43522e-05
-0.000378117
0.00707301
-0.00056119
0.00948171
-0.000702592
0.0115507
-0.000762679
0.0131775
-0.000723205
0.0142537
-0.000645258
0.0147475
-0.000536776
0.0146391
-0.000412677
0.0139216
-0.000291269
0.0126284
-0.000190201
0.0108403
-0.000114378
0.0086775
-6.02355e-05
0.00627798
-2.48535e-05
0.00376883
-5.32936e-06
0.00124178
0.00838815
0.0105034
0.0109464
0.0111673
0.0151218
0.0127461
0.028156
0.0143622
0.00701063
-0.00301189
-0.00140975
0.00154244
0.00112592
0.00849681
0.00480616
-0.00289444
-0.00258126
0.00176376
0.00410207
9.10197e-05
8.9772e-05
0.000297175
-1.11432e-06
0.000288393
-1.98902e-06
0.000962548
-6.76343e-05
-7.11799e-05
-7.3926e-05
0.00403696
-2.07226e-05
0.000866321
-6.72026e-05
-2.29998e-05
0.000276539
-3.55695e-06
0.000247026
-9.27174e-06
8.86577e-05
8.79069e-05
-0.000255364
0.00676718
-0.000499095
0.00927821
-0.000668411
0.0114564
-0.000688465
0.0131428
-0.000667321
0.0142758
-0.000607972
0.0148187
-0.000509358
0.0147358
-0.000391716
0.0140221
-0.000278979
0.0127172
-0.000185793
0.0109117
-0.000112902
0.00873017
-5.914e-05
0.00631226
-2.35904e-05
0.00378709
-5.09072e-06
0.00124686
0.00790738
0.0105008
0.0102512
0.0111986
0.0135701
0.012719
0.0252476
0.0156545
-0.00435006
0.0169224
0.0102867
0.000354009
-0.000781497
0.00123711
0.00108683
-0.000229471
0.000573895
-0.000895112
0.00258832
8.67925e-05
8.48035e-05
0.000203745
-2.4354e-05
0.000180186
-4.76209e-05
0.000800294
-6.84116e-06
-1.05586e-06
-1.389e-05
0.00213184
-3.94615e-06
0.00166758
0.000779949
-3.04494e-07
-7.18796e-08
0.000112984
8.99841e-05
8.12466e-05
7.19749e-05
-9.79182e-05
0.00653337
-0.00016736
-0.000541584
0.00915139
-0.000602058
0.01137
-0.000622797
0.0130983
-0.000622756
0.0142906
-0.000573728
0.0148831
-0.000481767
0.0148258
-0.000371799
0.0141149
-0.000269571
0.012801
-0.00018216
0.0109809
-0.000110421
0.00878145
-5.7404e-05
0.00634608
-2.29387e-05
0.00380493
-5.47496e-06
0.00125234
0.00743281
0.0104936
0.00952942
0.0112226
0.01218
0.0125887
0.0220576
0.0159089
0.0183642
0.0142128
-0.00143819
0.00678467
0.0059391
-0.000998913
0.000124539
-0.000392966
0.00058468
-0.000109917
0.000290846
0.00158071
-0.000430576
4.76209e-05
8.3143e-05
8.20872e-05
0.000766669
-5.63894e-07
-4.84656e-08
-0.000188733
0.00222266
0.000442596
0.000319503
1.2041e-07
5.02528e-07
-3.29877e-06
0.00149291
-1.0756e-05
8.17828e-05
8.17108e-05
-0.000183675
0.00640842
-0.000232958
-0.000114629
0.00216993
-0.000488782
0.00903811
-0.000514957
0.0112622
-0.0005703
0.0130458
-0.000589223
0.0143061
-0.000543224
0.0149446
-0.000452486
0.0149065
-0.000355968
0.0142013
-0.00026236
0.0128812
-0.000175255
0.0110458
-0.00010631
0.00883035
-5.55342e-05
0.00637867
-2.2017e-05
0.00382148
-4.91275e-06
0.00125725
0.00696552
0.0104843
0.00878676
0.0112362
0.0109502
0.0124524
0.0189833
0.0156629
0.0180163
0.0162568
0.00995282
0.0110446
0.00208666
0.00384395
2.99097e-05
-2.14185e-05
0.000930523
-0.000348725
1.46215e-05
0.000430498
-5.21064e-06
1.96626e-05
8.11469e-05
8.10984e-05
-3.58137e-05
0.000475111
0.000283214
4.74982e-07
8.12187e-05
8.17213e-05
-2.41605e-05
0.00141816
-1.57224e-05
-6.60708e-06
0.000470962
0.00211607
-0.000129815
-0.000209636
0.00630266
-0.000173391
0.00207467
-0.000191557
-0.00036107
0.00888423
-0.000451127
0.011143
-0.000544463
0.0130011
-0.000563784
0.0143267
-0.000507425
0.0149995
-0.000430658
0.0149812
-0.000341683
0.0142806
-0.000252568
0.0129585
-0.000170668
0.0111101
-0.000103536
0.00887836
-5.34601e-05
0.00641011
-2.18374e-05
0.0038384
-5.07352e-06
0.00126232
0.00650552
0.010476
0.00803541
0.0112356
0.00983885
0.0123475
0.0162288
0.0152069
0.0167152
0.016964
0.0115209
0.0146887
0.00479041
0.00834088
0.000653987
1.64474e-05
0.00317351
-0.00077619
0.000686511
0.000119588
0.000132915
0.00016111
-5.38511e-05
-2.54861e-05
9.41085e-06
2.90735e-05
0.000277922
-1.31499e-06
8.21962e-05
-0.000462451
0.00044833
-1.00391e-05
0.00134747
-1.99576e-05
-3.91648e-05
-7.21208e-06
0.00204449
-0.000179458
-0.00011687
0.00611994
-6.14723e-05
0.00199967
-0.000128567
0.0012992
-9.02967e-05
-5.29887e-05
-0.000277792
0.00871089
-0.000440949
0.0110395
-0.000540504
0.0129778
-0.00052484
0.0143441
-0.000476911
0.0150458
-0.000407349
0.0150469
-0.000326265
0.0143543
-0.000242738
0.0130306
-0.000166936
0.0111735
-9.94629e-05
0.00892436
-5.18107e-05
0.00644008
-2.15987e-05
0.00385492
-5.60076e-06
0.00126792
0.0060538
0.0104667
0.0072846
0.0112268
0.00880278
0.0122717
0.0138398
0.0147365
0.0150111
0.0169111
0.0118005
0.0166844
0.00688909
0.01259
0.00227197
0.00672289
-0.000317105
0.00095979
3.20478e-05
2.82258e-05
0.000362824
-4.87868e-05
0.00285946
-0.000225316
2.82236e-06
2.49776e-05
2.42609e-05
4.44482e-05
-9.46878e-06
-2.33693e-05
-2.10131e-05
-5.88134e-06
0.000272308
-1.59775e-06
8.08812e-05
0.000438198
-9.8252e-06
0.000264301
-2.03238e-06
0.000416042
-1.70084e-05
0.00127733
-7.88262e-05
-7.87618e-05
0.00194599
-6.31884e-05
-4.85657e-05
0.00592997
-3.92548e-05
0.0019139
-2.93852e-05
0.00121301
-1.887e-05
-4.53843e-05
-0.00039462
0.000363877
-5.95542e-05
-3.15661e-05
-0.000285956
0.0085559
-0.000474328
0.0109733
-0.000506661
0.0129596
-0.00048819
0.0143554
-0.000445445
0.0150839
-0.000387214
0.0151078
-0.000313744
0.0144253
-0.000233633
0.0130973
-0.000158169
0.0112322
-9.58789e-05
0.00896843
-5.06376e-05
0.00646912
-2.16929e-05
0.00387102
-5.17396e-06
0.0012731
0.00560711
0.0104607
0.00653927
0.011212
0.00780948
0.0122201
0.0117753
0.0143362
0.0132219
0.0165257
0.0112791
0.0174326
0.0079839
0.0155896
0.00406445
0.0107976
0.00124935
0.00583636
0.000911795
-1.61476e-05
1.53507e-05
-7.26542e-05
9.84711e-05
3.91813e-06
2.31245e-06
-3.86946e-05
3.31382e-06
2.60591e-06
-1.16536e-05
0.000298308
-6.90175e-05
0.00263016
-3.94831e-05
3.61083e-06
-2.40473e-05
9.54212e-06
-1.01381e-05
1.10298e-05
1.02628e-05
5.88134e-06
-2.68944e-05
7.92835e-05
0.00025607
-1.59356e-06
7.72511e-05
0.000242256
-3.19507e-06
0.000346148
-6.10964e-05
0.00032252
-5.51335e-05
0.00116335
-1.05698e-05
-2.95906e-06
0.00188373
-1.83895e-05
-3.99022e-05
0.00574729
-6.33733e-05
0.00185923
-1.47606e-05
0.00113739
-6.04849e-07
-2.8186e-06
-0.000297412
0.000285027
-6.48501e-06
-2.02758e-05
-0.000219171
0.000180829
-2.1212e-05
-8.48027e-06
-0.000373804
0.00845538
-0.000465645
0.0109323
-0.000462549
0.012934
-0.000442733
0.0143526
-0.000413505
0.0151101
-0.000369017
0.0151631
-0.000302296
0.014494
-0.000225921
0.013165
-0.000152361
0.0112887
-9.31393e-05
0.00901093
-5.07937e-05
0.00649822
-2.10679e-05
0.00388691
-3.91102e-06
0.00127701
0.0051665
0.0104536
0.00580739
0.0111926
0.00684249
0.012179
0.00996387
0.0140315
0.0114945
0.0160636
0.0103558
0.0174489
0.00821244
0.017204
0.00537856
0.0142755
0.00253059
0.00951632
0.000854897
0.00527977
0.0008612
-2.26951e-05
4.26864e-06
-0.000108291
0.000105609
-8.35875e-06
-5.10938e-06
3.9055e-07
5.13802e-06
-4.12985e-06
8.51874e-06
-4.70868e-07
-1.81741e-06
1.49641e-06
4.10232e-06
-5.44813e-06
-2.5946e-06
0.000269206
-7.93434e-05
0.00244028
5.60187e-06
-1.50773e-06
-1.58646e-05
7.56576e-05
7.24625e-05
0.000162503
-4.27702e-05
0.000107369
0.000276489
-2.0321e-06
0.000274044
-5.14113e-07
0.00112063
-1.25368e-06
-3.74556e-07
0.00183579
-1.64599e-05
-8.28901e-05
0.00560537
-0.000148997
0.00179763
-2.52156e-05
0.00110732
-7.1545e-07
-7.32373e-07
-0.000271502
0.00027108
-1.82265e-07
-2.7637e-07
-8.70935e-05
8.06085e-05
-6.39823e-05
4.27702e-05
-0.000420594
0.00841034
-0.000409604
0.0108794
-0.000396985
0.0128882
-0.000402992
0.0143421
-0.000396883
0.015138
-0.000358744
0.0152195
-0.00029494
0.014563
-0.000216499
0.0132292
-0.000147197
0.0113428
-9.37568e-05
0.00905389
-4.92609e-05
0.00652642
-2.03738e-05
0.00390337
-5.03293e-06
0.00128204
0.00473041
0.0104471
0.00508633
0.0111747
0.00589047
0.0121446
0.0083378
0.0138051
0.00987587
0.0156501
0.00928362
0.0171359
0.00788509
0.0177762
0.00600945
0.0165731
0.00372008
0.013086
0.00175306
0.00861815
0.000681429
0.00486754
0.000809847
-2.58241e-05
-2.17202e-06
-0.000104438
0.000105227
-2.3486e-05
1.10701e-07
5.328e-06
-1.09004e-05
8.42232e-06
-5.88144e-06
-1.31763e-05
-2.83387e-06
-1.2318e-05
-4.68486e-07
1.3382e-06
-4.70888e-07
1.50773e-06
0.000271515
-0.000107335
0.0022761
7.85764e-05
7.80623e-05
0.000270004
-1.77468e-07
0.000269615
1.4542e-08
0.00109236
-4.07199e-07
-1.08857e-06
0.00175833
-4.35877e-05
-0.000195244
0.00556814
-0.000188113
0.0016966
-8.72625e-05
0.00106988
-2.24487e-06
-4.93503e-07
-0.00026893
0.000268364
-1.49353e-07
-4.77424e-08
-7.7786e-05
7.76037e-05
-0.000335751
0.00833648
-0.000312946
0.0107953
-0.000344015
0.0128292
-0.000380991
0.0143262
-0.000387935
0.0151672
-0.000348613
0.0152732
-0.000281363
0.0146279
-0.000210034
0.013292
-0.000142961
0.011392
-8.92297e-05
0.00909386
-4.8712e-05
0.00655475
-2.11258e-05
0.00391947
-4.68116e-06
0.00128672
0.0042968
0.0104416
0.00437835
0.011155
0.00495061
0.0121145
0.00684292
0.0136395
0.00835724
0.0153237
0.00818122
0.0167525
0.00726841
0.0177525
0.00606914
0.0177166
0.00448356
0.0158096
0.0027332
0.0121059
0.00134909
0.00795048
0.000606605
0.00453245
0.000753074
-3.5852e-05
-1.471e-05
-0.000101021
9.63474e-05
-2.11534e-05
2.03041e-06
-8.6525e-06
-1.0246e-05
-3.14311e-06
3.30539e-07
-1.77619e-06
-9.10198e-06
5.5973e-07
4.64672e-06
2.43511e-06
-8.31677e-06
-3.98799e-07
-8.67315e-07
0.000292903
-0.000143004
0.00212618
7.74263e-05
7.74408e-05
0.000268083
-1.25866e-07
0.000267053
-5.81835e-08
0.00103238
-1.06572e-06
-5.02447e-06
0.00166153
-0.000160172
-0.000155172
0.00546008
-7.25185e-05
0.00163783
-0.000164413
0.000966977
-1.68282e-05
-5.02736e-06
-0.000266628
0.00026471
-3.26396e-07
-6.86755e-08
-7.73931e-05
7.72437e-05
-0.000196149
0.00821968
-0.000244394
0.0106957
-0.000322764
0.012771
-0.000379688
0.014318
-0.000384759
0.0152033
-0.000339379
0.0153312
-0.00026781
0.0146856
-0.000200287
0.0133493
-0.000138936
0.0114417
-8.71431e-05
0.00913229
-4.75218e-05
0.00658115
-2.01054e-05
0.00393489
-4.54967e-06
0.00129127
0.00387003
0.0104338
0.00368541
0.0111346
0.00401866
0.012087
0.0054337
0.0135237
0.00691519
0.0150815
0.00709713
0.0164078
0.00653797
0.0174829
0.00576585
0.0180558
0.00475909
0.017441
0.00348583
0.015057
0.00214874
0.0113062
0.00113923
0.00741785
0.000582823
0.00424253
0.000698234
-6.30455e-05
-2.51232e-05
-8.95881e-05
8.08715e-05
-2.71366e-05
-7.94978e-06
5.55176e-06
-1.46791e-05
-6.60366e-06
-5.42419e-06
-2.07701e-06
-5.88674e-07
4.55751e-06
-7.70072e-06
2.07162e-06
-1.18186e-06
2.7813e-06
-1.5994e-06
0.000322982
-0.000179287
0.00198249
7.71179e-05
7.70597e-05
0.000263946
-3.01522e-07
0.000259485
-5.63528e-07
0.000899335
-2.84691e-05
-6.40596e-05
0.00157867
-9.60123e-05
-4.50057e-05
0.00532626
-1.73267e-05
0.00154172
-3.55652e-05
0.000853081
-5.58909e-05
-6.22677e-05
-0.000255463
0.000241718
-3.08326e-06
-1.00408e-06
-7.6991e-05
7.66647e-05
-0.00012902
0.00810431
-0.000223633
0.0105966
-0.000332631
0.012724
-0.000394917
0.0143281
-0.000381276
0.0152452
-0.000319278
0.0153827
-0.000258871
0.0147442
-0.00019218
0.0134026
-0.00013407
0.0114886
-8.44271e-05
0.0091692
-4.35744e-05
0.00660462
-1.9533e-05
0.00394988
-4.41222e-06
0.00129569
0.00344793
0.0104271
0.00300369
0.0111155
0.00309021
0.012063
0.00407461
0.0134461
0.0055303
0.0149086
0.0060348
0.0161438
0.00577504
0.0171707
0.00528242
0.0179664
0.00466449
0.0181504
0.00386544
0.0170614
0.00284564
0.0143601
0.0018025
0.0106429
0.00103187
0.00696879
0.000584994
0.00398053
-0.000118256
0.0006372
-6.91078e-05
4.14876e-05
-3.5428e-05
-1.33616e-05
1.89394e-05
-2.77805e-05
-9.57366e-06
-8.7206e-06
-6.81701e-07
-3.00697e-06
1.05025e-05
-1.47281e-05
-2.3785e-06
7.5407e-06
-2.4631e-06
-9.77784e-06
-2.82636e-06
1.5994e-06
0.000343456
-0.000194586
0.00183361
7.63632e-05
7.57997e-05
0.000221779
-8.52958e-06
0.000179023
-2.13029e-05
0.000781371
-1.96587e-05
-4.64387e-06
0.00151074
-1.40328e-05
-1.81595e-05
0.00522665
-1.1252e-05
0.00149937
-5.95245e-06
0.000747485
-8.83927e-08
-1.59111e-06
-0.000158635
0.000102744
-4.188e-05
-7.47956e-05
7.17124e-05
-0.000109558
0.00799023
-0.000250311
0.0105143
-0.000372431
0.0127015
-0.000403166
0.01435
-0.000357863
0.0152838
-0.000304623
0.0154284
-0.000240255
0.0147923
-0.000182093
0.0134506
-0.000129845
0.011534
-8.11756e-05
0.0092068
-4.57042e-05
0.00663079
-1.88609e-05
0.00396433
-4.2774e-06
0.00129997
0.00303377
0.0104172
0.00233867
0.0110921
0.0021685
0.0120372
0.00273701
0.0134006
0.00417738
0.014799
0.00498761
0.0159558
0.00500926
0.0169096
0.00472605
0.0177271
0.00434978
0.0182811
0.00389847
0.0181174
0.00326682
0.0166402
0.00243206
0.0137305
0.00160069
0.0100741
0.000981936
0.00657185
0.00059234
0.00373165
3.56968e-05
-7.39543e-05
-2.57096e-05
-1.28002e-05
-0.000111695
0.000554312
3.06941e-05
-3.0427e-05
-4.29075e-06
-6.15933e-06
1.91449e-05
-2.22278e-05
-6.49048e-06
1.65126e-05
-6.08828e-06
-1.56686e-05
2.59126e-07
-2.1627e-06
5.28948e-06
-7.668e-06
2.82636e-06
0.000368962
-0.000219919
0.00168454
6.31829e-05
4.188e-05
8.30857e-05
7.84419e-05
0.00073374
-3.57804e-07
6.94662e-08
0.00148585
-4.645e-06
-1.12178e-05
0.00513378
-5.46703e-06
0.00147955
-4.95179e-06
0.000727881
4.64458e-08
-1.40616e-07
-7.68507e-05
7.67623e-05
-0.000136639
0.00787656
-0.000315149
0.010457
-0.000406286
0.0127046
-0.000375584
0.0143678
-0.000328519
0.0153077
-0.000277651
0.0154658
-0.000229666
0.0148399
-0.000177962
0.0134987
-0.000127199
0.01158
-8.23508e-05
0.00924344
-4.53598e-05
0.00665729
-1.82017e-05
0.00397825
-4.32701e-06
0.00130429
0.00262896
0.0104054
0.00169032
0.0110655
0.00125073
0.0120099
0.00138471
0.0133895
0.00284069
0.0147373
0.00395173
0.0158349
0.00424558
0.0167195
0.00414861
0.017487
0.0039317
0.0181452
0.00369593
0.0184836
0.00337956
0.0180047
0.00286266
0.0162096
0.00216856
0.0131627
0.00148375
0.00957231
0.000955213
0.00620897
0.000606392
0.00349421
-0.000126222
-3.60615e-05
-2.337e-05
7.34776e-05
-8.41083e-05
-6.6847e-06
-8.39386e-06
7.1876e-05
-5.21194e-06
-5.9864e-06
-0.000132581
0.000466949
2.38053e-05
-3.59427e-06
-1.61518e-06
2.28523e-05
-2.31499e-05
-3.36959e-06
-5.50471e-06
1.56598e-05
-1.69935e-05
-5.15666e-06
9.57155e-06
-7.40885e-06
0.000386101
-0.000233879
0.00153227
7.64045e-05
7.64739e-05
0.000723373
-1.10664e-07
-2.57541e-08
0.00147121
-2.8729e-06
-7.59161e-06
0.00502558
-2.08533e-05
0.00146459
4.04998e-06
-2.89553e-06
0.000718749
-1.44224e-07
-1.84347e-07
-7.63333e-05
7.63797e-05
-0.000227049
0.00778846
-0.000399362
0.0104501
-0.000376137
0.0127051
-0.000335994
0.0143752
-0.000298035
0.0153281
-0.000261497
0.0154977
-0.000220334
0.0148822
-0.000174302
0.0135458
-0.000125175
0.0116229
-7.91023e-05
0.00927719
-4.23844e-05
0.00668147
-1.80718e-05
0.003992
-4.4046e-06
0.0013087
0.0022348
0.0103924
0.0010649
0.0110308
0.00033791
0.0119783
-1.22787e-05
0.0134069
0.00150381
0.0147264
0.00291907
0.0157699
0.00348239
0.0165981
0.00356378
0.0173043
0.00347664
0.0179421
0.00336848
0.0184726
0.00325361
0.0186096
0.00302912
0.0178382
0.00259505
0.0157832
0.00200329
0.0126431
0.00141356
0.00911397
0.000945874
0.00586947
0.000618561
0.00326174
-0.000182911
-4.38555e-05
-3.20461e-05
9.80789e-05
-0.000108596
-1.30503e-05
-1.24939e-05
-6.3715e-06
-3.02621e-06
2.43568e-05
-2.8643e-05
-2.39818e-06
1.9485e-05
-3.52195e-06
1.93694e-05
-5.09613e-06
1.33829e-05
-0.000139479
0.000372531
9.78862e-06
8.17339e-06
1.86288e-05
-1.28179e-06
-1.73488e-06
-5.15669e-06
0.000405364
-0.000254282
0.00138116
7.62691e-05
7.62433e-05
0.000418354
5.89318e-08
1.42544e-07
0.000297321
0.0014587
-1.1816e-06
-5.25464e-07
-2.32018e-05
0.00488804
-6.63014e-05
0.00144063
-2.14986e-07
-2.5629e-06
0.000451116
-2.87132e-05
0.00045304
-4.81933e-06
-7.60589e-05
7.59147e-05
-0.000366976
0.00775607
-0.000367417
0.0104413
-0.000318113
0.0126873
-0.000286561
0.0143638
-0.000267401
0.015334
-0.000245189
0.0155225
-0.000213921
0.0149219
-0.000172764
0.0135934
-0.000123083
0.0116669
-7.65629e-05
0.00931137
-4.17499e-05
0.00670515
-1.79918e-05
0.00400559
-4.25651e-06
0.00131296
0.0018564
0.0103753
0.000472421
0.0109849
-0.000567638
0.0119364
-0.00148702
0.013453
0.000146649
0.014764
0.0018901
0.0157553
0.00271931
0.016533
0.00297561
0.0171862
0.00301002
0.017771
0.00298789
0.0183227
0.00298698
0.0187393
0.00296232
0.0186764
0.00279457
0.0176387
0.00242001
0.0153664
0.00189709
0.0121596
0.00137156
0.00868828
0.000942104
0.00554591
0.000631025
0.00303608
-0.000242803
-4.33969e-05
-3.6213e-05
0.000120641
-0.000137422
-2.70819e-05
-9.46478e-06
-1.0539e-05
3.8163e-05
-4.18874e-05
-9.32622e-06
3.45498e-05
-8.88104e-06
3.12991e-05
-3.12033e-06
-3.69372e-07
8.61807e-06
-1.10162e-05
5.09613e-06
-0.000157849
0.000276076
6.89156e-06
0.000418592
-0.000267553
0.00123007
7.59736e-05
7.61161e-05
0.000267451
1.15695e-06
0.000452378
-5.19443e-07
0.000451948
-9.57011e-08
0.0014232
-8.01923e-07
-4.96991e-06
-0.000107906
0.00482287
-0.000193901
0.00137555
-4.74213e-06
-1.39127e-05
0.000451779
-4.63314e-08
0.00044956
-3.44235e-07
0.000264138
-1.50666e-06
-0.00035167
0.00774033
-0.000274337
0.0103976
-0.000249654
0.0126503
-0.000245428
0.0143418
-0.000247289
0.0153361
-0.000242312
0.0155509
-0.000219521
0.0149686
-0.000174514
0.0136448
-0.000125735
0.011716
-8.08508e-05
0.00935047
-4.11985e-05
0.00672836
-1.56611e-05
0.004017
-4.28063e-06
0.00131724
0.00149788
0.0103561
-7.26345e-05
0.0109204
-0.00146142
0.0118787
-0.00307408
0.0135234
-0.00124711
0.0148468
0.000859347
0.0157948
0.00195215
0.0165225
0.0023836
0.017125
0.00253747
0.0176588
0.00259234
0.0181665
0.00265493
0.0186548
0.00273987
0.0189617
0.00277132
0.0186996
0.00264344
0.0174152
0.00230308
0.0149605
0.00182738
0.0117037
0.00134421
0.00828616
0.000940982
0.00523593
0.000639097
0.00281556
-0.000310056
-5.03418e-05
-4.0265e-05
0.000150333
-0.000162225
-3.1515e-05
-2.33087e-05
4.58407e-05
-0.000107353
-1.80077e-06
3.74159e-05
-1.18874e-06
4.53289e-05
-8.95451e-06
-7.09865e-06
2.33868e-05
-2.57582e-05
-6.955e-06
1.45058e-05
1.13856e-05
-0.000168055
0.000176556
0.000431499
-0.000283493
0.00108203
7.72731e-05
0.000263809
-1.90868e-07
0.000263531
1.81947e-07
0.000449113
-3.55026e-07
0.000445607
-1.46419e-06
0.00132214
-1.67195e-05
-3.7774e-05
-0.000181928
0.00477186
-0.000118738
0.00126987
-5.38159e-05
-8.78198e-05
0.000443377
-2.51192e-06
0.000433851
-4.38666e-06
0.000263419
6.56843e-08
0.000263182
-1.07378e-07
7.57664e-05
-0.000196082
0.00766207
-0.00018174
0.0103297
-0.000194255
0.0125992
-0.000221672
0.0143162
-0.00024758
0.0153414
-0.000248285
0.0155797
-0.000219304
0.0150134
-0.000171322
0.0136904
-0.000116433
0.0117516
-7.3318e-05
0.00938259
-4.08815e-05
0.00675358
-1.75432e-05
0.00403026
-2.91729e-06
0.00132016
0.00116541
0.0103347
-0.000549102
0.0108326
-0.00233976
0.0117987
-0.00481745
0.0136221
-0.00269749
0.0149738
-0.000175626
0.0158818
0.00118375
0.0165632
0.00178669
0.0171194
0.00205985
0.0176027
0.00219113
0.01806
0.00229882
0.0185226
0.00243679
0.0189578
0.00258414
0.0191489
0.00265542
0.0186876
0.00254389
0.0171744
0.00222571
0.0145621
0.0017806
0.0112674
0.00132521
0.00790193
0.00093844
0.00493657
0.000645748
0.0026013
-0.000377629
-5.46043e-05
-4.58995e-05
0.000178093
-0.000195488
-3.29535e-05
-2.43989e-05
0.000117974
-0.000129115
-1.06771e-05
-9.70298e-06
-3.20858e-06
-9.48275e-06
1.25412e-05
-1.43422e-05
2.99992e-05
-1.53888e-06
1.13523e-05
-2.85835e-06
-6.95504e-06
-0.00018619
7.92284e-05
0.000438958
-0.000294062
0.000937081
7.55755e-05
7.57574e-05
0.000262752
7.45984e-08
0.000261415
-1.27241e-07
0.000425261
-8.13057e-06
0.000404765
-1.72774e-05
0.00123787
-7.78697e-05
-7.20552e-05
-5.75613e-05
0.00464726
-1.39216e-05
0.00118146
-4.31978e-05
-1.91338e-05
0.000384005
-3.30562e-05
0.000353724
-5.75395e-05
0.000259231
-3.27644e-07
0.000255489