/*--------------------------------*- C++ -*----------------------------------*\
| =========                 |                                                 |
| \\      /  F ield         | OpenFOAM: The Open Source CFD Toolbox           |
|  \\    /   O peration     | Version:  v1912                                 |
|   \\  /    A nd           | Website:  www.openfoam.com                      |
|    \\/     M anipulation  |                                                 |
\*---------------------------------------------------------------------------*/
FoamFile
{
    version     2.0;
    format      ascii;
    class       volScalarField;
    location    "50";
    object      p;
}
// * * * * * * * * * * * * * * * * * * * * * * * * * * * * * * * * * * * * * //

dimensions      [0 2 -2 0 0 0 0];


internalField   nonuniform List<scalar> 
3754
(
0.00183635
0.00196239
0.00180837
0.00209521
0.00193028
0.00178712
0.00221326
0.0020613
0.00190401
0.00175383
0.00231462
0.00217894
0.00202772
0.00186676
0.00171634
0.00239486
0.0022848
0.00213981
0.00198805
0.00182663
0.00167081
0.00244609
0.00237375
0.00224651
0.00210028
0.00194389
0.00178046
0.00161627
0.00245958
0.00243798
0.00234317
0.00220593
0.00204969
0.00189636
0.00172522
0.00155958
0.00243387
0.00246762
0.00241894
0.00230232
0.00215036
0.00200026
0.00184156
0.00166815
0.00150188
0.0023712
0.00245742
0.00246386
0.00238024
0.0022445
0.00209864
0.0019465
0.00178422
0.0016096
0.00144372
0.00227281
0.00240704
0.00247339
0.00242984
0.00232197
0.00218777
0.00204323
0.00188797
0.00172582
0.00155159
0.00138775
0.00216249
0.00232054
0.00245449
0.00244645
0.00237061
0.00226021
0.00212925
0.00198244
0.00183212
0.00166637
0.00149279
0.00133852
0.00207162
0.00218696
0.00241138
0.00243029
0.00238163
0.00230636
0.00219839
0.00206718
0.00192725
0.00176872
0.00160576
0.00144073
0.00128958
0.00211629
0.00202635
0.00194899
0.00235308
0.00239059
0.00235707
0.00231789
0.00224177
0.00213525
0.00200926
0.00186376
0.00171041
0.00154952
0.00138859
0.00124633
0.0021036
0.00185925
0.00226729
0.00207047
0.0020036
0.00233209
0.00230523
0.00229486
0.00225305
0.00217913
0.00207535
0.00194839
0.00180436
0.00164711
0.00149375
0.00134202
0.00120591
0.00203006
0.00166513
0.00218538
0.00224994
0.00218614
0.00200923
0.00199463
0.0020763
0.00224139
0.00224554
0.00223269
0.00219244
0.00211776
0.00201501
0.00188558
0.00173762
0.00158902
0.00144241
0.00130009
0.00116675
0.00202084
0.00200654
0.00130474
0.00215822
0.0021424
0.00216662
0.00214731
0.00212257
0.00205097
0.00202894
0.00207536
0.00204494
0.00217759
0.00218755
0.00217456
0.00213128
0.00205819
0.00195221
0.001819
0.0016769
0.00153161
0.00139717
0.00125717
0.00113634
0.00199543
0.00243731
0.00077453
0.00208698
0.00209794
0.00209367
0.00210237
0.00210625
0.00209361
0.00208958
0.00206501
0.0020606
0.00210334
0.00254837
0.00198392
0.00199533
0.00212705
0.00213218
0.00211745
0.0020749
0.00199704
0.00188637
0.0017568
0.00161462
0.00148232
0.00135271
0.00122438
0.00110145
0.00237544
7.89595e-05
0.0020739
0.00204986
0.0020565
0.00205698
0.00206244
0.00205521
0.00205468
0.00204293
0.00204817
0.00205675
0.00204806
0.00203024
0.00204165
0.00207343
0.00208209
0.00206367
0.00201547
0.00193405
0.00182371
0.00169094
0.00156037
0.00143598
0.00131512
0.00118732
0.00106939
0.00204121
0.00203522
0.00203192
0.00203461
0.00201965
0.00200741
0.0020047
0.00198986
0.00199861
0.00201541
0.00201801
0.00203275
0.00203781
0.00202939
0.0020276
0.00200746
0.00195704
0.00187102
0.00175618
0.00163172
0.00150927
0.00139361
0.00127809
0.00115224
0.00103653
0.00201583
0.00201884
0.00199889
0.00198332
0.0019738
0.00195954
0.00196112
0.00193981
0.00194691
0.00196249
0.00196805
0.00200045
0.00199901
0.00197314
0.00197696
0.00195201
0.00189319
0.0018054
0.00169409
0.00157531
0.00146394
0.00135681
0.00123951
0.00111615
0.000996481
0.00198236
0.00196786
0.0019505
0.00193842
0.00192265
0.00191407
0.00190804
0.00189448
0.00190115
0.00191093
0.00192088
0.00194903
0.00194677
0.0019284
0.00192194
0.00189021
0.0018309
0.00173987
0.00163224
0.00152446
0.00142357
0.00131599
0.0012013
0.00107667
0.000961167
0.00192983
0.0019236
0.00190091
0.00188055
0.00187321
0.00186693
0.00186359
0.00184089
0.00185515
0.00186628
0.00187056
0.00189456
0.00190235
0.00187059
0.00186214
0.00182818
0.00176433
0.00167392
0.00157364
0.00147812
0.0013813
0.00127728
0.00116219
0.00103781
0.000926356
0.00188196
0.00186193
0.00184819
0.00183944
0.00182823
0.00181968
0.00180557
0.00179464
0.00180328
0.00181486
0.001829
0.00184815
0.00185233
0.0018144
0.00180085
0.00176451
0.00169548
0.00160906
0.00151958
0.00143206
0.00134146
0.00123801
0.00112059
0.00100212
0.000892062
0.00182956
0.00182371
0.00180368
0.00179054
0.00177866
0.00176589
0.00175262
0.00173881
0.00175454
0.00176891
0.0017751
0.00179654
0.00180857
0.00175368
0.00173863
0.00169324
0.00162508
0.00154442
0.00146649
0.00139093
0.00130419
0.00119691
0.00108297
0.000965468
0.000861022
0.00178623
0.00177308
0.00175343
0.00174176
0.0017296
0.00171406
0.00169259
0.0016844
0.00170119
0.00171393
0.00173472
0.00175186
0.00175443
0.00169269
0.00166993
0.00162118
0.00155267
0.00148347
0.00142147
0.00135299
0.00126401
0.00115819
0.00104384
0.000932683
0.00083246
0.00173718
0.0017192
0.00170751
0.00169174
0.00167841
0.0016588
0.00163385
0.00162595
0.00164713
0.00166489
0.00167803
0.00169806
0.00172064
0.00162742
0.00159877
0.00154462
0.00148277
0.00142931
0.00138097
0.00131636
0.00122595
0.00111624
0.00100884
0.000902569
0.000806108
0.00168899
0.00167294
0.00165489
0.00164319
0.00162533
0.00160124
0.00157116
0.0015699
0.00159159
0.0016114
0.00162962
0.00165063
0.00166234
0.00156079
0.001524
0.00146704
0.00141615
0.0013858
0.00134736
0.0012802
0.00118336
0.00107881
0.000975765
0.000873705
0.000778458
0.00163321
0.00162803
0.00160192
0.00159138
0.00156651
0.00154338
0.00150842
0.00150748
0.00153906
0.00156059
0.00157339
0.00159562
0.00161875
0.00149101
0.00144218
0.001387
0.00136587
0.00135439
0.00131576
0.00123936
0.00114407
0.00104304
0.000944392
0.000844134
0.000754015
0.00158101
0.00157819
0.00154691
0.00153395
0.00151107
0.001482
0.00144236
0.00144419
0.00147796
0.00150806
0.00151943
0.00154587
0.00156248
0.00141413
0.00135484
0.00132409
0.00133626
0.0013299
0.00127801
0.00119763
0.00110561
0.00100947
0.000911957
0.000818213
0.000728621
0.001527
0.00152341
0.00149537
0.00147675
0.00145168
0.00142102
0.00137536
0.00137452
0.00141554
0.00144566
0.00146451
0.00149167
0.00150559
0.00133032
0.00126425
0.0012936
0.00132332
0.00129699
0.00123488
0.00115703
0.00106769
0.00097265
0.000883443
0.000790682
0.000708487
0.00148093
0.00146507
0.0014354
0.0014216
0.00138924
0.00135724
0.00130708
0.00130458
0.00134973
0.00138552
0.00140099
0.00143015
0.00145334
0.00121158
0.00122339
0.00130131
0.00129833
0.00125153
0.00119001
0.00111456
0.00102798
0.0009398
0.000853229
0.000767447
0.000688795
0.00142113
0.00141184
0.00137485
0.00135524
0.00132257
0.00129291
0.00120116
0.00123159
0.00128262
0.00131727
0.0013412
0.001372
0.00138771
0.00111652
0.00126611
0.00128659
0.00124877
0.00120146
0.0011435
0.00107123
0.00098937
0.000907538
0.00082634
0.000747129
0.000670878
0.00136104
0.00134426
0.00130896
0.00129012
0.00125343
0.00122067
0.000994668
0.00115222
0.00121262
0.0012507
0.00127332
0.00130185
0.00133184
0.00120993
0.0012694
0.00123046
0.00119181
0.00115099
0.00109577
0.00102715
0.000953418
0.000875924
0.000804056
0.000726748
0.000657463
0.00129582
0.00128148
0.00123916
0.00121297
0.00118717
0.00106416
0.00113542
0.000850015
0.00117608
0.00117545
0.00120542
0.0012379
0.00126245
0.00124632
0.00119901
0.001164
0.00113714
0.00109894
0.00104706
0.00098527
0.000916526
0.000849161
0.000780798
0.000710744
0.000647934
0.00122534
0.00120325
0.00116776
0.00113627
0.00113751
0.0010579
0.00119411
0.00116253
0.000653724
0.00110876
0.00114772
0.00116656
0.00119058
0.00116141
0.00112328
0.00110632
0.00108104
0.00104437
0.000997655
0.000942974
0.000883388
0.00082281
0.000763241
0.000700605
0.00064253
0.00114979
0.00112693
0.00116088
0.00116915
0.0010369
0.00110769
0.00111141
0.00109809
0.00115012
0.000288156
0.0012644
0.00109011
0.00111249
0.0010747
0.00106374
0.00104726
0.00102184
0.000989003
0.000948833
0.00090144
0.000854024
0.000803159
0.000751713
0.000692036
0.000641924
0.00109624
0.00114113
0.00135172
0.00112642
0.00107171
0.00105213
0.00102665
0.00104196
0.00104939
0.00107914
0.00108587
-0.000352029
0.00123886
0.00101398
0.00100413
0.000985087
0.000962895
0.000934163
0.000900534
0.000866885
0.000827981
0.000787984
0.000740587
0.000689903
0.000648939
0.00103362
0.00103225
0.00102463
0.000995731
0.000964106
0.000980253
0.00100682
0.00102785
0.00102123
0.000957236
0.000940977
0.000924253
0.000902757
0.00087962
0.000857224
0.00083255
0.000807826
0.000774275
0.000736498
0.000693914
0.00065979
0.00101318
0.00100595
0.000975178
0.000939626
0.000907936
0.000919064
0.000949606
0.000985481
0.000993326
0.000895135
0.000880394
0.000861736
0.00084303
0.000827507
0.000814255
0.000805318
0.000791082
0.000767568
0.00073844
0.000702414
0.000676859
0.000969742
0.000954699
0.000919959
0.000883792
0.000848159
0.000861502
0.000890634
0.000924497
0.000936336
0.000835084
0.000818399
0.000800237
0.000784725
0.000776285
0.000778007
0.000781384
0.000778812
0.0007657
0.000744731
0.000717189
0.000698351
0.000911947
0.000898219
0.000863307
0.00082592
0.000791013
0.000803045
0.000835141
0.000869614
0.000881922
0.000775863
0.000756742
0.000736742
0.00072721
0.000729014
0.000743194
0.000760599
0.00077056
0.00076816
0.000757268
0.000737029
0.000728019
0.000855089
0.000840556
0.000804745
0.000771966
0.000733163
0.000746213
0.000777761
0.000813543
0.000824276
0.000714662
0.000691237
0.000675669
0.000669779
0.00068351
0.000712709
0.000743456
0.000765927
0.000775744
0.00077588
0.000763674
0.000763689
0.000798779
0.000783004
0.000751396
0.000714854
0.000673916
0.000688752
0.000723864
0.000750658
0.000769884
0.000650546
0.000627783
0.000609985
0.000613987
0.00064112
0.000683478
0.000728975
0.00076586
0.000789943
0.00079933
0.000797739
0.000807847
0.000743262
0.000729088
0.000694006
0.000657724
0.000611624
0.000629774
0.000666604
0.000703125
0.00071513
0.000586421
0.000558223
0.000546104
0.000559642
0.000599648
0.000655677
0.000717038
0.000769425
0.000807722
0.000830797
0.000839576
0.000862227
0.000685985
0.000673732
0.000638406
0.000597557
0.000549212
0.000569637
0.000607066
0.00064567
0.000659148
0.000515206
0.000486426
0.000481751
0.000506976
0.000557895
0.000628905
0.000705685
0.000777639
0.000832007
0.000869325
0.000893615
0.000926289
0.000631119
0.000617628
0.000579873
0.000537053
0.000480207
0.000507726
0.000548386
0.000585461
0.00059838
0.000440023
0.000413912
0.000419365
0.000452598
0.000514662
0.000601491
0.000699075
0.000790535
0.000863559
0.000917781
0.000962021
0.00101587
0.000573071
0.000559588
0.000519106
0.000472941
0.000403602
0.00044403
0.000487231
0.000529456
0.000541232
0.000359577
0.000344044
0.000356689
0.000394376
0.000470221
0.000575498
0.00069594
0.000807757
0.000900867
0.000983454
0.00105341
0.00110483
0.000513545
0.000498503
0.000457269
0.000407452
0.000322739
0.00037144
0.000426356
0.000466099
0.000482926
0.000283857
0.000279767
0.000286714
0.000333848
0.000424285
0.000551155
0.000693888
0.00083076
0.00095748
0.00105682
0.00123007
0.000431772
0.000452042
0.000435658
0.000398059
0.000310217
0.000245798
0.00017016
0.000381866
0.000401728
0.000418651
0.000220549
0.000202707
0.000213157
0.000269178
0.000377482
0.000528555
0.000697176
0.000869122
0.00100211
0.00126911
0.000530451
0.000387876
0.000371286
0.000378625
0.000249783
0.000179406
0.000218437
-0.000479128
-2.64063e-05
0.000343521
0.000356899
0.000144681
0.000121507
0.00013342
0.000202377
0.000332022
0.000507395
0.000711635
0.000884948
0.00119852
0.000567559
0.000330384
0.000310549
0.0010321
0.000141087
0.000184214
0.00017791
0.0001064
0.000146136
0.000185081
0.000190006
0.000270408
5.98099e-05
3.06328e-05
4.93304e-05
0.000133179
0.000285458
0.000496289
0.000702347
0.00104434
0.00051884
0.000454589
0.000172261
0.000176125
0.000173782
0.00016727
0.000109569
2.40874e-05
7.15974e-05
0.000145418
0.000137248
0.000177381
0.000176415
0.000218213
-3.46396e-05
-6.48282e-05
-4.0098e-05
6.29645e-05
0.000246662
0.000463359
0.000815335
0.000414188
0.000160143
0.00016351
0.000170455
0.000162504
0.000116061
9.84646e-05
3.1899e-05
-6.99257e-05
-1.10417e-05
7.78944e-05
6.11323e-05
0.000145314
0.000133484
0.000168773
0.000166623
-0.00013732
-0.000171418
-0.000132423
-3.88571e-06
0.000192715
0.000526836
0.000273033
0.00016877
0.000159166
0.000116482
9.45712e-05
3.87446e-05
2.06095e-05
-5.49236e-05
-0.000172851
-0.00010286
-2.46365e-06
-2.25715e-05
7.86575e-05
5.99722e-05
0.00014497
0.000130748
-0.000252152
-0.000281362
-0.000225724
-7.70984e-05
0.000204808
0.000113666
0.000115097
9.35317e-05
3.89041e-05
1.98217e-05
-4.32661e-05
-6.47452e-05
-0.000151544
-0.000289276
-0.000204016
-9.14927e-05
-0.000110688
-2.46443e-06
-2.28324e-05
7.741e-05
5.85276e-05
-0.000377061
-0.000400111
-0.000316969
-0.000117715
-4.58548e-05
3.87069e-05
1.95104e-05
-4.24282e-05
-6.43091e-05
-0.00013495
-0.000160761
-0.000258291
-0.000417768
-0.000319059
-0.000187004
-0.000209875
-8.76996e-05
-0.00010972
-3.71166e-06
-2.15889e-05
-0.000514929
-0.000507316
-0.00040914
-0.000190181
-4.55267e-05
-6.34914e-05
-0.000130368
-0.000158545
-0.000238768
-0.000263977
-0.000377988
-0.000568993
-0.000446391
-0.000295883
-0.000322576
-0.000180038
-0.000206842
-8.51472e-05
-0.000108352
-0.000646939
-0.000649542
-0.000309846
-0.000128947
-0.000154162
-0.000232047
-0.000258771
-0.000351606
-0.000380522
-0.00051712
-0.000727652
-0.000598715
-0.000416957
-0.000444429
-0.000286064
-0.00031536
-0.000176896
-0.000204563
-0.000835162
-0.000404826
-0.000227213
-0.000254041
-0.00034214
-0.000372275
-0.000478606
-0.000518058
-0.000674561
-0.000983911
-0.000759848
-0.000554712
-0.000593587
-0.000402336
-0.000432264
-0.000281013
-0.000308192
-0.000478249
-0.00033748
-0.000364855
-0.000465176
-0.00050136
-0.000630763
-0.000675254
-0.000877946
-0.000588355
-0.0010393
-0.000713236
-0.000755146
-0.000536804
-0.000572487
-0.000392367
-0.000423083
-0.000454674
-0.000487012
-0.000610713
-0.000652804
-0.000809268
-0.000869275
-0.00117036
-0.000580672
-0.000948106
-0.00102126
-0.000691177
-0.000733582
-0.000524099
-0.000556968
-0.000593981
-0.000632013
-0.000787309
-0.00084465
-0.00111033
-0.00124079
-0.00125637
-0.000504908
-0.000917915
-0.000993557
-0.000670636
-0.000711654
-0.000761855
-0.000818148
-0.00107772
-0.00124359
-0.00141023
-0.000512577
-0.000889944
-0.000970107
-0.00105912
-0.00122265
-0.00155255
-0.000660794
-0.136055
-0.13584
-0.133996
-0.134267
-0.135409
-0.135281
-0.133674
-0.133807
-0.134832
-0.135584
-0.135679
-0.135926
-0.133071
-0.133971
-0.133268
-0.134723
-0.136468
-0.136712
-0.136134
-0.136563
-0.132374
-0.133412
-0.132523
-0.13428
-0.133017
-0.138242
-0.137011
-0.137407
-0.136778
-0.137147
-0.131598
-0.132528
-0.131819
-0.134931
-0.131529
-0.131953
-0.138734
-0.138602
-0.137698
-0.137125
-0.137763
-0.137704
-0.130867
-0.132096
-0.131046
-0.135739
-0.132366
-0.128271
-0.130098
-0.131202
-0.139286
-0.138167
-0.138466
-0.13811
-0.130121
-0.130345
-0.136651
-0.133328
-0.129287
-0.124521
-0.126651
-0.12869
-0.129509
-0.13049
-0.139867
-0.139241
-0.129265
-0.129454
-0.137575
-0.134376
-0.130425
-0.125728
-0.120472
-0.122725
-0.124772
-0.12615
-0.127075
-0.127855
-0.128869
-0.14046
-0.140016
-0.128345
-0.128588
-0.138489
-0.135429
-0.131615
-0.127049
-0.121792
-0.116149
-0.118554
-0.120755
-0.122299
-0.124112
-0.125002
-0.126745
-0.127676
-0.141071
-0.140814
-0.127509
-0.139398
-0.136456
-0.132783
-0.128374
-0.123243
-0.117504
-0.111637
-0.114108
-0.11635
-0.118049
-0.120224
-0.121476
-0.122597
-0.124439
-0.123452
-0.125281
-0.126558
-0.141734
-0.1416
-0.140253
-0.137435
-0.133903
-0.129634
-0.124668
-0.119008
-0.112903
-0.10651
-0.109516
-0.112022
-0.113461
-0.11572
-0.117103
-0.118293
-0.120393
-0.119292
-0.142439
-0.14231
-0.140974
-0.138309
-0.134925
-0.130811
-0.125993
-0.120486
-0.114367
-0.107855
-0.10115
-0.104192
-0.106868
-0.108916
-0.111612
-0.112377
-0.113558
-0.115886
-0.114715
-0.143146
-0.142934
-0.141535
-0.138998
-0.135772
-0.131841
-0.127191
-0.121849
-0.115843
-0.109321
-0.102546
-0.0957312
-0.0988156
-0.101485
-0.103501
-0.106145
-0.107626
-0.108956
-0.111274
-0.11107
-0.143876
-0.143566
-0.141998
-0.13947
-0.136366
-0.132634
-0.12819
-0.123045
-0.117214
-0.110784
-0.10401
-0.0971252
-0.0903135
-0.093406
-0.0960577
-0.098119
-0.100798
-0.102342
-0.103703
-0.106277
-0.104958
-0.107286
-0.10842
-0.111132
-0.144727
-0.144371
-0.142529
-0.139774
-0.136688
-0.133118
-0.128905
-0.123992
-0.118394
-0.112145
-0.105447
-0.09857
-0.0916914
-0.0849676
-0.0880112
-0.0906217
-0.0926992
-0.0953819
-0.0969479
-0.0982958
-0.100935
-0.0996195
-0.102
-0.103351
-0.105897
-0.104639
-0.145872
-0.145548
-0.143316
-0.140061
-0.136786
-0.133278
-0.129274
-0.124616
-0.119288
-0.113304
-0.106778
-0.0999714
-0.0931043
-0.0863156
-0.0797933
-0.0827082
-0.0852406
-0.0872971
-0.0899542
-0.0915253
-0.0928567
-0.0955032
-0.0942002
-0.0965902
-0.0979397
-0.100564
-0.0992773
-0.147484
-0.147254
-0.144537
-0.140504
-0.136803
-0.133169
-0.129291
-0.124871
-0.119827
-0.114152
-0.107901
-0.101256
-0.0944606
-0.087683
-0.0810597
-0.0748404
-0.0776306
-0.0800094
-0.0819893
-0.0845849
-0.0861323
-0.08744
-0.0900688
-0.0887809
-0.0911579
-0.0925015
-0.0951335
-0.0938476
-0.149709
-0.149601
-0.14631
-0.14128
-0.136907
-0.13293
-0.129011
-0.124762
-0.119981
-0.114625
-0.108705
-0.102328
-0.0956845
-0.0889847
-0.0823459
-0.0759331
-0.069849
-0.0728829
-0.0751273
-0.0769178
-0.0793603
-0.0808581
-0.0821138
-0.084688
-0.0834361
-0.0857611
-0.0870864
-0.0897064
-0.0884195
-0.152615
-0.152612
-0.1487
-0.142514
-0.137269
-0.132726
-0.128563
-0.124344
-0.119768
-0.114705
-0.109129
-0.103084
-0.0966956
-0.0901401
-0.0835779
-0.0770987
-0.070855
-0.0649281
-0.0678298
-0.0702691
-0.0723788
-0.0745933
-0.0758161
-0.0769839
-0.0794493
-0.0782575
-0.0804867
-0.0817666
-0.0843298
-0.0830733
-0.156211
-0.156271
-0.151695
-0.14429
-0.138014
-0.132722
-0.128105
-0.12374
-0.119249
-0.114421
-0.109163
-0.103468
-0.0974006
-0.0910859
-0.0846632
-0.0782492
-0.071928
-0.0658977
-0.0602636
-0.06298
-0.065298
-0.06719
-0.0697171
-0.071266
-0.0726377
-0.0745485
-0.0735693
-0.0754026
-0.0766331
-0.0791008
-0.0778954
-0.160436
-0.160479
-0.155241
-0.146612
-0.139233
-0.133039
-0.127801
-0.123093
-0.118534
-0.113837
-0.108841
-0.103476
-0.0977527
-0.0917428
-0.0855465
-0.0792726
-0.0730104
-0.0669083
-0.0611954
-0.0558334
-0.0583188
-0.0605884
-0.0623674
-0.0647187
-0.0661097
-0.0673226
-0.0698175
-0.0685769
-0.0707219
-0.0726359
-0.0741127
-0.0730554
-0.165181
-0.165091
-0.159209
-0.149455
-0.140949
-0.133771
-0.127764
-0.122558
-0.117755
-0.113056
-0.108229
-0.103144
-0.0977508
-0.0920715
-0.0861644
-0.0801098
-0.0739915
-0.0679338
-0.0621577
-0.0568377
-0.0518904
-0.0536692
-0.0559149
-0.057686
-0.0600158
-0.0613638
-0.0625081
-0.0648249
-0.0636858
-0.0657335
-0.0669585
-0.0693814
-0.0681711
-0.0702469
-0.0724716
-0.170251
-0.169854
-0.163407
-0.152718
-0.143155
-0.134953
-0.128084
-0.122245
-0.117056
-0.112199
-0.107424
-0.102535
-0.0974293
-0.092073
-0.0864825
-0.0807055
-0.074806
-0.0688829
-0.0631264
-0.0577704
-0.0529369
-0.0505568
-0.0485632
-0.0526888
-0.055218
-0.0566613
-0.0578379
-0.0601325
-0.0590136
-0.0610205
-0.0621918
-0.0645017
-0.0633482
-0.0654104
-0.0666096
-0.0689864
-0.0678315
-0.175368
-0.174443
-0.167556
-0.156259
-0.145779
-0.136594
-0.128806
-0.122236
-0.116543
-0.111396
-0.106536
-0.10174
-0.0968489
-0.0917788
-0.0865015
-0.0810283
-0.0753989
-0.0696863
-0.064039
-0.0586809
-0.0538317
-0.0494644
-0.0476239
-0.0494347
-0.0508028
-0.0454083
-0.0522786
-0.0553623
-0.0542005
-0.0562987
-0.057526
-0.0598351
-0.0586914
-0.0607258
-0.0618756
-0.0641766
-0.0630492
-0.180152
-0.178444
-0.171315
-0.159862
-0.148718
-0.138641
-0.129948
-0.122579
-0.116287
-0.11075
-0.105683
-0.100861
-0.0960922
-0.0912451
-0.0862493
-0.0810783
-0.0757429
-0.0702883
-0.0648219
-0.0595321
-0.0546523
-0.0502765
-0.0462197
-0.0445742
-0.046354
-0.0478091
-0.048816
-0.0495477
-0.050272
-0.0509223
-0.0424037
-0.0517971
-0.0525363
-0.0534069
-0.0549558
-0.0560195
-0.0572301
-0.059537
-0.058413
-0.184167
-0.181489
-0.174342
-0.163254
-0.151799
-0.141019
-0.131475
-0.1233
-0.116337
-0.110325
-0.104961
-0.100002
-0.095252
-0.0905473
-0.0857761
-0.0808797
-0.0758358
-0.0706607
-0.0654262
-0.0602753
-0.0554137
-0.051
-0.046962
-0.0431368
-0.0416557
-0.0432761
-0.0447019
-0.045658
-0.0464133
-0.0471735
-0.0478623
-0.0395279
-0.0534434
-0.0547202
-0.187034
-0.183324
-0.176379
-0.166146
-0.154802
-0.143591
-0.133332
-0.124378
-0.116724
-0.110162
-0.104431
-0.0992515
-0.0944214
-0.089768
-0.0851504
-0.0804775
-0.0756985
-0.0708007
-0.065821
-0.0608605
-0.0560827
-0.0516557
-0.0476083
-0.0438151
-0.0401822
-0.0389152
-0.040391
-0.0416941
-0.0425899
-0.0433114
-0.0440459
-0.044719
-0.0366797
-0.188562
-0.183942
-0.177336
-0.16828
-0.157477
-0.146176
-0.13541
-0.125776
-0.117436
-0.110297
-0.104126
-0.0986691
-0.0936797
-0.0889899
-0.0844471
-0.0799332
-0.0753726
-0.0707272
-0.0660021
-0.0612583
-0.0566192
-0.0522318
-0.0481771
-0.0444028
-0.0408046
-0.0373163
-0.03602
-0.0376997
-0.0391082
-0.0396727
-0.0403285
-0.0410388
-0.0416931
-0.0339493
-0.188835
-0.183598
-0.177333
-0.169501
-0.159576
-0.148562
-0.137569
-0.127409
-0.118452
-0.110727
-0.104083
-0.0982827
-0.0930858
-0.0882857
-0.0837385
-0.0793139
-0.0749129
-0.0704776
-0.0659875
-0.0614674
-0.0569986
-0.0527014
-0.0486688
-0.0449062
-0.0413453
-0.0379048
-0.0345721
-0.0332886
-0.0347731
-0.0361247
-0.0369255
-0.0376627
-0.0387
-0.038956
-0.0313843
-0.188208
-0.182728
-0.176719
-0.169809
-0.16091
-0.150521
-0.139629
-0.129168
-0.119706
-0.111438
-0.104304
-0.0981231
-0.0926637
-0.0877104
-0.0830908
-0.0786845
-0.074381
-0.0701015
-0.0658049
-0.0614919
-0.0572101
-0.0530402
-0.049068
-0.0453318
-0.0418025
-0.0384162
-0.0351339
-0.0319806
-0.030753
-0.0321296
-0.0333771
-0.0341059
-0.0347744
-0.0354528
-0.0361231
-0.0366586
-0.0373657
-0.0386226
-0.0289762
-0.187144
-0.181576
-0.17577
-0.169451
-0.16142
-0.151867
-0.141397
-0.130907
-0.121113
-0.112381
-0.104782
-0.0981976
-0.0924366
-0.0872854
-0.0825544
-0.0781044
-0.0738342
-0.0696551
-0.0655077
-0.0613707
-0.0572624
-0.0532367
-0.0493595
-0.0456735
-0.04218
-0.0388416
-0.03562
-0.0325122
-0.0295422
-0.0283768
-0.0296619
-0.0308324
-0.0315083
-0.0321314
-0.0327667
-0.0333828
-0.0338898
-0.0345732
-0.0352082
-0.0358652
-0.0267128
-0.185848
-0.180318
-0.174662
-0.168714
-0.161274
-0.152508
-0.142695
-0.132463
-0.122557
-0.113491
-0.105478
-0.0985026
-0.0924156
-0.0870283
-0.08215
-0.0776191
-0.0733275
-0.0691902
-0.0651376
-0.0611333
-0.0571787
-0.0532967
-0.0495316
-0.0459207
-0.0424765
-0.0391858
-0.0360224
-0.0329711
-0.0300455
-0.0272497
-0.0261417
-0.0273439
-0.028445
-0.0290758
-0.0296615
-0.030258
-0.030835
-0.0313042
-0.031944
-0.0325426
-0.0331574
-0.0245802
-0.184526
-0.179518
-0.173906
-0.167802
-0.160741
-0.152548
-0.143419
-0.133679
-0.123902
-0.114674
-0.106343
-0.0990091
-0.092599
-0.0869512
-0.0818904
-0.0772505
-0.0729002
-0.0687568
-0.0647518
-0.0608373
-0.0569952
-0.0532385
-0.0495875
-0.0460658
-0.0426872
-0.0394503
-0.0363422
-0.0333503
-0.0304761
-0.0277247
-0.0250914
-0.024034
-0.0251627
-0.0262009
-0.0267897
-0.0273411
-0.0279023
-0.0284442
-0.0288833
-0.0294853
-0.0300474
-0.0306245
-0.0225687
-0.183748
-0.180848
-0.177982
-0.175423
-0.167138
-0.172074
-0.160043
-0.152207
-0.143611
-0.134436
-0.125007
-0.115817
-0.1073
-0.0996771
-0.0929639
-0.0870535
-0.081787
-0.077008
-0.0725769
-0.0683905
-0.0643849
-0.0605128
-0.0567513
-0.0530917
-0.0495423
-0.0461117
-0.0428082
-0.0396327
-0.0365818
-0.0336492
-0.0308313
-0.0281311
-0.0255427
-0.0230567
-0.0220423
-0.0231049
-0.0240858
-0.0246393
-0.0251583
-0.0256872
-0.0261978
-0.0266097
-0.027174
-0.0277054
-0.0282461
-0.0206686
-0.184853
-0.182575
-0.181454
-0.180067
-0.178913
-0.177395
-0.176142
-0.174506
-0.168813
-0.159498
-0.165089
-0.173033
-0.17129
-0.151714
-0.143436
-0.134736
-0.125759
-0.1168
-0.10826
-0.100446
-0.0934783
-0.0873167
-0.0818401
-0.0769002
-0.0723632
-0.0681161
-0.0640811
-0.0602148
-0.0564874
-0.0528909
-0.0494199
-0.0460712
-0.0428427
-0.0397342
-0.0367441
-0.0338701
-0.0311091
-0.028463
-0.0259252
-0.0234852
-0.0211344
-0.0201589
-0.0211589
-0.0220876
-0.0226082
-0.0231003
-0.0235993
-0.0240823
-0.0244675
-0.0250008
-0.0255005
-0.0260113
-0.0188711
-0.184234
-0.183455
-0.182225
-0.181315
-0.18009
-0.178983
-0.177589
-0.176
-0.174487
-0.169626
-0.167789
-0.161287
-0.151293
-0.157314
-0.166057
-0.164149
-0.173083
-0.171426
-0.143122
-0.134698
-0.12613
-0.117517
-0.109118
-0.101243
-0.0940941
-0.0877149
-0.0820337
-0.076928
-0.0722662
-0.0679384
-0.0638536
-0.0599609
-0.0562399
-0.0526726
-0.0492513
-0.045965
-0.0428029
-0.0397587
-0.0368299
-0.0340148
-0.0313112
-0.02872
-0.0262359
-0.0238472
-0.0215414
-0.0193092
-0.0183889
-0.019315
-0.0201949
-0.0206874
-0.0211526
-0.0216251
-0.0220828
-0.022445
-0.0229502
-0.0234228
-0.0239068
-0.0171535
-0.184303
-0.183546
-0.182477
-0.169483
-0.167733
-0.162166
-0.160193
-0.153146
-0.142817
-0.14905
-0.158276
-0.156264
-0.166089
-0.164232
-0.134528
-0.126195
-0.117925
-0.109784
-0.101983
-0.0947517
-0.0882085
-0.0823469
-0.0770781
-0.0722866
-0.0678617
-0.0637173
-0.0597853
-0.0560378
-0.0524704
-0.0490693
-0.04582
-0.0427071
-0.0397181
-0.0368461
-0.0340884
-0.0314417
-0.0289052
-0.0264751
-0.0241393
-0.0218852
-0.0196948
-0.0175616
-0.0167293
-0.0175841
-0.0184028
-0.0188651
-0.0193057
-0.0197543
-0.0201887
-0.0205316
-0.0210083
-0.0214574
-0.0219149
-0.0154775
-0.162026
-0.160106
-0.154063
-0.152018
-0.144687
-0.134323
-0.14058
-0.14999
-0.147937
-0.158292
-0.156302
-0.126136
-0.118067
-0.110206
-0.102587
-0.0953831
-0.0887512
-0.0827485
-0.0773334
-0.0724136
-0.067887
-0.0636637
-0.0596819
-0.0559023
-0.052311
-0.0489037
-0.0456656
-0.0425792
-0.0396294
-0.0368045
-0.0340979
-0.0315049
-0.029022
-0.0266446
-0.0243629
-0.0221634
-0.0200222
-0.0179288
-0.0158672
-0.0150796
-0.0160286
-0.0167499
-0.0171495
-0.0175598
-0.0179826
-0.0183917
-0.0187137
-0.0191665
-0.0195928
-0.020028
-0.0138276
-0.153928
-0.151908
-0.145615
-0.143555
-0.13617
-0.126011
-0.13214
-0.141486
-0.139443
-0.149994
-0.147939
-0.118087
-0.110401
-0.103006
-0.0959244
-0.0892893
-0.0832004
-0.0776674
-0.0726319
-0.068006
-0.0637044
-0.059662
-0.0558386
-0.0522127
-0.0487782
-0.0455283
-0.0424456
-0.0395142
-0.0367208
-0.0340552
-0.0315085
-0.0290759
-0.0267494
-0.0245201
-0.0223742
-0.0202876
-0.0182432
-0.0162232
-0.0142145
-0.0134109
-0.014327
-0.0151729
-0.0156712
-0.0159958
-0.0163488
-0.0167071
-0.0169924
-0.017421
-0.0178258
-0.0182384
-0.0122437
-0.145488
-0.143432
-0.137085
-0.135057
-0.127801
-0.118024
-0.123917
-0.133004
-0.131012
-0.14148
-0.139419
-0.110474
-0.103235
-0.0963288
-0.0897696
-0.0836599
-0.0780511
-0.0729219
-0.0682053
-0.0638242
-0.0597178
-0.0558446
-0.0521806
-0.0487111
-0.0454304
-0.0423303
-0.0393962
-0.0366151
-0.0339752
-0.0314649
-0.0290746
-0.0267949
-0.0246149
-0.0225209
-0.0204904
-0.0185016
-0.0165322
-0.0145671
-0.0126248
-0.0118309
-0.0126598
-0.0134539
-0.0138929
-0.0143218
-0.0147661
-0.0151958
-0.0156004
-0.0158425
-0.0161617
-0.0165389
-0.0107491
-0.136966
-0.134926
-0.128687
-0.126727
-0.119735
-0.110454
-0.116041
-0.124733
-0.122823
-0.132991
-0.13097
-0.103341
-0.0965771
-0.090152
-0.0840865
-0.0784512
-0.0732584
-0.0684677
-0.0640177
-0.0598501
-0.0559231
-0.0522142
-0.0487074
-0.0453879
-0.0422528
-0.0392973
-0.036509
-0.0338767
-0.0313878
-0.0290295
-0.0267888
-0.0246535
-0.0226084
-0.0206318
-0.0187005
-0.0167876
-0.014875
-0.0129721
-0.0111143
-0.0103548
-0.0111234
-0.0118594
-0.0122586
-0.0126503
-0.0130519
-0.0134472
-0.0137268
-0.0141592
-0.0145785
-0.0150248
-0.0154743
-0.00934494
-0.128577
-0.126594
-0.12058
-0.118711
-0.112071
-0.103349
-0.108592
-0.116806
-0.114995
-0.124716
-0.12277
-0.0966989
-0.090408
-0.0844426
-0.0788325
-0.073615
-0.0687738
-0.0642652
-0.0600423
-0.0560679
-0.0523137
-0.0487629
-0.0454047
-0.0422289
-0.0392358
-0.0364228
-0.0337798
-0.031295
-0.0289543
-0.0267423
-0.0246438
-0.0226418
-0.020715
-0.0188392
-0.0169858
-0.0151331
-0.0132792
-0.011449
-0.00969148
-0.00896538
-0.0096825
-0.010378
-0.01075
-0.0111148
-0.0114877
-0.0118513
-0.0121143
-0.0125143
-0.0128981
-0.0132947
-0.0135773
-0.0139969
-0.0144052
-0.0148169
-0.00802508
-0.120477
-0.11858
-0.112867
-0.111103
-0.104867
-0.0967234
-0.101611
-0.109307
-0.107606
-0.116785
-0.114937
-0.0905342
-0.0846938
-0.0791615
-0.0739631
-0.069103
-0.0645548
-0.0602855
-0.0562661
-0.0524705
-0.0488787
-0.0454784
-0.0422628
-0.0392256
-0.0363727
-0.033703
-0.0312052
-0.0288659
-0.0266686
-0.0245964
-0.0226295
-0.0207464
-0.0189217
-0.0171265
-0.0153367
-0.0135388
-0.0117482
-0.0100076
-0.00835449
-0.00765654
-0.00830572
-0.00897711
-0.00932623
-0.00967424
-0.0100264
-0.0103696
-0.0106147
-0.0109885
-0.0113467
-0.0117144
-0.0119786
-0.012372
-0.0127607
-0.0131504
-0.0068099
-0.112771
-0.110979
-0.105611
-0.103959
-0.0981408
-0.0905667
-0.0951077
-0.102277
-0.100688
-0.109285
-0.107547
-0.0848183
-0.0794006
-0.0742698
-0.0694297
-0.0648664
-0.0605632
-0.0565057
-0.0526741
-0.0490475
-0.0456079
-0.0423489
-0.0392703
-0.0363724
-0.0336621
-0.031136
-0.0287815
-0.0265836
-0.0245239
-0.0225817
-0.0207333
-0.0189531
-0.017212
-0.0154827
-0.0137455
-0.0120046
-0.010291
-0.00865006
-0.0071125
-0.00646952
-0.00699467
-0.00760936
-0.00792624
-0.00828506
-0.00862825
-0.00896487
-0.00919815
-0.00955417
-0.00989342
-0.0102402
-0.0104876
-0.0108552
-0.0112182
-0.0115811
-0.00567511
-0.105522
-0.103841
-0.0988319
-0.0972926
-0.0918881
-0.0848534
-0.0890667
-0.0957272
-0.0942483
-0.102255
-0.100631
-0.0795192
-0.0744944
-0.069722
-0.0651813
-0.0608632
-0.0567745
-0.0529121
-0.0492553
-0.0457838
-0.0424874
-0.0393669
-0.0364266
-0.0336692
-0.0311014
-0.0287177
-0.0265035
-0.0244415
-0.0225105
-0.0206864
-0.0189413
-0.017247
-0.0155737
-0.0138975
-0.0122124
-0.0105362
-0.00891221