/*--------------------------------*- C++ -*----------------------------------*\
| =========                 |                                                 |
| \\      /  F ield         | OpenFOAM: The Open Source CFD Toolbox           |
|  \\    /   O peration     | Version:  v1912                                 |
|   \\  /    A nd           | Website:  www.openfoam.com                      |
|    \\/     M anipulation  |                                                 |
\*---------------------------------------------------------------------------*/
FoamFile
{
    version     2.0;
    format      ascii;
    class       surfaceScalarField;
    location    "30";
    object      phi;
}
// * * * * * * * * * * * * * * * * * * * * * * * * * * * * * * * * * * * * * //

dimensions      [0 3 -1 0 0 0 0];
oriented        oriented;


internalField   nonuniform List<scalar> 
7191
(
7.52823e-07
0.00140116
-1.03101e-05
0.00406741
7.35723e-07
0.00140013
-3.03979e-05
0.00664084
-1.16288e-05
0.00407947
-7.81898e-08
0.00139963
-5.13181e-05
0.00904784
-3.28372e-05
0.0066618
-1.3917e-05
0.00409278
-1.03918e-06
0.00140003
-7.3136e-05
0.011152
-5.89366e-05
0.00907376
-3.63868e-05
0.00668388
-1.55125e-05
0.00410662
-2.58884e-06
0.00140199
-9.54671e-05
0.0128237
-8.33057e-05
0.0111763
-6.20459e-05
0.00909908
-3.98282e-05
0.00670772
-1.75075e-05
0.00412096
-4.12846e-06
0.00140561
-0.000116154
0.0139845
-0.00010712
0.0128475
-9.07915e-05
0.0112048
-6.73814e-05
0.00912624
-3.95169e-05
0.00672926
-1.7751e-05
0.00413408
-5.99717e-06
0.00141121
-0.000133574
0.0145891
-0.000128783
0.0140062
-0.000114882
0.0128714
-9.14351e-05
0.0112286
-6.57678e-05
0.00915211
-3.94048e-05
0.00675055
-1.90706e-05
0.00414677
-7.75064e-06
0.00141862
-0.000155304
0.0146242
-0.000153272
0.0146135
-0.00013727
0.0140284
-0.000118039
0.0128978
-9.39013e-05
0.0112564
-6.51088e-05
0.00917749
-4.02601e-05
0.00677141
-2.06247e-05
0.00415932
-8.969e-06
0.00142732
-0.000176373
0.0140634
-0.000176165
0.014647
-0.000162094
0.0146382
-0.000141274
0.0140515
-0.00011383
0.0129175
-8.94124e-05
0.0112805
-6.37132e-05
0.00920067
-3.96507e-05
0.0067902
-2.04857e-05
0.00417058
-1.00787e-05
0.00143715
-0.000194674
0.0129094
-0.000209623
0.0140967
-0.000189854
0.0146746
-0.00016096
0.0146577
-0.000132071
0.0140696
-0.000111176
0.0129391
-8.59752e-05
0.0113026
-6.26005e-05
0.00922341
-4.01875e-05
0.00680967
-2.27798e-05
0.00418304
-1.00749e-05
0.001447
-0.000207299
0.0111846
-0.000246886
0.0129465
-0.000221368
0.0141281
-0.000182873
0.0146964
-0.000149012
0.0146745
-0.000125731
0.014084
-0.000103136
0.0129561
-8.26842e-05
0.0113224
-6.04592e-05
0.00924349
-3.83738e-05
0.00682509
-2.30384e-05
0.0041958
-9.37281e-06
0.00145614
-0.000196708
0.00897073
-0.000288101
0.0112256
-0.000257985
0.0129829
-0.000202623
0.0141477
-0.000159657
0.0147069
-0.000133186
0.0146819
-0.000112943
0.0140936
-9.52702e-05
0.0129685
-7.74466e-05
0.0113393
-5.77761e-05
0.00926273
-3.97247e-05
0.00684158
-2.23943e-05
0.00420861
-7.90403e-06
0.00146384
0.00639252
-0.000104351
-3.70187e-05
-0.000324547
0.0090069
-0.000296301
0.0112637
-0.0002232
0.0130033
-0.000169019
0.0141568
-0.00013647
0.01471
-0.000113322
0.0146821
-0.000101036
0.0140993
-9.13463e-05
0.0129823
-7.64118e-05
0.0113578
-5.77757e-05
0.00928062
-3.83146e-05
0.00685734
-2.06745e-05
0.00422119
-5.90468e-06
0.00146954
0.00641123
-0.000206962
-0.000136636
-0.00221467
0.00217181
-6.15951e-05
-2.69448e-05
-0.00222475
-0.00033337
0.00904368
-0.000235281
0.0112755
-0.000169633
0.0130037
-0.000130857
0.0141511
-0.000109262
0.0147059
-0.000102291
0.0146833
-9.55831e-05
0.0141035
-8.42833e-05
0.0129901
-7.14365e-05
0.0113714
-5.41016e-05
0.00929626
-3.50916e-05
0.00687157
-1.80142e-05
0.00423311
-4.09095e-06
0.00147345
0.00642725
-0.000150646
-0.00019904
-0.00214899
0.00212571
-0.000183905
-0.000113882
-0.00149089
0.00144906
-1.56547e-05
-4.17607e-06
3.38696e-07
-0.00151216
-6.01131e-06
-1.27323e-05
-0.000220429
0.00902856
-0.000159436
0.0112651
-0.000122743
0.0129954
-0.000102073
0.0141438
-9.31292e-05
0.0146966
-8.83066e-05
0.014676
-8.38278e-05
0.014103
-8.06225e-05
0.0129992
-6.86245e-05
0.0113857
-5.36703e-05
0.00931469
-3.38595e-05
0.00688727
-1.46282e-05
0.00424349
-3.07027e-06
0.00147636
0.00635812
-4.95905e-05
-0.000101926
-0.0021101
0.00207852
-0.000119232
-0.000183508
-0.00139562
0.0013633
-9.47659e-05
-5.69725e-05
-1.78209e-05
-4.26723e-05
-0.000476965
0.00046667
-5.41074e-06
-0.000478734
-2.37742e-06
0.000483327
-0.000482664
-2.76893e-07
-2.25447e-06
1.7911e-06
-1.41189e-06
-0.000120729
0.00898962
-9.9306e-05
0.0112415
-8.41593e-05
0.0129774
-7.74726e-05
0.0141281
-7.51187e-05
0.0146834
-7.67934e-05
0.0146689
-8.11277e-05
0.0141034
-7.69867e-05
0.0130074
-6.61426e-05
0.0113981
-4.8883e-05
0.00932956
-3.10016e-05
0.00690347
-1.37442e-05
0.00425402
-2.59893e-06
0.00147881
0.00628706
-1.3895e-05
-3.59616e-05
-0.00203562
0.00201407
-2.81558e-05
-5.90559e-05
-0.00133767
0.00128211
-2.00207e-05
-4.37534e-05
-8.67924e-05
-7.1127e-05
-0.000415576
0.00038676
-6.6003e-05
-0.00043609
-3.64876e-05
0.000458755
-9.91874e-06
-2.00143e-05
-0.000283544
0.00027879
-6.11103e-07
-0.000285573
-3.31513e-07
-0.00048465
-2.8292e-07
0.000286815
-0.000287139
4.7321e-08
7.84959e-07
-1.63269e-07
-6.39039e-05
0.00895404
-6.1487e-05
0.0112187
-5.9143e-05
0.012959
-6.05673e-05
0.0141134
-6.5665e-05
0.0146722
-7.43798e-05
0.0146621
-7.68762e-05
0.0141032
-7.38353e-05
0.013015
-6.49657e-05
0.011414
-4.84619e-05
0.00934688
-2.75273e-05
0.00691713
-1.23796e-05
0.00426367
-2.66073e-06
0.00148132
0.00624198
-4.96048e-06
-1.39697e-05
-0.00199206
0.00198577
-7.69635e-06
-1.39761e-05
-0.00123787
0.00121371
-1.1583e-06
-2.88641e-06
-1.07848e-05
-4.04517e-06
-0.000319193
0.000306322
-7.16732e-06
-0.000342226
-2.0742e-05
0.000364473
-6.45297e-05
-4.88918e-05
-0.000229485
0.000187378
-2.39141e-05
-0.000254993
-1.09891e-05
0.000270779
-1.90165e-06
-4.23005e-06
-8.38292e-05
8.32288e-05
-8.41576e-05
-0.00028756
1.47734e-07
8.43209e-05
-8.42682e-05
1.23579e-07
-3.46903e-05
0.00892714
-3.92259e-05
0.0111987
-4.24557e-05
0.0129408
-4.81788e-05
0.0140959
-5.89737e-05
0.0146568
-6.74209e-05
0.0146525
-7.25208e-05
0.0141018
-7.20629e-05
0.013022
-6.12473e-05
0.0114267
-4.43431e-05
0.00936357
-2.79367e-05
0.00693255
-1.23497e-05
0.00427322
-3.10129e-06
0.00148424
0.00621597
-2.55214e-06
-6.16494e-06
-0.00197596
0.00197348
-2.5332e-06
-4.18266e-06
-0.00120126
0.00119398
-1.46156e-07
-3.01814e-07
-8.81605e-07
-6.51258e-07
-0.000292392
0.000291438
-2.10164e-07
-0.000294949
-3.36191e-07
0.00029801
-2.48051e-06
-9.8868e-07
-9.53774e-05
8.82033e-05
-0.000116127
0.000165019
-4.21887e-05
-6.61065e-05
4.21887e-05
-7.70963e-05
8.13264e-05
-8.41182e-05
-1.99387e-05
0.00890779
-2.65861e-05
0.0111828
-3.29162e-05
0.0129255
-4.4095e-05
0.014081
-5.48486e-05
0.0146441
-6.5093e-05
0.0146451
-7.2716e-05
0.0141024
-7.06794e-05
0.0130313
-6.00025e-05
0.0114423
-4.5656e-05
0.00938116
-2.75131e-05
0.00694758
-1.26069e-05
0.00428257
-2.97216e-06
0.00148702
0.00620052
-1.42779e-06
-3.03466e-06
-0.001969
0.00196822
-1.78625e-06
-1.69203e-06
-0.00119032
0.00118795
-2.26921e-07
4.2256e-08
-1.35416e-08
-5.12836e-07
-0.000289798
0.000289661
-1.82718e-08
-0.00029022
1.13852e-07
0.000290716
-1.65608e-07
-1.58414e-07
-8.43939e-05
8.41816e-05
-8.47321e-05
8.57208e-05
-1.24496e-05
0.00889364
-2.02395e-05
0.0111701
-2.73044e-05
0.0129087
-3.76154e-05
0.0140637
-5.22398e-05
0.0146313
-6.43747e-05
0.0146366
-7.25712e-05
0.0141042
-7.09843e-05
0.0130422
-6.269e-05
0.0114592
-4.62356e-05
0.00939975
-2.79293e-05
0.00696276
-1.2833e-05
0.00429226
-2.78041e-06
0.00148957
0.00619109
-2.02763e-06
-9.34026e-07
-0.00196588
0.0019654
-9.25971e-07
-6.87175e-07
-0.00118663
0.00118492
-3.55526e-07
2.89108e-07
1.79181e-07
-5.48868e-07
-0.000289222
0.000289028
-3.85232e-08
-0.000289322
1.3834e-07
0.000289728
-8.62584e-08
-1.08839e-07
-8.39682e-05
8.39471e-05
-8.3856e-05
8.40144e-05
-9.08016e-06
0.00888247
-1.40834e-05
0.0111568
-2.4452e-05
0.0128955
-3.6146e-05
0.0140476
-5.07001e-05
0.0146175
-6.71397e-05
0.0146311
-7.48306e-05
0.0141079
-7.54187e-05
0.0130549
-6.49082e-05
0.0114777
-4.92665e-05
0.00942095
-2.99525e-05
0.00697972
-1.33948e-05
0.00430268
-2.01449e-06
0.00149135
0.0061837
-2.23546e-06
6.22328e-07
-0.00196491
0.00196345
-5.2861e-07
-4.21793e-07
-0.00118461
0.00118365
-3.54839e-07
4.18052e-07
2.72785e-07
-6.47252e-07
-0.000288999
0.000288703
-5.55174e-08
-0.000288845
1.38715e-07
0.000289268
-5.94598e-08
-1.25242e-07
-8.38879e-05
8.38488e-05
-8.37507e-05
8.38596e-05
-6.18895e-06
0.00887459
-1.18111e-05
0.0111442
-2.24842e-05
0.0128818
-3.63921e-05
0.0140332
-5.39449e-05
0.0146043
-6.9309e-05
0.0146255
-8.05324e-05
0.0141129
-8.04788e-05
0.0130703
-6.96841e-05
0.011498
-4.87265e-05
0.00943959
-2.84991e-05
0.00699469
-1.14379e-05
0.00431195
-9.59275e-07
0.0014921
0.00617807
-1.73729e-06
1.25855e-06
-0.00196422
0.00196253
-4.83773e-07
-1.30739e-07
-0.0011835
0.001183
-4.39204e-07
4.44749e-07
3.85742e-07
-6.46399e-07
-0.000288802
0.000288508
-5.11875e-08
-0.000288534
1.58816e-07
0.000289042
-5.79783e-08
-1.34969e-07
-8.38041e-05
8.3752e-05
-8.36647e-05
8.379e-05
-4.87325e-06
0.00886766
-1.04112e-05
0.0111321
-2.09731e-05
0.0128663
-4.05441e-05
0.0140197
-6.25408e-05
0.0145974
-8.15346e-05
0.0146265
-8.9664e-05
0.014122
-8.60341e-05
0.0130866
-7.1619e-05
0.0115209
-5.13373e-05
0.00946236
-2.86141e-05
0.00701179
-9.71712e-06
0.00432058
-4.13235e-07
0.00149232
0.00617319
-1.78672e-06
1.86319e-06
-0.00196362
0.00196228
-3.31888e-07
1.88433e-07
-0.00118311
0.00118256
-4.19673e-07
5.36512e-07
4.88659e-07
-7.14557e-07
-0.000288733
0.000288358
-5.11719e-08
-0.000288443
1.65565e-07
0.000288953
-4.85659e-08
-1.30889e-07
-8.37225e-05
8.36769e-05
-8.35614e-05
8.36964e-05
-2.40249e-06
0.00885965
-9.34271e-06
0.0111204
-2.41464e-05
0.0128499
-4.36091e-05
0.0140007
-6.91798e-05
0.014585
-9.10601e-05
0.0146278
-0.0001027
0.0141387
-9.53936e-05
0.0131104
-7.58098e-05
0.0115454
-5.08532e-05
0.0094846
-2.59005e-05
0.00702793
-8.98923e-06
0.00432904
-7.61879e-07
0.00149283
0.00616979
-1.67233e-06
2.73159e-06
-0.00196379
0.00196224
-1.78449e-07
3.69321e-07
-0.00118293
0.00118247
-3.82864e-07
5.60206e-07
5.05425e-07
-6.77691e-07
-0.000288668
0.000288303
-3.96059e-08
-0.000288321
2.03149e-07
0.0002889
-4.04957e-08
-1.29162e-07
-8.36689e-05
8.36247e-05
-8.35004e-05
8.36313e-05
-2.03971e-06
0.00885233
-1.0465e-05
0.0111067
-2.87813e-05
0.012835
-5.82471e-05
0.0139897
-8.81911e-05
0.0145821
-0.000109449
0.0146345
-0.00011356
0.0141569
-0.000101389
0.0131361
-7.71907e-05
0.0115718
-4.92649e-05
0.00950801
-2.42057e-05
0.0070431
-6.0676e-06
0.00433421
1.03499e-06
0.00149156
0.00616615
-1.70885e-06
3.36534e-06
-0.00196424
0.00196259
3.78382e-08
7.4836e-07
-0.00118297
0.0011826
-3.41139e-07
5.75809e-07
5.23543e-07
-6.48263e-07
-0.000288702
0.000288364
-3.03971e-08
-0.000288301
1.71777e-07
0.00028886
-3.97848e-08
-1.11923e-07
-8.36655e-05
8.36334e-05
-8.34587e-05
8.35878e-05
-9.00661e-07
0.00884275
-1.4164e-05
0.011092
-3.90835e-05
0.0128158
-7.45709e-05
0.0139761
-0.000107896
0.0145806
-0.000127701
0.0146488
-0.000125183
0.0141809
-0.000106384
0.0131655
-7.73107e-05
0.0116
-4.40233e-05
0.00952783
-2.10589e-05
0.00705797
-4.40261e-06
0.0043394
7.19041e-07
0.00149044
0.00616364
-2.54252e-06
4.20035e-06
-0.00196499
0.00196323
1.00083e-07
9.79723e-07
-0.00118342
0.0011832
-2.85511e-07
5.85261e-07
5.32467e-07
-5.87353e-07
-0.000288799
0.000288506
-3.4036e-08
-0.000288298
8.81739e-08
0.000288941
-4.0833e-08
5.53191e-10
-8.36605e-05
8.36375e-05
-8.34852e-05
8.35971e-05
-2.50619e-06
0.00883107
-1.98656e-05
0.0110728
-5.39162e-05
0.0127951
-9.93608e-05
0.0139677
-0.000135052
0.0145881
-0.000148589
0.0146725
-0.000134831
0.0142096
-0.000106457
0.0131948
-7.13314e-05
0.0116273
-4.08426e-05
0.00954754
-1.58868e-05
0.00706929
-3.73193e-06
0.00434359
8.00328e-07
0.00148933
0.00615819
-2.38345e-06
5.36836e-06
-0.00196624
0.00196342
3.22571e-07
1.20061e-06
-0.00118417
0.00118395
-2.29382e-07
5.90675e-07
5.46765e-07
-5.27773e-07
-0.00028895
0.000288701
-2.20883e-08
-0.000288446
9.26117e-08
0.000289043
7.21864e-09
1.57218e-08
-8.36925e-05
8.36658e-05
-8.36008e-05
8.36002e-05
-4.89481e-06
0.00881611
-3.08567e-05
0.0110498
-8.11578e-05
0.0127771
-0.000132499
0.0139654
-0.000166578
0.0146065
-0.000164989
0.014703
-0.000139942
0.0142433
-0.000101974
0.0132255
-6.44875e-05
0.0116509
-3.44406e-05
0.00956592
-1.37832e-05
0.00707905
-2.98258e-07
0.00434429
1.02592e-06
0.00148787
0.00615043
-2.91949e-06
5.86999e-06
-0.00196735
0.00196483
1.75191e-07
1.45179e-06
-0.00118507
0.00118503
-1.80189e-07
5.84909e-07
5.47338e-07
-4.62726e-07
-0.000289239
0.000289035
-1.09081e-08
-0.000288734
9.67273e-08
0.000289285
-2.56552e-08
2.85239e-08
-8.3788e-05
8.3773e-05
-8.36921e-05
8.36764e-05
-1.08584e-05
0.00879624
-5.29948e-05
0.0110219
-0.000117893
0.0127629
-0.000174802
0.0139741
-0.000194121
0.014636
-0.000171618
0.0147349
-0.000134453
0.0142759
-9.10902e-05
0.0132521
-5.51606e-05
0.0116715
-2.78792e-05
0.00957977
-7.92337e-06
0.00708641
3.05209e-07
0.00434484
1.33457e-06
0.00148654
0.00613834
-3.93892e-06
5.35271e-06
-0.00196879
0.00196578
1.42388e-07
1.91764e-06
-0.00118636
0.00118607
-1.13072e-07
6.0976e-07
5.43649e-07
-4.17479e-07
-0.000289576
0.000289412
-3.55516e-09
-0.000289116
1.34443e-07
0.000289577
1.51475e-08
4.2034e-09
-8.38792e-05
8.38752e-05
-8.37791e-05
8.37506e-05
-2.24246e-05
0.008766
-8.7377e-05
0.0109918
-0.000170313
0.0127589
-0.000218746
0.0139991
-0.000207601
0.0146722
-0.000169628
0.0147702
-0.00012022
0.0143049
-7.87411e-05
0.0132754
-4.44488e-05
0.0116878
-1.89102e-05
0.00959047
-3.17347e-06
0.00708959
3.84954e-06
0.00434204
1.81691e-06
0.00148455
0.00611633
-5.95149e-06
5.89183e-06
-0.00196904
0.00196511
7.66035e-08
2.10655e-06
-0.00118778
0.00118749
-1.37698e-07
6.06069e-07
5.56086e-07
-3.45922e-07
-0.000290047
0.000289928
1.85994e-08
-0.000289552
1.2389e-07
0.000289992
-2.66025e-08
2.8155e-08
-8.40351e-05
8.40379e-05
-8.38976e-05
8.38934e-05
-4.6514e-05
0.00872566
-0.000146181
0.0109682
-0.000234626
0.0127753
-0.000246336
0.0140381
-0.000207019
0.0147096
-0.000151799
0.0148016
-0.000101536
0.0143275
-6.1403e-05
0.0132922
-3.27323e-05
0.0117014
-1.11044e-05
0.00959821
4.39752e-07
0.00709306
3.87253e-06
0.00434021
6.84945e-07
0.00148383
0.00607858
-1.17409e-05
3.48668e-06
-0.00196953
0.00196386
-9.45122e-08
1.5081e-06
-0.00118934
0.00118897
-1.47735e-07
6.59316e-07
6.17782e-07
-3.52175e-07
-0.00029061
0.000290461
2.3928e-08
-0.000290124
1.28301e-07
0.000290511
-1.83694e-08
4.53463e-08
-8.41691e-05
8.41939e-05
-8.40423e-05
8.40142e-05
-9.59528e-05
0.00867602
-0.000227064
0.0109611
-0.000282362
0.0128115
-0.000249615
0.0140806
-0.000184451
0.0147421
-0.000123105
0.0148229
-7.69604e-05
0.0143427
-4.44356e-05
0.0133036
-1.93989e-05
0.0117096
-4.56642e-06
0.00960314
3.73501e-06
0.00709308
5.82346e-06
0.0043349
-3.41298e-07
0.00148393
0.00601305
-2.74167e-05
-2.4682e-06
-0.00196677
0.00195731
-1.98078e-06
6.42283e-07
-0.00119021
0.00118975
-1.35309e-07
6.12059e-07
6.51238e-07
-3.63707e-07
-0.000291204
0.000291032
4.18123e-08
-0.000290699
1.65209e-07
0.000291072
1.69049e-08
2.62847e-08
-8.43544e-05
8.43844e-05
-8.42235e-05
8.41781e-05
-0.000186173
0.00863563
-0.000313245
0.0109922
-0.000292432
0.0128542
-0.000215636
0.0141116
-0.000146545
0.0147652
-9.33333e-05
0.0148389
-5.41166e-05
0.0143523
-2.58173e-05
0.0133099
-8.92514e-06
0.0117138
1.87022e-06
0.00960503
5.10683e-06
0.00709396
6.27739e-06
0.00432839
-8.6532e-07
0.00148462
0.00592508
-7.31809e-05
-2.46801e-05
-0.001957
0.0019379
-7.98888e-06
-2.05764e-06
-0.00119021
0.0011883
-3.65909e-07
5.02308e-07
5.54533e-07
-3.28645e-07
-0.000291795
0.000291683
1.29258e-08
-0.00029129
1.25714e-07
0.00029172
-1.97028e-08
7.49333e-08
-8.45992e-05
8.46493e-05
-8.44308e-05
8.44045e-05
-0.000322563
0.00864507
-0.000334205
0.0110339
-0.000244909
0.0128832
-0.000166157
0.0141308
-0.000104106
0.0147756
-6.05245e-05
0.0148451
-2.98096e-05
0.0143561
-1.10136e-05
0.0133119
6.01481e-07
0.0117151
7.22084e-06
0.00960293
1.08958e-05
0.00708934
5.12525e-06
0.00432225
-8.07629e-07
0.0014851
0.00588613
-0.000183743
-9.97759e-05
-0.00192697
0.00188602
-3.19686e-05
-1.36631e-05
-0.00118614
0.00117858
-6.7445e-07
4.54012e-07
6.79269e-07
-5.14314e-07
-0.000292272
0.000291951
2.73215e-08
-0.000291885
1.55297e-07
0.000292258
1.30123e-08
6.17863e-08
-8.48411e-05
8.48695e-05
-8.471e-05
8.4635e-05
-0.000366754
0.00867746
-0.000260499
0.0110491
-0.000174842
0.0128914
-0.000112282
0.0141386
-6.43186e-05
0.0147792
-3.12181e-05
0.0148465
-1.00827e-05
0.0143551
4.10092e-06
0.0133084
1.119e-05
0.011711
1.36307e-05
0.00960017
1.07627e-05
0.00708375
5.7455e-06
0.00431571
-1.14519e-07
0.00148502
0.00589918
-0.000172014
-0.000207913
-0.0018495
0.00180177
-0.000135927
-6.32018e-05
-0.00116605
0.00113797
-3.53823e-06
-1.86771e-07
2.33656e-07
-1.33217e-06
-0.000292504
0.000291859
2.6373e-08
-0.000292122
1.18901e-07
0.000292707
-2.67213e-08
9.41374e-08
-8.5122e-05
8.51781e-05
-8.49555e-05
8.48937e-05
-0.000241615
0.00865832
-0.000162657
0.0110364
-0.000106827
0.0128855
-6.12024e-05
0.0141352
-2.93502e-05
0.0147772
-7.27524e-06
0.0148436
8.47973e-06
0.0143506
1.39277e-05
0.0133055
1.83975e-05
0.0117062
1.65021e-05
0.00959449
1.73551e-05
0.00707224
6.78992e-06
0.00430872
1.3057e-06
0.00148332
0.00581764
-4.62978e-05
-0.000114099
-0.00177664
0.00174365
-0.000139081
-0.000182811
-0.0010887
0.00100926
-4.03293e-05
-1.61045e-05
-2.63114e-06
-1.12624e-05
-0.000290674
0.000287598
-4.1528e-07
-0.000290847
1.25508e-08
0.000292202
-8.25744e-08
3.50147e-08
-8.53944e-05
8.54416e-05
-8.52604e-05
8.51663e-05
-0.000118732
0.0086138
-8.7974e-05
0.0110171
-5.58267e-05
0.0128798
-2.59959e-05
0.0141316
-3.11635e-06
0.0147729
1.4852e-05
0.0148371
2.30535e-05
0.0143415
2.52953e-05
0.0132986
2.48303e-05
0.0116978
2.17842e-05
0.00958998
1.45261e-05
0.00706442
1.13467e-05
0.00429857
4.39518e-06
0.00147867
0.00573753
-5.49173e-06
-3.35261e-05
-0.00168982
0.00166561
-2.21569e-05
-6.02472e-05
-0.000962463
0.000894394
-2.13079e-05
-4.97339e-05
-6.57466e-05
-7.0296e-05
-0.000264587
0.000235402
-1.11198e-05
-0.000276291
-4.37223e-06
0.000285691
-6.95877e-07
-1.84823e-06
-8.54228e-05
8.50237e-05
-8.54022e-05
8.53672e-05
-5.06017e-05
0.00857607
-3.86992e-05
0.0109996
-1.80305e-05
0.0128716
3.39481e-06
0.0141249
2.27116e-05
0.014765
3.28009e-05
0.0148274
3.48975e-05
0.0143318
3.68013e-05
0.0132864
3.16348e-05
0.0116878
2.76756e-05
0.00957692
2.23439e-05
0.00705361
1.22386e-05
0.00429068
5.68237e-06
0.00147258
0.00569459
2.68182e-06
-1.07188e-05
-0.00164121
0.00163823
-2.79207e-06
-9.18286e-06
-0.000842828
0.000821497
-1.16254e-07
-7.54625e-07
-6.8035e-06
-1.83045e-06
-0.000116589
9.52843e-05
-0.000166341
0.000194583
-2.49426e-05
-4.20658e-05
-7.81249e-05
6.70116e-05
-8.24884e-05
8.43366e-05
-1.82086e-05
0.00855519
-9.88187e-06
0.010991
8.15075e-06
0.0128664
2.63067e-05
0.0141211
3.80334e-05
0.0147597
4.47471e-05
0.0148175
4.56065e-05
0.0143229
4.29285e-05
0.0132751
3.66076e-05
0.0116789
3.16286e-05
0.00956748
2.49018e-05
0.00704075
1.75455e-05
0.00427862
8.90178e-06
0.00146337
0.00567604
4.31395e-06
-4.1233e-06
-0.00162858
0.00163068
3.74406e-07
-1.1727e-06
-0.000812372
0.00080924
1.10139e-07
1.38429e-08
-1.09308e-07
2.5707e-08
-8.59186e-05
8.58098e-05
-8.66619e-05
8.84923e-05
4.20658e-05
-8.12389e-07
0.00854587
1.0449e-05
0.0109885
2.61058e-05
0.0128664
4.31082e-05
0.0141159
5.44868e-05
0.0147499
5.86601e-05
0.0148044
5.71384e-05
0.0143087
5.00754e-05
0.0132614
4.39856e-05
0.0116663
3.9845e-05
0.00955261
2.97396e-05
0.00702877
2.24169e-05
0.00426516
1.37351e-05
0.00144959
0.00567281
4.38939e-06
-2.05858e-06
-0.00162625
0.00162984
7.89169e-07
3.00398e-07
-0.000807867
0.000807969
4.44747e-08
9.71738e-08
9.29733e-08
4.08773e-08
-8.57204e-05
8.57955e-05
-8.57164e-05
8.56907e-05
8.61916e-06
0.00854735
2.29228e-05
0.0109911
4.11688e-05
0.0128679
5.72866e-05
0.014113
6.76794e-05
0.0147409
6.87779e-05
0.0147927
6.5687e-05
0.0142929
5.77863e-05
0.0132476
5.20444e-05
0.0116541
4.25739e-05
0.0095397
3.69654e-05
0.00701414
2.55124e-05
0.00425334
1.61891e-05
0.00143316
0.00567672
4.64021e-06
-6.46703e-08
-0.00162736
0.00163098
9.47715e-07
4.89273e-07
-0.00080818
0.000808984
2.65176e-08
7.55178e-08
7.78138e-08
-5.89182e-09
-8.59886e-05
8.60093e-05
-8.59105e-05
8.58696e-05
1.5427e-05
0.00855443
3.19838e-05
0.011
5.1653e-05
0.0128734
6.70569e-05
0.0141134
7.60924e-05
0.0147335
7.84946e-05
0.01478
7.21341e-05
0.0142786
6.67892e-05
0.0132327
5.89555e-05
0.0116376
4.97684e-05
0.00952696
4.31366e-05
0.00699675
3.22767e-05
0.00423748
2.06253e-05
0.00141279
0.00568527
5.2564e-06
1.57368e-06
-0.00163021
0.00163391
1.13317e-06
7.95996e-07
-0.000809453
0.000810567
5.32683e-08
2.00395e-08
1.57688e-08
3.80916e-08
-8.6154e-05
8.61976e-05
-8.60799e-05
8.60858e-05
1.94358e-05
0.00856663
3.93494e-05
0.0110117
6.12623e-05
0.0128787
7.80572e-05
0.0141114
8.60569e-05
0.0147261
8.66712e-05
0.0147654
8.17578e-05
0.0142635
7.30744e-05
0.0132185
6.16087e-05
0.0116258
5.71204e-05
0.00951321
4.84594e-05
0.00698086
4.27329e-05
0.00421553
2.49145e-05
0.00138768
0.00569691
5.19474e-06
2.40865e-06
-0.00163451
0.00163871
1.26563e-06
1.08007e-06
-0.000811376
0.000812641
1.61546e-08
1.54746e-07
3.84885e-08
1.48783e-08
-8.62965e-05
8.63874e-05
-8.62639e-05
8.62258e-05
2.42598e-05
0.00858118
4.70512e-05
0.0110256
6.94246e-05
0.0128872
8.73727e-05
0.0141099
9.63126e-05
0.0147163
9.47763e-05
0.0147525
8.85211e-05
0.0142482
8.13472e-05
0.0131989
7.68618e-05
0.0116061
6.7602e-05
0.00949413
6.34509e-05
0.00696025
4.91288e-05
0.00419141
3.05499e-05
0.00135722
0.00571241
4.75464e-06
4.0005e-06
-0.00163997
0.00164401
1.3592e-06
1.26867e-06
-0.000813735
0.000815268
-3.5984e-08
1.14376e-07
8.1659e-08
-4.83954e-09
-8.66391e-05
8.67122e-05
-8.64625e-05
8.64476e-05
2.76823e-05
0.00860024
5.27086e-05
0.0110417
7.71666e-05
0.012897
9.59394e-05
0.0141103
0.000102885
0.0147085
0.00010374
0.0147374
9.95841e-05
0.01423
9.15235e-05
0.0131842
8.80473e-05
0.0115858
8.1055e-05
0.00947696
7.10048e-05
0.00693877
6.05271e-05
0.00416151
4.03338e-05
0.00131674
0.00573002
5.00752e-06
4.82495e-06
-0.00164651
0.00164999
1.47353e-06
1.61815e-06
-0.000816592
0.000818192
-6.45993e-08
1.85486e-07
1.01133e-07
-4.95645e-08
-8.69604e-05
8.69968e-05
-8.68175e-05
8.68223e-05
3.16607e-05
0.00862068
6.04948e-05
0.0110581
8.63719e-05
0.0129066
0.000103368
0.0141099
0.000111906
0.0147004
0.000113054
0.0147241
0.000107614
0.0142141
0.000100995
0.0131716
9.42169e-05
0.011573
9.37105e-05
0.0094543
8.54937e-05
0.00691374
7.32481e-05
0.00412856
6.26535e-05
0.00125401
0.00575083
5.26572e-06
5.61531e-06
-0.00165313
0.00165648
1.85333e-06
1.80605e-06
-0.000819814
0.000821556
-7.5735e-08
1.78122e-07
1.62179e-07
-5.20065e-08
-8.73008e-05
8.73174e-05
-8.70818e-05
8.71314e-05
3.68891e-05
0.00864407
6.91297e-05
0.0110749
9.68689e-05
0.0129127
0.000113179
0.0141087
0.000122943
0.0146908
0.000121342
0.0147107
0.000117975
0.0141973
0.00011294
0.0131528
0.000109165
0.0115575
0.000106085
0.00943384
0.000101824
0.00688523
0.000105232
0.00408591
9.25915e-05
0.00577541
5.7237e-06
6.37221e-06
-0.00166013
0.00166397
1.61366e-06
2.08001e-06
-0.000823358
0.000825394
1.80709e-08
1.75748e-07
1.75058e-07
-4.95356e-08
-8.76769e-05
8.76896e-05
-8.74631e-05
8.75151e-05
4.45248e-05
0.00866816
7.65285e-05
0.011095
0.000102618
0.0129234
0.00012204
0.0141097
0.000131177
0.0146811
0.000133526
0.0146953
0.00012936
0.0141811
0.000124347
0.0131379
0.000121992
0.0115417
0.000119887
0.0094157
0.000133058
0.00685732
0.000154039
0.00580352
8.62342e-06
7.7688e-06
-0.00166863
0.00167344
1.08469e-06
1.84473e-06
-0.000827446
0.000829296
-3.37428e-08
1.82002e-07
2.11038e-07
-5.67245e-08
-8.80677e-05
8.81798e-05
-8.78534e-05
8.7903e-05
5.53267e-05
0.00868931
8.49286e-05
0.0111125
0.000110308
0.012935
0.000129734
0.0141113
0.000140295
0.0146746
0.000143955
0.0146811
0.000141042
0.0141647
0.00014093
0.0131189
0.000141257
0.0115202
0.000152705
0.00939597
0.000183173
0.00582752
1.75234e-05
1.35353e-05
-0.00168119
0.00169106
-1.14849e-06
1.40801e-07
-0.000831132
0.000832545
-1.3136e-08
7.77886e-08
1.29731e-07
1.2579e-08
-8.85956e-05
8.86619e-05
-8.83738e-05
8.84305e-05
6.10263e-05
0.00871286
8.91664e-05
0.0111334
0.000118729
0.0129461
0.000140654
0.0141112
0.000153568
0.0146653
0.000154338
0.014668
0.000154271
0.0141513
0.00015456
0.0131056
0.000166376
0.0115065
0.000197517
0.00585363
1.66352e-05
1.81916e-05
-0.00169394
0.00170351
4.98515e-06
2.9531e-06
1.80537e-06
8.90969e-06
-0.000832644
0.000492379
0.000339367
-2.05035e-07
2.47787e-07
1.45557e-07
3.31841e-08
-8.89681e-05
8.90619e-05
-8.88472e-05
8.88346e-05
6.19489e-05
0.00874012
9.57285e-05
0.0111565
0.00012628
0.0129606
0.000151627
0.0141132
0.000162867
0.0146569
0.000167527
0.0146548
0.000165651
0.0141403
0.000175044
0.0130969
0.000199645
0.00588551
1.4013e-05
1.59561e-05
-0.00171199
0.0017201
4.30818e-06
4.19524e-06
5.1086e-06
4.63297e-06
-0.000528433
0.000532603
8.75494e-07
-0.000523921
-1.49498e-06
-0.000516567
-5.48891e-06
-1.52449e-05
0.000320439
3.76276e-06
-8.95755e-05
8.94525e-05
-8.92841e-05
8.92509e-05
6.29094e-05
0.00877282
0.000101473
0.0111812
0.00013739
0.0129748
0.000163117
0.0141131
0.000175567
0.014649
0.000179756
0.0146408
0.000185138
0.0141302
0.000202991
0.00592085
1.24407e-05
1.51205e-05
-0.00172882
0.00173659
3.15414e-06
3.09201e-06
3.62458e-06
3.65414e-06
-0.000540515
0.000542605
2.28616e-06
-0.000538397
2.12444e-06
-0.000535276
2.03496e-06
1.98959e-06
-0.000314587
0.000315612
-5.89158e-08
-0.000315346
-6.5819e-07
-3.61663e-07
9.32444e-05
6.58447e-05
0.00880864
0.000108639
0.0112103
0.000149508
0.0129886
0.000174366
0.0141143
0.000186617
0.0146421
0.000191644
0.0146342
0.00020193
0.00596054
1.1579e-05
1.47438e-05
-0.00174597
0.00175292
2.40508e-06
3.08889e-06
2.7822e-06
2.99896e-06
-0.000548373
0.000549937
1.66184e-06
-0.000546707
1.48057e-06
-0.000544458
1.43402e-06
1.83599e-06
-0.000320515
0.000322372
5.31744e-07
-0.000318844
5.23985e-07
-0.000317221
4.78394e-07
4.09551e-07
-9.22539e-05
9.22504e-05
-9.28828e-05
6.90577e-05
0.00884843
0.000118917
0.0112408
0.000160796
0.013002
0.000186062
0.0141148
0.000197171
0.0146365
0.00019694
0.00600366
1.11018e-05
1.49565e-05
-0.00176243
0.00176903
2.07627e-06
2.91513e-06
2.20786e-06
3.04301e-06
-0.000555087
0.000556291
1.24093e-06
-0.000553197
1.23827e-06
-0.000551598
1.2347e-06
1.36819e-06
-0.000326136
0.00032752
3.76707e-07
-0.000324906
3.31736e-07
-0.000323765
3.73164e-07
4.78058e-07
-9.37166e-05
9.43072e-05
-9.31632e-05
-9.266e-05
7.54106e-05
0.00889216
0.000131992
0.0112698
0.000174885
0.0130132
0.000196538
0.0141153
0.00018966
0.00605236
1.16346e-05
1.54525e-05
-0.0017788
0.00178505
2.0183e-06
2.85018e-06
2.10881e-06
3.07296e-06
-0.000561029
0.000561936
1.17182e-06
-0.00055917
1.06963e-06
-0.000557938
9.98715e-07
1.40901e-06
-0.000330692
0.000331653
3.24792e-07
-0.000329622
2.33617e-07
-0.000328621
3.01108e-07
2.96849e-07
-9.55555e-05
9.59899e-05
-9.51885e-05
-9.47852e-05
8.56269e-05
0.00893891
0.000148927
0.0112958
0.000187908
0.0130217
0.000182576
0.00610801
1.3064e-05
1.70682e-05
-0.00179493
0.00180151
2.46725e-06
2.62273e-06
2.46919e-06
3.07474e-06
-0.000566544
0.000567148
1.36808e-06
-0.000564762
1.04857e-06
-0.000563627
9.62445e-07
1.37231e-06
-0.000334393
0.000335218
3.19892e-07
-0.00033356
2.63648e-07
-0.00033277
2.34187e-07
3.01375e-07
-9.68756e-05
9.72328e-05
-9.66139e-05
-9.62867e-05
0.00010376
0.00898408
0.000168039
0.0113156
0.000173609
0.0061724
1.86926e-05
2.08445e-05
-0.00181287
0.00182008
2.88524e-06
3.01316e-06
2.73204e-06
2.9303e-06
-0.000571856
0.000572813
1.42893e-06
-0.000570431
1.14582e-06
-0.000569003
9.8967e-07
1.1845e-06
-0.000337671
0.000338603
3.28455e-07
-0.000336887
2.41898e-07
-0.00033632
3.65972e-07
2.55128e-07
-9.80499e-05
9.8364e-05
-9.77773e-05
-9.75341e-05
0.000129476
0.00902269
0.000159801
0.00623972
3.25765e-05
2.96175e-05
-0.00183363
0.00184339
4.50301e-06
4.44728e-06
3.60112e-06
3.62877e-06
-0.000577809
0.000578921
1.66473e-06
-0.000576046
1.17614e-06
-0.000574467
1.07316e-06
1.22474e-06
-0.000340903
0.000341888
2.74412e-07
-0.000340104
2.71269e-07
-0.000339444
2.43956e-07
3.03574e-07
-9.9198e-05
9.94763e-05
-9.8972e-05
-9.86192e-05
0.000134732
4.85778e-05
5.75492e-05
-0.00186049
0.00187483
9.78871e-06
8.41271e-06
6.44858e-06
6.00905e-06
-0.00058552
0.000587255
2.65871e-06
-0.000583128
1.97187e-06
-0.000581043
1.41771e-06
1.44558e-06
-0.000344281
0.000345426
3.19265e-07
-0.000343482
2.59885e-07
-0.000342769
2.31298e-07
2.86948e-07
-0.000100218
0.000100404
-9.99876e-05
-9.97799e-05
-0.0018989
2.11241e-05
2.60445e-05
1.87868e-05
1.46394e-05
-0.000596817
0.0005999
6.60245e-06
-0.000593094
4.6164e-06
-0.000590213
3.47866e-06
2.99707e-06
-0.000348996
0.000350874
6.00846e-07
-0.000347539
3.7685e-07
-0.00034652
2.52048e-07
2.87444e-07
-0.000101068
0.000101276
-0.000100868
-0.000100691
-0.000615106
2.18397e-05
-0.000609474
2.03862e-05
-0.000604614
1.38658e-05
9.88567e-06
-0.000358508
0.000362654
2.32546e-06
-0.000355498
1.47878e-06
-0.000353095
9.49097e-07
7.22506e-07
-0.000102065
0.000102557
-0.000101755
-0.000101563
-0.00038294
2.4206e-05
-0.000375659
1.30606e-05
-0.00036877
6.89741e-06
3.73666e-06
-0.000105599
0.00010784
-0.000104177
-0.00010328
-0.000131474
-0.000118442
-0.000111577
-2.23148e-05
2.23371e-05
-8.62703e-05
-3.77602e-05
0.000101932
-1.25743e-05
3.48571e-05
-6.00736e-05
-2.62792e-05
-0.000196689
-5.58448e-05
0.000214684
-3.58298e-05
0.000125406
-5.78751e-06
4.0762e-05
-1.17843e-05
-4.85976e-05
-0.000182566
-4.05387e-05
4.94599e-05
-0.000728599
-0.000138598
0.000763357
0.000228458
-2.15406e-05
0.000141397
-2.46881e-06
4.32497e-05
-2.55156e-05
-0.00016894
-4.17565e-06
-4.4709e-05
-0.000104058
-0.000691672
9.93037e-05
-0.00285458
-0.00031042
0.0029263
4.08258e-05
0.000801527
2.0617e-05
0.000247851
-1.16559e-05
0.000150723
-1.43379e-06
4.46844e-05
-1.37907e-05
-0.000159662
-1.97359e-06
-4.29447e-05
5.65733e-05
-0.00275921
-0.000255759
7.06652e-06
-0.000656214
-0.00502551
-0.00038517
0.00510264
7.48944e-05
-0.000236459
0.00305729
3.23437e-05
0.000848955
1.94491e-05
8.46307e-06
0.000256755