/*--------------------------------*- C++ -*----------------------------------*\
| =========                 |                                                 |
| \\      /  F ield         | OpenFOAM: The Open Source CFD Toolbox           |
|  \\    /   O peration     | Version:  v1912                                 |
|   \\  /    A nd           | Website:  www.openfoam.com                      |
|    \\/     M anipulation  |                                                 |
\*---------------------------------------------------------------------------*/
FoamFile
{
    version     2.0;
    format      ascii;
    class       surfaceScalarField;
    location    "330";
    object      phi;
}
// * * * * * * * * * * * * * * * * * * * * * * * * * * * * * * * * * * * * * //

dimensions      [0 3 -1 0 0 0 0];
oriented        oriented;


internalField   nonuniform List<scalar> 
7354
(
-3.45625e-05
0.00993345
-0.000159748
0.0100949
0.00076514
0.00916975
-0.000364811
0.0102383
0.00121173
0.00964837
0.00285908
0.00313586
0.00317769
-0.000600449
0.0102814
0.00134147
0.0101085
0.0046614
0.00358576
0.00426037
0.00195562
0.000584793
0.000597595
0.00396097
0.000604918
0.000567456
-0.000865448
0.0102956
0.00133586
0.010287
0.0053636
0.00460197
0.00480427
0.00558386
0.00122989
0.00073295
0.00639952
0.0017771
0.00166763
-0.000598445
0.00118323
-0.00175069
0.0023556
-0.00116534
0.0103131
0.00120013
0.0104313
0.00533528
0.0103154
0.0070908
0.00203484
0.00187584
0.00714027
0.00475482
-0.00308855
0.00431845
-0.00431878
0.00473681
0.00135907
0.0016673
-0.0014979
0.0103347
0.000933423
0.0105798
0.0047995
0.010967
-0.00981049
0.0160651
0.00532356
0.00587744
-0.00515851
0.0052543
0.00193906
0.00145414
-0.00425866
0.00231198
0.00214532
-0.0016673
0.00302639
-0.00185643
0.010356
0.000549759
0.0107183
0.00403618
0.0113432
0.0139592
0.0130729
0.00599166
-0.00313429
0.00418978
-0.00172361
0.00621632
0.00565277
-0.00448053
0.00216094
-0.00265115
0.00182883
-0.00216094
0.0016551
-0.0022349
0.0103753
7.30128e-05
0.0108328
0.00320117
0.0115533
0.011425
0.0138773
-0.00319011
0.00988664
0.0125927
0.00218575
0.00292043
-0.000371106
-0.000545327
-0.00112909
0.00123431
0.00464841
0.000526016
-0.00262907
0.0103925
-0.000472271
0.0109206
0.00234053
0.0116934
0.00897638
0.0140019
0.00896603
0.0147979
-0.00161478
0.00448046
0.0110251
-0.00129814
0.000861595
-0.000110786
0.00224334
-7.37128e-05
-0.000931687
0.000668587
-0.000108012
-0.000242709
0.00389523
0.000283306
-0.00303393
0.0104054
-0.00106493
0.0109851
0.00146173
0.0117993
0.00677029
0.0138995
0.00746175
0.0155061
0.00474889
0.0145295
0.00163047
0.00989242
-9.70035e-05
-0.000400711
-0.000637779
0.00323486
0.000576839
-1.90377e-05
0.00177533
-8.15182e-05
-8.82598e-05
0.000516011
-1.28845e-05
0.000175294
-0.00344811
0.0104172
-0.00169055
0.0110311
0.000567584
0.0118793
0.00481771
0.0137519
0.00582309
0.0155381
0.00420326
0.0160518
0.00225975
0.0139002
0.000306442
0.00918967
0.000239233
0.000157049
-0.00299487
0.00290646
-8.58315e-06
-0.00016071
0.000156257
0.00164384
-2.28201e-05
-6.3873e-06
-0.000447971
0.000389075
-2.26221e-05
-2.02204e-05
0.000143372
-0.00387023
0.0104271
-0.00233908
0.0110657
-0.00033836
0.0119369
0.00307374
0.0136232
0.00422055
0.0153544
0.00329437
0.0164471
0.00222949
0.016082
0.000964048
0.0132426
-2.05992e-05
0.0088629
0.000113638
0.00023372
-0.00288288
0.00287056
0.000251538
0.000180632
0.00163656
3.98894e-06
-5.2813e-06
0.00036814
-1.88211e-06
0.00036279
-1.03323e-06
-0.000123152
0.00010053
-0.00429704
0.0104338
-0.0030043
0.0110923
-0.00125152
0.0119788
0.00148615
0.0135245
0.00269625
0.0151475
0.00226652
0.0163823
0.00176396
0.0169126
0.0011788
0.0158673
0.000426888
0.0127951
7.5791e-05
0.00876332
-2.75916e-05
5.1388e-05
-0.00286895
0.00288254
0.00010005
0.000235324
-0.00171817
0.00175063
0.000113361
0.000105712
2.9123e-05
6.98938e-05
-0.000357904
0.000362476
-5.81823e-07
-3.92911e-07
9.86479e-05
9.76147e-05
-0.00473067
0.0104416
-0.00368622
0.0111157
-0.00216966
0.0120104
1.08716e-05
0.0134541
0.0012454
0.0149753
0.00121703
0.016197
0.00109316
0.0170531
0.000981013
0.0171104
0.00065499
0.0156392
0.000301633
0.0125693
9.49921e-05
-6.48257e-05
0.00873318
-0.00289258
0.00272508
0.000139903
4.13485e-05
-0.00180144
0.00185783
8.40398e-06
3.52625e-05
0.000124824
5.96906e-05
-0.000455444
0.000483212
8.55926e-05
-0.000420481
7.07463e-05
0.000380855
1.07432e-05
3.02678e-05
-9.72218e-05
9.66401e-05
-0.0051668
0.0104471
-0.00437936
0.0111348
-0.00309174
0.0120377
-0.00138662
0.0134079
-0.000148806
0.0148483
0.000173204
0.0160192
0.000348878
0.0169413
0.000542617
0.0174915
0.000575007
0.0171904
0.000457614
0.0154832
0.000249669
0.0124146
-0.00205068
0.00474748
-1.0639e-05
-2.59072e-05
-4.19219e-06
0.000134685
0.00860272
-0.00189358
-1.22319e-05
-4.96245e-06
7.61608e-06
-2.02284e-06
-0.000570624
0.000575672
3.35604e-06
-0.000550537
1.51739e-05
0.000526415
8.1619e-05
3.5569e-05
-0.000208397
0.000237472
5.65174e-05
-0.000137651
0.000107383
-0.00560741
0.0104536
-0.00508756
0.0111553
-0.00402056
0.0120636
-0.00273945
0.0133905
-0.00150646
0.0147655
-0.000862114
0.0158836
-0.000417266
0.0167853
-5.94421e-06
0.0174899
0.000269097
0.0177974
0.000409051
0.0172389
0.000376448
0.0153565
0.000184259
0.0122262
0.00476109
0.000108748
1.23321e-05
-0.000877713
0.000869447
-1.47519e-06
-8.99015e-07
-0.000530331
-2.48135e-07
-1.18981e-06
-0.000371851
-3.62697e-05
0.000252679
0.00838631
-0.000575042
3.248e-05
-0.000579841
-1.64765e-07
0.000581366
1.92054e-06
-4.96777e-07
-0.000330774
0.000334132
-1.99545e-09
-0.000317972
2.3708e-06
0.00029103
2.80591e-05
8.62779e-06
5.65173e-05
-0.00605416
0.0104607
-0.00580882
0.0111749
-0.00495293
0.0120876
-0.00407759
0.0134017
-0.00284382
0.0147279
-0.00189326
0.0157967
-0.00118698
0.0166533
-0.000593149
0.0173725
-0.000151273
0.0179102
0.000175632
0.0180308
0.000355034
0.0172604
0.000327802
0.0152129
0.000179234
0.0120106
0.00466318
0.000168584
0.000181999
-0.000881813
0.000962917
2.2553e-05
5.09147e-06
1.17816e-06
-1.21154e-06
-8.92559e-05
8.77807e-05
-9.01549e-05
-9.04031e-05
-9.15928e-05
-0.000336274
-3.0965e-06
4.98022e-05
4.8369e-05
0.00828813
-0.000335716
-7.23138e-07
0.000335778
2.73637e-07
-4.34168e-07
-9.55751e-05
9.5573e-05
-9.32043e-05
8.45765e-05
-0.00650588
0.0104667
-0.00654097
0.0111928
-0.0058932
0.0121152
-0.00543726
0.0134472
-0.00418103
0.0147389
-0.00292262
0.0157573
-0.00195568
0.0165654
-0.00119144
0.0172516
-0.000618797
0.0178401
-0.00017141
0.0182573
0.00016822
0.0182177
0.000333825
0.0172543
0.000322911
0.0150693
0.000195116
0.0118653
0.00468128
-1.98588e-05
5.01272e-05
-0.00101573
0.00108503
2.55854e-05
7.36984e-05
7.10641e-05
5.81197e-05
-9.28388e-05
0.000115392
-8.77473e-05
-8.65691e-05
-9.46894e-05
0.000125096
-7.33611e-05
0.00823639
-9.54125e-05
9.58466e-05
-0.00696596
0.010476
-0.00728652
0.0112123
-0.00684572
0.0121453
-0.00684712
0.013525
-0.00553449
0.0148007
-0.00395569
0.015772
-0.00272313
0.0165247
-0.00179051
0.0171645
-0.00110156
0.0177344
-0.000565595
0.0182343
-0.000127388
0.0185529
0.000185603
0.0183659
0.000335864
0.0172414
0.000305842
0.0149585
0.000210113
0.0117803
0.00465509
-2.93206e-05
-1.78521e-05
-0.00112685
0.00111818
-7.58612e-06
-3.60749e-06
-1.35567e-06
9.67073e-06
-0.000248004
0.000266516
7.07449e-06
-0.000198022
2.37164e-05
-0.000173511
4.65542e-05
0.000111186
-6.5452e-05
0.00819064
-0.00743326
0.0104843
-0.00803765
0.0112271
-0.00781322
0.0121798
-0.00834272
0.0136409
-0.00691995
0.0149105
-0.00499197
0.015837
-0.00348651
0.0165354
-0.00238766
0.0171219
-0.0015854
0.0176483
-0.000975563
0.0181444
-0.000476985
0.0185839
-7.52687e-05
0.0188138
0.000205464
0.0184963
0.000313075
0.0172341
0.000279648
0.014889
0.000179797
0.0117117
0.0046252
-1.56819e-05
-1.98967e-05
-0.00110631
0.00108735
-5.96326e-06
-4.39921e-06
-3.16344e-06
-2.8197e-06
-0.000271965
0.000266473
-2.09432e-06
-0.000273975
-1.59778e-06
-0.000274573
-7.57757e-07
1.61385e-06
-7.02706e-05
7.73451e-05
-4.65542e-05
5.33786e-06
4.80192e-05
0.00813726
-0.00790793
0.0104936
-0.00878928
0.011236
-0.00880718
0.012221
-0.0099696
0.0138067
-0.00836261
0.0150836
-0.0060396
0.0159581
-0.00425
0.0166005
-0.0029799
0.0171276
-0.0020642
0.0176007
-0.00138578
0.0180586
-0.000843612
0.018511
-0.000393994
0.0189026
-3.33683e-05
0.0190526
0.000195789
0.0186136
0.000273535
0.0172402
0.000234021
0.0148348
9.36093e-05
0.0116234
0.00464727
3.23096e-05
-6.36277e-06
-0.00107172
0.00106356
-4.05896e-06
-3.46639e-06
-1.78633e-06
-2.47535e-06
-0.000258439
0.000254192
-1.71656e-06
-0.000261456
-1.38293e-06
-0.000263809
-8.10191e-07
-1.55467e-07
-7.66034e-05
7.45091e-05
-7.82012e-05
-7.89589e-05
-0.000102487
0.000214992
0.00802474
-0.00838873
0.0105008
-0.00953235
0.0112366
-0.00984395
0.0122728
-0.0117819
0.0140333
-0.00988189
0.015326
-0.00710235
0.0161463
-0.00501398
0.0167221
-0.00356829
0.0171889
-0.00254202
0.0176055
-0.00179475
0.0180097
-0.00121173
0.0184267
-0.000733543
0.0188505
-0.000334303
0.0192035
-2.71055e-05
0.0192755
0.000160331
0.0187268
0.000223144
0.0172511
0.000160296
0.0147681
1.71641e-05
0.0115037
0.00461404
0.000154474
9.37384e-05
-0.00105925
0.00108824
4.54812e-06
-1.23556e-06
7.40827e-08
-2.13161e-06
-0.000247933
0.000245208
-1.3357e-06
-0.000250311
-1.08897e-06
-0.000251618
-4.80066e-07
9.80029e-08
-7.21605e-05
7.04439e-05
-7.35434e-05
-7.43536e-05
-0.000113378
0.000203288
0.0079348
-0.0088683
0.0105035
-0.0102545
0.0112231
-0.0109562
0.0123488
-0.0138487
0.0143396
-0.0115012
0.0156526
-0.00818688
0.0164105
-0.00578005
0.0169124
-0.00415335
0.0173072
-0.00301475
0.0176617
-0.00219742
0.0180081
-0.00157902
0.018377
-0.00108071
0.0187738
-0.000661697
0.0191779
-0.000313104
0.0194895
-4.92101e-05
0.019485
0.000112695
0.0188372
0.000154861
0.0172565
9.48664e-05
0.0146904
-1.39586e-05
0.0114043
0.00459597
6.02078e-05
0.000161135
-0.00112731
0.00115137
6.99679e-05
6.04446e-05
3.91838e-05
1.54806e-05
-0.000242665
0.000246985
2.2769e-07
-0.000243219
-6.83437e-07
-0.000242903
-2.4219e-07
1.72548e-07
-6.89727e-05
6.76369e-05
-7.00617e-05
-7.05419e-05
-3.17323e-05
4.57123e-05
0.00792079
-0.00934178
0.0105045
-0.0109503
0.0111992
-0.012187
0.0124539
-0.0162376
0.0147377
-0.013228
0.0160665
-0.00928966
0.0167555
-0.00654323
0.0171737
-0.00473097
0.01749
-0.00348154
0.017774
-0.00259746
0.0180617
-0.00194272
0.0183718
-0.00142449
0.0187207
-0.000994883
0.019107
-0.000628672
0.0194935
-0.000324302
0.0197646
-8.87151e-05
0.0196864
5.38972e-05
0.0189382
9.23428e-05
0.017259
4.63202e-05
0.0146301
4.85446e-06
0.0113677
0.004631
-1.50851e-05
2.57549e-05
-0.00119273
0.00122537
4.24388e-06
2.33259e-05
4.09035e-05
7.88659e-05
-0.000296795
0.000312918
5.38436e-05
-0.000277641
4.12893e-05
-0.000256387
1.79288e-05
6.07795e-06
-6.68837e-05
6.71112e-05
-6.75672e-05
-6.78094e-05
2.5932e-05
-2.89424e-05
0.00792377
-0.00980343
0.0105046
-0.0116136
0.011168
-0.0135784
0.0125904
-0.0189934
0.0152097
-0.015019
0.0165287
-0.0103636
0.0171404
-0.00727384
0.0174861
-0.00528749
0.0177303
-0.00393674
0.0179452
-0.00299316
0.0181697
-0.00230453
0.0184235
-0.00176839
0.0187157
-0.00133014
0.0190559
-0.000955966
0.0194343
-0.000631701
0.0198008
-0.000353582
0.0200295
-0.000139113
0.0198794
-6.15914e-06
0.0190367
3.39848e-05
0.0172713
2.28441e-05
0.0146121
2.37714e-05
0.0113698
0.00463204
-2.17453e-05
-8.24796e-06
-0.00124586
0.00124143
-7.34766e-06
-3.30526e-06
-1.01989e-06
6.27636e-06
-0.000370875
0.00037337
1.74757e-06
-0.000356937
9.38641e-06
-0.000340013
2.39789e-05
5.17689e-05
-0.000132407
0.000150999
3.52503e-05
-9.11179e-05
-7.31892e-05
2.87999e-05
-3.79989e-05
0.00793295
-0.0102508
0.0105074
-0.0122357
0.0111265
-0.0151313
0.0127209
-0.0220687
0.0156658
-0.0167235
0.0169142
-0.0112855
0.0174506
-0.00788911
0.0177557
-0.00577095
0.0179695
-0.004355
0.0181485
-0.00337388
0.0183259
-0.00266079
0.0185259
-0.00211072
0.0187658
-0.00166355
0.0190491
-0.00128368
0.0193836
-0.000951958
0.0197545
-0.000656284
0.0201035
-0.000399691
0.02029
-0.000196571
0.0200698
-7.08919e-05
0.0191415
-1.66427e-05
0.0173108
4.50862e-06
0.0146313
8.98377e-06
0.0113896
0.00462469
-1.72523e-05
-1.34182e-05
-0.00123628
0.0012255
-9.05355e-06
-1.91876e-06
-1.75197e-06
-1.35121e-06
-0.000375908
0.000372304
-3.74496e-06
-0.000376602
-2.61287e-06
-0.000377076
-5.46978e-07
2.56881e-06
-0.000211134
0.000213254
-3.72995e-07
-0.00020319
1.44165e-06
-0.000185149
5.93643e-06
1.76186e-05
3.52502e-05
-1.88947e-05
-3.40791e-06
0.00795522
-0.0106882
0.0105054
-0.0128007
0.0110725
-0.0167531
0.0127482
-0.0252597
0.0159118
-0.0180246
0.0169669
-0.0118067
0.0174354
-0.00821765
0.0177792
-0.00607407
0.0180588
-0.00466953
0.0182841
-0.00370123
0.0184758
-0.00299297
0.0186581
-0.00244345
0.0188586
-0.00199485
0.0190971
-0.00161342
0.0193788
-0.00127988
0.0197115
-0.000975823
0.0200741
-0.000697338
0.0204012
-0.000452651
0.0205461
-0.00025993
0.0202588
-0.000133726
0.0192586
-6.1229e-05
0.0173765
-3.27416e-05
0.014673
-4.63196e-05
0.011417
0.00463832
-4.21365e-06
-1.28341e-05
-0.0012219
0.001214
-9.3575e-06
-9.82141e-06
-0.000366691
0.00033785
1.97857e-05
-0.000369565
9.53813e-07
-0.000370777
-5.41256e-07
1.74686e-07
-0.000213104
0.000210628
-1.27045e-06
-0.000214968
-7.49684e-07
-0.000215254
-2.62433e-07
5.6752e-07
-6.02467e-05
5.98735e-05
-5.88051e-05
-5.28688e-05
-0.000112338
8.50924e-05
0.00798245
-0.0110962
0.01045
-0.0132643
0.0109688
-0.0181889
0.0125082
-0.0281687
0.0156572
-0.0183719
0.0162592
-0.0115264
0.0166866
-0.00798847
0.0172063
-0.00601391
0.017719
-0.00476381
0.0181531
-0.00390373
0.0184865
-0.00326095
0.0187438
-0.00274666
0.0189613
-0.00231404
0.0191778
-0.00193966
0.0194233
-0.00160668
0.0197056
-0.00130127
0.020037
-0.00101655
0.0203933
-0.000752022
0.0207005
-0.000517067
0.0208032
-0.000328692
0.0204537
-0.000193329
0.0193907
-0.00011422
0.017458
-9.08388e-05
0.0147176
-0.000129754
0.0114344
0.00469089
3.15461e-05
9.65128e-07
-0.00120504
0.00120606
-5.24208e-06
-3.8777e-06
-0.00056029
0.000552245
-7.02014e-07
-6.14887e-07
-0.000232623
2.12179e-07
1.4694e-07
-0.000210888
-1.95068e-06
-0.0002101
1.65571e-07
-0.000210501
-1.41634e-07
3.00567e-07
-5.94287e-05
5.81581e-05
-6.01785e-05
-6.0441e-05
-0.000219587
0.000229863
0.00797216
-0.0113966
0.0102574
-0.0136153
0.0108012
-0.0191103
0.0118902
-0.030025
0.0143645
-0.0169287
0.0142141
-0.00995695
0.0146898
-0.00689259
0.0155907
-0.00538217
0.0165745
-0.00448763
0.0174428
-0.00387026
0.0181196
-0.00338531
0.0186109
-0.00296769
0.0189648
-0.00259187
0.0192391
-0.00224871
0.0194868
-0.0019284
0.019745
-0.00162803
0.0200323
-0.00134302
0.0203634
-0.00106948
0.0207107
-0.000813168
0.0209966
-0.000584402
0.0210589
-0.000395803
0.0206562
-0.000255984
0.0195325
-0.000176291
0.0175435
-0.000165188
0.014753
-0.000209051
0.0114239
0.00472103
0.000134162
6.55587e-05
-0.00120563
0.00122906
8.11003e-06
1.38687e-06
-0.000548562
0.00054443
-5.54474e-07
-5.59875e-07
-1.40577e-07
-5.64553e-08
-5.62754e-05
5.55731e-05
-5.68904e-05
5.67435e-05
-5.65315e-05
-5.84823e-05
-5.83169e-05
-5.84586e-05
-0.000248954
0.000272373
0.00794872
-0.0115558
0.0100192
-0.0136149
0.00520877
0.005048
-0.00878551
0.00568775
0.00534594
-0.0105573
-0.0154061
0.00629343
-0.0142804
0.00525829
-0.00849922
0.0102868
-0.00435175
-0.00678704
0.0110443
-0.00479252
0.0125897
-0.00406693
0.0142755
-0.00372319
0.01581
-0.00348985
0.0170624
-0.00327199
0.0180063
-0.0030355
0.0186787
-0.00277891
0.0191518
-0.00250879
0.0194991
-0.00222894
0.0197874
-0.00194856
0.0200655
-0.00167061
0.0203599
-0.0013975
0.0206915
-0.00113266
0.0210302
-0.000882221
0.0212944
-0.000655075
0.0213182
-0.000461401
0.0208616
-0.000319883
0.019676
-0.000244341
0.0176226
-0.000229305
0.0147732
-0.000236092
0.011411
0.00472052
0.000117977
0.000154895
-0.00125497
0.001288
0.000101131
3.96513e-05
-0.000545839
0.000554621
-1.32671e-07
-5.42733e-07
-1.31123e-07
1.06679e-07
-5.48159e-05
5.42611e-05
-5.53759e-05
5.54324e-05
-0.000180362
0.000150748
0.00797833
-0.0115949
0.00985405
-0.013187
0.00492902
0.00466236
-0.00849937
0.00492259
-0.00821804
0.00476671
-0.0157898
0.00607148
-0.0156503
0.00245619
0.00275017
-0.00990268
0.00426795
-0.00701246
0.00480669
-0.00782833
0.00219483
0.00258188
-0.00515728
-0.00301262
-0.0014101
0.001126
0.00154256
-0.00143851
0.00593756
-0.000999301
-0.00123745
0.00258792
-0.00089552
-0.00208747
0.00833922
-0.00227335
0.0107961
-0.00253261
0.0130849
-0.00273618
0.0150564
-0.00284988
0.0166402
-0.00286828
0.017839
-0.00280297
0.0187027
-0.002664
0.019307
-0.00246912
0.0197393
-0.00223886
0.0200776
-0.00198727
0.0203822
-0.00172705
0.0206895
-0.00146302
0.0210218
-0.00120312
0.0213511
-0.000952711
0.021592
-0.000721521
0.0215783
-0.000526546
0.0210683
-0.000385664
0.0198174
-0.000302175
0.0176955
-0.000257409
0.0147945
-0.000203385
0.011434
0.00478547
1.51252e-05
7.06648e-05
-0.00130982
0.00134552
8.22725e-05
0.000133071
-0.000589257
0.000641756
3.53483e-05
1.3281e-05
6.27359e-07
4.38694e-06
-5.36937e-05
5.35608e-05
-5.42365e-05
5.41299e-05
-9.30858e-05
4.64192e-05
0.00802499
-0.0116191
0.00988827
-0.012321
0.00453483
0.00445307
-0.00798324
0.00469418
-0.00744455
0.00412372
-0.0096221
0.0023322
0.00215388
-0.00655345
0.00105343
0.00170905
-0.00759135
0.00733999
-0.00777925
0.00289545
0.00226183
-0.00258188
0.0017641
-0.00289545
0.000353994
0.00078168
-0.000229504
0.000573824
0.00108679
0.00158009
-0.000430666
-2.13147e-05
0.00384171
2.96881e-05
0.000929713
-0.000348912
-0.000393179
0.000584458
-0.000654658
0.00672053
-0.00125048
0.00951396
-0.001755
0.0121037
-0.00215184
0.0143583
-0.00243659
0.0162085
-0.0026013
0.0176373
-0.0026501
0.0186888
-0.00259602
0.0194339
-0.00246082
0.0199613
-0.00226809
0.0203584
-0.00204037
0.0206955
-0.00179091
0.0210173
-0.00153154
0.0213502
-0.0012727
0.0216711
-0.00102094
0.0218914
-0.000787147
0.0218389
-0.000589903
0.0212725
-0.000438494
0.0199537
-0.000333855
0.0177719
-0.000249408
0.0148406
-0.00014431
0.0114853
0.00483029
-1.00795e-05
1.16726e-05
-0.00138128
0.00139086
5.54086e-06
3.49011e-05
-0.000681226
0.000736179
5.55191e-06
2.17654e-05
5.03489e-05
4.32502e-05
-7.1856e-05
0.000107204
-5.8575e-05
5.41881e-05
-3.26245e-05
-3.91185e-06
0.00806151
-0.0116707
0.00999361
-0.0114433
0.00444326
0.00456745
-0.00687404
0.00396428
-0.00619942
0.00377847
-0.00922597
0.00231284
0.00198523
-0.00810262
0.00139201
0.00160832
0.00618101
-0.00589624
0.00204744
0.00178144
0.0060702
-0.00501676
-0.00672244
0.00091253
0.000124491
0.000290612
-0.000109961
0.000429983
-5.20549e-06
1.96334e-05
0.000775422
0.000132975
1.5952e-05
0.00317109
0.000685698
0.000119399
0.000160516
-5.39239e-05
-2.55143e-05
-0.000363446
0.00583348
-0.000856049
0.00861499
-0.00135111
0.0113029
-0.00180674
0.0137284
-0.00217361
0.0157808
-0.00242682
0.017414
-0.00255258
0.0186453
-0.00256064
0.0195337
-0.00247246
0.0201656
-0.00231042
0.0206285
-0.00209831
0.0210029
-0.00185941
0.0213452
-0.00160378
0.0216813
-0.00134277
0.0219929
-0.00108621
0.0221905
-0.000847888
0.0220969
-0.00064072
0.0214747
-0.000474546
0.0200944
-0.000342619
0.0178651
-0.000219075
0.0149153
-9.30962e-05
0.0115457
0.0048434
-1.32662e-05
-3.75193e-06
-0.00140032
0.00139675
-6.51513e-06
2.21662e-06
-0.000766041
0.000773793
-2.21221e-06
-8.78005e-10
4.97646e-06
6.0667e-08
-0.000173541
0.00017816
9.32531e-07
-0.000156642
4.86498e-06
0.000128406
2.91455e-05
1.50143e-05
-1.89483e-06
-2.45321e-05
0.00808792
-0.0116989
0.0100062
-0.0105728
0.00912304
-0.00554104
0.00378486
-0.00482581
0.00385225
-0.006741
0.00131778
0.00128491
-0.00542393
0.00121581
0.00124561
-0.00579964
0.00221623
-0.00547099
0.00165658
0.00486962
-0.00423098
0.00075336
0.00100695
-0.00627395
0.00159895
-0.00410422
1.45295e-05
9.32423e-06
2.8958e-05
0.000224783
2.42687e-05
4.44376e-05
-0.000316466
2.8137e-05
0.000958034
3.19504e-05
-4.91566e-05
0.00285677
2.74542e-06
2.4964e-05
-9.3557e-06
-2.35262e-05
-2.10398e-05
-5.90962e-06
-0.000298993
0.00527639
-0.000682664
0.0079465
-0.00114157
0.0106377
-0.00160353
0.0131583
-0.00200873
0.0153627
-0.00231048
0.0171719
-0.0024895
0.0185742
-0.00254594
0.0196072
-0.00249398
0.0203492
-0.00235891
0.0208891
-0.00216327
0.0213067
-0.00192814
0.0216696
-0.00167363
0.0220121
-0.00140862
0.0223153
-0.00114568
0.0224883
-0.000900151
0.0223563
-0.000681418
0.0216816
-0.000496254
0.020248
-0.000333068
0.0179791
-0.000184022
0.0150063
-6.26727e-05
0.0116065
0.00484144
-1.32787e-05
-9.31862e-06
-0.00139572
0.00139017
-7.71684e-06
-2.72606e-06
-0.000776481
0.000773156
-2.05408e-06
-1.13735e-06
3.92456e-07
-8.65482e-07
-0.000182559
0.000181133
-7.87014e-07
-0.00018239
-1.70288e-07
0.000182324
8.11078e-07
-5.18723e-09
-4.90247e-05
4.9957e-05
-4.41598e-05
2.91454e-05
5.46915e-06
-2.93652e-05
0.00811176
-0.0117354
0.0100284
-0.00979054
0.00922395
0.00286836
-0.00491807
0.00304436
0.00330254
-0.00397157
0.00115932
0.0011732
0.00145662
0.00129241
-0.00360992
0.000696734
-0.00299158
0.00066657
0.00237757
-0.00175915
0.000597395
0.000631598
-0.00656299
0.00250527
-0.00490642
0.00389947
-0.00314611
-0.00250527
-1.02881e-05
1.10306e-05
2.39044e-05
1.02445e-05
7.22956e-05
-3.85339e-05
-1.15316e-05
2.60324e-06
3.3043e-06
1.53189e-05
0.000909833
-1.62971e-05
9.80659e-05
2.28809e-06
3.89317e-06
-6.94298e-05
0.00262717
-3.93434e-05
3.5513e-06
9.52226e-06
5.90962e-06
-2.69493e-05
-0.000269923
0.0048636
-0.000608066
0.00741296
-0.00103438
0.0100685
-0.00148777
0.0126373
-0.00190295
0.0149552
-0.00223366
0.0169161
-0.00244925
0.0184775
-0.0025416
0.0196548
-0.00252172
0.0205119
-0.00240643
0.0211322
-0.00222328
0.0216018
-0.00199491
0.0219908
-0.00173628
0.0223398
-0.00146731
0.0226369
-0.00119933
0.0227875
-0.000942121
0.022617
-0.000709058
0.0218944
-0.000500519
0.0204154
-0.000315163
0.0181102
-0.000159234
0.0151028
-5.37874e-05
0.0116657
0.00483656
-1.20296e-05
-1.24839e-05
-0.00138496
0.00137974
-8.06856e-06
-4.1168e-06
-0.000770948
0.000766111
-1.72629e-06
-1.15519e-06
4.91255e-08
-5.69058e-07
-0.000179789
0.000178476
-7.41992e-07
-0.000180667
-2.5985e-07
0.000181349
1.75438e-07
-1.83698e-07
-5.05925e-05
4.98053e-05
-5.07629e-05
5.0768e-05
-9.55752e-06
-1.94128e-05
0.00814072
-0.0117962
0.0100619
-0.0091962
0.00943405
-0.00348222
0.00778814
0.0034399
-0.000503732
-0.00155449
0.000896979
0.000765754
0.00416571
0.00257672
-0.0011609
0.000561084
-0.000544614
0.000556915
8.32001e-06
0.000944577
0.00075612
-0.00244937
-0.00178281
0.00115121
-0.000553809
-1.59187e-05
-5.67448e-06
-5.37243e-06
-2.61031e-06
-1.53365e-06
4.13677e-06
1.77083e-06
0.000107871
5.12839e-06
3.7617e-07
4.2258e-06
0.000859055
-2.29025e-05
0.000105109
-5.1329e-06
-8.40777e-06
4.0589e-06
8.44125e-06
-4.89559e-07
-7.9728e-05
0.00243693
-1.52638e-06
-0.000272371
0.00452786
-0.000584457
0.006963
-0.000984737
0.00956549
-0.0014179
0.0121523
-0.00183365
0.0145551
-0.00218005
0.0166469
-0.00242203
0.0183579
-0.00254494
0.019678
-0.00254905
0.0206546
-0.00245399
0.0213629
-0.00228139
0.0218883
-0.00205356
0.0223081
-0.00179502
0.0226675
-0.00151877
0.0229564
-0.00123992
0.0230853
-0.00097355
0.0228815
-0.000722465
0.0221163
-0.000495801
0.0205961
-0.000300171
0.0182512
-0.000151814
0.0152008
-6.74511e-05
0.0117236
0.00483947
-8.37781e-06
-1.39585e-05
-0.00137226
0.00136834
-8.11844e-06
-5.01538e-06
-0.000762602
0.000757381
-1.62878e-06
-1.22516e-06
-1.05603e-07
-5.05022e-07
-0.000176957
0.000175886
-6.55724e-07
-0.000177896
-2.16353e-07
0.000178343
1.80812e-07
-1.21859e-07
-4.95371e-05
4.87949e-05
-4.9797e-05
4.99807e-05
-4.83624e-05
1.32126e-05
0.00817585
-0.0118871
0.0100989
-0.00877996
0.00964566
-0.00291842
0.00887017
-0.00338457
0.00822345
0.00318615
0.00392889
-0.00132033
0.000710429
-0.00147618
0.00237316
-0.000710429
0.00091057
0.000654732
7.28475e-06
0.000564207
1.52638e-06
1.22335e-05
1.33355e-06
1.30796e-05
-4.72943e-07
0.000103922
5.33133e-06
7.70506e-08
-2.20961e-06
0.000807465
-2.59722e-05
0.000104618
-2.36092e-05
1.07909e-05
-2.84517e-06
8.29166e-06
-5.9114e-06
-4.89638e-07
-0.000107798
0.0022723
-0.000293925
0.0042373
-0.000586832
0.00656509
-0.00095824
0.00910582
-0.0013762
0.0116948
-0.00178722
0.0141623
-0.00214166
0.0163665
-0.00240183
0.0182148
-0.00254721
0.0196762
-0.00257451
0.0207751
-0.00249489
0.0215764
-0.00233145
0.0221662
-0.00210735
0.0226204
-0.00184468
0.0229934
-0.00156248
0.0232789
-0.00127436
0.0233861
-0.000992308
0.0231513
-0.000727687
0.0223482
-0.00048833
0.0207842
-0.000292827
0.0183922
-0.000159562
0.0152929
-9.95924e-05
0.0117749
0.00486194
2.62594e-06
-1.18923e-05
-0.00135975
0.00135874
-7.37266e-06
-5.37651e-06
-0.000753157
0.000747917
-1.5733e-06
-1.3164e-06
-2.68992e-07
-5.2954e-07
-0.000174231
0.00017323
-6.2999e-07
-0.000175237
-2.20789e-07
0.000175622
1.56811e-07
-1.21041e-07
-4.86374e-05
4.79815e-05
-4.88538e-05
4.89757e-05
-0.000113504
8.49171e-05
0.00820445
-0.0120056
0.0101316
-0.00851569
0.00983457
-0.00277348
0.00950074
0.00733497
0.00975864
0.00185839
-0.000540232
0.0022698
-0.000401815
0.00222497
0.00356229
-0.000388824
0.000759161
0.000265907
8.43761e-07
3.70786e-07
8.97475e-06
4.642e-06
8.5224e-06
5.26895e-07
0.000100395
1.99634e-06
-1.47832e-05
0.000750411
-3.59964e-05
9.56517e-05
-2.12452e-05
4.19623e-07
-1.05715e-05
-3.15713e-06
-1.78368e-06
-2.47459e-06
-8.38672e-06
-0.000143631
0.00212198
-0.000324149
0.00397461
-0.000594321
0.00620116
-0.000949122
0.00867873
-0.00134909
0.0112566
-0.00175146
0.0137721
-0.00210971
0.0160743
-0.00238377
0.0180513
-0.00254671
0.0196484
-0.00259184
0.020872
-0.00252908
0.0217741
-0.00237306
0.0224319
-0.00215114
0.0229269
-0.00188443
0.0233153
-0.00159406
0.0235986
-0.0012966
0.0236903
-0.0010027
0.0234263
-0.000725169
0.022585
-0.000482306
0.0209737
-0.000294117
0.0185267
-0.000178896
0.0153722
-0.000144631
0.011806
0.00490553
3.81472e-05
3.18153e-06
-0.00135123
0.00135754
-3.68916e-06
-4.39107e-06
-0.000743516
0.000739034
-1.48163e-06
-1.41217e-06
-4.35315e-07
-5.42771e-07
-0.000171361
0.000170403
-6.19052e-07
-0.000172446
-2.35153e-07
0.000172838
1.19918e-07
-1.39838e-07
-4.77962e-05
4.71657e-05
-4.80172e-05
4.81382e-05
-0.000178519
0.000190052
0.00819289
-0.012152
0.0101623
-0.00837211
0.00998807
-0.00282515
0.00988618
0.00595697
0.0108788
-0.00161644
0.00479086
0.00880918
0.00103698
0.00165836
-0.000180035
-0.000245523
-0.000141131
0.000498475
0.00298283
0.000124776
-2.13465e-06
-1.61392e-06
-1.18983e-06
-5.89024e-06
-2.09203e-06
-6.02875e-07
8.88484e-05
-7.9935e-06
-2.52502e-05
0.000695291
-6.32837e-05
8.00692e-05
-2.72334e-05
-1.50775e-05
-6.62304e-06
-5.4449e-06
4.58761e-06
-7.7452e-06
2.80382e-06
-0.000180014
0.00197783
-0.00034468
0.00372495
-0.000608542
0.00586055
-0.00094552
0.00827513
-0.0013303
0.0108355
-0.00172369
0.013386
-0.00208126
0.0157718
-0.00236438
0.017869
-0.00254254
0.0195991
-0.00260363
0.0209465
-0.00255182
0.0219528
-0.00240377
0.0226845
-0.00218369
0.0232261
-0.0019153
0.0236366
-0.00161728
0.0239193
-0.00130782
0.0239955
-0.00100263
0.0237038
-0.000718127
0.0228209
-0.000475958
0.0211556
-0.000298411
0.0186462
-0.000199664
0.0154273
-0.00017376
0.0118012
0.00491594
0.000117452
6.21788e-05
-0.00135776
0.00138137
1.45417e-05
2.96686e-06
-0.000735709
0.000734674
-1.14788e-06
-1.509e-06
-6.1338e-07
-4.56598e-07
-0.000168337
0.000167462
-6.07942e-07
-0.000169498
-2.51353e-07
0.000169882
8.46029e-08
-1.59777e-07
-4.69098e-05
4.62902e-05
-4.71454e-05
4.72853e-05
-0.000173957
0.000209515
0.00815733
-0.0123191
0.0101852
-0.00831878
0.010109
-0.00297966
0.0101426
0.00455405
0.0112891
0.00475839
0.0109112
-0.000940494
0.00283469
0.00751448
-0.000599614
0.000462739
-5.39015e-05
0.00126571
-1.62256e-05
-0.000377727
0.000197691
-0.000124776
0.00250507
-1.61399e-06
-9.83774e-06
-7.60356e-06
-2.83989e-06
-1.93789e-05
-6.82237e-07
-3.01822e-06
6.82588e-05
-1.34489e-05
-0.000118684
0.00063395
4.06142e-05
-3.56503e-05
-2.82641e-05
-9.60325e-06
-8.75014e-06
1.05796e-05
-1.48217e-05
-2.3846e-06
-2.47177e-06
-0.000195293
0.00182843
-0.000370327
0.00348671
-0.000620782
0.00553579
-0.000944544
0.00788936
-0.00131464
0.0104264
-0.00169665
0.0130014
-0.00205303
0.0154605
-0.00233952
0.0176659
-0.00252936
0.0195248
-0.00260427
0.020999
-0.00256447
0.0221135
-0.0024254
0.0229262
-0.00220723
0.0235181
-0.00193437
0.0239536
-0.00162907
0.0242405
-0.00130948
0.0243023
-0.000995276
0.0239809
-0.000707168
0.0230521
-0.000468651
0.0213258
-0.000298281
0.0187448
-0.000201174
0.0154547
-0.000150969
0.0117782
0.00489375
0.000100801
0.000130899
-0.00139791
0.00142073
9.46235e-05
4.56375e-05
-0.000738063
0.000752273
1.42358e-06
-1.09105e-06
-6.88855e-07
2.68965e-07
-0.000165272
0.000164697
-5.73335e-07
-0.000166516
-2.65683e-07
0.000166802
4.55381e-08
-1.72567e-07
-4.59634e-05
4.53552e-05
-4.62149e-05
4.63747e-05
-8.14106e-05
9.20062e-05
0.0081467
-0.0125034
0.0102022
-0.00832641
0.0101929
-0.00318686
0.0103161
0.00329189
0.0114048
0.00420987
0.0118376
0.00340102
0.0103449
0.00161455
0.00641655
-0.000227704
-0.000288951
-0.00024223
0.00214766
0.000143789
0.00104372
-8.59958e-06
-1.16596e-05
0.000127563
-2.84001e-06
-1.57665e-05
2.5971e-07
-1.66186e-05
-2.16895e-06
-3.12247e-05
-4.31019e-06
-6.187e-06
3.63621e-05
-1.28896e-05
-7.57819e-05
-2.5768e-05
-0.000112063
0.000550707
-3.05214e-05
1.92615e-05
-2.23565e-05
-6.51145e-06
-6.1103e-06
5.31179e-06
-7.69671e-06
-0.000220645
0.00167872
-0.000387528
0.00325343
-0.000633149
0.00522438
-0.000942104
0.00751681
-0.00129761
0.0100274
-0.00167016
0.0126185
-0.00202013
0.0151411
-0.00231089
0.0174475
-0.00250972
0.0194302
-0.00259655
0.0210311
-0.00256831
0.0222564
-0.00243512
0.0231541
-0.00221785
0.0238015
-0.00194146
0.024266
-0.00162847
0.0245595
-0.00130106
0.0246081
-0.000981291
0.0242551
-0.000690524
0.0232739
-0.000451405
0.0214789
-0.000278553
0.0188222
-0.000163636
0.0154673
-6.93992e-05
0.0117662
0.00491282
9.909e-06
6.30182e-05
-0.00143247
0.00145189
8.1375e-05
0.000119164
-0.000782008
0.000812854
4.14309e-05
2.23438e-05
3.4118e-06
1.24881e-05
-0.000163457
0.000165088
-2.07391e-07
-0.000164357
-1.89939e-07
0.00016398
2.83298e-08
-1.06815e-07
-4.49621e-05
4.43887e-05
-4.5228e-05
4.54006e-05
3.82932e-05
-2.7967e-05
0.00813637
-0.0126963
0.010211
-0.00836665
0.0102425
-0.00341378
0.0104198
0.00221244
0.0113955
0.00348293
0.0121317
0.0033564
0.0118822
0.00242474
0.00953464
0.00115513
0.0058395