/*--------------------------------*- C++ -*----------------------------------*\
| =========                 |                                                 |
| \\      /  F ield         | OpenFOAM: The Open Source CFD Toolbox           |
|  \\    /   O peration     | Version:  v1912                                 |
|   \\  /    A nd           | Website:  www.openfoam.com                      |
|    \\/     M anipulation  |                                                 |
\*---------------------------------------------------------------------------*/
FoamFile
{
    version     2.0;
    format      ascii;
    class       volScalarField;
    location    "150";
    object      p;
}
// * * * * * * * * * * * * * * * * * * * * * * * * * * * * * * * * * * * * * //

dimensions      [0 2 -2 0 0 0 0];


internalField   nonuniform List<scalar> 
3753
(
-0.00975223
-0.00976174
-0.00938623
-0.00974775
-0.00939609
-0.00902277
-0.00973526
-0.00938043
-0.00903299
-0.00867835
-0.00973385
-0.00936684
-0.00902025
-0.008689
-0.00834198
-0.00974929
-0.00936235
-0.00900952
-0.00867507
-0.00835257
-0.00801663
-0.0097903
-0.00937377
-0.00900395
-0.00866092
-0.00834031
-0.00802634
-0.00770524
-0.0098671
-0.00940729
-0.00901011
-0.00865494
-0.00833073
-0.00801427
-0.00771478
-0.00740221
-0.00998217
-0.00947111
-0.00903649
-0.00866235
-0.00832818
-0.00800517
-0.00770205
-0.00741172
-0.00710903
-0.0101367
-0.00957159
-0.00908897
-0.00868945
-0.00833694
-0.00800276
-0.00769161
-0.00739973
-0.00711859
-0.00682663
-0.0103283
-0.00971115
-0.00917011
-0.00874009
-0.00836504
-0.00801481
-0.00768966
-0.00739151
-0.00710642
-0.00683454
-0.00655317
-0.0105417
-0.00988963
-0.00927543
-0.008816
-0.00841888
-0.00804742
-0.00770276
-0.00739184
-0.00709614
-0.0068229
-0.00656175
-0.00628333
-0.0107288
-0.0101156
-0.00940327
-0.00891823
-0.00850331
-0.00810448
-0.00773708
-0.00740489
-0.00709619
-0.00681672
-0.00654934
-0.00629188
-0.00602345
-0.0103688
-0.0108161
-0.0108645
-0.0095517
-0.0090447
-0.00861795
-0.00819068
-0.00779737
-0.00743868
-0.00711187
-0.00681687
-0.00653843
-0.00628024
-0.00603225
-0.00576806
-0.00972968
-0.0102865
-0.0107065
-0.0108083
-0.0109246
-0.00919282
-0.00875776
-0.00830588
-0.00788596
-0.007498
-0.00714698
-0.00682956
-0.00653862
-0.0062734
-0.00602036
-0.00577753
-0.00552123
-0.0093688
-0.00978834
-0.00998474
-0.0103959
-0.0109424
-0.0108029
-0.0108295
-0.0109807
-0.0089139
-0.00844712
-0.00800242
-0.0075863
-0.00720807
-0.00686403
-0.00655484
-0.0062747
-0.00601157
-0.00576701
-0.00552948
-0.0052842
-0.00908149
-0.00944796
-0.00964792
-0.00990379
-0.0100577
-0.0103448
-0.0104608
-0.0106794
-0.0112884
-0.010752
-0.0108876
-0.0110213
-0.00860824
-0.00814131
-0.00770273
-0.00729761
-0.0069246
-0.0065897
-0.0062896
-0.00601207
-0.00576056
-0.00551926
-0.00529358
-0.00504686
-0.00877351
-0.00912954
-0.00931266
-0.00955516
-0.00974178
-0.00995151
-0.0100543
-0.0102164
-0.0101067
-0.010322
-0.00994686
-0.010264
-0.0118389
-0.0108791
-0.0109625
-0.0110764
-0.00829779
-0.00784312
-0.00741277
-0.007012
-0.00664962
-0.00632397
-0.00602647
-0.0057622
-0.00551341
-0.00528234
-0.00505592
-0.0048202
-0.00846459
-0.00881226
-0.00898737
-0.00922352
-0.00939701
-0.00957713
-0.00968183
-0.00986233
-0.00976221
-0.0100142
-0.0100961
-0.0102541
-0.0101826
-0.0103619
-0.0125872
-0.00799835
-0.00754678
-0.00712574
-0.00673656
-0.00638183
-0.00606099
-0.00577741
-0.00551616
-0.0052755
-0.0050475
-0.00482895
-0.00459421
-0.00816139
-0.00850712
-0.00867306
-0.00890396
-0.00906651
-0.00924662
-0.00933889
-0.00950997
-0.00941091
-0.00962832
-0.00971417
-0.00989987
-0.00980951
-0.00769732
-0.00726292
-0.0068486
-0.00646527
-0.00612014
-0.00581195
-0.00553251
-0.00527936
-0.00504363
-0.00481855
-0.00460387
-0.00437189
-0.00785911
-0.0082049
-0.00836383
-0.00859647
-0.00874983
-0.00893014
-0.00901656
-0.00916827
-0.00908823
-0.00928813
-0.00938028
-0.00954821
-0.00945182
-0.00741452
-0.00697937
-0.00657463
-0.00620539
-0.00586799
-0.00556645
-0.00529646
-0.00504724
-0.00481305
-0.00459565
-0.00438297
-0.00416034
-0.00757158
-0.00790546
-0.00806151
-0.00828809
-0.00844267
-0.00862256
-0.00870365
-0.00885227
-0.008772
-0.00896947
-0.0090598
-0.00920704
-0.00912834
-0.00712443
-0.00670549
-0.00631307
-0.00594899
-0.00562337
-0.00533096
-0.0050652
-0.00481831
-0.00459217
-0.00437561
-0.00416904
-0.00394837
-0.00727939
-0.00761774
-0.00776394
-0.00798807
-0.00814374
-0.00831238
-0.0083964
-0.00854125
-0.00847031
-0.00866394
-0.00874372
-0.00889462
-0.0088109
-0.00685161
-0.00644023
-0.00605515
-0.00570285
-0.00538709
-0.00510181
-0.00483848
-0.00459816
-0.00437267
-0.00415995
-0.00395913
-0.00374135
-0.00700515
-0.00732765
-0.00747256
-0.00769706
-0.00784264
-0.00801783
-0.00809106
-0.00824381
-0.00816397
-0.00835448
-0.00843514
-0.00858135
-0.00851211
-0.00658166
-0.00618089
-0.00580378
-0.00546528
-0.00515808
-0.00487723
-0.00461959
-0.00438019
-0.0041572
-0.00395137
-0.00375135
-0.00354003
-0.00673026
-0.00705095
-0.00719063
-0.00740869
-0.0075533
-0.00772051
-0.0077995
-0.00794062
-0.0078659
-0.00805934
-0.00813168
-0.00828267
-0.00820204
-0.00631988
-0.00592562
-0.00556518
-0.00523624
-0.00493797
-0.00466074
-0.00440175
-0.00416339
-0.00394784
-0.00374383
-0.00355091
-0.00334182
-0.0064673
-0.00677874
-0.00691312
-0.00712871
-0.00726586
-0.0074391
-0.00750263
-0.00765101
-0.00757706
-0.00776009
-0.00783972
-0.00797804
-0.00790497
-0.00606316
-0.00568253
-0.00533364
-0.00501803
-0.00472332
-0.00444357
-0.00418591
-0.00395405
-0.00374069
-0.00354422
-0.00335279
-0.00314694
-0.00620818
-0.00651572
-0.00664341
-0.00685636
-0.00698795
-0.00715518
-0.0072243
-0.00735936
-0.0072904
-0.0074774
-0.00753657
-0.00768696
-0.00762117
-0.00581511
-0.00544707
-0.00511454
-0.0048064
-0.00451095
-0.0042289
-0.00397382
-0.00374691
-0.00354303
-0.00334652
-0.00315792
-0.00295515
-0.00595779
-0.00625604
-0.00638295
-0.00659068
-0.00671622
-0.00688335
-0.00694649
-0.0070825
-0.00701172
-0.0071918
-0.00725986
-0.00739789
-0.00733066
-0.00557453
-0.00522324
-0.00490606
-0.00460216
-0.00429607
-0.00401359
-0.00376617
-0.0035501
-0.00334645
-0.00315289
-0.00296702
-0.00276898
-0.00571319
-0.00600688
-0.00612639
-0.00632803
-0.00645798
-0.00661383
-0.00668025
-0.00680997
-0.00673914
-0.00692183
-0.00697777
-0.00712437
-0.00704867
-0.00534366
-0.00501505
-0.0047117
-0.00439047
-0.00407703
-0.00380223
-0.00356877
-0.00335502
-0.0031539
-0.00296252
-0.00278126
-0.00258336
-0.00547827
-0.00576447
-0.00587958
-0.00607769
-0.00619926
-0.00635233
-0.00641948
-0.00654779
-0.0064814
-0.00665129
-0.00671165
-0.00685151
-0.00677425
-0.00512819
-0.00482626
-0.00450921
-0.00416724
-0.00385807
-0.003603
-0.00337694
-0.00316413
-0.00296394
-0.0027778
-0.00259548
-0.00240222
-0.00525152
-0.00553394
-0.00563684
-0.00583437
-0.00595082
-0.00610378
-0.00616162
-0.00628469
-0.00622462
-0.00639153
-0.0064543
-0.00658849
-0.00651398
-0.00493133
-0.0046471
-0.00428486
-0.00393471
-0.00365431
-0.00341383
-0.00318804
-0.00297731
-0.0027818
-0.00259255
-0.00241523
-0.00221939
-0.00503416
-0.00531107
-0.00540441
-0.00559918
-0.00570901
-0.00585865
-0.00591918
-0.00603627
-0.00597302
-0.00614192
-0.00619359
-0.00632023
-0.00625833
-0.00477836
-0.00443273
-0.00402845
-0.00372191
-0.00346855
-0.00322984
-0.0030049
-0.00279614
-0.00259892
-0.00241316
-0.00223425
-0.00203953
-0.00486325
-0.00509831
-0.00517898
-0.00537263
-0.00547895
-0.00562561
-0.00567582
-0.00579139
-0.0057348
-0.00589456
-0.00595342
-0.00607151
-0.00600473
-0.00461647
-0.00413713
-0.003803
-0.00354044
-0.0032903
-0.00305019
-0.00282579
-0.00261722
-0.00241922
-0.00223428
-0.00205403
-0.00186172
-0.00480909
-0.0048988
-0.00496983
-0.00515596
-0.00525736
-0.00539854
-0.00544888
-0.00555895
-0.00550365
-0.00566296
-0.00570554
-0.00582604
-0.00576731
-0.00426719
-0.0038909
-0.00362747
-0.00336929
-0.00311424
-0.00287416
-0.00265041
-0.00243879
-0.00224332
-0.00205482
-0.00187788
-0.00168307
-0.00441127
-0.00493831
-0.00485421
-0.00491232
-0.00504162
-0.00518683
-0.00522749
-0.00533599
-0.00528946
-0.00543268
-0.00547977
-0.00559233
-0.00553332
-0.0039853
-0.00372848
-0.00346525
-0.00319665
-0.00294126
-0.00270145
-0.00247583
-0.00226606
-0.00206691
-0.0018809
-0.00170115
-0.0015045
-0.00410771
-0.00437391
-0.00460334
-0.00516532
-0.00481237
-0.00497479
-0.00500513
-0.00512368
-0.00508486
-0.00521644
-0.00526161
-0.00536953
-0.00531959
-0.00383663
-0.00357428
-0.00329449
-0.00302679
-0.00277307
-0.00253259
-0.00230596
-0.00209427
-0.0018953
-0.00170533
-0.00152235
-0.00132587
-0.00395449
-0.00419646
-0.00431009
-0.00442261
-0.00465636
-0.00551647
-0.00460874
-0.00485176
-0.00477282
-0.00501459
-0.00505998
-0.00516085
-0.00511425
-0.00369116
-0.00340354
-0.00312657
-0.00286216
-0.00260843
-0.00236691
-0.0021405
-0.00192403
-0.00172157
-0.00152775
-0.00134617
-0.00114618
-0.00380531
-0.00401314
-0.00412424
-0.00427951
-0.00437984
-0.00449166
-0.00454817
-0.00439191
-0.00456638
-0.00618677
-0.00465991
-0.00493761
-0.00482417
-0.00352042
-0.00323556
-0.00296452
-0.00269997
-0.00244699
-0.00220568
-0.00197302
-0.00175626
-0.00154811
-0.00135422
-0.00116725
-0.000962282
-0.00363598
-0.00384009
-0.00394306
-0.00408116
-0.00418345
-0.00429677
-0.0043646
-0.00447382
-0.00441234
-0.00334858
-0.00307423
-0.00280381
-0.0025429
-0.00228986
-0.00204452
-0.00181205
-0.00158785
-0.00137791
-0.00117731
-0.000985682
-0.000777519
-0.00346376
-0.00367091
-0.00376659
-0.00390344
-0.00399484
-0.00409898
-0.00415094
-0.00424994
-0.00419589
-0.00318663
-0.0029138
-0.00264912
-0.00238993
-0.00213545
-0.00188964
-0.0016495
-0.00142099
-0.0012043
-0.000997984
-0.000802887
-0.000588865
-0.00329974
-0.003502
-0.0035935
-0.00373219
-0.0038178
-0.00392582
-0.00397218
-0.00405443
-0.00400979
-0.00302635
-0.00275903
-0.00249759
-0.0022403
-0.00198615
-0.00173364
-0.00148913
-0.00125368
-0.00102945
-0.000817843
-0.00061639
-0.000397708
-0.00313695
-0.0033382
-0.00342704
-0.00356133
-0.00364587
-0.00375107
-0.00379594
-0.00387964
-0.00383499
-0.00286919
-0.00260787
-0.00235286
-0.00209513
-0.00183837
-0.00158212
-0.00132996
-0.00108566
-0.000853655
-0.00063433
-0.000426995
-0.000200166
-0.00297881
-0.00317635
-0.00326011
-0.00339638
-0.00348045
-0.00358129
-0.00362653
-0.00370735
-0.00366462
-0.00271827
-0.00246546
-0.00220982
-0.00195502
-0.00169438
-0.00143057
-0.00117034
-0.000916978
-0.000675634
-0.000446958
-0.000232607
1.12641e-06
-0.00282559
-0.00301886
-0.00310037
-0.0032314
-0.00331291
-0.00342212
-0.00345789
-0.00353904
-0.00349874
-0.0025738
-0.00232375
-0.00207598
-0.00181788
-0.00155155
-0.00128135
-0.00101058
-0.000746129
-0.000493051
-0.00025663
-3.27505e-05
0.000207638
-0.0026791
-0.00286581
-0.00294371
-0.0030733
-0.00315335
-0.00325094
-0.00329283
-0.00337291
-0.00333202
-0.002433
-0.00219258
-0.00194378
-0.00168329
-0.00141152
-0.00113314
-0.000850206
-0.000573579
-0.000308493
-5.95773e-05
0.000172084
0.000419421
-0.00253572
-0.00271769
-0.00279359
-0.00292036
-0.00299491
-0.00309313
-0.00313264
-0.00321251
-0.00317074
-0.00230164
-0.00206533
-0.00181509
-0.00155042
-0.00127449
-0.000985529
-0.000690986
-0.000397365
-0.00011806
0.00014283
0.000385292
0.000633477
-0.00240223
-0.00257414
-0.00264706
-0.0027702
-0.00284275
-0.0029409
-0.00298001
-0.00305249
-0.00301285
-0.00217696
-0.0019416
-0.00168787
-0.00142258
-0.00114096
-0.000839954
-0.000527426
-0.000216571
7.93762e-05
0.000352668
0.000607606
0.000863306
-0.00227815
-0.00243661
-0.00250747
-0.00262544
-0.00269621
-0.00278827
-0.00282751
-0.002899
-0.00286045
-0.00205758
-0.00181701
-0.00156425
-0.00130137
-0.00100968
-0.000693389
-0.00036028
-3.11477e-05
0.000282036
0.00057709
0.000845585
0.00107774
-0.00215796
-0.0023117
-0.0023733
-0.00248472
-0.00255396
-0.00264579
-0.00267904
-0.00275053
-0.00271435
-0.00193607
-0.00169151
-0.00145203
-0.00118329
-0.000880821
-0.000545291
-0.000191771
0.00016142
0.00050346
0.000804104
0.00116651
0.000451583
-0.00203386
-0.00231278
-0.00227457
-0.00233388
-0.00241419
-0.00250833
-0.00254038
-0.00260691
-0.0025732
-0.00180503
-0.00158302
-0.00134469
-0.00107136
-0.000753064
-0.00039506
-1.60871e-05
0.000370557
0.000711605
0.00117693
0.000540776
-0.00190493
-0.00205828
-0.0021271
-0.0025198
-0.00303823
-0.00224896
-0.00236938
-0.00240366
-0.00247038
-0.00243827
-0.00169422
-0.00148206
-0.00124555
-0.000961163
-0.000624025
-0.000242662
0.000173548
0.000557783
0.00108241
0.000567513
-0.00178916
-0.00193723
-0.00200079
-0.00208902
-0.00214356
-0.0021954
-0.00229311
-0.00223825
-0.00152294
-0.00233412
-0.00230654
-0.00159402
-0.00139095
-0.00115003
-0.000854213
-0.000496276
-7.74458e-05
0.000338583
0.000902144
0.000505296
-0.00168644
-0.00182384
-0.0018787
-0.00194886
-0.00198713
-0.00201308
-0.00205543
-0.00212174
-0.00217081
-0.00222236
-0.00228086
-0.00230487
-0.00211336
-0.00150624
-0.00130556
-0.00106119
-0.000748588
-0.000359081
6.4874e-05
0.000641377
0.00038362
-0.00159654
-0.00172266
-0.00177031
-0.0018379
-0.00186638
-0.00189266
-0.00192199
-0.00197126
-0.00200638
-0.00203577
-0.0020773
-0.00214923
-0.00219642
-0.00225295
-0.00230964
-0.00142474
-0.00123003
-0.000974581
-0.000639521
-0.000239357
0.000314484
0.000222252
-0.00151573
-0.00163122
-0.00167365
-0.00173851
-0.00176267
-0.0017854
-0.00181301
-0.00185795
-0.0018851
-0.00191458
-0.00194021
-0.00199163
-0.00202369
-0.00205702
-0.00209634
-0.00135625
-0.00115754
-0.000889612
-0.000539315
-4.88045e-05
4.01932e-05
-0.00144663
-0.00155044
-0.00158755
-0.00164454
-0.00166936
-0.00168833
-0.00171221
-0.00175782
-0.00178241
-0.00180454
-0.00183199
-0.00187726
-0.00190358
-0.00193366
-0.00195906
-0.00129273
-0.00109167
-0.000804696
-0.000409572
-0.000142795
-0.00138602
-0.00148089
-0.00151109
-0.0015631
-0.00158404
-0.00160313
-0.00162211
-0.00166357
-0.00168618
-0.00170683
-0.00173099
-0.00177458
-0.0018011
-0.00182311
-0.00184991
-0.00124166
-0.00101734
-0.000729692
-0.000308445
-0.00134247
-0.00142075
-0.00144472
-0.00149335
-0.0015108
-0.00152486
-0.00154479
-0.00158091
-0.00159865
-0.00162092
-0.0016383
-0.00168086
-0.00170153
-0.0017246
-0.00175203
-0.00118027
-0.000985764
-0.000443596
-0.0012996
-0.00137721
-0.00139242
-0.00142993
-0.00144771
-0.00145812
-0.00147465
-0.00150906
-0.00152442
-0.00154106
-0.00156015
-0.00159789
-0.00161403
-0.00163577
-0.00165553
-0.0011814
-0.00054572
-0.00134977
-0.00133312
-0.00135006
-0.00138577
-0.00139431
-0.00140646
-0.00141436
-0.00144311
-0.00145916
-0.00147369
-0.00148974
-0.00152231
-0.00153892
-0.00155644
-0.00157465
-0.00062003
-0.000737326
-0.00138676
-0.00134103
-0.00134305
-0.00135216
-0.00136577
-0.0013711
-0.00139378
-0.00140591
-0.00141695
-0.00142831
-0.00145617
-0.00147038
-0.00148801
-0.0015057
-0.000681431
-0.00139993
-0.00137521
-0.00136497
-0.00134602
-0.00134163
-0.00135326
-0.00136266
-0.00137393
-0.00138207
-0.00140386
-0.00141751
-0.0014269
-0.00144084
-0.000576879
-0.00140432
-0.00145686
-0.00139695
-0.00137655
-0.00136678
-0.00135291
-0.00135247
-0.00136002
-0.00136988
-0.00138105
-0.00139193
-0.000595217
-0.00156704
-0.00147615
-0.00138831
-0.00137916
-0.00136634
-0.0013555
-0.00135597
-0.000750384
-0.00171278
-0.00147311
-0.00139311
-0.0841531
-0.0831181
-0.0840116
-0.0831826
-0.0830279
-0.0837168
-0.0838538
-0.0834182
-0.0830472
-0.0827864
-0.0839204
-0.0840563
-0.083956
-0.083386
-0.0831255
-0.0828329
-0.0825457
-0.0841561
-0.0843284
-0.0843137
-0.0843815
-0.0832628
-0.0828323
-0.0828882
-0.0825882
-0.0822699
-0.0843981
-0.0846435
-0.0853024
-0.0844707
-0.0848946
-0.0834297
-0.0822136
-0.0823263
-0.0826304
-0.0823216
-0.0820425
-0.0846924
-0.0849072
-0.0855083
-0.0846325
-0.0849494
-0.0835834
-0.082397
-0.0812374
-0.0818353
-0.0823783
-0.0821333
-0.0820841
-0.0818093
-0.0851492
-0.0857023
-0.0847927
-0.0852115
-0.0837304
-0.082555
-0.0814075
-0.0813485
-0.0802836
-0.0809394
-0.0819004
-0.081657
-0.0818599
-0.0815701
-0.0858816
-0.0849477
-0.0838729
-0.0826952
-0.081559
-0.0804444
-0.0814088
-0.081191
-0.0804021
-0.0793474
-0.0799366
-0.0810382
-0.0809782
-0.0816163
-0.0813131
-0.0860511
-0.0851005
-0.0840154
-0.0828283
-0.0816921
-0.0805906
-0.0795051
-0.0813604
-0.0811397
-0.080257
-0.0794686
-0.0784395
-0.0790116
-0.0798503
-0.0809162
-0.0803178
-0.0811037
-0.0862161
-0.0852523
-0.0841602
-0.0829628
-0.0818176
-0.0807193
-0.0796492
-0.0785918
-0.0803385
-0.0801196
-0.0793892
-0.0785427
-0.0775998
-0.078096
-0.078935
-0.079687
-0.0799134
-0.0808839
-0.0805144
-0.0863771
-0.0853932
-0.0842966
-0.083102
-0.0819458
-0.0808404
-0.0797768
-0.0787337
-0.0777225
-0.079436
-0.0792178
-0.0784517
-0.077753
-0.0766503
-0.0772378
-0.0779906
-0.0787725
-0.0789977
-0.0865243
-0.0854954
-0.0843947
-0.0832349
-0.0820811
-0.0809654
-0.0798974
-0.0788636
-0.0778507
-0.0768152
-0.0785178
-0.0782913
-0.0777679
-0.0767712
-0.0757186
-0.0762884
-0.0771462
-0.0777882
-0.0780354
-0.0866329
-0.0854998
-0.0843906
-0.0833285
-0.0822114
-0.0810998
-0.080023
-0.0789882
-0.0779815
-0.0769677
-0.0759043
-0.0775469
-0.0777773
-0.0766599
-0.0758515
-0.0747713
-0.0753589
-0.0762177
-0.0769117
-0.0771072
-0.0866467
-0.0853058
-0.084177
-0.0833147
-0.0822999
-0.0812291
-0.0801591
-0.0791187
-0.0781131
-0.0771159
-0.0760856
-0.0749786
-0.0779713
-0.0767256
-0.0764894
-0.0757681
-0.0749058
-0.073778
-0.0743937
-0.075292
-0.0760537
-0.0763019
-0.0769122
-0.0770048
-0.0864719
-0.084756
-0.0835863
-0.0830794
-0.0822747
-0.0813129
-0.0802887
-0.0792598
-0.0782527
-0.0772656
-0.076263
-0.0751944
-0.0740175
-0.0766876
-0.0764708
-0.0758343
-0.0755886
-0.0748188
-0.0739112
-0.0727157
-0.0733709
-0.0743205
-0.0751178
-0.0753688
-0.0760223
-0.0762622
-0.0859598
-0.0836347
-0.0823901
-0.0824428
-0.0820119
-0.0812734
-0.0803678
-0.0793913
-0.0784021
-0.0774226
-0.0764414
-0.0754121
-0.0742782
-0.0729966
-0.0757874
-0.0755563
-0.0748819
-0.0746283
-0.0738145
-0.0728497
-0.0715854
-0.0722723
-0.0732863
-0.0741325
-0.0743961
-0.0750818
-0.0753228
-0.0849056
-0.0816938
-0.0803281
-0.0811634
-0.0813206
-0.080977
-0.0803124
-0.0794646
-0.0785361
-0.0775837
-0.0766239
-0.0756306
-0.0745474
-0.0733141
-0.071907
-0.0748313
-0.0745926
-0.0738806
-0.0736092
-0.0727425
-0.0717039
-0.0704128
-0.0710812
-0.0721727
-0.0730792
-0.0733638
-0.0740913
-0.0743465
-0.083073
-0.0787185
-0.07718
-0.0789691
-0.0799463
-0.0802223
-0.0799781
-0.0793887
-0.0786021
-0.0777212
-0.076801
-0.0758475
-0.0748171
-0.0736476
-0.0722831
-0.0707482
-0.073828
-0.0735667
-0.072809
-0.0725209
-0.0715768
-0.070515
-0.0690347
-0.0698888
-0.070949
-0.0719505
-0.0722511
-0.0730327
-0.073308
-0.0802559
-0.0746201
-0.0728617
-0.0756345
-0.0776058
-0.0787396
-0.0791479
-0.0790072
-0.0785009
-0.0777778
-0.0769429
-0.0760449
-0.0750768
-0.0739803
-0.0726889
-0.0711698
-0.0694376
-0.0727489
-0.0724717
-0.0716508
-0.0713417
-0.0703872
-0.0692025
-0.06744
-0.0683634
-0.0698256
-0.070699
-0.0710292
-0.0718958
-0.0721897
-0.0763644
-0.0694979
-0.0674861
-0.0710829
-0.0740714
-0.0762352
-0.0775383
-0.078089
-0.0780628
-0.0776443
-0.0769865
-0.0761919
-0.0752992
-0.0742907
-0.0730935
-0.0716464
-0.0699301
-0.0679419
-0.0715862
-0.0712853
-0.0703928
-0.0700917
-0.0690021
-0.0676
-0.0656199
-0.0666605
-0.0681884
-0.0694228
-0.0700247
-0.0706198
-0.0709644
-0.0714847
-0.063628
-0.0613515
-0.0654458
-0.069276
-0.0724815
-0.0748494
-0.0763373
-0.0770415
-0.0771373
-0.0768118
-0.0762184
-0.0754519
-0.0745426
-0.0734596
-0.0721261
-0.070486
-0.0685308
-0.0662362
-0.0702542
-0.0697949
-0.0690632
-0.0686338
-0.0673733
-0.0657573
-0.0635874
-0.0646699
-0.0664562
-0.0678548
-0.0683007
-0.0691672
-0.0701965
-0.0658754
-0.0573777
-0.0548475
-0.0590446
-0.0633711
-0.0674274
-0.0708582
-0.0734443
-0.0751253
-0.0759948
-0.0762211
-0.0759924
-0.0754563
-0.0747013
-0.0737456
-0.0725499
-0.0710444
-0.0691788
-0.0669447
-0.0643147
-0.0689029
-0.0685558
-0.0674715
-0.0670016
-0.0654832
-0.0636281
-0.0612331
-0.0625645
-0.064396
-0.0660753
-0.0665839
-0.0677855
-0.0681989
-0.0690679
-0.0704348
-0.0598818
-0.0511321
-0.0483839
-0.0522928
-0.0567044
-0.0612486
-0.0655316
-0.0691949
-0.0720048
-0.0738918
-0.0749358
-0.075301
-0.0751676
-0.074678
-0.0739107
-0.0728749
-0.0715276
-0.0698184
-0.0676987
-0.0651566
-0.0621864
-0.0688265
-0.0684863
-0.0673718
-0.0669245
-0.0656011
-0.0650531
-0.0632211
-0.0602296
-0.0588535
-0.061435
-0.0639598
-0.0645494
-0.0659902
-0.0664792
-0.0676993
-0.0681024
-0.0538661
-0.0452641
-0.0423558
-0.0456264
-0.0497144
-0.0543197
-0.0590729
-0.0635811
-0.0674781
-0.0705198
-0.0726217
-0.0738496
-0.0743567
-0.0743143
-0.0738539
-0.0730463
-0.0718955
-0.0703641
-0.0684212
-0.0660241
-0.0631645
-0.0598802
-0.0672646
-0.0668345
-0.0654932
-0.0649617
-0.0634521
-0.0630244
-0.0605193
-0.0579719
-0.0593975
-0.0563078
-0.0614826
-0.063831
-0.0644282
-0.0658889
-0.0663643
-0.048177
-0.0401161
-0.0371203
-0.0394606
-0.0428642
-0.0471059
-0.0518871
-0.0568393
-0.0615672
-0.0656973
-0.0689753
-0.0712977
-0.0727159
-0.0733654
-0.0734021
-0.0729497
-0.0720718
-0.0707742
-0.0690312
-0.0668294
-0.0641398
-0.0609641
-0.0573895
-0.0653754
-0.0648616
-0.063143
-0.0619293
-0.0606615
-0.060113
-0.0581534
-0.0553934
-0.0569168
-0.0595365
-0.0589294
-0.0536488
-0.0617842
-0.0612518
-0.0637193
-0.0643076
-0.0431407
-0.0359684
-0.0329572
-0.0341659
-0.0365872
-0.0400938
-0.0444657
-0.0494053
-0.0545425
-0.0594796
-0.0638387
-0.0673525
-0.0699015
-0.0715109
-0.0722946
-0.0723958
-0.0719274
-0.0709503
-0.0694768
-0.0674981
-0.0650166
-0.062025
-0.0585421
-0.0547324
-0.0630504
-0.0622405
-0.0582232
-0.0576396
-0.0555298
-0.0527281
-0.0542223
-0.0570202
-0.0563499
-0.0509191
-0.0390349
-0.0329686
-0.0299936
-0.0300158
-0.0312636
-0.0337356
-0.0373186
-0.0417968
-0.0468727
-0.0521756
-0.0573076
-0.061888
-0.0656362
-0.0684083
-0.0702027
-0.0711114
-0.0712576
-0.0707481
-0.0696465
-0.0679758
-0.0657425
-0.0629637
-0.0596606
-0.0559053
-0.0519263
-0.055576
-0.0549651
-0.0527408
-0.0501345
-0.0514676
-0.0543012
-0.0536226
-0.0479314
-0.0360217
-0.0310827
-0.0281689
-0.0271156
-0.0271569
-0.0284173
-0.0309143
-0.034546
-0.0391022
-0.0442873
-0.0497326
-0.0550433
-0.0598326
-0.0638064
-0.0667934
-0.0687623
-0.0697779
-0.0699483
-0.0693729
-0.0681223
-0.0662356
-0.0637364
-0.0606521
-0.0570485
-0.0530696
-0.0489457
-0.0527903
-0.0521469
-0.0503252
-0.0470067
-0.0487474
-0.0514281
-0.0507399
-0.0448847
-0.0340949
-0.0301162
-0.0272635
-0.0253728
-0.0243443
-0.0243862
-0.0256381
-0.0281328
-0.0317827
-0.0363846
-0.0416486
-0.0472113
-0.0526791
-0.0576613
-0.0618436
-0.0650302
-0.0671546
-0.0682586
-0.0684324
-0.0677719
-0.0663532
-0.0642358
-0.0614582
-0.0580763
-0.0542085
-0.0500554
-0.0458736
-0.0499851
-0.0499768
-0.0470581
-0.0439608
-0.0456053
-0.0486484
-0.0479031
-0.0418682
-0.0330856
-0.0297933
-0.0269864
-0.024541
-0.0226994
-0.0216862
-0.0217139
-0.0229362
-0.0254019
-0.0290359
-0.0336487
-0.0389592
-0.0446106
-0.0502102
-0.0553598
-0.0597305
-0.0630926
-0.0653511
-0.0665175
-0.0666701
-0.0659066
-0.0643098
-0.0619521
-0.0589007
-0.0552519
-0.0511807
-0.0469333
-0.042793
-0.0501157
-0.0470719
-0.0463526
-0.0440248
-0.0409936
-0.0425978
-0.0456208
-0.0448831
-0.0483465
-0.0476752
-0.0389372
-0.0327307
-0.0298435
-0.0270636
-0.0243147
-0.0219491
-0.0201537
-0.0191487
-0.0191508
-0.0203234
-0.0227295
-0.0263137
-0.0309017
-0.0362247
-0.0419314
-0.0476321
-0.0529218
-0.0574497
-0.0609607
-0.0633285
-0.064536
-0.0646475
-0.0637617
-0.0619764
-0.0593814
-0.0560807
-0.052219
-0.0480286
-0.0437833
-0.0397764
-0.0468218
-0.0461125
-0.0440461
-0.0433368
-0.041047
-0.0381314
-0.0396702
-0.0425912
-0.0418731
-0.0454138
-0.0446495
-0.036145
-0.0327637
-0.030057
-0.0272882
-0.0244181
-0.0217756
-0.019491
-0.0177419
-0.016741
-0.0167066
-0.0178083
-0.0201269
-0.023627
-0.0281535
-0.0334514
-0.0391787
-0.0449466
-0.0503417
-0.0549936
-0.0586185
-0.0610603
-0.0622863
-0.0623419
-0.0613277
-0.0593543
-0.056542
-0.0530379
-0.0490409
-0.0448255
-0.0406903
-0.0368861
-0.0438046
-0.0430885
-0.0410545
-0.0403699
-0.0381754
-0.0354196
-0.0368698
-0.0396479
-0.0389616
-0.0423815
-0.0416327
-0.033538
-0.03297
-0.0303019
-0.0275354
-0.0246506
-0.0219043
-0.0193719
-0.017172
-0.01547
-0.0144713
-0.0143887
-0.0154002
-0.0176039
-0.0209867
-0.0254145
-0.0306497
-0.0363606
-0.0421594
-0.0476229
-0.052363
-0.0560679
-0.0585557
-0.0597714
-0.0597568
-0.0586127
-0.0564664
-0.0534747
-0.0498339
-0.0457932
-0.0416553
-0.0377185
-0.0341824
-0.0408206
-0.040123
-0.0381719
-0.0375245
-0.0354632
-0.032898
-0.0342411
-0.0368388
-0.0361945
-0.0394423
-0.0387233
-0.0311575
-0.03321
-0.029772
-0.0311974
-0.0248951
-0.0270264
-0.0283896
-0.0221429
-0.0195253
-0.0171069
-0.0149949
-0.0133421
-0.0123414
-0.0122017
-0.0131076
-0.0151728
-0.0184049
-0.0226974
-0.0278333
-0.0334915
-0.0392825
-0.0447724
-0.0495569
-0.0533063
-0.0558127
-0.057003
-0.0569125
-0.0556462
-0.0533567
-0.0502425
-0.0465487
-0.0425612
-0.0385938
-0.0349216
-0.0317191
-0.0379453
-0.0372886
-0.0354547
-0.0348483
-0.0329454
-0.0305959
-0.0318199
-0.0342091
-0.0336147
-0.036637
-0.0359696
-0.0290252
-0.0326455
-0.0341285
-0.0295121
-0.0302344
-0.0308984
-0.0316077
-0.0223829
-0.0244079
-0.0257061
-0.0267747
-0.0274644
-0.0281004
-0.0287791
-0.0197684
-0.0172824
-0.0149816
-0.0129607
-0.0113583
-0.0103556
-0.0101539
-0.0109395
-0.0128398
-0.0158927
-0.0200181
-0.0250213
-0.0305912
-0.036338
-0.0418168
-0.0466071
-0.0503627
-0.0528615
-0.0540119
-0.0538451
-0.0524772
-0.050092
-0.0469282
-0.0432685
-0.0394264
-0.0357035
-0.0323576
-0.0295284
-0.0352398
-0.0346231
-0.0329386
-0.0323759
-0.0306548
-0.0285205
-0.0296269
-0.0317986
-0.0312526
-0.0340217
-0.033402
-0.0271432
-0.0323768
-0.0331296
-0.0338206
-0.0295935
-0.0302968
-0.0309216
-0.0316064
-0.0200021
-0.0219191
-0.0231507
-0.0241657
-0.0248217
-0.0254285
-0.0260752
-0.0268501
-0.0275226
-0.0281213
-0.0287771
-0.0175278
-0.0151765
-0.012996
-0.011069
-0.00952076
-0.00851556
-0.00824498
-0.00889677
-0.0106152
-0.0134639
-0.0173944
-0.0222346
-0.0276843
-0.0333486
-0.0387781
-0.0435401
-0.0472734
-0.0497419
-0.0508427
-0.050609
-0.0491732
-0.0467513
-0.043616
-0.0400809
-0.0364598
-0.0330483
-0.0300763
-0.0276072
-0.0327417
-0.0321705
-0.0306537
-0.0301377
-0.0285959
-0.0266606
-0.0276494
-0.0296228
-0.0291298
-0.0316257
-0.0310632
-0.0255026
-0.0324654
-0.033198
-0.0338472
-0.0177541
-0.0195619
-0.0207261
-0.0216865
-0.022308
-0.0228853
-0.0234999
-0.0242352
-0.0248757
-0.0254473
-0.0260733
-0.0154219
-0.0132069
-0.0111485
-0.00931882
-0.00782568
-0.00681863
-0.00647564
-0.00698408
-0.00850536
-0.0111331
-0.0148503
-0.0195038
-0.0248033
-0.0303554
-0.0357033
-0.0404047
-0.0440875
-0.0465053
-0.0475531
-0.0472712
-0.0458143
-0.0434228
-0.0403985
-0.0370642
-0.0337325
-0.0306867
-0.028096
-0.0259571
-0.0304707
-0.0299571
-0.0286073
-0.0281332
-0.0267277
-0.0250108
-0.0258193
-0.0276773
-0.0272241
-0.0294649
-0.0289685
-0.0241005
-0.0156394
-0.0173376
-0.0184339
-0.019339
-0.0199257
-0.0204734
-0.0210553
-0.0217499
-0.0223575
-0.0229021
-0.0234982
-0.0134499
-0.0113716
-0.00943712
-0.00770573
-0.00627076
-0.00526042
-0.00484146
-0.00520122
-0.00651915
-0.00891767
-0.0124094
-0.0168607
-0.0219899
-0.0274053
-0.0326441
-0.0372549
-0.0408592
-0.0432104
-0.0442087
-0.0439093
-0.0424822
-0.0401945
-0.037356
-0.0342908
-0.0313108
-0.0286481
-0.026431
-0.0245915
-0.0284393
-0.0279752
-0.0267679
-0.026319
-0.0249735
-0.023532
-0.0241851
-0.0258928
-0.0254434
-0.0275384
-0.0270856
-0.0228566
-0.0136576
-0.0152462
-0.0162747
-0.0171247
-0.0176763
-0.0181937
-0.0187428
-0.0193963
-0.0199707
-0.0204882
-0.0210538
-0.0116101
-0.00966828
-0.00785711
-0.00622537
-0.0048472
-0.003834
-0.00333762
-0.00354846
-0.00466438
-0.00683247
-0.0100958
-0.0143395
-0.0192908
-0.0245516
-0.0296543
-0.0341435
-0.0376439
-0.0399172
-0.0408785
-0.0405959
-0.0392612
-0.0371445
-0.034559
-0.0318279
-0.0292277
-0.02696
-0.0250865
-0.0234395
-0.0266179
-0.0261838
-0.0249891
-0.0245265
-0.0234508
-0.0221897
-0.0226963
-0.0241275
-0.0238728
-0.0257726
-0.0253262
-0.0215787
-0.011807
-0.0132873
-0.0142484
-0.0150434
-0.0155601
-0.0160472
-0.0165633
-0.0171759
-0.0177168
-0.0182065
-0.0187412
-0.00989983
-0.00809219
-0.00640371
-0.00486978
-0.0035474
-0.00252804
-0.0019557
-0.00202579
-0.00295137
-0.00490646
-0.0079507
-0.0119913
-0.0167575
-0.0218457
-0.0267844
-0.0311211
-0.0344934
-0.0366835
-0.0376252
-0.0374051
-0.0362186
-0.0343372
-0.0320701
-0.0297112
-0.027516
-0.0256207
-0.0239955
-0.0223358
-0.0248358
-0.0243241
-0.0234278
-0.0230103
-0.0221336
-0.0207794
-0.0213535
-0.0227745
-0.0224161
-0.0237625
-0.0240139
-0.0201199
-0.0100849
-0.0114589
-0.0123538
-0.0130947
-0.0135767
-0.0140335
-0.0145168
-0.0150888
-0.0155962
-0.0160578
-0.0165614
-0.00831489
-0.00663879
-0.00506974
-0.00362949
-0.0023575
-0.00133192
-0.000690201
-0.000632019
-0.00138978
-0.00315586
-0.00600839
-0.00985925
-0.0144358
-0.0193324
-0.0240766
-0.0282293
-0.0314534
-0.0335592
-0.0345053
-0.0343892
-0.0334087
-0.0318245
-0.0299179
-0.0279667
-0.0261614
-0.0245622
-0.02302
-0.0211069
-0.0231184
-0.0229019
-0.0221772
-0.0217844
-0.0207209
-0.0191377
-0.01981
-0.0214854
-0.0210645
-0.022684
-0.022382
-0.0242709
-0.0183539
-0.00848714
-0.00975831
-0.0105886
-0.0112765
-0.0117246
-0.0121514
-0.0126023
-0.0131345
-0.0136086
-0.0140421
-0.0145145
-0.00685043
-0.00530133
-0.00384608
-0.00249255
-0.00126562
-0.000233911
0.000463338
0.000619221
-5.90659e-06
-0.00161798
-0.00430604
-0.00797945
-0.0123626
-0.0170443
-0.0215617
-0.0255007
-0.028559
-0.0305829
-0.031558
-0.0315903
-0.0308659
-0.0296221
-0.0281168
-0.0265638
-0.025094
-0.0236604
-0.0219757
-0.0196109
-0.0230255
-0.0228475
-0.0220635
-0.0217192
-0.0207641
-0.0203038
-0.019033
-0.0171254
-0.0179522
-0.0199317
-0.0194273
-0.0213881
-0.0210052
-0.02258
-0.0222724
-0.0161786
-0.00700873
-0.00818115
-0.00894929
-0.00958599
-0.0100011
-0.0103985
-0.0108178
-0.011311
-0.0117524
-0.012158
-0.0125997
-0.00550031
-0.004072
-0.002722
-0.00144526
-0.00025719
0.000773986
0.00150516
0.00172283
0.00118426
-0.000319091
-0.00287177
-0.00637933
-0.0105604
-0.0150012
-0.0192602
-0.0229557
-0.0258326
-0.0277796
-0.0288074
-0.029022
-0.0285929
-0.0277253
-0.0266195
-0.025434
-0.0241921
-0.0227249
-0.0206998
-0.0177171
-0.0219265