/*--------------------------------*- C++ -*----------------------------------*\
| =========                 |                                                 |
| \\      /  F ield         | OpenFOAM: The Open Source CFD Toolbox           |
|  \\    /   O peration     | Version:  v1912                                 |
|   \\  /    A nd           | Website:  www.openfoam.com                      |
|    \\/     M anipulation  |                                                 |
\*---------------------------------------------------------------------------*/
FoamFile
{
    version     2.0;
    format      ascii;
    class       volVectorField;
    location    "150";
    object      U;
}
// * * * * * * * * * * * * * * * * * * * * * * * * * * * * * * * * * * * * * //

dimensions      [0 1 -1 0 0 0 0];


internalField   nonuniform List<vector> 
3753
(
(0.0488555 0.020712 0)
(0.150786 0.0621079 2.85392e-23)
(0.0483643 0.0205113 -1.32308e-23)
(0.254544 0.102808 0)
(0.1493 0.0615082 -1.40346e-23)
(0.0478958 0.0203133 1.33096e-23)
(0.355607 0.140817 -1.01129e-20)
(0.252072 0.101822 -1.10075e-23)
(0.147868 0.0609231 -1.35757e-20)
(0.047442 0.0201192 1.23769e-23)
(0.447331 0.173639 8.88144e-21)
(0.352156 0.139456 -9.71842e-21)
(0.24965 0.100849 1.10857e-20)
(0.146451 0.0603424 1.25475e-23)
(0.0469858 0.0199261 -1.25049e-20)
(0.521811 0.198486 -7.75483e-24)
(0.442935 0.171927 8.54796e-21)
(0.348758 0.138118 0)
(0.247271 0.0998988 1.02083e-23)
(0.145049 0.059765 -1.2577e-23)
(0.0465451 0.0197378 0)
(0.571255 0.212843 2.96338e-25)
(0.516555 0.196468 7.80654e-21)
(0.438604 0.170253 7.8747e-24)
(0.345425 0.136808 -9.01101e-21)
(0.244908 0.0989446 -1.02237e-23)
(0.143681 0.0591994 0)
(0.0461019 0.0195485 0)
(0.589604 0.215073 -7.24613e-24)
(0.565259 0.210574 -7.3518e-21)
(0.511392 0.194504 0)
(0.434363 0.168612 7.90965e-21)
(0.342116 0.135497 0)
(0.242576 0.0979995 0)
(0.142321 0.0586368 0)
(0.0456573 0.0193584 -1.12607e-20)
(0.574034 0.204885 0)
(0.583021 0.212615 7.31455e-21)
(0.559381 0.208374 0)
(0.506327 0.192575 1.3797e-23)
(0.430152 0.166975 -2.21683e-23)
(0.338832 0.134193 0)
(0.240267 0.0970645 0)
(0.140961 0.0580721 0)
(0.0452225 0.0191713 1.04012e-23)
(0.525737 0.183493 8.17281e-24)
(0.567013 0.202297 -7.43823e-21)
(0.576569 0.210244 0)
(0.553613 0.206219 6.8362e-21)
(0.501306 0.19066 -1.38101e-23)
(0.425976 0.165348 5.70707e-25)
(0.335585 0.132903 0)
(0.237974 0.0961308 0)
(0.13961 0.057512 0)
(0.0447984 0.018993 -1.04513e-23)
(0.449693 0.153387 4.49198e-24)
(0.518393 0.180817 -4.00656e-24)
(0.56014 0.199829 7.18293e-21)
(0.570277 0.207944 -6.69987e-21)
(0.547938 0.204093 6.5904e-21)
(0.496337 0.188758 0)
(0.421844 0.163733 1.40396e-23)
(0.332357 0.131614 0)
(0.235703 0.0952092 0)
(0.138295 0.0569656 -1.04298e-20)
(0.044369 0.0188145 0)
(0.353555 0.117816 -5.54534e-21)
(0.442058 0.150631 2.98415e-23)
(0.511245 0.178324 -7.64213e-21)
(0.553536 0.19747 2.75247e-23)
(0.564144 0.205687 -6.43664e-21)
(0.54234 0.201989 0)
(0.491423 0.186871 0)
(0.417736 0.162126 -6.48845e-24)
(0.329173 0.130343 0)
(0.233457 0.0942901 8.46207e-21)
(0.136977 0.0564237 1.00333e-20)
(0.0439459 0.0186357 0)
(0.246224 0.0801571 7.81667e-21)
(0.345415 0.114931 -5.28338e-24)
(0.434712 0.148155 -1.51133e-24)
(0.504553 0.175993 0)
(0.547193 0.195179 0)
(0.558144 0.203476 -2.48997e-23)
(0.536822 0.19991 6.11537e-21)
(0.48655 0.185002 0)
(0.41368 0.160536 6.49507e-24)
(0.325998 0.129073 0)
(0.231231 0.0933904 -8.13139e-21)
(0.135688 0.055892 4.61406e-24)
(0.0435272 0.018457 0)
(0.23642 0.0768501 -3.08225e-21)
(0.160539 0.0514847 2.68032e-21)
(0.164737 0.0528527 -2.72126e-21)
(0.337816 0.112441 0)
(0.428191 0.145935 8.36036e-21)
(0.498302 0.173777 -7.2534e-21)
(0.541082 0.192971 0)
(0.552269 0.201306 -5.99211e-21)
(0.531379 0.197862 1.12305e-23)
(0.481741 0.183153 5.95784e-21)
(0.409658 0.158962 0)
(0.322885 0.127833 0)
(0.229045 0.0925012 -1.60552e-25)
(0.134408 0.0553632 -4.62178e-24)
(0.0431167 0.0182807 0)
(0.22809 0.0741224 1.38678e-21)
(0.147519 0.0474571 2.63478e-21)
(0.154191 0.0489867 2.6684e-21)
(0.105483 0.0335318 -2.38735e-21)
(0.10921 0.0346297 6.03347e-22)
(0.33174 0.11037 -9.76324e-21)
(0.422383 0.143912 8.07438e-21)
(0.49242 0.171691 -2.6699e-23)
(0.535169 0.190831 0)
(0.54652 0.199184 -1.15664e-23)
(0.526023 0.195843 -5.63976e-21)
(0.477003 0.181334 0)
(0.405703 0.157412 2.87802e-24)
(0.319811 0.126604 3.14966e-24)
(0.226898 0.09163 -3.73804e-24)
(0.13315 0.0548401 0)
(0.0427359 0.0181176 0)
(0.222984 0.0722492 3.106e-21)
(0.140234 0.0448279 -5.1395e-21)
(0.142858 0.0456997 0)
(0.0885196 0.0282855 -6.07161e-22)
(0.0978237 0.0305056 0)
(0.0635983 0.0200731 4.93089e-23)
(0.0658848 0.0208726 7.99142e-22)
(0.0672515 0.021185 -8.37591e-22)
(0.326801 0.108669 3.80117e-23)
(0.417117 0.14208 -1.12056e-24)
(0.486831 0.169713 9.90606e-25)
(0.529441 0.18876 0)
(0.540889 0.197104 0)
(0.520754 0.193859 0)
(0.472334 0.179538 0)
(0.401803 0.155883 -2.88128e-24)
(0.316804 0.125405 6.31473e-21)
(0.224793 0.0907718 -3.43379e-24)
(0.131956 0.0543414 8.51277e-21)
(0.0423447 0.0179526 0)
(0.219505 0.0710715 -2.90321e-21)
(0.137246 0.0437093 4.96881e-21)
(0.138396 0.0440026 -9.98843e-21)
(0.0823743 0.025911 2.90332e-21)
(0.084118 0.0266088 -5.97829e-22)
(0.0423513 0.0136014 7.83018e-22)
(0.0457934 0.0145384 2.67168e-23)
(0.0596887 0.0187129 -2.58912e-23)
(0.0528443 0.0156731 4.6459e-22)
(0.03677 0.011606 -7.54009e-22)
(0.0384859 0.0121113 1.13848e-23)
(0.0393 0.0122978 1.16955e-23)
(0.322536 0.107224 0)
(0.412232 0.140391 -7.7099e-21)
(0.481494 0.167825 2.58713e-23)
(0.52387 0.186747 0)
(0.535374 0.19507 5.15076e-24)
(0.51558 0.191908 5.24015e-21)
(0.467732 0.177771 -5.28437e-21)
(0.397987 0.154388 6.86682e-24)
(0.313859 0.124227 0)
(0.222754 0.0899363 -6.88693e-21)
(0.130773 0.05385 8.16032e-21)
(0.0419721 0.0177955 0)
(0.216688 0.0701914 2.7314e-21)
(0.135397 0.0431538 4.77669e-21)
(0.13618 0.0432837 4.89082e-21)
(0.0807781 0.0253613 -4.46423e-21)
(0.0813984 0.0255587 5.69883e-21)
(0.0391389 0.0122166 6.10583e-24)
(0.0393638 0.012269 -2.36601e-21)
(0.0405238 0.0127362 8.59172e-22)
(0.0396875 0.0124624 -3.76133e-23)
(0.013993 0.00456309 -5.43117e-22)
(0.0155271 0.00510865 0)
(0.0340599 0.0103012 -6.93774e-22)
(0.0232445 0.00556492 -3.41627e-22)
(0.0117604 0.0037735 5.30514e-22)
(0.0124227 0.003879 0)
(0.0126642 0.00394076 0)
(0.318704 0.105937 8.92055e-21)
(0.407622 0.138799 7.40823e-21)
(0.476344 0.166009 1.20021e-23)
(0.518449 0.184791 5.61839e-21)
(0.52997 0.193075 -5.15619e-21)
(0.510486 0.189993 5.0013e-21)
(0.463236 0.176042 -5.05131e-21)
(0.394259 0.152924 5.32051e-21)
(0.310995 0.123076 0)
(0.220772 0.0891269 -6.60064e-21)
(0.129637 0.0533756 0)
(0.0416063 0.0176427 0)
(0.2142 0.0694079 2.68145e-21)
(0.133877 0.0427044 3.0829e-23)
(0.134519 0.0428058 0)
(0.0798282 0.0250872 -1.10565e-21)
(0.0802783 0.0252033 -4.40503e-21)
(0.0386751 0.0120634 5.92733e-24)
(0.0387242 0.0120556 -1.19027e-23)
(0.0389497 0.0121249 -1.55103e-21)
(0.0388414 0.0121262 5.97941e-24)
(0.0124924 0.00387788 -1.04167e-21)
(0.0125609 0.00390188 -2.04381e-24)
(0.0130107 0.00409682 -5.77756e-22)
(0.0126689 0.00395798 0)
(0.0110195 0.0035756 3.48578e-22)
(0.00646247 0.00149429 6.88352e-23)
(0.315131 0.104744 -1.74025e-20)
(0.403239 0.137295 1.41221e-23)
(0.471367 0.164252 -6.00005e-21)
(0.513149 0.182878 -5.40728e-21)
(0.524668 0.191124 2.3782e-24)
(0.505505 0.188115 -2.39807e-24)
(0.458831 0.174346 -9.70788e-21)
(0.390624 0.151493 -5.09628e-21)
(0.308214 0.121957 0)
(0.218847 0.0883351 0)
(0.128532 0.0529186 -3.5623e-24)
(0.0412381 0.0174868 7.3351e-21)
(0.211884 0.0686729 1.52385e-20)
(0.132464 0.0422668 4.33124e-24)
(0.133084 0.0423746 -4.5171e-21)
(0.0789934 0.0248422 -4.18946e-21)
(0.0793961 0.0249558 1.47499e-25)
(0.0383129 0.0119644 -1.45786e-21)
(0.0383752 0.0119487 1.46126e-21)
(0.0385456 0.0119935 0)
(0.0384623 0.0120067 -1.48685e-21)
(0.0123711 0.00383967 1.00618e-21)
(0.0123769 0.00384278 -1.01236e-21)
(0.0124393 0.00386018 -1.02927e-21)
(0.0124079 0.00385772 -1.02139e-21)
(0.311778 0.103625 -1.67317e-23)
(0.399015 0.135839 0)
(0.466513 0.162543 5.76332e-21)
(0.507969 0.181014 -5.19823e-21)
(0.519476 0.189208 -2.38042e-24)
(0.500622 0.186275 4.59934e-21)
(0.454538 0.17269 4.63644e-21)
(0.387082 0.150093 2.32665e-24)
(0.305507 0.120865 0)
(0.21699 0.0875755 0)
(0.127442 0.0524645 -7.11468e-21)
(0.0409074 0.0173411 8.87559e-24)
(0.209692 0.0679591 -4.95906e-21)
(0.131103 0.041841 -4.31295e-21)
(0.131701 0.0419428 -4.36724e-21)
(0.0781843 0.0245962 3.95418e-24)
(0.0785885 0.0247135 4.08504e-24)
(0.0379387 0.0118511 0)
(0.0380222 0.0118439 -1.4354e-21)
(0.0381873 0.0118976 0)
(0.0381204 0.0119043 5.58775e-24)
(0.0122525 0.00380804 1.73767e-24)
(0.0122834 0.00380875 9.84372e-22)
(0.0123305 0.00382182 -9.97929e-22)
(0.012298 0.00382104 9.87369e-22)
(0.308527 0.102537 8.19329e-21)
(0.394911 0.134434 3.15121e-24)
(0.461787 0.16088 5.53816e-21)
(0.502882 0.179178 0)
(0.51438 0.187329 0)
(0.495851 0.184473 0)
(0.450353 0.171071 4.34458e-24)
(0.383652 0.148736 4.66274e-21)
(0.302906 0.119815 0)
(0.215184 0.0868322 -2.73834e-24)
(0.12639 0.0520207 -1.35794e-20)
(0.0405671 0.0172014 0)
(0.207542 0.0672662 -9.44691e-21)
(0.129799 0.0414161 4.16141e-21)
(0.130379 0.0415203 4.21217e-21)
(0.0773966 0.0243543 -9.9701e-22)
(0.0777901 0.0244631 -3.9579e-24)
(0.03757 0.0117383 0)
(0.0376486 0.0117325 0)
(0.0378097 0.0117807 -1.4038e-21)
(0.0377467 0.0117907 0)
(0.012133 0.00377084 -9.49319e-22)
(0.0121706 0.00377355 1.91217e-21)
(0.0122297 0.0037964 -3.80188e-24)
(0.0122075 0.00379264 -9.61714e-22)
(0.305401 0.101497 0)
(0.390925 0.133064 -3.15643e-24)
(0.457145 0.159246 2.67728e-24)
(0.497892 0.177379 4.79289e-21)
(0.509383 0.185484 0)
(0.491189 0.182707 4.25617e-21)
(0.446283 0.169491 -4.24701e-21)
(0.380341 0.147419 0)
(0.300384 0.118791 2.3045e-24)
(0.213418 0.0861035 5.47814e-21)
(0.125372 0.0516003 3.23885e-24)
(0.0402234 0.017058 -1.21094e-23)
(0.205497 0.066598 2.30138e-21)
(0.128516 0.0410119 1.32157e-23)
(0.129094 0.0411123 4.07925e-21)
(0.0766293 0.0241071 -3.69946e-24)
(0.0770023 0.0242161 -9.80137e-22)
(0.0371981 0.011622 0)
(0.0372667 0.0116143 1.32938e-21)
(0.0374528 0.011671 0)
(0.0373823 0.011671 0)
(0.0120247 0.00373726 -9.22817e-22)
(0.0120576 0.00374014 9.29553e-22)
(0.0121046 0.00375623 9.39387e-22)
(0.012078 0.00375391 -9.34769e-22)
(0.302353 0.100474 0)
(0.387012 0.131721 -6.15924e-21)
(0.45257 0.157635 -5.11316e-21)
(0.492975 0.175607 -6.44597e-24)
(0.504482 0.183669 4.44271e-23)
(0.48664 0.180978 0)
(0.44235 0.167953 -4.07764e-21)
(0.377135 0.146137 0)
(0.297926 0.117792 -4.49568e-24)
(0.211703 0.0853998 0)
(0.124358 0.0511806 6.13992e-21)
(0.0399038 0.0169228 1.21267e-20)
(0.203487 0.065944 -2.21929e-21)
(0.127291 0.0406096 -3.86827e-21)
(0.127837 0.040709 -3.97005e-21)
(0.0758895 0.0238789 -3.67786e-21)
(0.0762676 0.0239833 3.70381e-24)
(0.0368373 0.011504 0)
(0.0369093 0.0115024 5.06206e-24)
(0.0370671 0.0115513 1.30603e-21)
(0.0369887 0.0115575 -5.05782e-24)
(0.0118988 0.00369782 -8.95609e-22)
(0.0119227 0.00369894 9.02393e-22)
(0.011995 0.00372263 -9.14437e-22)
(0.011961 0.00371383 -9.08538e-22)
(0.299355 0.0994733 7.1514e-21)
(0.383145 0.130393 0)
(0.448062 0.156049 0)
(0.488125 0.173854 -4.33206e-21)
(0.499673 0.181882 8.04396e-24)
(0.482217 0.179281 3.85047e-21)
(0.43853 0.16645 1.93605e-24)
(0.374017 0.144889 0)
(0.295538 0.116823 2.19086e-24)
(0.210027 0.0847135 -4.93659e-21)
(0.123373 0.0507725 1.92182e-24)
(0.0395829 0.0167863 5.75622e-21)
(0.201509 0.0653007 0)
(0.126072 0.0402249 -2.87032e-23)
(0.126625 0.0403237 0)
(0.0751655 0.0236452 -1.79451e-21)
(0.0755242 0.0237458 2.69629e-21)
(0.0364842 0.0113985 -1.24308e-21)
(0.0365472 0.0113889 4.8422e-24)
(0.0366997 0.011436 0)
(0.0366388 0.011442 0)
(0.0117818 0.00365964 -8.69204e-22)
(0.011821 0.00366729 8.75406e-22)
(0.0118678 0.00368296 0)
(0.0118378 0.00368048 -8.81193e-22)
(0.296396 0.0984837 0)
(0.379324 0.12908 -1.07515e-23)
(0.44358 0.15447 0)
(0.483327 0.172114 0)
(0.49495 0.180111 0)
(0.477899 0.177615 1.93017e-24)
(0.434821 0.164987 -3.7035e-21)
(0.37099 0.143676 0)
(0.293201 0.115879 4.15397e-21)
(0.208384 0.0840418 -4.69518e-21)
(0.122399 0.0503647 3.25566e-24)
(0.039251 0.0166468 -1.03208e-23)
(0.199564 0.0646675 -2.06656e-21)
(0.124888 0.0398424 3.61748e-21)
(0.125419 0.03994 0)
(0.0744517 0.0234234 3.44089e-21)
(0.0748073 0.0235222 -1.35612e-23)
(0.0361348 0.0112856 1.19084e-21)
(0.0362128 0.0112897 1.20184e-21)
(0.0363676 0.0113315 1.21799e-21)
(0.0362926 0.0113322 -4.71349e-24)
(0.0116662 0.0036264 -2.02769e-24)
(0.0116992 0.00362848 8.49067e-22)
(0.0117399 0.00364399 -8.60418e-22)
(0.011721 0.00364105 -8.54109e-22)
(0.293466 0.0975003 -1.27771e-23)
(0.375507 0.12777 1.07616e-23)
(0.439101 0.152888 -1.7426e-23)
(0.478557 0.17037 7.67294e-24)
(0.49031 0.178357 7.03213e-24)
(0.473698 0.175981 3.50239e-21)
(0.431209 0.163559 0)
(0.368029 0.142494 1.19421e-23)
(0.290919 0.114956 0)
(0.206752 0.0833691 -4.43587e-21)
(0.121419 0.0499558 5.20015e-21)
(0.0389188 0.0165061 5.17022e-21)
(0.19764 0.0640374 -1.97265e-21)
(0.123726 0.0394702 3.45275e-21)
(0.124254 0.0395701 0)
(0.073753 0.023203 -3.30647e-21)
(0.0741165 0.0233052 0)
(0.0358005 0.0111828 -1.15282e-21)
(0.0358697 0.0111799 0)
(0.0360044 0.0112176 0)
(0.0359568 0.011225 0)
(0.0115607 0.00359241 -1.58547e-24)
(0.0115927 0.00359981 -8.21201e-22)
(0.0116459 0.00361332 -8.34742e-22)
(0.011617 0.00360712 0)
(0.29053 0.0965157 6.49268e-21)
(0.371643 0.126442 1.98051e-23)
(0.434575 0.151281 4.41444e-21)
(0.473806 0.168616 3.8732e-21)
(0.485743 0.176607 -7.02029e-24)
(0.469585 0.174376 3.18155e-24)
(0.427676 0.162166 -3.31151e-21)
(0.365131 0.141338 0)
(0.288643 0.114033 0)
(0.205117 0.0826948 -4.19705e-21)
(0.120435 0.0495432 -9.80701e-21)
(0.0385943 0.016366 4.81492e-21)
(0.195727 0.0634115 -5.58256e-21)
(0.122569 0.0390972 6.64847e-21)
(0.123092 0.0391937 1.31096e-23)
(0.0730815 0.0229918 -7.96198e-22)
(0.0734287 0.0230902 -1.26129e-23)
(0.0354663 0.0110769 -1.10701e-21)
(0.0355425 0.0110817 -4.34801e-24)
(0.0356929 0.0111183 0)
(0.0356344 0.0111279 0)
(0.0114539 0.00355907 -4.96793e-24)
(0.0114782 0.0035622 -7.95024e-22)
(0.0115208 0.00357473 -8.05762e-22)
(0.0115033 0.0035716 8.02181e-22)
(0.287547 0.0955178 1.22852e-23)
(0.36768 0.125079 -4.93509e-21)
(0.429976 0.14963 -4.12823e-21)
(0.469041 0.166826 3.71551e-21)
(0.481235 0.174872 -1.58907e-24)
(0.46555 0.172807 -3.1764e-24)
(0.42421 0.160806 5.97792e-24)
(0.362251 0.140191 -1.2383e-23)
(0.286371 0.11311 0)
(0.20348 0.0820174 1.04543e-23)
(0.119445 0.0491245 1.74872e-23)
(0.0382557 0.0162227 4.58602e-21)
(0.193791 0.0627765 1.85588e-21)
(0.12144 0.0387337 -3.1829e-21)
(0.121962 0.0388343 -3.2794e-21)
(0.0724033 0.0227748 -3.06888e-21)
(0.072753 0.0228726 0)
(0.0351463 0.0109785 0)
(0.0352162 0.0109805 1.06774e-21)
(0.0353518 0.0110127 1.09921e-21)
(0.0353027 0.0110254 4.22139e-24)
(0.0113528 0.0035262 -2.0051e-24)
(0.0113831 0.00353578 -7.69002e-22)
(0.011431 0.00354443 7.86135e-22)
(0.0114009 0.00354284 -7.75401e-22)
(0.284436 0.0944784 -2.26224e-23)
(0.363526 0.123638 -4.82372e-21)
(0.425222 0.147891 -3.96843e-21)
(0.464252 0.165006 -3.54375e-21)
(0.47678 0.173161 1.58641e-24)
(0.461588 0.171279 0)
(0.420782 0.159466 -1.72871e-23)
(0.359374 0.139043 1.23787e-23)
(0.284093 0.112183 3.32437e-21)
(0.201843 0.0813366 -1.40289e-23)
(0.118439 0.0486983 -1.13109e-24)
(0.0379128 0.0160806 -1.7229e-23)
(0.191777 0.0621173 1.76127e-21)
(0.120304 0.0383645 -5.932e-24)
(0.120833 0.0384717 -3.09968e-21)
(0.0717563 0.0225723 8.85317e-24)
(0.0720981 0.0226682 2.99607e-21)
(0.0348291 0.0108767 0)
(0.0348893 0.010872 -2.03438e-24)
(0.0350507 0.0109179 -4.10246e-24)
(0.0349905 0.0109255 6.14088e-24)
(0.0112519 0.00349593 -7.39529e-22)
(0.0112729 0.00350169 0)
(0.011311 0.00350747 -7.54508e-22)
(0.0112884 0.00350877 -7.49616e-22)
(0.281053 0.0933502 -1.08341e-22)
(0.359055 0.122065 0)
(0.420288 0.146044 7.67781e-21)
(0.459451 0.163183 0)
(0.472392 0.171501 1.13781e-23)
(0.457682 0.169782 0)
(0.41737 0.158129 2.20003e-23)
(0.356502 0.137893 0)
(0.281823 0.111252 -3.14423e-21)
(0.200177 0.0806405 1.40351e-23)
(0.117432 0.0482734 -3.16477e-23)
(0.0375576 0.0159325 3.96931e-21)
(0.189535 0.0613948 8.36225e-21)
(0.119145 0.0379887 -2.94092e-21)
(0.119713 0.0381109 -3.01551e-21)
(0.0711071 0.022364 4.94466e-24)
(0.0714361 0.02246 7.37729e-22)
(0.0345255 0.0107804 1.93855e-24)
(0.0345911 0.0107832 -1.93724e-24)
(0.0347348 0.0108246 0)
(0.0346733 0.0108269 0)
(0.0111392 0.00345975 7.13545e-22)
(0.0111746 0.00346715 -7.17612e-22)
(0.0112221 0.00347912 1.43602e-24)
(0.011197 0.00347889 -7.26033e-22)
(0.27723 0.0920707 0)
(0.354128 0.120268 -8.81975e-21)
(0.415182 0.144119 1.82359e-24)
(0.4547 0.161426 1.18827e-23)
(0.468096 0.169894 -5.89911e-25)
(0.453825 0.168302 0)
(0.413975 0.156793 -2.69566e-21)
(0.353635 0.136736 2.7261e-21)
(0.279528 0.110307 1.17912e-23)
(0.198509 0.0799398 -1.22453e-23)
(0.116405 0.0478386 -3.75311e-21)
(0.0371976 0.015779 -6.89071e-24)
(0.186856 0.0605376 0)
(0.117828 0.0375664 2.8514e-21)
(0.118495 0.037721 -2.85431e-21)
(0.0704501 0.0221571 0)
(0.0707995 0.0222549 2.08066e-21)
(0.0342212 0.0106863 -2.54357e-24)
(0.0342904 0.0106858 -9.52222e-22)
(0.0344221 0.0107264 -9.72136e-22)
(0.0343772 0.010735 -1.88051e-24)
(0.0110548 0.00343215 6.89106e-22)
(0.0110767 0.00343872 -6.93502e-22)
(0.0111172 0.00345063 -7.0593e-22)
(0.0110938 0.00344809 -6.9952e-22)
(0.272553 0.0904547 2.54635e-21)
(0.348699 0.118223 -4.27602e-21)
(0.410081 0.142284 0)
(0.450109 0.159757 -6.12336e-25)
(0.463906 0.168321 -2.10308e-23)
(0.450005 0.166827 2.52953e-21)
(0.410584 0.155451 1.00875e-23)
(0.350757 0.135572 2.5805e-21)
(0.277215 0.10935 0)
(0.196822 0.0792314 3.03757e-21)
(0.115357 0.0473925 3.49041e-21)
(0.0368451 0.0156285 1.95661e-23)
(0.183077 0.0593349 3.89236e-21)
(0.11609 0.0370255 -2.10252e-23)
(0.117059 0.037271 2.78635e-21)
(0.0697465 0.021934 -3.31519e-21)
(0.0701212 0.0220393 2.08418e-23)
(0.0339228 0.0105898 0)
(0.0339935 0.0105966 0)
(0.0341245 0.0106332 -1.84269e-24)
(0.0340682 0.0106354 9.28342e-22)
(0.0109462 0.00339954 6.6033e-22)
(0.0109825 0.00340684 -6.69696e-22)
(0.0110208 0.00342054 0)
(0.0110064 0.00342137 0)
(0.266659 0.0882585 4.98035e-21)
(0.343171 0.116299 -2.9745e-23)
(0.405271 0.140597 -3.29874e-21)
(0.445724 0.158151 -1.12936e-23)
(0.459809 0.166772 -2.57524e-21)
(0.446218 0.165359 -9.12786e-24)
(0.407196 0.154106 -2.34561e-21)
(0.347854 0.134393 -9.07082e-24)
(0.274898 0.108388 2.55456e-21)
(0.19512 0.0785128 -2.80089e-21)
(0.114321 0.0469484 -3.22393e-21)
(0.0364757 0.0154709 -1.26887e-23)
(0.176242 0.056922 2.31732e-23)
(0.112862 0.0360343 6.15858e-23)
(0.114759 0.0366307 -2.66037e-21)
(0.0688309 0.0216536 -1.67473e-23)
(0.0693668 0.0217937 -2.5511e-21)
(0.0336342 0.0104997 -6.03831e-24)
(0.033687 0.0104997 1.73614e-24)
(0.0338179 0.0105378 0)
(0.0337679 0.0105421 -1.73612e-24)
(0.0108612 0.00337089 0)
(0.0108909 0.00338092 -6.45219e-22)
(0.0109252 0.00339099 -6.5473e-22)
(0.0109035 0.00338872 -6.51118e-22)
(0.260381 0.0861748 1.9268e-23)
(0.338209 0.114625 3.6948e-21)
(0.400871 0.139023 2.47809e-23)
(0.441533 0.156599 2.65625e-21)
(0.455796 0.165249 0)
(0.442464 0.163899 9.13413e-24)
(0.403814 0.152759 2.23422e-21)
(0.344963 0.133211 -2.22301e-21)
(0.272569 0.107416 -8.85737e-24)
(0.193423 0.0777891 1.56421e-24)
(0.113266 0.0464898 2.9521e-21)
(0.0360941 0.015309 0)
(0.167988 0.0543829 -7.65325e-22)
(0.103856 0.0328454 -2.0216e-23)
(0.109459 0.0349191 -4.10437e-23)
(0.0669757 0.021135 7.51809e-23)
(0.0681184 0.021451 6.06706e-22)
(0.0333008 0.0103972 8.41122e-22)
(0.0333913 0.010406 -1.69614e-21)
(0.0335481 0.0104488 1.70123e-24)
(0.0334785 0.0104422 0)
(0.0107698 0.00334398 1.23482e-21)
(0.0107947 0.00335064 -6.22288e-22)
(0.0108212 0.00335869 -6.33505e-22)
(0.010806 0.00335906 -6.27933e-22)
(0.255338 0.0844867 4.56709e-21)
(0.333993 0.113144 0)
(0.3968 0.137543 0)
(0.437503 0.155103 1.94315e-23)
(0.451862 0.163753 0)
(0.438749 0.162449 -4.28443e-21)
(0.400454 0.151411 0)
(0.342076 0.132025 2.10148e-21)
(0.270244 0.106435 2.17758e-21)
(0.191706 0.0770502 -2.36783e-21)
(0.112182 0.0460207 -2.66673e-21)
(0.0357118 0.0151487 -4.62567e-24)
(0.163116 0.0525824 -4.5808e-21)
(0.0938629 0.0300401 1.1861e-21)
(0.0974834 0.0310604 1.27593e-21)
(0.0574286 0.0177724 0)
(0.0647128 0.0203939 -3.71846e-22)
(0.0325188 0.0101875 0)
(0.0328531 0.010252 6.38285e-24)
(0.0331658 0.0103402 -7.67887e-24)
(0.0330213 0.0103158 -6.39888e-24)
(0.0106746 0.003315 -5.96022e-22)
(0.010704 0.00332044 5.98731e-22)
(0.0107505 0.00333459 -6.11161e-22)
(0.0107243 0.0033285 -6.06182e-22)
(0.251615 0.0831695 -3.45196e-23)
(0.330317 0.111827 0)
(0.392994 0.13616 0)
(0.433617 0.153657 -1.94659e-23)
(0.448007 0.162279 2.13301e-21)
(0.435075 0.161005 5.1666e-25)
(0.397117 0.150064 4.21493e-23)
(0.339195 0.130829 0)
(0.267915 0.105447 2.00227e-21)
(0.189973 0.0763037 4.28958e-21)
(0.111103 0.0455533 0)
(0.0353151 0.014981 6.66114e-24)
(0.160463 0.051578 1.25301e-21)
(0.091079 0.0288121 -1.82265e-23)
(0.0920507 0.0291417 -1.14688e-21)
(0.0452081 0.0142797 -1.78976e-21)
(0.0482855 0.0156024 3.68405e-22)
(0.0190556 0.00446619 0)
(0.0281092 0.00835343 0)
(0.0319511 0.0100706 2.43455e-23)
(0.0307292 0.00953729 3.65653e-22)
(0.0104468 0.00324904 -5.71491e-22)
(0.0105628 0.00327409 5.78036e-22)
(0.0106399 0.0033022 -3.15533e-24)
(0.0106003 0.00329272 -5.82905e-22)
(0.248637 0.0821212 4.26035e-21)
(0.326996 0.110646 0)
(0.389403 0.134855 1.02419e-23)
(0.429852 0.15225 0)
(0.444226 0.160826 0)
(0.431448 0.15957 -1.8412e-21)
(0.393793 0.148712 -1.81624e-21)
(0.336325 0.12963 -1.75571e-21)
(0.265579 0.104448 -1.79996e-21)
(0.188247 0.0755522 1.93226e-21)
(0.110005 0.0450701 -2.11416e-21)
(0.0349084 0.0148129 1.92502e-21)
(0.158612 0.050985 -6.33544e-21)
(0.0899088 0.0284202 -2.25198e-21)
(0.0903617 0.0285004 1.82176e-23)
(0.0439581 0.0136961 -5.36709e-22)
(0.0443872 0.0138509 0)
(0.0103918 0.00327506 5.70606e-22)
(0.0106665 0.00336842 -2.94673e-22)
(0.0127702 0.00400484 -3.2129e-22)
(0.0113636 0.00378384 0)
(0.005272 0.00118709 0)
(0.00911285 0.00292834 2.51001e-22)
(0.0102539 0.00321791 5.66822e-22)
(0.00978362 0.00313427 2.59703e-22)
(0.246071 0.0812398 0)
(0.323944 0.109566 3.18844e-21)
(0.385976 0.133606 -1.99749e-23)
(0.4262 0.150881 -2.20963e-21)
(0.440517 0.159391 -1.95472e-21)
(0.42786 0.158141 1.71245e-21)
(0.390511 0.147364 6.17997e-24)
(0.333469 0.128424 0)
(0.263259 0.103443 -1.61367e-21)
(0.186509 0.0747857 1.69741e-21)
(0.108881 0.0445777 -3.85498e-24)
(0.034492 0.0146375 0)
(0.157048 0.050513 1.23563e-21)
(0.089076 0.0281979 2.14072e-21)
(0.0894224 0.0282403 1.72432e-23)
(0.0434989 0.0135582 0)
(0.0436999 0.0136152 5.28384e-22)
(0.0102644 0.00319468 -6.69943e-25)
(0.0102774 0.00318372 -5.52723e-22)
(0.0103508 0.00321731 5.67014e-22)
(0.010306 0.00320755 0)
(0.243778 0.0804591 -3.75041e-21)
(0.321082 0.108552 0)
(0.38269 0.132405 2.38617e-21)
(0.422645 0.149538 2.00479e-21)
(0.436876 0.157973 1.83342e-21)
(0.424328 0.156719 1.26468e-23)
(0.387251 0.14601 -6.17923e-24)
(0.330631 0.12721 1.4887e-21)
(0.260931 0.102424 1.47165e-21)
(0.184742 0.0740042 -1.3366e-24)
(0.107748 0.0440766 -1.55943e-21)
(0.0340693 0.014458 0)
(0.155666 0.0500785 -1.20128e-21)
(0.0883248 0.0279835 -2.05459e-21)
(0.0886543 0.0280295 0)
(0.0431607 0.0134635 1.94977e-24)
(0.0433295 0.0135139 -5.17115e-22)
(0.010208 0.00317511 -5.2129e-22)
(0.0102183 0.00316649 -5.2665e-22)
(0.0102491 0.00317602 -5.34946e-22)
(0.0102399 0.00318634 -5.33006e-22)
(0.241653 0.0797343 -2.85207e-23)
(0.318362 0.107587 0)
(0.379515 0.131238 -8.68277e-24)
(0.419177 0.148219 -1.87249e-21)
(0.433305 0.156566 0)
(0.420839 0.155298 -1.16754e-23)
(0.384025 0.144654 -2.76721e-21)
(0.327806 0.125988 -1.28985e-21)
(0.258603 0.101394 0)
(0.182966 0.0732098 1.25047e-21)
(0.10659 0.0435592 0)
(0.0336289 0.0142732 0)
(0.154379 0.0496611 -1.12656e-21)
(0.0876276 0.0277615 0)
(0.0879194 0.0278087 4.02354e-21)
(0.0428198 0.0133714 3.81969e-24)
(0.0430039 0.0134209 -5.763e-24)
(0.0101472 0.00315395 -9.82616e-25)
(0.0101636 0.00314819 -5.04604e-22)
(0.0101882 0.00315865 1.01164e-24)
(0.0101864 0.00316831 -5.86251e-25)
(0.239642 0.0790469 1.39081e-23)
(0.315754 0.106658 -2.72349e-21)
(0.37644 0.1301 4.99756e-25)
(0.415795 0.146918 1.84393e-21)
(0.429796 0.155169 0)
(0.417403 0.153881 1.34378e-21)
(0.380835 0.143294 0)
(0.324998 0.124756 2.40383e-24)
(0.25627 0.100348 0)
(0.181173 0.0723981 0)
(0.10541 0.0430285 -9.85751e-22)
(0.0331692 0.0140829 0)
(0.153138 0.0492578 -2.16389e-21)
(0.0869288 0.027537 1.87419e-21)
(0.0872331 0.0275875 -7.41491e-24)
(0.0424846 0.013265 7.30352e-24)
(0.0426527 0.013317 -1.88208e-21)
(0.0100711 0.00313497 -4.77347e-22)
(0.0100891 0.00312907 -4.86002e-22)
(0.0101247 0.00313819 -4.94782e-22)
(0.0101193 0.0031484 0)
(0.237729 0.0783899 -1.25927e-22)
(0.313252 0.105759 -2.59685e-21)
(0.37345 0.12898 -1.9751e-21)
(0.412492 0.145634 -1.73875e-21)
(0.426356 0.153779 -2.69158e-24)
(0.41401 0.152461 -2.32755e-24)
(0.37767 0.141924 0)
(0.322195 0.123506 0)
(0.253926 0.0992806 -3.94105e-25)
(0.179352 0.0715642 7.89183e-22)
(0.104194 0.0424817 -6.89826e-22)
(0.0326975 0.0138858 8.27837e-26)
(0.151956 0.0488661 2.94014e-21)
(0.0862747 0.0273295 1.77372e-21)
(0.0865597 0.0273748 3.6506e-21)
(0.0421505 0.0131563 4.45209e-22)
(0.0423227 0.0132096 0)
(0.00999007 0.00310896 -4.60771e-22)
(0.0100062 0.00310268 9.01754e-25)
(0.0100446 0.00311531 -4.74181e-22)
(0.0100375 0.00312328 -4.69904e-22)
(0.235898 0.0777546 -1.24741e-22)
(0.31082 0.104878 -2.44736e-21)
(0.370554 0.127884 1.85798e-21)
(0.409262 0.144359 3.17605e-24)
(0.422976 0.152392 2.69163e-24)
(0.410669 0.151039 2.32783e-24)
(0.374535 0.140544 0)
(0.319405 0.122241 0)
(0.251563 0.0981905 3.9438e-25)
(0.177509 0.0707122 1.14592e-21)
(0.102945 0.0419155 0)
(0.0322098 0.0136848 1.7518e-24)
(0.15083 0.048489 3.79514e-21)
(0.0856354 0.0271221 1.68517e-21)
(0.0859165 0.0271684 1.71976e-24)
(0.0418452 0.0130664 0)
(0.0419962 0.0131072 -1.70948e-21)
(0.00992205 0.00308342 -4.39978e-22)
(0.00993712 0.00307986 -8.72942e-25)
(0.00996506 0.00308998 -4.54046e-22)
(0.00995695 0.00309797 -4.47394e-22)
(0.234122 0.0771355 2.88645e-21)
(0.308477 0.104018 0)
(0.367734 0.126798 -1.84203e-21)
(0.406106 0.143091 0)
(0.419658 0.151007 0)
(0.407373 0.149612 0)
(0.371425 0.139149 -8.96435e-22)
(0.316617 0.120955 7.35341e-22)
(0.249193 0.0970765 -4.96839e-22)
(0.175621 0.0698298 3.57395e-22)
(0.101665 0.0413363 -5.37766e-26)
(0.0317 0.0134793 8.7041e-26)
(0.149735 0.0481246 -9.25443e-22)
(0.085035 0.0269212 1.60011e-21)
(0.0852971 0.026968 -3.29286e-21)
(0.0415339 0.0129686 0)
(0.041692 0.0130128 0)
(0.00985235 0.00306534 0)
(0.00985963 0.00305823 -4.23681e-22)
(0.00988713 0.00306424 -4.33319e-22)
(0.00988192 0.00307454 -4.29983e-22)
(0.232418 0.0765341 2.84518e-21)
(0.306203 0.103169 2.07159e-21)
(0.364984 0.125719 -3.16689e-24)
(0.403014 0.141827 -2.53447e-24)
(0.4164 0.149623 0)
(0.404121 0.148175 8.47765e-22)
(0.368346 0.137738 -1.43551e-21)
(0.313822 0.119638 0)
(0.24679 0.0959308 -2.9894e-22)
(0.173695 0.0689218 0)
(0.100331 0.0407403 2.69688e-25)
(0.0311838 0.0132775 1.7624e-24)
(0.148689 0.0477743 -4.24304e-21)
(0.0844325 0.0267307 1.51107e-21)
(0.0846953 0.0267731 6.03651e-24)
(0.0412496 0.012873 0)
(0.0414016 0.0129208 1.54754e-21)
(0.00977469 0.00304174 -1.56292e-24)
(0.00978379 0.00303451 -4.04253e-22)
(0.00982052 0.00304475 -4.14843e-22)
(0.00980563 0.00305133 -4.0959e-22)
(0.230771 0.0759451 0)
(0.304002 0.102328 0)
(0.362307 0.124647 2.42826e-24)
(0.399997 0.140572 -1.29628e-21)
(0.413204 0.148237 0)
(0.400918 0.146725 7.25931e-22)
(0.365279 0.136299 0)
(0.311019 0.11829 -1.38271e-25)
(0.244346 0.0947496 0)
(0.17172 0.0679872 1.40971e-22)
(0.0989449 0.0401392 -2.16299e-25)
(0.0306727 0.0130724 1.08713e-21)
(0.147678 0.0474388 8.23393e-22)
(0.0838669 0.0265466 1.43717e-21)
(0.0841133 0.0265875 0)
(0.0409628 0.0127871 5.72799e-24)
(0.041113 0.0128293 -5.72002e-24)
(0.0097099 0.00301924 -1.50168e-24)
(0.00972345 0.00301327 -3.85062e-22)
(0.00975114 0.0030241 -3.9451e-22)
(0.00974668 0.00303145 -3.90411e-22)
(0.229188 0.0753606 -2.54849e-21)
(0.301869 0.101487 0)
(0.359696 0.123583 1.39623e-21)
(0.397052 0.139323 0)
(0.410071 0.146843 0)
(0.397754 0.145256 -7.31323e-22)
(0.362226 0.134832 -1.81339e-25)
(0.308209 0.116911 1.38329e-25)
(0.241872 0.0935346 -1.43166e-22)
(0.169672 0.0670209 -4.03408e-22)
(0.0975008 0.0395623 0)
(0.030316 0.012788 -1.4874e-21)
(0.146703 0.0471202 3.02611e-21)
(0.0833001 0.0263793 -1.35904e-21)
(0.0835479 0.0264113 -1.39045e-24)
(0.0406891 0.0127008 0)
(0.0408305 0.0127415 0)
(0.00963893 0.00299941 -3.62786e-22)
(0.00965381 0.0029935 -3.67057e-22)
(0.009685 0.0030028 0)
(0.00968119 0.00301106 -3.72435e-22)
(0.227676 0.0747612 1.11466e-24)
(0.299787 0.100653 0)
(0.35717 0.122539 -1.40197e-21)
(0.394181 0.138071 0)
(0.407001 0.145437 7.2013e-22)
(0.39463 0.143762 -2.39087e-25)
(0.359192 0.133332 1.814e-25)
(0.305377 0.115488 1.25165e-22)
(0.239333 0.0922794 3.36668e-22)
(0.167583 0.06605 0)
(0.0959564 0.0389379 0)
(0.0307682 0.0125495 0)
(0.145893 0.0466525 -1.46992e-24)
(0.0827902 0.0262917 5.12384e-24)
(0.0829951 0.0262714 -1.34574e-21)
(0.0404151 0.0126177 0)
(0.0405531 0.0126561 0)
(0.00957786 0.00297893 -3.45183e-22)
(0.00959205 0.00297513 -3.49362e-22)
(0.00961796 0.00298278 0)
(0.009611 0.00298984 -3.53673e-22)
(0.226175 0.0741737 -1.11371e-24)
(0.297785 0.0998496 1.57527e-21)
(0.354718 0.121499 0)
(0.39139 0.136816 0)
(0.403993 0.144012 -7.59709e-22)
(0.391543 0.142237 2.39029e-25)
(0.35616 0.131791 -3.38803e-22)
(0.302503 0.114023 -2.93138e-26)
(0.236786 0.0909898 0)
(0.165168 0.065025 0)
(0.0960589 0.0382621 0)
(0.0266789 0.0101881 0)
(0.144958 0.046331 0)
(0.0825677 0.025878 0)
(0.0825982 0.026233 1.26506e-21)
(0.0400773 0.0125746 0)
(0.0402644 0.0125859 1.25332e-21)
(0.00952091 0.00295834 0)
(0.00952817 0.00295352 -3.32138e-22)
(0.00955031 0.00296152 -3.41059e-22)
(0.0095452 0.00296856 6.60833e-25)
(0.224744 0.0736201 0)
(0.295861 0.0990613 0)
(0.352358 0.120462 0)
(0.388674 0.135548 -1.45932e-22)
(0.401042 0.142563 -5.23347e-25)
(0.388492 0.140678 2.32064e-22)
(0.353118 0.130207 0)