/*--------------------------------*- C++ -*----------------------------------*\
| =========                 |                                                 |
| \\      /  F ield         | OpenFOAM: The Open Source CFD Toolbox           |
|  \\    /   O peration     | Version:  v1912                                 |
|   \\  /    A nd           | Website:  www.openfoam.com                      |
|    \\/     M anipulation  |                                                 |
\*---------------------------------------------------------------------------*/
FoamFile
{
    version     2.0;
    format      ascii;
    class       surfaceScalarField;
    location    "290";
    object      phi;
}
// * * * * * * * * * * * * * * * * * * * * * * * * * * * * * * * * * * * * * //

dimensions      [0 3 -1 0 0 0 0];
oriented        oriented;


internalField   nonuniform List<scalar> 
7352
(
0.00711971
0.00289227
0.0107434
0.00638829
0.00176678
0.0011255
0.0123519
0.00840351
0.00424347
0.00391157
0.000165562
0.000959952
0.0129136
0.00945122
0.00623478
0.00641221
0.000978377
0.00309875
-0.000116412
0.00107639
0.0129921
0.00993546
0.00747449
0.0082115
0.00205487
0.00533573
-0.000143805
0.00312616
-5.339e-05
0.00112979
0.0128762
0.0101319
0.00810227
0.00930769
0.00296776
0.0072986
3.73816e-05
0.00515459
-0.00017685
0.00324963
-1.03594e-05
0.00114016
0.0126957
0.0101985
0.00834657
0.00988753
0.00353044
0.00874504
0.00027915
0.00705685
-0.000277106
0.00525486
-7.77475e-05
0.00331701
-1.99192e-05
0.00116007
0.0125028
0.0102109
0.00839452
0.0101506
0.00376193
0.00965603
0.000396311
0.00862792
-0.000335346
0.00711508
-0.000187458
0.00536457
-8.14749e-05
0.00337856
-1.57261e-05
0.00117579
0.0123186
0.0102022
0.00836356
0.0102419
0.00375851
0.010154
0.000289664
0.00976268
-0.000428513
0.0087211
-0.000311826
0.00723944
-0.000187184
0.00547028
-6.92643e-05
0.00343209
-5.59083e-06
0.00118137
0.0121513
0.0101852
0.00832308
0.0102427
0.00361747
0.0103829
-4.74562e-05
0.0104912
-0.000632208
0.00996637
-0.000463067
0.00887234
-0.000330773
0.00738302
-0.000166356
0.00556736
-4.22592e-05
0.00346875
-2.61096e-06
0.00118397
0.0120051
0.0101623
0.00831513
0.0101931
0.00340898
0.0104512
-0.000591566
0.010927
-0.00098005
0.0108391
-0.000683129
0.0101864
-0.000514184
0.00905575
-0.000308971
0.00752564
-0.000121713
0.0056468
-2.91513e-05
0.00349528
-2.17629e-06
0.00118614
0.0118864
0.0101316
0.00836822
0.0101092
0.00318128
0.0104208
-0.00131759
0.0111773
-0.00146102
0.011408
-0.000999417
0.0111553
-0.00075342
0.0104257
-0.000495754
0.00924253
-0.000249006
0.00765292
-9.41648e-05
0.00571181
-2.43561e-05
0.00351745
-1.46158e-06
0.00118759
0.0117956
0.0100988
0.00851139
0.00998836
0.00297332
0.0103172
-0.00221758
0.0113208
-0.00205653
0.0117728
-0.00141426
0.0118228
-0.00106496
0.0114669
-0.000734073
0.010664
-0.000425798
0.00941931
-0.000206369
0.00776512
-7.98191e-05
0.00576726
-2.04122e-05
0.00353639
-1.7446e-06
0.00118933
0.0117348
0.0100618
0.00877546
0.00983482
0.00281775
0.0101439
-0.00329794
0.0113976
-0.00274311
0.0120073
-0.00190576
0.0122643
-0.00144679
0.0122046
-0.00102846
0.0117613
-0.000654309
0.0108925
-0.000370558
0.00958349
-0.000180327
0.00786562
-6.99987e-05
0.00581684
-1.95639e-05
0.0035542
-1.92548e-06
0.00119124
0.0116984
0.0100284
0.00919135
0.00964584
0.00276496
0.00988767
-0.00456127
0.0114072
-0.00348592
0.0121404
-0.00244302
0.0125446
-0.00187585
0.0126934
-0.00137054
0.0125467
-0.000932186
0.0120391
-0.000584752
0.0111067
-0.000330346
0.0097335
-0.000160088
0.0079557
-6.56164e-05
0.00586288
-1.91055e-05
0.00357137
-1.66582e-06
0.0011929
0.0116703
0.0100061
0.00978562
0.00943413
0.00290843
0.00950235
-0.00596532
0.0112917
-0.00421321
0.0121345
-0.00296759
0.012665
-0.00230006
0.0129688
-0.00172908
0.0130519
-0.00124396
0.0128585
-0.000843866
0.0122982
-0.00052947
0.0113058
-0.000296988
0.00987039
-0.000149719
0.0080398
-6.20175e-05
0.00590578
-1.73484e-05
0.00358705
-2.08786e-06
0.00119498
0.0116188
0.00999349
0.0105678
0.00922388
0.00347078
0.00887181
-0.00734451
0.0108815
-0.0047619
0.0118404
-0.00335797
0.0125249
-0.00263333
0.0129983
-0.00204617
0.0132859
-0.00155478
0.0133627
-0.00112799
0.0131426
-0.00076553
0.0125343
-0.000478322
0.0114871
-0.000277368
0.00999803
-0.000141067
0.00811884
-5.81709e-05
0.00594659
-1.77915e-05
0.00360275
-2.91777e-06
0.0011979
0.0115946
0.00988814
0.0114383
0.009123
0.00490504
0.00778962
-0.00823371
0.00976102
-0.0047941
0.0109137
-0.00340247
0.0118849
-0.00273407
0.0126256
-0.00222702
0.0131791
-0.00180236
0.0135334
-0.00139782
0.0136325
-0.00101836
0.0133954
-0.000693468
0.0127494
-0.000446125
0.0116559
-0.000260976
0.0101179
-0.000131016
0.00819168
-5.57788e-05
0.00598458
-1.93306e-05
0.00361916
-3.75023e-06
0.00120165
0.0115558
0.00985389
0.0123157
0.0045675
0.0044432
0.00481954
0.0033031
0.00304533
0.00286007
-0.00417404
0.00393004
-0.0033872
0.00318707
-0.002226
0.00881071
-0.00161781
-0.00283571
0.0103469
-0.00242514
0.0115759
-0.00215913
0.0125577
-0.00190108
0.0132778
-0.00159125
0.0137269
-0.00124733
0.0138615
-0.000914295
0.0136162
-0.000643163
0.0129464
-0.000417709
0.0118126
-0.000240458
0.0102274
-0.000124252
0.00826015
-5.69965e-05
0.00602224
-2.12461e-05
0.00363665
-4.21575e-06
0.00120586
0.0113967
0.010019
0.0131821
0.00445297
0.00453462
0.00553439
0.00385263
0.00619262
0.003785
-0.00344879
0.00257786
-0.000508679
-0.00155861
0.000766299
0.000897515
0.00396276
0.00145709
0.00129286
-0.00185923
0.00356327
-0.00237519
0.000910879
0.000654972
-0.00054042
0.00227032
-0.000402059
-0.000940689
0.00751545
-0.000599784
-0.00103769
0.00298314
-0.00161455
0.00953634
-0.00177288
0.0111897
-0.00177035
0.012427
-0.0016349
0.0133215
-0.00139479
0.0138743
-0.00110226
0.0140495
-0.000842306
0.0138154
-0.000597778
0.0131265
-0.000383663
0.0119558
-0.000225956
0.0103291
-0.000122183
0.00832533
-5.90078e-05
0.00606
-2.24665e-05
0.0036549
-4.41506e-06
0.00121027
0.0110966
0.0102572
0.0136103
0.0046621
0.00492864
0.00686704
0.00377853
0.00743758
0.0039641
0.00541481
0.00115944
0.00117348
0.000945212
3.20128e-06
-0.00132478
0.000711373
0.00147767
-0.000711373
0.000539317
0.000756744
-0.000388973
0.000759432
0.000265999
-0.000180099
0.00165834
-0.000245617
-0.000141203
0.000498575
0.00250524
-0.000462797
-0.000288737
0.00641727
-0.000227631
0.00214772
-0.000242271
-0.00115515
0.00891861
-0.00139863
0.010818
-0.0014795
0.0122716
-0.00140923
0.0133359
-0.00120885
0.0139809
-0.00100533
0.0142125
-0.000776868
0.0139945
-0.000546676
0.0132895
-0.000357528
0.0120874
-0.000217712
0.0104246
-0.000122289
0.00838861
-5.98486e-05
0.00609738
-2.27589e-05
0.00367324
-4.73186e-06
0.001215
0.0106886
0.0104499
0.0136115
0.00504766
0.00520844
0.00797626
0.00412339
0.00821144
0.00469347
0.00673182
0.00121586
0.00124567
0.00809313
0.00131781
0.00128496
-0.00115564
0.00175398
0.000561111
0.000557153
-0.000568029
0.000124796
-0.000377753
0.000197654
0.00126564
-5.38841e-05
-1.62227e-05
-0.000124796
0.00194332
-8.43372e-05
-0.000273858
0.00584025
-0.000304274
0.00178859
-2.75444e-05
-4.53618e-05
0.00104363
-8.60615e-06
-1.16558e-05
-0.000894494
0.00841448
-0.00112565
0.0104641
-0.00126217
0.0121245
-0.001191
0.013318
-0.00108692
0.0140625
-0.000918881
0.0143545
-0.000705027
0.0141528
-0.000504872
0.0134369
-0.000339339
0.012209
-0.000213474
0.0105158
-0.000121567
0.00845033
-5.95516e-05
0.00613417
-2.32234e-05
0.00369173
-4.96455e-06
0.00121997
0.0102513
0.0105054
0.0132608
0.0108006
0.00849298
0.00476612
0.00877945
0.00492198
0.0092166
0.00139193
0.00160801
0.00961321
0.00231219
0.00198467
0.00237247
0.000597383
0.00298652
0.000631607
-0.0036049
0.00422596
0.000696754
0.000666579
1.08761e-05
0.000550241
0.00014377
0.000127547
0.000557075
-3.59266e-06
-8.43846e-07
0.000406655
0.00165492
-5.55955e-05
-8.45983e-05
-0.000279922
0.00537496
-0.000149282
0.00157113
-0.000112707
-0.000107776
0.000588912
-5.93817e-05
0.000564092
-2.05426e-05
-0.000115891
0.000107285
-0.000645695
0.00793452
-0.00098579
0.0101877
-0.00104604
0.0119796
-0.00105634
0.0132875
-0.000984566
0.0141282
-0.000824287
0.0144737
-0.000645889
0.0142938
-0.00047418
0.0135717
-0.000327605
0.0123231
-0.000208364
0.0106026
-0.000119514
0.00851029
-5.96207e-05
0.00617057
-2.337e-05
0.00371013
-5.40532e-06
0.00122537
0.0098039
0.0105074
0.0127979
0.0109683
-0.010549
0.0190975
0.00534488
0.00568671
0.00989422
0.00233163
0.00215348
0.00426716
0.00486457
0.000753323
0.00546591
0.00100666
-0.00579473
0.00589157
0.00221536
0.00165585
0.00114763
0.00177923
-0.00244581
0.00314257
0.000103692
0.000102849
0.000348841
-1.56828e-06
0.000533692
-2.51968e-05
0.000492652
-4.35578e-05
0.00146222
-0.000114157
-5.68472e-05
-8.80674e-05
0.0048903
-7.29765e-05
0.00135835
-3.1011e-05
-1.44048e-05
0.000458057
-7.81126e-05
0.000429366
-7.90856e-05
0.000332038
-3.74018e-06
-0.000637771
0.00758649
-0.000817937
0.00995962
-0.000906153
0.0118294
-0.000945483
0.0132484
-0.000874592
0.0141785
-0.000750427
0.0145783
-0.000599802
0.0144194
-0.000452982
0.0136971
-0.000316847
0.0124316
-0.000202124
0.0106852
-0.000116486
0.00856715
-5.9148e-05
0.00620635
-2.45378e-05
0.00372926
-5.4001e-06
0.00123077
0.00934235
0.0105046
0.0122333
0.0110719
0.0181775
0.0118883
0.0157812
-0.0156413
0.00274947
0.00245551
0.0153979
0.00607003
0.0061764
0.0020468
0.00654886
0.00178102
-0.00758704
0.00170855
0.00105318
0.00389589
0.00490255
-0.0065584
0.00626989
0.00250386
0.00010128
0.000311311
-4.46992e-06
0.00027842
-1.06674e-05
0.000387269
-7.20601e-05
0.000357373
-2.69502e-05
0.00128591
-1.01141e-05
-5.51073e-06
-8.88877e-05
0.0045134
-0.000171991
0.00122366
-4.65169e-06
-6.08469e-06
0.000335292
-8.92982e-06
0.000323916
-3.02901e-06
0.000228359
-2.80515e-05
0.000203624
-5.43512e-05
9.754e-05
-0.000590343
0.00735889
-0.000664475
0.00971793
-0.000797593
0.0116815
-0.000833538
0.0132073
-0.000792775
0.0142208
-0.000690663
0.0146691
-0.000567226
0.0145337
-0.000431728
0.013812
-0.000303303
0.0125328
-0.000195867
0.0107646
-0.000114797
0.00862279
-6.00719e-05
0.00624188
-2.46975e-05
0.00374856
-5.23336e-06
0.001236
0.00886876
0.0105046
0.0116119
0.011126
0.0167431
0.0125063
-0.0142755
0.0300118
0.00525747
0.00629246
-0.00733725
0.0078255
0.00226123
-0.00777626
0.00289452
-0.00515575
0.00219445
0.00258136
0.00671836
0.00159833
0.00091234
-0.00606771
-0.00501453
0.00250386
9.30701e-05
8.24027e-05
0.000131564
0.000104614
0.000315441
-1.63932e-06
0.000311176
-1.24646e-06
0.0011518
-6.26264e-06
-1.07675e-05
-0.000210382
0.00431988
-0.000186443
0.00103402
-1.5413e-05
-3.87925e-05
0.000307639
-1.11564e-06
0.00030231
-7.55569e-07
9.56841e-05
9.26551e-05
5.43512e-05
-0.000378078
0.00707248
-0.00056093
0.00948127
-0.00070238
0.0115503
-0.000762632
0.0131772
-0.000723216
0.0142534
-0.00064526
0.0147472
-0.000536756
0.0146387
-0.000412639
0.0139213
-0.000291226
0.0126281
-0.000190158
0.0108399
-0.000114346
0.00867706
-6.02095e-05
0.00627739
-2.48323e-05
0.00376815
-5.31951e-06
0.00124132
0.00838926
0.0105035
0.0109489
0.0111676
0.0151229
0.0127463
0.0281556
0.0143625
0.00701079
-0.00301198
-0.00140979
0.00154249
0.00112596
0.00849694
0.00480629
-0.00289452
-0.00258136
0.00176383
0.00410219
9.10157e-05
8.97692e-05
0.000297158
-1.11118e-06
0.000288377
-1.98719e-06
0.000962433
-6.76238e-05
-7.11782e-05
-7.38996e-05
0.00403642
-2.0733e-05
0.000866185
-6.71977e-05
-2.29993e-05
0.00027652
-3.55762e-06
0.000247003
-9.27541e-06
8.86535e-05
8.78979e-05
-0.000255105
0.00676666
-0.000498841
0.00927773
-0.000668353
0.011456
-0.000688474
0.0131424
-0.000667318
0.0142754
-0.000607943
0.0148183
-0.000509312
0.0147354
-0.000391659
0.0140217
-0.000278925
0.0127169
-0.000185745
0.0109113
-0.000112864
0.00872972
-5.91076e-05
0.00631166
-2.35701e-05
0.0037864
-5.08521e-06
0.0012464
0.00790835
0.0105009
0.0102535
0.0111989
0.0135714
0.0127191
0.0252472
0.0156547
-0.00435003
0.0169224
0.0102871
0.000354035
-0.000781519
0.00123713
0.00108688
-0.000229485
0.000573929
-0.000895098
0.00258849
8.67867e-05
8.47995e-05
0.000203728
-2.43497e-05
0.000180166
-4.76167e-05
0.000800176
-6.83772e-06
-1.05587e-06
-1.3867e-05
0.00213166
-3.90812e-06
0.00166743
0.000779819
-3.04497e-07
-7.39999e-08
0.000112968
8.99689e-05
8.12418e-05
7.19664e-05
-9.77099e-05
0.00653287
-0.000167348
-0.000541533
0.0091509
-0.000602072
0.0113696
-0.000622793
0.0130979
-0.000622726
0.0142902
-0.000573677
0.0148827
-0.000481705
0.0148254
-0.000371731
0.0141145
-0.000269509
0.0128006
-0.000182105
0.0109806
-0.000110377
0.00878098
-5.73734e-05
0.00634547
-2.29259e-05
0.00380424
-5.4734e-06
0.00125188
0.00743372
0.0104937
0.00953153
0.0112229
0.0121814
0.0125889
0.0220573
0.015909
0.018364
0.0142131
-0.00143812
0.00678483
0.0059394
-0.000999049
0.00012455
-0.000392951
0.00058473
-0.000109914
0.000290892
0.00158091
-0.000430545
4.76167e-05
8.31311e-05
8.20751e-05
0.000766562
-5.61353e-07
-4.81241e-08
-0.000188585
0.00222254
0.000442562
0.00031947
1.20545e-07
5.0171e-07
-3.24834e-06
0.00149283
-1.07387e-05
8.17705e-05
8.16965e-05
-0.000183625
0.00640795
-0.000232993
-0.000114624
0.00216981
-0.000488805
0.00903763
-0.000514955
0.0112618
-0.000570273
0.0130454
-0.000589176
0.0143057
-0.000543162
0.0149442
-0.000452416
0.0149061
-0.000355893
0.0142009
-0.000262289
0.0128808
-0.000175194
0.0110454
-0.00010627
0.00882988
-5.55145e-05
0.00637806
-2.20123e-05
0.00382078
-4.91351e-06
0.00125679
0.00696633
0.0104844
0.00878872
0.0112365
0.0109517
0.0124526
0.0189833
0.0156629
0.018016
0.016257
0.00995299
0.0110449
0.00208697
0.00384408
2.97501e-05
-2.13879e-05
0.000930635
-0.000348772
1.46362e-05
0.000430617
-5.20031e-06
1.96599e-05
8.11352e-05
8.10871e-05
-3.57851e-05
0.000475098
0.000283204
4.80935e-07
8.12076e-05
8.17093e-05
-2.41729e-05
0.0014181
-1.57178e-05
-6.59614e-06
0.000470955
0.00211597
-0.000129781
-0.000209646
0.0063022
-0.000173409
0.00207456
-0.000191585
-0.000361068
0.00888374
-0.000451104
0.0111426
-0.000544424
0.0130007
-0.000563734
0.0143263
-0.000507359
0.0149991
-0.000430576
0.0149808
-0.000341595
0.0142802
-0.000252491
0.0129581
-0.000170615
0.0111097
-0.00010351
0.00887787
-5.34521e-05
0.00640949
-2.18377e-05
0.0038377
-5.07494e-06
0.00126186
0.00650629
0.0104761
0.00803717
0.0112359
0.00984043
0.0123478
0.016229
0.0152069
0.0167149
0.016964
0.011521
0.0146889
0.0047909
0.00834097
0.000654285
1.63499e-05
0.00317344
-0.000776321
0.000686553
0.000119519
0.000132927
0.000161183
-5.3859e-05
-2.54786e-05
9.4359e-06
2.90959e-05
0.000277919
-1.31188e-06
8.21903e-05
-0.000462446
0.000448321
-1.00484e-05
0.00134742
-1.99418e-05
-3.91594e-05
-7.2093e-06
0.00204437
-0.000179464
-0.000116853
0.00611946
-6.14803e-05
0.00199954
-0.000128579
0.00129913
-9.03106e-05
-5.29897e-05
-0.000277773
0.00871041
-0.000440919
0.0110391
-0.000540468
0.0129774
-0.000524792
0.0143437
-0.000476833
0.0150453
-0.000407251
0.0150464
-0.000326172
0.0143539
-0.000242671
0.0130302
-0.000166902
0.0111731
-9.94533e-05
0.00892387
-5.18109e-05
0.00643947
-2.16009e-05
0.00385423
-5.60165e-06
0.00126746
0.00605449
0.0104668
0.00728622
0.011227
0.00880432
0.012272
0.0138402
0.0147366
0.0150108
0.016911
0.0118005
0.0166845
0.00688971
0.0125901
0.00227255
0.00672271
-0.000317133
0.00095978
3.20183e-05
2.82418e-05
0.000363158
-4.89079e-05
0.00285919
-0.000225394
2.80394e-06
2.4977e-05
2.42769e-05
4.44389e-05
-9.49347e-06
-2.33516e-05
-2.10138e-05
-5.87614e-06
0.000272306
-1.5964e-06
8.08784e-05
0.000438195
-9.81662e-06
0.000264294
-2.03636e-06
0.00041604
-1.70042e-05
0.00127725
-7.88251e-05
-7.87601e-05
0.00194586
-6.3175e-05
-4.85444e-05
0.00592949
-3.92647e-05
0.00191377
-2.93922e-05
0.00121293
-1.88736e-05
-4.53845e-05
-0.000394615
0.000363866
-5.95619e-05
-3.15657e-05
-0.000285933
0.00855541
-0.000474308
0.0109729
-0.000506636
0.0129592
-0.000488126
0.014355
-0.000445346
0.0150834
-0.000387109
0.0151074
-0.000313663
0.0144249
-0.000233591
0.0130969
-0.000158156
0.0112318
-9.58802e-05
0.00896794
-5.06409e-05
0.00646851
-2.16945e-05
0.00387032
-5.17418e-06
0.00127264
0.00560777
0.0104607
0.00654072
0.0112123
0.00781098
0.0122204
0.0117759
0.0143363
0.0132218
0.0165256
0.011279
0.0174326
0.00798453
0.0155897
0.00406532
0.0107973
0.00125
0.00583587
0.000911702
-1.61715e-05
1.53414e-05
-7.26783e-05
9.8472e-05
3.91235e-06
2.31327e-06
-3.87016e-05
3.31359e-06
2.6093e-06
-1.16571e-05
0.00029873
-6.92013e-05
0.00262966
-3.95021e-05
3.60477e-06
-2.40673e-05
9.54257e-06
-1.01097e-05
1.10351e-05
1.02621e-05
5.87614e-06
-2.68899e-05
7.92819e-05
0.000256067
-1.59084e-06
7.72455e-05
0.000242257
-3.19375e-06
0.000346135
-6.10945e-05
0.000322505
-5.51308e-05
0.00116328
-1.05647e-05
-2.95657e-06
0.0018836
-1.83747e-05
-3.98812e-05
0.00574682
-6.33798e-05
0.0018591
-1.47693e-05
0.00113731
-6.09142e-07
-2.81943e-06
-0.000297395
0.000285008
-6.48695e-06
-2.0275e-05
-0.00021917
0.000180822
-2.12139e-05
-8.47948e-06
-0.000373792
0.00845489
-0.000465645
0.0109319
-0.000462505
0.0129336
-0.000442641
0.0143523
-0.000413395
0.0151097
-0.000368926
0.0151626
-0.000302244
0.0144935
-0.000225905
0.0131646
-0.000152363
0.0112883
-9.31448e-05
0.00901045
-5.0796e-05
0.00649761
-2.10681e-05
0.00388621
-3.91101e-06
0.00127655
0.00516708
0.0104537
0.00580873
0.0111928
0.00684387
0.0121794
0.0099646
0.0140317
0.0114945
0.0160636
0.0103557
0.0174489
0.00821298
0.0172041
0.00537963
0.0142754
0.00253161
0.00951572
0.000855645
0.00527896
0.000860977
-2.2718e-05
4.24115e-06
-0.000108287
0.000105589
-8.36387e-06
-5.10977e-06
3.88783e-07
5.13709e-06
-4.13429e-06
8.51833e-06
-4.71462e-07
-1.82099e-06
1.49261e-06
4.10192e-06
-5.45651e-06
-2.5956e-06
0.000269771
-7.96522e-05
0.00243954
5.59269e-06
-1.50633e-06
-1.58548e-05
7.56547e-05
7.24609e-05
0.000162494
-4.27674e-05
0.000107363
0.000276473
-2.03041e-06
0.00027403
-5.1299e-07
0.00112056
-1.2485e-06
-3.71999e-07
0.00183567
-1.64454e-05
-8.28698e-05
0.00560489
-0.000149003
0.00179751
-2.52226e-05
0.00110724
-7.20001e-07
-7.33481e-07
-0.000271486
0.000271061
-1.8459e-07
-2.76602e-07
-8.70883e-05
8.06013e-05
-6.39814e-05
4.27674e-05
-0.000420611
0.00840985
-0.00040958
0.010879
-0.000396907
0.0128879
-0.000402885
0.0143418
-0.000396786
0.0151376
-0.000358686
0.0152191
-0.00029492
0.0145625
-0.000216501
0.0132288
-0.000147205
0.0113424
-9.37609e-05
0.00905341
-4.9261e-05
0.0065258
-2.0373e-05
0.00390267
-5.03288e-06
0.00128158
0.00473098
0.0104471
0.00508753
0.0111749
0.00589178
0.0121449
0.00833859
0.0138054
0.00987603
0.0156502
0.00928356
0.0171358
0.0078855
0.0177763
0.00601056
0.0165732
0.00372143
0.0130855
0.0017542
0.00861716
0.000682318
0.00486641
0.000809458
-2.58892e-05
-2.2454e-06
-0.000104406
0.000105175
-2.34873e-05
1.05678e-07
5.31823e-06
-1.08982e-05
8.41681e-06
-5.88266e-06
-1.31743e-05
-2.8336e-06
-1.23171e-05
-4.6862e-07
1.33827e-06
-4.71465e-07
1.50633e-06
0.000272221
-0.000107759
0.00227507
7.85709e-05
7.80579e-05
0.000269988
-1.75829e-07
0.0002696
1.56849e-08
0.00109228
-4.02163e-07
-1.08595e-06
0.00175821
-4.35726e-05
-0.000195241
0.00556764
-0.000188127
0.00169647
-8.72675e-05
0.0010698
-2.2491e-06
-4.94429e-07
-0.000268915
0.000268346
-1.51787e-07
-4.80396e-08
-7.77813e-05
7.75966e-05
-0.000335739
0.008336
-0.000312886
0.010795
-0.000343917
0.0128289
-0.000380893
0.0143259
-0.000387875
0.0151668
-0.000348591
0.0152727
-0.000281366
0.0146274
-0.000210043
0.0132916
-0.000142966
0.0113916
-8.92306e-05
0.00909338
-4.87103e-05
0.00655413
-2.1125e-05
0.00391876
-4.68156e-06
0.00128626
0.0042973
0.0104417
0.00437946
0.0111552
0.00495178
0.0121148
0.00684369
0.0136398
0.00835752
0.0153239
0.00818123
0.0167525
0.00726871
0.0177526
0.00607014
0.0177168
0.0044851
0.0158095
0.00273474
0.012105
0.00135036
0.00794911
0.000607638
0.00453099
0.000752465
-3.59436e-05
-1.48225e-05
-0.000100935
9.62314e-05
-2.11862e-05
1.99362e-06
-8.64192e-06
-1.02646e-05
-3.1431e-06
3.37862e-07
-1.77565e-06
-9.09312e-06
5.56822e-07
4.64128e-06
2.43544e-06
-8.31817e-06
-3.98178e-07
-8.66802e-07
0.000293668
-0.000143444
0.00212485
7.74208e-05
7.74364e-05
0.000268068
-1.24233e-07
0.000267038
-5.70222e-08
0.00103231
-1.06078e-06
-5.02141e-06
0.00166139
-0.000160165
-0.000155155
0.00545957
-7.25184e-05
0.00163768
-0.000164421
0.000966897
-1.68309e-05
-5.02798e-06
-0.000266612
0.000264692
-3.28787e-07
-6.89355e-08
-7.73884e-05
7.72365e-05
-0.000196109
0.00821922
-0.00024431
0.0106954
-0.000322665
0.0127707
-0.000379628
0.0143176
-0.00038474
0.0152029
-0.000339385
0.0153308
-0.000267822
0.0146852
-0.000200294
0.0133489
-0.000138937
0.0114413
-8.71413e-05
0.00913181
-4.752e-05
0.00658053
-2.01058e-05
0.00393418
-4.55063e-06
0.0012908
0.00387052
0.0104338
0.00368638
0.0111347
0.00401973
0.0120873
0.00543444
0.0135241
0.00691552
0.0150818
0.00709723
0.0164079
0.00653822
0.017483
0.00576669
0.018056
0.00476061
0.0174412
0.00348767
0.0150566
0.00215043
0.0113049
0.00114064
0.00741611
0.00058393
0.00424073
0.000697378
-6.30911e-05
-2.52661e-05
-8.94178e-05
8.06653e-05
-2.71912e-05
-8.00863e-06
5.59481e-06
-1.47441e-05
-6.60618e-06
-5.43131e-06
-2.08206e-06
-5.94615e-07
4.55838e-06
-7.7015e-06
2.07656e-06
-1.182e-06
2.78273e-06
-1.60071e-06
0.00032377
-0.000179759
0.00198083
7.71123e-05
7.70552e-05
0.00026393
-3.00021e-07
0.00025947
-5.6243e-07
0.00089925
-2.84642e-05
-6.40548e-05
0.00157852
-9.60001e-05
-4.49767e-05
0.00532578
-1.73355e-05
0.00154157
-3.55653e-05
0.00085298
-5.58873e-05
-6.22664e-05
-0.000255446
0.000241699
-3.08528e-06
-1.00436e-06
-7.69863e-05
7.66574e-05
-0.000128955
0.00810387
-0.000223536
0.0105962
-0.000332573
0.0127236
-0.000394902
0.0143278
-0.000381288
0.0152448
-0.000319296
0.0153822
-0.00025888
0.0147438
-0.000192181
0.0134022
-0.000134067
0.0114882
-8.44248e-05
0.00916871
-4.35743e-05
0.00660399
-1.95348e-05
0.00394916
-4.41331e-06
0.00129521
0.00344837
0.0104271
0.00300458
0.0111156
0.00309114
0.0120633
0.00407526
0.0134465
0.00553066
0.014909
0.00603498
0.016144
0.0057753
0.0171708
0.00528311
0.0179666
0.00466586
0.0181508
0.00386739
0.0170615
0.00284768
0.0143593
0.0018043
0.0106413
0.00103334
0.0069667
0.000586123
0.00397838
-0.000118472
0.000636089
-6.88407e-05
4.12165e-05
-3.54675e-05
-1.3442e-05
1.90457e-05
-2.79151e-05
-9.58586e-06
-8.73588e-06
-6.92336e-07
-3.0145e-06
1.05165e-05
-1.47442e-05
-2.3787e-06
7.54986e-06
-2.46481e-06
-9.78359e-06
-2.82848e-06
1.60071e-06
0.000344328
-0.000195159
0.00183166
7.63573e-05
7.57948e-05
0.000221762
-8.52792e-06
0.000179007
-2.13005e-05
0.000781278
-1.96552e-05
-4.64274e-06
0.00151061
-1.40192e-05
-1.81268e-05
0.0052262
-1.12514e-05
0.00149923
-5.9578e-06
0.000747393
-8.95764e-08
-1.59053e-06
-0.000158617
0.00010273
-4.18766e-05
-7.47905e-05
7.17051e-05
-0.000109458
0.00798979
-0.000250256
0.0105139
-0.00037242
0.0127011
-0.000403189
0.0143497
-0.00035789
0.0152834
-0.000304637
0.015428
-0.000240256
0.0147918
-0.00018209
0.0134502
-0.000129841
0.0115336
-8.1175e-05
0.00920631
-4.5706e-05
0.00663016
-1.88638e-05
0.00396361
-4.27836e-06
0.00129949
0.00303421
0.0104172
0.00233944
0.0110923
0.00216933
0.0120375
0.00273757
0.013401
0.00417771
0.0147994
0.00498784
0.0159561
0.00500955
0.0169098
0.00472664
0.0177273
0.00435095
0.0182815
0.00390032
0.0181179
0.00326906
0.0166401
0.00243424
0.0137294
0.00160254
0.0100721
0.000983423
0.00656939
0.000593521
0.00372918
3.59076e-05
-7.45583e-05
-2.57377e-05
-1.28681e-05
-0.000112022
0.000552949
3.08712e-05
-3.04315e-05
-4.31737e-06
-6.16878e-06
1.91813e-05
-2.22693e-05
-6.49782e-06
1.65418e-05
-6.0964e-06
-1.56926e-05
2.56086e-07
-2.16518e-06
5.2933e-06
-7.672e-06
2.82848e-06
0.000369903
-0.000220561
0.00168231
6.31771e-05
4.18766e-05
8.30744e-05
7.84317e-05
0.00073366
-3.55873e-07
6.9547e-08
0.00148574
-4.63058e-06
-1.1142e-05
0.00513333
-5.44726e-06
0.00147944
-4.95139e-06
0.000727797
4.48183e-08
-1.40337e-07
-7.68412e-05
7.67516e-05
-0.000136591
0.00787612
-0.000315142
0.0104566
-0.00040632
0.0127043
-0.000375623
0.0143674
-0.000328539
0.0153073
-0.000277656
0.0154654
-0.000229661
0.0148394
-0.000177956
0.0134983
-0.000127196
0.0115796
-8.23529e-05
0.00924295
-4.53636e-05
0.00665666
-1.82048e-05
0.00397753
-4.32735e-06
0.00130381
0.00262934
0.0104054
0.00169103
0.0110656
0.0012514
0.0120102
0.00138512
0.0133899
0.00284097
0.0147378
0.00395198
0.0158353
0.00424589
0.0167198
0.00414916
0.0174873
0.00393271
0.0181455
0.00369759
0.0184842
0.0033818
0.0180051
0.00286509
0.0162093
0.00217079
0.0131611
0.00148559
0.00956991
0.000956722
0.00620619
0.000607617
0.00349147
-0.000127016
-3.6101e-05
-2.34645e-05
7.36154e-05
-8.4261e-05
-6.68505e-06
-8.40735e-06
7.197e-05
-5.22226e-06
-6.00079e-06
-0.000132952
0.000465339
2.38581e-05
-3.59403e-06
-1.61663e-06
2.28907e-05
-2.3203e-05
-3.38381e-06
-5.51382e-06
1.56775e-05
-1.70142e-05
-5.1611e-06
9.58109e-06
-7.41591e-06
0.000387079
-0.000234565
0.00152979
7.63957e-05
7.64653e-05
0.0007233
-1.08515e-07
-2.57779e-08
0.00147112
-2.82592e-06
-7.55336e-06
0.00502516
-2.08684e-05
0.0014645
4.06561e-06
-2.8983e-06
0.000718678
-1.45764e-07
-1.83872e-07
-7.63249e-05
7.63697e-05
-0.000227043
0.00778802
-0.000399404
0.0104497
-0.00037619
0.0127048
-0.000336024
0.0143749
-0.000298044
0.0153277
-0.000261493
0.0154972
-0.000220326
0.0148818
-0.000174298
0.0135454
-0.000125175
0.0116224
-7.91074e-05
0.0092767
-4.23892e-05
0.00668084
-1.8074e-05
0.00399128
-4.40441e-06
0.00130821
0.00223518
0.0103925
0.0010655
0.011031
0.000338479
0.0119786
-1.2016e-05
0.0134073
0.001504
0.0147269
0.0029193
0.0157704
0.00348272
0.0165985
0.00356431
0.0173046
0.00347752
0.0179425
0.00336992
0.0184732
0.00325568
0.0186103
0.00303163
0.0178386
0.00259756
0.0157825
0.0020055
0.0126412
0.00141539
0.00911124
0.000947394
0.00586641
0.000619794
0.00325875
-0.000183918
-4.38834e-05
-3.21693e-05
9.82991e-05
-0.000108824
-1.30619e-05
-1.25147e-05
-6.38281e-06
-3.0439e-06
2.43949e-05
-2.86821e-05
-2.39798e-06
1.95135e-05
-3.52602e-06
1.93939e-05
-5.10274e-06
1.33931e-05
-0.000139917
0.000370687
9.79907e-06
8.18244e-06
1.86593e-05
-1.2825e-06
-1.73882e-06
-5.16111e-06
0.000406333
-0.000254984
0.00137844
7.62612e-05
7.62354e-05
0.000418337
6.15448e-08
1.44497e-07
0.000297309
0.00145864
-1.16773e-06
-5.18562e-07
-2.31809e-05
0.00488762
-6.63217e-05
0.00144056
-2.15392e-07
-2.57325e-06
0.000451107
-2.8704e-05
0.000453031
-4.82262e-06
-7.60515e-05
7.59057e-05
-0.000367018
0.00775563
-0.000367479
0.010441
-0.000318152
0.012687
-0.000286577
0.0143634
-0.000267401
0.0153336
-0.000245181
0.0155221
-0.000213913
0.0149214
-0.000172762
0.013593
-0.000123088
0.0116664
-7.65701e-05
0.00931087
-4.17541e-05
0.00670452
-1.79925e-05
0.00400486
-4.25578e-06
0.00131246
0.00185673
0.0103753
0.000472972
0.010985
-0.000567238
0.0119367
-0.00148697
0.0134535
0.000146723
0.0147646
0.00189029
0.0157559
0.00271964
0.0165335
0.00297613
0.0171866
0.00301083
0.0177713
0.00298914
0.0183232
0.00298882
0.0187401
0.00296472
0.0186772
0.00279723
0.0176389
0.00242253
0.0153655
0.00189927
0.0121574
0.00137337
0.00868526
0.000943605
0.0055426
0.000632232
0.00303285
-0.000244004
-4.34549e-05
-3.63776e-05
0.000120934
-0.00013773
-2.70889e-05
-9.48117e-06
-1.05782e-05
3.82312e-05
-4.19575e-05
-9.33585e-06
3.46097e-05
-8.89325e-06
3.13517e-05
-3.125e-06
-3.74404e-07
8.62877e-06
-1.10268e-05
5.10274e-06
-0.000158293
0.000273995
6.89993e-06
0.000419503
-0.000268206
0.00122714
7.59672e-05
7.61117e-05
0.000267446
1.15869e-06
0.000452375
-5.11917e-07
0.000451947
-9.01771e-08
0.00142314
-7.93523e-07
-4.96661e-06
-0.000107897
0.00482243
-0.000193936
0.00137548
-4.74476e-06
-1.39235e-05
0.000451778
-4.62028e-08
0.000449556
-3.51769e-07
0.000264132
-1.50879e-06
-0.000351729
0.00773988
-0.000274379
0.0103972
-0.000249676
0.0126501
-0.000245433
0.0143415
-0.000247283
0.0153357
-0.000242304
0.0155505
-0.000219517
0.0149682
-0.000174518
0.0136444
-0.000125743
0.0117156
-8.08574e-05
0.00934997
-4.12006e-05
0.00672772
-1.56608e-05
0.00401626
-4.28011e-06
0.00131674
0.00149822
0.0103561
-7.21901e-05
0.0109205
-0.00146112
0.0118789
-0.00307422
0.0135239
-0.00124718
0.0148474
0.000859469
0.0157954
0.00195246
0.0165231
0.00238412
0.0171255
0.00253824
0.0176592
0.00259347
0.018167
0.00265654
0.0186555
0.00274205
0.0189627
0.00277393
0.0187005
0.00264616
0.0174153
0.00230557
0.0149592
0.00182951
0.0117012
0.00134598
0.00828288
0.000942432
0.0052324
0.000640227
0.00281212
-0.000311475
-5.03865e-05
-4.04372e-05
0.000150718
-0.000162611
-3.1563e-05
-2.33896e-05
4.5926e-05
-0.000107505
-1.79852e-06
3.74788e-05
-1.19049e-06
4.54154e-05
-8.97079e-06
-7.12042e-06
2.34194e-05
-2.5793e-05
-6.96241e-06
1.45262e-05
1.14012e-05
-0.000168483
0.000174268
0.000432347
-0.000284135
0.00107892
7.72704e-05
0.000263808
-1.88452e-07
0.000263534
1.8389e-07
0.000449113
-3.50627e-07
0.000445607
-1.46073e-06
0.00132207
-1.67132e-05
-3.77722e-05
-0.000181941
0.00477139
-0.000118755
0.00126979
-5.38205e-05
-8.78332e-05
0.000443375
-2.51291e-06
0.000433846
-4.39446e-06
0.000263422
6.62291e-08
0.00026318
-1.10431e-07
7.57616e-05
-0.000196112
0.00766162
-0.000181762
0.0103293
-0.000194263
0.0125989
-0.000221669
0.0143159
-0.000247571
0.015341
-0.000248279
0.0155792
-0.000219305
0.0150129
-0.00017133
0.01369
-0.000116442
0.0117512
-7.33223e-05
0.00938209
-4.08811e-05
0.00675294
-1.75423e-05
0.00402952
-2.91747e-06
0.00131965
0.0011657
0.0103347
-0.000548704
0.0108327
-0.00233967
0.011799
-0.00481788
0.0136226
-0.00269772
0.0149745
-0.000175586
0.0158825
0.00118402
0.0165639
0.00178718
0.01712
0.00206059
0.0176032
0.00219217
0.0180605
0.00230026
0.0185233
0.00243872
0.0189588
0.00258659
0.0191501
0.00265817
0.0186885
0.00254662
0.0171742
0.00222815
0.0145605
0.00178266
0.0112645
0.0013269
0.00789841
0.000939799
0.00493282
0.000646785
0.00259768
-0.000379226
-5.46533e-05
-4.60814e-05
0.000178566
-0.000195968
-3.29856e-05
-2.44822e-05
0.00011818
-0.000129333
-1.06856e-05
-9.72443e-06
-3.21927e-06
-9.49601e-06
1.25586e-05
-1.43572e-05
3.00487e-05
-1.54084e-06
1.13681e-05
-2.86486e-06
-6.96242e-06
-0.000186622
7.6752e-05
0.000439747
-0.000294673
0.000933833
7.55731e-05
7.5757e-05
0.000262754
7.606e-08
0.000261419
-1.2595e-07
0.00042526
-8.12695e-06
0.000404762
-1.72746e-05
0.00123777
-7.78716e-05
-7.20559e-05
-5.75526e-05
0.00464677
-1.39359e-05
0.00118136
-4.31984e-05
-1.91382e-05
0.000383999
-3.30579e-05
0.000353713
-5.75468e-05