/*--------------------------------*- C++ -*----------------------------------*\
| =========                 |                                                 |
| \\      /  F ield         | OpenFOAM: The Open Source CFD Toolbox           |
|  \\    /   O peration     | Version:  v1912                                 |
|   \\  /    A nd           | Website:  www.openfoam.com                      |
|    \\/     M anipulation  |                                                 |
\*---------------------------------------------------------------------------*/
FoamFile
{
    version     2.0;
    format      ascii;
    class       volScalarField;
    location    "360";
    object      p;
}
// * * * * * * * * * * * * * * * * * * * * * * * * * * * * * * * * * * * * * //

dimensions      [0 2 -2 0 0 0 0];


internalField   nonuniform List<scalar> 
3753
(
-0.00625759
0.0230248
0.0168019
0.0476266
0.0160021
0.0272796
0.0697735
0.0243905
0.0292951
0.0359193
0.0933345
0.0409652
0.0341404
0.036567
0.0253994
0.117225
0.0625742
0.044115
0.0385803
0.0264729
0.0159307
0.140124
0.0866329
0.0595964
0.0433484
0.0273597
0.017017
0.00998124
0.161625
0.111679
0.0796493
0.051972
0.0283032
0.0178741
0.0110274
0.00377634
0.181573
0.13699
0.10313
0.0647115
0.0297886
0.0183676
0.0120573
0.00478287
-0.00183762
0.199765
0.162138
0.129223
0.0812932
0.0320826
0.0185842
0.0129878
0.00572116
-0.000932524
-0.00611489
0.215938
0.18678
0.157511
0.101425
0.0350878
0.0186131
0.0138691
0.00650276
-0.000118533
-0.00532068
-0.00942288
0.22978
0.210557
0.18787
0.125068
0.0384446
0.0184772
0.0147232
0.00716804
0.000492194
-0.00458114
-0.00872842
-0.0120116
0.240921
0.233015
0.220329
0.152475
0.0416399
0.0181118
0.0155432
0.00772115
0.000922195
-0.00400135
-0.00806863
-0.0114104
-0.013938
0.248952
0.253546
0.254963
0.184163
0.0440372
0.0173849
0.0162816
0.00815006
0.00117258
-0.00356896
-0.00753635
-0.0108339
-0.0134199
-0.0153499
0.253444
0.271339
0.291878
0.220792
0.0449029
0.0161037
0.0168504
0.00841975
0.00124792
-0.00329612
-0.00712052
-0.0103663
-0.0129132
-0.0149028
-0.0163531
0.253994
0.285335
0.331257
0.262693
0.0435497
0.0140401
0.0171203
0.00847019
0.00115752
-0.00319261
-0.00684003
-0.00999685
-0.0124924
-0.0144616
-0.0159687
-0.0169905
0.250318
0.294263
0.372838
0.310471
0.0387609
0.0111785
0.0168857
0.00823326
0.000907597
-0.00325719
-0.00671789
-0.00974151
-0.0121447
-0.0140965
-0.0155856
-0.0166596
-0.0173428
0.242725
0.296155
0.413907
0.369459
0.0268652
0.00789801
0.0159043
0.00764174
0.000510899
-0.00348536
-0.00676949
-0.00962324
-0.011879
-0.0137971
-0.0152736
-0.0163219
-0.0170579
-0.017497
0.231896
0.287772
0.446911
0.444927
0.00820529
0.00377702
0.0141796
0.00662643
9.14976e-06
-0.00386452
-0.00700261
-0.00966082
-0.0117091
-0.0135749
-0.0150309
-0.0160407
-0.0167577
-0.017249
-0.0175021
0.218648
0.273803
0.378495
0.378843
0.569987
0.627596
0.535253
0.0585702
0.408536
0.0362505
-0.00250036
-0.031797
0.0120986
0.0052002
-0.000522049
-0.00435776
-0.00741231
-0.00986784
-0.0116413
-0.013447
-0.0148724
-0.0158135
-0.0164986
-0.0169824
-0.0172852
-0.0173897
0.203833
0.253813
0.372193
0.354083
0.523305
0.610898
0.705215
0.559235
0.495026
0.628301
0.0922557
0.0968011
-0.0355691
-0.0177456
-0.00564663
0.00938143
-0.00817861
0.00367506
-0.00101602
-0.00489042
-0.00796822
-0.010246
-0.0116704
-0.0134239
-0.0148212
-0.0156562
-0.0162774
-0.016749
-0.0170489
-0.0171993
-0.017182
0.188407
0.231225
0.331591
0.304881
0.500907
0.474593
0.636838
0.636719
0.72003
0.64839
-0.014051
-0.0362468
-0.00632948
-0.0374337
0.00418602
0.00249329
0.00359429
-0.0112144
-0.00147014
-0.00536253
-0.00860895
-0.010779
-0.011774
-0.0135053
-0.0148973
-0.0155913
-0.0161059
-0.0165448
-0.0168433
-0.0169884
-0.017013
-0.0169052
0.173314
0.2092
0.277733
0.243959
0.440675
0.3963
0.628136
0.612677
0.567919
0.59377
0.733164
0.73079
-0.0396214
-0.014297
-0.00946662
0.00231272
0.00411678
-0.0019687
-0.00111333
2.77636e-05
0.00199257
-0.0123199
-0.0136198
-0.00572476
-0.00924772
-0.0114388
-0.0119114
-0.013674
-0.015112
-0.0156371
-0.0160035
-0.0163786
-0.0166662
-0.0168059
-0.0168219
-0.0167551
-0.0165756
0.159186
0.185975
0.22916
0.353027
0.322103
0.538774
0.505191
0.43549
0.478291
0.723109
0.699679
0.627838
0.672598
-0.00210494
0.0021281
0.00530092
0.00425181
0.0028593
-0.00113428
-0.00614737
-0.00373608
0.00201748
-0.00482692
0.00169556
-0.00973335
-0.0122318
-0.0120312
-0.0138934
-0.0154618
-0.0158026
-0.0159877
-0.0162659
-0.0165261
-0.0166526
-0.0166564
-0.0165808
-0.0164403
-0.0162169
0.146489
0.165353
0.169842
0.239813
0.180681
0.382302
0.330663
0.309871
0.580021
0.511133
0.476279
0.458705
0.00327337
0.00373827
0.00255722
3.58381e-05
-0.00235228
-0.00572254
-0.00994543
-0.0079062
-0.00360189
-0.00458582
0.00363741
-0.00732852
0.00133914
-0.0132704
-0.0120946
-0.0141254
-0.0159188
-0.0160839
-0.0160688
-0.0162198
-0.0164381
-0.0165392
-0.0165184
-0.0164264
-0.0162796
-0.0160951
-0.0158384
0.135424
0.148548
0.128927
0.0318274
0.0435482
0.0298326
-0.206999
0.413028
0.357073
-0.0331017
0.0382828
0.387202
0.00323494
0.00219077
0.00185523
-0.00260118
-0.00555996
-0.00679375
-0.00942195
-0.01453
-0.0111397
-0.00782901
-0.00854611
-0.00376036
-0.00472129
0.00321425
-0.00790408
-0.0121273
-0.0143495
-0.016417
-0.016465
-0.0162467
-0.0162467
-0.0164146
-0.0164807
-0.0164187
-0.0162947
-0.016135
-0.0159475
-0.0157267
-0.0154422
0.126053
0.134631
0.100166
0.0152184
-0.871604
-0.730983
-0.430589
-0.180365
-0.754334
-0.724422
0.140931
0.0736788
-0.00582326
-0.0070222
-0.00932315
-0.0104069
-0.0150882
-0.0123155
-0.0144073
-0.0108433
-0.0113696
-0.00796655
-0.00855253
-0.0144549
-0.0169408
-0.0168997
-0.0165167
-0.0163411
-0.0164607
-0.0164909
-0.0163757
-0.0161972
-0.0160079
-0.0158152
-0.0155911
-0.01534
-0.0150331
0.118394
0.122986
0.0785188
0.00387798
-0.743716
-1.04129
-0.89762
-0.919778
-0.87029
-0.00958948
-0.0106591
-0.0115495
-0.0185832
-0.0129067
-0.0142309
-0.0130916
-0.0137083
-0.0144889
-0.0111103
-0.0113332
-0.0179357
-0.0172941
-0.0168801
-0.0164891
-0.0165722
-0.0165763
-0.0164048
-0.0161513
-0.015906
-0.0156997
-0.0154731
-0.0152149
-0.014939
-0.0146107
0.112427
0.113352
0.0626056
0.00281844
-0.599462
-0.627026
-0.948413
-0.857989
-0.86097
-0.68222
-0.0112904
-0.0196323
-0.0134501
-0.0131695
-0.0141062
-0.0191587
-0.0150788
-0.0154476
-0.0133653
-0.013465
-0.0176807
-0.0189583
-0.0173304
-0.0166779
-0.0167359
-0.0167319
-0.0165156
-0.0161737
-0.0158412
-0.0156089
-0.015376
-0.0151075
-0.0148212
-0.0145249
-0.0141899
0.108103
0.105582
0.0515416
-0.000428906
-0.481149
-0.593065
-0.472596
-0.604556
-0.862398
-0.675479
-0.0140488
-0.0146248
-0.017721
-0.0148927
-0.0150702
-0.0155768
-0.0189476
-0.0176808
-0.0180204
-0.0178398
-0.0182391
-0.0169038
-0.0169366
-0.0169415
-0.016708
-0.0162777
-0.0158244
-0.0155539
-0.0153079
-0.0150226
-0.0147202
-0.0144156
-0.0141097
-0.0137651
0.10536
0.0995916
0.0442291
-0.00671463
-0.392302
-0.546902
-0.470686
-0.407354
-0.45369
-0.503713
-0.604799
-0.711553
-0.648224
-0.0182693
-0.016064
-0.0192599
-0.018308
-0.0187579
-0.0186551
-0.0171912
-0.0176802
-0.0183543
-0.0171664
-0.0171803
-0.0169716
-0.0164707
-0.0158618
-0.0155447
-0.0152801
-0.014969
-0.014642
-0.0143218
-0.0140045
-0.0136904
-0.0133354
0.104134
0.0953227
0.0397399
-0.01325
-0.322263
-0.494004
-0.459136
-0.407351
-0.404362
-0.366126
-0.456923
-0.498331
-0.576139
-0.627634
-0.018958
-0.0182552
-0.0185963
-0.0193902
-0.0185722
-0.0193175
-0.0175035
-0.0174491
-0.0175751
-0.0177301
-0.0183224
-0.01846
-0.0174183
-0.0172826
-0.0167556
-0.0159519
-0.0155863
-0.0153034
-0.0149604
-0.014598
-0.0142503
-0.0139136
-0.0135905
-0.0132668
-0.0129212
0.104366
0.092734
0.0374524
-0.0187389
-0.268357
-0.441124
-0.438733
-0.402984
-0.366635
-0.364281
-0.391068
-0.415649
-0.331473
-0.444849
-0.466383
-0.509702
-0.481806
-0.572582
-0.619367
-0.0190651
-0.0188198
-0.0195553
-0.0186666
-0.0208656
-0.0180457
-0.0176974
-0.0176968
-0.0176607
-0.0178068
-0.0178147
-0.0177837
-0.0178925
-0.0171663
-0.0186257
-0.0175917
-0.01714
-0.0160856
-0.0156794
-0.0153822
-0.0150057
-0.0146017
-0.0142123
-0.0138436
-0.013502
-0.0131725
-0.0128562
-0.0125206
0.105999
0.0917915
0.036977
-0.0227546
-0.2283
-0.393734
-0.414538
-0.3941
-0.365572
-0.332356
-0.330047
-0.353474
-0.371808
-0.386641
-0.396542
-0.406053
-0.419926
-0.444112
-0.30351
-0.466031
-0.501881
-0.481701
-0.0190305
-0.0187914
-0.0223236
-0.0170047
-0.0179065
-0.0179187
-0.0178883
-0.0178586
-0.0178392
-0.01797
-0.0179964
-0.0179657
-0.0180088
-0.0179549
-0.0178579
-0.0173392
-0.0189106
-0.0176423
-0.0162521
-0.0158218
-0.0155164
-0.0151078
-0.0146598
-0.0142216
-0.0138064
-0.0134288
-0.0130861
-0.0127672
-0.0124595
-0.0121164
0.10898
0.092464
0.0380659
-0.0250862
-0.198695
-0.353728
-0.390057
-0.381951
-0.36228
-0.332532
-0.304322
-0.302268
-0.32127
-0.336227
-0.348612
-0.357687
-0.365577
-0.374497
-0.385709
-0.442091
-0.280292
-0.461232
-0.0230106
-0.0180158
-0.0180412
-0.0180119
-0.0180517
-0.018046
-0.0179527
-0.0182239
-0.0180811
-0.0181368
-0.0181409
-0.0181215
-0.0180565
-0.0180933
-0.0164503
-0.0160106
-0.0156987
-0.015263
-0.0147758
-0.0142904
-0.0138161
-0.0133823
-0.0130135
-0.0126872
-0.0123729
-0.0120581
-0.0117312
0.113259
0.0947287
0.0405781
-0.0256792
-0.176673
-0.320777
-0.367176
-0.368265
-0.356479
-0.331734
-0.30473
-0.281073
-0.27919
-0.295028
-0.30731
-0.320567
-0.330592
-0.33872
-0.349484
-0.357621
-0.364417
-0.371648
-0.260575
-0.0180897
-0.0181264
-0.0181584
-0.0182201
-0.0181253
-0.0181559
-0.0166919
-0.018897
-0.0181205
-0.0182976
-0.0182487
-0.0182191
-0.0181975
-0.0162415
-0.0159206
-0.0154625
-0.0149436
-0.0144232
-0.0138869
-0.0133767
-0.012963
-0.01262
-0.0122967
-0.0119773
-0.0116759
-0.0113515
0.118783
0.0985667
0.0444483
-0.0245921
-0.160256
-0.294085
-0.346739
-0.354577
-0.348881
-0.329595
-0.304732
-0.281618
-0.261305
-0.259515
-0.272972
-0.283495
-0.294587
-0.305785
-0.316651
-0.33
-0.323926
-0.3381
-0.243737
-0.0182419
-0.0182902
-0.0182557
-0.0183343
-0.0180112
-0.0170424
-0.0165286
-0.0168458
-0.0197674
-0.0183166
-0.0182473
-0.0183754
-0.0183306
-0.0161739
-0.0156938
-0.0151519
-0.0146141
-0.0140277
-0.013424
-0.0129429
-0.0125728
-0.0122367
-0.0119077
-0.0115994
-0.0112988
-0.0109796
0.125493
0.103961
0.0496783
-0.021886
-0.148088
-0.272924
-0.329013
-0.341821
-0.340571
-0.326189
-0.304185
-0.281993
-0.261903
-0.244391
-0.242811
-0.2538
-0.263196
-0.272541
-0.2822
-0.291062
-0.297076
-0.30798
-0.302291
-0.329542
-0.336182
-0.22923
-0.0183552
-0.0184159
-0.0181093
-0.0175926
-0.0169258
-0.0168942
-0.0164522
-0.0167673
-0.0170235
-0.0180015
-0.0212747
-0.018419
-0.0183784
-0.0159446
-0.0153854
-0.0148476
-0.0142394
-0.0135313
-0.0129625
-0.0125575
-0.0122002
-0.0118544
-0.0115336
-0.0112232
-0.0109295
-0.0106165
0.133322
0.110901
0.0563298
-0.0175741
-0.139261
-0.256679
-0.314013
-0.330377
-0.332374
-0.321983
-0.302988
-0.282183
-0.262478
-0.24497
-0.22982
-0.241502
-0.228478
-0.253859
-0.262172
-0.269786
-0.274474
-0.283931
-0.278786
-0.290777
-0.296205
-0.301484
-0.216388
-0.0184615
-0.0173446
-0.0171924
-0.0169715
-0.0170738
-0.016719
-0.0162351
-0.0166026
-0.0169525
-0.0171882
-0.0172363
-0.0220416
-0.0156214
-0.015098
-0.0145162
-0.0137017
-0.0130264
-0.0125811
-0.0121971
-0.0118248
-0.0114823
-0.011158
-0.0108568
-0.0105689
-0.0102613
0.142188
0.119372
0.0645091
-0.0115968
-0.13321
-0.244882
-0.301674
-0.320344
-0.324734
-0.317477
-0.301249
-0.282104
-0.263067
-0.245595
-0.230351
-0.216944
-0.227528
-0.237047
-0.244699
-0.2157
-0.253424
-0.263722
-0.259135
-0.270225
-0.274028
-0.282983
-0.278514
-0.205142
-0.0172083
-0.0171572
-0.016863
-0.0164256
-0.0158581
-0.0168418
-0.0167633
-0.0170265
-0.0171175
-0.0153295
-0.0148468
-0.0139348
-0.0131338
-0.0126477
-0.0122349
-0.0118287
-0.011456
-0.0111117
-0.0107951
-0.0104995
-0.0102156
-0.00991636
0.151985
0.129353
0.0743656
-0.00377943
-0.129675
-0.23723
-0.291944
-0.311732
-0.317844
-0.313017
-0.299183
-0.281729
-0.26363
-0.246343
-0.230947
-0.217451
-0.205637
-0.214863
-0.22349
-0.229978
-0.23498
-0.238628
-0.242361
-0.245724
-0.204529
-0.250674
-0.255041
-0.258785
-0.26292
-0.269212
-0.195124
-0.0169906
-0.0169473
-0.0163899
-0.0161789
-0.0155209
-0.016022
-0.0179916
-0.0171332
-0.0168421
-0.0169361
-0.0151955
-0.0142376
-0.0132762
-0.0127584
-0.0123192
-0.0118743
-0.0114657
-0.0110929
-0.0107521
-0.0104403
-0.010147
-0.0098719
-0.00958474
0.162576
0.140817
0.0861187
0.00617991
-0.128702
-0.233568
-0.284784
-0.304539
-0.311785
-0.308808
-0.296983
-0.28111
-0.264093
-0.247226
-0.231716
-0.218025
-0.206094
-0.19558
-0.203764
-0.211175
-0.217145
-0.221839
-0.224714
-0.227625
-0.230869
-0.235058
-0.238362
-0.241628
-0.194566
-0.25877
-0.261995
-0.186239
-0.0166252
-0.0165296
-0.0153119
-0.0164483
-0.0162631
-0.0157999
-0.0154803
-0.0156847
-0.0161936
-0.0160965
-0.0170584
-0.0146377
-0.0134412
-0.0129113
-0.0124497
-0.0119648
-0.0115169
-0.011109
-0.0107347
-0.0103939
-0.0100849
-0.00980546
-0.00954364
-0.00926124
0.173782
0.153718
0.100075
0.0186751
-0.130623
-0.233898
-0.280175
-0.298772
-0.3066
-0.304962
-0.29478
-0.280324
-0.264412
-0.248174
-0.232709
-0.218785
-0.206619
-0.196
-0.18665
-0.193878
-0.200594
-0.205658
-0.210678
-0.215007
-0.217978
-0.222412
-0.224581
-0.227172
-0.230001
-0.185734
-0.178322
-0.016221
-0.0165541
-0.0163595
-0.0159596
-0.0159233
-0.0155323
-0.015116
-0.0156605
-0.0158259
-0.0157692
-0.0162762
-0.0161766
-0.0171385
-0.0136213
-0.0130987
-0.0126235
-0.0120988
-0.0116117
-0.0111679
-0.010755
-0.010374
-0.0100381
-0.00974558
-0.0094792
-0.00921969
-0.00895553
0.185373
0.167963
0.116625
0.034159
-0.136061
-0.238377
-0.278104
-0.294443
-0.30232
-0.301546
-0.292657
-0.279439
-0.26458
-0.249092
-0.233884
-0.219806
-0.207332
-0.196481
-0.187027
-0.178692
-0.18511
-0.190989
-0.1956
-0.200382
-0.204934
-0.20908
-0.214323
-0.211969
-0.217124
-0.221775
-0.177872
-0.171249
-0.0166478
-0.0164316
-0.0160417
-0.0159972
-0.015629
-0.0156409
-0.0158153
-0.0138473
-0.0148654
-0.0156144
-0.0155755
-0.0159134
-0.0158357
-0.0163444
-0.0162428
-0.0133105
-0.0128341
-0.0122718
-0.0117472
-0.0112715
-0.0108227
-0.0103955
-0.0100152
-0.00969515
-0.00942104
-0.00915824
-0.00891637
-0.00865013
0.197043
0.183396
0.136274
0.0532373
-0.146035
-0.247317
-0.278573
-0.291566
-0.298973
-0.298612
-0.290669
-0.278509
-0.264616
-0.249914
-0.235136
-0.221076
-0.208322
-0.197138
-0.187459
-0.179031
-0.17158
-0.177307
-0.18256
-0.186625
-0.190647
-0.194926
-0.198442
-0.20188
-0.205647
-0.203188
-0.214366
-0.216454
-0.170842
-0.164891
-0.0161078
-0.0160587
-0.0157396
-0.015674
-0.0166981
-0.0151617
-0.0143175
-0.0135483
-0.0139851
-0.0150331
-0.0148142
-0.0156658
-0.0147668
-0.01598
-0.0159001
-0.0130688
-0.0124768
-0.0119169
-0.0114133
-0.0109378
-0.0104645
-0.0100246
-0.00966282
-0.00937238
-0.009103
-0.00885636
-0.00861251
-0.00836058
0.208371
0.199806
0.159755
0.0765144
-0.162019
-0.26122
-0.281588
-0.290165
-0.296577
-0.296192
-0.288856
-0.277569
-0.264544
-0.25061
-0.236364
-0.2225
-0.2096
-0.19807
-0.188053
-0.179413
-0.171881
-0.165196
-0.170298
-0.174851
-0.178698
-0.182314
-0.186089
-0.189261
-0.191506
-0.195598
-0.193388
-0.198111
-0.201423
-0.164512
-0.159164
-0.015832
-0.0157452
-0.0176811
-0.0144292
-0.0145795
-0.0143803
-0.0138718
-0.0133109
-0.0136808
-0.0142525
-0.0140652
-0.0150108
-0.014968
-0.0158614
-0.0148814
-0.0127069
-0.012115
-0.0115841
-0.0110936
-0.0105873
-0.0100817
-0.00965782
-0.00933605
-0.00905844
-0.00880548
-0.00855661
-0.00832392
-0.0080704
0.218791
0.216916
0.188195
0.103748
-0.185724
-0.280787
-0.287193
-0.290267
-0.295148
-0.294309
-0.287251
-0.276652
-0.264392
-0.251177
-0.2375
-0.223964
-0.211093
-0.199308
-0.188907
-0.179938
-0.172216
-0.165466
-0.159445
-0.169567
-0.164037
-0.174393
-0.178234
-0.180842
-0.183298
-0.186699
-0.184656
-0.189088
-0.191229
-0.195167
-0.193238
-0.158812
-0.153997
-0.0184268
-0.0146543
-0.0144726
-0.0140019
-0.0139222
-0.0135745
-0.0129534
-0.0134056
-0.0138533
-0.0137357
-0.0143296
-0.0141505
-0.0123375
-0.0117728
-0.0112763
-0.0107636
-0.0101937
-0.00968628
-0.00932306
-0.00903274
-0.00876749
-0.00851028
-0.00826653
-0.00803498
-0.00779302
0.227574
0.234238
0.223083
0.134793
-0.219597
-0.306514
-0.295528
-0.291887
-0.294693
-0.292965
-0.285875
-0.275781
-0.264185
-0.251632
-0.238513
-0.225374
-0.212681
-0.2008
-0.190072
-0.180705
-0.172674
-0.165757
-0.159686
-0.154254
-0.163466
-0.167755
-0.170652
-0.158374
-0.17424
-0.178814
-0.177043
-0.180515
-0.183466
-0.186315
-0.18438
-0.153678
-0.149275
-0.0140414
-0.013972
-0.0136818
-0.0136308
-0.0132341
-0.0125803
-0.0130492
-0.01357
-0.0134502
-0.0139139
-0.0138009
-0.0119771
-0.0114661
-0.0109814
-0.0103645
-0.00975402
-0.00933926
-0.00903081
-0.00874822
-0.0084784
-0.00822085
-0.00798364
-0.00775977
-0.00751649
0.233928
0.250582
0.265567
0.176905
-0.269522
-0.338289
-0.306648
-0.295043
-0.295198
-0.29215
-0.28474
-0.274975
-0.263943
-0.251994
-0.239405
-0.226678
-0.214254
-0.202435
-0.191515
-0.181774
-0.173351
-0.16615
-0.15994
-0.154469
-0.149516
-0.157844
-0.161538
-0.164448
-0.167251
-0.168104
-0.169434
-0.171039
-0.153286
-0.173151
-0.174954
-0.17646
-0.178471
-0.180265
-0.183086
-0.148976
-0.145006
-0.0137219
-0.0136835
-0.0133576
-0.0132892
-0.0128603
-0.0122066
-0.0126804
-0.0132146
-0.013093
-0.0136362
-0.0135207
-0.0116515
-0.0112114
-0.0105979
-0.00986134
-0.00938595
-0.00905766
-0.00875559
-0.00846682
-0.00819304
-0.0079422
-0.0077071
-0.00748375
-0.00724591
0.23724
0.263766
0.313007
0.239009
-0.337784
-0.376799
-0.319934
-0.299748
-0.296609
-0.291841
-0.283851
-0.274249
-0.263682
-0.252285
-0.240188
-0.22786
-0.215744
-0.204097
-0.193139
-0.183133
-0.174312
-0.166736
-0.160276
-0.154687
-0.149715
-0.145227
-0.152827
-0.15612
-0.158707
-0.160663
-0.162102
-0.163345
-0.16467
-0.167173
-0.148601
-0.176554
-0.178194
-0.14473
-0.141092
-0.0134059
-0.0133429
-0.0129902
-0.0129152
-0.0124793
-0.0118546
-0.0123158
-0.0128345
-0.0127249
-0.0132799
-0.0131611
-0.0113932
-0.010904
-0.0100034
-0.00946352
-0.00911523
-0.00879382
-0.00848431
-0.00819008
-0.00791404
-0.00766476
-0.00743374
-0.00721527
-0.00698366
0.270896
0.354889
0.31815
0.384939
-0.264455
0.221148
-0.321577
-0.417999
-0.482462
-0.333986
-0.305695
-0.298806
-0.291991
-0.283211
-0.273611
-0.263413
-0.252527
-0.240882
-0.228927
-0.217121
-0.205701
-0.194828
-0.1847
-0.175561
-0.167584
-0.160777
-0.15497
-0.149909
-0.145406
-0.141299
-0.148139
-0.151228
-0.153674
-0.155242
-0.15658
-0.15773
-0.159045
-0.160638
-0.162021
-0.163145
-0.164116
-0.144392
-0.140832
-0.137526
-0.0130424
-0.0129681
-0.0126093
-0.0125374
-0.0121095
-0.0114981
-0.0119887
-0.0124601
-0.0123629
-0.0128977
-0.0127903
-0.0112929
-0.0101752
-0.0095668
-0.00920602
-0.00886651
-0.00853478
-0.00821739
-0.00791218
-0.00763904
-0.00739353
-0.00716689
-0.00695492
-0.006724
0.377342
0.451085
0.506747
0.427716
0.379302
-0.20271
-0.221896
0.135386
-0.521316
-0.465411
-0.436664
-0.347309
-0.424406
-0.311523
-0.301569
-0.292517
-0.282827
-0.273073
-0.263147
-0.252739
-0.241508
-0.22989
-0.218381
-0.207207
-0.196488
-0.186364
-0.177035
-0.168711
-0.161512
-0.155392
-0.15015
-0.145575
-0.141466
-0.137719
-0.143994
-0.146672
-0.148821
-0.150586
-0.151678
-0.152589
-0.154194
-0.155036
-0.156462
-0.157512
-0.158695
-0.14051
-0.137281
-0.134259
-0.0126599
-0.012588
-0.0122378
-0.0121751
-0.0117441
-0.0116925
-0.0115759
-0.0121162
-0.0120448
-0.0125216
-0.0124247
-0.0103894
-0.00969102
-0.00933008
-0.00896941
-0.00861778
-0.00828186
-0.00794478
-0.00763605
-0.00736742
-0.00712568
-0.00690616
-0.00669649
0.539876
0.554854
0.50396
0.460385
0.568453
0.515193
0.123368
-0.452529
-0.168112
-0.546563
-0.438623
-0.529358
-0.372066
-0.315279
-0.348304
-0.425342
-0.304281
-0.293348
-0.282705
-0.27265
-0.262893
-0.252946
-0.242085
-0.230765
-0.219532
-0.208603
-0.198069
-0.188029
-0.178632
-0.170068
-0.162508
-0.15602
-0.150504
-0.145776
-0.141616
-0.137873
-0.134441
-0.140123
-0.142721
-0.144607
-0.146421
-0.148396
-0.150036
-0.151529
-0.152233
-0.154303
-0.136977
-0.134031
-0.131253
-0.0122882
-0.012225
-0.0119094
-0.0118478
-0.0114243
-0.0106411
-0.0121445
-0.0117105
-0.0116526
-0.0121704
-0.0120974
-0.00983632
-0.00948336
-0.00909808
-0.00872908
-0.00838461
-0.00801965
-0.00766727
-0.00736334
-0.00709809
-0.00686618
-0.00665104
0.643324
0.614668
0.673855
0.665515
0.377335
0.205164
-0.551265
-0.463347
-0.554336
-0.440197
-0.375894
-0.326562
-0.305947
-0.31329
-0.351584
-0.420104
-0.434052
-0.294367
-0.282889
-0.272371
-0.26266
-0.253181
-0.242638
-0.231568
-0.220587
-0.209892
-0.199552
-0.189634
-0.180255
-0.171567
-0.163734
-0.156885
-0.151032
-0.146065
-0.141785
-0.138006
-0.134584
-0.131425
-0.13661
-0.138881
-0.140714
-0.14262
-0.144273
-0.145731
-0.146818
-0.148749
-0.14769
-0.150136
-0.151392
-0.152099
-0.154102
-0.133751
-0.13104
-0.128476
-0.0119729
-0.0119106
-0.0114722
-0.0114362
-0.0109912
-0.0100363
-0.0105859
-0.0110884
-0.0130688
-0.0117836
-0.011719
-0.00965654
-0.00924673
-0.0088605
-0.00851963
-0.00813941
-0.00773665
-0.00738873
-0.00709329
-0.00684087
-0.00661345
-0.464829
-0.445266
-0.387254
-0.370939
-0.328332
-0.309906
-0.294864
-0.303934
-0.313658
-0.346854
-0.358667
-0.424185
-0.436239
-0.283539
-0.272278
-0.262475
-0.253483
-0.243193
-0.232315
-0.22156
-0.211087
-0.200938
-0.191155
-0.181837
-0.173112
-0.165112
-0.15797
-0.151772
-0.1465
-0.14202
-0.138146
-0.1347
-0.131558
-0.128642
-0.133424
-0.13548
-0.137141
-0.138672
-0.140372
-0.141568
-0.143332
-0.144468
-0.143452
-0.130784
-0.128268
-0.12593
-0.0116098
-0.0115327
-0.0106253
-0.0108708
-0.0103968
-0.0098491
-0.0101793
-0.0108217
-0.0107018
-0.011067
-0.0139063
-0.00940978
-0.00900109
-0.00867712
-0.00830453
-0.00784635
-0.00744866
-0.00711763
-0.00683438
-0.00658586
-0.386692
-0.372435
-0.33357
-0.325167
-0.311135
-0.298474
-0.284565
-0.291007
-0.304689
-0.309663
-0.319587
-0.347774
-0.358418
-0.272495
-0.262374
-0.25391
-0.243775
-0.23302
-0.222462
-0.212197
-0.202238
-0.19259
-0.183347
-0.174633
-0.166552
-0.159212
-0.152715
-0.147117
-0.142371
-0.138332
-0.134814
-0.131664
-0.128769
-0.126087
-0.130504
-0.132355
-0.133957
-0.135275
-0.136866
-0.138088
-0.138975
-0.140582
-0.139717
-0.141376
-0.143249
-0.128012
-0.125735
-0.123554
-0.0105732
-0.010431
-0.0100852
-0.00959095
-0.00993658
-0.0103392
-0.0102288
-0.00912723
-0.00885736
-0.00849733
-0.00799786
-0.0075441
-0.00717481
-0.006858
-0.0065802
-0.333011
-0.3259
-0.313809
-0.309548
-0.299136
-0.285536
-0.273155
-0.297224
-0.303716
-0.306582
-0.307948
-0.321858
-0.262391
-0.254527
-0.24441
-0.233699
-0.223302
-0.213231
-0.203462
-0.193946
-0.184778
-0.176093
-0.167984
-0.160528
-0.153811
-0.147918
-0.142873
-0.138606
-0.134957
-0.131759
-0.128867
-0.126206
-0.123706
-0.127677
-0.129562
-0.130974
-0.132172
-0.133775
-0.134686
-0.135503
-0.137095
-0.136266
-0.137992
-0.138842
-0.140403
-0.139638
-0.125501
-0.123365
-0.121351
-0.0101761
-0.0101149
-0.00982135
-0.0092386
-0.00966479
-0.0100572
-0.00997423
-0.00903422
-0.0087042
-0.00818478
-0.00767288
-0.00726406
-0.00691717
-0.00660333
-0.316273
-0.309681
-0.300643
-0.298312
-0.289452
-0.274286
-0.283347
-0.262478
-0.29283
-0.296973
-0.304073
-0.306801
-0.306861
-0.255392
-0.245114
-0.234365
-0.22409
-0.214187
-0.20462
-0.195236
-0.186135
-0.17748
-0.169367
-0.161849
-0.154988
-0.148862
-0.143533
-0.138998
-0.13516
-0.131865
-0.128946
-0.126293
-0.123822
-0.121498
-0.127221
-0.12524
-0.128989
-0.130766
-0.131652
-0.132398
-0.133795
-0.133395
-0.134546
-0.135363
-0.136931
-0.136169
-0.123137
-0.121168
-0.1193
-0.00991353
-0.00985562
-0.00950734
-0.00897818
-0.00932491
-0.00979183
-0.00970533
-0.00919002
-0.00834621
-0.00783574
-0.00737893
-0.00701121
-0.00666049
-0.315857
-0.309719
-0.300894
-0.29856
-0.296827
-0.291111
-0.288
-0.277785
-0.262707
-0.272761
-0.285571
-0.282344
-0.256478
-0.296429
-0.304404
-0.306931
-0.245892
-0.235045
-0.224832
-0.215062
-0.205713
-0.196466
-0.187425
-0.178797
-0.170686
-0.163133
-0.156181
-0.149889
-0.144321
-0.139518
-0.13545
-0.132005
-0.12902
-0.126355
-0.123906
-0.121611
-0.119442
-0.124971
-0.126373
-0.127645
-0.122863
-0.128986
-0.130983
-0.130396
-0.13155
-0.132078
-0.133493
-0.133596
-0.120946
-0.119127
-0.117375
-0.00962154
-0.00954791
-0.00915408
-0.0104659
-0.00906071
-0.00802847
-0.00946654
-0.00936869
-0.00848545
-0.00955644
-0.00801293
-0.00752136
-0.0071304
-0.00675523
-0.301094
-0.298903
-0.295598
-0.278981
-0.276664
-0.264504
-0.257581
-0.263128
-0.275019
-0.272295
-0.246718
-0.296526
-0.23577
-0.225546
-0.215837
-0.206738
-0.197638
-0.188652
-0.180047
-0.171938
-0.16436
-0.157347
-0.15094
-0.145188
-0.140146
-0.135837
-0.1322
-0.129105
-0.1264
-0.123959
-0.12169
-0.119552
-0.117514
-0.122536
-0.124009
-0.125414
-0.125921
-0.126569
-0.127168
-0.127821
-0.120682
-0.128608
-0.129298
-0.129784
-0.130806
-0.131486
-0.13192
-0.13358
-0.118923
-0.117207
-0.115573
-0.00927407
-0.00920451
-0.00977242
-0.00811608
-0.00918592
-0.00917394
-0.00935082
-0.00914307
-0.00892508
-0.00817285
-0.00862365
-0.00768762
-0.00726366
-0.00688151
-0.268877
-0.261596
-0.260084
-0.247537
-0.255914
-0.265551
-0.262687
-0.236546
-0.226277
-0.216507
-0.207684
-0.198741
-0.189812
-0.181232
-0.173126
-0.165527
-0.158465
-0.151972
-0.146083
-0.140845
-0.136306
-0.132457
-0.129213
-0.126436
-0.123982
-0.121733
-0.119627
-0.117622
-0.115708
-0.120375
-0.121745
-0.122833
-0.123569
-0.124086
-0.125217
-0.125255
-0.118698
-0.129921
-0.130688
-0.11701
-0.11541
-0.113878
-0.00935469
-0.00883014
-0.00944067
-0.00913817
-0.00940438
-0.00843615
-0.00785373
-0.00825234
-0.00879409
-0.00740352
-0.00702615
-0.260235
-0.260931
-0.259412
-0.250596
-0.237325
-0.245668
-0.257498
-0.255063
-0.266088
-0.262592
-0.227078
-0.217076
-0.208549
-0.199756
-0.190886
-0.182344
-0.174251
-0.166633
-0.159528
-0.152965
-0.146966
-0.14157
-0.136828
-0.132766
-0.129347
-0.126465
-0.123975
-0.121737
-0.119664
-0.117696
-0.115815
-0.114012
-0.118462
-0.119634
-0.120663
-0.121381
-0.121928
-0.122402
-0.122948
-0.123562
-0.123949
-0.125239
-0.116781
-0.115217
-0.113716
-0.112284
-0.00948563
-0.00936993
-0.00927793
-0.00948936
-0.009166
-0.00855629
-0.00806613
-0.00755114
-0.00791785
-0.00835423
-0.00884249
-0.00897949
-0.00716762
-0.260868
-0.259537
-0.251922
-0.249666
-0.240404
-0.227925
-0.235532
-0.247466
-0.244794
-0.257841
-0.255558
-0.217568
-0.209343
-0.200667
-0.191851
-0.183365
-0.175303
-0.167675
-0.160534
-0.153911
-0.14782
-0.142288
-0.137369
-0.133106
-0.1295
-0.126484
-0.123931
-0.121692
-0.119651
-0.117728
-0.115888
-0.114118
-0.112415
-0.116513
-0.117796
-0.118686
-0.119275
-0.119786
-0.120266
-0.120781
-0.121337
-0.121871
-0.122304
-0.122792
-0.114989
-0.113526
-0.11213
-0.110772
-0.00950469
-0.00935176
-0.00955093
-0.00922955
-0.0087034
-0.00858589
-0.00816311
-0.00774144
-0.00729414
-0.00763017
-0.00800664
-0.00837717
-0.00847892
-0.00890571
-0.00905361
-0.251808
-0.249797
-0.241721
-0.239411
-0.230784
-0.21805
-0.226164
-0.237251
-0.234685
-0.247787
-0.245285
-0.210078
-0.20147
-0.192687
-0.184277
-0.176265
-0.168644
-0.161479
-0.154807
-0.148636
-0.142983
-0.137904
-0.133454
-0.129658
-0.126485
-0.12384
-0.121582
-0.119574
-0.117704
-0.115917
-0.11419
-0.11252
-0.110901
-0.114729
-0.115834
-0.116762
-0.117298
-0.118092
-0.118261
-0.118751
-0.119214
-0.119731
-0.120166
-0.120637
-0.113307
-0.111954
-0.110621
-0.109339
-0.00942929
-0.0093044
-0.00876211
-0.00863698
-0.00827645
-0.0081878
-0.00783914
-0.00745803
-0.00737361
-0.00771056
-0.00803511
-0.00810731
-0.00842625
-0.00852608
-0.00896802
-0.00911717
-0.241575
-0.239498
-0.231955
-0.229763
-0.221256
-0.210782
-0.215979
-0.227794
-0.225324
-0.23753
-0.235124
-0.202167
-0.1934
-0.18507
-0.177123
-0.169524
-0.162352
-0.155651
-0.149412
-0.143647
-0.138419
-0.133792
-0.129807
-0.126459
-0.123693
-0.121392
-0.119407
-0.117598
-0.115883
-0.114216
-0.112592
-0.111006
-0.109467
-0.113062
-0.114084
-0.115036
-0.115536
-0.115976
-0.116374
-0.116837
-0.117081
-0.118281
-0.11799
-0.118596
-0.111762
-0.110449
-0.10919
-0.107977
-0.00881353
-0.00868362
-0.00832184
-0.00823303
-0.00794188
-0.00787674
-0.00755654
-0.00743396
-0.00774684
-0.00779913
-0.00807899
-0.00815214
-0.00847235
-0.00856588
-0.231801
-0.229824
-0.22264
-0.220345
-0.213283
-0.202748
-0.209235
-0.218367
-0.214302
-0.228022
-0.225733
-0.194017
-0.18575
-0.177871
-0.170301
-0.163135
-0.156432
-0.150149
-0.14428
-0.138907
-0.134112
-0.129937
-0.126403
-0.123486
-0.121106
-0.119122
-0.117377
-0.115753
-0.114173
-0.112617
-0.111079
-0.109572
-0.108104
-0.111559
-0.11246
-0.113261
-0.113903
-0.114864
-0.115159
-0.115485
-0.115918
-0.116287
-0.116694
-0.116993
-0.118317
-0.110253
-0.109021
-0.10783
-0.106679
-0.00836361
-0.00827568
-0.00798949
-0.00791798
-0.0076539
-0.00760722
-0.00748785
-0.00751864
-0.00778653
-0.00784538
-0.00812155
-0.0081891
-0.222468
-0.220548
-0.214763
-0.212433
-0.205082
-0.194558
-0.201046
-0.210509
-0.208402
-0.21963
-0.213718
-0.186337
-0.178524
-0.170976
-0.163816
-0.157136
-0.150843
-0.144882
-0.139368
-0.134408
-0.130049
-0.126318
-0.123222
-0.120719
-0.1187
-0.117006
-0.115486
-0.114022
-0.112567
-0.111104
-0.109646
-0.108209
-0.106805
-0.11003
-0.110963
-0.111804
-0.112291
-0.113097
-0.113655
-0.11424
-0.114063
-0.115004
-0.11542
-0.115841
-0.116233
-0.116616
-0.108827
-0.107664
-0.106538
-0.105439
-0.00803124
-0.00795732
-0.00770467
-0.00764533
-0.00737658
-0.00752514
-0.00757309
-0.00782638
-0.00788351
-0.215825
-0.212483
-0.206118
-0.204201
-0.196977
-0.186854
-0.192682
-0.202322
-0.200247
-0.210717
-0.208651
-0.212905
-0.179094
-0.171574
-0.164394
-0.157751
-0.151486
-0.145452
-0.139805
-0.134682
-0.13014
-0.126209
-0.122913
-0.120245
-0.118137
-0.116455
-0.115033
-0.113711
-0.112397
-0.111048
-0.109671
-0.108285
-0.106911
-0.105563
-0.108607
-0.109485
-0.110215
-0.110813
-0.111756
-0.111973
-0.112384
-0.113196
-0.112795
-0.114385
-0.114921
-0.107477
-0.10638
-0.105299
-0.104253
-0.00774818
-0.0076804
-0.00744337
-0.00756396
-0.00761355
-0.215562
-0.212474
-0.206101
-0.204273
-0.198026
-0.196091
-0.189049
-0.179577
-0.185337
-0.193971
-0.191044
-0.202514
-0.200524
-0.210774
-0.208829
-0.172125
-0.164884
-0.158273
-0.152076