/*--------------------------------*- C++ -*----------------------------------*\
| =========                 |                                                 |
| \\      /  F ield         | OpenFOAM: The Open Source CFD Toolbox           |
|  \\    /   O peration     | Version:  v1912                                 |
|   \\  /    A nd           | Website:  www.openfoam.com                      |
|    \\/     M anipulation  |                                                 |
\*---------------------------------------------------------------------------*/
FoamFile
{
    version     2.0;
    format      ascii;
    class       volVectorField;
    location    "360";
    object      U;
}
// * * * * * * * * * * * * * * * * * * * * * * * * * * * * * * * * * * * * * //

dimensions      [0 1 -1 0 0 0 0];


internalField   nonuniform List<vector> 
3753
(
(0.44031 -0.0538322 -7.69253e-21)
(0.790284 -0.0841653 2.37831e-20)
(0.121638 -0.0463007 -1.12e-20)
(0.927949 -0.0767508 1.15493e-20)
(0.440322 -0.104463 1.24729e-20)
(0.0873464 -0.0395116 0)
(0.977377 -0.0639542 -2.79051e-20)
(0.68886 -0.139939 1.86523e-24)
(0.294937 -0.111458 -1.28306e-24)
(0.0895579 -0.0391247 0)
(0.991513 -0.0551639 -1.11901e-24)
(0.841767 -0.15412 -3.04116e-20)
(0.515142 -0.169458 3.48369e-25)
(0.269392 -0.116043 0)
(0.0966519 -0.0398376 -2.00768e-20)
(0.993803 -0.0494987 -6.04766e-20)
(0.921727 -0.156125 2.89489e-20)
(0.69811 -0.209435 -3.72409e-20)
(0.454228 -0.185579 -3.67557e-20)
(0.276911 -0.116602 0)
(0.0959356 -0.0394927 -1.3346e-20)
(0.993303 -0.0452066 1.32049e-19)
(0.95782 -0.152567 0)
(0.82262 -0.232389 8.13239e-20)
(0.626992 -0.242493 3.37077e-20)
(0.449256 -0.186942 -3.66803e-24)
(0.277539 -0.114685 1.69549e-20)
(0.0940608 -0.0390849 -1.6987e-20)
(0.992706 -0.0414292 -7.17467e-20)
(0.971417 -0.146794 -6.76091e-20)
(0.894613 -0.243069 -4.4938e-20)
(0.76422 -0.284128 -4.48783e-20)
(0.610775 -0.248171 0)
(0.4479 -0.183334 1.68009e-20)
(0.274011 -0.113533 1.09832e-20)
(0.093145 -0.0386179 0)
(0.99248 -0.037704 -1.00487e-23)
(0.97483 -0.140114 6.76704e-20)
(0.930109 -0.246413 0)
(0.857224 -0.312087 4.32285e-20)
(0.748934 -0.297163 -3.9031e-24)
(0.604459 -0.243994 -1.53711e-20)
(0.443401 -0.181397 -1.71599e-24)
(0.271333 -0.112267 5.5802e-21)
(0.0915437 -0.0379275 0)
(0.992527 -0.0337216 1.00188e-19)
(0.973973 -0.132717 -9.52398e-20)
(0.943862 -0.245855 -1.03435e-23)
(0.91196 -0.330589 6.67752e-20)
(0.853409 -0.333238 6.69618e-24)
(0.740767 -0.294368 0)
(0.598037 -0.241519 0)
(0.439592 -0.179449 8.17485e-22)
(0.267876 -0.110384 2.55537e-25)
(0.0894174 -0.0371471 0)
(0.9927 -0.0292845 7.28017e-21)
(0.971208 -0.124281 2.04585e-19)
(0.945529 -0.243179 1.1071e-19)
(0.939955 -0.34413 1.57557e-20)
(0.924126 -0.358694 0)
(0.849316 -0.333165 -2.3118e-24)
(0.732899 -0.292233 -1.02117e-24)
(0.59346 -0.239105 -1.11953e-20)
(0.435122 -0.176742 -3.30853e-25)
(0.263267 -0.108339 -5.43317e-21)
(0.0873426 -0.0363619 8.21318e-21)
(0.992937 -0.0242646 -1.08716e-19)
(0.967278 -0.114291 -1.09202e-19)
(0.940076 -0.238961 -1.12008e-19)
(0.951452 -0.356174 -1.7662e-19)
(0.968732 -0.377248 -4.79264e-24)
(0.927991 -0.361403 0)
(0.842654 -0.332317 0)
(0.728033 -0.289834 5.46761e-21)
(0.588664 -0.235877 -6.18047e-22)
(0.429305 -0.173911 6.43366e-22)
(0.258394 -0.106309 -1.01162e-20)
(0.0853435 -0.0355854 1.08148e-20)
(0.993258 -0.0185848 0)
(0.962351 -0.102135 0)
(0.929443 -0.233038 -6.91378e-23)
(0.952813 -0.368904 2.09099e-19)
(0.996544 -0.392313 2.88718e-20)
(0.981345 -0.381812 4.78126e-24)
(0.925015 -0.362161 -2.06829e-24)
(0.83888 -0.330511 -8.18264e-25)
(0.723514 -0.28646 -2.74472e-22)
(0.582563 -0.232602 3.78624e-21)
(0.422916 -0.171124 -7.70179e-21)
(0.253545 -0.104287 -1.32478e-20)
(0.0834175 -0.034844 0)
(0.993749 -0.0122119 0)
(0.956451 -0.0871318 1.44376e-19)
(0.914046 -0.224888 1.82173e-19)
(0.947026 -0.383531 -1.11053e-19)
(1.01457 -0.406155 -2.81276e-20)
(1.01683 -0.397327 2.04354e-24)
(0.98266 -0.383674 2.0801e-24)
(0.923851 -0.361177 2.07245e-24)
(0.835468 -0.327403 -1.22281e-22)
(0.717827 -0.283044 2.78992e-21)
(0.575737 -0.22942 6.95081e-21)
(0.416351 -0.168334 1.4469e-24)
(0.248781 -0.102344 1.5112e-20)
(0.0816081 -0.0341367 -3.71406e-24)
(0.994529 -0.00517647 6.26368e-20)
(0.949626 -0.0685704 -6.7357e-20)
(0.893871 -0.213723 2.57707e-20)
(0.934632 -0.400545 3.27693e-23)
(1.02633 -0.419605 3.58965e-23)
(1.04049 -0.409866 9.89439e-21)
(1.02109 -0.399076 -1.1366e-20)
(0.984405 -0.383066 -1.27302e-24)
(0.922302 -0.358501 5.4042e-24)
(0.830772 -0.324101 -2.60747e-21)
(0.71136 -0.27973 5.70973e-21)
(0.568525 -0.226232 0)
(0.409759 -0.165642 -2.61177e-20)
(0.244206 -0.100473 -8.40399e-24)
(0.0798747 -0.0334524 1.59912e-20)
(0.995679 0.00238066 -1.25149e-19)
(0.942217 -0.0458475 2.76188e-21)
(0.869091 -0.197995 -2.13042e-19)
(0.913362 -0.419949 0)
(1.03122 -0.431139 4.05288e-23)
(1.05405 -0.419414 -9.69019e-21)
(1.04451 -0.409402 1.11193e-20)
(1.02412 -0.397605 -2.07541e-24)
(0.984467 -0.38043 8.31083e-22)
(0.918866 -0.355342 0)
(0.825141 -0.320795 -5.33059e-21)
(0.70431 -0.276384 -3.94254e-24)
(0.561086 -0.223148 1.15099e-20)
(0.403293 -0.163014 -3.40909e-24)
(0.239772 -0.0986418 4.44129e-24)
(0.0782142 -0.0328029 1.69093e-20)
(0.997115 0.00999694 6.23896e-20)
(0.935671 -0.0184988 -7.70258e-20)
(0.839655 -0.174048 4.41547e-22)
(0.875174 -0.438853 0)
(1.02149 -0.43556 2.02979e-20)
(1.05188 -0.422317 6.0696e-21)
(1.05163 -0.413074 1.05936e-20)
(1.04482 -0.404846 7.05372e-25)
(1.02372 -0.393859 2.10307e-25)
(0.981611 -0.376954 2.33987e-21)
(0.914056 -0.351934 4.88218e-21)
(0.818667 -0.317369 -7.42692e-21)
(0.696793 -0.273141 4.85764e-24)
(0.553626 -0.220096 -6.23523e-24)
(0.396943 -0.160398 -1.59018e-20)
(0.235465 -0.0968913 4.91273e-24)
(0.0766728 -0.0321956 0)
(0.998789 0.0169686 -5.91546e-20)
(0.934015 0.0132441 3.04659e-21)
(0.803583 -0.134158 -9.49288e-22)
(0.801238 -0.440401 -1.20549e-19)
(0.974264 -0.424416 -2.05999e-20)
(1.01607 -0.408764 -2.37898e-21)
(1.03176 -0.404323 -1.06317e-20)
(1.0422 -0.401919 4.67215e-21)
(1.03957 -0.397982 -9.81177e-25)
(1.01912 -0.388927 -2.28197e-21)
(0.976666 -0.372897 -4.69633e-21)
(0.907971 -0.348235 7.03744e-21)
(0.81142 -0.314023 0)
(0.689056 -0.269882 -1.13952e-20)
(0.546156 -0.216991 1.41941e-20)
(0.390679 -0.157866 -4.05405e-24)
(0.231362 -0.0952474 -1.00313e-23)
(0.0752569 -0.0316315 -4.39818e-24)
(1.00046 0.0226069 5.85562e-20)
(0.94295 0.0414557 -7.13974e-20)
(0.752254 -0.0618395 2.57783e-20)
(0.655497 -0.390357 1.19439e-19)
(0.842223 -0.378966 0)
(0.910646 -0.363149 -3.96852e-21)
(0.962143 -0.372259 0)
(1.00277 -0.382266 -8.69424e-21)
(1.02553 -0.389274 1.70261e-22)
(1.02906 -0.389818 2.75145e-21)
(1.01169 -0.383128 8.69733e-25)
(0.969861 -0.368337 -3.21988e-24)
(0.900704 -0.344583 -4.13515e-24)
(0.803711 -0.310587 2.10264e-20)
(0.681104 -0.266469 3.15127e-24)
(0.53864 -0.213939 7.22218e-24)
(0.384594 -0.155466 0)
(0.227507 -0.0937037 5.1174e-24)
(0.0739383 -0.0311005 1.83106e-20)
(1.00197 0.0265485 0)
(0.952812 0.0643707 1.33946e-19)
(0.820206 0.051845 -4.19541e-20)
(0.827297 0.0729431 0)
(0.50754 -0.349563 2.12407e-21)
(0.384441 -0.261346 1.98845e-20)
(0.636512 -0.0219054 0)
(0.69194 -0.331956 9.56854e-23)
(0.337675 -0.243778 -2.97145e-20)
(0.50941 -0.223129 1.98736e-21)
(0.685417 -0.267197 4.11747e-22)
(0.564669 -0.2117 0)
(0.812265 -0.304041 0)
(0.905421 -0.337167 4.15787e-21)
(0.967962 -0.361697 -7.02718e-22)
(1.00389 -0.376015 -2.77851e-21)
(1.01546 -0.380812 9.29286e-25)
(1.0019 -0.376697 0)
(0.961413 -0.363842 -3.22509e-25)
(0.892705 -0.340756 -9.87957e-21)
(0.79554 -0.306877 0)
(0.672892 -0.263055 -3.16782e-24)
(0.531184 -0.211014 -3.70537e-24)
(0.378768 -0.153183 -1.7868e-20)
(0.223876 -0.0922343 0)
(0.0726899 -0.0305948 1.84838e-20)
(1.00292 0.028754 -4.93873e-20)
(0.9674 0.0807494 -5.08087e-21)
(0.838618 0.100303 0)
(0.854411 0.127254 2.97803e-20)
(0.641054 0.0610585 0)
(0.414104 -0.126619 -1.89503e-21)
(0.167181 -0.192309 -2.5513e-20)
(0.13645 -0.186641 -6.28826e-21)
(0.204695 -0.225029 3.33844e-20)
(0.384069 -0.072805 0)
(0.320643 -0.157267 -3.01958e-21)
(0.13188 -0.0624269 0)
(0.327503 -0.118918 0)
(0.250598 -0.0832369 -8.47559e-24)
(0.439568 -0.160577 -7.21539e-22)
(0.564742 -0.19615 -5.3904e-22)
(0.376174 -0.134061 -1.59848e-25)
(0.732065 -0.261427 1.20232e-21)
(0.850881 -0.309676 -3.47094e-22)
(0.931691 -0.342746 1.15628e-24)
(0.980386 -0.362648 0)
(0.99965 -0.371342 0)
(0.9902 -0.370539 0)
(0.952035 -0.359131 4.58971e-24)
(0.884003 -0.336528 2.53172e-24)
(0.786848 -0.303101 0)
(0.664555 -0.259742 -1.36905e-20)
(0.523908 -0.208195 1.58345e-20)
(0.3732 -0.150978 -8.87834e-24)
(0.220412 -0.0908222 0)
(0.0715064 -0.0301153 0)
(1.0032 0.0292991 3.86811e-21)
(0.984734 0.0900285 -5.7339e-20)
(0.874254 0.151809 -2.86447e-20)
(0.896479 0.168361 -2.40684e-20)
(0.66051 0.128626 0)
(0.68874 0.186511 -4.04341e-20)
(0.372063 0.0429286 0)
(0.371264 -0.0142857 0)
(0.117742 -0.109433 3.03899e-21)
(0.0546128 -0.0991062 0)
(0.0895968 -0.0292177 8.18905e-23)
(0.0778472 -0.0276353 -1.2062e-22)
(0.220801 -0.0740722 0)
(0.132319 -0.0409953 -1.38511e-21)
(0.335792 -0.111923 1.63815e-25)
(0.487123 -0.162525 -1.28904e-21)
(0.316492 -0.102404 7.64775e-22)
(0.183774 -0.0614179 -5.88657e-25)
(0.667001 -0.233447 3.16615e-22)
(0.802275 -0.287329 -3.38041e-25)
(0.896919 -0.32531 6.42208e-21)
(0.956018 -0.349454 7.76207e-21)
(0.98221 -0.362729 0)
(0.977669 -0.364271 -9.40578e-21)
(0.941818 -0.353925 -1.06167e-20)
(0.874519 -0.332182 1.14977e-20)
(0.777808 -0.299397 1.26642e-20)
(0.656254 -0.256515 -1.39821e-20)
(0.51684 -0.205433 0)
(0.367838 -0.148833 -1.81939e-20)
(0.217096 -0.0894713 0)
(0.0703833 -0.0296586 0)
(1.00328 0.0283553 4.62779e-20)
(0.99934 0.0927036 0)
(0.921134 0.182873 2.40796e-20)
(0.944429 0.182653 2.18569e-20)
(0.727953 0.235002 7.24334e-20)
(0.77735 0.265936 -3.21198e-20)
(0.384379 0.102109 0)
(0.403416 0.15973 -1.85125e-20)
(0.455544 0.269598 0)
(0.427104 0.216096 1.77814e-20)
(0.0926436 0.00365886 5.25361e-20)
(0.0998794 -0.0538213 -2.58943e-20)
(0.038704 -0.0112184 1.34751e-21)
(0.0554001 -0.0166532 9.72386e-23)
(0.0496081 -0.0161385 5.60681e-24)
(0.163355 -0.0515574 -9.59976e-23)
(0.289012 -0.094134 -1.54547e-22)
(0.425781 -0.141819 9.27169e-22)
(0.262431 -0.0826497 -8.31956e-23)
(0.195504 -0.0639732 5.99406e-23)
(0.193401 -0.0615899 -8.80149e-23)
(0.0418331 -0.013764 0)
(0.0445408 -0.0141127 0)
(0.616054 -0.212761 -1.62038e-24)
(0.759677 -0.268343 -6.9887e-21)
(0.863884 -0.3089 -8.18848e-21)
(0.931186 -0.338182 -8.4847e-21)
(0.964657 -0.354355 9.45461e-21)
(0.964458 -0.357516 1.04501e-20)
(0.930656 -0.348618 -2.22569e-20)
(0.864487 -0.327904 1.1817e-20)
(0.768635 -0.295759 1.29157e-20)
(0.648053 -0.253308 0)
(0.509945 -0.202707 1.60538e-20)
(0.362655 -0.146755 -1.81645e-20)
(0.213911 -0.0881774 0)
(0.0693255 -0.0292275 1.84064e-20)
(1.0031 0.0263373 1.65218e-22)
(1.0117 0.0913081 1.70718e-22)
(0.9582 0.249406 -3.68201e-20)
(0.828767 0.283651 0)
(0.870913 0.308407 -2.57621e-20)
(0.488884 0.318719 -1.41435e-20)
(0.530527 0.358477 1.27773e-20)
(0.637463 0.423348 1.1949e-20)
(0.581412 0.394352 -9.91807e-21)
(0.0983183 0.0675114 -2.64407e-20)
(0.112581 0.134883 2.44191e-20)
(0.166102 0.269519 4.24292e-20)
(0.134884 0.202775 -4.6884e-20)
(0.0384269 -0.0115597 -4.47698e-23)
(0.0379155 -0.012043 2.59438e-22)
(0.114719 -0.0376265 0)
(0.18387 -0.0589156 1.98541e-22)
(0.175544 -0.0559481 4.82064e-25)
(0.225699 -0.0737432 -2.40086e-22)
(0.386259 -0.127394 -1.697e-21)
(0.209083 -0.0669765 1.73228e-22)
(0.16382 -0.0530716 -4.83262e-23)
(0.145134 -0.0422819 1.80681e-22)
(0.113236 -0.0357159 -4.76083e-23)
(0.573602 -0.196091 1.67159e-24)
(0.721135 -0.250479 2.11545e-24)
(0.832217 -0.295845 9.0097e-21)
(0.90775 -0.327741 -2.2629e-24)
(0.947076 -0.345662 0)
(0.95037 -0.350796 1.10167e-20)
(0.918861 -0.343432 -2.28359e-20)
(0.85419 -0.323705 1.20385e-20)
(0.759439 -0.292112 3.16256e-24)
(0.639941 -0.250099 -1.42185e-20)
(0.503201 -0.200031 1.59926e-20)
(0.357629 -0.144749 0)
(0.210871 -0.086948 2.10199e-20)
(0.0683238 -0.0288137 1.82574e-20)
(1.00256 0.0235989 0)
(1.02071 0.085772 -1.56238e-22)
(1.01347 0.238894 4.22431e-20)
(0.866147 0.563459 -1.90692e-20)
(0.970918 0.574576 9.30369e-21)
(0.694497 0.447855 -6.57391e-22)
(0.742015 0.461398 9.21233e-21)
(0.765494 0.548483 1.8495e-20)
(0.208117 0.32921 -1.95854e-20)
(0.262707 0.375562 4.15338e-22)
(0.404574 0.501925 -2.24265e-20)
(0.317081 0.405071 1.94175e-20)
(0.0370875 -0.0119551 -2.85067e-25)
(0.108221 -0.0341152 0)
(0.102925 -0.0324589 -9.34331e-23)
(0.120086 -0.038967 1.84474e-23)
(0.109218 -0.0348673 0)
(0.19716 -0.0632698 9.98569e-22)
(0.354582 -0.116412 0)
(0.190637 -0.0604014 3.0956e-21)
(0.102526 -0.0325437 0)
(0.0994083 -0.0312398 -4.59555e-22)
(0.094783 -0.0301768 -1.30968e-22)
(0.0660573 -0.0172414 0)
(0.0365667 -0.0114202 8.12065e-23)
(0.53392 -0.17896 0)
(0.685733 -0.237412 0)
(0.804088 -0.284277 0)
(0.885463 -0.317261 0)
(0.92902 -0.337278 0)
(0.935792 -0.344349 1.12915e-20)
(0.906784 -0.338404 -2.32426e-20)
(0.843783 -0.319491 1.22053e-20)
(0.750225 -0.288424 1.311e-20)
(0.631903 -0.246908 -1.41672e-20)
(0.496596 -0.197423 -3.81781e-24)
(0.352783 -0.142826 -1.80069e-20)
(0.207967 -0.0857636 0)
(0.0673553 -0.0284128 0)
(1.00182 0.0204075 3.51204e-20)
(1.02674 0.0778109 0)
(1.04032 0.209159 0)
(1.13964 0.498531 -5.39356e-21)
(0.835173 0.61643 1.07864e-21)
(0.654457 0.511287 -8.46756e-22)
(0.912582 0.483148 -5.70249e-23)
(0.543314 0.570058 2.46912e-22)
(0.617335 0.578998 -9.64619e-21)
(0.529048 0.451265 -5.85281e-23)
(0.470723 0.456908 1.38398e-21)
(0.155617 0.267209 -1.36616e-21)
(0.035093 -0.010898 0)
(0.0334486 -0.0104786 6.32572e-23)
(0.0420809 -0.0138468 0)
(0.0364427 -0.0115814 0)
(0.0963174 -0.0304299 -5.69862e-22)
(0.0949886 -0.0297386 -6.5535e-22)
(0.181761 -0.0583253 0)
(0.314023 -0.101475 1.80379e-21)
(0.172993 -0.054733 4.46908e-22)
(0.093178 -0.0292888 -1.6068e-21)
(0.0921573 -0.0287721 0)
(0.0331554 -0.0103815 4.84347e-25)
(0.0320137 -0.00993282 4.05197e-22)
(0.0307377 -0.0100221 1.59168e-22)
(0.0182458 -0.0047917 -1.95699e-22)
(0.499071 -0.16742 0)
(0.656354 -0.226472 0)
(0.778575 -0.272817 0)
(0.863314 -0.307441 -1.23053e-20)
(0.910904 -0.329411 2.84315e-24)
(0.921119 -0.338235 1.14995e-20)
(0.894626 -0.333406 -2.36054e-20)
(0.833295 -0.31522 -2.98993e-24)
(0.741 -0.284725 1.30449e-20)
(0.623946 -0.243771 3.40548e-24)
(0.490158 -0.194904 7.20132e-26)
(0.348116 -0.140962 9.30711e-26)
(0.205174 -0.0846127 -9.9139e-24)
(0.0664193 -0.0280244 0)
(1.00109 0.0169675 -3.56168e-20)
(1.0306 0.0691276 3.27711e-20)
(1.05061 0.173226 -1.98876e-20)
(1.2597 0.454488 -1.59304e-21)
(0.7898 0.138746 -5.32745e-20)
(1.07459 0.205159 1.4219e-19)
(0.449749 0.268044 -3.486e-21)
(0.28166 0.249377 0)
(0.594265 0.189861 -2.50218e-20)
(0.263197 0.101688 0)
(0.341155 0.445305 1.10425e-21)
(0.412506 0.452269 -1.60227e-21)
(0.031153 -0.00966991 0)
(0.0306894 -0.00947326 0)
(0.0899431 -0.0283978 -9.59999e-22)
(0.088561 -0.0277405 -9.81023e-25)
(0.149701 -0.0465507 5.5328e-22)
(0.283378 -0.091384 1.6615e-21)
(0.122871 -0.0399881 -2.01e-21)
(0.0863459 -0.0273144 0)
(0.0828411 -0.0259715 -5.75044e-22)
(0.030089 -0.00933796 -3.75236e-24)
(0.0297517 -0.00919754 0)
(0.473742 -0.159138 0)
(0.631048 -0.215177 0)
(0.753522 -0.262374 1.32242e-20)
(0.84174 -0.29837 0)
(0.893124 -0.322162 2.85891e-26)
(0.906583 -0.332271 1.17013e-20)
(0.882427 -0.328382 0)
(0.822742 -0.310925 2.99898e-24)
(0.731778 -0.28106 1.2871e-20)
(0.616105 -0.240721 -1.38347e-20)
(0.483906 -0.192446 3.78263e-24)
(0.343605 -0.139134 4.29047e-24)
(0.202453 -0.0834842 2.53402e-25)
(0.0655042 -0.027646 0)
(1.00051 0.0134465 3.19274e-20)
(1.03255 0.0602139 -2.76444e-21)
(1.05422 0.139808 2.06896e-20)
(1.29589 0.395075 1.64032e-21)
(1.18158 0.150731 -8.48809e-20)
(0.221469 0.0073519 -1.31207e-20)
(0.476315 -0.0146654 3.7169e-20)
(0.275775 -0.0264751 -3.29232e-20)
(0.635995 -0.00914286 6.91155e-20)
(0.0291986 -0.00905769 1.10923e-21)
(0.0287016 -0.00886207 0)
(0.0754329 -0.0241051 -6.18226e-22)
(0.053513 -0.0138421 1.13811e-21)
(0.111358 -0.0349311 -3.52108e-21)
(0.267819 -0.0864022 3.5323e-24)
(0.10869 -0.0339451 -1.19695e-21)
(0.0340975 -0.0108118 -2.79161e-22)
(0.0286469 -0.00939269 -6.19761e-22)
(0.0279928 -0.0087317 6.44788e-22)
(0.0267844 -0.00838871 -3.18923e-22)
(0.453439 -0.150503 0)
(0.605166 -0.205239 3.72737e-24)
(0.729563 -0.252697 3.32241e-24)
(0.821118 -0.290287 0)
(0.875919 -0.315244 -5.86707e-24)
(0.892199 -0.326363 1.19207e-20)
(0.870199 -0.323354 0)
(0.812141 -0.306661 -2.42465e-20)
(0.722608 -0.277493 6.02142e-23)
(0.608428 -0.23773 0)
(0.477821 -0.190014 0)
(0.339208 -0.137336 0)
(0.199795 -0.0823859 9.81717e-24)
(0.0646299 -0.0272803 1.72612e-20)
(1.00016 0.00998235 -3.24252e-20)
(1.03274 0.0510432 -3.13474e-20)
(1.05692 0.111077 -3.67102e-24)
(1.28448 0.326514 2.24169e-22)
(1.38344 0.158417 0)
(0.65766 -0.0325409 0)
(0.0709617 -0.0212818 2.14525e-20)
(0.278556 -0.0120793 1.04179e-22)
(0.1227 -0.0115919 -9.19958e-23)
(0.301921 -0.0545627 -1.11629e-19)
(0.0244096 -0.00808673 -4.87812e-24)
(0.0147191 -0.00382406 -8.037e-22)
(0.026354 -0.00817927 1.14443e-25)
(0.0257253 -0.00803465 9.07485e-22)
(0.105563 -0.0333037 1.27757e-21)
(0.304939 -0.101763 -6.57607e-24)
(0.10448 -0.0326205 -1.39227e-21)
(0.207403 -0.0683006 -2.61905e-21)
(0.0255504 -0.00793126 4.54404e-25)
(0.025536 -0.00785556 1.86624e-21)
(0.428715 -0.141221 -2.09769e-21)
(0.300778 -0.0986292 0)
(0.580324 -0.195737 -3.80937e-24)
(0.707298 -0.244406 0)
(0.801707 -0.282751 -1.28483e-20)
(0.859206 -0.308513 -2.44802e-20)
(0.877946 -0.320514 5.75776e-24)
(0.857948 -0.318379 1.17362e-20)
(0.801556 -0.302533 1.19391e-20)
(0.713581 -0.273985 0)
(0.600905 -0.234749 0)
(0.471862 -0.187608 0)
(0.334902 -0.135577 0)
(0.197206 -0.0813103 -1.94894e-20)
(0.0637742 -0.0269267 8.18459e-24)
(1.00001 0.00666886 0)
(1.03162 0.0415727 2.78207e-20)
(1.06036 0.0867367 0)
(1.25395 0.261787 -2.47465e-22)
(1.45537 0.157868 0)
(1.08924 -0.016751 1.56147e-19)
(0.344913 -0.071444 -1.06066e-19)
(0.199681 -0.0113278 1.07736e-19)
(0.020126 -0.00682933 4.67863e-20)
(0.0634255 -0.0247781 9.91476e-20)
(0.0250726 -0.00782516 -1.96199e-21)
(0.0250232 -0.00775142 -1.02773e-21)
(0.128607 -0.0421827 7.23688e-23)
(0.0758781 -0.0247021 3.0827e-21)
(0.0247648 -0.00767793 4.09067e-24)
(0.024766 -0.0076206 1.09655e-21)
(0.200541 -0.0650172 -2.0828e-23)
(0.128427 -0.0407857 1.89563e-21)
(0.289684 -0.0939551 3.4566e-21)
(0.403055 -0.131934 -2.21111e-21)
(0.278637 -0.0898546 3.47864e-21)
(0.558226 -0.187983 0)
(0.687081 -0.236891 1.3972e-20)
(0.78321 -0.275544 1.29764e-20)
(0.842884 -0.301918 -5.96192e-24)
(0.863795 -0.31476 -5.7868e-24)
(0.845741 -0.313624 -1.1544e-20)
(0.791121 -0.298483 -1.1459e-23)
(0.704699 -0.27048 1.22573e-20)
(0.593507 -0.231785 0)
(0.466019 -0.185243 1.44232e-20)
(0.330685 -0.133848 0)
(0.194687 -0.0802731 0)
(0.0629334 -0.0265825 1.669e-20)
(1.00001 0.00354427 -3.03519e-20)
(1.02977 0.0318653 -2.84614e-20)
(1.06382 0.0660188 -1.08437e-20)
(1.22119 0.205197 0)
(1.45343 0.148164 1.63234e-23)
(1.34331 -0.000865868 -1.35878e-19)
(0.763153 -0.0795439 -1.53989e-22)
(0.261594 -0.0599485 0)
(0.128718 -0.0267192 9.15711e-20)
(0.118926 -0.0472255 -1.47087e-21)
(0.0472851 -0.000624229 -8.71955e-20)
(-0.00230425 -0.0102152 -1.43944e-21)
(0.00608747 0.00330292 1.74697e-21)
(0.0757865 -0.0236455 -1.74276e-21)
(0.024691 -0.00789988 -9.93759e-22)
(0.123726 -0.0395254 4.12872e-24)
(0.192608 -0.0615071 -2.09105e-21)
(0.12624 -0.0403991 0)
(0.263793 -0.083721 7.49347e-21)
(0.383032 -0.125235 -2.14525e-21)
(0.25117 -0.0811606 -2.90116e-23)
(0.182173 -0.0581842 1.14611e-23)
(0.539417 -0.181302 -1.97609e-24)
(0.668163 -0.22984 0)
(0.765332 -0.268522 1.33097e-20)
(0.826864 -0.29545 1.18709e-23)
(0.849796 -0.309364 1.15056e-20)
(0.83376 -0.308995 -1.13861e-20)
(0.780848 -0.294438 -1.15592e-20)
(0.695935 -0.266984 5.9431e-24)
(0.586241 -0.228861 -1.28955e-20)
(0.460279 -0.182913 9.71528e-26)
(0.326556 -0.132166 1.59127e-20)
(0.192217 -0.0792663 4.46524e-24)
(0.0621403 -0.0262502 7.86498e-24)
(1.00008 0.000606211 3.08207e-20)
(1.02773 0.0220678 2.67107e-20)
(1.06628 0.0479481 9.03441e-22)
(1.19393 0.156504 -3.54871e-21)
(1.41595 0.12816 -6.11867e-20)
(1.45429 0.00928435 2.87467e-23)
(1.11204 -0.0784656 7.11948e-23)
(0.573579 -0.092339 1.85067e-22)
(0.0718726 -0.0215028 1.26296e-22)
(0.230259 -0.0501129 0)
(0.0457487 -0.0136011 -1.75814e-20)
(0.0194603 -0.0147187 5.65703e-20)
(-0.000406824 0.00937161 5.48105e-20)
(0.0078625 -0.000345401 -2.41017e-20)
(0.0742202 -0.0234015 0)
(0.0246394 -0.00761283 1.1723e-21)
(0.120932 -0.0382793 -4.09238e-24)
(0.0725148 -0.0229235 9.37083e-22)
(0.118147 -0.0373379 -2.0544e-21)
(0.164015 -0.0510098 -3.94942e-21)
(0.242494 -0.077904 -3.5913e-21)
(0.368676 -0.12034 4.41135e-21)
(0.237493 -0.0760457 7.26042e-21)
(0.149934 -0.04775 1.24827e-23)
(0.107638 -0.0341166 0)
(0.113692 -0.0360819 3.96975e-24)
(0.522181 -0.175217 1.82209e-23)
(0.649856 -0.222944 -1.4537e-20)
(0.74791 -0.261559 1.3297e-20)
(0.811157 -0.289538 -5.90643e-24)
(0.836207 -0.304178 1.13578e-20)
(0.822022 -0.304397 5.52512e-24)
(0.770711 -0.290408 -1.1366e-20)
(0.687295 -0.26352 0)
(0.579076 -0.225972 0)
(0.454638 -0.180634 -1.38228e-20)
(0.322508 -0.130533 -1.16339e-25)
(0.189834 -0.0782913 -1.80611e-20)
(0.0613857 -0.0259302 -7.95117e-24)
(1.00016 -0.00216736 0)
(1.02582 0.0123367 -4.0788e-20)
(1.06735 0.0315709 1.061e-20)
(1.17399 0.114866 3.76843e-21)
(1.36865 0.103481 1.02329e-20)
(1.47564 0.0114696 2.34662e-23)
(1.32937 -0.0721972 -8.17809e-23)
(0.913964 -0.109477 -1.28013e-22)
(0.475121 -0.0873119 0)
(0.0724318 -0.0178479 5.39728e-20)
(0.0145538 -0.000354728 -1.8114e-20)
(0.00673852 -0.00901114 -7.41146e-23)
(0.204971 -0.0432271 -2.03673e-19)
(0.015847 -0.00242338 8.7468e-23)
(0.0115903 -0.00683507 -1.59688e-22)
(-0.0106492 -0.00434722 2.56758e-20)
(0.00196969 -0.000117111 0)
(-0.00728926 0.00233791 -1.30483e-20)
(0.000326676 0.000250689 -9.29065e-22)
(0.0240441 -0.00745198 -5.89075e-24)
(0.070863 -0.0222203 3.40882e-24)
(0.0234201 -0.0072994 -1.88114e-21)
(0.0692876 -0.0217402 8.68547e-22)
(0.0946402 -0.0273972 1.82395e-23)
(0.0812123 -0.0263929 1.11552e-21)
(0.143821 -0.0454535 -1.53271e-21)
(0.232638 -0.0744427 -7.33464e-21)
(0.356065 -0.116184 -1.88585e-23)
(0.229246 -0.0733432 7.50412e-21)
(0.140747 -0.0443311 -1.54299e-21)
(0.070884 -0.0224146 2.50808e-23)
(0.0744162 -0.0235496 -1.1039e-21)
(0.0617987 -0.0194717 0)
(0.0662718 -0.0208891 8.78482e-22)
(0.505033 -0.169139 -8.14517e-24)
(0.63182 -0.215775 -1.45434e-20)
(0.730941 -0.255411 1.279e-20)
(0.796175 -0.283941 0)
(0.823025 -0.299074 1.13267e-20)
(0.810476 -0.299837 1.10274e-20)
(0.760711 -0.286417 -2.67544e-24)
(0.678776 -0.2601 1.14902e-20)
(0.572015 -0.223135 1.22175e-20)
(0.449088 -0.178418 0)
(0.31857 -0.128951 1.52106e-20)
(0.18754 -0.0773414 0)
(0.0606163 -0.0256102 0)
(1.00023 -0.00480062 -4.59482e-25)
(1.02417 0.00279069 2.74922e-20)
(1.06724 0.0161958 0)
(1.16009 0.0791529 5.95638e-21)
(1.32532 0.0781372 1.05979e-19)
(1.45249 0.00779851 -2.43034e-23)
(1.42961 -0.0652245 -9.8911e-20)
(1.18294 -0.113396 5.92245e-23)
(0.774633 -0.115386 1.4408e-22)
(0.413918 -0.0779902 0)
(0.0661129 -0.0153738 2.03875e-19)
(0.0173137 -8.04197e-07 -8.4206e-20)
(0.0160921 -0.00801482 1.66691e-20)
(0.00250778 0.00193488 1.19108e-20)
(0.000921159 -0.00022988 2.1128e-20)
(-6.22983e-05 -2.04722e-06 1.4197e-20)
(-0.00124761 -0.00242713 -1.29507e-20)
(0.00314621 -2.84336e-05 1.46793e-22)
(0.184981 -0.0384048 0)
(0.000785909 0.00112564 1.62727e-20)
(-0.00943997 0.000866466 1.49642e-20)
(-0.00292502 0.00185748 0)
(0.0228868 -0.00710893 1.21575e-21)
(0.0224867 -0.0069941 1.19219e-21)
(0.0429328 -0.0108791 5.27558e-22)
(0.028009 -0.00930005 3.25755e-22)
(0.0691609 -0.021637 -8.25562e-24)
(0.0683663 -0.021378 2.11416e-21)
(0.138301 -0.0435657 0)
(0.225113 -0.0720811 -1.49949e-20)
(0.34223 -0.111697 3.61653e-23)
(0.221526 -0.0709129 1.51479e-20)
(0.136314 -0.0429525 -4.62497e-21)
(0.0673953 -0.021038 -2.14472e-21)
(0.0677275 -0.0211381 2.13003e-21)
(0.0227924 -0.00714701 -4.89177e-24)
(0.0245931 -0.00784469 7.50695e-22)
(0.019913 -0.00654841 -7.65893e-23)
(0.021378 -0.00673934 -1.17328e-21)
(0.487023 -0.162032 -2.45918e-23)
(0.614246 -0.209749 -1.40614e-20)
(0.715191 -0.249699 1.86045e-23)
(0.781861 -0.278503 -1.16822e-20)
(0.810141 -0.294052 0)
(0.799122 -0.295341 0)
(0.750869 -0.282479 -1.08326e-20)
(0.670366 -0.256734 -1.12008e-20)
(0.565052 -0.220377 0)
(0.443678 -0.176274 0)
(0.314746 -0.127402 0)
(0.185267 -0.0764062 0)
(0.0598748 -0.0252985 -7.37312e-24)
(1.00027 -0.00731043 0)
(1.02277 -0.00650348 -1.40765e-20)
(1.06635 0.00141341 0)
(1.15022 0.0479888 -6.26679e-21)
(1.29079 0.053354 -6.2354e-21)
(1.41444 0.00061988 8.02496e-20)
(1.45302 -0.0604894 5.8097e-21)
(1.34535 -0.109709 5.20088e-23)
(1.05277 -0.129741 5.46026e-23)
(0.676396 -0.110007 0)
(0.369889 -0.0698578 -1.52888e-22)
(0.0611205 -0.0138783 4.68449e-20)
(0.0170531 0.000396133 0)
(0.0146392 -0.00711715 0)
(0.00304706 0.00131378 6.90156e-23)
(0.00332352 -0.00113099 1.97358e-20)
(0.00438295 -0.000563641 -1.89899e-20)
(0.00353025 -0.00236741 0)
(0.000297768 0.000314019 0)
(-0.00115964 -0.000231997 -1.65089e-21)
(0.16819 -0.0340184 0)
(-0.000237781 0.000361703 7.12762e-22)
(0.0118693 -0.0030188 -3.03848e-22)
(0.0221636 -0.00688297 -1.22478e-21)
(0.0219168 -0.00679988 1.22853e-21)
(0.0667454 -0.0208369 -2.13611e-21)
(0.0664972 -0.0207589 0)
(0.134231 -0.0423077 6.18694e-21)
(0.216436 -0.0694459 0)
(0.323781 -0.104741 -3.69674e-23)
(0.210538 -0.0675224 3.81838e-21)
(0.132108 -0.0416565 -6.26107e-21)
(0.0657464 -0.0205273 -8.46334e-24)
(0.0659912 -0.0206139 -2.14404e-21)
(0.021622 -0.00670213 2.47482e-21)
(0.0217368 -0.00673626 1.23763e-21)
(0.469275 -0.156352 1.65167e-23)
(0.59871 -0.204298 -1.38774e-23)
(0.700479 -0.244251 -1.27577e-20)
(0.768007 -0.273212 -2.80496e-24)
(0.797541 -0.289132 -1.09855e-20)
(0.787981 -0.290913 0)
(0.741159 -0.278603 0)
(0.662069 -0.253463 0)
(0.558227 -0.217701 2.78026e-24)
(0.43839 -0.174168 6.10499e-24)
(0.311006 -0.125885 0)
(0.183065 -0.0754929 4.0303e-24)
(0.059164 -0.0249969 1.46562e-23)
(1.00027 -0.00970456 0)
(1.02157 -0.0155197 0)
(1.06505 -0.0129988 6.41285e-21)
(1.14291 0.0201192 0)
(1.26505 0.0293394 -6.89886e-20)
(1.37714 -0.00881166 -7.37765e-21)
(1.43767 -0.0586558 9.41431e-20)
(1.41625 -0.103639 0)
(1.25264 -0.132875 -4.83017e-23)
(0.944288 -0.131614 -5.90844e-23)
(0.604178 -0.101777 -1.26629e-22)
(0.335071 -0.0627077 1.58653e-22)
(0.0557545 -0.0118234 1.13462e-21)
(0.015578 0.000197854 -5.8545e-22)
(0.0139919 -0.00661145 0)
(-0.00037764 0.00128302 -1.27002e-20)
(0.00343022 -0.000290847 -1.7336e-23)
(0.00214388 -0.00255279 0)
(-0.00123676 0.00117337 1.35457e-20)
(-0.000275437 -7.06865e-05 -1.1534e-20)
(0.000383287 4.12656e-05 -1.04771e-20)
(-7.47012e-06 -0.000591821 0)
(0.153162 -0.029618 -1.73926e-19)
(0.0214545 -0.00664911 -2.59387e-24)
(0.0213642 -0.00662216 1.2496e-21)
(0.065134 -0.0203422 -8.48129e-24)
(0.0648849 -0.0202574 1.70571e-23)
(0.129406 -0.0408488 6.13226e-23)
(0.201277 -0.0646954 7.70743e-24)
(0.304758 -0.0989621 -2.29864e-21)
(0.189008 -0.0592704 4.26874e-21)
(0.125499 -0.0397099 -4.74319e-21)
(0.0640648 -0.0200057 2.20878e-21)
(0.0643692 -0.0201176 -8.54977e-24)
(0.021125 -0.00654733 1.27146e-21)
(0.0212239 -0.00658048 6.14648e-25)
(0.455161 -0.151491 1.59718e-23)
(0.584751 -0.199277 1.40922e-20)
(0.686412 -0.239018 0)
(0.75453 -0.26806 1.13674e-20)
(0.785233 -0.2843 -2.57713e-24)
(0.777022 -0.286556 4.95044e-24)
(0.731569 -0.274843 0)
(0.653906 -0.250295 0)
(0.551552 -0.21508 -2.78761e-24)
(0.43322 -0.172098 -6.12438e-24)
(0.307367 -0.124396 0)
(0.180926 -0.0745982 -4.05297e-24)
(0.0584608 -0.0247035 -1.43217e-23)
(1.00022 -0.011978 0)
(1.02051 -0.0242454 0)
(1.06352 -0.0271703 -6.62079e-21)
(1.1374 -0.00549022 -7.16681e-26)
(1.24642 0.00605919 2.23959e-20)
(1.34661 -0.0197519 -7.90579e-20)
(1.40947 -0.0593652 0)
(1.4291 -0.0981403 -2.19631e-23)
(1.36322 -0.12954 0)
(1.162 -0.141468 3.92208e-24)
(0.856004 -0.126966 0)
(0.547908 -0.0932118 1.3267e-22)
(0.30565 -0.0560402 1.49889e-19)
(0.0501448 -0.00950869 1.71473e-19)
(0.0128668 0.000926729 1.26387e-19)
(0.0123041 -0.00517656 -6.43e-20)
(-0.000977106 0.00155554 -5.93274e-20)
(-0.00175522 -0.000285121 1.29421e-20)
(-0.00169329 0.00121891 1.18142e-20)
(-0.000303231 0.000507318 9.94648e-23)
(-0.00133157 -0.000121639 -8.28605e-23)
(-0.00152986 0.00113011 -9.68389e-23)
(0.139919 -0.0256211 0)
(0.0209632 -0.00649699 -2.4055e-24)
(0.0208662 -0.00646676 -7.81016e-26)
(0.0634058 -0.019818 0)
(0.062955 -0.0196643 0)
(0.118293 -0.037667 7.72793e-22)
(0.176207 -0.0561611 3.79183e-21)
(0.293726 -0.0950114 4.67752e-21)
(0.170979 -0.0545935 -3.82434e-21)
(0.100144 -0.0306926 -4.54969e-21)
(0.0610614 -0.0191264 0)
(0.0621704 -0.0194761 2.17785e-21)
(0.0206093 -0.00638651 2.60297e-24)
(0.0207259 -0.00642762 0)
(0.443342 -0.147382 -2.42125e-23)
(0.571654 -0.19455 1.42414e-20)
(0.672779 -0.233953 0)
(0.741389 -0.263002 0)
(0.773161 -0.279535 2.58569e-24)
(0.766217 -0.282348 -4.96493e-24)
(0.722147 -0.271226 4.77877e-24)
(0.645916 -0.247196 0)
(0.545013 -0.212494 0)
(0.428168 -0.170059 5.7639e-24)
(0.303793 -0.122925 0)
(0.178827 -0.0737291 0)
(0.057773 -0.0244152 7.10954e-24)
(1.00012 -0.0141171 -2.32683e-24)
(1.0195 -0.0326714 -1.61267e-24)
(1.06182 -0.0411823 8.52856e-21)
(1.13332 -0.0296971 0)
(1.23335 -0.0166818 6.86553e-24)
(1.32376 -0.0317384 0)
(1.3819 -0.0620472 4.23649e-20)
(1.41458 -0.0943156 2.16565e-23)
(1.40486 -0.123809 2.27616e-23)
(1.30211 -0.142428 -9.24792e-20)
(1.079 -0.14175 9.6462e-23)
(0.783684 -0.119689 -1.10083e-19)
(0.501405 -0.0848402 -2.52266e-19)
(0.280057 -0.0498948 0)
(0.0455422 -0.00729194 -1.43436e-22)
(0.00958951 0.0022673 1.1655e-22)
(0.00963642 -0.00374711 0)
(-0.00315876 0.00219183 -4.74043e-20)
(-0.00286003 0.000626478 0)
(-0.00372599 0.00216679 1.52411e-20)
(-0.0029029 0.000595306 2.33177e-22)
(-0.00237948 0.00015679 0)
(-0.00234697 0.00176205 -1.30286e-20)
(-0.000807973 8.8973e-05 -1.14424e-21)
(-0.000552076 0.000332855 -8.41359e-21)
(0.127274 -0.0223257 -3.80856e-23)
(0.0204379 -0.00633652 1.2978e-21)
(0.0202884 -0.00628695 -1.30523e-21)