/*--------------------------------*- C++ -*----------------------------------*\
| =========                 |                                                 |
| \\      /  F ield         | OpenFOAM: The Open Source CFD Toolbox           |
|  \\    /   O peration     | Version:  v1912                                 |
|   \\  /    A nd           | Website:  www.openfoam.com                      |
|    \\/     M anipulation  |                                                 |
\*---------------------------------------------------------------------------*/
FoamFile
{
    version     2.0;
    format      ascii;
    class       volVectorField;
    location    "100";
    object      U;
}
// * * * * * * * * * * * * * * * * * * * * * * * * * * * * * * * * * * * * * //

dimensions      [0 1 -1 0 0 0 0];


internalField   nonuniform List<vector> 
3675
(
(0.999102 0.00113125 1.151e-25)
(0.999151 0.00341996 0)
(0.990338 0.00363998 3.28674e-23)
(0.99924 0.00547874 -5.73424e-23)
(0.991026 0.010979 0)
(0.969862 0.00708857 -1.04494e-21)
(0.999357 0.00719226 3.51299e-21)
(0.992286 0.0175206 -3.79825e-21)
(0.972188 0.0212223 1.07394e-21)
(0.932824 0.0126265 -7.33016e-23)
(0.999485 0.00849358 -6.80101e-21)
(0.993919 0.022875 7.51593e-21)
(0.976422 0.033539 0)
(0.938926 0.0373595 2.30648e-21)
(0.869342 0.0229729 -2.08655e-22)
(0.999611 0.00936195 3.28967e-21)
(0.995709 0.0268323 -1.009e-22)
(0.981843 0.0432409 -1.25676e-22)
(0.94965 0.0581462 -2.25672e-21)
(0.883581 0.0664958 0)
(0.754835 0.044298 2.153e-22)
(0.999727 0.00981295 0)
(0.997475 0.0293543 3.19033e-21)
(0.987667 0.0500065 0)
(0.962767 0.0734306 1.22662e-22)
(0.907486 0.100398 3.22391e-22)
(0.793647 0.12237 -3.2256e-21)
(0.586901 0.0422006 -2.41452e-22)
(0.607483 0.117698 -3.87399e-22)
(0.99983 0.00988573 0)
(0.999097 0.0305286 -6.6695e-21)
(0.993271 0.0539087 6.68055e-21)
(0.976225 0.0829 3.55189e-21)
(0.936301 0.122159 -2.70576e-22)
(0.850141 0.177301 4.92371e-21)
(0.647467 0.191602 6.89505e-22)
(0.699984 0.239572 3.41048e-22)
(0.394052 0.0611054 8.03939e-22)
(0.433033 0.179362 -4.66757e-22)
(0.99992 0.0096309 0)
(1.00051 0.0305131 -4.73026e-23)
(0.998294 0.0552656 -6.59735e-21)
(0.988596 0.0872091 -3.43013e-21)
(0.963813 0.132542 0)
(0.909741 0.204852 -1.78259e-21)
(0.763456 0.354782 -2.15809e-21)
(0.504814 0.277211 -1.42226e-21)
(0.591897 0.356906 1.13798e-21)
(0.183998 0.0382356 -1.79436e-22)
(0.197378 0.116884 3.73107e-22)
(0.270426 0.264843 1.86795e-21)
(0.224809 0.192457 -3.22206e-22)
(0.999998 0.00910148 0)
(1.00171 0.0294912 0)
(1.00258 0.0544915 1.10821e-24)
(0.999227 0.0873942 -9.70512e-23)
(0.987002 0.134269 -1.96944e-22)
(0.959687 0.209191 0)
(0.897144 0.3654 4.42724e-21)
(0.636517 0.559068 1.70056e-22)
(0.772254 0.591051 4.78016e-23)
(0.329456 0.337725 3.47134e-23)
(0.40369 0.407024 0)
(0.481268 0.489258 -7.29002e-22)
(0.0366556 0.0306806 -1.5214e-21)
(0.0485942 0.0936771 -6.96765e-22)
(0.113216 0.205871 -7.06283e-21)
(0.0755057 0.152717 -2.3938e-21)
(1.00007 0.00834701 0)
(1.00268 0.0276422 0)
(1.00613 0.052 0)
(1.00797 0.0844346 4.50135e-23)
(1.00559 0.130187 0)
(0.997513 0.200596 9.00553e-23)
(0.982092 0.331554 -2.89985e-21)
(0.979016 0.555061 -4.13704e-22)
(0.620752 0.553169 -8.40671e-24)
(0.488189 0.486693 -8.73084e-23)
(0.769069 0.535714 9.74743e-23)
(0.166262 0.307401 8.68217e-21)
(0.289576 0.399584 -5.99598e-22)
(0.332155 0.383306 1.66002e-21)
(0.233535 0.279584 -1.57221e-21)
(1.00013 0.00741147 -4.42989e-24)
(1.00347 0.0251283 0)
(1.00897 0.0481619 -5.00292e-21)
(1.01494 0.0791321 0)
(1.02006 0.122309 -7.2039e-23)
(1.02519 0.186176 0)
(1.0336 0.289778 -3.8007e-23)
(1.10098 0.483166 3.27965e-22)
(0.914011 0.447038 -3.71038e-22)
(1.09706 0.503026 -3.27732e-23)
(0.462001 0.343804 -1.1049e-22)
(0.287516 0.247091 1.04086e-22)
(0.714185 0.422613 6.50344e-22)
(0.466168 0.28815 0)
(0.0574185 0.132437 2.67807e-21)
(0.161367 0.244362 -6.14668e-21)
(0.13232 0.164249 0)
(1.0002 0.00633064 0)
(1.0041 0.0220868 -4.26958e-24)
(1.01123 0.0432845 4.973e-21)
(1.02039 0.0721217 -3.9183e-23)
(1.03104 0.111958 0)
(1.045 0.168886 6.78928e-23)
(1.06681 0.252553 0)
(1.14371 0.395149 6.11292e-22)
(1.22915 0.418909 -1.71616e-21)
(0.693142 0.205389 1.60835e-22)
(0.56754 0.273841 -1.31428e-21)
(1.01655 0.298401 -9.22859e-22)
(0.193612 0.13386 2.93301e-21)
(0.264444 0.154353 1.29356e-21)
(1.00026 0.00513404 0)
(1.00461 0.0186292 -8.40696e-24)
(1.013 0.0376093 8.99318e-24)
(1.02458 0.063887 1.59772e-23)
(1.03923 0.100033 -2.79159e-23)
(1.05895 0.15022 3.17423e-21)
(1.08864 0.21945 2.12338e-21)
(1.15745 0.322383 4.17392e-22)
(1.2879 0.378727 2.24992e-21)
(1.15394 0.260188 0)
(0.450035 0.0578321 5.25334e-22)
(0.194024 0.0363121 0)
(0.363546 0.0932972 4.34398e-23)
(0.849469 0.170053 -3.19452e-22)
(0.123073 0.0330668 -1.59326e-22)
(1.00032 0.00384431 -7.94088e-21)
(1.00502 0.0148419 3.98435e-24)
(1.01439 0.0313208 1.61046e-23)
(1.0278 0.0547766 -1.43558e-23)
(1.04529 0.0871294 -1.56662e-23)
(1.06867 0.131116 -5.93724e-21)
(1.10248 0.189223 -3.89444e-21)
(1.16346 0.266721 -4.38503e-22)
(1.27954 0.321791 0)
(1.33595 0.287095 0)
(1.00293 0.142106 6.66631e-21)
(0.687215 0.0995893 -4.10104e-23)
(0.120122 0.00567305 1.12996e-22)
(0.320929 0.0211201 -1.10336e-23)
(0.0926813 0.00388219 -3.217e-22)
(1.00039 0.0024782 7.87986e-21)
(1.00535 0.0107894 -2.0132e-24)
(1.0155 0.024554 -3.98342e-24)
(1.0303 0.0450228 -2.06937e-23)
(1.04979 0.0736233 6.3691e-21)
(1.07546 0.112069 2.7924e-21)
(1.11102 0.161382 1.75286e-21)
(1.16656 0.222363 -1.61135e-23)
(1.25971 0.270278 0)
(1.35819 0.266984 -4.99703e-21)
(1.29188 0.204124 -8.1437e-21)
(0.890747 0.0706113 8.21405e-23)
(0.554596 0.043785 -5.5896e-21)
(0.595334 0.0555733 2.79044e-24)
(0.276676 0.00788138 1.17447e-23)
(0.0661122 0.00218107 9.65211e-23)
(0.0707421 -0.00091505 0)
(1.00047 0.00104924 0)
(1.00563 0.00651992 0)
(1.0164 0.0174038 -3.39582e-24)
(1.03229 0.0347762 0)
(1.05322 0.0597218 -4.98195e-22)
(1.0803 0.0932637 6.41784e-24)
(1.1163 0.135565 1.0923e-21)
(1.16757 0.185406 -4.96257e-24)
(1.24377 0.227166 -2.12246e-21)
(1.33485 0.236857 5.16292e-21)
(1.37607 0.2135 -5.96907e-21)
(1.2243 0.141966 0)
(0.812182 0.0393821 -5.05056e-21)
(0.513213 0.0181836 -8.77525e-23)
(0.532748 0.0234057 8.15296e-23)
(0.288121 0.0126298 1.02362e-20)
(0.0614854 -0.00177077 -1.03054e-22)
(0.0669118 0.00228476 6.6346e-21)
(1.00055 -0.000432226 0)
(1.00587 0.00206893 -7.6777e-21)
(1.01715 0.00993291 0)
(1.03392 0.0241266 3.37054e-24)
(1.05595 0.0455229 -3.83768e-22)
(1.08392 0.0747144 -3.75373e-21)
(1.11974 0.111372 -1.11508e-21)
(1.16737 0.153478 0)
(1.23215 0.190594 4.31356e-21)
(1.30885 0.206226 -1.24345e-23)
(1.37317 0.20039 6.66983e-22)
(1.36278 0.169623 0)
(1.15823 0.100728 1.23085e-20)
(0.755523 0.0276506 -1.26608e-21)
(0.477399 0.0116921 -1.23968e-21)
(0.492478 0.0110939 5.03505e-24)
(0.285215 0.00497023 0)
(0.294532 0.00594824 -1.27219e-21)
(0.132826 0.00366114 -3.66508e-21)
(0.0949257 0.00818406 -1.67423e-20)
(1.00064 -0.00195648 0)
(1.00607 -0.0025351 1.52301e-20)
(1.01777 0.0021823 0)
(1.03531 0.0131146 0)
(1.05825 0.0310434 -9.88852e-21)
(1.0869 0.0563281 3.64285e-21)
(1.12233 0.088408 1.26334e-21)
(1.16688 0.124996 -1.25319e-21)
(1.2235 0.158711 -2.1476e-21)
(1.28878 0.177775 -8.59478e-24)
(1.3501 0.180509 5.51566e-21)
(1.3879 0.169731 -3.06743e-24)
(1.33594 0.135292 -7.29888e-21)
(1.09865 0.0757411 1.66747e-23)
(0.713244 0.0228377 -6.24576e-22)
(0.450239 0.00960125 1.18837e-21)
(0.461716 0.0084422 1.20622e-21)
(0.269476 0.00284392 1.14661e-21)
(0.276139 0.00230948 -2.21693e-22)
(0.131136 0.00180543 -3.29379e-24)
(0.132974 0.000465661 2.76408e-23)
(0.13539 0.000939182 2.69471e-21)
(0.136147 0.00193169 4.15972e-22)
(0.0416203 -0.000751657 1.74419e-21)
(0.0257561 0.00221446 4.98509e-21)
(1.00074 -0.00351303 0)
(1.00624 -0.00726487 -7.54977e-21)
(1.0183 -0.00581869 6.92445e-21)
(1.03653 0.00175146 5.86685e-21)
(1.06033 0.0162475 9.22762e-21)
(1.08962 0.0379542 0)
(1.12475 0.066256 -1.22907e-21)
(1.16683 0.0988624 1.26788e-21)
(1.21734 0.130164 0)
(1.27407 0.151579 -2.77672e-23)
(1.32875 0.160045 4.7912e-21)
(1.37426 0.15866 5.39205e-24)
(1.38929 0.144902 -1.0241e-25)
(1.30248 0.111106 -7.10281e-21)
(1.04775 0.0610622 0)
(0.680283 0.0206245 -5.03959e-21)
(0.42859 0.00850193 1.16999e-21)
(0.437817 0.0075535 5.95997e-22)
(0.257447 0.00248456 6.94952e-23)
(0.262986 0.00200925 -5.83194e-25)
(0.125364 0.000991677 -5.01959e-23)
(0.126421 0.000132068 -2.56184e-23)
(0.128505 -0.000259843 3.16199e-22)
(0.128014 0.000778557 1.28543e-22)
(0.0398853 0.000203232 1.70369e-23)
(0.0405423 -8.48303e-05 0)
(0.0409833 -0.000349488 -5.72411e-22)
(0.0413789 0.000182936 -2.85312e-22)
(1.00084 -0.00508858 0)
(1.00636 -0.0120898 -7.22418e-24)
(1.01871 -0.0140435 -6.83727e-21)
(1.03762 -0.0099697 4.41988e-23)
(1.06231 0.00105906 -8.78163e-21)
(1.09237 0.0193961 2.61579e-21)
(1.12747 0.0445227 -6.07095e-25)
(1.16774 0.0742279 3.07235e-24)
(1.21364 0.103964 5.66354e-24)
(1.26366 0.12714 -7.13722e-21)
(1.31239 0.140208 -9.60697e-21)
(1.3553 0.144622 4.56578e-24)
(1.388 0.141153 0)
(1.38127 0.126508 6.82783e-21)
(1.26746 0.0950733 7.20657e-21)
(1.00518 0.0525104 4.25153e-21)
(0.653349 0.0195798 -4.78314e-24)
(0.410369 0.0080341 0)
(0.418236 0.00717957 5.81588e-22)
(0.247003 0.00234253 2.03001e-22)
(0.251896 0.00204178 -6.11111e-22)
(0.12076 0.000797759 -4.81555e-23)
(0.121689 0.0002495 -9.68303e-23)
(0.123652 3.60341e-06 9.86194e-23)
(0.123057 0.000668628 -1.46955e-22)
(0.0388675 9.71162e-05 3.23286e-23)
(0.0392082 -6.004e-05 2.06296e-24)
(0.0392995 -0.000177048 -8.44109e-23)
(0.0394847 5.00361e-05 -2.05713e-24)
(1.00094 -0.00666486 0)
(1.00641 -0.0169678 0)
(1.01898 -0.022458 7.08183e-24)
(1.03854 -0.0220609 -5.68932e-21)
(1.06421 -0.0146188 4.26206e-21)
(1.0953 0.000420725 -4.98577e-21)
(1.13081 0.0227986 -7.47368e-25)
(1.17001 0.0504056 5.92992e-25)
(1.21252 0.0793081 -4.61415e-21)
(1.25717 0.104054 7.24749e-21)
(1.30063 0.120944 -4.5469e-21)
(1.3396 0.130063 -1.13502e-23)
(1.37312 0.132438 5.70887e-24)
(1.39369 0.12813 0)
(1.36723 0.113776 -6.84407e-21)
(1.23377 0.0846026 -7.26173e-21)
(0.969281 0.047602 0)
(0.631353 0.0190781 -6.3043e-22)
(0.394567 0.00786156 -1.07107e-21)
(0.401309 0.00706849 1.07292e-21)
(0.237423 0.00234257 -6.6506e-23)
(0.241993 0.0021242 -4.66196e-22)
(0.116435 0.000703816 -1.40413e-22)
(0.117307 0.000320713 -9.39272e-23)
(0.119263 0.000179477 -4.76828e-23)
(0.11858 0.000633479 0)
(0.0378255 7.10092e-05 1.55912e-23)
(0.038149 -2.64352e-05 0)
(0.0384945 -8.39503e-05 0)
(0.0384535 4.98271e-05 3.15401e-23)
(1.00104 -0.00821603 0)
(1.00637 -0.0218395 -8.32712e-21)
(1.01904 -0.0310079 0)
(1.03922 -0.0345241 0)
(1.06599 -0.0308936 -8.00872e-24)
(1.09848 -0.0192278 2.37295e-21)
(1.13497 0.00066693 0)
(1.1739 0.0267725 0)
(1.21413 0.0555193 4.47209e-21)
(1.25452 0.0819484 5.60084e-24)
(1.29319 0.102208 1.88037e-20)
(1.32814 0.115441 0)
(1.35887 0.122263 6.00972e-21)
(1.38419 0.123555 0)
(1.39323 0.119244 0)
(1.35002 0.105159 6.83211e-21)
(1.20233 0.0778592 0)
(0.938975 0.0448759 0)
(0.616152 0.0190137 -9.85438e-21)
(0.382041 0.00776965 1.12793e-21)
(0.386856 0.00698869 1.13398e-21)
(0.228437 0.00237014 -3.94719e-25)
(0.2327 0.0022199 6.54005e-23)
(0.112139 0.000676004 -4.58643e-23)
(0.113012 0.000379548 9.19236e-23)
(0.115027 0.000291181 4.64811e-23)
(0.114275 0.000633135 -9.24938e-23)
(0.0366818 5.71486e-05 1.51594e-23)
(0.0369902 -1.01052e-05 0)
(0.0374637 -4.22665e-05 4.61861e-23)
(0.0373127 4.80235e-05 0)
(1.00113 -0.00970562 -1.71186e-23)
(1.0062 -0.0266177 2.57149e-20)
(1.01879 -0.0396052 1.2277e-23)
(1.03952 -0.0473307 0)
(1.06751 -0.0478743 0)
(1.10187 -0.0398344 4.21667e-24)
(1.14005 -0.0223191 2.85345e-25)
(1.17965 0.00272353 -2.43214e-21)
(1.21866 0.031975 0)
(1.25576 0.0604514 0)
(1.29008 0.0839435 -9.21131e-21)
(1.32089 0.100927 0)
(1.34816 0.111631 -6.10685e-21)
(1.37193 0.116891 -3.33171e-24)
(1.38985 0.117838 0)
(1.38857 0.113508 0)
(1.33122 0.0994463 0)
(1.17338 0.0736666 0)
(0.914134 0.0436569 8.45862e-21)
(0.611193 0.0199457 -2.44443e-21)
(0.377928 0.00791588 -4.39828e-21)
(0.377586 0.00680388 -2.2375e-21)
(0.220799 0.00235688 -9.627e-22)
(0.224183 0.00227256 -6.47341e-23)
(0.107813 0.000670564 -9.02371e-23)
(0.108672 0.000415169 2.27013e-23)
(0.110746 0.000363781 2.27327e-23)
(0.109941 0.000649445 -4.5423e-23)
(0.0354252 5.21278e-05 4.44523e-23)
(0.0357434 6.08535e-07 -3.73482e-24)
(0.0363112 -1.81371e-05 -1.49358e-23)
(0.0360929 4.87237e-05 3.72555e-24)
(1.0012 -0.0110844 3.6153e-23)
(1.00585 -0.0311798 1.13391e-21)
(1.01811 -0.0481079 -1.62066e-20)
(1.03921 -0.0604048 -2.63997e-23)
(1.06852 -0.0656467 6.86955e-24)
(1.10528 -0.0617047 0)
(1.14601 -0.0466463 -1.06357e-24)
(1.18742 -0.0223824 2.35555e-21)
(1.22635 0.00807441 0)
(1.26103 0.0391855 0)
(1.29141 0.0660641 0)
(1.31798 0.0866372 0)
(1.34142 0.100885 1.21238e-20)
(1.36216 0.109553 6.40804e-24)
(1.37996 0.113887 6.31214e-24)
(1.39153 0.114636 0)
(1.38103 0.110002 0)
(1.3117 0.0958218 0)
(1.14709 0.0712912 3.52759e-24)
(0.894304 0.0436606 8.19488e-24)
(0.604809 0.0205888 -6.03726e-21)
(0.392432 0.00844046 -4.16788e-21)
(0.383528 0.00859097 4.19e-21)
(0.219888 0.00204146 4.06767e-21)
(0.21843 0.00213609 2.56482e-21)
(0.10378 0.000660007 0)
(0.104449 0.00042578 -4.47402e-23)
(0.106439 0.000400311 4.4958e-23)
(0.105666 0.000664256 0)
(0.0340803 5.09289e-05 0)
(0.0344033 6.35856e-06 0)
(0.035038 -4.52767e-06 -1.48027e-23)
(0.0347741 5.11317e-05 0)
(1.00125 -0.0122867 3.83187e-23)
(1.00525 -0.035355 -1.8254e-20)
(1.01682 -0.0563014 1.6064e-20)
(1.03797 -0.0735948 0)
(1.06862 -0.0842632 -5.03416e-21)
(1.1084 -0.085146 -6.59288e-24)
(1.15267 -0.0728601 0)
(1.19731 -0.0492789 0)
(1.23748 -0.0168003 0)
(1.27058 0.0177892 8.36012e-24)
(1.29735 0.0484532 9.95917e-24)
(1.31961 0.0726475 1.12196e-23)
(1.33885 0.0902468 -2.40508e-20)
(1.35597 0.102013 6.41524e-24)
(1.37123 0.109132 -1.29065e-23)
(1.3842 0.112815 3.26406e-24)
(1.39031 0.113207 -6.59787e-21)
(1.3714 0.108068 0)
(1.29205 0.093681 0)
(1.1232 0.0701336 -5.89564e-26)
(0.87538 0.0432579 1.47731e-23)
(0.590405 0.0211373 -4.79472e-21)
(0.393523 0.00977182 -2.17244e-21)
(0.395229 0.00858724 8.62846e-23)
(0.251504 0.00292262 3.7741e-21)
(0.232364 0.00370061 0)
(0.106614 0.000315719 0)
(0.103072 -4.4769e-05 -7.11614e-22)
(0.102672 0.000345146 -1.33442e-22)
(0.102689 0.000533459 -6.65016e-22)
(0.0327551 5.07171e-05 1.44235e-23)
(0.0330368 9.51149e-06 3.07832e-23)
(0.0336842 2.52078e-06 -2.91013e-23)
(0.0334097 5.42845e-05 -1.81096e-24)
(1.00125 -0.0132285 0)
(1.00432 -0.0389154 -3.87024e-23)
(1.01469 -0.063876 0)
(1.03539 -0.0866353 -5.94906e-23)
(1.06725 -0.103694 4.91461e-21)
(1.11068 -0.110437 2.93084e-21)
(1.15959 -0.101569 -1.59182e-24)
(1.20931 -0.0788575 0)
(1.25239 -0.0433268 5.83662e-21)
(1.28476 -0.00408133 0)
(1.30815 0.03102 1.95206e-24)
(1.32596 0.0590163 -9.83819e-24)
(1.34069 0.0798894 1.18936e-20)
(1.3537 0.0945432 -1.29253e-20)
(1.36558 0.104172 -1.33984e-20)
(1.37649 0.11006 -1.35244e-20)
(1.38563 0.113102 1.3337e-20)
(1.38685 0.11298 -6.56085e-21)
(1.36027 0.1072 6.50386e-21)
(1.27257 0.0924739 0)
(1.10023 0.0689882 -4.53769e-24)
(0.854 0.0428479 1.23836e-20)
(0.571939 0.0209604 -4.70473e-21)
(0.382577 0.0102937 1.03989e-21)
(0.38843 0.00953454 -4.1189e-24)
(0.256454 0.00418477 -5.99272e-23)
(0.25745 0.00363643 -3.74065e-21)
(0.153851 0.000836356 -1.33487e-21)
(0.147175 0.000902737 0)
(0.114338 9.59972e-05 -2.82795e-21)
(0.129534 0.00334858 5.40857e-21)
(0.0349546 -0.000397172 0)
(0.0327914 -0.000176046 4.68866e-22)
(0.0324402 -7.68778e-06 4.4998e-23)
(0.0324252 7.66436e-06 -1.81053e-24)
(1.0012 -0.0138086 0)
(1.003 -0.0415706 0)
(1.01147 -0.0704068 0)
(1.03096 -0.0991064 0)
(1.06364 -0.123733 0)
(1.11119 -0.13774 -2.83868e-21)
(1.1659 -0.133492 0)
(1.2233 -0.112268 3.19702e-21)
(1.27146 -0.0722709 -5.61904e-21)
(1.30398 -0.0267374 3.33776e-24)
(1.32409 0.0137113 -1.05595e-23)
(1.33725 0.0458251 -1.15575e-20)
(1.34714 0.069973 -1.23183e-23)
(1.35563 0.0873644 1.27257e-20)
(1.36355 0.0993074 1.32497e-20)
(1.37128 0.107116 1.35384e-20)
(1.3789 0.111909 -6.74965e-21)
(1.38494 0.114275 6.60265e-21)
(1.38165 0.11352 3.37558e-23)
(1.34808 0.106955 6.42217e-21)
(1.25302 0.0914779 1.31588e-20)
(1.07662 0.0679553 -1.42161e-20)
(0.830725 0.042382 5.79258e-24)
(0.551944 0.020318 -4.52093e-24)
(0.368474 0.00990584 -6.44107e-23)
(0.375283 0.00942363 6.41718e-23)
(0.248221 0.00438215 -7.6334e-22)
(0.252882 0.00422227 5.90419e-23)
(0.156328 0.00177283 0)
(0.157176 0.0015141 3.35587e-22)
(0.156785 0.00118854 6.69068e-22)
(0.157847 0.00154498 3.35133e-22)
(0.0882177 0.000249166 1.78924e-21)
(0.0832812 0.000709094 0)
(0.0386073 -0.000350392 2.12405e-21)
(0.0561747 0.00414368 -3.65629e-21)
(1.00107 -0.0139161 2.37548e-20)
(1.00122 -0.0429736 2.34275e-20)
(1.00692 -0.0753181 0)
(1.02408 -0.110344 1.84223e-20)
(1.05673 -0.143874 -1.40191e-20)
(1.10838 -0.166997 0)
(1.1702 -0.169641 5.83905e-22)
(1.23919 -0.151207 3.24849e-22)
(1.29544 -0.104554 7.01965e-21)
(1.32893 -0.0504503 8.06422e-24)
(1.34555 -0.00346228 1.10622e-23)
(1.35369 0.033192 1.12875e-20)
(1.35839 0.0606716 -1.27416e-20)
(1.36196 0.0806875 3.82146e-23)
(1.36546 0.094768 1.2789e-23)
(1.36939 0.10431 0)
(1.37402 0.110521 1.37293e-20)
(1.37918 0.114307 0)
(1.38258 0.115973 -6.51003e-21)
(1.3751 0.114465 -1.27258e-20)
(1.33501 0.106883 -1.26159e-20)
(1.23287 0.0906009 6.46824e-21)
(1.05221 0.0670923 3.49177e-21)
(0.806657 0.0416676 0)
(0.533035 0.0202553 -5.81991e-22)
(0.353791 0.00914061 -9.49735e-22)
(0.360798 0.00885145 9.52667e-22)
(0.238006 0.00412857 -5.84059e-23)
(0.243127 0.00412396 5.56505e-23)
(0.149976 0.00183079 -2.48412e-22)
(0.151538 0.00160327 -1.03604e-22)
(0.154703 0.00153902 2.08775e-22)
(0.153369 0.00177756 -2.09593e-23)
(0.0901005 0.000558741 -2.34913e-24)
(0.0907966 0.000491811 -2.26066e-22)
(0.0906639 0.000325072 -6.00444e-22)
(0.0911817 0.000475689 -3.01487e-22)
(0.0279817 -0.00018416 -4.25866e-22)
(0.0272928 -0.000456524 -8.32486e-22)
(0.0156269 0.00123658 4.34571e-22)
(1.00087 -0.013451 -4.85713e-20)
(0.998985 -0.0427526 -2.3413e-20)
(1.00088 -0.0778566 0)
(1.01408 -0.119296 -1.8412e-20)
(1.04501 -0.16325 -2.23653e-21)
(1.10001 -0.198034 0)
(1.17084 -0.211807 -5.69062e-22)
(1.2579 -0.198498 -1.03633e-20)
(1.32633 -0.141547 -1.46224e-20)
(1.36115 -0.075506 0)
(1.37335 -0.0204352 -1.1924e-20)
(1.37565 0.0212785 1.26032e-20)
(1.37461 0.0521834 1.24079e-20)
(1.37287 0.0747274 0)
(1.37154 0.0907739 -2.58819e-23)
(1.3712 0.101868 0)
(1.37217 0.109306 -1.36454e-20)
(1.37456 0.114111 6.64433e-24)
(1.37784 0.116974 1.33253e-20)
(1.37895 0.117909 -4.62525e-23)
(1.36745 0.115499 1.24846e-20)
(1.32101 0.106842 0)
(1.21204 0.0898724 -3.06528e-24)
(1.02745 0.0661942 0)
(0.782547 0.0413002 0)
(0.514081 0.0197414 -4.80131e-21)
(0.341039 0.00605143 0)
(0.34522 0.00783417 1.00172e-21)
(0.228053 0.00358945 0)
(0.232963 0.0037849 -1.15817e-22)
(0.143177 0.0017144 1.02046e-22)
(0.144698 0.00149257 2.25012e-22)
(0.148039 0.00150294 -8.21434e-23)
(0.146534 0.00172483 -8.2185e-23)
(0.0861581 0.000578172 7.43774e-23)
(0.0872106 0.000532551 -7.45866e-23)
(0.0891505 0.000496188 -1.47503e-22)
(0.08825 0.000556744 0)
(0.0285259 3.48653e-05 1.73697e-24)
(0.0287979 2.15424e-05 -5.71916e-23)
(0.0289118 -1.60408e-05 -5.17498e-24)
(0.0289933 2.19819e-05 -1.73492e-24)
(1.00058 -0.01235 2.48272e-20)
(0.996408 -0.0405797 2.62409e-20)
(0.993437 -0.077143 9.33328e-23)
(1.0003 -0.124418 0)
(1.02643 -0.180418 3.49969e-20)
(1.08346 -0.231009 5.50591e-23)
(1.1665 -0.26325 -2.56206e-21)
(1.28216 -0.258752 6.736e-21)
(1.36817 -0.185276 7.50618e-21)
(1.40383 -0.102384 1.17908e-23)
(1.40945 -0.0371661 2.44419e-20)
(1.40412 0.0102613 -1.22674e-20)
(1.39625 0.0447217 2.47532e-23)
(1.38854 0.0697089 2.56857e-23)
(1.38195 0.0875424 0)
(1.37694 0.0999948 -2.71435e-23)
(1.37379 0.108481 0)
(1.37266 0.114103 0)
(1.37344 0.117685 -1.34018e-20)
(1.37529 0.119697 6.48305e-21)
(1.3743 0.119849 -6.26161e-21)
(1.35878 0.116482 -6.12452e-21)
(1.30611 0.106836 0)
(1.19073 0.0891654 7.33332e-26)
(1.00262 0.0653152 0)
(0.758899 0.0404465 3.89224e-21)
(0.270286 0.00430931 0)
(0.495211 0.019628 0)
(0.218639 0.000574809 -6.54195e-23)
(0.225418 0.00291138 5.73111e-23)
(0.13687 0.00131657 0)
(0.138285 0.0012352 0)
(0.141358 0.00136393 6.09749e-23)
(0.139978 0.00155552 2.62869e-22)
(0.0820761 0.000535145 -1.09834e-22)
(0.0830718 0.000494807 -7.34407e-23)
(0.0850524 0.000487153 -7.39031e-23)
(0.0840968 0.000535956 7.36781e-23)
(0.0271787 3.72551e-05 1.71061e-23)
(0.0275455 3.03485e-05 -3.42953e-24)
(0.0282132 2.05258e-05 0)
(0.027912 3.63282e-05 0)
(1.00024 -0.0106123 0)
(0.993727 -0.0362787 1.33836e-21)
(0.985023 -0.0723891 5.02309e-23)
(0.982695 -0.123793 1.97836e-22)
(0.998981 -0.192547 -1.89501e-20)
(1.0553 -0.265474 -1.53637e-20)
(1.1551 -0.329166 6.6934e-21)
(1.31389 -0.33756 3.1256e-23)
(1.42378 -0.237325 1.26748e-23)
(1.45953 -0.131281 -2.76958e-20)
(1.45609 -0.0535589 -1.24867e-20)
(1.44089 0.000306771 2.51597e-23)
(1.42442 0.0385073 -1.43065e-20)
(1.40955 0.0658553 0)
(1.39695 0.0852895 2.75618e-23)
(1.3868 0.0988894 2.7449e-23)
(1.37915 0.108232 2.71275e-23)
(1.37405 0.1145 0)
(1.37146 0.118581 1.36895e-20)
(1.37112 0.121104 0)
(1.37181 0.122313 1.27879e-20)
(1.36877 0.121673 6.11621e-21)
(1.34921 0.117395 0)
(1.29051 0.106799 5.92819e-21)
(1.16916 0.0884535 3.01532e-24)
(0.97813 0.0644154 0)
(0.736108 0.0398478 0)
(0.257237 0.00517125 0)
(0.0978996 0.000956591 6.62731e-23)
(0.0990804 0.000132517 -6.61692e-23)
(0.47809 0.0192579 -4.52432e-24)
(0.102643 0.000726783 0)
(0.135182 0.000523918 0)
(0.134396 -0.000312956 0)
(0.0786144 0.000294505 0)
(0.0793465 0.000381459 -1.81127e-23)
(0.0810572 0.000437879 -7.27021e-23)
(0.0802079 0.00046917 -5.43774e-23)
(0.0258315 3.36348e-05 2.70002e-23)
(0.0261717 2.77577e-05 0)
(0.0268303 2.10624e-05 -1.36856e-23)
(0.0265217 3.43699e-05 0)
(0.999875 -0.00830938 0)
(0.99125 -0.0299224 -2.76514e-20)
(0.976532 -0.0632236 -2.92914e-20)
(0.962647 -0.115547 2.9259e-20)
(0.962922 -0.19477 -1.88911e-22)
(1.00975 -0.295781 -5.24208e-21)
(1.12725 -0.412791 -1.11981e-20)
(1.34264 -0.437494 0)
(1.48155 -0.295039 -3.36947e-23)
(1.51894 -0.159477 5.92591e-20)
(1.5087 -0.0684294 -2.94227e-23)
(1.48513 -0.00804965 0)
(1.45993 0.0338477 2.89731e-20)
(1.43683 0.0634157 -1.48502e-20)
(1.41714 0.0842245 0)
(1.4011 0.0987419 -1.45198e-20)
(1.38848 0.108729 -2.74729e-23)
(1.37903 0.115465 0)
(1.3726 0.119883 1.86772e-22)
(1.36903 0.12267 1.3478e-20)
(1.3679 0.12427 -2.5875e-20)
(1.36759 0.124737 -2.99775e-24)
(1.36249 0.123355 -6.59059e-26)
(1.33888 0.118202 -5.78476e-21)
(1.27437 0.106694 0)
(1.14756 0.0877337 -5.98824e-21)
(0.954323 0.0636263 -3.14605e-24)
(0.714819 0.0392268 7.56304e-21)
(0.246283 0.00528812 1.78862e-22)
(0.0936769 0.00104174 -6.46166e-23)
(0.0952633 0.000191926 -3.24953e-23)
(0.022342 0.000158971 1.21813e-23)
(0.02241 -7.71078e-06 1.7526e-24)
(0.022641 8.14095e-05 -2.83114e-23)
(0.0228313 -0.000164941 2.84119e-23)
(0.463043 0.018797 -4.64817e-21)
(0.0233484 0.000284221 0)
(0.023457 1.37828e-06 0)
(0.0774197 -0.00100963 0)
(0.078725 -0.000215237 3.57587e-23)
(0.0247143 2.23449e-05 -3.33309e-24)
(0.0249662 1.71185e-05 3.32698e-24)
(0.0255165 1.80749e-05 0)
(0.0252488 2.86121e-05 0)
(0.99951 -0.00557536 -5.55434e-23)
(0.989272 -0.0218568 0)
(0.969147 -0.0499375 2.97229e-20)
(0.943019 -0.0986123 -2.98875e-20)
(0.921971 -0.181571 -3.17451e-20)
(0.940813 -0.309137 2.07859e-20)
(1.05571 -0.500954 7.13491e-21)
(1.32752 -0.548962 -3.10818e-24)
(1.49309 -0.345345 3.69478e-20)
(1.53893 -0.177418 8.07368e-21)
(1.5385 -0.077125 -6.57981e-23)
(1.52194 -0.0126942 3.01549e-23)
(1.49718 0.0316429 -1.46508e-20)
(1.46932 0.0628212 -9.90231e-22)
(1.44293 0.0846112 0)
(1.42037 0.0997439 -5.30811e-22)
(1.40212 0.110138 0)
(1.38786 0.117145 0)
(1.37722 0.121739 -2.75905e-20)
(1.36992 0.124633 -1.33763e-20)
(1.36571 0.126338 2.62678e-20)
(1.36403 0.127142 -6.08358e-24)
(1.36279 0.12695 2.98054e-24)
(1.35558 0.124872 -5.66772e-24)
(1.32793 0.118874 0)
(1.25784 0.106505 -2.61816e-23)
(1.12616 0.0870086 0)
(0.931581 0.0628281 -6.42859e-21)
(0.695438 0.038592 -7.47318e-21)
(0.236618 0.00517277 5.95916e-21)
(0.0891453 0.00109786 -3.18365e-23)
(0.0909178 0.000309942 -2.22956e-22)
(0.0214029 0.000151446 1.37774e-23)
(0.0215474 9.94866e-06 2.75465e-23)
(0.0218482 5.24551e-05 2.76931e-23)
(0.0219809 -0.000133528 -1.39509e-23)
(0.451254 0.0184027 -9.15197e-21)
(0.0242993 -0.000325084 1.65644e-24)
(0.0248414 -9.02521e-05 -2.81017e-23)
(0.99917 -0.00258212 2.82093e-20)
(0.987994 -0.0126294 1.7977e-22)
(0.963879 -0.0334849 2.66261e-22)
(0.92715 -0.0736623 -3.50636e-20)
(0.88118 -0.150091 7.16604e-20)
(0.851184 -0.292509 -7.02938e-22)
(0.903416 -0.554483 5.25679e-21)
(1.18706 -0.638013 -1.65192e-21)
(1.35691 -0.354023 -2.52063e-20)
(1.42383 -0.167097 -9.54789e-20)
(1.47323 -0.0698696 0)
(1.50518 -0.00893876 1.3827e-22)
(1.51103 0.0341976 0)
(1.49604 0.0650802 -1.0621e-21)
(1.47085 0.0869331 5.8893e-23)
(1.44415 0.102168 1.45026e-20)
(1.42038 0.112636 0)
(1.40089 0.11968 -2.7455e-23)
(1.38562 0.124273 2.77835e-20)
(1.37421 0.12713 1.37149e-20)
(1.36637 0.128779 -2.64726e-20)
(1.36177 0.129586 1.28299e-20)
(1.35966 0.129719 1.19531e-23)
(1.35752 0.128945 1.17721e-20)
(1.34816 0.126207 2.78799e-24)
(1.31647 0.119395 5.47988e-21)
(1.24109 0.106228 0)
(1.10522 0.0862489 0)
(0.910183 0.0620368 1.06492e-24)
(0.678494 0.0381324 0)
(0.229827 0.00474767 1.23629e-20)
(0.0849034 0.00110479 -3.12969e-23)
(0.0864006 0.000306435 -4.85881e-22)
(0.0202811 0.000161644 0)
(0.0204496 1.58567e-05 2.70535e-23)
(0.0208 6.16057e-05 0)
(0.0209782 -0.000116958 -1.35733e-23)
(0.445317 0.0192238 -8.9253e-21)
(0.998872 0.000491173 -5.62179e-20)
(0.987483 -0.00287539 -3.03796e-20)
(0.961254 -0.0152411 3.26392e-20)
(0.917417 -0.0432961 -1.7161e-21)
(0.85027 -0.102701 -8.31307e-20)
(0.763119 -0.235161 3.96683e-22)
(0.786435 -0.469721 7.07442e-22)
(0.7024 -0.441964 0)
(0.970602 -0.756081 2.99807e-21)
(0.777143 -0.702763 1.45389e-22)
(0.699294 -0.621309 -9.96406e-21)
(1.17594 -0.398464 -6.67911e-23)
(0.815205 -0.502999 3.46551e-23)
(0.829792 -0.265577 0)
(1.0403 -0.101399 9.98667e-20)
(0.90415 -0.168607 -3.54444e-20)
(1.20549 -0.0335325 5.55421e-20)
(1.35405 0.00876399 0)
(1.44571 0.0445859 3.84069e-20)
(1.48398 0.0718336 1.63203e-20)
(1.48484 0.0920219 0)
(1.46636 0.106469 -5.95314e-23)
(1.44174 0.116491 -2.84034e-23)
(1.41808 0.12324 2.76704e-23)
(1.39807 0.127609 -1.37823e-20)
(1.38223 0.130268 -1.35574e-20)
(1.37038 0.131729 1.31838e-20)
(1.36223 0.132369 -1.28741e-20)
(1.35739 0.132443 -1.24626e-20)
(1.35494 0.132016 -1.18414e-20)
(1.35188 0.13072 -5.55264e-24)
(1.3403 0.127353 -2.63667e-24)
(1.3046 0.119769 -5.36168e-21)
(1.22429 0.105863 0)
(1.08494 0.0854718 5.63954e-21)
(0.890321 0.0613696 -3.00853e-24)
(0.664393 0.0383072 0)
(0.237199 0.00563765 1.03416e-20)
(0.0832458 0.00110712 6.06536e-23)
(0.0827653 0.000100998 -2.09513e-21)
(0.019163 0.000166194 0)
(0.0193035 1.75039e-05 2.65515e-23)
(0.0196543 6.74809e-05 -3.34482e-24)
(0.0198384 -0.000121011 -1.00457e-23)
(0.439276 0.0190749 -8.71754e-24)
(0.998621 0.00348443 2.79734e-20)
(0.987675 0.0068035 3.02959e-20)
(0.96124 0.00332512 -3.32192e-20)
(0.914546 -0.0109595 7.68478e-20)
(0.835884 -0.0470907 4.54387e-20)
(0.709189 -0.139803 5.60736e-20)
(0.624751 -0.381268 7.21198e-23)
(0.560457 -0.306736 2.20451e-20)
(0.565609 -0.567598 0)
(0.663818 -0.69548 0)
(0.465595 -0.480238 0)
(0.386012 -0.329133 8.27339e-21)
(0.604605 -0.483289 -6.11155e-21)
(0.557441 -0.646024 -2.78428e-21)
(0.615983 -0.28278 -5.68303e-23)
(0.23891 -0.121762 -5.80204e-21)
(0.211214 -0.140877 0)
(0.198011 -0.0523013 -4.94114e-21)
(0.313799 -0.0783881 0)
(0.66151 -0.168501 0)
(0.605496 -0.0147645 -2.62314e-20)
(0.672423 0.0323407 -5.52218e-20)
(0.36833 0.0170031 -4.01517e-20)
(0.461634 -0.0523041 -4.70177e-22)
(0.996507 0.0420821 5.77509e-20)
(1.2305 0.0628413 -4.35485e-20)
(1.37624 0.0835475 1.48797e-22)
(1.44748 0.100398 3.48806e-20)
(1.46691 0.1131 1.61138e-20)
(1.45759 0.122044 0)
(1.43668 0.128061 6.26792e-25)
(1.41408 0.131903 -1.42182e-20)
(1.39412 0.13416 -2.70375e-23)
(1.37805 0.135286 0)
(1.36599 0.135633 -1.30555e-20)
(1.35768 0.135466 1.25165e-20)
(1.35272 0.134949 -1.20758e-20)
(1.34997 0.13405 0)
(1.34597 0.132281 7.29547e-26)
(1.33208 0.128315 5.29971e-21)
(1.29244 0.119995 0)
(1.20757 0.105414 0)
(1.06539 0.0847236 0)
(0.871924 0.0609275 3.0449e-24)
(0.650725 0.0377341 -7.16948e-21)
(0.241515 0.00635849 2.5977e-21)
(0.109893 0.000705431 0)
(0.0939003 0.000722773 -1.96182e-21)
(0.0196592 0.000127278 0)
(0.0185672 -0.000141689 -6.6702e-24)
(0.0187137 1.02912e-05 1.11652e-22)
(0.018743 -0.000147021 0)
(0.428381 0.018851 0)
(0.998415 0.00627421 0)
(0.988419 0.0159203 2.89243e-23)
(0.96336 0.0209597 -1.36373e-22)
(0.917864 0.0200518 -7.74888e-20)
(0.838271 0.00850072 0)
(0.700999 -0.0324183 -6.147e-20)
(0.516462 -0.212133 -2.4046e-20)
(0.490498 -0.112386 4.2622e-22)
(0.428461 -0.477778 -2.12561e-20)
(0.320516 -0.365171 2.19073e-20)
(0.282963 -0.48271 3.50269e-21)
(0.440012 -0.595869 -1.06784e-21)
(0.350348 -0.377713 0)
(0.189603 -0.21726 -3.87924e-22)
(0.179233 -0.0103169 1.08433e-20)
(0.316956 0.0140566 0)
(0.230653 0.0236448 -1.4747e-20)
(0.231771 0.046871 2.01709e-20)
(0.477769 0.0727968 -8.1733e-20)
(0.190503 0.0275578 -5.0212e-20)
(0.157495 0.022137 -1.48886e-23)
(0.115941 0.00939754 0)
(0.843176 0.0802811 8.50843e-24)
(1.12175 0.0956548 0)
(1.30682 0.110027 -3.7792e-20)
(1.40703 0.121384 -1.66373e-20)
(1.44502 0.129246 0)
(1.44587 0.134304 -5.68301e-23)
(1.42968 0.137336 -2.80309e-22)
(1.40886 0.138943 -5.37246e-23)
(1.38938 0.139552 0)
(1.37335 0.139473 2.60567e-20)
(1.36123 0.13894 1.26868e-20)
(1.35289 0.138132 1.21393e-20)
(1.34787 0.137138 -1.15381e-23)
(1.34482 0.13584 5.36831e-24)
(1.33982 0.133635 1.07184e-20)
(1.32356 0.129093 0)
(1.28006 0.120075 0)
(1.191 0.104897 0)
(1.04652 0.0840066 0)
(0.854033 0.060073 6.05653e-21)
(0.635056 0.0370058 0)
(0.234897 0.00655559 -3.15743e-22)
(0.112278 0.00211847 -6.37275e-23)
(0.113177 0.00122435 -3.86528e-21)
(0.0524125 0.000157562 1.91015e-23)
(0.0485529 0.000720634 -3.3237e-23)
(0.0320696 0.00244665 3.29989e-21)
(0.0220501 -0.000320417 -1.84502e-21)