/*--------------------------------*- C++ -*----------------------------------*\
| =========                 |                                                 |
| \\      /  F ield         | OpenFOAM: The Open Source CFD Toolbox           |
|  \\    /   O peration     | Version:  v1912                                 |
|   \\  /    A nd           | Website:  www.openfoam.com                      |
|    \\/     M anipulation  |                                                 |
\*---------------------------------------------------------------------------*/
FoamFile
{
    version     2.0;
    format      ascii;
    class       volVectorField;
    location    "150";
    object      U;
}
// * * * * * * * * * * * * * * * * * * * * * * * * * * * * * * * * * * * * * //

dimensions      [0 1 -1 0 0 0 0];


internalField   nonuniform List<vector> 
3754
(
(0.995627 0.00295065 9.66218e-23)
(0.996032 0.00862923 0)
(0.950674 0.0117747 1.48802e-22)
(0.996661 0.0136223 0)
(0.955657 0.0334373 0)
(0.81249 0.037797 -1.95721e-21)
(0.99717 0.0175052 0)
(0.965118 0.05125 -1.17083e-20)
(0.841795 0.0990404 1.3077e-22)
(0.514852 0.0512943 1.07143e-21)
(0.53139 0.146353 9.24192e-22)
(0.997534 0.0200777 -1.5947e-22)
(0.97713 0.0635614 1.16462e-20)
(0.892583 0.145306 0)
(0.578102 0.237191 8.35656e-22)
(0.645841 0.305999 -3.53108e-21)
(0.117563 0.101391 -2.16622e-22)
(0.111434 0.0336281 2.22038e-22)
(0.158247 0.225531 0)
(0.132024 0.166313 0)
(0.997869 0.0214491 0)
(0.988591 0.0710259 4.91892e-22)
(0.934768 0.167119 0)
(0.718381 0.356322 2.65287e-21)
(0.801396 0.380468 -3.94045e-21)
(0.250081 0.312616 -1.08815e-22)
(0.197676 0.276133 2.246e-21)
(0.478209 0.476364 -6.77432e-22)
(0.344911 0.410079 0)
(0.998249 0.0218707 0)
(0.997711 0.0745197 0)
(0.964288 0.167563 -1.57184e-22)
(0.954099 0.447236 -1.01668e-20)
(0.661783 0.550027 8.6577e-22)
(0.575227 0.51745 -7.99523e-22)
(0.778537 0.505398 0)
(0.295542 0.330811 -2.59676e-21)
(0.132589 0.203425 5.7634e-21)
(0.998668 0.0215932 0)
(1.00426 0.0748111 -6.6459e-23)
(0.987331 0.158469 0)
(1.06275 0.423545 1.28219e-20)
(0.888774 0.318591 -1.13746e-21)
(1.06146 0.388036 3.45311e-21)
(0.556104 0.400573 1.11848e-21)
(0.39819 0.34255 -1.01509e-21)
(0.755546 0.377899 -1.84677e-21)
(0.532854 0.271376 1.58088e-21)
(0.999079 0.020801 -1.43561e-23)
(1.00874 0.0725781 0)
(1.00634 0.146929 5.93362e-23)
(1.10632 0.37214 0)
(1.1873 0.309665 -2.11209e-21)
(0.62853 0.0924171 -6.85022e-21)
(0.543758 0.145666 2.04074e-21)
(0.919134 0.143541 7.41206e-21)
(0.240231 0.14989 0)
(0.249539 0.0822455 0)
(0.999438 0.0196128 2.70729e-20)
(1.01183 0.0684359 1.55789e-23)
(1.02198 0.13495 1.98145e-23)
(1.11929 0.315649 -6.74879e-21)
(1.28539 0.300179 0)
(1.01393 0.142168 1.46963e-20)
(0.422336 0.0224875 -4.1496e-22)
(0.270863 0.0193018 1.69491e-22)
(0.37438 0.0482752 -1.34174e-22)
(0.723199 0.0702036 0)
(0.133135 0.00948116 -2.88308e-23)
(0.999729 0.0181102 -2.66665e-20)
(1.01407 0.0629309 0)
(1.03407 0.122713 0)
(1.12219 0.266502 1.26446e-20)
(1.30248 0.276367 8.31247e-24)
(1.26599 0.178443 -1.38753e-20)
(0.822982 0.0511904 -1.46978e-20)
(0.577822 0.0533818 3.86766e-21)
(0.200942 0.00144343 1.62142e-22)
(0.321837 0.0206433 -3.4609e-21)
(0.185892 0.00516656 3.22759e-22)
(0.0823286 0.00206031 6.80346e-23)
(0.999951 0.0163604 0)
(1.01576 0.056485 -2.44688e-20)
(1.04285 0.110108 0)
(1.12313 0.224862 -5.811e-21)
(1.28844 0.247292 0)
(1.35604 0.187331 -2.16728e-20)
(1.15396 0.103727 3.86522e-20)
(0.732613 0.0232966 -2.90832e-20)
(0.462114 0.0147991 0)
(0.492023 0.0168493 1.55645e-23)
(0.0581342 -0.000850239 -1.50911e-22)
(0.266245 0.00403092 -1.9318e-22)
(0.138446 0.00727702 6.35948e-22)
(0.158268 0.00393285 -1.62855e-22)
(0.0574749 0.000228674 -9.35884e-23)
(1.00011 0.0144137 2.58463e-24)
(1.01709 0.0493817 4.60732e-20)
(1.04903 0.0971289 1.70604e-20)
(1.12388 0.188938 0)
(1.26789 0.216543 -2.69732e-24)
(1.36751 0.181217 2.0675e-21)
(1.31695 0.130582 -2.35737e-20)
(1.06254 0.0679253 2.6277e-20)
(0.696129 0.0200623 -3.62698e-21)
(0.448212 0.00913814 4.13154e-22)
(0.443885 0.0033599 -4.15849e-22)
(0.25189 0.00304839 -3.91899e-22)
(0.120318 -0.00126222 -5.82736e-22)
(0.118323 0.00210202 1.00181e-21)
(0.0409969 0.000822878 1.44559e-24)
(0.0493445 0.00017531 -1.43194e-24)
(1.00021 0.0123088 0)
(1.01821 0.0417935 -2.16835e-20)
(1.05339 0.0838855 -1.68243e-20)
(1.12448 0.157474 4.42262e-21)
(1.24974 0.187136 0)
(1.35161 0.167263 2.05861e-20)
(1.37026 0.138223 0)
(1.26265 0.0989653 -5.59506e-24)
(1.0002 0.0521559 2.6502e-20)
(0.666946 0.0210531 3.6318e-21)
(0.450596 0.00967949 6.27286e-21)
(0.451969 0.00640506 0)
(0.268092 0.00286081 -5.41726e-21)
(0.249478 -0.000593362 -2.97219e-24)
(0.11327 0.00193359 2.72189e-22)
(0.114604 -0.000756001 5.53096e-22)
(0.0351588 -0.000508514 8.31345e-23)
(0.0358179 0.000261807 -1.6088e-22)
(1.00026 0.0100725 0)
(1.01921 0.0338284 1.88152e-24)
(1.05653 0.0704609 0)
(1.12497 0.129347 -4.67344e-21)
(1.23577 0.159854 3.34778e-24)
(1.33114 0.151244 0)
(1.37334 0.13528 -5.17379e-24)
(1.34988 0.114279 0)
(1.21327 0.0816265 -2.36631e-20)
(0.951035 0.046474 0)
(0.635995 0.0208897 1.54489e-20)
(0.434734 0.00823498 -3.97924e-22)
(0.441072 0.0081586 -5.8279e-21)
(0.293264 0.00361275 -9.73021e-22)
(0.290204 0.00178749 -3.1827e-22)
(0.14999 0.00411512 1.57477e-20)
(0.130432 -0.00159717 0)
(0.112279 -0.00160481 0)
(0.119235 0.000353332 -2.10317e-21)
(0.0342764 0.000273574 -1.5335e-22)
(0.0349088 -0.000243387 0)
(1.00027 0.00771992 0)
(1.02017 0.0255473 0)
(1.05889 0.0568968 -1.10999e-20)
(1.12556 0.103595 0)
(1.22572 0.13436 0)
(1.31349 0.135216 -3.63332e-20)
(1.36057 0.128203 0)
(1.37245 0.118637 2.13294e-20)
(1.3237 0.100505 0)
(1.16745 0.0731021 2.33288e-20)
(0.908977 0.0434243 0)
(0.343234 0.00532774 -1.88317e-20)
(0.608713 0.0204038 -1.50666e-20)
(0.282853 0.00201854 -9.88838e-22)
(0.289412 0.00354213 -3.24625e-22)
(0.179381 0.00176575 0)
(0.178987 0.00093716 2.94377e-21)
(0.170487 -0.000320323 1.79386e-24)
(0.177364 0.00103115 -1.15838e-22)
(0.0667436 0.00383461 -1.51577e-20)
(0.0442254 -0.000515755 1.48078e-21)
(0.03435 -0.000377949 0)
(0.0382789 -7.01387e-05 7.14101e-24)
(1.00023 0.00525582 5.16491e-25)
(1.02119 0.0169815 0)
(1.06078 0.0432242 1.07351e-20)
(1.12656 0.079432 0)
(1.21923 0.110239 1.89565e-20)
(1.30019 0.119505 3.68387e-20)
(1.34618 0.119867 -4.19481e-20)
(1.36852 0.117427 -6.46888e-20)
(1.36328 0.109329 0)
(1.29352 0.093197 -2.1967e-20)
(1.1253 0.0684414 0)
(0.872679 0.0419309 2.52578e-20)
(0.325557 0.0050594 1.70943e-20)
(0.126244 0.0018803 2.90566e-21)
(0.128664 -0.00069156 -8.58512e-22)
(0.590904 0.0220003 -2.89892e-20)
(0.17037 0.000451087 9.78365e-22)
(0.172214 0.00113515 4.79697e-22)
(0.177065 0.00109976 -1.18354e-22)
(0.176073 0.00169497 1.07246e-21)
(0.103573 0.000515645 0)
(0.103753 0.000314201 -8.10002e-22)
(0.0969463 -0.000298302 3.09333e-21)
(0.102061 0.000265924 -7.92647e-22)
(0.0185144 0.00101594 4.09921e-21)
(1.00017 0.0026752 0)
(1.02233 0.00814058 -1.59638e-20)
(1.06238 0.0294476 -8.713e-21)
(1.12824 0.0561335 -2.31488e-24)
(1.21617 0.0871404 -1.81051e-20)
(1.29132 0.104193 -9.26666e-24)
(1.33453 0.11128 4.16283e-20)
(1.35777 0.114006 1.5466e-22)
(1.36805 0.111981 0)
(1.34756 0.104586 0)
(1.26182 0.0890623 0)
(1.08721 0.0658011 -2.23138e-20)
(0.842509 0.0421943 2.46348e-20)
(0.33028 0.00659694 -1.59027e-23)
(0.122052 0.00167088 0)
(0.120512 -0.000530376 -9.65274e-23)
(0.0288689 0.000420892 1.48991e-22)
(0.0290803 3.25967e-05 0)
(0.0296211 8.15833e-05 7.51075e-23)
(0.0296901 -0.000503297 0)
(0.098015 -0.000402158 0)
(0.574429 0.0208861 -1.44412e-20)
(0.0999809 0.000627423 -4.10111e-22)
(0.102247 0.000357685 2.03152e-22)
(0.101541 0.000519574 0)
(0.0328633 2.46502e-05 0)
(0.0330755 9.39906e-06 0)
(0.0311938 -0.00057084 -2.10051e-21)
(0.0324761 -8.31969e-05 5.32175e-22)
(1.00008 -3.77735e-05 3.42606e-20)
(1.02365 -0.000960091 3.11387e-20)
(1.06379 0.0155343 8.44193e-21)
(1.13086 0.0329678 -2.40171e-24)
(1.21657 0.0647121 8.5095e-24)
(1.28685 0.0893286 -1.5193e-23)
(1.32659 0.102863 4.05132e-20)
(1.34768 0.109957 4.248e-20)
(1.36082 0.111853 -4.33272e-20)
(1.36091 0.109708 0)
(1.32779 0.102131 2.48866e-24)
(1.23069 0.0864093 2.47887e-24)
(1.05335 0.0645254 0)
(0.815537 0.0401749 3.00578e-24)
(0.329257 0.00731882 1.18881e-20)
(0.158239 0.00087314 -3.45444e-22)
(0.136825 0.00101002 6.27941e-21)
(0.0293788 0.000429349 -1.29911e-21)
(0.0274019 -0.000130172 7.60863e-23)
(0.0277071 2.19683e-05 -7.36642e-23)
(0.0276699 -0.000389731 7.38951e-23)
(0.0308314 -0.000279497 -1.72044e-23)
(0.553139 0.0198326 -1.40559e-20)
(0.0317295 6.74637e-05 1.70445e-23)
(0.0324469 7.77505e-06 -1.4447e-22)
(0.0322382 3.66824e-05 8.54709e-24)
(1.00001 -0.00290477 -3.37423e-20)
(1.02522 -0.0102965 -4.59867e-20)
(1.06497 0.00140967 0)
(1.13462 0.00921676 0)
(1.22058 0.0426201 -3.91569e-24)
(1.28685 0.0749504 3.32928e-20)
(1.3226 0.0948181 -3.95477e-20)
(1.34042 0.105936 0)
(1.35189 0.110821 4.27989e-20)
(1.35753 0.11168 2.56285e-24)
(1.34924 0.109004 0)
(1.30642 0.100508 -2.00532e-20)
(1.20125 0.0845766 -2.49849e-24)
(1.02269 0.0618508 2.12337e-20)
(0.788131 0.0381578 0)
(0.314734 0.00687134 1.76025e-20)
(0.156379 0.00296673 0)
(0.159273 0.00110849 6.32216e-21)
(0.0768786 0.00025139 0)
(0.0718265 0.000120225 5.12966e-23)
(0.0492612 0.00289208 -5.26578e-21)
(0.0333007 -0.00059616 1.50616e-21)
(0.531732 0.0187502 0)
(1 -0.00594825 0)
(1.02703 -0.0197998 3.0073e-20)
(1.06573 -0.0130485 0)
(1.13975 -0.0158563 0)
(1.22847 0.0205756 -6.3104e-24)
(1.29147 0.0611186 -6.57043e-20)
(1.32272 0.0872799 3.98713e-20)
(1.33661 0.102228 -1.023e-23)
(1.34483 0.109701 0)
(1.3499 0.112513 5.18731e-24)
(1.34984 0.112392 -2.55664e-24)
(1.33538 0.108627 1.98616e-20)
(1.28492 0.0991319 0)
(1.1736 0.0817855 -1.9543e-20)
(0.993173 0.0590372 -2.06169e-20)
(0.761911 0.0363432 0)
(0.299417 0.00611245 -7.338e-24)
(0.146462 0.00273383 -2.63137e-21)
(0.150074 0.000679205 -3.48993e-22)
(0.0734872 0.0010177 1.09468e-22)
(0.0747876 0.000418201 2.19663e-22)
(0.0765883 0.000607037 -2.17626e-22)
(0.0768252 0.000130251 -8.64272e-22)
(0.0243067 -4.2581e-05 0)
(0.0230724 -0.000498313 0)
(0.0136529 0.000825243 0)
(0.513504 0.0175501 0)
(1.00013 -0.00916834 -3.54183e-20)
(1.02897 -0.0293541 -3.15618e-20)
(1.06573 -0.0280444 1.41386e-20)
(1.14658 -0.0430874 -2.63126e-21)
(1.24075 -0.0016975 2.02547e-20)
(1.30099 0.0479198 3.24097e-20)
(1.32713 0.0803905 -3.88858e-20)
(1.3365 0.0990164 9.86539e-24)
(1.34078 0.108849 1.02267e-23)
(1.34306 0.113164 0)
(1.3437 0.114357 -2.45139e-24)
(1.34003 0.113007 -3.96192e-20)
(1.32071 0.108053 3.81478e-20)
(1.26377 0.0968724 1.86287e-20)
(1.14682 0.078691 3.77714e-20)
(0.965273 0.0564836 0)
(0.738674 0.0345277 2.21682e-20)
(0.287169 0.00555769 3.74221e-21)
(0.138086 0.00243424 0)
(0.140851 0.000352402 1.72796e-22)
(0.0681282 0.000933786 0)
(0.0691888 0.000255034 1.07174e-22)
(0.0706179 0.000540418 0)
(0.0713208 -7.13013e-05 -2.16366e-22)
(0.0229644 0.000115244 -6.33427e-23)
(0.0236406 -5.0408e-06 -9.50788e-23)
(0.0243284 7.30594e-05 9.52702e-23)
(0.0245026 -6.23715e-06 0)
(0.501389 0.0175317 -2.53841e-20)
(1.00046 -0.0125294 3.48783e-20)
(1.03072 -0.0387975 3.08494e-20)
(1.06455 -0.0439589 8.49907e-22)
(1.1558 -0.073477 2.50317e-21)
(1.25831 -0.0244448 -6.27752e-20)
(1.31596 0.0354473 0)
(1.33619 0.0743034 9.24453e-25)
(1.34036 0.0964661 0)
(1.3402 0.10847 4.23397e-20)
(1.33879 0.114056 4.19753e-20)
(1.33716 0.115997 0)
(1.3355 0.115681 3.92686e-20)
(1.3294 0.113106 -7.5789e-20)
(1.30572 0.106573 -1.83182e-20)
(1.24268 0.0940997 -1.79794e-20)
(1.12117 0.0757566 0)
(0.939888 0.0540407 -1.93684e-20)
(0.719368 0.0335742 2.14521e-20)
(0.284787 0.00589165 0)
(0.132074 0.00234996 -5.43588e-21)
(0.133532 0.000249231 0)
(0.0639823 0.000840389 0)
(0.064783 0.00017774 -1.05642e-22)
(0.0658797 0.000459294 -1.06039e-22)
(0.0663817 -0.000173012 0)
(0.0211731 0.00010491 0)
(0.0217246 -2.98255e-05 6.22629e-23)
(0.0222286 7.58301e-05 0)
(0.0223429 -4.24569e-05 1.2537e-22)
(0.493087 0.0167702 2.46515e-20)
(1.001 -0.0159376 -3.82736e-20)
(1.03178 -0.0479751 -3.41151e-20)
(1.06193 -0.0614398 -1.41138e-20)
(1.16875 -0.108248 4.99023e-22)
(1.28263 -0.0478505 -6.08128e-21)
(1.33733 0.0238353 -7.45553e-20)
(1.35051 0.0691896 -4.12306e-20)
(1.34862 0.0947447 -9.96322e-24)
(1.34346 0.108724 -4.16151e-20)
(1.33781 0.115395 -4.14366e-20)
(1.33275 0.117814 9.67866e-24)
(1.32937 0.117856 -3.91049e-20)
(1.32664 0.116221 -2.87844e-23)
(1.31838 0.11227 -2.25893e-24)
(1.29035 0.104416 0)
(1.22197 0.0912769 0)
(1.09726 0.0729161 0)
(0.917315 0.0521318 0)
(0.703117 0.0321017 2.07433e-20)
(0.289747 0.00585802 -2.70424e-20)
(0.140447 0.00304315 3.23574e-22)
(0.132071 -0.00020458 2.33464e-21)
(0.0609114 0.000789209 -4.11722e-22)
(0.0612128 0.000157547 0)
(0.0621409 0.000439842 0)
(0.0625056 -0.000172385 -1.03281e-22)
(0.01985 9.53945e-05 0)
(0.0202907 -3.57216e-05 0)
(0.0206733 7.1139e-05 3.06578e-23)
(0.0207034 -5.34226e-05 -3.04692e-23)
(0.482486 0.01613 2.39519e-20)
(1.00171 -0.0192551 3.7669e-20)
(1.03153 -0.0568032 -2.64288e-21)
(1.05817 -0.081403 4.37009e-24)
(1.18737 -0.148739 -4.69711e-22)
(1.31533 -0.0719454 4.5157e-20)
(1.36601 0.013307 -7.23308e-21)
(1.37073 0.0652634 4.00338e-20)
(1.36184 0.0940439 3.03642e-23)
(1.35103 0.109773 -4.23339e-20)
(1.3406 0.117324 4.16315e-20)
(1.3315 0.120039 4.03667e-20)
(1.32491 0.120119 7.75627e-20)
(1.32106 0.118666 3.7268e-20)
(1.31755 0.11578 3.58062e-20)
(1.307 0.110672 -4.11791e-24)
(1.27489 0.102002 0)
(1.20216 0.0884331 0)
(1.07528 0.0703713 0)
(0.897213 0.0499426 -3.62047e-20)
(0.687103 0.0305738 -2.02006e-20)
(0.285365 0.00611998 -6.36609e-24)
(0.156012 0.00274302 0)
(0.152543 0.000647106 -2.39476e-21)
(0.0775594 0.0026476 -6.31491e-21)
(0.0681342 -0.000277835 0)
(0.0633643 0.000181194 -6.60263e-21)
(0.0607146 -0.000477422 0)
(0.0187954 8.32018e-05 2.37992e-22)
(0.0191179 -3.59149e-05 0)
(0.019457 7.15927e-05 -2.99578e-23)
(0.0194634 -4.84981e-05 8.956e-23)
(0.469983 0.015485 -5.55098e-24)
(1.00243 -0.0223077 0)
(1.02952 -0.0653103 3.54655e-20)
(1.05424 -0.1048 5.25398e-24)
(1.213 -0.196082 -3.65437e-24)
(1.35661 -0.0965442 6.0281e-20)
(1.40129 0.00430876 7.60785e-20)
(1.39632 0.0628319 0)
(1.37992 0.0946056 2.0508e-23)
(1.3631 0.111799 8.38921e-20)
(1.34751 0.119977 -4.0973e-20)
(1.33395 0.122803 -3.98768e-20)
(1.3235 0.122737 -3.84232e-20)
(1.31666 0.121108 -3.69671e-20)
(1.31267 0.118422 -3.5506e-20)
(1.30829 0.11453 0)
(1.29546 0.108675 4.10103e-24)
(1.25978 0.0994329 0)
(1.1835 0.0856887 0)
(1.05516 0.0676841 7.73386e-23)
(0.878301 0.0476927 0)
(0.670991 0.0292417 0)
(0.276632 0.0059629 6.4827e-24)
(0.152242 0.00304585 8.63646e-24)
(0.154312 0.00115013 -1.18959e-21)
(0.0938231 0.00127654 0)
(0.093515 0.000615927 9.48171e-23)
(0.0920381 0.00051495 -9.28136e-23)
(0.0883065 -0.000188169 2.95456e-21)
(0.0339095 0.00233262 4.05285e-21)
(0.0229304 -0.000224113 0)
(0.0204892 -8.5737e-05 1.93423e-21)
(0.0188677 -0.000129499 1.19597e-22)
(0.457588 0.0147743 -1.12377e-20)
(1.00294 -0.0248891 -1.73578e-22)
(1.02554 -0.073512 0)
(1.0509 -0.132399 2.34267e-20)
(1.24409 -0.251142 -3.16885e-21)
(1.40206 -0.120505 -5.74085e-20)
(1.43766 -0.00246177 -1.87723e-23)
(1.42282 0.0623504 8.96586e-20)
(1.40014 0.0967158 -2.04927e-23)
(1.3784 0.115006 -1.26693e-19)
(1.35818 0.123497 4.13619e-20)
(1.34025 0.126219 -1.98096e-23)
(1.32571 0.12585 3.72302e-23)
(1.31516 0.123854 3.65746e-20)
(1.30846 0.12094 -3.509e-20)
(1.30434 0.117328 0)
(1.29902 0.112796 0)
(1.28409 0.106424 -3.11013e-20)
(1.24527 0.0968069 0)
(1.16603 0.0828358 1.52576e-20)
(1.0363 0.0649641 1.56733e-20)
(0.860205 0.045691 0)
(0.655658 0.0280182 0)
(0.267703 0.00551819 1.1002e-20)
(0.146631 0.00268206 0)
(0.148432 0.00102399 -2.98428e-22)
(0.0903352 0.00137691 3.73879e-22)
(0.091356 0.000771347 3.75868e-22)
(0.0924955 0.000892636 3.75977e-22)
(0.0929502 0.000301214 7.51681e-22)
(0.0533558 0.000370796 -7.8716e-23)
(0.0535551 0.000197399 2.43821e-22)
(0.0523874 0.000143715 0)
(0.0496208 -5.12693e-05 1.93703e-23)
(0.00936699 0.000623467 -4.26582e-22)
(0.446456 0.0141246 0)
(1.00309 -0.0267324 -4.8132e-20)
(1.01936 -0.0809298 1.64854e-22)
(1.04671 -0.164488 -2.25759e-20)
(1.27328 -0.314275 2.96854e-21)
(1.43852 -0.140013 -1.47367e-23)
(1.46033 -0.00583494 -2.24367e-23)
(1.43761 0.0643539 5.67657e-21)
(1.41366 0.100605 2.08033e-23)
(1.39158 0.11953 8.37555e-20)
(1.36983 0.127995 -1.23272e-19)
(1.34924 0.130387 0)
(1.33135 0.129555 3.77853e-20)
(1.31716 0.127056 -9.2367e-25)
(1.30698 0.123695 6.94023e-20)
(1.30048 0.119875 8.32926e-24)
(1.29617 0.115695 7.60559e-24)
(1.28997 0.11075 3.07263e-20)
(1.27309 0.104015 -3.53998e-24)
(1.23146 0.0940532 -2.89752e-20)
(1.14951 0.0799512 -1.46145e-20)
(1.01846 0.0624812 0)
(0.843281 0.0439046 0)
(0.641777 0.0269225 0)
(0.259738 0.00515309 6.13017e-24)
(0.140772 0.00271294 0)
(0.143151 0.000739067 2.59868e-21)
(0.0862041 0.000336024 0)
(0.0872188 0.000434369 0)
(0.088156 0.000784839 0)
(0.0888997 0.000255189 7.38337e-22)
(0.0510512 0.000401767 0)
(0.0519652 0.000275592 -2.41829e-22)
(0.0526871 0.000273982 0)
(0.0528906 0.000135618 1.59626e-22)
(0.0166429 2.40923e-05 1.10826e-22)
(0.0168679 1.32516e-06 -1.92906e-22)
(0.0164459 -6.20219e-05 -2.69882e-23)
(0.0158208 -0.000341476 8.4493e-22)
(0.4374 0.0135767 1.04389e-20)
(1.00296 -0.0274913 9.88512e-20)
(1.01027 -0.0858929 -1.78676e-22)
(1.0361 -0.198945 0)
(1.284 -0.381495 4.59403e-21)
(1.44081 -0.149682 0)
(1.44062 -0.00360482 -2.75195e-23)
(1.41587 0.0691511 -9.41545e-20)
(1.40167 0.106142 0)
(1.38972 0.125179 -2.15385e-23)
(1.37442 0.133376 8.17331e-20)
(1.35645 0.135301 -3.71121e-23)
(1.33828 0.133901 -3.73059e-20)
(1.32197 0.130796 0)
(1.30872 0.12686 -9.2597e-23)
(1.29907 0.122586 -8.22384e-24)
(1.2928 0.118228 3.13924e-20)
(1.28834 0.113716 -7.55972e-24)
(1.28127 0.108498 2.89969e-20)
(1.26253 0.101455 2.82877e-20)
(1.21825 0.0912479 0)
(1.13382 0.0772587 0)
(1.00178 0.0602621 0)
(0.827809 0.0423299 0)
(0.629795 0.0260137 0)
(0.253574 0.00491118 -1.18548e-20)
(0.13588 0.00252657 0)
(0.137651 0.000730817 1.27096e-21)
(0.0643518 0.000510283 1.98063e-22)
(0.0657551 2.8668e-05 -1.91187e-22)
(0.0488703 -0.00047664 -8.08208e-23)
(0.049844 3.36416e-05 -1.13471e-25)
(0.0500066 0.000210588 7.91119e-23)
(0.0503109 0.000120687 -3.9703e-22)
(0.0158044 3.02967e-05 -2.74109e-23)
(0.0162036 1.52313e-05 -2.75389e-23)
(0.0164609 1.63506e-05 0)
(0.0164675 -5.50125e-06 -1.10322e-22)
(0.431558 0.0133591 0)
(1.00263 -0.0267582 -5.01464e-20)
(0.997937 -0.0867092 0)
(1.00931 -0.227279 4.49276e-20)
(1.24774 -0.439995 -4.46316e-21)
(1.3708 -0.150717 2.84665e-23)
(1.33406 0.00619228 -1.30582e-19)
(1.32029 0.076047 7.79165e-23)
(1.33448 0.11225 -4.94115e-23)
(1.35032 0.130952 0)
(1.35597 0.138969 8.43268e-20)
(1.35146 0.140609 -3.71191e-23)
(1.34035 0.138751 -7.42308e-20)
(1.32639 0.135059 3.52826e-20)
(1.31246 0.130499 -8.98704e-23)
(1.3005 0.125652 0)
(1.29153 0.120855 -3.10839e-20)
(1.28556 0.116212 3.54208e-25)
(1.28093 0.11151 -2.8715e-20)
(1.27296 0.106087 3.45044e-24)
(1.25237 0.0988273 2.67683e-20)
(1.2056 0.0885786 0)
(1.11904 0.0748273 0)
(0.986369 0.0583041 0)
(0.813941 0.0410206 -1.48571e-20)
(0.620052 0.0254798 -1.65553e-20)
(0.251894 0.00475529 2.85732e-21)
(0.132535 0.00243218 2.74764e-21)
(0.13336 0.000640668 -3.06155e-22)
(0.0618248 0.000459086 0)
(0.0629152 0.000141581 -1.09094e-21)
(0.0145303 0.000195268 -2.88388e-23)
(0.0146733 -0.000116879 5.74004e-23)
(0.0147782 -0.000246073 -5.8677e-23)
(0.0148936 0.000148143 -4.80595e-26)
(0.0151115 -0.000216283 5.32837e-23)
(0.0155341 -2.9708e-05 2.68033e-23)
(0.0155346 1.39746e-05 -5.37426e-23)
(0.0155667 -6.7572e-06 5.40048e-23)
(0.428642 0.0135851 1.9088e-20)
(1.00164 -0.0243697 0)
(0.983414 -0.0834339 -5.96691e-20)
(0.954301 -0.236529 -7.03704e-20)
(1.12773 -0.483016 -6.09649e-21)
(1.17228 -0.144205 5.16456e-21)
(1.08696 0.0211972 1.49669e-19)
(1.11042 0.0820764 -6.79339e-23)
(1.17874 0.116012 -5.61647e-23)
(1.24489 0.134468 4.54483e-23)
(1.29114 0.14303 -8.69027e-20)
(1.31651 0.145204 -3.77577e-23)
(1.32521 0.143493 7.43913e-20)
(1.32263 0.139561 3.49955e-20)
(1.31385 0.134528 -3.33342e-20)
(1.30289 0.129122 0)
(1.29255 0.123785 1.45205e-23)
(1.28443 0.118736 0)
(1.27878 0.113961 2.80972e-20)
(1.27394 0.109153 0)
(1.26499 0.103607 -2.63427e-20)
(1.24259 0.09629 -3.18977e-24)
(1.19357 0.0861358 0)
(1.10523 0.0726641 0)
(0.97223 0.0566464 1.32761e-20)
(0.801706 0.0400732 1.42914e-20)
(0.612158 0.0252871 1.59261e-20)
(0.256852 0.00525653 -2.6681e-20)
(0.134961 0.00229464 9.31562e-21)
(0.132095 0.000399134 -4.76536e-21)
(0.0599654 0.000431112 -1.98842e-21)
(0.0606532 0.000129985 -6.28717e-23)
(0.013904 0.000184726 -2.80787e-23)
(0.0140256 -0.000122293 2.7984e-23)
(0.0142407 -0.000171287 5.68135e-23)
(0.01425 0.000146416 0)
(0.424995 0.0134461 0)
(1.00009 -0.0202719 0)
(0.966213 -0.073528 -4.83355e-21)
(0.941359 -0.170294 2.1969e-20)
(0.918109 -0.169854 2.48189e-20)
(0.960893 -0.552849 1.06113e-20)
(0.855945 -0.541733 2.03997e-20)
(0.865808 -0.292247 2.68676e-20)
(1.06346 -0.199812 1.37121e-19)
(0.8985 -0.472021 4.62534e-24)
(0.781447 -0.135117 -8.5049e-20)
(0.663075 0.0355295 0)
(0.636072 0.0124478 -6.62793e-20)
(0.769718 0.0827134 1.45565e-22)
(0.917899 0.11222 1.20401e-22)
(1.05244 0.131705 -5.1206e-23)
(1.15695 0.142446 -3.85862e-24)
(1.22983 0.146849 3.95344e-23)
(1.2746 0.146667 -7.61979e-20)
(1.29702 0.143454 -1.10289e-22)
(1.30367 0.138516 0)
(1.30074 0.132833 3.13384e-20)
(1.29326 0.127041 0)
(1.28487 0.121508 -1.44347e-23)
(1.27774 0.116377 -2.77918e-20)
(1.27244 0.11157 2.66065e-20)
(1.26731 0.106736 -6.15882e-24)
(1.25735 0.101193 2.48658e-20)
(1.23323 0.0939403 0)
(1.18222 0.0839425 0)
(1.09237 0.0708023 0)
(0.959313 0.0553336 -1.26698e-20)
(0.790821 0.0394143 -1.37386e-20)
(0.604449 0.0248457 0)
(0.258181 0.00552598 0)
(0.148491 0.00227662 0)
(0.142082 0.00164859 8.7146e-21)
(0.0627652 5.77054e-05 -1.18922e-20)
(0.0597358 -2.98847e-06 0)
(0.0133746 0.000172203 -2.74182e-23)
(0.0134579 -0.000120194 -2.7858e-25)
(0.0136448 -0.000165905 5.535e-23)
(0.0136662 0.00014269 2.73977e-23)
(0.418779 0.0133949 0)
(0.998412 -0.0145318 -5.16644e-22)
(0.951869 -0.0566649 6.62729e-20)
(0.893553 -0.154859 -2.48227e-20)
(0.871583 -0.137828 -2.98461e-20)
(0.823906 -0.26654 4.83971e-22)
(0.755312 -0.525387 -3.09526e-20)
(0.640684 -0.49737 -1.48108e-21)
(0.82003 -0.599835 1.88962e-21)
(0.586101 -0.186715 2.37886e-20)
(0.258529 -0.0997625 -1.91958e-21)
(0.440446 -0.261936 3.15797e-21)
(0.219913 -0.00705945 -3.94978e-21)
(0.276641 0.0275061 -3.15991e-20)
(0.476075 0.0163969 3.56755e-20)
(0.31004 0.0565726 1.06795e-19)
(0.356113 0.0740227 4.82512e-20)
(0.20786 0.0140016 -1.02662e-19)
(0.282596 0.0149833 -6.63511e-23)
(0.583703 0.0952277 -1.74198e-22)
(0.781636 0.117874 -1.35113e-22)
(0.946509 0.133236 5.52883e-23)
(1.0759 0.142282 -8.98941e-23)
(1.16995 0.145795 8.04202e-20)
(1.23192 0.145028 -7.26096e-20)
(1.26753 0.141412 0)
(1.28366 0.136217 -3.13986e-20)
(1.28708 0.13038 -7.94741e-25)
(1.28355 0.124521 0)
(1.27741 0.118983 0)
(1.27142 0.113887 -2.63505e-20)
(1.26646 0.109134 0)
(1.26101 0.104379 -2.45676e-20)
(1.25005 0.0989402 2.96209e-24)
(1.22435 0.091816 0)
(1.17152 0.0820329 2.74975e-24)
(1.08039 0.0692685 -1.15796e-20)
(0.94744 0.0543036 0)
(0.780496 0.038698 0)
(0.595691 0.0245323 0)
(0.254192 0.00560706 0)
(0.149397 0.00300239 2.11828e-21)
(0.149778 0.00129551 0)
(0.0831087 0.000584462 1.80023e-21)
(0.0747972 0.00070341 5.5895e-23)
(0.0160653 0.000504017 4.24343e-21)
(0.0141821 -0.00032808 -5.92423e-23)
(0.0131434 -0.000194569 -2.70824e-23)
(0.013435 0.000111616 8.23414e-23)
(0.411059 0.0133194 0)
(0.996751 -0.00751712 6.27043e-20)
(0.942384 -0.0334782 5.33961e-22)
(0.85208 -0.112898 3.02135e-20)
(0.836745 -0.085691 6.22657e-22)
(0.772738 -0.247517 -3.59186e-20)
(0.723923 -0.215644 7.52167e-20)
(0.68691 -0.42332 4.93696e-23)
(0.73407 -0.437698 9.719e-21)
(0.458773 -0.442603 -2.22951e-21)
(0.516821 -0.437915 7.79686e-23)
(0.605878 -0.554182 1.02678e-20)
(0.274513 -0.242674 0)
(0.0721161 0.0214347 -2.0628e-20)
(0.126492 0.013312 9.57339e-23)
(0.070207 0.0263926 -9.33932e-20)
(0.128218 0.0491231 9.13667e-20)
(0.272546 0.0628845 0)
(0.137249 0.0291369 -8.63202e-20)
(0.0532231 0.00235676 8.17658e-20)
(0.486236 0.0902877 0)
(0.684802 0.112402 0)
(0.859638 0.128324 0)
(1.00335 0.137874 1.28385e-22)
(1.11283 0.141784 -3.64304e-23)
(1.18925 0.14137 0)
(1.23712 0.138066 0)
(1.26274 0.133107 2.97731e-23)
(1.27286 0.127449 -1.40709e-23)
(1.27368 0.121734 -2.66902e-20)
(1.27008 0.116329 0)
(1.26536 0.111365 0)
(1.26079 0.106763 -5.74891e-24)
(1.25502 0.102172 -5.5678e-24)
(1.24311 0.0968961 0)
(1.21592 0.0899538 0)
(1.16144 0.0804301 2.20169e-20)
(1.0692 0.0680211 0)
(0.936217 0.0533608 0)
(0.769982 0.0381351 0)
(0.586124 0.024343 -1.43571e-20)
(0.248353 0.0054692 1.21759e-21)
(0.145971 0.00295089 2.0583e-21)
(0.147594 0.00148377 0)
(0.083293 0.000928458 -1.98649e-21)
(0.0839826 0.000506645 -2.51441e-22)
(0.0394727 0.000323073 0)
(0.0385381 -1.64432e-06 -1.19101e-21)
(0.0246194 0.00169274 -1.43157e-20)
(0.0361485 0.000135342 0)
(0.402783 0.0132464 8.32066e-21)
(0.995347 0.000109925 -1.25471e-19)
(0.933908 -0.00516042 -3.06378e-21)
(0.825896 -0.0580465 0)
(0.819464 -0.0370399 -4.37132e-20)
(0.685577 -0.166704 -4.1352e-20)
(0.658289 -0.108557 -6.56276e-22)
(0.630292 -0.397832 -1.24259e-20)
(0.5748 -0.367933 1.10152e-20)
(0.484049 -0.29122 1.46301e-20)
(0.52475 -0.331503 -1.32085e-20)
(0.532523 -0.543585 -2.2927e-22)
(0.401126 -0.436894 2.58185e-21)
(0.0219156 0.00736294 -4.49539e-20)
(-0.000165339 0.0105365 1.37905e-21)
(0.00816675 -0.00251999 -1.67326e-21)
(0.026023 0.016355 -5.3606e-20)
(0.0794768 0.0237188 -1.18596e-22)
(0.24111 0.0531421 0)
(0.0516775 0.0152416 1.66081e-20)
(0.00287693 -0.00823137 -5.23635e-20)
(0.0103122 0.000978004 2.30349e-20)
(0.425234 0.0809687 0)
(0.613005 0.104018 1.16833e-22)
(0.78791 0.120807 9.55244e-23)
(0.938538 0.131221 -4.62854e-23)
(1.05869 0.136038 3.74071e-23)
(1.14701 0.136496 -6.58469e-20)
(1.20606 0.133902 0)
(1.24098 0.129486 2.67442e-23)
(1.25806 0.124225 5.3151e-20)
(1.26355 0.118809 0)
(1.26278 0.113648 0)
(1.2595 0.108913 0)
(1.25539 0.10454 5.70351e-24)
(1.24935 0.100168 2.22428e-25)
(1.23653 0.0950986 0)
(1.20794 0.0883781 0)
(1.15194 0.0791138 0)
(1.05861 0.0669539 0)
(0.925209 0.0526156 0)
(0.759221 0.0377837 2.4867e-23)
(0.576222 0.0242293 -6.91648e-21)
(0.242104 0.00538603 1.1774e-21)
(0.141785 0.00279711 -2.00014e-21)
(0.143593 0.0013663 0)
(0.0808092 0.000867345 -1.93986e-21)
(0.0820981 0.000559002 0)
(0.0385899 0.000438955 0)
(0.0389351 7.76785e-06 2.99376e-22)
(0.0393026 -9.84817e-05 6.01973e-22)
(0.0393654 0.000345769 -3.00747e-22)
(0.0122125 4.61314e-05 -2.25828e-23)
(0.0119977 -6.72313e-05 -7.16815e-22)
(0.00675585 0.00047014 5.63309e-21)
(0.0115266 -0.000266889 0)
(0.394395 0.0132379 0)
(0.994227 0.00765206 6.26431e-20)
(0.93589 0.0265314 -7.84773e-20)
(0.752136 0.0786329 3.61008e-20)
(0.639737 -0.0410711 0)
(0.635428 0.041816 0)
(0.451737 -0.241627 0)
(0.424351 -0.187782 1.88508e-20)
(0.383472 -0.073437 0)
(0.401628 -0.131145 -1.89964e-20)
(0.395207 -0.476432 2.36746e-20)
(0.309382 -0.381581 -2.04764e-20)
(0.202714 -0.303846 -1.9175e-20)
(0.256002 -0.350866 -4.32994e-22)
(0.331056 -0.428455 1.48111e-21)
(-0.00713386 0.00527783 -2.44323e-20)
(0.00544985 0.00115123 0)
(0.00988241 0.00990764 6.99124e-23)
(0.0802895 0.0201749 -5.02509e-20)
(0.0181962 0.00151969 1.6985e-20)
(0.215892 0.0462162 1.88495e-19)
(0.0196193 0.00360312 -8.25555e-23)
(0.0151166 0.00771568 1.53214e-22)
(-0.00612121 -0.00195134 1.24614e-20)
(0.00101986 -6.89265e-05 8.87822e-22)
(0.381017 0.0726835 0)
(0.556623 0.0952559 -1.22328e-22)
(0.727089 0.112299 9.78376e-20)
(0.880079 0.12351 -2.70907e-24)
(1.0074 0.129411 7.13324e-20)
(1.10539 0.130922 1.79558e-24)
(1.17454 0.129245 0)
(1.21845 0.125555 -2.68644e-20)
(1.24262 0.120847 0)
(1.25309 0.115853 0)
(1.25541 0.111037 -2.313e-20)
(1.25375 0.106609 0)
(1.25022 0.102518 5.20933e-24)
(1.24396 0.0984028 5.2632e-24)
(1.23029 0.0935748 0)
(1.20038 0.0870867 -2.01499e-20)
(1.14292 0.0780324 0)
(1.04835 0.0661274 0)
(0.91429 0.052138 1.82532e-23)
(0.748408 0.037599 0)
(0.566293 0.0242163 0)
(0.235805 0.00538468 0)
(0.137535 0.00274604 -1.93763e-21)
(0.139363 0.00133003 0)
(0.078169 0.000796209 -3.16012e-22)
(0.0794359 0.000493805 2.09832e-22)
(0.0371171 0.000416609 0)
(0.0374765 -1.00289e-05 3.64663e-22)
(0.0380722 -8.8778e-05 -7.35064e-23)
(0.0379234 0.000339876 7.48054e-25)
(0.0118617 5.68205e-05 0)
(0.0120436 -2.32976e-05 0)
(0.0121554 -3.82844e-05 2.28269e-23)
(0.0121832 4.71972e-05 0)
(0.38622 0.0133045 0)
(0.993474 0.0146342 0)
(0.94279 0.0537084 3.89929e-21)
(0.806029 0.150418 9.60014e-22)
(0.389125 0.287633 -1.91272e-20)
(0.511945 0.377042 -2.04041e-21)
(0.371867 -0.0143163 0)
(0.371697 0.0426276 0)
(0.415829 0.15445 1.83683e-21)
(0.385086 0.100929 0)
(0.161994 -0.24349 -1.49769e-21)
(0.132024 -0.176406 -1.51695e-21)
(0.0979599 -0.0416196 -2.6864e-20)
(0.110918 -0.10861 2.58778e-20)
(0.150181 -0.254933 -1.54292e-21)
(-0.00818696 -0.000491871 -1.42299e-20)
(-0.00166388 -0.001449 0)
(0.00538237 0.000736908 -1.38887e-22)
(-0.0004969 0.00263644 1.22161e-20)
(0.000774474 0.000272767 -1.33706e-20)
(0.0202141 0.00918201 -1.46547e-20)
(0.0743518 0.0177288 -1.88893e-19)
(0.0217541 0.00145699 7.76971e-20)
(0.00188725 0.000541797 -1.1999e-20)
(0.0039292 -0.00151313 -1.87453e-20)
(0.195723 0.0412715 0)
(0.00247601 -0.000684163 -1.54154e-20)
(0.345801 0.0653516 0)
(0.509725 0.0867072 -2.31092e-19)
(0.674031 0.103622 4.48042e-23)
(0.826743 0.115506 7.93871e-20)
(0.958702 0.122388 0)
(1.0645 0.124987 3.05025e-23)
(1.14269 0.124315 0)
(1.19522 0.121468 -4.99344e-23)
(1.22652 0.117427 0)
(1.24221 0.112958 2.13485e-22)
(1.24788 0.108568 0)
(1.24807 0.104505 1.02472e-23)
(1.24523 0.100733 -2.0685e-20)
(1.23883 0.0969068 -4.8293e-24)
(1.22435 0.0923343 1.97007e-20)
(1.19317 0.0860598 0)
(1.13422 0.0772225 -1.92721e-20)
(1.03832 0.0656045 1.97117e-20)
(0.903507 0.051903 0)
(0.737688 0.0375788 0)
(0.556608 0.0243239 0)
(0.22964 0.00542519 0)
(0.133295 0.00273553 0)
(0.135114 0.00135271 -9.50763e-22)
(0.0755777 0.000779725 1.01969e-22)
(0.0768302 0.000481825 1.02571e-22)