/*--------------------------------*- C++ -*----------------------------------*\
| =========                 |                                                 |
| \\      /  F ield         | OpenFOAM: The Open Source CFD Toolbox           |
|  \\    /   O peration     | Version:  v1912                                 |
|   \\  /    A nd           | Website:  www.openfoam.com                      |
|    \\/     M anipulation  |                                                 |
\*---------------------------------------------------------------------------*/
FoamFile
{
    version     2.0;
    format      ascii;
    class       volScalarField;
    location    "120";
    object      p;
}
// * * * * * * * * * * * * * * * * * * * * * * * * * * * * * * * * * * * * * //

dimensions      [0 2 -2 0 0 0 0];


internalField   nonuniform List<scalar> 
3754
(
0.00159107
0.00169825
0.00154157
0.00181306
0.00164637
0.00150376
0.00191358
0.00176118
0.00160563
0.00146121
0.00199901
0.00186214
0.00171548
0.00156089
0.00142237
0.0020638
0.0019508
0.00181234
0.00167045
0.00152098
0.00138403
0.00209861
0.00202068
0.00190161
0.00176982
0.00162792
0.00148217
0.00134263
0.00209295
0.00206482
0.00197752
0.00185916
0.00172219
0.00158777
0.00143987
0.00130417
0.00204562
0.00207523
0.00203098
0.00193414
0.00180782
0.0016809
0.001545
0.00140005
0.00126605
0.00195396
0.00204617
0.00205594
0.00198832
0.00188153
0.00176598
0.00163857
0.00150315
0.00136055
0.00122702
0.00182654
0.00197627
0.00205051
0.00201794
0.0019354
0.00183638
0.00172263
0.0015937
0.00146258
0.00132153
0.00118771
0.00167761
0.00186394
0.00201873
0.00202121
0.0019632
0.00188604
0.00179175
0.00167483
0.00155389
0.00142159
0.00128002
0.00115283
0.00155756
0.00170375
0.00196436
0.00199773
0.00196034
0.00191139
0.00183977
0.00174341
0.0016342
0.00150768
0.00137926
0.0012435
0.0011147
0.00158404
0.00151251
0.00141177
0.00188819
0.00194837
0.00192646
0.00190751
0.001862
0.00179149
0.00169932
0.00158653
0.00146834
0.00134023
0.00120392
0.0010786
0.00156297
0.00131303
0.00178256
0.00154817
0.00145262
0.00187911
0.00186751
0.00187444
0.00185614
0.00181455
0.00174529
0.00165297
0.00154548
0.00142374
0.00129924
0.00116602
0.00104058
0.00147994
0.00110374
0.00167067
0.00177883
0.00169106
0.00147092
0.00143417
0.00151735
0.00178993
0.00181311
0.00182131
0.00180861
0.00176568
0.00169803
0.00160675
0.00149809
0.00138294
0.00125852
0.00112819
0.0010004
0.0014626
0.00143791
0.00073151
0.00163435
0.00164595
0.0016991
0.00166449
0.00161095
0.00151208
0.00147371
0.00151003
0.00148142
0.00173246
0.00176347
0.00177396
0.00175778
0.00171762
0.0016496
0.00155873
0.00145636
0.00133855
0.00121922
0.00108555
0.000967603
0.00143171
0.00187333
0.00018726
0.00154783
0.00156948
0.00158801
0.00161358
0.00164379
0.00161675
0.00159225
0.0015473
0.00153251
0.00155803
0.00199719
0.00141296
0.00142699
0.00168524
0.00171255
0.00172282
0.0017103
0.00166786
0.00160004
0.00151581
0.00140947
0.00129731
0.0011763
0.00105177
0.000931064
0.00180922
-0.000527023
0.00153056
0.00151308
0.00153902
0.0015487
0.00156526
0.00157467
0.00159509
0.00157106
0.00155774
0.00155458
0.00153862
0.00150466
0.00150889
0.00163601
0.0016678
0.00167597
0.00165938
0.00161848
0.00155529
0.00146663
0.00136573
0.0012541
0.00113847
0.00101417
0.000899832
0.00151968
0.00152009
0.00152431
0.00153271
0.00153132
0.00152939
0.00154782
0.00152044
0.00151436
0.00151889
0.00151494
0.00152342
0.0015242
0.00159301
0.00161543
0.00162473
0.0016115
0.00157059
0.00150441
0.00142027
0.00132
0.0012119
0.00110133
0.000980993
0.000871091
0.00150434
0.00151055
0.00150099
0.00149129
0.00148813
0.00148589
0.00150551
0.00147227
0.0014654
0.00147316
0.00147377
0.00149741
0.00149175
0.00154005
0.00157042
0.00157834
0.00156014
0.00152101
0.00145697
0.00137204
0.00127632
0.00117491
0.00106462
0.000949679
0.000837581
0.00148055
0.00146969
0.00145625
0.00144804
0.00144191
0.0014411
0.00145547
0.00142864
0.00142288
0.0014242
0.00142893
0.00145345
0.00144832
0.00149886
0.00152138
0.00152644
0.00151266
0.00147068
0.00140622
0.00132572
0.00123619
0.00113484
0.00103111
0.000917573
0.000811237
0.00143187
0.00142754
0.00141255
0.00139661
0.00139342
0.0013986
0.00141605
0.00137876
0.00137909
0.00138405
0.00138423
0.00140223
0.00140668
0.0014492
0.00147281
0.00147905
0.00146184
0.00141867
0.00135583
0.00128167
0.00119403
0.00109967
0.000999637
0.000888037
0.000786099
0.00139027
0.00137274
0.0013614
0.00135589
0.0013538
0.00135593
0.00136635
0.00133896
0.00133224
0.00133462
0.00134426
0.00136081
0.00136273
0.00140253
0.00142407
0.00143092
0.00140887
0.00136587
0.00130787
0.00123704
0.0011564
0.00106694
0.000967598
0.000862623
0.000761187
0.00133996
0.00133557
0.00132254
0.0013137
0.0013089
0.00131157
0.00132419
0.00129221
0.00129017
0.00129485
0.00129695
0.00131185
0.00132103
0.00135636
0.00137925
0.00137745
0.00135398
0.0013117
0.00125954
0.00119831
0.00112414
0.00103484
0.000940841
0.000835629
0.000738128
0.00130255
0.001292
0.00127693
0.00126895
0.00126955
0.00126954
0.00127764
0.00124917
0.00124651
0.00124614
0.00126213
0.00127361
0.00127365
0.00131047
0.00132748
0.00132258
0.00129585
0.00125992
0.00121928
0.00116467
0.00109147
0.00100687
0.000911968
0.000811238
0.000716138
0.00125818
0.00124224
0.00124053
0.00122948
0.00122765
0.0012275
0.00123373
0.00120316
0.00120308
0.00120735
0.00121584
0.00122618
0.00124542
0.00126364
0.00127569
0.00126347
0.00123926
0.00121414
0.00118424
0.00113441
0.00106306
0.000975546
0.0008862
0.000787935
0.000694857
0.00121921
0.00120634
0.00119665
0.00118909
0.00118709
0.00118245
0.00118778
0.00116125
0.00115945
0.00116358
0.00117654
0.00118865
0.00119709
0.00121434
0.00121821
0.00120122
0.00118418
0.00117887
0.00115726
0.00110658
0.00103072
0.000948158
0.00086066
0.000764384
0.000671171
0.0011717
0.00116924
0.00115553
0.00114983
0.00113952
0.00114045
0.00114208
0.00111431
0.00111986
0.00112442
0.00113237
0.00114291
0.00116217
0.00116321
0.00115365
0.0011351
0.0011452
0.00115614
0.00113366
0.00107492
0.00100172
0.000921125
0.000835567
0.000739022
0.00064981
0.00113077
0.00113141
0.00111076
0.0011022
0.00109915
0.00109466
0.00109356
0.00106784
0.00107388
0.00108368
0.00108955
0.0011043
0.00111739
0.00110218
0.00108012
0.00108493
0.00112715
0.00114081
0.00110425
0.00104289
0.000972942
0.000895137
0.00080811
0.000716501
0.000626603
0.00108655
0.00108613
0.00107349
0.00106029
0.00105476
0.00105177
0.00104303
0.00101549
0.00102791
0.00103663
0.00105009
0.00106166
0.00107122
0.00103409
0.0010031
0.00106912
0.00112641
0.00111675
0.00106997
0.00101216
0.000943728
0.000864583
0.000783888
0.000691278
0.000607922
0.00105444
0.00104285
0.00102817
0.00101969
0.00101055
0.00100502
0.000990384
0.000962695
0.000980208
0.000992771
0.00100222
0.00101539
0.00103424
0.000926989
0.000977559
0.00109307
0.00111223
0.00107949
0.00103442
0.000979192
0.00091182
0.000837163
0.000756504
0.000669551
0.000589315
0.00100922
0.0010043
0.000985977
0.000972498
0.000961435
0.000958062
0.000897696
0.000905471
0.000931031
0.00094379
0.000961736
0.000973811
0.000984324
0.00084801
0.00104285
0.00109304
0.00107138
0.00103834
0.000997758
0.000944876
0.00087988
0.000808931
0.000731375
0.00065024
0.000572297
0.000967671
0.000956197
0.00093845
0.000925292
0.000910581
0.000900497
0.000703845
0.000840284
0.000878257
0.000895635
0.000912156
0.000923264
0.000948073
0.000967655
0.00106448
0.00104661
0.00102302
0.000997657
0.000959873
0.000908817
0.000849341
0.000779481
0.00070987
0.000630539
0.000560079
0.000921217
0.000911874
0.000887985
0.000867546
0.00086016
0.000755971
0.000875451
0.000550482
0.000857283
0.000838795
0.000863258
0.000878352
0.000897484
0.0010291
0.0010069
0.000989541
0.000978508
0.00095623
0.000920488
0.000873524
0.000815369
0.00075334
0.000686577
0.000615443
0.000552007
0.000870567
0.000853545
0.000833801
0.000807097
0.000824486
0.000775373
0.000962039
0.000901067
0.00034475
0.000787907
0.000821965
0.000825958
0.000845064
0.000957433
0.000940305
0.000942084
0.000933269
0.000911595
0.000878629
0.00083534
0.00078294
0.000725935
0.000668871
0.000606639
0.000548373
0.00081273
0.000794146
0.000843188
0.000855237
0.000748158
0.000856544
0.000895784
0.000860526
0.000881317
-2.71251e-05
0.000950858
0.000766189
0.000783838
0.000882957
0.000892951
0.000894625
0.000884553
0.000864804
0.000835129
0.000794991
0.000751982
0.000704408
0.000657421
0.000599618
0.000550143
0.000776329
0.000825633
0.00105313
0.000839883
0.000814873
0.000821227
0.000823976
0.000822741
0.000804096
0.000810122
0.000806635
-0.000677788
0.000924852
0.00083313
0.00084366
0.000842457
0.000834619
0.000816132
0.000789058
0.00075913
0.000722277
0.000686844
0.000646409
0.000599646
0.000560753
0.000768678
0.000775115
0.000788578
0.000781106
0.000773298
0.000774282
0.000780588
0.000782207
0.000767685
0.000788334
0.000791387
0.00079104
0.00078122
0.000765025
0.000745191
0.000720247
0.000697077
0.000670474
0.000643078
0.000606755
0.000576917
0.000770237
0.000769392
0.000755827
0.000736806
0.000727536
0.0007243
0.000736827
0.000758328
0.000759632
0.000734466
0.000738353
0.000734866
0.000725503
0.000713137
0.000697898
0.000686319
0.000674571
0.000661811
0.000646577
0.000619713
0.000601825
0.000744211
0.000733991
0.000711957
0.000691509
0.000676112
0.000675377
0.000688539
0.000710016
0.000716661
0.000682823
0.000683592
0.000678167
0.000668378
0.000658563
0.000654653
0.000654131
0.000656848
0.000658869
0.000655465
0.000641042
0.000634252
0.000697815
0.000688166
0.000665436
0.000641349
0.000625847
0.000624567
0.000641507
0.000665245
0.000672883
0.000628748
0.000625767
0.00061608
0.000608552
0.00060461
0.000610251
0.000624853
0.000644293
0.00066143
0.000672329
0.000670182
0.000678371
0.000651153
0.000640055
0.000614135
0.000594705
0.000573653
0.000573555
0.000591461
0.000617331
0.000623962
0.000572984
0.000563364
0.000554279
0.000545235
0.000549464
0.00056953
0.000600413
0.000636994
0.000670819
0.000697806
0.000709384
0.000731667
0.000602257
0.00058954
0.00056805
0.0005429
0.000519254
0.000521643
0.000543585
0.000561491
0.000576925
0.000511529
0.000499812
0.000483602
0.000480273
0.000496007
0.000530693
0.000580668
0.000636454
0.00068944
0.000731295
0.000759267
0.000795821
0.000554176
0.000542673
0.000515874
0.000491245
0.000461163
0.000467136
0.000491807
0.000520086
0.000528654
0.000450372
0.000428145
0.000411903
0.000414683
0.00044362
0.000495384
0.000566176
0.000642342
0.000715018
0.000776561
0.000819462
0.000871225
0.000502373
0.000492568
0.000465892
0.000435279
0.000402702
0.000411541
0.000437064
0.000467998
0.00047824
0.000378793
0.000349553
0.000336316
0.000350395
0.000392715
0.000464121
0.000555361
0.000656788
0.000751482
0.000832307
0.000893347
0.000955539
0.000453302
0.00044202
0.000411621
0.000379363
0.000336951
0.000353768
0.000382836
0.000412688
0.000422615
0.000300647
0.000266978
0.000261867
0.000285884
0.000343253
0.000435657
0.000553687
0.000680803
0.000799906
0.000900488
0.000981636
0.00106281
0.000399785
0.000388322
0.000355427
0.000319451
0.000260996
0.000295043
0.000325942
0.000360915
0.000369954
0.000210126
0.000183639
0.000188408
0.00022012
0.000296102
0.000412914
0.000560608
0.000714571
0.000858101
0.000987594
0.00109076
0.001164
0.000344664
0.000331545
0.000297715
0.000258679
0.000172342
0.000227433
0.000269691
0.000301675
0.000315861
0.000119782
0.000108578
0.000110361
0.000155474
0.000251429
0.000396773
0.000574156
0.000759763
0.00093975
0.00108111
0.00128502
0.000461602
0.000287053
0.000272537
0.000243595
0.000164506
7.62925e-05
1.73955e-05
0.000231871
0.000241046
0.000255411
4.42117e-05
2.3047e-05
3.16791e-05
8.99395e-05
0.000210219
0.000387925
0.000599562
0.000826354
0.00100928
0.00131796
0.000561795
0.000226376
0.000211831
0.000233681
8.10157e-05
-3.60136e-06
3.94618e-05
-0.000634309
-0.000187429
0.000187434
0.000197374
-3.95558e-05
-6.3298e-05
-5.03814e-05
2.61686e-05
0.000175473
0.000386574
0.000643086
0.000871767
0.00123901
0.000598299
0.000174249
0.000159983
0.000889536
-2.97265e-05
6.09512e-06
-9.71913e-06
-8.46496e-05
-4.70907e-05
1.10727e-06
1.5942e-06
0.000110674
-0.000129664
-0.000157298
-0.00013361
-3.58482e-05
0.000145089
0.00040266
0.000665831
0.00107224
0.00054547
0.000304905
-1.42379e-06
-6.95117e-06
-1.9342e-05
-2.94954e-05
-8.88962e-05
-0.000172017
-0.000130193
-5.51974e-05
-6.57956e-05
-1.20872e-05
-1.82368e-05
5.45943e-05
-0.000227166
-0.000252879
-0.000218562
-9.36405e-05
0.000129545
0.000401101
0.000823042
0.000433412
-1.67575e-05
-2.28925e-05
-2.86894e-05
-4.07545e-05
-8.99153e-05
-0.0001096
-0.000173112
-0.000268902
-0.00021832
-0.000132546
-0.000150605
-6.15003e-05
-7.63736e-05
-2.45004e-05
-3.20089e-05
-0.000329919
-0.000356241
-0.00030139
-0.000142029
0.000103367
0.000505564
0.000280797
-3.46258e-05
-4.82621e-05
-9.61424e-05
-0.000120647
-0.000174848
-0.000194567
-0.000263844
-0.000372177
-0.000312984
-0.00021955
-0.000240566
-0.000138748
-0.000159259
-6.59556e-05
-8.32167e-05
-0.000441925
-0.000458214
-0.00037982
-0.000191397
0.000149142
0.000105755
-0.00010189
-0.000126052
-0.00018213
-0.000203086
-0.000262169
-0.000284579
-0.000362168
-0.000485308
-0.000415292
-0.0003124
-0.000332162
-0.000227042
-0.00024875
-0.000144405
-0.000165189
-0.000558093
-0.000563233
-0.00045032
-0.000206523
-7.24475e-05
-0.000187036
-0.000208074
-0.000269523
-0.000292654
-0.000356882
-0.000383593
-0.000467778
-0.000605414
-0.000527393
-0.00041067
-0.000433807
-0.000317212
-0.000340156
-0.000232875
-0.000252141
-0.000683133
-0.000651925
-0.000522433
-0.00023558
-0.000277527
-0.000296858
-0.00036177
-0.000390951
-0.000461868
-0.000487205
-0.000581875
-0.000741935
-0.000647085
-0.000518757
-0.000545122
-0.000413305
-0.000440509
-0.000319746
-0.000344038
-0.000794948
-0.000774092
-0.000370041
-0.000365878
-0.000392147
-0.000465961
-0.000492885
-0.000572209
-0.000600684
-0.000708733
-0.000878644
-0.000783293
-0.000635431
-0.000661293
-0.000520385
-0.000549556
-0.000415674
-0.000443862
-0.00096009
-0.000472428
-0.000467128
-0.000494374
-0.000576005
-0.000605546
-0.000690796
-0.000727768
-0.000845803
-0.00110615
-0.000920381
-0.000760527
-0.000795871
-0.000634748
-0.000662881
-0.000521638
-0.000549034
-0.000545461
-0.000578428
-0.000605718
-0.00069349
-0.000727326
-0.000825866
-0.000865826
-0.00101894
-0.00065351
-0.00116187
-0.000897364
-0.000933131
-0.000759902
-0.000791819
-0.000632442
-0.000661866
-0.000692092
-0.000722895
-0.000825226
-0.000862182
-0.000976246
-0.00102781
-0.00125933
-0.000631592
-0.0010935
-0.00115244
-0.000894515
-0.000929478
-0.000757608
-0.000787435
-0.000820668
-0.000854188
-0.000973901
-0.00102031
-0.00121802
-0.00133015
-0.00131923
-0.000543423
-0.00107891
-0.00113542
-0.000886844
-0.000920288
-0.000961172
-0.00100523
-0.00119423
-0.00133138
-0.00146596
-0.000547682
-0.0010603
-0.00111736
-0.00117738
-0.00130485
-0.00158856
-0.000684335
-0.038392
-0.0381794
-0.0375243
-0.0375013
-0.0380187
-0.0377284
-0.0376362
-0.0375938
-0.0377013
-0.0380427
-0.0379385
-0.0380133
-0.0375769
-0.037625
-0.0375701
-0.0377356
-0.0382372
-0.0382131
-0.0380781
-0.0381802
-0.0375496
-0.0375852
-0.0375514
-0.0377675
-0.037622
-0.0387463
-0.0382948
-0.0385098
-0.0382084
-0.0383528
-0.0375012
-0.0375714
-0.0375009
-0.0378117
-0.0374964
-0.0374821
-0.0388566
-0.0387949
-0.0383204
-0.0383909
-0.0385193
-0.0384971
-0.0374831
-0.03749
-0.0374801
-0.0377938
-0.037484
-0.03748
-0.0375025
-0.0374835
-0.038937
-0.038679
-0.0383196
-0.0386389
-0.0374642
-0.0374631
-0.0377273
-0.0374019
-0.037368
-0.0376086
-0.03771
-0.0374657
-0.0375061
-0.0374681
-0.0389907
-0.0382993
-0.0374827
-0.0374841
-0.0376271
-0.0372491
-0.0371887
-0.0374179
-0.0377949
-0.0377545
-0.0376982
-0.0380719
-0.0377107
-0.0375619
-0.037472
-0.0390299
-0.0382743
-0.0375073
-0.0374953
-0.037516
-0.037046
-0.0369272
-0.037149
-0.0375815
-0.0380936
-0.0379771
-0.0378327
-0.0377776
-0.0377201
-0.0373765
-0.037636
-0.0375556
-0.0390647
-0.0382586
-0.037559
-0.0374204
-0.0368238
-0.0366018
-0.0367832
-0.0372639
-0.0378737
-0.0385682
-0.0382971
-0.0381195
-0.0380364
-0.0378897
-0.0378234
-0.0377478
-0.0377179
-0.0377266
-0.0376206
-0.0376517
-0.0391034
-0.0382582
-0.0373572
-0.036622
-0.0362493
-0.0363371
-0.0368284
-0.037542
-0.0383374
-0.0391253
-0.0387834
-0.0385894
-0.0383556
-0.0381969
-0.0381371
-0.0380299
-0.0378879
-0.0379686
-0.039143
-0.0382545
-0.0373121
-0.0364746
-0.0359206
-0.0358515
-0.036291
-0.0370828
-0.0380116
-0.0389334
-0.0398191
-0.0394324
-0.0390961
-0.03884
-0.0387587
-0.0384369
-0.0383787
-0.0382328
-0.0383266
-0.0391667
-0.0381852
-0.0372087
-0.0363725
-0.0356698
-0.0353892
-0.0356942
-0.036503
-0.0375736
-0.0386684
-0.0396604
-0.0404936
-0.0401157
-0.0398076
-0.039562
-0.0391846
-0.0389716
-0.0387174
-0.0384707
-0.0389844
-0.0391134
-0.0379515
-0.0369391
-0.0362321
-0.0354948
-0.0350247
-0.0351103
-0.0358393
-0.0370103
-0.0383099
-0.0394891
-0.0404159
-0.0410528
-0.0407185
-0.0404623
-0.0402357
-0.0399181
-0.0397393
-0.0395894
-0.0392216
-0.0393785
-0.0391124
-0.0387639
-0.0392967
-0.0389004
-0.0374342
-0.0363696
-0.0359329
-0.035313
-0.0347615
-0.034635
-0.0351679
-0.0363415
-0.0378339
-0.0392722
-0.0403901
-0.0410918
-0.0414343
-0.0411771
-0.0409913
-0.0408059
-0.0405444
-0.0403811
-0.040249
-0.0399433
-0.0400751
-0.0398105
-0.0396527
-0.0393075
-0.0394705
-0.0384105
-0.0364653
-0.0353371
-0.0353213
-0.0349966
-0.0345174
-0.0342758
-0.0346015
-0.0356363
-0.0372363
-0.038963
-0.040384
-0.0412545
-0.0415946
-0.041636
-0.0414555
-0.0413444
-0.0412177
-0.0410336
-0.0409059
-0.0408094
-0.0405574
-0.0406641
-0.0404405
-0.0402948
-0.0400004
-0.0401434
-0.0374938
-0.0348688
-0.0336496
-0.0342231
-0.0343713
-0.0341662
-0.0339537
-0.0341468
-0.0350142
-0.0365666
-0.0385235
-0.0403286
-0.0415181
-0.0419573
-0.041891
-0.0417417
-0.0415587
-0.0415058
-0.0414442
-0.0413476
-0.0412594
-0.0412082
-0.0410369
-0.0411039
-0.0409461
-0.0408389
-0.0405988
-0.0407186
-0.0359736
-0.0324848
-0.0311415
-0.0324351
-0.0332352
-0.0335205
-0.0335482
-0.0337347
-0.0344754
-0.0359383
-0.0379723
-0.0401461
-0.041796
-0.042515
-0.0424109
-0.0420203
-0.0417688
-0.0416491
-0.0415476
-0.0414836
-0.0414712
-0.0414332
-0.0414127
-0.0413328
-0.041364
-0.0412744
-0.0412155
-0.0410606
-0.0411351
-0.0337263
-0.0292913
-0.0277846
-0.0297859
-0.0313513
-0.0323475
-0.0328565
-0.0332559
-0.0339663
-0.0353368
-0.0373982
-0.0398084
-0.0419697
-0.0431743
-0.0432254
-0.0426013
-0.0420319
-0.0418958
-0.0417076
-0.0415749
-0.0415859
-0.0414938
-0.0414241
-0.0414286
-0.0414397
-0.0414429
-0.0414168
-0.0413974
-0.0413312
-0.0413665
-0.030708
-0.0254278
-0.0237446
-0.0262573
-0.028544
-0.0303663
-0.0316177
-0.0324953
-0.0333953
-0.0347289
-0.036764
-0.0393574
-0.0419503
-0.0437856
-0.0442523
-0.0435608
-0.0425621
-0.0420444
-0.0422349
-0.0419931
-0.0417088
-0.0416005
-0.0415042
-0.0414299
-0.0415462
-0.0413916
-0.0413973
-0.0413711
-0.0413981
-0.0414165
-0.0414157
-0.0270568
-0.0211614
-0.0192821
-0.0220282
-0.0248103
-0.0273929
-0.0295126
-0.03116
-0.032537
-0.0340431
-0.036061
-0.0387276
-0.0416979
-0.0441829
-0.045327
-0.0448534
-0.043506
-0.0423836
-0.0421547
-0.0429898
-0.0425891
-0.0421016
-0.0419084
-0.0416924
-0.0415798
-0.0414757
-0.0413836
-0.0414617
-0.0412081
-0.0416506
-0.041309
-0.0411363
-0.0230072
-0.0167552
-0.0146937
-0.0173683
-0.0203458
-0.0234371
-0.0263494
-0.0288879
-0.0310576
-0.0330462
-0.0352387
-0.0379375
-0.0411173
-0.0442037
-0.0462013
-0.0463205
-0.044871
-0.0430878
-0.0421571
-0.0424964
-0.043987
-0.0439327
-0.0430017
-0.0425194
-0.0421318
-0.0419404
-0.0417378
-0.041566
-0.0417053
-0.0414855
-0.0414289
-0.0413087
-0.0413939
-0.0412021
-0.0419144
-0.0188251
-0.0124853
-0.0102504
-0.0125925
-0.015443
-0.0187157
-0.0221475
-0.0254822
-0.0285569
-0.0313601
-0.0340548
-0.036959
-0.0402523
-0.043725
-0.0465522
-0.0476446
-0.0465426
-0.0442616
-0.0423383
-0.0418883
-0.0430558
-0.0445016
-0.0453842
-0.0432325
-0.0429781
-0.0426682
-0.0423363
-0.0419839
-0.0422335
-0.041828
-0.0416921
-0.0415218
-0.0416148
-0.0414348
-0.0413902
-0.0413065
-0.0413569
-0.0147509
-0.00857784
-0.00620617
-0.00798365
-0.0104378
-0.0135486
-0.0171474
-0.0209811
-0.0248393
-0.0285531
-0.0320866
-0.0355346
-0.0391
-0.0428033
-0.0462344
-0.0483343
-0.0481644
-0.0458599
-0.0430191
-0.0413303
-0.041683
-0.043922
-0.046162
-0.0450792
-0.0441163
-0.047157
-0.0433748
-0.0428445
-0.0433325
-0.0425744
-0.0423254
-0.0419523
-0.0421425
-0.0417868
-0.0416591
-0.0414804
-0.0415655
-0.0110134
-0.00524832
-0.00276377
-0.00380858
-0.00563589
-0.00829856
-0.0117014
-0.0156586
-0.019971
-0.0244397
-0.02888
-0.0332
-0.0373842
-0.0414642
-0.0452853
-0.0482347
-0.0491281
-0.0475341
-0.0441896
-0.0411197
-0.0400624
-0.0416149
-0.0451273
-0.0482758
-0.0470962
-0.0458938
-0.0453793
-0.044744
-0.0444151
-0.0439563
-0.0492868
-0.043689
-0.0432125
-0.0429183
-0.0428072
-0.0425684
-0.0423295
-0.0419325
-0.0421133
-0.00780433
-0.00262076
-5.9442e-05
-0.00026945
-0.00131506
-0.00329353
-0.00619934
-0.00990167
-0.0142669
-0.0191247
-0.0242728
-0.029493
-0.0345964
-0.0394077
-0.0437556
-0.0473159
-0.0492952
-0.0486491
-0.0456385
-0.0415614
-0.0387363
-0.0387862
-0.0418833
-0.0467645
-0.0507455
-0.0495713
-0.0481482
-0.047534
-0.0467788
-0.04636
-0.0457505
-0.0520156
-0.0429958
-0.0428238
-0.00526486
-0.000744738
0.00187969
0.0025025
0.0023179
0.00117401
-0.000991362
-0.00412802
-0.00815436
-0.0129742
-0.0184257
-0.0242935
-0.0302904
-0.0360827
-0.04131
-0.0456124
-0.0484824
-0.0490777
-0.0467476
-0.0424877
-0.0381546
-0.0361729
-0.037855
-0.0427787
-0.0491301
-0.0538052
-0.0524154
-0.0508558
-0.0501681
-0.0492794
-0.0487645
-0.048033
-0.0555636
-0.00344009
0.000453053
0.00312274
0.00448805
0.00513816
0.00489438
0.0036186
0.00129057
-0.00208133
-0.00646036
-0.0117651
-0.0178342
-0.0244097
-0.0310964
-0.0373916
-0.0427549
-0.0466342
-0.0484194
-0.0473839
-0.043461
-0.0383708
-0.0344466
-0.0339813
-0.0378042
-0.0447516
-0.0526391
-0.0576021
-0.0556316
-0.05396
-0.053185
-0.052339
-0.051697
-0.0508313
-0.0604128
-0.00227935
0.00110166
0.00380547
0.00576182
0.00714153
0.0077546
0.00742163
0.00604256
0.00356124
-6.06931e-05
-0.00480897
-0.0106078
-0.017275
-0.0244774
-0.0316824
-0.0382243
-0.04338
-0.0464645
-0.0468927
-0.0442242
-0.0391082
-0.0338698
-0.0311468
-0.0328859
-0.0392569
-0.0483242
-0.057723
-0.0627367
-0.0605326
-0.0578114
-0.0567408
-0.0554042
-0.0546545
-0.0538086
-0.0666695
-0.00165822
0.00136248
0.00408746
0.00646604
0.0084166
0.00976558
0.0103181
0.00992411
0.00845757
0.00581767
0.00193896
-0.00317685
-0.00944699
-0.0166385
-0.0243131
-0.0318041
-0.0382828
-0.0428855
-0.0448773
-0.043861
-0.0398744
-0.0342771
-0.0298
-0.0291035
-0.0336599
-0.0428254
-0.0539368
-0.0645912
-0.0689607
-0.0663387
-0.0632105
-0.0620489
-0.060537
-0.0592961
-0.0579383
-0.0572628
-0.055912
-0.0551712
-0.0743146
-0.00142094
0.00137795
0.00411457
0.00676056
0.00911465
0.0110338
0.0123378
0.0128532
0.0124145
0.0108601
0.00806026
0.00393216
-0.00152818
-0.00820526
-0.0157912
-0.023735
-0.0312324
-0.0373327
-0.0411099
-0.0419169
-0.0396649
-0.03495
-0.029767
-0.0270709
-0.0291366
-0.0369598
-0.0489353
-0.0617756
-0.0732342
-0.0762109
-0.0730889
-0.0695454
-0.0681735
-0.0664523
-0.0649659
-0.0634203
-0.0625287
-0.0610502
-0.0598173
-0.058568
-0.08308
-0.00142284
0.00126643
0.00400576
0.00679414
0.00940371
0.0117231
0.0136026
0.0148778
0.0153693
0.0148879
0.0132473
0.0102965
0.00593982
0.000186409
-0.00679538
-0.0146082
-0.0225885
-0.0298154
-0.0352528
-0.0380403
-0.0377964
-0.0348235
-0.0302271
-0.026434
-0.0264069
-0.0319022
-0.0432193
-0.0576998
-0.0717266
-0.0833219
-0.0842068
-0.0806271
-0.0768028
-0.07525
-0.0733502
-0.0715804
-0.0698459
-0.0687919
-0.0670675
-0.0655839
-0.0641019
-0.0923721
-0.00154545
0.00111079
0.00384768
0.00668865
0.00943509
0.0120054
0.014285
0.0161356
0.0173924
0.0178638
0.0173422
0.0156225
0.0125368
0.00798899
0.00201896
-0.00513798
-0.0129907
-0.0207771
-0.0275164
-0.0321789
-0.0340452
-0.0331007
-0.0301003
-0.0265286
-0.0250281
-0.0283554
-0.0378401
-0.0525034
-0.0688841
-0.083357
-0.0941722
-0.0923724
-0.0885272
-0.0846953
-0.0830301
-0.0810483
-0.0790567
-0.0771923
-0.0760185
-0.0740864
-0.0723454
-0.0706483
-0.101198
-0.00169969
0.000321835
0.00162438
0.00307419
0.00653214
0.0043528
0.0093298
0.0120339
0.0145637
0.0168108
0.0186399
0.0198817
0.0203344
0.0197771
0.0179887
0.0147932
0.0101069
0.00401308
-0.00318049
-0.0108904
-0.0182672
-0.024346
-0.0282645
-0.0295376
-0.0285011
-0.0262684
-0.024584
-0.0261266
-0.0333544
-0.0469456
-0.0644576
-0.0818969
-0.0958492
-0.1047
-0.0997932
-0.0960959
-0.092631
-0.0909871
-0.0890852
-0.087014
-0.0851561
-0.0839212
-0.0818557
-0.0799566
-0.0780839
-0.108371
-0.00248611
-0.00116236
-7.04189e-05
0.00057441
0.00123755
0.00189884
0.00269282
0.00332309
0.00577315
0.00917479
0.00703133
0.00397437
0.0046229
0.0119295
0.0145923
0.0170851
0.0193039
0.021114
0.0223421
0.0227794
0.0221926
0.0203508
0.0170765
0.0123129
0.00619405
-0.000901478
-0.00833509
-0.0152304
-0.0206658
-0.0240081
-0.0251315
-0.0246959
-0.0240175
-0.0249689
-0.0301335
-0.0415228
-0.0588215
-0.078382
-0.0958216
-0.108038
-0.113639
-0.10539
-0.102452
-0.0997913
-0.0983378
-0.0967497
-0.0947823
-0.0931226
-0.0919079
-0.0899111
-0.0879708
-0.086068
-0.113129
-0.00223037
-0.00155548
-0.000883326
-8.5002e-05
0.000565472
0.00118496
0.00185432
0.00267886
0.00331477
0.00539869
0.00601768
0.00842869
0.0117767
0.00966681
0.00665977
0.00729799
0.00392318
0.00458037
0.0144894
0.017112
0.0195705
0.0217639
0.0235561
0.024773
0.0251984
0.0245889
0.0227084
0.0193914
0.0146133
0.00856577
0.00170023
-0.00532715
-0.0117253
-0.01671
-0.0198796
-0.0214348
-0.022306
-0.0238863
-0.0280738
-0.0371724
-0.0525838
-0.0727638
-0.0932086
-0.109357
-0.118531
-0.119938
-0.108562
-0.106683
-0.105221
-0.104196
-0.103109
-0.101511
-0.100257
-0.0991952
-0.0974833
-0.0957028
-0.0939701
-0.115218
-0.00224101
-0.00161162
-0.000931829
0.0053843
0.00600963
0.00806035
0.00866928
0.0110422
0.0143392
0.012262
0.00930198
0.00992963
0.00660962
0.00725713
0.0170104
0.0195946
0.0220208
0.0241884
0.0259654
0.027173
0.0275884
0.0269612
0.0250587
0.021735
0.0170015
0.0110913
0.00449832
-0.00211875
-0.00810166
-0.0129001
-0.0163646
-0.018964
-0.0217984
-0.0262208
-0.0340161
-0.0470377
-0.0658501
-0.0876654
-0.107559
-0.121018
-0.126121
-0.122951
-0.109713
-0.107929
-0.108039
-0.107742
-0.107318
-0.106302
-0.105624
-0.104874
-0.103639
-0.102285
-0.100911
-0.113815
0.00804536
0.00866141
0.0106789
0.0112789
0.0136168
0.0168628
0.0148181
0.0119035
0.0125221
0.00925301
0.00989069
0.0194932
0.0220396
0.0244329
0.0265779
0.02834
0.0295383
0.0299425
0.0293021
0.0273929
0.0240973
0.0194782
0.0137959
0.00749821
0.00117936
-0.00462306
-0.00960154
-0.0138676
-0.0181006
-0.0234534
-0.0311188
-0.0425929
-0.0591414
-0.0802441
-0.102152
-0.119865
-0.129487
-0.130105
-0.122289
-0.107415
-0.107381
-0.107894
-0.108269
-0.108649
-0.108443
-0.108463
-0.108125
-0.107588
-0.106812
-0.105996
-0.108666
0.0106639
0.0112717
0.0132593
0.0138504
0.0161519
0.019348
0.0173354
0.0144662
0.0150749
0.0118561
0.0124851
0.0219373
0.0244455
0.0268076
0.0289289
0.030676
0.0318616
0.0322534
0.0316021
0.0296998
0.026458
0.0219715
0.016524
0.0104991
0.00435224
-0.00154571
-0.00710988
-0.0126781
-0.0190592
-0.0273316
-0.0383879
-0.053281
-0.0725092
-0.0944189
-0.114762
-0.128884
-0.13434
-0.130416
-0.117932
-0.101424
-0.102918
-0.106059
-0.106937
-0.106769
-0.107164
-0.107981
-0.108369
-0.108664
-0.108643
-0.108539
-0.100251
0.0132442
0.0138437
0.0157995
0.0163821
0.0186488
0.021794
0.0198142
0.0169898
0.0175896
0.0144202
0.0150399
0.0243414
0.0268112
0.0291411
0.031239
0.0329675
0.0341364
0.0345105
0.0338513
0.0319834
0.0288412
0.0245155
0.0192565
0.0133856
0.00721697
0.000924606
-0.00562904
-0.0129496
-0.0218708
-0.033252
-0.0475682
-0.0652574
-0.0859292
-0.107048
-0.124464
-0.134433
-0.135687
-0.127039
-0.110085
-0.0926017
-0.0956989
-0.100051
-0.10118
-0.103074
-0.10411
-0.1059
-0.107874
-0.105089
-0.106649
-0.107768
-0.0891594
0.0157847
0.0163762
0.0183023
0.0188761
0.0211065
0.0242
0.0222542
0.0194751
0.0200651
0.0169454
0.0175566
0.0267041
0.0291342
0.0314312
0.0335021
0.0352073
0.0363519
0.0367035
0.0360382
0.0342071
0.0311743
0.0270071
0.0218889
0.0160492
0.00964664
0.00265352
-0.00526187
-0.014695
-0.0263745
-0.0408144
-0.0579542
-0.0775198
-0.0982493
-0.117226
-0.130995
-0.136721
-0.133472
-0.119979
-0.0991926
-0.081359
-0.0858021
-0.0913368
-0.0932723
-0.0957888
-0.0976975
-0.0998624
-0.100711
-0.102307
-0.103443
-0.104376
-0.10974
-0.0761295
0.0182877
0.018871
0.0207653
0.0213308
0.023525
0.0265638
0.0246537
0.0219214
0.0225026
0.0194323
0.0200341
0.0290227
0.0314112
0.0336724
0.0357121
0.0373869
0.0385009
0.0388322
0.0381769
0.0363976
0.0334596
0.0294103
0.0243617
0.0184166
0.0115616
0.00357489
-0.00601369
-0.0177856
-0.0322412
-0.0494303
-0.0687013
-0.089049
-0.10862
-0.124658
-0.134503
-0.135697
-0.127457
-0.109477
-0.0860364
-0.0683376
-0.0737928
-0.0801805
-0.0827449
-0.0857802
-0.0883843
-0.0911094
-0.0924834
-0.094854
-0.096937
-0.0989553
-0.099961
-0.101595
-0.103021
-0.103986
-0.0621468
0.0207513
0.0213267
0.0231903
0.0237469
0.0259015
0.0288829
0.0270106
0.024328
0.0248989
0.0218805
0.0224735
0.0312937
0.0336377
0.0358587
0.0378612
0.0394982
0.0405739
0.0408804
0.0402361
0.0385143
0.0356646
0.0317
0.0266429
0.0204478
0.0129207
0.00368037
-0.00779736
-0.0219759
-0.0390118
-0.0584213
-0.0789462
-0.0990255
-0.116603
-0.129304
-0.13488
-0.131058
-0.117707
-0.0962772
-0.0716254
-0.0545062
-0.0603168
-0.0672259
-0.0703037
-0.0736992
-0.0768026
-0.0799477
-0.0817062
-0.0846402
-0.0873397
-0.0899941
-0.0914372
-0.0938232
-0.0960519
-0.0980634
-0.0483135
0.0231769
0.0237437
0.0255731
0.0261205
0.0282342
0.0311536
0.0293219
0.0266921
0.0272529
0.0242889
0.0248719
0.0335125
0.0358074
0.0379834
0.039943
0.0415369
0.0425745
0.0428572
0.0422204
0.0405495
0.0377835
0.0338714
0.0287195
0.0221194
0.0137084
0.00301313
-0.0104545
-0.0269341
-0.0461623
-0.067095
-0.0879763
-0.106938
-0.12196
-0.130924
-0.131712
-0.122668
-0.104825
-0.0814417
-0.0570394
-0.0411936
-0.0462483
-0.0534196
-0.0565193
-0.0601542
-0.0635909
-0.0670331
-0.0690834
-0.0724356
-0.0755725
-0.0786791
-0.0804813