/*--------------------------------*- C++ -*----------------------------------*\
| =========                 |                                                 |
| \\      /  F ield         | OpenFOAM: The Open Source CFD Toolbox           |
|  \\    /   O peration     | Version:  v1912                                 |
|   \\  /    A nd           | Website:  www.openfoam.com                      |
|    \\/     M anipulation  |                                                 |
\*---------------------------------------------------------------------------*/
FoamFile
{
    version     2.0;
    format      ascii;
    class       surfaceScalarField;
    location    "120";
    object      phi;
}
// * * * * * * * * * * * * * * * * * * * * * * * * * * * * * * * * * * * * * //

dimensions      [0 3 -1 0 0 0 0];
oriented        oriented;


internalField   nonuniform List<scalar> 
7354
(
-3.81355e-06
0.00139023
-1.36438e-05
0.00420433
-2.98593e-06
0.00139316
-3.40645e-05
0.00701154
-1.38385e-05
0.00421512
-4.01576e-06
0.00139706
-6.09451e-05
0.00971289
-3.36625e-05
0.00703132
-1.44995e-05
0.0042255
-2.99485e-06
0.00139996
-9.34485e-05
0.0121431
-5.98268e-05
0.00973901
-3.21255e-05
0.00704887
-1.19132e-05
0.00423431
-3.08727e-06
0.00140295
-0.000140748
0.0141133
-9.31004e-05
0.0121764
-5.54028e-05
0.00976222
-3.06475e-05
0.00706753
-1.20295e-05
0.00424317
-3.07408e-06
0.00140599
-0.000180964
0.0154108
-0.000133939
0.0141541
-9.02778e-05
0.0122112
-5.52861e-05
0.0097868
-2.64538e-05
0.0070819
-1.1996e-05
0.00425205
-2.06703e-06
0.00140804
-0.000231839
0.0158927
-0.000181713
0.0154585
-0.000130027
0.0141938
-8.49471e-05
0.0122408
-4.59328e-05
0.00980623
-2.35321e-05
0.00709341
-1.00899e-05
0.00426007
-2.01961e-06
0.00141008
-0.000271547
0.0154629
-0.000224979
0.0159359
-0.000173145
0.0155016
-0.000118299
0.0142271
-7.07237e-05
0.0122656
-4.20811e-05
0.00982476
-2.07507e-05
0.00710407
-8.08532e-06
0.00426614
-1.94891e-06
0.00141203
-0.000309699
0.0141731
-0.000273246
0.0155111
-0.000213516
0.0159763
-0.000147205
0.0155305
-9.80224e-05
0.0142544
-6.39932e-05
0.0122875
-3.81525e-05
0.00984217
-1.94309e-05
0.00711543
-7.26883e-06
0.00427147
-2.04658e-06
0.00141408
-0.000335967
0.0121329
-0.000315317
0.0142152
-0.000252902
0.0155505
-0.000181633
0.0160107
-0.000127299
0.0155598
-8.18748e-05
0.0142723
-5.27945e-05
0.0123021
-2.89946e-05
0.00985175
-1.65888e-05
0.00712478
-7.84453e-06
0.00427726
-2.13119e-06
0.00141617
-0.000341527
0.00953885
-0.000347132
0.0121647
-0.000271463
0.0142337
-0.000201078
0.0155699
-0.000144614
0.016028
-0.00010239
0.0155803
-6.91041e-05
0.0142886
-4.35631e-05
0.0123167
-2.87541e-05
0.00986393
-1.33204e-05
0.00713025
-5.27219e-06
0.00428036
-1.75772e-06
0.00141788
-0.000114224
0.00658536
-0.000193554
-0.000369233
0.00956106
-0.000281931
0.0121752
-0.000206534
0.0142392
-0.000155098
0.0155804
-0.000110076
0.0160357
-7.78958e-05
0.0155891
-5.1667e-05
0.0142967
-3.69401e-05
0.0123249
-1.97416e-05
0.00987035
-1.34319e-05
0.0071384
-7.04545e-06
0.00428559
-1.12474e-06
0.00141895
0.00216755
-8.43901e-05
-0.00020047
0.0065933
-0.000176678
0.00212622
-0.000152229
-0.000256508
0.00953558
-0.000186649
0.0121553
-0.000146766
0.0142309
-0.000106992
0.0155774
-8.54618e-05
0.0160433
-6.46054e-05
0.0156021
-4.61715e-05
0.014306
-3.2273e-05
0.0123375
-2.44249e-05
0.00988133
-1.29653e-05
0.00714429
-5.79725e-06
0.00429022
-1.81824e-06
0.00142074
0.00139074
-2.50984e-05
0.0021092
-0.000183425
-0.000129962
0.00652577
-5.90086e-05
0.00208608
-0.00015355
0.00133287
-6.25068e-05
-3.18533e-05
-0.000138364
0.0094874
-0.000115698
0.0121243
-9.19897e-05
0.014216
-7.68951e-05
0.0155688
-6.14601e-05
0.0160402
-4.61956e-05
0.0156021
-4.06666e-05
0.0143144
-2.72764e-05
0.0123403
-1.89155e-05
0.00988726
-1.37815e-05
0.00715226
-6.51075e-06
0.00429488
-2.5571e-06
0.00142326
0.000435029
-9.76606e-06
0.00131643
-8.39251e-05
-8.30449e-05
0.00203804
-8.19402e-05
-4.53966e-05
0.00644287
-1.00362e-05
0.00201514
-3.60947e-05
0.00127249
-3.91325e-05
-7.04653e-05
-0.000421211
0.000394166
-3.54633e-05
-1.8039e-05
-6.55439e-05
0.00943721
-6.2398e-05
0.0120947
-5.96971e-05
0.0141987
-4.94164e-05
0.0155568
-4.3121e-05
0.0160371
-3.84716e-05
0.0155999
-3.32722e-05
0.0143204
-2.67199e-05
0.0123481
-2.32889e-05
0.00989675
-1.47752e-05
0.00716051
-8.48662e-06
0.00430078
-1.4727e-06
0.0014247
0.000255079
-1.56845e-06
0.000368674
-5.84306e-05
0.000347407
-6.17698e-05
0.0012197
-2.21396e-05
-7.02523e-06
0.0019868
-1.70344e-05
-1.61565e-05
0.00639334
1.67413e-07
0.00198261
-5.83501e-06
0.0011895
-6.88511e-07
-5.20084e-06
-0.000324361
0.000305389
-2.01521e-05
-4.74141e-05
-0.000241053
0.000215432
-9.8451e-06
-4.01611e-06
-3.32011e-05
0.00940814
-3.65331e-05
0.0120717
-3.54674e-05
0.0141849
-3.72498e-05
0.015551
-3.22355e-05
0.0160309
-3.44922e-05
0.0156011
-2.77935e-05
0.0143214
-3.0207e-05
0.012355
-2.24911e-05
0.00990446
-1.66306e-05
0.00716865
-8.13168e-06
0.0043074
-3.17455e-06
0.00142781
7.55623e-05
0.000177931
-2.09271e-05
0.00015694
-4.07738e-05
0.000290019
-6.77156e-06
0.000285112
-2.12265e-06
0.0011739
-1.79977e-06
3.76758e-07
0.00196972
-3.28129e-06
-6.59263e-06
0.00636222
4.53958e-06
0.00197062
-7.25678e-07
0.00116794
1.154e-06
-1.02113e-06
-0.000280407
0.000280086
-3.68391e-07
-4.98522e-07
-0.000109526
8.93759e-05
-7.15461e-05
6.17004e-05
-1.32724e-05
0.00938485
-2.21315e-05
0.0120583
-2.37978e-05
0.0141714
-2.2249e-05
0.015541
-2.97296e-05
0.0160261
-2.69364e-05
0.0156003
-3.81877e-05
0.0143294
-3.49812e-05
0.0123675
-2.83592e-05
0.00991619
-1.95294e-05
0.00718003
-1.09869e-05
0.00431515
-2.22146e-06
0.00142995
4.07738e-05
8.26035e-05
8.04802e-05
0.000278334
-4.46857e-08
0.000278842
-1.23607e-07
0.00116465
-5.13289e-07
5.14784e-07
0.00196462
-5.71178e-07
-4.05894e-06
0.00634899
4.05324e-06
0.00196804
1.13913e-06
0.00116353
3.435e-07
5.47543e-08
-0.000277672
0.000278591
2.4136e-07
1.53291e-07
-7.99817e-05
7.9613e-05
-5.19533e-06
0.00936803
-5.75407e-06
0.0120404
-1.19559e-05
0.0141612
-2.00992e-05
0.0155314
-2.59681e-05
0.0160251
-3.78665e-05
0.0156
-3.52286e-05
0.0143297
-3.77785e-05
0.012377
-3.18095e-05
0.00992846
-2.10456e-05
0.00719007
-1.13215e-05
0.00432418
-2.92076e-06
0.00143279
7.95695e-05
7.94473e-05
0.000278312
-2.36266e-07
0.000278625
1.97512e-07
0.00116266
-1.01056e-07
4.21814e-07
0.00196398
-3.17435e-09
-8.25776e-07
0.00634247
2.18701e-06
0.00196726
7.89633e-07
0.00116361
-9.57957e-08
2.91779e-07
-0.000278538
0.000278783
9.78596e-08
1.40206e-07
-7.96006e-05
7.98433e-05
5.19559e-07
0.00936172
-5.77765e-06
0.0120341
-1.05696e-05
0.0141516
-1.49953e-05
0.0155204
-2.82612e-05
0.0160155
-4.1715e-05
0.0156065
-5.13537e-05
0.0143432
-4.44204e-05
0.0123896
-3.72406e-05
0.00994464
-2.63192e-05
0.00720503
-1.17128e-05
0.0043329
-3.66057e-06
0.00143639
7.96062e-05
7.98031e-05
0.000278683
2.46899e-09
0.000279029
8.38196e-08
0.00116308
1.90886e-07
3.45158e-07
0.00196658
-1.10541e-07
6.43548e-07
0.00634016
2.21367e-06
0.00196725
1.52626e-06
0.00116381
2.02881e-07
-1.39504e-07
-0.00027937
0.000279219
6.40052e-08
-4.38847e-08
-7.99433e-05
8.0041e-05
1.81675e-07
0.00935588
8.95636e-07
0.0120228
-6.05799e-06
0.0141428
-2.54824e-05
0.0155176
-3.90428e-05
0.0160129
-5.00638e-05
0.0156052
-5.8706e-05
0.0143575
-5.79171e-05
0.0124102
-4.69599e-05
0.00996526
-2.76582e-05
0.00722094
-1.16911e-05
0.00434087
-2.54628e-06
0.00143887
8.00449e-05
8.01304e-05
0.000279471
-6.04452e-08
0.000279689
1.25766e-07
0.00116302
3.08736e-07
3.9844e-07
0.00196765
2.39118e-07
4.79822e-07
0.00633777
2.1168e-06
0.0019683
1.57686e-06
0.00116457
3.09581e-07
-3.22949e-07
-0.00027939
0.000279613
-1.68883e-08
1.59307e-07
-8.00865e-05
8.01525e-05
5.90896e-06
0.00935084
9.84774e-07
0.0120157
-9.98463e-06
0.0141273
-2.46459e-05
0.0155032
-4.93323e-05
0.0160121
-6.64632e-05
0.0156129
-7.18725e-05
0.0143715
-6.76674e-05
0.0124309
-4.96992e-05
0.00998727
-2.99884e-05
0.00723919
-1.46893e-05
0.00435296
-3.27135e-06
0.00144212
8.00918e-05
8.02176e-05
0.000279926
2.1855e-09
0.000280473
-1.39118e-07
0.00116488
-3.49689e-07
2.77572e-07
0.00196788
9.13068e-07
2.01922e-06
0.00633902
2.66627e-06
0.00196961
4.00268e-07
0.00116587
2.52231e-07
3.3392e-07
-0.000280015
0.000280268
6.57875e-08
1.42122e-07
-8.03769e-05
8.0361e-05
2.61643e-06
0.00934934
-2.33618e-06
0.0120082
-1.91005e-05
0.0141218
-4.22517e-05
0.0154962
-6.8827e-05
0.0160145
-9.00258e-05
0.0156311
-9.50908e-05
0.0143989
-7.8546e-05
0.0124598
-5.43315e-05
0.0100116
-3.03555e-05
0.00725483
-1.25946e-05
0.00436224
-3.63926e-06
0.00144571
8.0365e-05
8.02279e-05
0.000280002
-8.44265e-08
0.000280177
9.99148e-08
0.00116666
-1.90239e-07
3.27404e-07
0.00197032
1.28863e-06
1.99634e-06
0.00633914
5.30897e-07
0.00197175
1.25553e-06
0.00116657
3.12297e-07
1.81225e-07
-0.000280353
0.00028083
-2.25028e-07
1.57467e-07
-8.037e-05
8.04381e-05
2.4273e-06
0.00934456
-5.57512e-06
0.0119947
-2.25437e-05
0.0141021
-5.7753e-05
0.0154851
-8.92454e-05
0.0160137
-0.000109378
0.0156454
-0.000105106
0.0144254
-8.52156e-05
0.0124906
-5.90766e-05
0.0100403
-3.30306e-05
0.00727524
-1.39651e-05
0.00437254
-3.1452e-06
0.00144886
8.03531e-05
8.04526e-05
0.000280654
-1.15693e-08
0.000280841
1.47178e-07
0.00116783
-3.10821e-07
3.34102e-07
0.00197356
1.99385e-07
1.95221e-06
0.00633754
2.1119e-06
0.00197265
1.45243e-06
0.00116905
-2.41098e-07
2.81549e-07
-0.000280934
0.000281199
5.28617e-08
9.17093e-08
-8.06101e-05
8.0385e-05
1.32455e-07
0.00933897
-1.28269e-05
0.011985
-4.45841e-05
0.0140889
-8.6205e-05
0.0154821
-0.00012595
0.0160303
-0.0001357
0.0156759
-0.000126974
0.0144672
-9.41524e-05
0.0125257
-5.86456e-05
0.0100659
-3.22035e-05
0.00729347
-1.19152e-05
0.00438129
-2.29848e-06
0.00145112
8.03747e-05
8.05232e-05
0.00028089
-4.3814e-09
0.000281112
1.08521e-07
0.00116861
3.03085e-07
3.5521e-07
0.00197374
8.55037e-07
1.8765e-06
0.0063352
6.2612e-07
0.00197539
4.81523e-07
0.00117004
-1.36788e-07
1.62765e-07
-0.000281291
0.000281295
-2.46577e-07
1.00886e-07
-8.06149e-05
8.06689e-05
-2.08396e-06
0.0093282
-2.33006e-05
0.0119637
-6.85499e-05
0.0140713
-0.000124024
0.0154801
-0.000159889
0.0160544
-0.000167213
0.0157162
-0.000133421
0.0145064
-9.69907e-05
0.012564
-6.03847e-05
0.010094
-2.88336e-05
0.00731037
-1.15812e-05
0.00439055
-2.24329e-06
0.00145331
8.06637e-05
8.07716e-05
0.000281584
1.71913e-08
0.000281768
1.77469e-07
0.0011704
3.20355e-07
1.72817e-07
0.00197615
1.14647e-06
1.96776e-06
0.00633046
7.10028e-07
0.00197632
4.65324e-07
0.0011709
2.05155e-07
-2.07196e-07
-0.000281877
0.000281694
5.32775e-08
5.85314e-08
-8.08725e-05
8.06255e-05
-8.06591e-06
0.00931305
-4.42581e-05
0.0119395
-0.00010754
0.0140548
-0.000167432
0.0154876
-0.000201377
0.0160886
-0.000179384
0.0157621
-0.000140132
0.0145495
-9.46329e-05
0.0125983
-5.1266e-05
0.0101165
-2.45701e-05
0.00732336
-9.48731e-06
0.00439774
-2.00314e-06
0.00145515
8.06439e-05
8.08229e-05
0.000281961
5.31598e-08
0.000282077
5.60842e-08
0.00117145
3.11322e-07
3.0644e-07
0.00197729
9.87715e-07
1.9967e-06
0.00632104
-6.36988e-07
0.00197753
4.74936e-07
0.00117195
3.0817e-07
-3.43956e-07
-0.000281786
0.000282219
-2.25651e-07
8.37109e-08
-8.08815e-05
8.09365e-05
-1.72217e-05
0.009286
-7.54316e-05
0.0119074
-0.000159003
0.0140464
-0.000224731
0.015511
-0.000225934
0.0161351
-0.000192837
0.0158148
-0.00013965
0.0145945
-8.48796e-05
0.0126319
-4.67089e-05
0.0101386
-2.12924e-05
0.00733512
-6.67429e-06
0.00440227
-1.01976e-06
0.00145595
8.09894e-05
8.10455e-05
0.000282486
4.93526e-08
0.000282686
1.14152e-07
0.0011729
3.23982e-07
-2.81774e-07
0.00197824
1.29539e-06
2.15102e-06
0.00630401
-2.34296e-06
0.0019774
2.0462e-07
0.00117283
1.9991e-07
3.41198e-07
-0.000282264
0.000282586
-6.14842e-09
8.29055e-08
-8.11292e-05
8.09043e-05
-3.77995e-05
0.00924841
-0.000128735
0.0118772
-0.00023114
0.0140528
-0.000270747
0.0155558
-0.000243951
0.0161862
-0.000184085
0.0158592
-0.000123962
0.0146336
-7.2285e-05
0.0126575
-3.89313e-05
0.0101562
-1.78666e-05
0.00734626
-4.42708e-06
0.0044055
-9.14781e-07
0.00145658
8.09553e-05
8.10711e-05
0.000282849
6.0051e-08
0.000282445
1.20446e-07
0.00117397
2.91577e-07
-1.28503e-07
0.00197918
3.60375e-07
2.23697e-06
0.00627219
-8.22603e-06
0.00197652
3.05771e-07
0.00117415
-1.08235e-07
1.39115e-07
-0.000282935
0.000283045
8.9303e-08
-1.49875e-07
-8.1154e-05
8.11498e-05
-7.62423e-05
0.0091959
-0.000202791
0.0118488
-0.000294861
0.0140769
-0.000290932
0.0156027
-0.000229745
0.0162319
-0.000165492
0.0159007
-0.000105345
0.0146667
-6.26564e-05
0.0126812
-3.28233e-05
0.0101711
-1.08468e-05
0.00735255
-3.71229e-06
0.00440806
1.1983e-07
0.00145616
8.12094e-05
8.13295e-05
0.000283337
6.68007e-10
0.000283166
4.56789e-08
0.00117403
3.01638e-07
1.6709e-07
0.00197821
5.41907e-07
-5.9141e-07
0.00621532
-1.87869e-05
0.00197156
-1.58024e-06
0.00117423
-2.51402e-07
3.4892e-07
-0.00028319
0.000283056
2.75524e-08
1.16528e-07
-8.11796e-05
8.12685e-05
-0.000145611
0.00913877
-0.000310031
0.011864
-0.000336594
0.0141226
-0.000279139
0.0156522
-0.000204815
0.0162712
-0.00013819
0.0159336
-8.56406e-05
0.0146897
-4.76195e-05
0.012696
-2.04575e-05
0.0101807
-7.0137e-06
0.00735573
3.10839e-07
0.00440762
5.70693e-07
0.00145525
8.12699e-05
8.13163e-05
0.000283351
4.56865e-09
0.000283408
1.05291e-07
0.00117455
3.19029e-07
-9.49452e-08
0.00197246
-1.50057e-06
-1.03743e-05
0.00612644
-4.63661e-05
0.00195773
-4.06463e-06
0.00117286
-6.68812e-08
1.67338e-07
-0.000283891
0.000283555
7.97442e-08
-1.35508e-07
-8.14328e-05
8.14606e-05
-0.00027695
0.00910567
-0.000366199
0.0118936
-0.000313453
0.0141569
-0.00023294
0.0156803
-0.000165221
0.0162983
-0.000104961
0.015953
-6.28819e-05
0.014705
-3.40195e-05
0.0127095
-1.21752e-05
0.0101858
-2.2261e-06
0.00735811
1.98383e-06
0.00440594
1.02558e-06
0.0014539
8.14642e-05
8.15686e-05
0.000283861
1.16482e-08
0.000283711
5.46463e-08
0.00117129
3.15581e-07
-2.49802e-07
0.00195459
-7.24444e-06
-5.409e-05
0.00602625
-0.000122645
0.00192446
-1.62422e-05
0.00116707
-1.99056e-07
3.42927e-07
-0.000283757
0.000283865
-1.77016e-07
1.22033e-07
-8.14331e-05
8.15113e-05
-0.000384997
0.0091246
-0.000333348
0.0119137
-0.000248143
0.0141723
-0.000178988
0.0156942
-0.000120261
0.0163136
-7.81022e-05
0.0159682
-4.18187e-05
0.0147128
-1.75254e-05
0.0127149
-5.64447e-06
0.0101891
1.97634e-06
0.00735797
2.6744e-06
0.00440402
2.46206e-06
0.00145109
8.15229e-05
8.15775e-05
0.000284167
1.02647e-08
0.000283808
1.05989e-07
0.00116001
3.86697e-07
-5.70251e-07
0.00190029
-2.99315e-05
-0.000171908
0.00602403
-0.000210854
0.00184166
-6.40078e-05
0.00114514
-1.53758e-06
1.55574e-07
-0.000284081
0.000283789
8.90783e-08
6.75611e-08
-8.16996e-05
8.15218e-05
-0.000332463
0.00912372
-0.000235565
0.0119011
-0.00017115
0.0141645
-0.000125444
0.0156994
-8.598e-05
0.0163216
-5.42944e-05
0.0159807
-2.91185e-05
0.0147244
-1.09632e-05
0.0127202
3.06564e-06
0.010188
5.68672e-06
0.00735477
6.51736e-06
0.00439968
3.16047e-06
0.00144764
8.15312e-05
8.16364e-05
0.000284123
5.17302e-08
0.000283666
-1.13614e-07
0.0011193
-4.12456e-07
-3.68688e-06
0.00180478
-0.000135023
-0.000181396
0.00597137
-9.83239e-05
0.00177333
-0.000179398
0.00106825
-1.10067e-05
-1.94002e-06
-0.000283644
0.000282337
-2.32649e-07
1.77236e-07
-8.17039e-05
8.17916e-05
-0.000181087
0.00906946
-0.000143823
0.011874
-0.000113254
0.0141525
-8.11927e-05
0.0156947
-5.52914e-05
0.0163226
-3.05298e-05
0.0159822
-1.34741e-05
0.0147269
-4.30155e-07
0.0127236
7.40066e-06
0.0101861
1.24501e-05
0.00734866
9.72429e-06
0.00439286
3.71926e-06
0.00144369
8.18433e-05
8.17295e-05
0.000282133
-2.11776e-07
0.000278666
-2.23521e-07
0.000986576
-1.47238e-05
-3.86214e-05
0.00172901
-0.000137083
-6.23911e-05
0.00587025
-1.75109e-05
0.00168898
-5.82617e-05
0.000939431
-6.74529e-05
-6.47957e-05
-0.000277319
0.000268136
-1.82452e-06
-5.93919e-07
-8.19067e-05
8.16732e-05
-8.35474e-05
0.00900921
-7.87531e-05
0.0118396
-6.6518e-05
0.0141379
-4.99337e-05
0.0156895
-3.19453e-05
0.0163241
-1.42691e-05
0.015983
-1.43827e-07
0.0147266
1.19928e-05
0.012719
1.56989e-05
0.0101828
1.43896e-05
0.00734382
9.519e-06
0.00438687
4.89883e-06
0.00143865
8.14605e-05
8.12365e-05
0.000257546
-4.13097e-06
0.000229313
-1.03855e-05
0.000872249
-4.98474e-05
-2.00492e-05
0.00164981
-2.31822e-05
-1.81552e-05
0.00580439
5.94858e-07
0.0016394
-7.07624e-06
0.000822221
-1.35197e-06
-6.85956e-06
-0.000187449
0.000161373
-4.13737e-05
-2.29296e-05
-8.06425e-05
7.88178e-05
-3.87885e-05
0.00896954
-4.07608e-05
0.0118141
-3.60519e-05
0.0141242
-2.72259e-05
0.0156849
-1.4496e-05
0.0163244
-2.00816e-06
0.0159849
1.34467e-05
0.0147252
1.61905e-05
0.0127184
2.09535e-05
0.0101761
1.78717e-05
0.00733533
1.39547e-05
0.00437768
5.29e-06
0.00143328
7.46876e-05
6.43029e-05
0.000111526
9.14777e-05
0.000799779
-7.42032e-07
3.5713e-08
0.00162483
-3.56432e-06
-7.06141e-06
0.00576908
3.6949e-06
0.00162567
-1.85228e-07
0.000792681
3.08211e-07
-2.67983e-07
-8.46182e-05
8.32704e-05
-4.13733e-05
-1.6706e-05
0.00894552
-2.01007e-05
0.0117982
-1.67755e-05
0.0141138
-5.96701e-06
0.0156764
1.63691e-06
0.0163208
1.36234e-05
0.0159848
1.66638e-05
0.0147247
2.60416e-05
0.0127133
2.56903e-05
0.0101682
2.40165e-05
0.00732517
1.63887e-05
0.00436651
6.25964e-06
0.00142698
8.2532e-05
8.25709e-05
0.000789056
-4.3815e-08
1.2599e-07
0.00161958
-9.14905e-07
-4.23526e-06
0.00575257
4.20141e-06
0.00162203
1.28395e-06
0.000788818
1.33793e-07
-4.79852e-08
-8.2303e-05
8.2617e-05
-3.44631e-06
0.0089292
-6.90562e-06
0.0117886
-2.1421e-06
0.0141102
4.68946e-06
0.0156735
1.52691e-05
0.0163193
2.10102e-05
0.0159804
3.29223e-05
0.0147178
3.38622e-05
0.012705
3.38679e-05
0.0101583
2.91389e-05
0.00731236
1.85092e-05
0.00435422
7.34102e-06
0.00141961
8.25743e-05
8.27022e-05
0.000787689
9.93297e-08
1.68214e-07
0.00161766
1.62315e-07
-2.04553e-06
0.00574758
3.72111e-06
0.00162175
1.85917e-07
0.0007889
2.11571e-07
-1.1085e-07
-8.26542e-05
8.27958e-05
5.5384e-07
0.00892179
3.25245e-06
0.0117833
6.58216e-06
0.0141083
1.29457e-05
0.0156759
2.5137e-05
0.0163152
3.20444e-05
0.0159813
3.3649e-05
0.0147179
3.81553e-05
0.0127007
3.70054e-05
0.0101504
3.31203e-05
0.00729772
2.22084e-05
0.00433933
8.49547e-06
0.00141111
8.29005e-05
8.30737e-05
0.000788931
8.17713e-08
7.80952e-08
0.00161938
3.948e-07
-9.77679e-07
0.00574637
2.9412e-06
0.0016222
9.60912e-07
0.000789257
4.78304e-08
-1.4652e-07
-8.29628e-05
8.31832e-05
3.38047e-06
0.00892203
9.80546e-06
0.0117804
1.67177e-05
0.0141047
2.42649e-05
0.0156768
2.85117e-05
0.0163187
4.23956e-05
0.0159725
4.86335e-05
0.0147074
5.11332e-05
0.0126865
4.56212e-05
0.0101378
3.85707e-05
0.00728134
2.5088e-05
0.00432272
9.63756e-06
0.00140146
8.32667e-05
8.33473e-05
0.000789607
4.78686e-08
6.19246e-08
0.00162144
-1.73563e-07
-4.25293e-09
0.00574694
2.96037e-06
0.00162351
9.6471e-07
0.000790671
6.15596e-08
-1.24388e-07
-8.32008e-05
8.32581e-05
7.64839e-06
0.00892421
1.46015e-05
0.0117825
1.9134e-05
0.0141099
3.33557e-05
0.015672
4.39114e-05
0.0163172
4.95392e-05
0.0159716
5.28192e-05
0.0147057
5.72831e-05
0.0126748
5.44066e-05
0.010122
4.46915e-05
0.00726173
2.93741e-05
0.00430298
1.07136e-05
0.00139075
8.33127e-05
8.33811e-05
0.000790417
5.01809e-08
7.29143e-08
0.00162295
6.4921e-07
3.89998e-08
0.00575174
3.03016e-06
0.00162533
6.53546e-07
0.000791399
-4.55142e-08
8.28796e-08
-8.32567e-05
8.33302e-05
8.88774e-06
0.0089303
1.59906e-05
0.0117859
2.8687e-05
0.0141147
3.67939e-05
0.0156791
4.65217e-05
0.0163202
5.77981e-05
0.0159666
6.591e-05
0.014697
6.53626e-05
0.0126639
6.29421e-05
0.0101037
4.93403e-05
0.00724176
3.299e-05
0.0042807
1.2292e-05
0.00137847
8.33834e-05
8.34603e-05
0.000792
4.83006e-08
7.98156e-08
0.00162475
6.67114e-07
1.19365e-06
0.00575637
3.20541e-06
0.00162721
6.79012e-07
0.000792584
6.73774e-08
5.16982e-08
-8.35432e-05
8.35105e-05
1.06486e-05
0.00893562
2.01605e-05
0.0117944
2.98016e-05
0.0141217
4.37437e-05
0.0156819
5.83693e-05
0.0163196
6.72009e-05
0.0159653
7.63284e-05
0.0146861
7.59543e-05
0.0126508
7.15853e-05
0.0100815
5.8993e-05
0.00721575
3.60902e-05
0.00425691
1.35022e-05
0.00136498
8.35673e-05
8.36551e-05
0.000793384
-1.42121e-07
5.89706e-08
0.00162781
6.88055e-07
1.90333e-07
0.00576385
3.17572e-06
0.00163026
8.27054e-07
0.000794003
7.34335e-08
4.72336e-08
-8.37068e-05
8.37889e-05
1.17451e-05
0.00894436
2.20238e-05
0.0118024
3.62873e-05
0.0141292
4.92411e-05
0.015691
6.58464e-05
0.0163209
7.78733e-05
0.0159637
8.43566e-05
0.0146777
9.12516e-05
0.0126312
8.23155e-05
0.0100581
6.64782e-05
0.00718537
4.2149e-05
0.00422827
1.42406e-05
0.00135075
8.36505e-05
8.37141e-05
0.000794598
4.33761e-08
1.36435e-07
0.00162979
7.10363e-07
1.22236e-06
0.00577131
3.1704e-06
0.00163231
7.59251e-07
0.000795461
1.13239e-07
-9.93795e-08
-8.37613e-05
8.38492e-05
1.12763e-05
0.00895504
2.42964e-05
0.0118143
4.27822e-05
0.0141356
6.21907e-05
0.0156946
7.73816e-05
0.0163214
9.25583e-05
0.0159555
0.000101392
0.0146675
0.000101223
0.0126123
9.41866e-05
0.0100304
7.34036e-05
0.00715413
4.5545e-05
0.00419698
1.33636e-05
0.0013374
8.39019e-05
8.4047e-05
0.000796093
4.6016e-08
8.34258e-08
0.00163292
6.97263e-07
-1.10386e-07
0.00578028
2.56346e-06
0.00163542
7.35482e-07
0.000796973
6.94966e-08
-1.33067e-07
-8.39476e-05
8.40768e-05
1.19496e-05
0.00896763
2.84546e-05
0.0118288
4.82612e-05
0.0141496
6.97504e-05
0.0157023
8.75004e-05
0.0163264
0.000102289
0.0159546
0.000114991
0.0146537
0.000111583
0.0125949
0.000104749
0.00999911
8.39191e-05
0.00711577
4.96372e-05
0.00416072
1.71451e-05
0.00132026
8.41266e-05
8.42145e-05
0.000797633
3.78655e-08
8.11276e-08
0.00163482
5.21637e-07
-5.52763e-08
0.00579206
2.5443e-07
0.00163716
3.06857e-07
0.000798468
-9.51389e-08
3.70974e-08
-8.40814e-05
8.41652e-05
1.44979e-05
0.00898146
3.35575e-05
0.0118433
5.8568e-05
0.0141607
7.74315e-05
0.0157123
0.000100565
0.0163281
0.000117795
0.0159518
0.000128183
0.0146371
0.000131543
0.0125681
0.000117989
0.00996505
9.15169e-05
0.0070739
5.22195e-05
0.00412565
3.72909e-05
0.00128298
8.4212e-05
8.43011e-05
0.000798908
2.99879e-08
9.00322e-08
0.00163774
-5.85576e-07
2.54925e-07
0.00580515
1.21158e-06
0.00164058
-2.54639e-06
0.000799063
1.32353e-07
6.10437e-08
-8.43382e-05
8.42577e-05
1.90275e-05
0.00899621
4.14563e-05
0.0118606
6.34452e-05
0.0141747
9.00553e-05
0.0157228
0.00011544
0.0163305
0.000135347
0.0159446
0.00014569
0.014623
0.000142065
0.012544
0.000129237
0.00992734
9.91936e-05
0.00702693
8.57069e-05
0.00407723
8.12426e-05
8.429e-05
8.4383e-05
0.000798687
-1.5826e-08
-1.35246e-07
0.00164578
-4.98206e-06
2.90608e-06
0.0058164
4.86277e-06
0.00164314
5.90247e-06
-2.01797e-06
0.000796203
7.403e-09
-5.99136e-08
-8.4444e-05
8.45876e-05
2.4579e-05
0.00901297
4.45089e-05
0.0118794
7.25682e-05
0.0141921
0.000100829
0.0157374
0.000127078
0.0163387
0.000148499
0.0159418
0.000161635
0.0146034
0.000163289
0.01251
0.00014523
0.00988131
0.000130288
0.00698235
0.00015
8.45785e-05
8.44482e-05
0.000468652
-5.93735e-08
-2.4818e-07
0.000322859
0.00164548
-1.05305e-06
1.6104e-06
4.7239e-06
0.0058309
5.43422e-06
0.00164707
1.11597e-06
2.15794e-06
0.000493846
-1.9309e-05
0.00049904
-7.20334e-06
-8.43883e-05
8.4403e-05
2.53045e-05
0.00903238
5.27276e-05
0.0118994
8.21247e-05
0.0142109
0.000118269
0.0157462
0.000148868
0.0163384
0.000170522
0.0159329
0.000182157
0.0145846
0.000179612
0.0124756
0.000173096
0.00983851
0.000197807
8.43409e-05
8.40917e-05
0.000300454
3.09542e-06
0.00050066
-2.67597e-06
0.000503238
-9.62712e-07
0.00164896
1.06854e-06
1.74539e-06
4.32609e-06
0.00584727
4.59652e-06
0.0016523
6.95897e-07
1.43074e-06
0.000503956
3.91621e-07
0.000504999
1.12628e-06
0.000294649
-1.40413e-06
2.9461e-05
0.00905555
5.84211e-05
0.011923
9.43197e-05
0.0142348
0.000129541
0.0157655
0.00016143
0.0163475
0.000189385
0.0159257
0.000197052
0.0145672
0.000207064
0.0124417
0.000232113
8.7185e-05
0.00029312
-1.13719e-06
0.000292597
-4.42687e-07
0.000505519
5.48913e-07
0.000506556
7.13363e-07
0.0016547
5.68029e-07
1.35266e-06
5.82315e-06
0.00586571
5.25621e-06
0.0016575
6.60234e-07
1.13119e-06
0.000507064
1.80592e-07
0.000507693
8.12671e-07
0.000292995
1.04025e-11
0.000294057
6.69551e-08
8.5783e-05
3.30625e-05
0.00908106
6.80318e-05
0.0119494
0.00010761
0.0142567
0.000149224
0.0157777
0.000183726
0.0163531
0.000203365
0.0159194
0.000229363
0.0145448
0.00025215
8.46463e-05
8.42051e-05
0.000294386
2.33939e-07
0.000294876
2.24095e-07
0.000507628
6.33637e-07
0.000508791
1.93949e-07
0.00166132
7.68321e-07
1.20787e-06
6.49649e-06
0.0058864
5.86317e-06
0.0016645
7.99199e-07
1.28812e-06
0.000509029
4.14616e-07
0.000509579
5.87378e-07
0.000294891
1.72039e-07
0.000295535
1.6831e-07
8.42059e-05
8.42774e-05
3.98498e-05
0.00910918
7.58605e-05
0.0119811
0.000122044
0.0142838
0.00016487
0.0157965
0.000196644
0.0163598
0.000233881
0.0159149
0.000258926
8.45134e-05
8.47398e-05
0.000296029
1.51682e-07
0.000296276
-5.44086e-08
0.000510013
3.28744e-07
0.000510759
4.59057e-07
0.00166876
8.92484e-07
1.32951e-06
6.26643e-06
0.00591334
6.67478e-06
0.00167236
9.04591e-07
1.34385e-06
0.000511049
4.9704e-07
0.000512064
2.77306e-07
0.00029658
1.15222e-07
0.000297034
1.31412e-07
8.49121e-05
8.50838e-05
4.34488e-05
0.00914172
9.00199e-05
0.0120132
0.000139468
0.0143092
0.000180858
0.0158123
0.000222761
0.0163709
0.000248895
8.52366e-05
8.51839e-05
0.000297247
1.23079e-07
0.000297572
1.29146e-07
0.000512144
8.09228e-07
0.000512948
5.25706e-07
0.00167596
1.00015e-06
1.64065e-06
8.25782e-06
0.00594112
7.40827e-06
0.00168029
8.45976e-07
1.4969e-06
0.000513724
1.1937e-07
0.000514385
6.83686e-07
0.00029811
-3.89926e-08
0.000298226
1.58514e-07
8.5299e-05
8.5433e-05
5.22231e-05
0.00917948
0.000102687
0.0120499
0.000152058
0.0143379
0.000197647
0.0158374
0.000224626
8.55561e-05
8.56858e-05
0.000298848
1.9384e-07
0.000299216
1.54499e-07
0.00051456
8.16631e-07
0.000516027
1.68688e-07
0.00168551
1.20908e-06
1.81941e-06
9.88322e-06
0.00597471
8.78078e-06
0.00169011
1.07129e-06
1.71746e-06
0.000516302
5.59179e-07
0.000517035
7.64402e-07
0.000299206
1.30337e-07
0.000299927
-4.08761e-08
8.56461e-05
8.58068e-05
6.25914e-05
0.00921964
0.000120996
0.0120809
0.000167109
0.0143685
0.000185944
8.6001e-05
8.61562e-05
0.000300598
1.48695e-07
0.000300628
1.34024e-07
0.000517725
5.13935e-07
0.000518888
6.53224e-07
0.00169646
1.45149e-06
2.06915e-06
1.12242e-05
0.00601492
1.11796e-05
0.00170196
1.33663e-06
1.94207e-06
0.000519273
6.77896e-07
0.000520384
6.04366e-07
0.000300981
2.05029e-07
0.000301747
-4.37522e-09
8.62857e-05
8.62462e-05
7.94585e-05
0.00926115
0.000129574
0.0121184
0.000142411
8.63945e-05
8.65286e-05
0.000302099
1.65111e-07
0.000302573
1.75077e-07
0.000520908
9.21223e-07
0.000522186
7.86062e-07
0.0017091
2.30925e-06
1.77903e-06
1.53818e-05
0.00606249
1.65374e-05
0.00171649
2.15508e-06
1.64402e-06
0.000523125
3.90777e-07
0.000523987
1.0776e-06
0.000303063
1.86822e-07
0.000303457
2.06969e-07
8.67327e-05
8.67294e-05
9.51868e-05
0.00929557
9.67358e-05
8.68943e-05
8.70694e-05
0.000304139
2.40642e-07
0.000304883
3.828e-08
0.000525264
1.03136e-06
0.000526562
4.78915e-07
0.00172631
2.79366e-06
2.7708e-06
2.22115e-05
0.00610852
2.6981e-05
0.00173579
3.23007e-06
3.83989e-06
0.000527807
9.09345e-07
0.000528282
1.16994e-06
0.000305076
1.96589e-07
0.000305931
2.20632e-07
8.72555e-05
8.74631e-05
6.38264e-05
8.77033e-05
8.77415e-05
0.000306735
2.25915e-07
0.000306989
2.22473e-07
0.000529876
1.19997e-06
0.000531913
7.34207e-07
0.00174872
4.61406e-06
4.69103e-06
4.91869e-05
2.28322e-05
0.0017616
5.70978e-06
8.40812e-06
0.000533768
1.37666e-06
0.000535475
2.13502e-06
0.000307851
4.59401e-08
0.000308788
2.32331e-07
8.79376e-05
8.81577e-05
8.83829e-05
8.86046e-05
0.000309736
2.50924e-07
0.000310205
2.6567e-07
0.000538154
1.93891e-06
0.00054034
2.50974e-06
0.00178255
1.15664e-05
1.66916e-05
2.43002e-05
1.1697e-05
0.000543237
2.81926e-06
0.000547448
4.20663e-06
0.000311251
3.30208e-07
0.000312958
4.29855e-07
8.865e-05
8.88818e-05
8.91327e-05
8.93982e-05
0.000314428
4.71546e-07
0.000316286
6.56847e-07
0.000551339
7.68468e-06
0.000556613
1.14305e-05
0.000563891
1.7035e-05
1.5782e-05
0.000318437
6.74891e-07
0.000321545
1.10335e-06
8.97289e-05
9.01593e-05
9.06324e-05
9.12913e-05
0.000327001
2.23851e-06
0.000333326
5.11988e-06
0.000339536
1.08366e-05
2.24267e-05
9.19677e-05
9.30734e-05
9.53167e-05
0.000100442
0.000111282
1.46435e-05
-1.46252e-05
-6.25804e-05
2.16531e-05
5.55981e-05
7.55339e-06
-2.21099e-05
-7.5667e-05
2.0723e-05
-0.000124221
2.95526e-05
0.000116459
1.73697e-05
3.8255e-05
3.65036e-06
-2.58224e-05
1.28037e-05
-8.46036e-05
-0.000134491
3.11988e-05
-2.44579e-05
-0.000425689
6.9608e-05
0.000410635
0.000109362
7.32046e-06
3.09014e-05
1.58408e-06
-2.73032e-05
2.03156e-05
-0.000141852
7.09051e-06
-9.00302e-05
6.61288e-05
-0.00044013
-4.03441e-05
-0.00149315
0.00146979
0.000133416
-1.58617e-05
0.000393341
-6.9236e-06
0.000100845
2.59916e-06
2.842e-05
8.15945e-07
-2.80683e-05
1.45838e-05
-0.000149153
4.15554e-06
-9.33363e-05
-4.40931e-05
0.000135867
-0.00151816
-8.12044e-06
-0.00046172
-2.55913e-05
8.51706e-05
-7.07294e-06
-0.0021971
0.00216894
0.000161713
0.000374824
-5.00276e-06
-1.62493e-06
9.66289e-05
1.29773e-06
2.73563e-05
1.53317e-07
-2.82468e-05
-0.000153193
1.53028e-06
-9.49766e-05
0.000168145
-0.00222946
-2.00572e-05
8.88068e-05
-0.0015752
-1.24697e-05
-4.45859e-06
-0.000475379
-2.20917e-06
0.000134637
-1.39588e-06
-0.00271893
0.00267342
0.000207033
9.30132e-05
-4.16295e-07
9.19835e-05
2.69517e-05
-7.68701e-08
-2.84339e-05
-0.000156183
6.57381e-07
-9.58474e-05
0.000219677
-0.00277052
0.000153923
-0.00229467
6.7017e-05
-0.00163898
-3.03337e-06
-2.11655e-08
-0.000486212
-7.11815e-07
-1.15617e-06
-0.000157735
0.000190442
-1.7772e-07
-0.0029977
0.00293777
0.000266931
-1.45145e-07
-2.82967e-05
8.91682e-08
-9.61084e-05
0.00028439
-0.00306253
0.000231191
-0.00284772
0.000157994
-0.00238539
9.19485e-05
-0.00171648
-1.40647e-05
5.16888e-07
0.000488514
-0.000495784
2.72558e-06
1.05853e-06
3.67695e-07
1.49226e-06
0.000158802
-3.03524e-08
-0.000159642
0.000254293
-0.00297359
0.00290834
0.000331985
-1.63677e-07
-2.82681e-05
-9.63775e-05
0.000350753
-0.00304018
0.000313398
-0.00314475
0.00026227
-0.00295151
0.000203005
-0.00249536
0.000156952
-0.00181795
-3.69946e-05
-1.60301e-05
0.000498113
-0.000509175
-3.24799e-06
2.49131e-06
0.000157413
-0.000147782
-7.11626e-06
0.000159252
-8.77854e-07