/*--------------------------------*- C++ -*----------------------------------*\
| =========                 |                                                 |
| \\      /  F ield         | OpenFOAM: The Open Source CFD Toolbox           |
|  \\    /   O peration     | Version:  v1912                                 |
|   \\  /    A nd           | Website:  www.openfoam.com                      |
|    \\/     M anipulation  |                                                 |
\*---------------------------------------------------------------------------*/
FoamFile
{
    version     2.0;
    format      ascii;
    class       volScalarField;
    location    "80";
    object      p;
}
// * * * * * * * * * * * * * * * * * * * * * * * * * * * * * * * * * * * * * //

dimensions      [0 2 -2 0 0 0 0];


internalField   nonuniform List<scalar> 
3675
(
0.237184
0.235
0.243625
0.230561
0.240918
0.261966
0.224175
0.235501
0.257762
0.295179
0.216244
0.227829
0.249603
0.287747
0.349397
0.207213
0.21847
0.238423
0.273834
0.334585
0.436211
0.197528
0.208015
0.225287
0.255584
0.308535
0.404308
0.546308
0.528167
0.187598
0.197016
0.211183
0.235276
0.276607
0.354025
0.495239
0.440459
0.645223
0.617615
0.177787
0.185945
0.196904
0.214719
0.2439
0.294295
0.383433
0.564448
0.505177
0.718816
0.70543
0.645067
0.681863
0.168399
0.17519
0.18303
0.195015
0.213516
0.241072
0.272229
0.351361
0.251142
0.607717
0.539074
0.450648
0.752221
0.734333
0.635725
0.687745
0.159687
0.165059
0.169971
0.176762
0.186421
0.198105
0.197937
0.0967346
0.174721
0.21118
0.0298565
0.609478
0.509763
0.260277
0.27981
0.151854
0.155797
0.158011
0.160276
0.162766
0.163155
0.147402
0.0535552
-0.310352
-0.252444
-0.0262121
-0.0182307
-0.251779
-0.231158
0.582464
0.380129
0.201436
0.145064
0.147587
0.147335
0.145701
0.142446
0.134645
0.110016
0.0304401
-0.272652
-0.524454
-0.360726
-0.447692
-0.16545
-0.270466
0.139445
0.140577
0.138065
0.133072
0.125206
0.111522
0.0819307
0.0124097
-0.198674
-0.425895
-0.501312
-0.569644
-0.514779
-0.460991
-0.534619
0.135103
0.134876
0.130284
0.12236
0.110751
0.0928
0.0606256
-0.00214779
-0.152319
-0.338574
-0.388611
-0.461491
-0.539332
-0.472619
-0.534926
0.13212
0.130573
0.124046
0.113518
0.0987903
0.0776349
0.0441174
-0.0131415
-0.125648
-0.269577
-0.342852
-0.361307
-0.409124
-0.425638
-0.439314
-0.479965
-0.498125
0.130571
0.127742
0.119396
0.1065
0.089076
0.0653706
0.0310563
-0.0216822
-0.11053
-0.224496
-0.300703
-0.336934
-0.346035
-0.375314
-0.38899
-0.413082
-0.456317
-0.443567
0.130513
0.126445
0.11637
0.101269
0.0814071
0.0555093
0.0205434
-0.0287203
-0.102191
-0.194605
-0.267133
-0.309798
-0.333978
-0.332741
-0.349229
-0.358626
-0.37903
-0.397515
-0.420616
-0.416576
0.132
0.126737
0.115012
0.0978064
0.075642
0.0476873
0.011963
-0.0348409
-0.0981548
-0.175037
-0.241512
-0.285766
-0.315801
-0.326261
-0.322195
-0.333009
-0.339467
-0.35104
-0.361666
-0.376107
-0.384519
-0.405445
-0.395197
-0.421938
-0.409858
0.135072
0.128672
0.115365
0.0961214
0.0716877
0.0416527
0.00488893
-0.0404219
-0.0970376
-0.162914
-0.223091
-0.266878
-0.298348
-0.315498
-0.318098
-0.314279
-0.322052
-0.326734
-0.334344
-0.341262
-0.349442
-0.354511
-0.366528
-0.359965
-0.376878
-0.385034
-0.405654
-0.395726
0.139764
0.132294
0.117488
0.0962465
0.0695101
0.0372392
-0.000971759
-0.0457188
-0.0980545
-0.15623
-0.210743
-0.253011
-0.284371
-0.304445
-0.31198
-0.311554
-0.307734
-0.313974
-0.317715
-0.323141
-0.328012
-0.333453
-0.336777
-0.344238
-0.340191
-0.349955
-0.354849
-0.366986
-0.360551
0.146091
0.137644
0.121443
0.0982518
0.0691275
0.0343698
-0.0058169
-0.0509251
-0.100792
-0.153682
-0.203395
-0.243558
-0.274056
-0.295115
-0.305562
-0.308045
-0.305845
-0.301707
-0.307289
-0.310621
-0.314905
-0.31868
-0.322649
-0.325022
-0.330127
-0.327391
-0.333885
-0.337077
-0.344559
-0.340623
0.154055
0.144749
0.127306
0.102236
0.0706225
0.0330435
-0.0097586
-0.0561807
-0.105079
-0.154503
-0.200285
-0.238035
-0.267168
-0.288093
-0.30002
-0.304458
-0.303865
-0.300234
-0.295547
-0.301203
-0.304424
-0.308143
-0.311404
-0.31462
-0.316501
-0.320334
-0.318301
-0.323044
-0.325317
-0.330431
-0.327777
0.163618
0.153622
0.135155
0.10834
0.0741392
0.0333452
-0.0128512
-0.061611
-0.110902
-0.15831
-0.200927
-0.236121
-0.263498
-0.283573
-0.295952
-0.301495
-0.302095
-0.299204
-0.294499
-0.289544
-0.294881
-0.298418
-0.302067
-0.305097
-0.307941
-0.309614
-0.312827
-0.311135
-0.315005
-0.3168
-0.320635
-0.318671
0.174712
0.164242
0.145073
0.116742
0.0799054
0.0354472
-0.0150765
-0.067328
-0.118393
-0.165008
-0.205077
-0.23762
-0.262889
-0.28158
-0.293647
-0.299605
-0.300888
-0.298671
-0.294209
-0.289133
-0.285936
-0.290142
-0.291325
-0.295989
-0.299247
-0.301818
-0.303474
-0.30641
-0.304829
-0.308327
-0.309912
-0.31313
-0.311503
0.1872
0.17655
0.157128
0.127664
0.0882382
0.03964
-0.0163507
-0.073454
-0.127856
-0.174776
-0.212709
-0.24245
-0.265246
-0.282089
-0.293219
-0.299002
-0.300496
-0.298684
-0.294508
-0.289315
-0.28507
-0.280284
-0.285275
-0.288134
-0.291239
-0.291123
-0.29608
-0.297813
-0.300497
-0.298915
-0.30219
-0.30374
-0.306701
-0.305198
0.20088
0.190419
0.171362
0.141362
0.0995725
0.0463467
-0.0164641
-0.0800963
-0.139815
-0.188096
-0.224033
-0.250654
-0.270544
-0.285084
-0.294728
-0.299794
-0.301057
-0.299321
-0.295303
-0.289999
-0.284827
-0.279601
-0.27402
-0.279405
-0.28224
-0.28576
-0.288864
-0.291474
-0.292928
-0.294019
-0.28926
-0.297122
-0.2981
-0.300696
-0.299255
0.215445
0.205644
0.187762
0.158121
0.114482
0.0561826
-0.0150628
-0.0873629
-0.155119
-0.205802
-0.2395
-0.262409
-0.27883
-0.290573
-0.298217
-0.302059
-0.30266
-0.300654
-0.296591
-0.291167
-0.285353
-0.279462
-0.273371
-0.267867
-0.273355
-0.276289
-0.279928
-0.282767
-0.285511
-0.28682
-0.289796
-0.288497
-0.29206
-0.296309
-0.297068
-0.286789
0.230483
0.221888
0.206229
0.178219
0.133669
0.070061
-0.0115194
-0.0953753
-0.175135
-0.229205
-0.259829
-0.278025
-0.290225
-0.298599
-0.303725
-0.305854
-0.305376
-0.302755
-0.298396
-0.292773
-0.286524
-0.280035
-0.273367
-0.267212
-0.260925
-0.26719
-0.270246
-0.273959
-0.276907
-0.279705
-0.281112
-0.283904
-0.282569
-0.285816
-0.287173
-0.290203
-0.288719
-0.291802
-0.295903
-0.283273
0.245459
0.238668
0.226499
0.20191
0.157888
0.0892439
-0.00468305
-0.104454
-0.2022
-0.260278
-0.286037
-0.297936
-0.304918
-0.309239
-0.311293
-0.311223
-0.309258
-0.305685
-0.300762
-0.294792
-0.288176
-0.281221
-0.274044
-0.267157
-0.260931
-0.255256
-0.256211
-0.263689
-0.26803
-0.270911
-0.273696
-0.275187
-0.278113
-0.276668
-0.280046
-0.281463
-0.284282
-0.282908
-0.286125
-0.287465
-0.290403
-0.28896
0.259745
0.255312
0.248013
0.229226
0.188136
0.115247
0.0074472
-0.115457
-0.2404
-0.302068
-0.319492
-0.322707
-0.323154
-0.3226
-0.320967
-0.318198
-0.31434
-0.309486
-0.303736
-0.297235
-0.290212
-0.282863
-0.275283
-0.267791
-0.260797
-0.254534
-0.25582
-0.248576
-0.266351
-0.264596
-0.267645
-0.269151
-0.272101
-0.270605
-0.274024
-0.27551
-0.278469
-0.277009
-0.280371
-0.281759
-0.284597
-0.283224
0.272664
0.270993
0.269778
0.25958
0.225846
0.151069
0.0268572
-0.13061
-0.296653
-0.359172
-0.36205
-0.353049
-0.345245
-0.338813
-0.332793
-0.326799
-0.320642
-0.314186
-0.30735
-0.300126
-0.292593
-0.284846
-0.276927
-0.269001
-0.261386
-0.254348
-0.248033
-0.249176
-0.254804
-0.258684
-0.24251
-0.263482
-0.265439
-0.261003
-0.268038
-0.269434
-0.272423
-0.270921
-0.274329
-0.275781
-0.278768
-0.277319
0.283577
0.284803
0.290352
0.291408
0.271584
0.20373
0.0559503
-0.155053
-0.382425
-0.43753
-0.416017
-0.389833
-0.371601
-0.358041
-0.346816
-0.337032
-0.328165
-0.319794
-0.311624
-0.303483
-0.295313
-0.287108
-0.278853
-0.2706
-0.26254
-0.254912
-0.247937
-0.241842
-0.243373
-0.248567
-0.251615
-0.254353
-0.25626
-0.258044
-0.259752
-0.236447
-0.261681
-0.263686
-0.268817
-0.266566
-0.268236
-0.269649
-0.27269
-0.271201
0.291938
0.295911
0.308086
0.321914
0.32266
0.276949
0.108758
-0.196005
-0.513609
-0.543057
-0.483124
-0.433765
-0.402682
-0.380487
-0.363085
-0.348891
-0.336893
-0.326301
-0.316559
-0.307316
-0.298373
-0.289623
-0.280989
-0.272443
-0.264058
-0.255984
-0.248431
-0.241642
-0.23567
-0.237448
-0.242699
-0.245703
-0.248269
-0.249862
-0.251206
-0.252651
-0.230075
-0.266274
-0.266398
0.297369
0.30368
0.321543
0.347451
0.372513
0.360497
0.211083
-0.251467
-0.691265
-0.675838
-0.560507
-0.484291
-0.438464
-0.406267
-0.381631
-0.36236
-0.346797
-0.33368
-0.322141
-0.311621
-0.301773
-0.292383
-0.283303
-0.274444
-0.265791
-0.257399
-0.249397
-0.242006
-0.235385
-0.229363
-0.231263
-0.236614
-0.239765
-0.242372
-0.243977
-0.245324
-0.246704
-0.223444
0.299672
0.307758
0.329785
0.365075
0.411759
0.44898
0.315716
0.415614
-0.0853818
-0.0206268
0.331595
-0.74935
-0.471035
-0.88873
-0.806518
-0.891349
-0.632451
-0.536189
-0.477125
-0.434782
-0.402302
-0.377384
-0.357833
-0.341893
-0.32834
-0.31638
-0.305502
-0.295376
-0.28578
-0.276562
-0.267646
-0.259011
-0.250699
-0.24285
-0.235652
-0.229136
-0.223192
-0.223797
-0.230534
-0.233692
-0.236192
-0.237899
-0.239314
-0.240763
-0.218881
0.298837
0.308073
0.332517
0.373387
0.434291
0.514814
0.492389
0.563486
0.439025
0.166502
0.0122138
-0.35971
-0.293376
0.202481
-0.72761
-0.651973
-0.549626
-1.10628
-0.800216
-0.87776
-0.871588
-0.678889
-0.842277
-0.97065
-0.574634
-0.512885
-0.463395
-0.424168
-0.393681
-0.369904
-0.350883
-0.335115
-0.321563
-0.309541
-0.298593
-0.28841
-0.27878
-0.269573
-0.260716
-0.252185
-0.244032
-0.236387
-0.229375
-0.223073
-0.218016
-0.21989
-0.224169
-0.225258
-0.230558
-0.231996
-0.233055
-0.234543
-0.212933
0.295
0.304801
0.330009
0.372589
0.439075
0.541598
0.611214
0.651464
0.535981
0.624271
0.402356
0.245454
-0.0347749
-0.056551
-0.978575
-0.925983
-0.914805
-0.73726
-0.590024
-0.681611
-0.865835
-0.82616
-0.53618
-0.486587
-0.444606
-0.410251
-0.382663
-0.360527
-0.342404
-0.327129
-0.31386
-0.302012
-0.291179
-0.281087
-0.271553
-0.262461
-0.253743
-0.245384
-0.23744
-0.230019
-0.223264
-0.21751
-0.212195
-0.213718
-0.218893
-0.22184
-0.224234
-0.226221
-0.223475
-0.228661
-0.206604
0.288414
0.298282
0.322941
0.364168
0.428127
0.53296
0.658893
0.635767
0.693436
0.66726
0.766607
0.407417
0.50941
0.717085
0.696783
0.612748
0.375128
0.071271
-0.955718
-0.927385
-0.758038
-0.723864
-0.61853
-0.544628
-0.583539
-0.695985
-0.664004
-0.868755
-0.826626
-0.499295
-0.459479
-0.424873
-0.395131
-0.370456
-0.350073
-0.333018
-0.318425
-0.305609
-0.294071
-0.28347
-0.273572
-0.264222
-0.255315
-0.246795
-0.238655
-0.230949
-0.223795
-0.217431
-0.211691
-0.205977
-0.207351
-0.212703
-0.215711
-0.218386
-0.219859
-0.221365
-0.222692
-0.224017
-0.226452
-0.221063
-0.200631
0.27939
0.288952
0.312156
0.350151
0.406642
0.492944
0.622435
0.763434
0.732602
0.773528
0.826678
0.826201
0.766246
-0.751973
-0.721566
-0.62872
-0.606256
-0.554878
-0.503403
-0.532188
-0.592007
-0.57446
-0.692903
-0.661702
-0.466632
-0.434822
-0.405495
-0.379791
-0.35777
-0.339095
-0.323175
-0.30935
-0.297065
-0.285915
-0.275621
-0.265987
-0.256877
-0.248202
-0.239919
-0.232026
-0.224585
-0.217748
-0.211526
-0.205566
-0.199991
-0.20138
-0.206513
-0.20951
-0.212255
-0.213827
-0.215292
-0.216729
-0.218645
-0.220104
-0.221454
-0.222729
-0.194849
0.268274
0.277263
0.298479
0.332376
0.379976
0.444566
0.521004
0.608197
0.524064
0.806567
0.780247
0.696936
0.746326
0.804047
-0.626756
-0.604461
-0.558739
-0.543674
-0.510963
-0.468446
-0.492171
-0.530234
-0.591929
-0.573502
-0.43944
-0.412018
-0.387157
-0.364751
-0.345037
-0.327986
-0.313185
-0.300132
-0.288406
-0.277687
-0.267745
-0.258415
-0.249581
-0.24117
-0.233146
-0.225517
-0.218357
-0.211716
-0.205441
-0.199568
-0.194208
-0.195573
-0.200535
-0.203479
-0.206083
-0.207635
-0.20908
-0.210563
-0.212522
-0.214077
-0.215474
-0.216887
-0.189159
0.255408
0.26366
0.282629
0.312254
0.3514
0.398731
0.44144
0.375273
0.633179
0.415842
0.438583
0.324832
0.759608
0.662082
-0.598268
-0.557314
-0.547797
-0.509212
-0.474665
-0.440341
-0.46011
-0.491171
-0.524053
-0.53561
-0.588469
-0.571616
-0.414679
-0.391535
-0.370016
-0.350234
-0.332572
-0.317001
-0.303228
-0.290917
-0.279756
-0.269488
-0.259922
-0.250918
-0.242381
-0.234249
-0.226495
-0.219132
-0.212191
-0.205614
-0.199427
-0.19376
-0.188528
-0.189862
-0.194702
-0.197597
-0.200101
-0.201618
-0.203026
-0.20448
-0.206323
-0.207851
-0.209234
-0.21069
-0.183579
0.24112
0.248542
0.265182
0.290771
0.322644
0.357259
0.381293
0.327745
0.14238
0.165645
0.571338
0.331746
0.1545
0.158061
-0.55566
-0.546319
-0.512457
-0.503039
-0.473181
-0.44592
-0.414719
-0.432456
-0.459398
-0.486714
-0.494629
-0.393183
-0.373022
-0.353959
-0.336449
-0.320559
-0.306254
-0.29341
-0.281809
-0.271205
-0.26139
-0.252206
-0.243537
-0.235305
-0.227457
-0.21997
-0.212839
-0.206033
-0.199573
-0.193579
-0.18807
-0.182956
-0.184263
-0.188988
-0.191833
-0.19427
-0.195756
-0.197136
-0.198559
-0.20033
-0.201818
-0.203162
-0.204583
-0.17812
0.225712
0.232252
0.246561
0.268578
0.294588
0.320105
0.333277
0.292773
0.151172
0.10472
0.105247
0.114338
0.160258
0.117794
-0.475589
-0.469456
-0.444555
-0.419688
-0.39299
-0.407654
-0.431433
-0.454672
-0.462262
-0.374139
-0.355908
-0.33911
-0.323488
-0.309008
-0.295795
-0.283811
-0.272881
-0.262811
-0.253439
-0.244633
-0.2363
-0.228371
-0.2208
-0.213556
-0.206605
-0.199948
-0.193673
-0.187858
-0.182488
-0.177505
-0.178781
-0.183392
-0.186185
-0.188559
-0.190015
-0.19137
-0.192767
-0.194491
-0.195949
-0.197265
-0.198653
-0.172777
0.209485
0.215061
0.227035
0.246046
0.267617
0.286897
0.293987
0.263417
0.167144
0.108319
0.103356
0.0861308
0.0989493
0.110016
0.0906698
-0.47214
-0.46832
-0.446796
-0.440048
-0.418649
-0.397085
-0.373412
-0.386844
-0.406664
-0.427331
-0.433863
-0.453814
-0.461134
-0.356484
-0.340395
-0.325453
-0.3112
-0.297904
-0.285686
-0.274486
-0.264173
-0.254609
-0.245664
-0.237228
-0.229222
-0.221586
-0.214272
-0.207238
-0.200463
-0.193991
-0.187904
-0.182245
-0.177023
-0.172169
-0.173415
-0.177914
-0.180655
-0.182966
-0.184392
-0.185721
-0.187093
-0.188772
-0.1902
-0.191491
-0.192856
-0.167547
0.192554
0.197219
0.206672
0.223328
0.241805
0.257098
0.261236
0.238211
0.172997
0.122318
0.104146
0.0970065
0.0935058
0.0948926
0.0918761
0.0796149
-0.445748
-0.439385
-0.420669
-0.414639
-0.396209
-0.376803
-0.355869
-0.365001
-0.386188
-0.402822
-0.409015
-0.426666
-0.43296
-0.340613
-0.326396
-0.312596
-0.299511
-0.287298
-0.275954
-0.265449
-0.255708
-0.246622
-0.238084
-0.230003
-0.222309
-0.214948
-0.207868
-0.201033
-0.194449
-0.188167
-0.18225
-0.176753
-0.171679
-0.16694
-0.168163
-0.172552
-0.175242
-0.177492
-0.178887
-0.18019
-0.181536
-0.18317
-0.184569
-0.185835
-0.187175
-0.162419
0.17483
0.178912
0.185355
0.200399
0.217051
0.230122
0.233328
0.216495
0.171577
0.131328
0.112396
0.09741
0.0931611
0.0979082
0.0874679
0.0934182
0.0892157
0.0913329
0.0874056
-0.419676
-0.414086
-0.397976
-0.392772
-0.376028
-0.354015
-0.339973
-0.369209
-0.38287
-0.387945
-0.402191
-0.409033
-0.326559
-0.313179
-0.300448
-0.288478
-0.277176
-0.266583
-0.256714
-0.247503
-0.238864
-0.230709
-0.222963
-0.215564
-0.208456
-0.201595
-0.194961
-0.188569
-0.182468
-0.17672
-0.171383
-0.166438
-0.161805
-0.163027
-0.167302
-0.169945
-0.172134
-0.173501
-0.174778
-0.176098
-0.177687
-0.179057
-0.180298
-0.181613
-0.157385
0.159409
0.159533
0.16297
0.177159
0.193201
0.205437
0.209019
0.197429
0.166471
0.135185
0.117264
0.101507
0.0900796
0.0903059
0.0934905
0.0907444
0.0903486
0.0894046
0.086464
0.0882443
-0.397984
-0.392227
-0.377328
-0.371548
-0.35774
-0.338611
-0.349049
-0.326117
-0.367334
-0.382257
-0.387242
-0.399974
-0.313108
-0.300726
-0.289121
-0.278026
-0.267485
-0.257578
-0.248286
-0.23956
-0.231336
-0.223541
-0.216109
-0.208983
-0.202113
-0.195465
-0.189029
-0.182823
-0.176895
-0.171315
-0.166124
-0.161299
-0.15676
-0.158041
-0.162154
-0.164763
-0.16689
-0.168229
-0.169482
-0.170776
-0.172322
-0.173663
-0.17488
-0.176169
-0.152341
0.158765
0.137345
0.139742
0.153801
0.17026
0.182676
0.18746
0.1804
0.159403
0.135775
0.11971
0.104865
0.0919303
0.0841377
0.0860458
0.0890851
0.0887771
0.0907403
0.0883072
0.0891573
0.0882936
0.0877088
-0.396735
-0.391486
-0.377018
-0.373833
-0.358715
-0.354522
-0.340971
-0.325124
-0.334337
-0.350645
-0.347125
-0.312522
-0.36837
-0.3636
-0.38164
-0.386466
-0.300449
-0.289276
-0.278435
-0.268058
-0.258226
-0.248933
-0.240159
-0.231878
-0.22404
-0.21658
-0.20944
-0.202568
-0.195924
-0.189483
-0.183238
-0.177209
-0.171453
-0.166033
-0.160981
-0.15627
-0.151814
-0.152955
-0.157153
-0.159705
-0.161745
-0.163065
-0.164296
-0.16557
-0.167072
-0.168385
-0.169578
-0.170842
-0.147611
0.176042
0.115209
0.116483
0.131625
0.148821
0.161864
0.168194
0.165072
0.151399
0.13406
0.12039
0.10722
0.0943109
0.0852015
0.0785655
0.081286
0.0843126
0.0851852
0.0876142
0.0873168
0.0881294
0.0891087
0.0885884
0.0870455
0.0878277
-0.376319
-0.372822
-0.341723
-0.339237
-0.327476
-0.311518
-0.320501
-0.335701
-0.332057
-0.299717
-0.289028
-0.278444
-0.268254
-0.25859
-0.249386
-0.240624
-0.232321
-0.224453
-0.216973
-0.209822
-0.202952
-0.196319
-0.189893
-0.18365
-0.177587
-0.171734
-0.166144
-0.160877
-0.155964
-0.15139
-0.147162
-0.148078
-0.15205
-0.154736
-0.156725
-0.158034
-0.159216
-0.160472
-0.161924
-0.163215
-0.164389
-0.165631
-0.143355
0.106633
0.0954049
0.113507
0.130595
0.143735
0.151282
0.151363
0.143177
0.130871
0.119659
0.108339
0.0964897
0.0868977
0.0794423
0.0725754
0.0762534
0.0793788
0.0807614
0.0833602
0.0840098
0.0851343
0.087034
0.0861162
0.0867056
0.0874598
0.0880573
0.0877628
-0.339617
-0.338442
-0.328377
-0.325009
-0.313758
-0.298651
-0.307228
-0.321736
-0.318199
-0.335293
-0.331713
-0.28847
-0.278117
-0.268106
-0.25865
-0.249595
-0.240913
-0.232638
-0.224769
-0.217281
-0.210126
-0.203261
-0.196643
-0.190239
-0.184018
-0.177964
-0.172079
-0.166394
-0.160968
-0.155859
-0.151108
-0.14675
-0.142791
-0.14392
-0.147535
-0.14945
-0.151684
-0.153063
-0.154252
-0.155496
-0.156893
-0.158169
-0.159307
-0.160526
-0.138816
0.0806209
0.101649
0.117975
0.129778
0.137394
0.13954
0.135302
0.126925
0.117993
0.10841
0.0979462
0.0886705
0.0809335
0.0742348
0.0711693
0.0698502
0.0736696
0.0763479
0.0787611
0.0796437
0.0809526
0.0832321
0.0820457
0.0836623
0.0847305
0.0864688
0.0856847
-0.327637
-0.324466
-0.314614
-0.311401
-0.300633
-0.287637
-0.294953
-0.308436
-0.305121
-0.321415
-0.317929
-0.277525
-0.267663
-0.258442
-0.24956
-0.240988
-0.232789
-0.224965
-0.217495
-0.210349
-0.203493
-0.196893
-0.190513
-0.184323
-0.1783
-0.172427
-0.166714
-0.161196
-0.155936
-0.150999
-0.146452
-0.142304
-0.138307
-0.139302
-0.143067
-0.145356
-0.147209
-0.148307
-0.149489
-0.149799
-0.152563
-0.153316
-0.154362
-0.155518
-0.134312
0.0950032
0.111446
0.121186
0.1275
0.13019
0.128334
0.122803
0.115823
0.107782
0.098689
0.0900798
0.0825247
0.0758806
0.0717186
0.0674816
0.0698306
0.0715729
0.0676263
0.0738624
0.0752433
0.0766367
0.0787891
0.0774504
0.0794053
0.08063
0.0828351
0.0817726
-0.313891
-0.310884
-0.301667
-0.298308
-0.289573
-0.276657
-0.283627
-0.296018
-0.293152
-0.308066
-0.304886
-0.266973
-0.258006
-0.24931
-0.240852
-0.232745
-0.22501
-0.217599
-0.210482
-0.203646
-0.197067
-0.190713
-0.184557
-0.178572
-0.172735
-0.167037
-0.161491
-0.156143
-0.151057
-0.146314
-0.141952
-0.137848
-0.133835
-0.134784
-0.1385
-0.140727
-0.142632
-0.143762
-0.144918
-0.146022
-0.14734
-0.148612
-0.150205
-0.149494
-0.129997
0.108999
0.117261
0.121853
0.123837
0.122834
0.119008
0.1135
0.106742
0.0988785
0.0910418
0.0838652
0.0773263
0.0723648
0.0679794
0.0634901
0.0657684
0.0676081
0.0695798
0.0718028
0.0718618
0.0644537
0.0747042
0.0745939
0.075019
0.0761943
0.0784233
0.0772239
-0.301599
-0.297689
-0.290316
-0.28743
-0.278378
-0.266066
-0.273063
-0.2844
-0.280642
-0.296223
-0.292916
-0.257371
-0.248888
-0.240526
-0.232517
-0.22489
-0.217567
-0.210509
-0.203713
-0.197164
-0.19084
-0.184718
-0.178773
-0.172981
-0.167322
-0.161793
-0.156414
-0.151237
-0.146335
-0.141767
-0.137498
-0.133409
-0.129525
-0.130465
-0.134055
-0.136233
-0.138104
-0.139231
-0.14033
-0.141432
-0.142754
-0.14389
-0.144986
-0.146113
-0.147391
-0.148523
-0.149966
-0.148178
-0.125818
0.116112
0.119395
0.120286
0.1191
0.115942
0.111326
0.105523
0.0986768
0.0915887
0.0848619
0.0785434
0.0731655
0.0684519
0.0638792
0.0599611
0.0621964
0.0639198
0.0654022
0.0671915
0.0686003
0.0695521
0.0720062
0.0711277
0.0610444
0.0737335
0.0752616
-0.296311
-0.289802
-0.286988
-0.277489
-0.2679
-0.256561
-0.262656
-0.272448
-0.28434
-0.282409
-0.295532
-0.292419
-0.2483
-0.24005
-0.232127
-0.224615
-0.217392
-0.210415
-0.203681
-0.197178
-0.190893
-0.184807
-0.178902
-0.173157
-0.167547
-0.162058
-0.156693
-0.151482
-0.146478
-0.141744
-0.137297
-0.133084
-0.129103
-0.125353
-0.126273
-0.129748
-0.131877
-0.133675
-0.134779
-0.135846
-0.136936
-0.138228
-0.139355
-0.140426
-0.141538
-0.142859
-0.14398
-0.145087
-0.146192
-0.121746
0.118597
0.118613
0.116885
0.113752
0.109509
0.104309
0.0982322
0.0917965
0.0855139
0.0794869
0.074009
0.0690664
0.0643709
0.0603115
0.0567524
0.0589004
0.0605249
0.0619387
0.0636472
0.0648247
0.0656175
0.0673862
0.0664973
-0.289333
-0.286652
-0.278469
-0.2757
-0.267303
-0.258141
-0.247508
-0.25352
-0.261967
-0.270691
-0.27334
-0.283948
-0.281728
-0.239436
-0.231599
-0.224211
-0.217091
-0.210194
-0.203537
-0.197101
-0.190868
-0.184824
-0.178961
-0.173261
-0.167702
-0.162264
-0.156938
-0.151735
-0.146688
-0.141847
-0.13725
-0.132894
-0.128781
-0.124934
-0.121294
-0.122187
-0.125561
-0.127639
-0.129375
-0.130451
-0.131489
-0.132554
-0.133794
-0.134893
-0.135938
-0.137033
-0.138326
-0.139437
-0.140533
-0.141636
-0.117784
0.117782
0.115575
0.112248
0.10808
0.103201
0.0976556
0.0917475
0.0858642
0.0801368
0.0747435
0.0697396
0.0649825
0.0607474
0.0570795
0.0538631
0.0545568
0.0573934
0.058776
0.0603125
0.0613937
0.0621719
0.0639007
0.0630274
-0.267941
-0.26549
-0.257673
-0.249003
-0.238657
-0.244464
-0.253008
-0.26022
-0.263238
-0.230941
-0.223701
-0.216685
-0.209859
-0.203278
-0.196922
-0.190758
-0.184768
-0.178949
-0.173295
-0.167786
-0.162402
-0.157126
-0.151958
-0.146912
-0.142024
-0.137327
-0.132843
-0.12859
-0.124611
-0.120881
-0.11734
-0.118219
-0.121483
-0.123512
-0.125195
-0.126244
-0.127254
-0.128292
-0.129489
-0.130559
-0.131574
-0.13264
-0.133884
-0.134966
-0.136037
-0.137121
0.1146
0.111067
0.106897
0.102183
0.0969952
0.0914987
0.0859603
0.0805128
0.0752842
0.0703432
0.0656171
0.0612749
0.0574473
0.0540894
0.0511804
0.0528803
0.0542758
0.0534225
0.051378
0.0577518
0.0582217
0.0589192
0.0605301
0.0597161
-0.258504
-0.255994
-0.248365
-0.240115
-0.230163
-0.235784
-0.243913
-0.251413
-0.253727
-0.259112
-0.22309
-0.216202
-0.209431
-0.202916
-0.196643
-0.190559
-0.184634
-0.178866
-0.173259
-0.1678
-0.162469
-0.157247
-0.152127
-0.147111
-0.14222
-0.137476
-0.132905
-0.128534
-0.124414
-0.120556
-0.116933
-0.119494
-0.121123
-0.122148
-0.123133
-0.124145
-0.125307
-0.126348
-0.127335
-0.128372
-0.129576
-0.130627
-0.131667
-0.132721
0.109943
0.105735
0.10116
0.0962276
0.0910604
0.085827
0.0806424
0.0756078
0.070796
0.0661764
0.0618322
0.0579004
0.0544066
0.0513718
0.0486552
0.0502025
0.0516356
0.0524273
0.0530163
0.0536523
0.0540779
0.0543582
0.0604592
0.0576386
0.0569164
-0.257975
-0.255531
-0.248993
-0.246765
-0.239517
-0.231607
-0.222368
-0.227397
-0.235308
-0.242411
-0.24464
-0.25108
-0.253342
-0.21567
-0.208927
-0.202472
-0.196278
-0.190275
-0.184418
-0.178709
-0.173154
-0.167744
-0.162465
-0.157298
-0.152231
-0.14726
-0.142394
-0.137647
-0.133036
-0.128587
-0.124346
-0.120351
-0.116608
-0.119105
-0.120101
-0.121232
-0.122248
-0.123211
-0.124222
-0.12539
-0.126413
-0.127425
-0.128449
0.104492
0.0999964
0.0953032
0.0904114
0.0854612
0.0805353
0.0757096
0.071062
0.0665902
0.062332
0.0583791
0.0547825
0.0515882
0.0487193
0.0460522
0.0476863
0.0491186
0.0497984
0.0504551
0.0511125
0.0518363
0.0523641
0.0529121
0.0534677
0.0538851
0.054122
0.0572305
-0.248616
-0.246468
-0.240135
-0.237982
-0.231108
-0.223594
-0.214768
-0.219694
-0.226896
-0.233844
-0.235991
-0.242115
-0.244287
-0.208391
-0.201956
-0.195847
-0.189924
-0.184125
-0.178471
-0.172973
-0.16762
-0.162394
-0.15728
-0.152266
-0.147347
-0.142523
-0.1378
-0.133189
-0.128706
-0.124385
-0.120272
-0.116396
-0.119185
-0.120176
-0.121313
-0.122311
-0.123298
-0.124295
0.0986756
0.0941383
0.0895326
0.0848476
0.0801812
0.075585
0.0711245
0.0668217
0.0627004
0.0588096
0.0551875
0.0518823
0.0488718
0.0459941
0.0425505
0.04531
0.0467069
0.0472561
0.047953
0.0485585
0.0492814
0.0497703
0.0503955
0.0510213
0.0517179
0.0523128
0.0528262
0.053372
0.0537312
-0.239768
-0.237698
-0.231703
-0.229622
-0.22313
-0.215719
-0.207667
-0.21074
-0.219323
-0.22542
-0.227629
-0.233543
-0.235629
-0.201382
-0.195354
-0.189519
-0.183766
-0.178158
-0.172717
-0.167425
-0.162253
-0.157193
-0.152233
-0.147368
-0.142593
-0.137911
-0.133326
-0.128846
-0.12449
-0.120298
-0.116307
-0.119269
-0.120247
0.0927778
0.0883768
0.0839861
0.0795724
0.0752206
0.0709708
0.0668544
0.062894
0.0591225
0.0555581
0.0522298
0.0491532
0.0462545
0.0434132
0.042665
0.0415206
0.0436212
0.0449906
0.0457241
0.0460885
0.0468236
0.0472434
0.0478905
0.0484691
0.0491528
0.0497349
0.0503295
0.0509881
0.0516539
-0.231314
-0.229367
-0.22368
-0.221793
-0.215514
-0.206506
-0.200691
-0.212734
-0.218026
-0.219925
-0.225076
-0.22765
-0.194786
-0.189069
-0.183357
-0.177782
-0.172389
-0.167156
-0.162042
-0.157038
-0.152132
-0.147321
-0.1426
-0.137967
-0.133423
-0.12897
-0.124617
-0.120389
-0.116321
0.0870067
0.0828358
0.0787193
0.0746088
0.0705878
0.0666756
0.0628939
0.0592725
0.0558217
0.0525529
0.0494877
0.0466387
0.0441012
0.0428115
0.0410666
0.0421771
0.0426316
0.0426125
0.0403383
0.0432081
0.0445294
0.0451293
0.0456009
0.0460039
0.0466619
0.0472151
0.0478303
0.0484404
0.0490861
-0.223714
-0.221539
-0.216022
-0.214198
-0.207835
-0.199853
-0.204306
-0.194097
-0.210301
-0.2127
-0.217719
-0.219624
-0.224064
-0.188561
-0.182902
-0.177354
-0.171999
-0.16682
-0.161763
-0.156814
-0.151963
-0.147207
-0.142542
-0.137963
-0.133468
-0.129056
-0.124731
-0.120505
-0.116401
0.0814773
0.0775918
0.0737688
0.0699762
0.0662773
0.0626915
0.0592381
0.055931
0.0527755
0.0497866
0.046999
0.0445349
0.0428625
0.0411617
0.0388472
0.0402337
0.0410897
0.0417013
0.0420317
0.0425862
0.0428566
0.044776
0.0379136
0.0454809
0.0446504
0.0450413
0.0454534
0.0459615
0.0465868
-0.223176
-0.221174
-0.215741
-0.213916
-0.211094
-0.208432
-0.206621
-0.200948
-0.193321
-0.1976
-0.204998
-0.203145
-0.187966
-0.212249
-0.217419
-0.219277
-0.182387
-0.176878
-0.17156
-0.166432
-0.161421
-0.156522
-0.151726
-0.147028
-0.14242
-0.137897
-0.133456
-0.129094
-0.12481
-0.12061
-0.116505
0.0762628
0.0726668
0.0691521
0.0656652
0.0622839
0.0590118
0.055865
0.0528498
0.0499777
0.0472759
0.0448371
0.0429157
0.0411374
0.0389591
0.036954
0.0382447
0.0391346
0.0399053
0.0402738
0.0407237
0.0411469
0.041578
0.0419464
0.0424785
0.0432079
0.0350235
0.0453337
0.0442147
-0.215424
-0.213673
-0.210527
-0.201296
-0.199667
-0.194189
-0.187257
-0.191283
-0.198156
-0.196755
-0.181778
-0.211955
-0.17635
-0.171075
-0.166006
-0.161034
-0.156174
-0.151425
-0.146785
-0.142236
-0.13777
-0.133386
-0.129077
-0.124842
-0.120681
-0.116601
0.0713792
0.0680846
0.0648635
0.0616787
0.0585935
0.0556182
0.0527547
0.0500182
0.0474267
0.0450374
0.0429883
0.0411195
0.039048
0.0370778
0.0352937
0.0364234
0.0372695
0.0379694
0.0383631
0.0388284
0.0393376
0.039899
0.0402596
0.0406721
0.0411077
-0.194495
-0.193392
-0.188201
-0.181034
-0.185045
-0.19181
-0.190204
-0.175759
-0.17053
-0.165546
-0.160617
-0.155783
-0.151071
-0.146484
-0.141992
-0.137586
-0.133258
-0.129006
-0.124822
-0.120707
-0.116665
0.0668443
0.0638356
0.0608968
0.0579943
0.055192
0.0524872
0.0498952
0.0474268
0.0451159
0.0430323
0.0411093
0.039115
0.0371843
0.0354303
0.0337363
0.0347666
0.0355644
0.0361653
0.0365321
0.0369677
0.0374532
0.0379608
0.0383413
0.0387942
0.0393228
-0.193506
-0.192984
-0.188577
-0.18705
-0.181957
-0.175084
-0.178915
-0.185538
-0.183944
-0.191574
-0.189989
-0.169902
-0.165038
-0.160171
-0.155362
-0.150678
-0.146134
-0.141696
-0.137346
-0.133075
-0.12888
-0.12475
-0.120684
-0.116684
0.0626483
0.0599085
0.0572401
0.0546012
0.052054
0.0496092
0.0472688
0.0450565
0.0430026
0.0410756
0.0391456
0.0372643
0.0355294
0.0338705
0.032262
0.0332236
0.0339828
0.0345131
0.0348742
0.0352683
0.0357159
0.0361468
0.0365008
0.0369235
0.0374175
-0.188234
-0.186768
-0.182335
-0.180846
-0.175974
-0.169203
-0.173034
-0.179411
-0.17786
-0.185347
-0.183763
-0.164467
-0.159683
-0.154911
-0.150257
-0.14575
-0.141359
-0.137058
-0.132839
-0.128699
-0.124625
-0.120612
-0.116657
0.0587755
0.0562923
0.0538671
0.0514723
0.0491702
0.0469598
0.044855
0.0428701
0.0409848
0.0391235
0.0373019
0.0355911
0.0339609
0.0323892
0.0308705
0.0317629
0.0324979
0.0329866
0.0333253
0.0336889
0.0341214
0.0344955
0.0348411
0.0352239
0.0356718
-0.182001
-0.180578
-0.176321
-0.174866
-0.170093
-0.163844
-0.167231
-0.173501
-0.171995
-0.179217
-0.177679
-0.159128
-0.154421
-0.149807
-0.145339
-0.140991
-0.13673
-0.132552
-0.128463
-0.124445
-0.120486
-0.11658
0.0552124
0.0529601
0.0507669
0.0485975
0.046513
0.0445188
0.0426227
0.0408077
0.0390296
0.0372826
0.0356118
0.0340117
0.0324698
0.030991
0.029552
0.0303802
0.0310951
0.0315411
0.031862
0.0322198
0.0326151
0.0329725
0.0332943
0.0336417
0.0340761
-0.175988
-0.174598
-0.170459
-0.16904
-0.164666
-0.158476
-0.161913
-0.167566
-0.166383
-0.173283
-0.171791
-0.15387
-0.149317
-0.144895
-0.140597
-0.136369
-0.13222
-0.128173
-0.124207
-0.120304
-0.11645
0.0519342
0.0499003
0.0479111
0.0459469
0.0440626
0.0422624
0.0405321
0.0388462
0.0371884
0.03558
0.0340218
0.0325094
0.0310562
0.0296571
0.0282799
0.0290526
0.0297637
0.0301671
0.0304839
0.0308226
0.0312001
0.03153
0.0318321
0.0321745
0.0325673
-0.170143
-0.169
-0.165028
-0.163661
-0.159252
-0.153227
-0.156484
-0.162312
-0.160927
-0.167383
-0.16639
-0.148773
-0.144399
-0.140168
-0.135975
-0.131851
-0.127833
-0.123911
-0.120062
-0.116263
0.0489247
0.0470813
0.0452848
0.0435049
0.0417983
0.0401595
0.0385664
0.0370047
0.0354767
0.03398
0.0325098
0.031081
0.0296958
0.0283394
0.0271196
0.0277488
0.0284843
0.0288454
0.0291632