/*--------------------------------*- C++ -*----------------------------------*\
| =========                 |                                                 |
| \\      /  F ield         | OpenFOAM: The Open Source CFD Toolbox           |
|  \\    /   O peration     | Version:  v1912                                 |
|   \\  /    A nd           | Website:  www.openfoam.com                      |
|    \\/     M anipulation  |                                                 |
\*---------------------------------------------------------------------------*/
FoamFile
{
    version     2.0;
    format      ascii;
    class       volScalarField;
    location    "420";
    object      p;
}
// * * * * * * * * * * * * * * * * * * * * * * * * * * * * * * * * * * * * * //

dimensions      [0 2 -2 0 0 0 0];


internalField   nonuniform List<scalar> 
3675
(
0.00174118
0.00199168
0.0015682
0.00181237
0.00141833
0.00205629
0.00165277
0.00127651
0.00226894
0.00188956
0.00150535
0.0011467
0.00245763
0.00209958
0.00173435
0.00136931
0.00102992
0.00261154
0.00228914
0.0019386
0.00159733
0.00124822
0.000917617
0.00271902
0.0024439
0.00212691
0.00180012
0.00146861
0.00113051
0.000816063
0.00276518
0.00255292
0.00228481
0.00198137
0.00166248
0.00134406
0.00102407
0.000723075
0.00274303
0.002605
0.00239971
0.00213647
0.0018426
0.00153671
0.00123493
0.000927857
0.000634772
0.00265444
0.00259486
0.00246517
0.00225774
0.00199697
0.00171335
0.00142311
0.00113245
0.000832979
0.000558152
0.00250949
0.0025149
0.00247466
0.00233297
0.00211343
0.00186251
0.00159323
0.00131553
0.00103613
0.000752502
0.000485681
0.00232865
0.00236611
0.00242524
0.00236014
0.00218973
0.00197728
0.00173805
0.0014833
0.00121678
0.000949307
0.000675897
0.000420915
0.00216526
0.00213955
0.00232226
0.00234553
0.00222203
0.00204698
0.00184556
0.00162069
0.00137666
0.00112144
0.000869793
0.000606115
0.000356513
0.00209185
0.00184054
0.00216336
0.00229572
0.00220951
0.0020679
0.00190902
0.00172227
0.00151238
0.00128088
0.00104262
0.000795399
0.00054054
0.000303396
0.00211281
0.00156742
0.00185641
0.00191083
0.00222784
0.00215802
0.00204197
0.00192325
0.00178086
0.00161356
0.00141285
0.00119455
0.000959665
0.000724876
0.000483178
0.00025526
0.00212476
0.00199427
0.00173731
0.00158076
0.0012677
0.00187053
0.00213773
0.00207345
0.00196697
0.00188603
0.00179005
0.00166686
0.00150456
0.00131717
0.00110788
0.000888014
0.000663485
0.000429685
0.00021442
0.00205227
0.00194182
0.00181356
0.00178351
0.00128387
0.00197219
0.00173124
0.00120032
0.00169979
0.00184822
0.00196701
0.00184765
0.00180232
0.00174949
0.00167071
0.00155364
0.00140629
0.00122996
0.00103338
0.00082244
0.000607962
0.000385948
0.000178937
0.00191746
0.00204028
0.0018622
0.00177338
0.00181141
0.00162194
0.00082928
0.00176631
0.0018006
0.00171531
0.0016944
0.0010202
0.00170085
0.00167427
0.00174734
0.00169821
0.00167936
0.00166527
0.00162555
0.00155495
0.00145167
0.00131591
0.00114967
0.000961694
0.000764133
0.000559142
0.000346481
0.00014958
0.00188051
0.00197175
0.00179738
0.00174092
0.00169487
0.00171217
0.000181682
0.00132256
0.00171961
0.00154546
0.00153226
0.00153687
0.00154858
0.00172116
0.00164175
0.00242648
0.00191278
0.00161278
0.00168685
0.00152296
0.00154273
0.0015372
0.00150799
0.00144824
0.00135704
0.00122932
0.00107493
0.000899619
0.000705582
0.000516605
0.000313612
0.000127654
0.00184997
0.00191838
0.00157959
0.00160871
-0.00113291
0.00275825
0.00154466
0.00154499
0.00144103
0.00138484
0.00135689
0.00136293
0.00139916
0.0014361
0.00141806
0.00164734
0.00195093
0.00215478
0.00156665
0.00139039
0.0014133
0.00141644
0.00139689
0.00135102
0.00126682
0.00114957
0.00100334
0.000835195
0.000663788
0.000479732
0.00028806
0.000110391
-0.00364493
0.00149044
0.00144477
0.0013624
0.0013637
0.00130882
0.00124294
0.00122263
0.00120684
0.00125245
0.00131477
0.00131923
0.00137132
0.00139448
0.00126281
0.00128881
0.00130576
0.00129952
0.00125877
0.00118348
0.00107411
0.000937391
0.000788763
0.000620635
0.000449129
0.000266939
0.000101534
0.00132461
0.0013163
0.00124907
0.00123093
0.00116207
0.00110885
0.00109381
0.00107009
0.00110443
0.00116664
0.00118825
0.0012599
0.00129405
0.00114109
0.00118306
0.00120755
0.00120635
0.00117269
0.00110375
0.00100352
0.00088277
0.000740622
0.000588508
0.000427937
0.000255871
9.45165e-05
0.00121058
0.00119003
0.00110794
0.00108128
0.00102603
0.00098019
0.000975588
0.000941018
0.000970667
0.00101802
0.00104525
0.00111401
0.00116033
0.00103663
0.00108207
0.00111236
0.00111909
0.00108981
0.00102735
0.000939376
0.000829565
0.000704014
0.000560609
0.000410745
0.000247016
0.000100086
0.00106701
0.00104087
0.000967983
0.000940146
0.000894636
0.000865151
0.00087142
0.000821376
0.000844338
0.000882636
0.000908763
0.000966173
0.00101323
0.000932152
0.000989097
0.00102639
0.00103258
0.00100937
0.00095574
0.000878043
0.000783166
0.000667595
0.000539062
0.000399302
0.000245191
0.000107854
0.000923796
0.000901869
0.000836863
0.000810479
0.000776492
0.000757096
0.000768954
0.000717735
0.000729487
0.000757163
0.000782639
0.00083085
0.000872033
0.000841526
0.000902947
0.000940808
0.000955134
0.000933535
0.000887119
0.000823651
0.000743221
0.00064586
0.000526709
0.000394151
0.000253402
0.000125454
0.000791921
0.000772438
0.000718079
0.000691157
0.000667204
0.00065545
0.000678517
0.000617861
0.00062461
0.000642602
0.000670485
0.000706082
0.000745367
0.000753034
0.00081893
0.00086453
0.000873118
0.000856079
0.000823358
0.000778141
0.000714591
0.000626892
0.000518862
0.000398287
0.00026596
0.000138942
0.000671804
0.000653751
0.000607748
0.000582461
0.000567251
0.00056434
0.000590284
0.000527188
0.000526645
0.000539831
0.000563436
0.00058931
0.00063492
0.000674141
0.000741311
0.000779731
0.000791427
0.000782032
0.000765164
0.000739857
0.000692176
0.000616585
0.000515813
0.000405097
0.000274185
0.000164923
0.000564021
0.000543447
0.000504882
0.000489196
0.00047536
0.000479216
0.000510905
0.000441079
0.000437459
0.00044457
0.000463954
0.000487655
0.000527848
0.000595656
0.00066304
0.000703164
0.00070887
0.000711048
0.000716486
0.000712138
0.000677932
0.00060767
0.000519061
0.00041395
0.000300054
0.000195213
0.000463349
0.00044968
0.000412304
0.000397587
0.000390595
0.000401069
0.000434695
0.000360554
0.000353898
0.000357643
0.000374849
0.000397898
0.000423626
0.000524453
0.000589875
0.000612749
0.00062362
0.00064821
0.00068238
0.000694193
0.000666454
0.00060805
0.000523363
0.000436423
0.000325237
0.000231983
0.000369615
0.000358359
0.000325906
0.000314615
0.000311789
0.000330926
0.000365562
0.000281335
0.000276827
0.000276068
0.000292504
0.000311866
0.000334983
0.000452107
0.000501738
0.000517305
0.000542427
0.000601918
0.000663777
0.000682687
0.000658275
0.000607093
0.000540269
0.000453567
0.000361079
0.000275781
0.000283147
0.000275915
0.000248272
0.000235078
0.000238208
0.00026215
0.000294
0.000207876
0.00020155
0.000201188
0.000217955
0.000230411
0.00025321
0.000376995
0.000408309
0.00041469
0.000477266
0.000582687
0.000652913
0.000670169
0.000652989
0.000611758
0.000552587
0.00048618
0.000398695
0.000323179
0.000206795
0.000195628
0.000173558
0.000165775
0.000170868
0.000194812
0.000229709
0.000137412
0.000128906
0.000128544
0.000141615
0.000156478
0.000179734
0.000296126
0.000285627
0.000318802
0.000454182
0.000579171
0.000642746
0.000658492
0.000647232
0.000619192
0.000575481
0.00051909
0.000444501
0.000383174
0.000129943
0.000136677
0.000103758
9.77111e-05
0.000103765
0.000129138
0.000160755
6.36883e-05
5.98008e-05
5.90167e-05
7.36414e-05
8.38064e-05
9.80771e-05
0.000180933
0.000153692
0.000279512
0.000464248
0.000580486
0.000623786
0.000639939
0.00064476
0.000632299
0.000605707
0.000562356
0.000499452
0.000451536
6.0262e-05
6.84471e-05
4.03679e-05
2.74483e-05
3.58545e-05
6.44361e-05
8.22489e-05
-1.47253e-05
-7.65928e-06
-1.03919e-05
9.93759e-06
1.59109e-05
3.12158e-05
2.98994e-05
5.82006e-05
0.000312927
0.000492672
0.000558481
0.000592659
0.000624113
0.00064387
0.000652668
0.000639339
0.0006124
0.000562716
0.000530277
-8.22583e-07
-3.29689e-06
-2.68463e-05
-3.84091e-05
-3.27595e-05
4.27834e-06
-1.98314e-05
-0.000102625
-8.53448e-05
-7.89253e-05
-5.66717e-05
-5.29431e-05
-2.97763e-05
-0.000186095
0.000114435
0.00039287
0.000473958
0.000512581
0.000560951
0.000609039
0.000651738
0.000676819
0.000683801
0.000666577
0.000638592
0.000619783
-6.85473e-05
-6.62239e-05
-9.26644e-05
-0.000108852
-9.95609e-05
-6.12682e-05
-0.00033052
-0.000192944
-0.000160674
-0.000155046
-0.00012521
-0.000118831
-9.64598e-05
-0.000179515
0.00029451
0.000379032
0.000407397
0.000463004
0.000530668
0.000600272
0.000660381
0.000706442
0.000726717
0.000743482
0.000722565
0.00072169
-0.00013477
-0.000135757
-0.000158938
-0.000187177
-0.00017257
-0.000174792
-0.000551137
-0.000518507
-0.000218659
-0.000240283
-0.000198191
-0.000190809
-0.000162569
0.000200321
0.000287256
0.000287817
0.000340399
0.000416841
0.000503431
0.000592162
0.000674479
0.000741252
0.00079478
0.000814814
0.000821081
0.000836926
-0.000206586
-0.000208263
-0.000238629
-0.000280847
-0.000154071
-0.000860434
7.25471e-05
-0.000417225
-0.000248257
-0.000343281
-0.000268514
-0.000273751
-0.0002384
0.000198462
0.000151662
0.000200429
0.00027875
0.000371873
0.000478029
0.000589335
0.000696525
0.00079043
0.00085611
0.000912878
0.000926902
0.000959702
-0.000283543
-0.000306017
-0.000264955
-0.00034243
-0.00147743
-6.73538e-05
6.25378e-05
-8.41175e-05
-0.000522131
-6.09504e-05
-0.000138213
-0.000381129
-0.000328431
8.35462e-06
4.93135e-05
0.000128465
0.000221146
0.000330424
0.000454156
0.000588366
0.000722658
0.00084094
0.000943162
0.0010047
0.0010492
0.00110859
-0.000365827
-0.000403915
0.000318019
-0.00232811
-5.5714e-05
-0.000211199
-0.000133024
-0.000182226
-0.000226643
-0.000112389
0.000505992
-0.000198534
-0.000335435
-0.000105653
-2.19002e-05
6.45299e-05
0.000164525
0.000285399
0.000431695
0.000592597
0.000756082
0.000905964
0.00102737
0.00112625
0.00118924
0.00127046
2.79657e-05
-0.00455245
-0.000218844
-0.000257402
-0.000304432
-0.000271309
-0.000243022
-0.000262342
-0.000298209
-0.000338157
-0.000377131
-0.000170146
-8.93456e-05
-4.96814e-06
0.000103387
0.000243279
0.000412879
0.000603258
0.000798085
0.000981006
0.00113104
0.00125785
0.0013437
0.00144722
-0.000365579
-0.000345967
-0.000325837
-0.000334869
-0.000308768
-0.000338225
-0.000347463
-0.000344231
-0.000358565
-0.000235419
-0.00016383
-7.45184e-05
4.55705e-05
0.000201368
0.000394851
0.000616768
0.000847306
0.0010601
0.00125251
0.00140146
0.00151619
0.00164903
-0.000362344
-0.00036643
-0.000388403
-0.00039933
-0.000376241
-0.000409616
-0.00041797
-0.00039096
-0.000393465
-0.000308731
-0.000238326
-0.000145991
-1.81871e-05
0.00015677
0.000379904
0.00063714
0.000903312
0.0011603
0.00138177
0.00156846
0.00171383
0.00186873
-0.000419014
-0.000434085
-0.000455484
-0.000462283
-0.000443349
-0.00048144
-0.000487068
-0.000470932
-0.000460736
-0.000386075
-0.000316926
-0.000221824
-8.44455e-05
0.000113486
0.000369158
0.000662876
0.000972947
0.00127536
0.00153132
0.00175845
0.00192328
0.00210616
-0.000491031
-0.00050488
-0.000523828
-0.000527619
-0.000518452
-0.000551301
-0.000553183
-0.000539035
-0.00053005
-0.000461975
-0.000397023
-0.000303254
-0.000151932
7.15162e-05
0.000360544
0.000699442
0.00105901
0.00139569
0.00170435
0.00195118
0.00216737
0.00236715
-0.000559843
-0.000573926
-0.00058756
-0.000598701
-0.000591678
-0.000623594
-0.000621315
-0.000609718
-0.000592393
-0.000544003
-0.000489527
-0.000392899
-0.00022234
2.83381e-05
0.000358382
0.000742686
0.00114433
0.00153445
0.00188189
0.00218983
0.00243583
0.00269089
-0.000626228
-0.000639948
-0.000656471
-0.00066858
-0.000669969
-0.000699564
-0.000692082
-0.000673884
-0.000660739
-0.000637629
-0.000591485
-0.00048736
-0.000296671
-1.12371e-05
0.000359784
0.00079239
0.00124773
0.00169517
0.00209557
0.00245474
0.00275675
0.00304203
-0.000687595
-0.000706271
-0.000727432
-0.000741861
-0.000756172
-0.000772902
-0.00076424
-0.000743904
-0.000728454
-0.000743016
-0.000701757
-0.000582441
-0.000367462
-4.84209e-05
0.000366772
0.000853182
0.00137298
0.00186784
0.00234194
0.00273267
0.00329366
0.00127038
-0.000762658
-0.000777784
-0.000799525
-0.000816073
-0.000856909
-0.000852761
-0.000834569
-0.000813656
-0.000799829
-0.000866838
-0.000821058
-0.000677881
-0.000439458
-8.67415e-05
0.000377967
0.000924933
0.00149974
0.00208162
0.00256091
0.0033406
0.00148166
-0.000833066
-0.000848553
-0.000872899
-0.000898439
-0.000982629
-0.000941677
-0.000909142
-0.000883129
-0.000869985
-0.00100861
-0.000927986
-0.000777166
-0.000518673
-0.000124645
0.000396825
0.0010029
0.00166236
0.00224058
0.00312675
0.00154142
-0.00090717
-0.000924149
-0.00094301
-0.00100347
-0.00112206
-0.00114349
-0.000973157
-0.000963053
-0.000943072
-0.00112265
-0.00103688
-0.000884345
-0.000599205
-0.000157519
0.000419442
0.00110695
0.001762
0.00272689
0.00139736
-0.000982114
-0.00100257
-0.00097078
-0.00145442
-0.00125845
-0.00116698
-0.000949175
-0.00104488
-0.00102207
-0.00122268
-0.00116207
-0.00100168
-0.000680251
-0.000190693
0.000461885
0.00115519
0.00215793
0.00112687
-0.0010666
-0.00109412
-0.00375371
-0.00215252
-0.0012487
-0.00135212
-0.00133512
-0.00158726
-0.00143095
-0.00116622
0.00136353
-0.00112932
-0.00135326
-0.00130601
-0.00112434
-0.000763848
-0.000210799
0.000460735
0.00144309
0.000771372
-0.000989485
-0.00138936
-0.00136418
-0.0013833
-0.00147617
-0.0014401
-0.00137928
-0.00137676
-0.00139032
-0.00140605
-0.000714724
-0.00151041
-0.00145913
-0.0012493
-0.000841758
-0.000255626
0.000630569
0.000360293
-0.00130775
-0.00140081
-0.00140174
-0.00140032
-0.00141958
-0.00149984
-0.00163158
-0.00157236
-0.00145312
-0.00147461
-0.00140069
-0.00140596
-0.0014725
-0.00146515
-0.0016827
-0.00161871
-0.00137698
-0.000923909
-0.000206356
-6.64218e-05
-0.00144054
-0.00143187
-0.00142003
-0.00144095
-0.00151056
-0.00153933
-0.00164163
-0.00180931
-0.00172568
-0.00157584
-0.00161417
-0.00146582
-0.00149438
-0.00141919
-0.00142414
-0.00186522
-0.00178686
-0.00148913
-0.000990752
-0.000474152
-0.0014319
-0.00145696
-0.00152715
-0.00155628
-0.00164237
-0.00168553
-0.00180305
-0.00200322
-0.00190101
-0.00172217
-0.00176663
-0.00159542
-0.00162798
-0.00147507
-0.00150746
-0.00206722
-0.00192629
-0.00166045
-0.000829633
-0.00153841
-0.00157038
-0.00165813
-0.00170088
-0.00179775
-0.00184589
-0.00198443
-0.00222988
-0.00209448
-0.00188997
-0.00193473
-0.00173837
-0.0017771
-0.00160561
-0.00163931
-0.00224471
-0.00218448
-0.00111128
-0.00167091
-0.00170979
-0.00181476
-0.00185527
-0.00197365
-0.0020265
-0.00219521
-0.00246014
-0.00232767
-0.00207736
-0.00212447
-0.00190131
-0.00194286
-0.00174859
-0.0017857
-0.00257842
-0.00131634
-0.00182323
-0.00186047
-0.00198798
-0.00203379
-0.00217474
-0.00223099
-0.00242502
-0.00291109
-0.0025538
-0.0022932
-0.00234934
-0.00208105
-0.00213067
-0.00191237
-0.00194909
-0.00145649
-0.00199334
-0.00203792
-0.00218208
-0.00223503
-0.00240374
-0.00246748
-0.00273133
-0.00168065
-0.00302713
-0.00252291
-0.0025861
-0.00229172
-0.00234699
-0.00208688
-0.00212955
-0.00218129
-0.00223459
-0.00240559
-0.00246411
-0.00265904
-0.00275002
-0.00320323
-0.00159522
-0.00287793
-0.00298916
-0.00252208
-0.00258617
-0.00229037
-0.00234358
-0.0023991
-0.0024547
-0.00266363
-0.00275261
-0.00310944
-0.00335928
-0.00331111
-0.0013689
-0.00285754
-0.00296021
-0.00251255
-0.00257094
-0.00264313
-0.00273097
-0.00307553
-0.00337381
-0.003636
-0.00134184
-0.00283011
-0.00294249
-0.00305983
-0.00335332
-0.00393753
-0.00164741
-0.0172046
-0.0161679
-0.0170196
-0.0162617
-0.015893
-0.0168401
-0.0169561
-0.0159745
-0.0155813
-0.0166422
-0.01745
-0.0159662
-0.0173877
-0.0156475
-0.0152368
-0.0180395
-0.0168835
-0.0151738
-0.0181154
-0.0152744
-0.0177771
-0.0153301
-0.0148976
-0.0194576
-0.0183141
-0.017129
-0.015467
-0.0137853
-0.0145848
-0.0188678
-0.0181649
-0.0149837
-0.0145754
-0.0209215
-0.019777
-0.0196095
-0.0185723
-0.0173596
-0.0157193
-0.0140793
-0.0124357
-0.0132271
-0.0139115
-0.0143069
-0.0146567
-0.0185698
-0.0189481
-0.0142268
-0.022306
-0.0212717
-0.0203599
-0.0211104
-0.0200496
-0.0193018
-0.0196587
-0.0188053
-0.0175659
-0.0159468
-0.0143352
-0.0127221
-0.0111092
-0.0118856
-0.0125598
-0.012946
-0.0132908
-0.0136241
-0.0139656
-0.0138666
-0.0228013
-0.0218516
-0.0226309
-0.0233008
-0.0236119
-0.0215539
-0.0200467
-0.0204316
-0.0207917
-0.0211601
-0.0202829
-0.0190127
-0.0177523
-0.016151
-0.0145625
-0.0129786
-0.0113933
-0.00980162
-0.0105628
-0.0112257
-0.011605
-0.0119433
-0.0122726
-0.012607
-0.0128616
-0.0132057
-0.0135308
-0.0244007
-0.0230959
-0.0215481
-0.021941
-0.0233258
-0.0223248
-0.0227202
-0.0243109
-0.0244821
-0.0217886
-0.0204912
-0.0192015
-0.017924
-0.0163337
-0.0147649
-0.0132063
-0.011651
-0.0100886
-0.00850982
-0.00925615
-0.00990971
-0.0102833
-0.0106168
-0.0109411
-0.0112702
-0.0115201
-0.0118585
-0.0121788
-0.0125083
-0.0259798
-0.024665
-0.0233289
-0.0231081
-0.0234953
-0.0235583
-0.0242239
-0.0244659
-0.0251186
-0.0252994
-0.0220013
-0.0206818
-0.0193792
-0.0180863
-0.0164986
-0.0149445
-0.0134077
-0.0118786
-0.0103503
-0.00880499
-0.00722925
-0.0079614
-0.00860744
-0.00897692
-0.00930651
-0.00962777
-0.0099514
-0.0101982
-0.0105324
-0.0108482
-0.0111729
-0.027624
-0.0262587
-0.026136
-0.0249023
-0.0235446
-0.0237969
-0.024254
-0.0248259
-0.025953
-0.0252245
-0.0221982
-0.0208631
-0.0195511
-0.0182462
-0.0166514
-0.0151052
-0.0135847
-0.0120779
-0.0105796
-0.00907398
-0.00753799
-0.00596433
-0.00667269
-0.00731227
-0.00768011
-0.00800673
-0.00832611
-0.00864652
-0.00889071
-0.00922146
-0.0095362
-0.00985452
-0.029323
-0.0279097
-0.0269597
-0.0278029
-0.0265112
-0.0251243
-0.0237455
-0.0242179
-0.0247082
-0.0260409
-0.0267856
-0.0256256
-0.0251276
-0.0223845
-0.0210447
-0.0197213
-0.0184057
-0.0168
-0.01525
-0.0137385
-0.0122485
-0.0107748
-0.0093055
-0.00781629
-0.00628393
-0.00474583
-0.0053817
-0.00601791
-0.00638683
-0.00671164
-0.00703006
-0.00734811
-0.00759087
-0.00791992
-0.00823344
-0.00854992
-0.0310569
-0.0296024
-0.0286424
-0.0295061
-0.0281655
-0.0276238
-0.0267402
-0.0253308
-0.0239398
-0.0246257
-0.0264577
-0.0259542
-0.02688
-0.0255379
-0.0250313
-0.0225724
-0.0212275
-0.0198956
-0.0185641
-0.0169413
-0.0153822
-0.0138752
-0.0123944
-0.0109369
-0.0094952
-0.00804973
-0.00656882
-0.00504218
-0.00355047
-0.00417161
-0.00472932
-0.00508989
-0.00541289
-0.00573504
-0.00605108
-0.00629235
-0.00662063
-0.00693462
-0.00724998
-0.0328239
-0.0313308
-0.030362
-0.0312567
-0.0298581
-0.0284619
-0.029317
-0.0283967
-0.02771
-0.0272861
-0.0269527
-0.025532
-0.0241336
-0.0263705
-0.0258525
-0.0267894
-0.0254445
-0.022764
-0.0214164
-0.0200709
-0.0187171
-0.017079
-0.0155073
-0.0139962
-0.0125191
-0.0110709
-0.00964639
-0.00823266
-0.00680277
-0.00531976
-0.00381236
-0.00233502
-0.00294434
-0.00357965
-0.0038516
-0.0041071
-0.00441654
-0.0047367
-0.00498527
-0.00531743
-0.00563326
-0.00595143
-0.0346292
-0.0331063
-0.0321228
-0.0330149
-0.0315886
-0.030192
-0.031124
-0.0300924
-0.0281287
-0.0285579
-0.0293978
-0.0289642
-0.0286134
-0.0276216
-0.0272016
-0.0271576
-0.0257328
-0.0243374
-0.0262722
-0.0266854
-0.022966
-0.0216091
-0.0202435
-0.018859
-0.0172117
-0.0156279
-0.0141076
-0.0126267
-0.0111778
-0.00976044
-0.00836638
-0.00697536
-0.00554799
-0.00406235
-0.00257495
-0.00122287
-0.00182101
-0.00233289
-0.00261159
-0.0029077
-0.00321156
-0.00363243
-0.00352458
-0.00391641
-0.00427769
-0.00462752
-0.0364733
-0.0349278
-0.0339143
-0.0348369
-0.0333671
-0.0319714
-0.0328248
-0.0318263
-0.0298165
-0.0302641
-0.0312582
-0.0306932
-0.0303114
-0.0280411
-0.0284642
-0.0292967
-0.0288764
-0.0288232
-0.0275179
-0.0271056
-0.0273665
-0.0259446
-0.0245507
-0.0231748
-0.0217992
-0.0204062
-0.0189876
-0.0173352
-0.0157413
-0.0142102
-0.012722
-0.0112674
-0.00984645
-0.00845775
-0.00708726
-0.00570537
-0.00426694
-0.00276535
-0.00134775
-0.000280767
-0.000877912
-0.00129976
-0.0015418
-0.00179269
-0.00204699
-0.00231515
-0.00247452
-0.00272264
-0.00295366
-0.0036833
-0.0383655
-0.0367849
-0.0357556
-0.0366966
-0.035193
-0.0337276
-0.0346477
-0.0336057
-0.0315991
-0.0320077
-0.0328988
-0.032445
-0.0320485
-0.0297066
-0.0301056
-0.0313232
-0.0304798
-0.0305253
-0.0279437
-0.028361
-0.0291967
-0.0287837
-0.0290378
-0.0275873
-0.0261699
-0.0247747
-0.023385
-0.0219819
-0.0205544
-0.0190994
-0.0174455
-0.0158438
-0.0143028
-0.0128062
-0.0113427
-0.00991244
-0.00851825
-0.00715016
-0.00579084
-0.00439641
-0.00291316
-0.00141743
-0.000345532
-8.00052e-05
-0.000475108
-0.000669062
-0.000852213
-0.0010612
-0.00127868
-0.00142162
-0.00167819
-0.00193127
-0.00219658
-0.00236549
-0.00262655
-0.00288156
-0.00393603
-0.040308
-0.0386854
-0.0376373
-0.0385985
-0.037059
-0.0355733
-0.03651
-0.0354317
-0.0333706
-0.0338259
-0.0347346
-0.0342779
-0.0338288
-0.0313281
-0.0318274
-0.0327859
-0.0323132
-0.0322652
-0.029613
-0.030007
-0.0314383
-0.0303703
-0.0307445
-0.0292659
-0.0278244
-0.0264091
-0.0250024
-0.0235878
-0.0221515
-0.0206856
-0.0191946
-0.0175401
-0.0159345
-0.0143838
-0.0128801
-0.0114076
-0.00996501
-0.00855599
-0.00717566
-0.00581839
-0.00444545
-0.00299778
-0.00144756
-0.000400077
-5.86857e-06
-0.000223502
-0.000364381
-0.000491874
-0.000559936
-0.000744459
-0.000945128
-0.00116801
-0.00129011
-0.00154852
-0.00181272
-0.00208045
-0.0423074
-0.040635
-0.0395629
-0.0405464
-0.0389658
-0.0374549
-0.0384117
-0.0373022
-0.0352047
-0.0356697
-0.036595
-0.0361277
-0.0356552
-0.0332606
-0.0337173
-0.0346251
-0.0341709
-0.0340495
-0.032492
-0.0309816
-0.0295143
-0.0280769
-0.0266554
-0.0252252
-0.0237784
-0.0223031
-0.0207998
-0.0192771
-0.0176191
-0.0160104
-0.0144527
-0.0129421
-0.0114608
-0.0100063
-0.00858134
-0.00718132
-0.00580663
-0.00442859
-0.00301061
-0.00142826
-0.000436761
1.94714e-05
-0.000194197
-0.000284294
-0.00039709
-0.000431288
-0.000612226
-0.000815311
-0.00103673
-0.0443646
-0.0426364
-0.0415357
-0.0425439
-0.0409208
-0.039378
-0.0403561
-0.0392159
-0.0370749
-0.037553
-0.0384995
-0.0380192
-0.0375305
-0.0350948
-0.0355574
-0.0364819
-0.0360202
-0.0358792
-0.0342802
-0.032736
-0.0312423
-0.0297833
-0.0283403
-0.0268995
-0.0254382
-0.0239525
-0.0224369
-0.0208999
-0.0193486
-0.0176866
-0.0160715
-0.0145079
-0.0129925
-0.0115064
-0.0100466
-0.00860399
-0.00718102
-0.00577973
-0.00437554
-0.00296543
-0.00135215
-0.000462513
4.68309e-05
-0.000106287
-0.000173622
-0.000275598
-0.046454
-0.0446812
-0.0435588
-0.0446009
-0.0429245
-0.0413438
-0.0423433
-0.0411758
-0.0389903
-0.0394803
-0.0404493
-0.0399563
-0.0394495
-0.0369637
-0.0374388
-0.0383844
-0.0379093
-0.0377576
-0.036116
-0.0345352
-0.0330082
-0.0315255
-0.0300655
-0.028605
-0.027134
-0.0256349
-0.0241079
-0.0225563
-0.020988
-0.0194162
-0.0177441
-0.0161231
-0.0145499
-0.0130283
-0.0115419
-0.0100786
-0.00862924
-0.00718664
-0.00575361
-0.0043113
-0.00288934
-0.00123084
-0.000476921
-0.0485986
-0.0467684
-0.0456342
-0.0467159
-0.0449696
-0.0433504
-0.044381
-0.043183
-0.0409511
-0.0414548
-0.0424469
-0.0419408
-0.0414152
-0.0388778
-0.0393638
-0.0403332
-0.0398461
-0.0396823
-0.0379985
-0.0363781
-0.0348203
-0.0333087
-0.0318272
-0.0303521
-0.0288637
-0.0273538
-0.0258135
-0.0242486
-0.022663
-0.0210713
-0.0194906
-0.0177998
-0.0161659
-0.0145829
-0.0130535
-0.0115663
-0.0101036
-0.00865112
-0.00719587
-0.00574121
-0.00426018
-0.00281064
-0.00108914
-0.000484276
-0.0507874
-0.0489256
-0.0477618
-0.0488484
-0.0470616
-0.0454518
-0.0465861
-0.0452333
-0.0429569
-0.0434714
-0.0444727
-0.0439601
-0.0434258
-0.0408386
-0.0413371
-0.0423311
-0.0418316
-0.0416533
-0.0399291
-0.0382688
-0.036674
-0.0351352
-0.0336295
-0.0321351
-0.0306338
-0.0291084
-0.0275556
-0.0259769
-0.0243757
-0.0227642
-0.0211594
-0.0195812
-0.0178621
-0.0162074
-0.0146079
-0.0130706
-0.0115807
-0.0101212
-0.00867214
-0.00721868
-0.00575007
-0.00423774
-0.00276159
-0.000966889
-0.000498009
-0.0530328
-0.0511348
-0.0499417
-0.0510594
-0.0492215
-0.0475457
-0.0486206
-0.047331
-0.0449644
-0.045477
-0.0464836
-0.0462689
-0.0454802
-0.042847
-0.0433576
-0.0443554
-0.0438563
-0.0436672
-0.0419067
-0.0402057
-0.0385769
-0.037005
-0.0354748
-0.0339594
-0.0324402
-0.030902
-0.029335
-0.0277424
-0.0261253
-0.0244965
-0.0228697
-0.0212633
-0.0196973
-0.0179407
-0.0162574
-0.0146337
-0.0130811
-0.0115865
-0.0101292
-0.00868796
-0.00724126
-0.00577613
-0.00424969
-0.00275077
-0.000896654
-0.000532422
-0.0553456
-0.0533926
-0.0521747
-0.0533137
-0.0514373
-0.0497344
-0.0508459
-0.0494905
-0.0470462
-0.0476183
-0.0487294
-0.048176
-0.0475821
-0.0448517
-0.0452912
-0.0462927
-0.0457282
-0.0439262
-0.0421925
-0.0405237
-0.0389216
-0.0373635
-0.0358266
-0.0342888
-0.0327335
-0.0311527
-0.0295456
-0.0279138
-0.0262664
-0.0246206
-0.022989
-0.0213932
-0.019844
-0.0180466
-0.016326
-0.0146698
-0.0130916
-0.0115862
-0.0101299
-0.00869727
-0.00726448
-0.00581317
-0.00429312
-0.00278877
-0.000900058
-0.00058963
-0.0577219
-0.0557114
-0.0544563
-0.0556685
-0.0537069
-0.0519659
-0.0530822
-0.0517074
-0.0493065
-0.0498607
-0.0509485
-0.0503972
-0.0497451
-0.0478351
-0.045994
-0.044222
-0.0425217
-0.0408848
-0.0392981
-0.0377369
-0.0361791
-0.0346068
-0.0330098
-0.0313877
-0.0297406
-0.028077
-0.0264097
-0.0247575
-0.0231335
-0.0215533
-0.0200198
-0.018184
-0.0164228
-0.0147259
-0.0131127
-0.0115856
-0.0101232
-0.00869819
-0.00728245
-0.00585361
-0.00435915
-0.00286842
-0.000983555
-0.000666084
-0.0601882
-0.0581008
-0.0568257
-0.0580257
-0.0560347
-0.0541365
-0.0551661
-0.0557566
-0.0539847
-0.0515289
-0.0520947
-0.0532064
-0.0526416
-0.0519648
-0.050002
-0.0481118
-0.0462979
-0.0445624
-0.0428963
-0.0412807
-0.0396932
-0.0381136
-0.0365219
-0.0349075
-0.0332692
-0.0316055
-0.0299254
-0.0282405
-0.0265652
-0.0249185
-0.0233087
-0.0217422
-0.020216
-0.0183514
-0.0165537
-0.0148139
-0.0131554
-0.0115952
-0.0101154
-0.00869008
-0.00729122
-0.00588868
-0.00442974
-0.00296756
-0.00112952
-0.000747175
-0.0626929
-0.0605539
-0.05924
-0.0604865
-0.0584275
-0.0563553
-0.0569733
-0.05756
-0.0581605
-0.0563218
-0.0537852
-0.0548208
-0.0543903
-0.0555809
-0.054248
-0.0522283
-0.050285
-0.0484262
-0.0466538
-0.0449529
-0.0433088
-0.0416958
-0.0400929
-0.0384803
-0.0368471
-0.035191
-0.0335104
-0.0318116
-0.030108
-0.0284122
-0.0267417
-0.0251081
-0.023514
-0.0219521
-0.0204163
-0.0185384
-0.0167164
-0.0149384
-0.0132311
-0.0116245
-0.0101146
-0.00868006
-0.00729033
-0.00591383
-0.00449482
-0.00307308
-0.00131413
-0.00082307
-0.0652665
-0.063046
-0.061723
-0.0630203
-0.0608782
-0.0587743
-0.0593975
-0.0599994
-0.0606147
-0.0587202
-0.0562356
-0.0568591
-0.0574398
-0.0580374
-0.0565927
-0.0549338
-0.0555043
-0.0545163
-0.0525184
-0.0506112
-0.0487954
-0.0470627
-0.0453865
-0.0437459
-0.0421178
-0.0404838
-0.03883
-0.0371549
-0.0354547
-0.0337374
-0.0320131
-0.0302965
-0.0286019
-0.0269432
-0.0253237
-0.0237374
-0.0221726
-0.0206103
-0.0187273
-0.0169036
-0.0150972
-0.0133435
-0.0116852
-0.0101312
-0.00867336
-0.00728285
-0.00592776
-0.00454746
-0.00317326
-0.00150545
-0.000894567
-0.0679056
-0.0656323
-0.0642887
-0.0655871
-0.0633801
-0.0612311
-0.0618664
-0.0624729
-0.0631901
-0.061174
-0.0586705
-0.0592909
-0.0598747
-0.0604802
-0.0589967
-0.0561237
-0.056731
-0.0573237
-0.0579097
-0.0568679
-0.0548145
-0.0528536
-0.0509938
-0.0492205
-0.0475147
-0.0458459
-0.044192
-0.0425331
-0.0408575
-0.0391614
-0.0374415
-0.0357032
-0.0339577
-0.0322173
-0.0304999
-0.0288153
-0.0271685
-0.025556
-0.0239671
-0.022392
-0.0208014
-0.0189022
-0.0170985
-0.0152788
-0.0134909
-0.0117829
-0.0101772
-0.00868082
-0.00727379
-0.00593054
-0.00458507
-0.00326027
-0.00167813
-0.000967967
-0.070608
-0.0682999
-0.0669043
-0.068255
-0.0659689
-0.0637808
-0.0644176
-0.0650529
-0.0657153
-0.063687
-0.0611134
-0.0617267
-0.0622889
-0.0632062
-0.0614555
-0.0585452
-0.0591584
-0.0597594
-0.0603516
-0.0592779
-0.0571709
-0.0551583
-0.0532508
-0.0514367
-0.0496939
-0.0479946
-0.0463145
-0.0446305
-0.042931
-0.0412125
-0.0394707
-0.0377106
-0.0359416
-0.0341769
-0.0324327
-0.0307208
-0.0290472
-0.0274061
-0.0257898
-0.0241853
-0.0225881
-0.0213691
-0.0190688
-0.0204463
-0.0172862
-0.0154689
-0.0136615
-0.011916
-0.0102596
-0.00871351
-0.00727432
-0.00592654
-0.00460706
-0.00332997
-0.00181913
-0.00105631
-0.073394
-0.0710204
-0.0696026
-0.0709828
-0.0686419
-0.0664023
-0.0670848
-0.0677341
-0.0683976
-0.0662764
-0.0635832
-0.0642448
-0.0648897
-0.0655509
-0.0639743
-0.060987
-0.0615822
-0.0621191
-0.0631016
-0.0617416
-0.0595863
-0.0575258
-0.0555671
-0.0537105
-0.0519299
-0.0501976
-0.048487
-0.046777
-0.0450517
-0.0433092
-0.0415436
-0.0397605
-0.0379671
-0.0361768
-0.0344039
-0.0326641
-0.0309589
-0.0292881
-0.027641
-0.0260038
-0.0243665
-0.0231427
-0.0222304
-0.0214404
-0.0195696
-0.0174642
-0.0187731
-0.0205259
-0.0156515
-0.0138425
-0.0120756
-0.0103791
-0.00878042
-0.00729638
-0.00592509
-0.00461685
-0.00337968
-0.00192834
-0.00116863
-0.0762776
-0.0738206
-0.0723677
-0.07378
-0.071377
-0.0690898
-0.0697871
-0.0704509
-0.0711299
-0.0689467
-0.0662823
-0.0669647
-0.0675895
-0.0682361
-0.0665676
-0.0642696
-0.0620594
-0.0599502
-0.0579467
-0.056043
-0.0542223
-0.0524548
-0.0507129
-0.0489732
-0.0472216
-0.0454531
-0.0436623
-0.0418529
-0.0400345
-0.0382161
-0.0364168
-0.0346435
-0.0329089
-0.0312051
-0.0295255
-0.0278559
-0.0261829
-0.024939
-0.0240116
-0.0231874
-0.0222984
-0.0216905
-0.0212422
-0.0196168
-0.0179599
-0.0158108
-0.0171441
-0.0188543
-0.0203344
-0.0208131
-0.0140176
-0.0122501
-0.0105288
-0.00888407
-0.00734788
-0.00593608
-0.00462042
-0.00340921
-0.00201129
-0.00129825
-0.0792438
-0.0767075
-0.0752097
-0.076657
-0.0741884
-0.0718425
-0.072559
-0.0732386
-0.0739356
-0.0716922
-0.0689697
-0.069666
-0.0703034
-0.0709641
-0.0692384
-0.0668672
-0.0645968
-0.0624352
-0.0603836
-0.0584375
-0.0565756
-0.054769
-0.0529933
-0.0512227
-0.0494418
-0.0476458
-0.045828
-0.0439925
-0.0421453
-0.0402987
-0.038466
-0.0366651
-0.0348946
-0.0331589
-0.0314455
-0.029743
-0.0280384
-0.0267691
-0.0258307
-0.024992
-0.0240788
-0.0234558
-0.0230014
-0.0221169
-0.0225724
-0.0217001
-0.0212654
-0.0197961
-0.0194916
-0.0180261
-0.0163019
-0.0141716
-0.0154981
-0.0171845
-0.018696
-0.0190877
-0.0204925
-0.0208457