/*--------------------------------*- C++ -*----------------------------------*\
| =========                 |                                                 |
| \\      /  F ield         | OpenFOAM: The Open Source CFD Toolbox           |
|  \\    /   O peration     | Version:  v1912                                 |
|   \\  /    A nd           | Website:  www.openfoam.com                      |
|    \\/     M anipulation  |                                                 |
\*---------------------------------------------------------------------------*/
FoamFile
{
    version     2.0;
    format      ascii;
    class       volVectorField;
    location    "490";
    object      U;
}
// * * * * * * * * * * * * * * * * * * * * * * * * * * * * * * * * * * * * * //

dimensions      [0 1 -1 0 0 0 0];


internalField   nonuniform List<vector> 
3673
(
(0.0770978 0.0260683 -6.07865e-22)
(0.23148 0.0767319 6.43247e-25)
(0.0765817 0.025896 0)
(0.383515 0.124678 0)
(0.230027 0.0762562 -6.43534e-25)
(0.0760916 0.0257308 0)
(0.528153 0.168466 0)
(0.381211 0.123937 0)
(0.228605 0.075787 0)
(0.0756035 0.0255692 -4.38909e-22)
(0.658688 0.206248 0)
(0.525131 0.167504 0)
(0.37894 0.123205 0)
(0.227198 0.0753283 0)
(0.0751278 0.0254103 4.379e-22)
(0.767455 0.235951 0)
(0.655008 0.205082 5.1058e-25)
(0.522115 0.166548 0)
(0.37671 0.122492 0)
(0.225831 0.074878 -4.22482e-22)
(0.0746545 0.0252518 0)
(0.846978 0.25569 0)
(0.7632 0.234599 2.70398e-22)
(0.651373 0.203937 -5.10103e-25)
(0.519147 0.165609 0)
(0.37449 0.121774 0)
(0.224455 0.0744214 0)
(0.0741791 0.0250945 0)
(0.890977 0.264046 -2.71173e-22)
(0.842163 0.254152 -2.53515e-22)
(0.758988 0.233273 0)
(0.647744 0.202797 2.42922e-22)
(0.516188 0.164669 0)
(0.372284 0.121061 -3.86638e-25)
(0.22308 0.0739692 0)
(0.0737111 0.0249391 -5.79581e-22)
(0.8952 0.260289 5.76877e-24)
(0.885545 0.262303 4.85917e-25)
(0.837379 0.252643 0)
(0.754793 0.231962 1.55708e-23)
(0.644142 0.201668 0)
(0.513221 0.163729 0)
(0.370074 0.120348 3.86594e-25)
(0.221718 0.0735194 2.98809e-22)
(0.0732393 0.0247817 0)
(0.858123 0.244574 2.71817e-22)
(0.889063 0.258321 2.5004e-22)
(0.880141 0.260597 -2.42345e-22)
(0.832623 0.251159 -2.21572e-22)
(0.750588 0.230652 -4.034e-25)
(0.640514 0.200531 0)
(0.51025 0.162785 0)
(0.367866 0.119632 -3.21983e-25)
(0.220335 0.0730632 0)
(0.072772 0.0246252 0)
(0.781475 0.218066 5.47429e-25)
(0.851203 0.242368 -2.55664e-22)
(0.882941 0.256397 2.41432e-22)
(0.874771 0.258928 2.28438e-22)
(0.827858 0.249682 0)
(0.746382 0.229343 4.03145e-25)
(0.636869 0.199387 0)
(0.507272 0.161838 0)
(0.365658 0.118917 9.08538e-25)
(0.218975 0.0726128 0)
(0.0723087 0.0244679 0)
(0.670271 0.182883 -3.27993e-24)
(0.773745 0.215626 -2.38528e-22)
(0.844273 0.240217 -2.36679e-22)
(0.876887 0.254537 -2.09473e-24)
(0.869434 0.257285 8.62066e-25)
(0.823095 0.248206 -2.02285e-22)
(0.742143 0.228022 0)
(0.633214 0.198237 0)
(0.504295 0.160887 0)
(0.363427 0.118191 -8.53818e-25)
(0.217623 0.0721638 0)
(0.0718471 0.0243102 0)
(0.532255 0.141827 2.43222e-24)
(0.661746 0.180234 3.35403e-23)
(0.765906 0.213244 2.52729e-22)
(0.837479 0.238179 -4.6838e-22)
(0.870948 0.252731 1.74321e-24)
(0.864131 0.25565 1.95611e-22)
(0.818318 0.246726 0)
(0.737877 0.226692 0)
(0.629533 0.197077 -3.35937e-22)
(0.501296 0.159928 0)
(0.361232 0.117478 2.89822e-22)
(0.216281 0.0717143 2.52885e-22)
(0.0713955 0.0241613 0)
(0.376909 0.0979032 0)
(0.522917 0.139037 2.6342e-22)
(0.652871 0.1776 2.3492e-22)
(0.758352 0.21106 2.49372e-22)
(0.830948 0.236233 -2.20552e-22)
(0.865124 0.250954 -1.51251e-24)
(0.858847 0.254024 0)
(0.81352 0.245241 -6.51034e-25)
(0.733606 0.225361 3.05975e-22)
(0.625859 0.195921 0)
(0.49832 0.158975 -2.45873e-22)
(0.359055 0.116763 -2.05849e-22)
(0.214949 0.0712702 0)
(0.0709378 0.0240103 0)
(0.366621 0.0951123 -5.00873e-23)
(0.251146 0.0641165 -1.92651e-24)
(0.254398 0.0650123 -1.25692e-22)
(0.512569 0.136073 -2.75956e-22)
(0.644554 0.175309 2.01276e-24)
(0.751364 0.209036 2.31497e-22)
(0.824709 0.234358 -1.53375e-24)
(0.859407 0.249211 1.51421e-24)
(0.853586 0.252407 1.3043e-24)
(0.808725 0.243758 1.258e-24)
(0.729318 0.224023 -8.86465e-25)
(0.622177 0.194755 0)
(0.49535 0.158018 0)
(0.356879 0.116049 2.41779e-22)
(0.213632 0.0708307 0)
(0.0704896 0.0238594 0)
(0.352932 0.0914832 5.89391e-23)
(0.238751 0.06082 8.30613e-23)
(0.24615 0.0629787 0)
(0.167531 0.0422579 1.77052e-24)
(0.169773 0.0427539 9.10464e-23)
(0.256767 0.065495 0)
(0.503468 0.133643 -7.07735e-26)
(0.637341 0.173284 3.60136e-24)
(0.744907 0.207129 2.04563e-22)
(0.818694 0.232548 2.95512e-24)
(0.853777 0.247498 1.69962e-22)
(0.848354 0.250801 -1.62773e-22)
(0.803926 0.242273 -8.90138e-25)
(0.725041 0.222685 2.81578e-25)
(0.618515 0.193595 2.69575e-22)
(0.49242 0.157075 -2.05453e-22)
(0.354743 0.115347 -2.21612e-22)
(0.212315 0.0703917 -1.82286e-22)
(0.0700517 0.0237125 0)
(0.342809 0.0886939 4.25198e-24)
(0.220439 0.0563289 -2.14294e-22)
(0.228703 0.0580065 6.30324e-23)
(0.155772 0.0392721 0)
(0.163769 0.0413578 2.05255e-23)
(0.103788 0.0259602 -3.36191e-23)
(0.104608 0.0261431 6.98069e-23)
(0.105574 0.0263422 2.89006e-25)
(0.171202 0.0430843 0)
(0.105174 0.0262339 3.59053e-23)
(0.496471 0.131683 2.55211e-22)
(0.631066 0.171462 -2.28745e-22)
(0.738882 0.205348 1.83534e-22)
(0.812884 0.230807 -1.78413e-22)
(0.848238 0.245816 4.11708e-24)
(0.843152 0.249208 0)
(0.799146 0.240794 2.82822e-25)
(0.720777 0.221351 -2.45088e-22)
(0.614877 0.192439 2.51018e-22)
(0.489499 0.156131 1.8833e-22)
(0.352636 0.114655 1.48104e-22)
(0.211042 0.0699647 -1.64537e-22)
(0.0696222 0.0235683 -1.33703e-22)
(0.336945 0.0868787 -2.94097e-22)
(0.212449 0.0538743 1.62876e-24)
(0.215275 0.0547642 0)
(0.131364 0.0331741 9.96836e-23)
(0.141522 0.035311 -5.45638e-23)
(0.0911631 0.0225147 1.91956e-24)
(0.0971666 0.0245439 -1.6068e-24)
(0.102591 0.0257705 0)
(0.10059 0.0252483 -1.80622e-25)
(0.0607975 0.0150989 4.66604e-25)
(0.0612565 0.0151845 -3.19323e-23)
(0.105944 0.0264202 -2.89078e-25)
(0.0617501 0.0152914 3.17127e-23)
(0.106239 0.0264988 -3.85679e-23)
(0.0615241 0.015241 0)
(0.490925 0.130095 -2.14146e-22)
(0.625426 0.16983 -2.04075e-22)
(0.733182 0.203675 0)
(0.807242 0.229122 3.23465e-22)
(0.842782 0.244165 -6.0942e-25)
(0.83799 0.247626 0)
(0.794392 0.239322 1.3288e-22)
(0.716544 0.220023 -2.28241e-22)
(0.611291 0.191297 -2.0722e-25)
(0.486649 0.155205 2.13759e-22)
(0.350545 0.113961 1.33982e-22)
(0.209792 0.0695445 -6.86985e-23)
(0.0691967 0.0234259 0)
(0.333015 0.0857928 2.53541e-22)
(0.209155 0.0528671 -1.45637e-24)
(0.210446 0.0532297 -1.63099e-24)
(0.125703 0.0313729 1.38054e-24)
(0.127369 0.0319191 -2.37268e-23)
(0.0622891 0.0157167 3.1358e-23)
(0.0649341 0.0164247 -3.46688e-23)
(0.080082 0.0188567 -3.64561e-24)
(0.0703653 0.0179607 4.22774e-25)
(0.0517989 0.0121392 1.64166e-24)
(0.056394 0.0141112 0)
(0.0601002 0.014973 0)
(0.0588429 0.0147298 -2.9087e-23)
(0.0196274 0.00482948 -1.74418e-25)
(0.0197469 0.00485325 1.74507e-25)
(0.0619392 0.0153423 -3.23897e-23)
(0.0198888 0.00488697 -4.5184e-25)
(0.062105 0.0153768 3.53096e-23)
(0.0198397 0.00487952 -2.36668e-23)
(0.486202 0.128774 -1.93981e-22)
(0.620248 0.168348 1.71819e-22)
(0.727754 0.202088 -3.25235e-22)
(0.801759 0.227488 -1.4662e-22)
(0.837401 0.242537 -1.36964e-22)
(0.83287 0.246059 -2.5878e-22)
(0.789669 0.237858 -2.46228e-25)
(0.712355 0.218705 0)
(0.607747 0.19016 -1.87826e-22)
(0.483827 0.154282 0)
(0.348518 0.113289 1.21085e-22)
(0.208564 0.0691308 0)
(0.0687817 0.0232867 2.91508e-23)
(0.329845 0.0850082 2.69818e-22)
(0.207124 0.0524096 1.36586e-24)
(0.20797 0.052603 8.54262e-23)
(0.123991 0.0309068 1.97686e-23)
(0.124669 0.0310921 1.9047e-23)
(0.0601309 0.0148788 -2.68878e-23)
(0.0603271 0.0149428 -4.45604e-25)
(0.0611739 0.0152226 3.1562e-23)
(0.0606016 0.0150384 -2.83244e-23)
(0.0201456 0.00508226 -2.52681e-23)
(0.0215517 0.00563131 3.70359e-23)
(0.0347543 0.00599602 -1.38821e-24)
(0.0238524 0.00628536 -9.33399e-24)
(0.0169448 0.00434638 -3.47278e-23)
(0.0181548 0.00464721 -2.1215e-23)
(0.0194388 0.00479568 -2.09012e-23)
(0.0190632 0.00473751 -2.11746e-23)
(0.0199385 0.00490275 2.13928e-25)
(0.0199853 0.00491102 2.61922e-23)
(0.481996 0.127621 -1.97671e-22)
(0.615405 0.166971 1.72611e-22)
(0.722532 0.200564 2.98951e-22)
(0.796381 0.225889 7.66623e-24)
(0.832085 0.240932 1.30398e-22)
(0.827797 0.244505 0)
(0.784999 0.236406 0)
(0.708226 0.217399 0)
(0.604258 0.189038 2.02011e-22)
(0.481071 0.15338 1.85421e-22)
(0.346535 0.112627 0)
(0.207365 0.0687248 0)
(0.0683733 0.0231502 0)
(0.327061 0.0843199 4.57654e-23)
(0.205414 0.0520239 -7.25779e-23)
(0.206152 0.0522025 -5.4504e-24)
(0.122931 0.0306755 0)
(0.123417 0.030789 -7.92918e-23)
(0.0596449 0.0147469 2.44986e-23)
(0.0597138 0.0147762 -2.57398e-23)
(0.0599421 0.0148301 2.56129e-23)
(0.0598243 0.0148058 -2.66259e-23)
(0.0192943 0.00474305 3.78931e-23)
(0.0193542 0.00476488 -1.90675e-23)
(0.0196465 0.00486435 0)
(0.0194394 0.00478933 4.02853e-23)
(0.00964063 0.00153575 3.43656e-24)
(0.478135 0.126569 -1.40022e-24)
(0.610797 0.165666 -2.99622e-22)
(0.717465 0.199093 1.43656e-22)
(0.791108 0.224325 0)
(0.826834 0.239347 0)
(0.822776 0.242966 0)
(0.780385 0.234967 1.07275e-22)
(0.704154 0.216108 -8.24133e-23)
(0.600847 0.187933 -1.63055e-22)
(0.478381 0.152492 -1.73243e-22)
(0.344593 0.111977 1.51593e-22)
(0.206189 0.0683285 0)
(0.0679774 0.0230192 -2.02242e-23)
(0.324491 0.0836675 -4.02192e-23)
(0.203838 0.0516417 -7.01418e-23)
(0.204517 0.0518188 -6.70942e-23)
(0.121998 0.0304688 8.26187e-23)
(0.122456 0.0305783 -7.05939e-23)
(0.0592544 0.0146596 0)
(0.0593228 0.0146889 -2.22026e-23)
(0.0595128 0.0147245 2.32983e-23)
(0.0594268 0.0147082 2.29243e-23)
(0.0191591 0.00470617 -2.57512e-25)
(0.0191748 0.00471725 -1.76411e-23)
(0.0192477 0.00472906 -2.67266e-25)
(0.0191976 0.00472137 1.79307e-23)
(0.474476 0.125578 1.64187e-22)
(0.606368 0.164421 -1.30018e-22)
(0.712514 0.197658 -1.20746e-22)
(0.785914 0.222787 1.14472e-22)
(0.821646 0.237782 1.09596e-22)
(0.817812 0.241439 7.27635e-25)
(0.775833 0.233542 -9.50614e-23)
(0.700164 0.214832 0)
(0.597513 0.186847 1.52317e-22)
(0.475769 0.151626 -1.28506e-22)
(0.342714 0.111346 -1.17132e-25)
(0.205055 0.0679444 0)
(0.0675857 0.022892 1.83513e-23)
(0.322049 0.0830416 6.88903e-25)
(0.202334 0.0512678 6.873e-24)
(0.202991 0.0514421 5.80489e-23)
(0.121087 0.0302484 1.32922e-23)
(0.121529 0.0303616 7.58017e-23)
(0.0588453 0.0145662 -1.96451e-23)
(0.0589189 0.0145971 -1.9241e-23)
(0.0591157 0.014636 8.33637e-25)
(0.0590281 0.0146178 -1.00867e-24)
(0.0190441 0.00467845 1.50551e-23)
(0.0190636 0.00469021 1.98881e-25)
(0.0191261 0.00469827 -1.6829e-23)
(0.0190835 0.00469235 -2.90152e-25)
(0.470971 0.124629 1.48875e-22)
(0.602064 0.163209 1.33964e-22)
(0.707661 0.196253 -1.22462e-22)
(0.780789 0.221269 -1.13504e-22)
(0.81651 0.236229 -3.74588e-24)
(0.812904 0.239926 9.6957e-23)
(0.771356 0.23213 0)
(0.696263 0.213574 0)
(0.594277 0.185781 -1.68244e-22)
(0.473209 0.150769 0)
(0.340863 0.110719 1.17059e-25)
(0.203929 0.0675634 -1.10097e-22)
(0.0671858 0.0227564 -2.19224e-23)
(0.319692 0.0824282 2.99075e-23)
(0.20087 0.0508987 -4.69521e-23)
(0.201504 0.0510684 4.9965e-23)
(0.120202 0.0300318 5.1114e-23)
(0.120641 0.0301439 -4.19568e-23)
(0.0584252 0.0144633 0)
(0.0584986 0.0144933 -3.36572e-23)
(0.0587004 0.0145379 0)
(0.0586085 0.0145175 -1.02138e-24)
(0.0189147 0.00464775 9.85383e-26)
(0.0189388 0.00466018 1.38481e-23)
(0.0190082 0.00467036 2.90278e-23)
(0.0189635 0.00466352 -2.87735e-25)
(0.467577 0.123706 2.28851e-25)
(0.59785 0.162025 -1.05215e-22)
(0.702889 0.194874 1.00793e-22)
(0.775711 0.219764 -1.04809e-22)
(0.811416 0.234685 -9.71456e-23)
(0.808063 0.238422 -8.96187e-23)
(0.766966 0.230733 1.62046e-25)
(0.692451 0.212333 1.53083e-22)
(0.591111 0.184732 0)
(0.470728 0.149936 0)
(0.339071 0.110113 8.93391e-23)
(0.202807 0.0671818 0)
(0.0667979 0.0226253 -2.36659e-26)
(0.317399 0.0818283 -2.41972e-23)
(0.199438 0.0505307 -3.99505e-23)
(0.200063 0.050701 -4.84426e-23)
(0.119335 0.0298179 3.42399e-23)
(0.119767 0.0299269 -6.68591e-23)
(0.058004 0.014361 0)
(0.0580818 0.0143912 -1.38338e-23)
(0.0582828 0.0144354 -1.48351e-23)
(0.0581924 0.0144156 -1.53929e-23)
(0.0187787 0.00461403 1.09697e-23)
(0.0188053 0.00462643 2.62912e-25)
(0.0188751 0.00463863 1.2206e-23)
(0.0188297 0.00463165 -2.42618e-23)
(0.464274 0.122808 2.27284e-23)
(0.59371 0.160859 -1.1208e-22)
(0.698154 0.193505 -1.84106e-25)
(0.770676 0.218272 0)
(0.806375 0.23315 8.9496e-23)
(0.803286 0.236927 0)
(0.762666 0.22935 7.99159e-23)
(0.688741 0.211115 -1.53673e-25)
(0.588029 0.183705 0)
(0.46829 0.149115 0)
(0.337277 0.109506 0)
(0.201706 0.0668074 -1.13227e-22)
(0.0664352 0.0224992 0)
(0.31516 0.081239 9.3183e-23)
(0.19804 0.0501743 3.99695e-23)
(0.198659 0.0503407 0)
(0.11849 0.0296037 2.94059e-23)
(0.118912 0.0297121 -8.57522e-24)
(0.0575947 0.0142597 0)
(0.057666 0.01429 1.23861e-23)
(0.0578638 0.0143322 1.02251e-24)
(0.0577727 0.0143126 2.48451e-23)
(0.0186423 0.00458092 9.1617e-24)
(0.0186699 0.00459323 2.67557e-25)
(0.0187397 0.00460551 2.11188e-23)
(0.0186944 0.00459859 0)
(0.461019 0.121919 0)
(0.58962 0.159709 0)
(0.693445 0.192142 1.72579e-26)
(0.765645 0.216773 1.5853e-25)
(0.801359 0.23161 3.311e-25)
(0.798579 0.235437 -7.76728e-23)
(0.758455 0.227982 0)
(0.685115 0.209914 0)
(0.585017 0.182695 7.44445e-23)
(0.4659 0.148308 0)
(0.33551 0.108904 9.18075e-23)
(0.20061 0.0664247 8.99644e-26)
(0.0660391 0.0223639 -7.18357e-23)
(0.312975 0.0806618 0)
(0.19668 0.0498236 6.60172e-24)
(0.197283 0.0499872 0)
(0.11766 0.0293958 -6.24752e-24)
(0.118076 0.0295022 -1.39307e-23)
(0.0571868 0.0141582 0)
(0.0572591 0.0141872 8.25724e-25)
(0.057455 0.014231 1.11023e-23)
(0.0573665 0.0142105 9.74507e-24)
(0.0185122 0.00454871 0)
(0.0185368 0.00456162 0)
(0.0186037 0.00457221 1.76489e-23)
(0.0185569 0.00456553 -1.70732e-23)
(0.457815 0.121044 -7.4911e-23)
(0.58553 0.158557 0)
(0.688726 0.190774 7.43314e-23)
(0.760616 0.215269 -1.58467e-25)
(0.796377 0.230064 0)
(0.793939 0.233949 0)
(0.754333 0.226627 0)
(0.681576 0.208734 -6.76072e-23)
(0.58207 0.181702 0)
(0.463511 0.147497 0)
(0.333759 0.1083 0)
(0.199498 0.0660394 6.67972e-23)
(0.0656244 0.0222276 -1.39423e-22)
(0.310799 0.080086 8.66043e-23)
(0.19534 0.0494795 2.15414e-23)
(0.195939 0.0496406 1.01274e-25)
(0.11685 0.0291913 2.05708e-23)
(0.117257 0.0292951 -5.40105e-24)
(0.0567851 0.0140604 0)
(0.0568592 0.0140862 8.2202e-24)
(0.057048 0.0141302 8.99181e-25)
(0.0569763 0.0141142 9.82137e-25)
(0.0183787 0.00451601 0)
(0.0184046 0.00452835 2.57003e-25)
(0.0184726 0.00454034 0)
(0.0184286 0.00453313 -2.81152e-25)
(0.454607 0.120167 -4.37564e-25)
(0.58142 0.157402 -8.25231e-23)
(0.683958 0.18939 0)
(0.755548 0.213737 0)
(0.791407 0.228501 2.47304e-25)
(0.789362 0.232462 0)
(0.750289 0.225288 0)
(0.678096 0.207569 1.35343e-25)
(0.579139 0.180713 -7.18246e-23)
(0.46115 0.146691 0)
(0.331967 0.107684 1.40355e-22)
(0.198368 0.065652 7.84271e-23)
(0.0652096 0.0220861 6.96358e-23)
(0.308659 0.0795189 -1.21312e-23)
(0.194021 0.0491414 1.63732e-23)
(0.194616 0.0493003 -1.88817e-23)
(0.116055 0.0289914 -2.02774e-23)
(0.116458 0.0290926 -8.31723e-24)
(0.0563989 0.0139643 0)
(0.0564707 0.0139891 6.42025e-24)
(0.0566535 0.0140315 0)
(0.0565857 0.0140163 9.77273e-25)
(0.0182461 0.00448494 0)
(0.0182853 0.00449806 -5.05895e-24)
(0.0183393 0.00450819 2.99801e-25)
(0.0182989 0.00450134 5.72399e-24)
(0.451376 0.119286 2.78252e-25)
(0.577244 0.156226 0)
(0.679083 0.187962 4.45455e-25)
(0.750417 0.212164 0)
(0.786437 0.226912 -5.48727e-23)
(0.784838 0.230976 5.95485e-23)
(0.746312 0.223966 -1.30147e-25)
(0.67466 0.206418 6.53037e-23)
(0.576216 0.179723 -2.68127e-25)
(0.45877 0.145876 -1.18728e-22)
(0.330176 0.107064 0)
(0.197199 0.0652422 0)
(0.0647899 0.0219445 -2.01677e-22)
(0.306512 0.0789469 -9.33913e-24)
(0.192717 0.048801 -6.11955e-26)
(0.193306 0.0489608 3.39219e-23)
(0.115273 0.0287966 -1.79267e-23)
(0.11567 0.0288939 1.18735e-23)
(0.056016 0.0138696 0)
(0.0560873 0.0138936 0)
(0.056268 0.0139348 9.2896e-25)
(0.0561993 0.0139199 9.58669e-25)
(0.0181237 0.0044549 3.42063e-24)
(0.0181613 0.00446754 3.07486e-26)
(0.0182136 0.00447694 4.25977e-24)
(0.0181744 0.00447017 8.46229e-24)
(0.44807 0.118381 0)
(0.572903 0.155002 0)
(0.674043 0.18647 -4.58429e-23)
(0.74518 0.210527 1.00885e-22)
(0.781455 0.225296 -5.97061e-23)
(0.780359 0.229502 -5.77497e-23)
(0.742379 0.22266 -1.26142e-25)
(0.67123 0.205266 6.86649e-23)
(0.573285 0.178726 -7.14358e-23)
(0.456365 0.145043 0)
(0.32834 0.106421 0)
(0.196024 0.0648298 1.06475e-22)
(0.0643669 0.0217987 1.07078e-22)
(0.304314 0.0783611 0)
(0.191436 0.0484644 -6.33108e-24)
(0.192029 0.0486282 1.51481e-23)
(0.114511 0.028602 -1.32871e-24)
(0.114901 0.0287 -1.5082e-23)
(0.0556454 0.013779 0)
(0.0557123 0.0138016 3.23925e-24)
(0.0558912 0.0138413 3.87511e-24)
(0.0558234 0.013826 3.70597e-24)
(0.0179989 0.00442442 2.22809e-24)
(0.0180369 0.00443686 0)
(0.0180894 0.00444613 6.29817e-24)
(0.0180484 0.00443927 3.17965e-24)
(0.444614 0.117444 -3.44106e-23)
(0.568303 0.1537 5.05993e-23)
(0.66875 0.184868 -4.75153e-23)
(0.739793 0.208811 0)
(0.776467 0.223675 5.80046e-23)
(0.77592 0.228047 0)
(0.738466 0.221364 -1.28155e-22)
(0.667803 0.204112 6.45485e-23)
(0.570329 0.177711 -7.21561e-23)
(0.453916 0.14419 0)
(0.326469 0.10576 0)
(0.194822 0.0644027 1.73304e-22)
(0.0639118 0.0216464 2.65511e-23)
(0.30204 0.0777578 3.58529e-23)
(0.190141 0.048127 1.74398e-24)
(0.190752 0.0482943 0)
(0.11376 0.0284101 5.6468e-24)
(0.114138 0.0285043 -1.49632e-24)
(0.0552774 0.0136857 0)
(0.0553478 0.0137073 1.71074e-24)
(0.0555185 0.0137501 2.39499e-24)
(0.055453 0.0137365 -1.47082e-24)
(0.0178821 0.00439578 1.14769e-24)
(0.0179158 0.00440766 1.25324e-26)
(0.0179688 0.00441669 1.87748e-24)
(0.0179277 0.00440917 1.70671e-24)
(0.44085 0.116425 3.99572e-25)
(0.563259 0.152242 -2.15881e-23)
(0.663079 0.183108 0)
(0.734283 0.207044 3.27796e-23)
(0.771491 0.22207 -1.04663e-25)
(0.771518 0.226616 1.18463e-22)
(0.734564 0.220069 5.033e-25)
(0.664345 0.202939 1.32497e-22)
(0.567335 0.176676 0)
(0.451414 0.143311 -3.02476e-25)
(0.324555 0.105081 -1.40023e-22)
(0.19358 0.0639634 4.84321e-23)
(0.063432 0.0214851 1.81857e-22)
(0.299543 0.0770994 2.20803e-24)
(0.188836 0.0477817 0)
(0.18945 0.0479521 7.04395e-24)
(0.11302 0.0282212 -1.42833e-24)
(0.113392 0.0283134 -3.57642e-25)
(0.0549189 0.0135976 1.24867e-25)
(0.0549915 0.0136184 3.18041e-25)
(0.0551554 0.0136578 9.57829e-25)
(0.0550934 0.0136453 9.23293e-25)
(0.0177603 0.00436412 6.71474e-26)
(0.0177973 0.00437558 0)
(0.0178443 0.00438781 7.3602e-25)
(0.0178144 0.00438456 2.13093e-25)
(0.436517 0.115251 2.46495e-23)
(0.557567 0.15055 -4.65322e-26)
(0.657048 0.181202 -3.52257e-23)
(0.728712 0.205284 3.52732e-23)
(0.766576 0.220513 -1.06022e-22)
(0.767162 0.2252 0)
(0.730656 0.218764 -6.21317e-23)
(0.660858 0.201746 0)
(0.564279 0.17561 0)
(0.448872 0.14241 3.02406e-25)
(0.322603 0.104384 -3.44214e-22)
(0.192286 0.0635037 -1.68661e-22)
(0.062944 0.0213189 -1.87754e-22)
(0.296552 0.0763405 0)
(0.187392 0.0474051 -1.63451e-24)
(0.188119 0.047603 -1.93973e-24)
(0.112267 0.0280277 3.86391e-24)
(0.112656 0.0281244 -1.96049e-24)
(0.0545779 0.013511 -1.26524e-24)
(0.0546445 0.0135322 9.91297e-25)
(0.0548042 0.013571 0)
(0.0547444 0.0135565 4.60357e-25)
(0.0176433 0.00433626 -9.2881e-25)
(0.0176815 0.00434706 0)
(0.0177251 0.00435805 -2.50638e-25)
(0.0176971 0.00435532 1.47085e-25)
(0.431219 0.113779 0)
(0.551005 0.148516 4.64011e-26)
(0.650779 0.179264 -3.81783e-23)
(0.723245 0.203614 5.12564e-23)
(0.761778 0.219 -8.01052e-25)
(0.762847 0.223788 0)
(0.726737 0.217442 -9.50087e-25)
(0.657322 0.200526 5.30269e-25)
(0.56118 0.174518 0)
(0.446283 0.141485 3.32953e-22)
(0.320617 0.103668 3.58753e-25)
(0.190945 0.0630211 4.00693e-25)
(0.0624445 0.0211512 2.37714e-23)
(0.292517 0.0753009 8.55106e-24)
(0.185565 0.0469629 -3.09572e-26)
(0.186558 0.0472141 3.09349e-26)
(0.111473 0.0278242 -2.89627e-24)
(0.111909 0.0279287 1.67691e-25)
(0.0542374 0.0134253 9.39582e-25)
(0.0543087 0.0134473 7.86642e-25)
(0.0544623 0.0134844 1.64001e-24)
(0.0544052 0.0134714 0)
(0.0175379 0.00430932 0)
(0.0175703 0.00432023 -1.61173e-24)
(0.0176137 0.00433145 1.17608e-24)
(0.017586 0.00432715 1.21371e-24)
(0.424206 0.11171 4.66964e-23)
(0.543807 0.146321 0)
(0.644684 0.177489 2.65663e-25)
(0.718033 0.20203 0)
(0.757115 0.217512 7.40637e-25)
(0.758566 0.222373 0)
(0.722796 0.216103 4.69778e-25)
(0.653751 0.19928 -5.30188e-25)
(0.558041 0.1734 2.42191e-24)
(0.443667 0.140536 3.435e-25)
(0.318554 0.102916 0)
(0.189597 0.0625392 -2.28482e-22)
(0.0619313 0.0209763 2.25753e-23)
(0.28546 0.0734419 -5.42665e-23)
(0.182454 0.0462339 -1.4043e-23)
(0.184299 0.0467078 2.0693e-25)
(0.110516 0.0275937 -4.09867e-24)
(0.111071 0.027715 3.6166e-24)
(0.0539019 0.0133424 0)
(0.053974 0.013364 3.76644e-24)
(0.054127 0.0133988 3.00261e-24)
(0.0540713 0.0133848 -3.22122e-24)
(0.0174279 0.00428257 -5.57441e-24)
(0.0174642 0.00429402 -4.91953e-24)
(0.0175038 0.00430376 -2.19262e-24)
(0.0174779 0.00430092 2.14942e-24)
(0.415495 0.109125 -6.20709e-23)
(0.536924 0.144438 0)
(0.639118 0.175874 5.06838e-25)
(0.713114 0.200507 -3.18405e-23)
(0.752572 0.216046 -3.52649e-25)
(0.754316 0.220956 0)
(0.718843 0.214745 0)
(0.650142 0.198007 -2.07062e-22)
(0.554856 0.17225 -1.61418e-22)
(0.44098 0.139554 3.99818e-25)
(0.316475 0.102154 0)
(0.188223 0.0620364 -2.64484e-22)
(0.0614018 0.0207962 3.33228e-22)
(0.273219 0.0701044 3.74185e-23)
(0.174701 0.0441639 1.62713e-24)
(0.179607 0.045681 1.55091e-23)
(0.108814 0.0272327 0)
(0.109868 0.0274395 -4.58084e-24)
(0.0535397 0.0132529 6.75494e-24)
(0.0536287 0.013278 5.24721e-24)
(0.0537835 0.013311 0)
(0.0537324 0.0132967 8.46435e-25)
(0.0173258 0.00425765 -4.02998e-24)
(0.0173593 0.00426834 -3.59651e-24)
(0.0173976 0.00427693 -3.20654e-24)
(0.0173715 0.00427352 0)
(0.407504 0.107055 -3.41044e-25)
(0.531141 0.142837 -2.45442e-23)
(0.634131 0.174373 1.417e-23)
(0.708468 0.199045 -4.41931e-25)
(0.748139 0.214601 0)
(0.750098 0.219534 0)
(0.714881 0.213368 6.18262e-23)
(0.646515 0.196711 1.46587e-22)
(0.551633 0.171077 3.52874e-25)
(0.438273 0.138548 -3.99732e-25)
(0.314333 0.101357 -2.68227e-22)
(0.186824 0.0615239 -3.07237e-22)
(0.0608564 0.020606 3.83517e-22)
(0.263303 0.0675588 8.23069e-26)
(0.156214 0.039763 -1.85716e-23)
(0.165673 0.0414806 9.87235e-23)
(0.103666 0.0260103 -2.60282e-24)
(0.107181 0.0269054 -1.35328e-23)
(0.0529401 0.013124 0)
(0.0531616 0.0131698 -7.57614e-24)
(0.0534054 0.0132219 -9.64636e-25)
(0.0533017 0.0131919 -7.47395e-24)
(0.0172163 0.00423111 -1.02884e-23)
(0.0172571 0.00424231 -4.74245e-24)
(0.017295 0.00425103 0)
(0.0172685 0.00424741 1.56488e-25)
(0.401756 0.105458 1.71913e-23)
(0.526357 0.14142 2.19838e-23)
(0.629584 0.172974 0)
(0.70403 0.197635 4.42583e-25)
(0.743804 0.213172 -2.65309e-23)
(0.745914 0.218107 -3.42225e-25)
(0.710918 0.211972 2.27534e-25)
(0.64286 0.195388 0)
(0.548384 0.16987 -3.52732e-25)
(0.435508 0.13751 4.56334e-22)
(0.3122 0.100554 2.71369e-25)
(0.185372 0.0609788 -3.52303e-22)
(0.0602699 0.0204134 0)
(0.258421 0.0659512 2.07006e-23)
(0.14788 0.0372382 -1.47186e-23)
(0.150416 0.0380699 -2.89973e-25)
(0.0778655 0.0201446 1.79381e-23)
(0.0921704 0.0226226 -3.94656e-23)
(0.0492576 0.0120184 -1.93298e-24)
(0.0512736 0.0128862 -2.10169e-25)
(0.0526645 0.0130826 5.92842e-26)
(0.0521614 0.0129909 9.02745e-24)
(0.0170554 0.00419102 0)
(0.0171291 0.00420779 -4.4282e-25)
(0.0171915 0.00422698 5.05803e-24)
(0.0171464 0.00421493 -1.87296e-25)
(0.397637 0.104232 1.67951e-23)
(0.522245 0.140179 -9.42357e-24)
(0.625391 0.171679 -9.95215e-26)
(0.699778 0.196272 1.64122e-23)
(0.739567 0.211761 4.67999e-25)
(0.741769 0.216673 3.42381e-25)
(0.706965 0.210557 -4.56526e-25)
(0.639187 0.194035 0)
(0.545112 0.168638 -2.01654e-22)
(0.432721 0.136444 2.62694e-25)
(0.309982 0.0997081 -3.29038e-22)
(0.183853 0.0604195 0)
(0.059659 0.0202087 -9.92405e-22)
(0.255704 0.0651491 -7.59143e-24)
(0.145576 0.0364151 -1.10031e-23)
(0.146414 0.0366618 2.22972e-23)
(0.0717563 0.0177749 1.45556e-23)
(0.0728903 0.0183294 -4.14601e-25)
(0.0184316 0.00495471 -9.68e-25)
(0.0206287 0.00509453 1.25882e-24)
(0.0448918 0.0102513 -1.71525e-24)
(0.0302371 0.00507475 0)
(0.0157934 0.00402521 7.17217e-24)
(0.016512 0.00412875 1.03973e-25)
(0.0169756 0.00417621 6.67633e-24)
(0.0168116 0.0041506 3.40104e-25)
(0.394311 0.103264 1.07595e-23)
(0.518559 0.139077 1.78964e-23)
(0.621464 0.17046 1.80293e-23)
(0.695686 0.194945 0)
(0.735412 0.210355 -2.17804e-25)
(0.737664 0.215229 0)
(0.70302 0.20912 4.97486e-23)
(0.635512 0.192657 0)
(0.541817 0.167372 0)
(0.429898 0.135352 3.48615e-24)
(0.307729 0.0988419 0)
(0.182297 0.0598402 9.57601e-22)
(0.0590472 0.019998 -5.60889e-22)
(0.253707 0.0646745 1.61151e-23)
(0.144459 0.0361942 1.77952e-25)
(0.144905 0.0362781 -2.0005e-23)
(0.07084 0.0174928 9.58478e-26)
(0.0711885 0.0175915 -2.09868e-23)
(0.0167415 0.00411749 6.72753e-24)
(0.0168125 0.00415188 7.3903e-24)
(0.0172958 0.00436731 -5.00016e-24)
(0.0168739 0.0042187 -5.39561e-24)
(0.0147073 0.00370373 -2.63625e-25)
(0.00832229 0.00128728 -7.43397e-23)
(0.391482 0.102463 -2.02877e-23)
(0.515224 0.138079 1.93119e-23)
(0.617748 0.169291 0)
(0.69173 0.193643 0)
(0.731339 0.208954 -1.15088e-23)
(0.733599 0.213773 -4.81271e-23)
(0.699084 0.207659 2.38473e-25)
(0.631828 0.191247 0)
(0.538494 0.166074 2.40658e-22)
(0.427014 0.134217 -3.00867e-22)
(0.305416 0.0979422 -3.99452e-22)
(0.180694 0.0592337 0)
(0.0583822 0.0197763 -6.41155e-22)
(0.251999 0.0642692 -1.89337e-23)
(0.143592 0.0360285 0)
(0.143955 0.0361062 -2.52874e-23)
(0.070426 0.0174201 0)
(0.0706091 0.0174594 -6.885e-24)
(0.0166775 0.0040959 -6.6737e-24)
(0.0166852 0.00409789 -7.03419e-24)
(0.01672 0.00411115 0)
(0.0167067 0.00410753 6.77708e-24)
(0.388963 0.101749 -3.07777e-23)
(0.512125 0.137144 4.08396e-25)
(0.61421 0.168166 -2.2089e-23)
(0.687891 0.192359 2.07983e-23)
(0.727341 0.207553 -6.34347e-24)
(0.729577 0.212301 -1.43402e-25)
(0.695167 0.206171 -4.97098e-23)
(0.628147 0.189805 0)
(0.535125 0.164733 2.7699e-23)
(0.424093 0.133047 0)
(0.303029 0.097003 0)
(0.179033 0.0586087 0)
(0.0577033 0.0195524 -7.33139e-22)
(0.250499 0.0638906 0)
(0.142797 0.0358434 0)
(0.143135 0.03593 2.97658e-23)
(0.0700655 0.017346 -8.60077e-24)
(0.0702474 0.0173934 0)
(0.0166278 0.00408727 0)
(0.0166297 0.00408827 -7.54018e-24)
(0.0166567 0.00409468 1.39152e-23)
(0.016656 0.00409387 -5.51365e-26)
(0.386678 0.101098 -3.70122e-25)
(0.509198 0.13625 2.45881e-23)
(0.610806 0.167064 2.09399e-23)
(0.684151 0.191081 6.53942e-24)
(0.723414 0.206143 0)
(0.725598 0.210809 7.074e-23)
(0.691272 0.204656 -5.0177e-23)
(0.624445 0.188326 2.98443e-22)
(0.531736 0.163355 2.60938e-25)
(0.421134 0.131844 -3.66894e-22)
(0.300597 0.0960363 0)
(0.177331 0.0579648 0)
(0.0570059 0.0193209 8.45221e-22)
(0.249123 0.0635298 3.624e-25)
(0.142042 0.0356547 0)
(0.142356 0.0357394 0)
(0.069702 0.0172604 -9.49222e-24)
(0.0698844 0.0173104 1.27493e-25)
(0.0165505 0.00406665 -2.77986e-25)
(0.0165623 0.00407182 0)
(0.0165975 0.00408327 7.95528e-24)
(0.0165916 0.00407923 8.20282e-24)
(0.384521 0.100476 5.44297e-25)
(0.506409 0.135387 -3.42188e-23)
(0.607526 0.165983 0)
(0.680515 0.189811 6.63794e-26)
(0.719554 0.204723 -2.26885e-23)
(0.721661 0.209295 4.87566e-23)
(0.687389 0.203108 -1.30849e-22)
(0.620734 0.186808 -9.08506e-23)
(0.528338 0.161942 3.21431e-22)
(0.418117 0.130595 0)
(0.298143 0.0950395 0)
(0.175543 0.0572807 -7.74731e-22)
(0.0562646 0.0190873 9.41412e-22)
(0.247817 0.0631793 -1.56112e-25)
(0.141327 0.0354703 1.623e-25)
(0.141624 0.0355548 -1.6235e-25)
(0.0693575 0.0171769 0)
(0.0695254 0.0172213 0)
(0.016469 0.0040476 0)
(0.0164812 0.00405252 9.57099e-24)
(0.0165178 0.00406249 9.14949e-24)
(0.0165126 0.0040599 9.37605e-24)
(0.382484 0.0998817 -5.44051e-25)
(0.503753 0.13455 0)
(0.604352 0.16491 4.88501e-23)
(0.676965 0.188535 3.16626e-23)
(0.715766 0.203289 2.17548e-26)
(0.717766 0.207755 4.98114e-23)
(0.683524 0.201524 8.52924e-23)
(0.617035 0.185249 0)
(0.524897 0.160477 0)
(0.415069 0.129298 -4.49466e-22)
(0.295553 0.093981 0)
(0.173677 0.0565914 0)
(0.055479 0.0188073 1.07574e-21)
(0.246574 0.0628386 2.5613e-26)
(0.140632 0.0352911 -1.81545e-25)
(0.140931 0.0353774 1.81606e-25)
(0.0690133 0.0170921 0)
(0.0691871 0.0171375 0)
(0.0163989 0.00402961 0)
(0.0164008 0.00403317 -1.08369e-23)
(0.0164388 0.00404254 -1.02937e-23)
(0.0164307 0.00403985 1.0524e-23)
(0.380542 0.0993058 -9.68548e-23)
(0.501195 0.133724 -1.31186e-22)
(0.601285 0.163841 -3.42379e-23)
(0.673504 0.187251 0)
(0.712039 0.201833 5.68313e-27)
(0.713914 0.206184 0)
(0.679673 0.199898 0)
(0.613314 0.18364 0)
(0.521402 0.158952 3.93926e-22)
(0.411919 0.127946 0)
(0.292884 0.0928859 0)
(0.171709 0.0558833 -9.86342e-22)
(0.0548529 0.0183776 1.22287e-21)
(0.245389 0.0625134 1.13632e-22)
(0.139978 0.0351167 -1.91184e-25)
(0.140256 0.0351987 4.02334e-25)
(0.0686792 0.0170088 0)
(0.0688469 0.017056 0)
(0.0163149 0.00401091 1.21963e-23)
(0.0163292 0.0040154 -1.18895e-23)
(0.0163658 0.00402427 -1.13149e-23)
(0.0163591 0.00402145 1.14482e-23)
(0.378699 0.0987513 8.97633e-23)
(0.498748 0.132909 -2.86524e-25)
(0.598315 0.162767 0)
(0.670123 0.185952 0)
(0.708376 0.200355 -2.11383e-23)
(0.710102 0.204579 -1.41387e-23)
(0.675841 0.19823 -5.88869e-23)
(0.609564 0.181978 0)
(0.517879 0.157381 -3.83507e-25)
(0.408681 0.12653 0)
(0.290154 0.0917545 0)
(0.169587 0.0550222 -1.12109e-21)
(0.0553576 0.0180237 1.42588e-21)
(0.24426 0.062213 2.59469e-25)
(0.139343 0.0349543 4.41439e-25)
(0.1396 0.035027 -6.52476e-25)
(0.0683598 0.0169266 0)
(0.0685246 0.0169706 -1.34933e-23)
(0.0162406 0.00399133 1.33648e-23)
(0.0162508 0.00399654 -1.3109e-23)
(0.016289 0.00400834 0)
(0.0162789 0.00400332 0)
(0.376941 0.0982102 1.24959e-22)
(0.496407 0.132092 1.04343e-22)
(0.59545 0.161687 0)
(0.666824 0.184642 2.20304e-23)
(0.704783 0.198854 1.42183e-23)
(0.706333 0.202935 4.44481e-23)
(0.67202 0.196513 0)
(0.605815 0.180261 0)
(0.514273 0.155736 4.10232e-22)
(0.405437 0.125057 0)
(0.287008 0.0904935 0)
(0.169657 0.0539286 6.13812e-23)
(0.0493568 0.0151815 -5.96183e-23)
(0.243195 0.061944 -1.47286e-22)
(0.138723 0.0348133 0)
(0.138984 0.0348756 6.25699e-23)