/*--------------------------------*- C++ -*----------------------------------*\
| =========                 |                                                 |
| \\      /  F ield         | OpenFOAM: The Open Source CFD Toolbox           |
|  \\    /   O peration     | Version:  v1912                                 |
|   \\  /    A nd           | Website:  www.openfoam.com                      |
|    \\/     M anipulation  |                                                 |
\*---------------------------------------------------------------------------*/
FoamFile
{
    version     2.0;
    format      ascii;
    class       volScalarField;
    location    "490";
    object      p;
}
// * * * * * * * * * * * * * * * * * * * * * * * * * * * * * * * * * * * * * //

dimensions      [0 2 -2 0 0 0 0];


internalField   nonuniform List<scalar> 
3754
(
-0.00649644
-0.00646892
-0.0062554
-0.00642371
-0.00622886
-0.00601261
-0.00638389
-0.00618258
-0.0059873
-0.0057845
-0.00635626
-0.00614212
-0.00594464
-0.00576032
-0.00556056
-0.00634725
-0.00611169
-0.00590748
-0.00571705
-0.00553702
-0.0053437
-0.00636581
-0.00609849
-0.00587623
-0.00567687
-0.00549596
-0.00532006
-0.00513676
-0.00642177
-0.00610901
-0.00585765
-0.00564534
-0.00546056
-0.00527986
-0.00511376
-0.00493435
-0.00651702
-0.00615105
-0.00586039
-0.00562785
-0.00543243
-0.00524534
-0.00507365
-0.00491213
-0.00473826
-0.00665313
-0.00623003
-0.00589009
-0.00563082
-0.0054161
-0.00521746
-0.00503829
-0.00487349
-0.00471688
-0.0045498
-0.00682548
-0.00634766
-0.00594877
-0.00565784
-0.0054196
-0.00520415
-0.00501106
-0.0048408
-0.00467881
-0.00452754
-0.00436752
-0.00701576
-0.00650456
-0.00603155
-0.00571025
-0.00544902
-0.00521165
-0.00499868
-0.00481607
-0.00464468
-0.00449075
-0.00434661
-0.00418646
-0.00717963
-0.00670993
-0.0061368
-0.00578867
-0.00550885
-0.00524366
-0.00500754
-0.00480369
-0.00462003
-0.00446127
-0.00430984
-0.00416616
-0.00401301
-0.00726355
-0.00694283
-0.00728403
-0.00626205
-0.00589083
-0.00559848
-0.00530459
-0.00504231
-0.00481194
-0.00461043
-0.00443725
-0.00427646
-0.00413086
-0.00399348
-0.00384164
-0.00731141
-0.00723655
-0.00641663
-0.00687521
-0.00726452
-0.00601383
-0.00571296
-0.00539427
-0.00510517
-0.00484556
-0.0046201
-0.00442516
-0.00425315
-0.00410219
-0.00395855
-0.00382322
-0.00367619
-0.00737529
-0.00746318
-0.00662687
-0.00616479
-0.00648389
-0.00697275
-0.00726594
-0.00725884
-0.00584358
-0.00550996
-0.00519584
-0.00490798
-0.00465556
-0.00443457
-0.0042451
-0.00408066
-0.00392859
-0.00379013
-0.003657
-0.00351792
-0.00740628
-0.00718069
-0.00781302
-0.00668791
-0.00639753
-0.00598616
-0.00625265
-0.00658693
-0.00692484
-0.00701681
-0.00720696
-0.00731044
-0.00564545
-0.00530918
-0.0049986
-0.00471932
-0.00446984
-0.00425537
-0.00407198
-0.00390694
-0.00376299
-0.00362465
-0.00350031
-0.00335725
-0.00745284
-0.00676205
-0.00835634
-0.00682345
-0.00674036
-0.00647964
-0.00617144
-0.00578578
-0.00604312
-0.00634765
-0.00663813
-0.00671399
-0.00689451
-0.0065056
-0.00732274
-0.00737914
-0.00544033
-0.00511358
-0.00480887
-0.00453179
-0.00429041
-0.00408235
-0.00389839
-0.00374303
-0.00359856
-0.00346739
-0.00333979
-0.00320538
-0.00684757
-0.00908733
-0.00685439
-0.00680933
-0.0065775
-0.00650491
-0.00624416
-0.0059545
-0.0055824
-0.00583344
-0.00612499
-0.0063735
-0.00645091
-0.00669376
-0.0067498
-0.00524386
-0.00491788
-0.00462025
-0.00435228
-0.00411582
-0.00390947
-0.00373592
-0.00358025
-0.00344076
-0.00331006
-0.00318801
-0.00305262
-0.00660912
-0.00654569
-0.00633444
-0.00626295
-0.00602226
-0.00574645
-0.00538263
-0.00563351
-0.00591321
-0.006152
-0.00621714
-0.00641769
-0.00647735
-0.00504394
-0.00473266
-0.00443938
-0.00417463
-0.00394475
-0.00374771
-0.00357497
-0.00342412
-0.00328676
-0.00315674
-0.0030365
-0.00290187
-0.00636678
-0.00629749
-0.00610166
-0.00604886
-0.00581209
-0.00554161
-0.00518181
-0.0054346
-0.00571118
-0.00594327
-0.00600302
-0.00618672
-0.00625264
-0.00486007
-0.00454582
-0.00425947
-0.00400582
-0.00378058
-0.00358695
-0.00342032
-0.00327043
-0.00313221
-0.00300771
-0.00288749
-0.00276011
-0.00613459
-0.00608266
-0.0058926
-0.00583904
-0.00560955
-0.00534139
-0.00499362
-0.00523625
-0.00550642
-0.00574114
-0.00579599
-0.00597592
-0.00604044
-0.0046671
-0.00436632
-0.00408942
-0.00383811
-0.00362153
-0.00343375
-0.0032682
-0.00311792
-0.00298542
-0.00285984
-0.0027437
-0.00261626
-0.00592923
-0.00587178
-0.00568667
-0.00564193
-0.00541283
-0.00514412
-0.00479884
-0.00504774
-0.00530766
-0.00553451
-0.00559283
-0.00577598
-0.0058304
-0.004489
-0.00419307
-0.00392081
-0.00367837
-0.0034685
-0.00328458
-0.00311844
-0.00297214
-0.00283826
-0.00271459
-0.0026022
-0.0024758
-0.00572114
-0.00567762
-0.00549184
-0.0054377
-0.00521226
-0.00495079
-0.00461966
-0.00485468
-0.00511606
-0.00534111
-0.00538912
-0.00557017
-0.005626
-0.00431152
-0.00402354
-0.00375663
-0.00352499
-0.00332043
-0.00313764
-0.00297428
-0.00282662
-0.00269333
-0.00257465
-0.00246129
-0.00233959
-0.00552523
-0.00546981
-0.00528956
-0.00524006
-0.00502106
-0.0047649
-0.00443764
-0.00467288
-0.00492487
-0.00514315
-0.00519743
-0.00537629
-0.00542424
-0.00414003
-0.00385613
-0.00360306
-0.00337784
-0.00317875
-0.00299639
-0.00282912
-0.00268047
-0.00255272
-0.00243421
-0.00232624
-0.00220521
-0.00532153
-0.00527324
-0.00509848
-0.00504916
-0.00482991
-0.00458104
-0.00426536
-0.00449319
-0.00474002
-0.00495874
-0.00499815
-0.00517652
-0.00523223
-0.00397158
-0.00369878
-0.00345433
-0.00323895
-0.00303999
-0.0028522
-0.00268398
-0.0025399
-0.00241277
-0.0023002
-0.00219222
-0.00207298
-0.00512911
-0.00508745
-0.00490356
-0.00485871
-0.00464581
-0.00440292
-0.0040949
-0.00432065
-0.00456038
-0.00476991
-0.00481542
-0.00499096
-0.00502678
-0.00380988
-0.00354703
-0.00331552
-0.00310401
-0.00290098
-0.00270836
-0.00254072
-0.0024
-0.00228078
-0.00216681
-0.00206025
-0.00194273
-0.00493678
-0.00489323
-0.00472092
-0.00467365
-0.00446589
-0.0042318
-0.00393123
-0.00414934
-0.00438538
-0.00459069
-0.00463074
-0.00480056
-0.00484572
-0.00365364
-0.00340439
-0.00318462
-0.00297361
-0.00275719
-0.00256192
-0.00240028
-0.0022689
-0.00214865
-0.00203627
-0.00193107
-0.00181698
-0.00475757
-0.00470501
-0.00454062
-0.0044928
-0.00429707
-0.0040628
-0.00377138
-0.00398672
-0.00421127
-0.00441177
-0.00445565
-0.00462329
-0.00465687
-0.00350483
-0.00327521
-0.00306452
-0.00283342
-0.00260703
-0.00241774
-0.00226867
-0.0021384
-0.00201937
-0.00190784
-0.00180588
-0.00169068
-0.00457697
-0.00452239
-0.00436828
-0.00432429
-0.00412607
-0.00390139
-0.00361901
-0.00382873
-0.0040476
-0.00423867
-0.00428369
-0.00444345
-0.00448194
-0.00336962
-0.0031599
-0.00293468
-0.002679
-0.00245524
-0.00228433
-0.00214149
-0.00201095
-0.00189155
-0.00178385
-0.00167959
-0.00156766
-0.00440389
-0.0043515
-0.00419325
-0.0041551
-0.00396313
-0.00374216
-0.00347298
-0.00368054
-0.00388882
-0.00407664
-0.00411297
-0.00427218
-0.00431346
-0.00324769
-0.00305653
-0.00277861
-0.00251363
-0.00231729
-0.00215985
-0.0020162
-0.00188646
-0.00177029
-0.00165824
-0.00155758
-0.00144177
-0.00422375
-0.00418344
-0.00403068
-0.00398885
-0.00380498
-0.00359102
-0.00333357
-0.00353798
-0.00373618
-0.00391594
-0.00395534
-0.00410917
-0.00413996
-0.00317075
-0.00290919
-0.00258937
-0.00236662
-0.00219614
-0.00203952
-0.00189553
-0.0017664
-0.00164721
-0.00153724
-0.00143369
-0.00131763
-0.00406098
-0.00401531
-0.00386984
-0.00383415
-0.00365624
-0.00344487
-0.0032387
-0.00340341
-0.00359002
-0.00376533
-0.00379506
-0.00394635
-0.00398463
-0.00307647
-0.00268083
-0.00242962
-0.00224953
-0.00208146
-0.00192242
-0.00177773
-0.00164746
-0.00152613
-0.00141559
-0.00130938
-0.00119433
-0.00389956
-0.00386142
-0.00371914
-0.00368416
-0.00351403
-0.00331299
-0.00325418
-0.00328054
-0.00345159
-0.00361855
-0.00364882
-0.00379722
-0.00381991
-0.00279457
-0.00250003
-0.00231808
-0.0021417
-0.00196791
-0.00180777
-0.00166247
-0.00152789
-0.00140763
-0.00129223
-0.00118792
-0.00106904
-0.00374772
-0.00370875
-0.00357595
-0.00354919
-0.0033755
-0.00327177
-0.00292334
-0.00338963
-0.003285
-0.00348488
-0.00350614
-0.00364738
-0.00367492
-0.00257735
-0.00240086
-0.00221881
-0.0020314
-0.00185623
-0.00169525
-0.00154694
-0.00141281
-0.00128751
-0.00117316
-0.00106476
-0.000942685
-0.00360476
-0.00357429
-0.00344103
-0.0034214
-0.00322318
-0.00308848
-0.00268294
-0.00289037
-0.00360812
-0.00334901
-0.00336034
-0.00350931
-0.00353552
-0.00249116
-0.00230931
-0.0021102
-0.00192268
-0.00174818
-0.00158552
-0.001435
-0.00129758
-0.00117099
-0.00105139
-0.000938449
-0.000815103
-0.00347352
-0.00344584
-0.00324565
-0.00318678
-0.0031339
-0.00285637
-0.00259197
-0.00277437
-0.00293021
-0.00396271
-0.00304362
-0.00338324
-0.00341019
-0.002408
-0.00220057
-0.00200321
-0.00181805
-0.00164265
-0.00147793
-0.00132636
-0.00118281
-0.00105135
-0.000926554
-0.000813568
-0.00068531
-0.00332539
-0.00323091
-0.00286178
-0.00304388
-0.00291768
-0.0027333
-0.00250503
-0.00265397
-0.00284906
-0.00299882
-0.00303983
-0.00462053
-0.0030864
-0.00229929
-0.00209348
-0.00190101
-0.00171491
-0.00153938
-0.0013738
-0.00121477
-0.00106945
-0.000930913
-0.000804587
-0.000684847
-0.000550119
-0.00299728
-0.0029518
-0.00278463
-0.00261482
-0.00239753
-0.00254335
-0.00271382
-0.00286744
-0.00291948
-0.00218838
-0.00199187
-0.00179926
-0.00161598
-0.00143952
-0.00126889
-0.00110866
-0.000954482
-0.0008126
-0.000678174
-0.000552316
-0.000412786
-0.00283683
-0.00279874
-0.00265878
-0.00250041
-0.00228632
-0.00243577
-0.00259854
-0.00273261
-0.00276895
-0.00208631
-0.00189043
-0.00170266
-0.00152031
-0.00134162
-0.00116938
-0.00100011
-0.000840014
-0.000689861
-0.000548234
-0.00041731
-0.000270255
-0.00270417
-0.00267535
-0.00254385
-0.00238861
-0.00218231
-0.0023277
-0.00248901
-0.00262188
-0.00265278
-0.001985
-0.00179366
-0.0016084
-0.00142733
-0.00124817
-0.00106805
-0.000892798
-0.000724082
-0.000564788
-0.000416244
-0.000277329
-0.000123824
-0.00259161
-0.00256262
-0.00243328
-0.00228253
-0.00207869
-0.0022238
-0.00237912
-0.00250886
-0.00253845
-0.001886
-0.00169973
-0.00152023
-0.00133831
-0.00115572
-0.000970395
-0.000785704
-0.000606369
-0.000437594
-0.000279632
-0.000133082
3.04524e-05
-0.00248087
-0.0024536
-0.00232829
-0.00217514
-0.00197875
-0.00212099
-0.00227416
-0.00240003
-0.00243019
-0.00179211
-0.00161356
-0.00143337
-0.00125407
-0.00106652
-0.000871861
-0.000677117
-0.000486845
-0.000306937
-0.000137844
1.7575e-05
0.000190041
-0.00237323
-0.00234809
-0.00222037
-0.00207393
-0.00188262
-0.00202148
-0.0021683
-0.00230076
-0.00232176
-0.00170371
-0.00152776
-0.0013556
-0.00117261
-0.000977839
-0.000774627
-0.00056726
-0.000363966
-0.000170465
8.32078e-06
0.000175172
0.000356488
-0.00226687
-0.00224093
-0.00211937
-0.00197478
-0.00179202
-0.00192536
-0.00206826
-0.00218869
-0.00221601
-0.00161812
-0.00145231
-0.00127974
-0.00109343
-0.000891013
-0.000677239
-0.000455582
-0.000238131
-3.06361e-05
0.000162605
0.0003393
0.000529993
-0.00216521
-0.00213812
-0.00201851
-0.001881
-0.00170342
-0.00183293
-0.00197233
-0.00208888
-0.00211408
-0.00154176
-0.00138161
-0.00120774
-0.00101523
-0.000805938
-0.000579188
-0.000343789
-0.000107347
0.000116403
0.000323707
0.000513342
0.000707843
-0.00206297
-0.00203776
-0.00192279
-0.00178961
-0.00162374
-0.00174383
-0.00187802
-0.00199361
-0.00201869
-0.0014729
-0.00131556
-0.00113684
-0.000940654
-0.000722949
-0.000481914
-0.000226451
2.92932e-05
0.000271809
0.000493689
0.000698056
0.000903637
-0.00196614
-0.0019417
-0.00183153
-0.00170384
-0.0015538
-0.00165923
-0.00178792
-0.0018968
-0.00192227
-0.00141181
-0.00124926
-0.00106795
-0.000870951
-0.000640991
-0.000382454
-0.00010432
0.000171923
0.000433567
0.000679531
0.000900178
0.00108678
-0.00187322
-0.00185087
-0.00174328
-0.00162215
-0.00149154
-0.00158563
-0.00170043
-0.00180899
-0.00182884
-0.00135066
-0.00118015
-0.00100828
-0.000803484
-0.000560122
-0.00028033
2.04789e-05
0.00032264
0.000616264
0.000869336
0.00118484
0.000448269
-0.00178405
-0.00176379
-0.00165591
-0.00157449
-0.00143072
-0.0016428
-0.00160042
-0.00172505
-0.00174404
-0.00127792
-0.0011252
-0.000952226
-0.000740152
-0.000479485
-0.000174894
0.000153557
0.000492288
0.000784823
0.00120316
0.000540232
-0.00170097
-0.00168182
-0.00153708
-0.00149362
-0.00136146
-0.00145759
-0.00233693
-0.00184619
-0.00163826
-0.00166015
-0.00122149
-0.00107608
-0.000902794
-0.000678418
-0.000396451
-6.60636e-05
0.000301915
0.000638705
0.00111625
0.000570468
-0.00161565
-0.00159877
-0.000838096
-0.00164156
-0.00156312
-0.00142979
-0.00130087
-0.00139598
-0.00152757
-0.00148975
-0.00156263
-0.00117377
-0.00103582
-0.000856998
-0.000618735
-0.000313437
5.67305e-05
0.000426897
0.000943479
0.000512922
-0.00141957
-0.00162498
-0.00158566
-0.00147117
-0.00144434
-0.00136501
-0.00125097
-0.00133782
-0.00143282
-0.00140922
-0.00155076
-0.00151816
-0.00162559
-0.0011373
-0.00100055
-0.000816472
-0.000559166
-0.000219853
0.000158376
0.00068908
0.000396409
-0.00164967
-0.00161175
-0.0014897
-0.00146355
-0.00139612
-0.00138082
-0.00131053
-0.00121268
-0.00128935
-0.00136813
-0.00135324
-0.00144838
-0.00142773
-0.00157243
-0.00154144
-0.00110647
-0.000974395
-0.000777273
-0.00049508
-0.000141885
0.000366694
0.00023963
-0.00150484
-0.00148072
-0.00141103
-0.00139932
-0.00134145
-0.0013272
-0.00126588
-0.00118264
-0.00124921
-0.00131751
-0.00130637
-0.00138315
-0.00136949
-0.00146191
-0.001444
-0.00108789
-0.000950574
-0.000738778
-0.00043801
6.38803e-06
6.09132e-05
-0.00142593
-0.00141432
-0.00135709
-0.00134296
-0.00129287
-0.00128192
-0.00123062
-0.00116371
-0.00121886
-0.00127564
-0.00126358
-0.00133352
-0.00132192
-0.00139776
-0.00138468
-0.00107398
-0.000932721
-0.000698675
-0.000351634
-0.000120206
-0.00137102
-0.00135743
-0.00130827
-0.00129704
-0.0012537
-0.00124737
-0.00120432
-0.001153
-0.00119921
-0.00124084
-0.00123247
-0.00128877
-0.00127885
-0.00134829
-0.00133457
-0.00107212
-0.000905216
-0.000668083
-0.000285078
-0.00132525
-0.00131068
-0.00126653
-0.00126178
-0.00122655
-0.0012192
-0.00118772
-0.00115931
-0.00118875
-0.00121753
-0.00121253
-0.00125178
-0.00124653
-0.00130021
-0.00129199
-0.00105978
-0.00091939
-0.000419816
-0.0012797
-0.0012725
-0.00123853
-0.001232
-0.00120618
-0.00120215
-0.00118508
-0.00116686
-0.00119502
-0.00120408
-0.00119877
-0.00122748
-0.00122452
-0.0012632
-0.00125932
-0.00110883
-0.000521381
-0.00124898
-0.00124321
-0.00121788
-0.00121432
-0.00119551
-0.00120004
-0.00119273
-0.0012674
-0.00120149
-0.00120035
-0.00120432
-0.00121186
-0.00120822
-0.00123798
-0.0012336
-0.000594476
-0.00122971
-0.00122442
-0.00120603
-0.00120713
-0.00120201
-0.00120924
-0.00123475
-0.000707417
-0.00130819
-0.00120826
-0.00121197
-0.0012082
-0.00120854
-0.00121907
-0.00121704
-0.00121439
-0.00121283
-0.00120948
-0.00121386
-0.00122305
-0.00124053
-0.00134592
-0.000661342
-0.00127279
-0.00129692
-0.00121482
-0.00121807
-0.00121565
-0.00121428
-0.00121504
-0.00121655
-0.00123009
-0.00124345
-0.00133155
-0.00140554
-0.00136616
-0.000562901
-0.00126998
-0.00129327
-0.00121771
-0.00122019
-0.00122896
-0.00124114
-0.00131884
-0.00142
-0.0015224
-0.00057833
-0.00126467
-0.00129049
-0.00131826
-0.0014115
-0.00165949
-0.000726486
-0.0962357
-0.096087
-0.0952662
-0.0953216
-0.0959249
-0.0957683
-0.0952087
-0.0952223
-0.0955486
-0.096
-0.0959644
-0.0960763
-0.0950026
-0.0952892
-0.0950442
-0.0955241
-0.0963081
-0.0963658
-0.0961655
-0.0963183
-0.0947947
-0.0950913
-0.0948319
-0.0954153
-0.0950336
-0.0971353
-0.096444
-0.0967884
-0.0963798
-0.0965866
-0.0945548
-0.0948623
-0.0946029
-0.0955659
-0.09451
-0.0946108
-0.0973102
-0.0972399
-0.0965868
-0.0966225
-0.0968459
-0.0968128
-0.094356
-0.0946563
-0.0943943
-0.0957086
-0.0946813
-0.0936515
-0.0941701
-0.0944369
-0.0974752
-0.0970656
-0.0967315
-0.0970156
-0.0941511
-0.0941988
-0.0958505
-0.0948355
-0.0938167
-0.092791
-0.0933797
-0.0937502
-0.094015
-0.0942354
-0.0976274
-0.0968728
-0.0939387
-0.0939818
-0.0959911
-0.0949802
-0.0939729
-0.0929544
-0.0919298
-0.0924629
-0.0928955
-0.0934327
-0.0934775
-0.0936061
-0.0938038
-0.0977705
-0.0970115
-0.0937108
-0.0937568
-0.0961316
-0.0951226
-0.0941202
-0.0931137
-0.0920956
-0.0910839
-0.0916053
-0.0920335
-0.092381
-0.092756
-0.092793
-0.0933604
-0.0935597
-0.0979083
-0.0971484
-0.093526
-0.0962722
-0.0952661
-0.0942655
-0.0932658
-0.0922588
-0.0912467
-0.0902946
-0.0907488
-0.0911673
-0.0915276
-0.0919528
-0.092225
-0.0924394
-0.0928313
-0.0926267
-0.0929855
-0.0933293
-0.0980421
-0.0972774
-0.0964057
-0.0954112
-0.0944132
-0.0934163
-0.0924164
-0.0914096
-0.0904274
-0.0893894
-0.0899408
-0.0904263
-0.0906401
-0.0910729
-0.0913699
-0.0915834
-0.0919935
-0.0917873
-0.098167
-0.097382
-0.0965142
-0.0955498
-0.0945635
-0.0935698
-0.0925733
-0.0915716
-0.0905739
-0.0895584
-0.0885025
-0.0890368
-0.0894894
-0.0898434
-0.0904337
-0.090443
-0.090675
-0.0911298
-0.0909161
-0.0982681
-0.0974221
-0.0965534
-0.0956617
-0.0947075
-0.0937268
-0.0927341
-0.091735
-0.0907329
-0.0897205
-0.0886806
-0.0876134
-0.0881605
-0.0886136
-0.0889573
-0.0893764
-0.0896149
-0.0897969
-0.0902161
-0.0904406
-0.0983081
-0.0973217
-0.0964419
-0.0956985
-0.0948226
-0.0938769
-0.0928986
-0.0919038
-0.0909002
-0.0898866
-0.0888557
-0.0877946
-0.0867057
-0.0872702
-0.0877281
-0.0880856
-0.0885291
-0.0887962
-0.0890264
-0.0894298
-0.0892087
-0.0896084
-0.089697
-0.090624
-0.0982163
-0.0969549
-0.0960453
-0.0955738
-0.0948567
-0.0939948
-0.0930551
-0.0920767
-0.0910765
-0.0900622
-0.0890327
-0.0879793
-0.0868929
-0.0857718
-0.0863572
-0.0868227
-0.0871936
-0.087645
-0.0879199
-0.0881457
-0.0885815
-0.0883567
-0.0887594
-0.0889852
-0.0893886
-0.0891841
-0.0978747
-0.0961348
-0.0951644
-0.0951422
-0.0947155
-0.0940238
-0.0931756
-0.0922401
-0.0912584
-0.0902485
-0.0892193
-0.0881687
-0.0870884
-0.0859681
-0.0848214
-0.0854152
-0.085893
-0.0862777
-0.0867383
-0.0870238
-0.0872515
-0.0876935
-0.0874695
-0.0878794
-0.0881004
-0.0885334
-0.0883192
-0.0971086
-0.0946259
-0.0935512
-0.0941923
-0.0942429
-0.0938616
-0.093198
-0.0923622
-0.091429
-0.0904404
-0.0894176
-0.0883689
-0.0872913
-0.0861774
-0.0850245
-0.08388
-0.084436
-0.0849328
-0.0853323
-0.085809
-0.0861033
-0.0863379
-0.0867899
-0.0865602
-0.0869806
-0.087206
-0.0876446
-0.0874298
-0.0956944
-0.0921959
-0.0909646
-0.0924646
-0.0932151
-0.093342
-0.0930115
-0.0923751
-0.091552
-0.0906184
-0.0896207
-0.0885814
-0.087507
-0.0863967
-0.0852449
-0.0840713
-0.082835
-0.0835044
-0.083975
-0.0843368
-0.0848417
-0.0851601
-0.0853958
-0.085863
-0.0856305
-0.0860594
-0.0862918
-0.0867435
-0.0865174
-0.0934104
-0.0886986
-0.0872557
-0.0897087
-0.0913607
-0.0922272
-0.0924358
-0.0921575
-0.0915524
-0.090741
-0.0898061
-0.0887967
-0.0877358
-0.0866306
-0.0854815
-0.0842922
-0.0830578
-0.0817251
-0.082392
-0.0829747
-0.0834763
-0.083896
-0.0841554
-0.0844075
-0.0849066
-0.0846676
-0.0851151
-0.0853512
-0.085816
-0.0855866
-0.0901152
-0.0841497
-0.0824468
-0.0857756
-0.0884222
-0.0902329
-0.09122
-0.0915168
-0.0912978
-0.0907254
-0.0899267
-0.0889894
-0.0879645
-0.0868777
-0.0857355
-0.0845432
-0.0833006
-0.0819859
-0.0805708
-0.0812824
-0.0818681
-0.0822841
-0.0828456
-0.083157
-0.0836551
-0.0839123
-0.0836751
-0.0840981
-0.0843669
-0.0848629
-0.0846244
-0.0858181
-0.0787497
-0.0767568
-0.0806992
-0.0842531
-0.0870959
-0.0890704
-0.0901892
-0.0905822
-0.0904263
-0.08989
-0.0891056
-0.0881641
-0.0871207
-0.0860022
-0.0848178
-0.0835727
-0.0822633
-0.0808578
-0.079448
-0.0801139
-0.0807248
-0.0811845
-0.0817522
-0.0820846
-0.0823713
-0.0828927
-0.0826
-0.0829319
-0.0838293
-0.083809
-0.0834009
-0.080705
-0.0728235
-0.0705319
-0.0747172
-0.0789009
-0.0826773
-0.0857207
-0.0878689
-0.0891264
-0.0896237
-0.0895378
-0.0890418
-0.0882726
-0.0873263
-0.0862604
-0.0851056
-0.0838719
-0.0825649
-0.0811763
-0.0796893
-0.0780582
-0.0791564
-0.0796114
-0.0799984
-0.0806053
-0.0809806
-0.0812778
-0.0818312
-0.0815409
-0.0820502
-0.082318
-0.0827828
-0.0825564
-0.082886
-0.0840914
-0.0750799
-0.0667413
-0.0641678
-0.0681987
-0.0726255
-0.0770421
-0.0810407
-0.0842887
-0.0866167
-0.0880238
-0.088635
-0.0886262
-0.0881747
-0.0874232
-0.0864707
-0.0853792
-0.0841826
-0.0828935
-0.0815158
-0.080037
-0.0784348
-0.0775888
-0.0766497
-0.0781512
-0.0794079
-0.0798185
-0.0801138
-0.0806987
-0.0803938
-0.0809417
-0.0812286
-0.0817838
-0.081504
-0.0820098
-0.0822716
-0.0827592
-0.082528
-0.0692889
-0.0608709
-0.0580574
-0.061566
-0.06582
-0.0704736
-0.0751156
-0.0793328
-0.0827889
-0.0853061
-0.0868736
-0.0876067
-0.0876833
-0.0872831
-0.0865511
-0.0855922
-0.0844719
-0.083229
-0.0818784
-0.0804189
-0.0788313
-0.0770882
-0.076258
-0.0771755
-0.0778882
-0.0751386
-0.0783925
-0.0796202
-0.0795575
-0.0797613
-0.0800683
-0.0806553
-0.0803584
-0.0808961
-0.0811729
-0.0817305
-0.0814626
-0.0636743
-0.0555595
-0.0525693
-0.0552358
-0.0589347
-0.0633918
-0.0682566
-0.0731127
-0.077546
-0.0812137
-0.083928
-0.0856633
-0.0865305
-0.0867033
-0.0863591
-0.0856497
-0.0846846
-0.0835337
-0.08224
-0.0808197
-0.0792646
-0.0775552
-0.0756512
-0.0747065
-0.0757319
-0.0764804
-0.0769336
-0.0772938
-0.0776559
-0.0780103
-0.0735506
-0.0783296
-0.0786442
-0.0784874
-0.0793948
-0.0797198
-0.0800215
-0.0806025
-0.0803184
-0.0585607
-0.0511182
-0.0480254
-0.0495981
-0.0524088
-0.0562718
-0.0609105
-0.0659684
-0.0710272
-0.075672
-0.0795524
-0.0824689
-0.0843849
-0.0853989
-0.0856744
-0.0853942
-0.0847118
-0.0837412
-0.0825589
-0.0812091
-0.0797101
-0.0780489
-0.0761974
-0.0741247
-0.0730716
-0.0741285
-0.0749456
-0.0754491
-0.075858
-0.0762147
-0.0765624
-0.0719307
-0.0788524
-0.0793703
-0.0542471
-0.0477601
-0.0446304
-0.0449813
-0.0466516
-0.0495775
-0.0535787
-0.058374
-0.0636047
-0.0688531
-0.0737009
-0.0777941
-0.0809202
-0.0830271
-0.0841957
-0.0845878
-0.0843795
-0.0837283
-0.0827551
-0.0815399
-0.0801289
-0.0785418
-0.0767591
-0.0747475
-0.0725054
-0.0715349
-0.0723964
-0.073237
-0.0738421
-0.0742677
-0.0746613
-0.0750343
-0.0699976
-0.0509498
-0.045532
-0.0424112
-0.0415804
-0.0419954
-0.0437348
-0.046748
-0.0508574
-0.0557818
-0.0611633
-0.0665835
-0.0716261
-0.0759293
-0.0792702
-0.0815753
-0.0829129
-0.0834307
-0.0833031
-0.0826906
-0.0817168
-0.0804674
-0.0789905
-0.077302
-0.0753799
-0.0731891
-0.0707092
-0.0693505
-0.0706037
-0.0718576
-0.0719753
-0.0724802
-0.0729515
-0.0733741
-0.0678894
-0.0487357
-0.0443001
-0.04121
-0.039397
-0.0386185
-0.0390741
-0.0408569
-0.0439257
-0.0481111
-0.0531351
-0.0586415
-0.0642151
-0.0694398
-0.0739503
-0.077506
-0.0800191
-0.0815346
-0.0821906
-0.0821546
-0.0815866
-0.0806161
-0.0793314
-0.0777802
-0.0759734
-0.073891
-0.0714875
-0.0687363
-0.0671326
-0.0684398
-0.0695217
-0.0700669
-0.0705786
-0.07175
-0.0714825
-0.0655834
-0.0474964
-0.0438103
-0.0407531
-0.0382451
-0.0364934
-0.0357522
-0.0362276
-0.0380255
-0.041118
-0.0453451
-0.0504363
-0.0560398
-0.0617449
-0.067137
-0.0718446
-0.0756178
-0.0783425
-0.0800481
-0.0808536
-0.0809185
-0.0804039
-0.0794388
-0.0781151
-0.0764799
-0.074537
-0.0722677
-0.0696276
-0.066566
-0.0647194
-0.0661556
-0.067355
-0.0680391
-0.068607
-0.069096
-0.0696202
-0.0700331
-0.0704064
-0.0721204
-0.0630453
-0.0469939
-0.0437792
-0.0407479
-0.0378311
-0.0354047
-0.0337068
-0.0329894
-0.0334649
-0.0352505
-0.0383327
-0.0425664
-0.0476903
-0.0533604
-0.059171
-0.0647115
-0.0696071
-0.0735915
-0.0765345
-0.0784376
-0.0794023
-0.0795804
-0.079125
-0.0781683
-0.0768009
-0.0750681
-0.0729697
-0.0704903
-0.0675809
-0.0641738
-0.0620523
-0.0636163
-0.0649365
-0.0656821
-0.066312
-0.0668943
-0.0674809
-0.067947
-0.0685152
-0.0690043
-0.0695005
-0.0602463
-0.0469534
-0.0439682
-0.0409525
-0.0378529
-0.0350389
-0.0326927
-0.031044
-0.0303395
-0.0307964
-0.0325418
-0.0355804
-0.0397839
-0.0449041
-0.050607
-0.0564948
-0.0621615
-0.0672291
-0.0714203
-0.0745797
-0.0766865
-0.0778225
-0.0781211
-0.0777325
-0.0767842
-0.075366
-0.0735197
-0.0712498
-0.0685305
-0.0653177
-0.0615324
-0.0591043
-0.0608009
-0.0622521
-0.0630728
-0.0637668
-0.0644118
-0.065057
-0.0655599
-0.0661949
-0.0667641
-0.0673346
-0.0571565
-0.0471358
-0.0442176
-0.0412094
-0.0380693
-0.0350882
-0.0323804
-0.030116
-0.0285125
-0.0278119
-0.0282307
-0.0299097
-0.032872
-0.0370084
-0.0420869
-0.0477862
-0.0537194
-0.0594859
-0.0647068
-0.0690914
-0.0724646
-0.0747807
-0.0760924
-0.0765213
-0.0762038
-0.0752625
-0.0737834
-0.0718108
-0.0693486
-0.0663627
-0.0628063
-0.0586087
-0.0558492
-0.0576853
-0.0592854
-0.0601816
-0.0609467
-0.0616631
-0.0623671
-0.0629253
-0.0636317
-0.0642575
-0.0648929
-0.0537525
-0.0473757
-0.0451844
-0.0436468
-0.0421387
-0.0383275
-0.040661
-0.0353146
-0.0324581
-0.0298601
-0.0276781
-0.0261174
-0.0254103
-0.0257756
-0.0273654
-0.0302213
-0.0342527
-0.0392498
-0.0449074
-0.0508504
-0.0566863
-0.0620359
-0.0665989
-0.0701787
-0.0727009
-0.0741952
-0.0747585
-0.0745144
-0.0735757
-0.0720275
-0.0699142
-0.0672354
-0.0639543
-0.0600185
-0.0553745
-0.0522636
-0.0542462
-0.0560029
-0.0569834
-0.057823
-0.0586199
-0.0593961
-0.0600134
-0.0607822
-0.061489
-0.0621773
-0.0500147
-0.0483551
-0.0467625
-0.0456326
-0.0448685
-0.044145
-0.0433665
-0.0425667
-0.0418327
-0.0392168
-0.0355722
-0.0378019
-0.0411375
-0.0403902
-0.0326933
-0.0299651
-0.0274799
-0.0253814
-0.0238608
-0.0231421
-0.0234422
-0.0249216
-0.0276388
-0.0315304
-0.0364067
-0.0419821
-0.0478963
-0.0537673
-0.0592174
-0.0639376
-0.0677098
-0.0704347
-0.0721094
-0.0728092
-0.072637
-0.0716976
-0.0700709
-0.0677968
-0.064878
-0.0612709
-0.0569216
-0.0518104
-0.0483323
-0.0504658
-0.0523882
-0.0534478
-0.0543796
-0.0552514
-0.0561107
-0.056777
-0.0576365
-0.0584124
-0.0591777
-0.0459484
-0.0480295
-0.0472787
-0.0464709
-0.0456355
-0.0448945
-0.0442136
-0.0434532
-0.0425688
-0.041857
-0.0396255
-0.0389226
-0.0364214
-0.0329481
-0.0350714
-0.0382567
-0.0375416
-0.0412025
-0.0404722
-0.0302071
-0.0276108
-0.0252409
-0.0232268
-0.0217473
-0.0210124
-0.0212358
-0.022586
-0.02514
-0.028857
-0.033573
-0.0390242
-0.0448695
-0.0507366
-0.0562539
-0.0611041
-0.0650503
-0.067966
-0.0698162
-0.0706489
-0.0705453
-0.0695987
-0.0678796
-0.0654284
-0.0622413
-0.0582793
-0.0534981
-0.0478983
-0.0441011
-0.0463223
-0.0484196
-0.0495708
-0.0505842
-0.0515426
-0.0524877
-0.0532084
-0.0541589
-0.0550121
-0.0558652
-0.0415693
-0.0480585
-0.0473531
-0.046564
-0.0396278
-0.0389458
-0.0368111
-0.0361396
-0.0337561
-0.0304576
-0.0324724
-0.0355037
-0.0348219
-0.0383183
-0.037619
-0.0278575
-0.0253953
-0.0231421
-0.0212156
-0.019776
-0.0190231
-0.0191633
-0.0203703
-0.0227377
-0.0262488
-0.0307672
-0.0360519
-0.0417837
-0.0476058
-0.0531519
-0.0580998
-0.0621953
-0.0652834
-0.0672974
-0.0682547
-0.0682147
-0.0672503
-0.0654266
-0.0627759
-0.0592949
-0.0549587
-0.0497288
-0.0436371
-0.0396833
-0.0417966
-0.0440762
-0.0453334
-0.0464321
-0.047478
-0.0485104
-0.0492964
-0.0503223
-0.0512699
-0.0521997
-0.0368631
-0.0368136
-0.0361614
-0.0341261
-0.0334867
-0.0312231
-0.0281018
-0.0300068
-0.0328816
-0.0322337
-0.0355617
-0.0348943
-0.0256444
-0.0233174
-0.0211836
-0.0193447
-0.017948
-0.0171759
-0.0172293
-0.018283
-0.0204455
-0.0237234
-0.0280074
-0.0330836
-0.0386573
-0.0443898
-0.0499226
-0.0549308
-0.0591432
-0.0623792
-0.0645388
-0.0656097
-0.0656193
-0.0646271
-0.0626823
-0.0598111
-0.0560215
-0.051287
-0.045608
-0.039066
-0.0348164
-0.0372785
-0.0394374
-0.0406989
-0.0419002
-0.0430524
-0.0441733
-0.045012
-0.0461357
-0.0471626
-0.0481805
-0.0319027
-0.0341285
-0.0335069
-0.0315731
-0.0309663
-0.0288243
-0.0258811
-0.0276757
-0.0303924
-0.029779
-0.0329357
-0.0323008
-0.0235668
-0.021376
-0.0193611
-0.0176125
-0.0162593
-0.0154714
-0.0154366
-0.0163312
-0.0182755
-0.0212954
-0.0253125
-0.0301398
-0.0355115
-0.0411076
-0.0465813
-0.0516063
-0.0558983
-0.0592506
-0.0615328
-0.0626951
-0.0627434
-0.0617066
-0.0596228
-0.0565198
-0.0523982
-0.0472706
-0.041169
-0.0342429
-0.0296499
-0.0320433
-0.0346522
-0.0362338
-0.0370721
-0.0382021
-0.0393968
-0.0403246
-0.0415687
-0.0426981
-0.0438137
-0.0267563
-0.0315752
-0.0309846
-0.0291542
-0.02858
-0.0265602
-0.0237947
-0.0254791
-0.0280371
-0.0274584
-0.0304424
-0.0298408
-0.0216229
-0.0195672
-0.017672
-0.0160138
-0.0147078
-0.0139057
-0.0137858
-0.0145211
-0.0162369
-0.018982
-0.0227017
-0.0272443
-0.0323698
-0.037782
-0.0431483
-0.0481433
-0.0524706
-0.0559026
-0.058275
-0.0595091
-0.0595718
-0.0584733
-0.0562406
-0.0528871
-0.0484419
-0.0429371
-0.0364624
-0.0292205
-0.0243826
-0.0267846
-0.0293752
-0.0307167
-0.0320299
-0.0332656
-0.0346663
-0.036351
-0.0362033
-0.0376206
-0.0389544
-0.0215058
-0.0291561
-0.0285966
-0.0268698
-0.0263284
-0.0244304
-0.0218408
-0.0234162
-0.0258163
-0.0252723
-0.0280827
-0.0275147
-0.0198096
-0.0178877
-0.0161106
-0.0145439
-0.0132869
-0.0124764
-0.0122769
-0.012854
-0.01434
-0.0167958
-0.0201957
-0.0244198
-0.0292581
-0.034441
-0.0396497
-0.0445633
-0.0488787
-0.0523462
-0.0547749
-0.0560462
-0.0561036
-0.0549298
-0.0525298
-0.048934
-0.0441748
-0.0383297
-0.0315535
-0.0240678
-0.0190584
-0.021437
-0.0240773
-0.0254311
-0.0267715
-0.0280645
-0.0293758
-0.0302707
-0.0315667
-0.0327247
-0.0338585
-0.0366371
-0.0162666
-0.0268713
-0.0263431
-0.0247196
-0.0242107
-0.0224332
-0.0200167
-0.0214848
-0.0237295
-0.0232197
-0.0258576
-0.0253233
-0.0181234
-0.0163322
-0.0146716
-0.0131963
-0.0119913
-0.0111775
-0.0109062
-0.0113331
-0.0125885
-0.0147477
-0.0178119
-0.0216904
-0.0262061
-0.0311141
-0.036115
-0.0408959
-0.0451475
-0.0486036
-0.051045
-0.0523248
-0.0523519
-0.0510821
-0.048519
-0.0446823
-0.0396415
-0.033524
-0.0265075
-0.0189064
-0.013774
-0.0160579
-0.0186986
-0.0200262
-0.0213869
-0.0227125
-0.024046
-0.0249614
-0.0263228
-0.0276097
-0.028917
-0.0298273
-0.0311228
-0.0323456
-0.0333927
-0.0111675
-0.0247206
-0.0242236
-0.0227023
-0.0222256
-0.0205664
-0.0183189
-0.0196823
-0.0217747
-0.0212987
-0.0237665
-0.0232654
-0.0165597
-0.0148954
-0.0133488
-0.0119639
-0.0108129
-0.0100035
-0.00966951
-0.00995413
-0.0109846
-0.0128491
-0.0155671
-0.01908
-0.0232421
-0.027834
-0.0325802
-0.0371755
-0.0413109
-0.0447049
-0.0471178
-0.0483695
-0.0483406
-0.0469672
-0.0442356
-0.0401901
-0.0349204
-0.0285852
-0.0214422
-0.013862
-0.00868581
-0.0107756
-0.0133415