/*--------------------------------*- C++ -*----------------------------------*\
| =========                 |                                                 |
| \\      /  F ield         | OpenFOAM: The Open Source CFD Toolbox           |
|  \\    /   O peration     | Version:  v1912                                 |
|   \\  /    A nd           | Website:  www.openfoam.com                      |
|    \\/     M anipulation  |                                                 |
\*---------------------------------------------------------------------------*/
FoamFile
{
    version     2.0;
    format      ascii;
    class       volScalarField;
    location    "280";
    object      p;
}
// * * * * * * * * * * * * * * * * * * * * * * * * * * * * * * * * * * * * * //

dimensions      [0 2 -2 0 0 0 0];


internalField   nonuniform List<scalar> 
3754
(
-0.00647341
-0.00644563
-0.00623318
-0.00640019
-0.0062064
-0.00599119
-0.00636018
-0.0061599
-0.00596564
-0.00576383
-0.00633237
-0.00611925
-0.00592276
-0.00573942
-0.0055406
-0.0063232
-0.00608863
-0.00588542
-0.00569594
-0.00551683
-0.0053244
-0.00634165
-0.00607526
-0.00585398
-0.00565558
-0.00547557
-0.00530054
-0.00511809
-0.00639754
-0.00608564
-0.00583522
-0.00562386
-0.00543999
-0.00526015
-0.00509487
-0.00491626
-0.00649275
-0.00612759
-0.0058378
-0.00560619
-0.00541169
-0.00522546
-0.00505458
-0.00489384
-0.00472073
-0.00662883
-0.0062065
-0.00586738
-0.00560898
-0.00539516
-0.0051974
-0.00501906
-0.00485502
-0.00469916
-0.00453281
-0.00680116
-0.00632408
-0.00592594
-0.00563585
-0.00539847
-0.00518389
-0.00499165
-0.00482218
-0.00466093
-0.00451037
-0.00435107
-0.0069914
-0.00648094
-0.00600864
-0.00568812
-0.00542772
-0.0051912
-0.00497907
-0.00479728
-0.00462665
-0.00447343
-0.00432999
-0.00417055
-0.00715522
-0.00668626
-0.0061138
-0.00576642
-0.0054874
-0.00522303
-0.00498774
-0.0047847
-0.00460184
-0.00444382
-0.00429307
-0.00415007
-0.00399764
-0.00723884
-0.00691913
-0.00725976
-0.00623895
-0.00586846
-0.00557691
-0.0052838
-0.00502232
-0.00479276
-0.00459205
-0.00441965
-0.00425957
-0.00411464
-0.00397793
-0.0038268
-0.00728662
-0.00721267
-0.00639344
-0.00685157
-0.00724019
-0.00599134
-0.00569126
-0.00537334
-0.00508502
-0.0048262
-0.00460154
-0.00440739
-0.00423612
-0.00408586
-0.00394287
-0.0038082
-0.00366186
-0.00735056
-0.00743929
-0.00660347
-0.0061422
-0.00646076
-0.00694907
-0.00724165
-0.00723434
-0.00582175
-0.00548892
-0.00517555
-0.00488847
-0.00463683
-0.00441662
-0.00422792
-0.0040642
-0.00391281
-0.00377499
-0.00364249
-0.00350409
-0.0073815
-0.00715664
-0.00778923
-0.00666444
-0.00637472
-0.00596422
-0.00623013
-0.00656375
-0.00690114
-0.00699304
-0.0071826
-0.00728589
-0.00562428
-0.00528877
-0.00497894
-0.00470043
-0.00445172
-0.00423803
-0.00405537
-0.00389103
-0.00374774
-0.00361002
-0.00348631
-0.00334392
-0.00742802
-0.0067379
-0.0083326
-0.00679988
-0.00671692
-0.00645678
-0.00614926
-0.00576449
-0.00602124
-0.00632509
-0.00661498
-0.00669071
-0.00687076
-0.00648173
-0.00729833
-0.00735455
-0.00541981
-0.00509381
-0.00478984
-0.00451353
-0.00427291
-0.00406559
-0.00388234
-0.00372766
-0.00358382
-0.00345326
-0.00332628
-0.00319254
-0.00682336
-0.00906363
-0.00683079
-0.00678587
-0.00655452
-0.00648208
-0.00622192
-0.00593296
-0.00556176
-0.00581222
-0.00610307
-0.00635096
-0.00642824
-0.00667058
-0.00672648
-0.00522397
-0.00489874
-0.00460186
-0.00433464
-0.00409892
-0.00389328
-0.00372042
-0.0035654
-0.00342653
-0.00329643
-0.003175
-0.00304027
-0.00658611
-0.00652283
-0.00631207
-0.00624075
-0.00600067
-0.00572557
-0.00536263
-0.00561294
-0.00589194
-0.00613011
-0.0061951
-0.00639513
-0.00645464
-0.00502469
-0.00471415
-0.0044216
-0.00415759
-0.00392842
-0.00373207
-0.00355999
-0.00340978
-0.00327303
-0.0031436
-0.00302397
-0.00289001
-0.00634439
-0.00627526
-0.00607995
-0.00602732
-0.00579115
-0.00552137
-0.00516245
-0.00541468
-0.00569057
-0.00592203
-0.00598163
-0.0061648
-0.00623057
-0.00484145
-0.00452793
-0.00424231
-0.00398936
-0.00376482
-0.00357185
-0.00340586
-0.00325659
-0.00311897
-0.00299506
-0.00287545
-0.00274874
-0.00611285
-0.00606109
-0.00587154
-0.00581815
-0.00558926
-0.00532179
-0.00497489
-0.00521696
-0.00548645
-0.00572056
-0.00577525
-0.00595466
-0.00601903
-0.00464911
-0.00434905
-0.00407284
-0.00382222
-0.00360631
-0.00341918
-0.00325426
-0.00310459
-0.00297268
-0.00284768
-0.00273215
-0.00260535
-0.00590815
-0.00585086
-0.00566627
-0.00562169
-0.00539319
-0.00512516
-0.00478075
-0.0050291
-0.00528834
-0.00551458
-0.00557275
-0.00575537
-0.00580964
-0.00447163
-0.00417639
-0.00390482
-0.00366304
-0.00345383
-0.00327053
-0.00310499
-0.00295929
-0.002826
-0.00270291
-0.00259111
-0.00246535
-0.00570071
-0.00565735
-0.00547209
-0.0054181
-0.00519326
-0.00493246
-0.00460218
-0.00483667
-0.00509738
-0.00532182
-0.00536968
-0.00555021
-0.0056059
-0.00429474
-0.00400744
-0.0037412
-0.00351022
-0.00330629
-0.0031241
-0.00296133
-0.00281426
-0.00268155
-0.00256344
-0.00245067
-0.0023296
-0.00550545
-0.0054502
-0.00527045
-0.00522111
-0.00500269
-0.00474719
-0.00442076
-0.00465548
-0.00490681
-0.0051245
-0.00517863
-0.00535699
-0.00540479
-0.00412384
-0.00384061
-0.00358819
-0.00336362
-0.00316512
-0.00298334
-0.00281664
-0.00266857
-0.00254141
-0.00242347
-0.00231608
-0.00219568
-0.00530239
-0.00525426
-0.00508
-0.00503084
-0.00481216
-0.00456393
-0.00424907
-0.00447638
-0.00472258
-0.00494072
-0.00497998
-0.00515785
-0.00521342
-0.00395597
-0.00368383
-0.00344002
-0.00322524
-0.00302686
-0.00283963
-0.00267197
-0.00252847
-0.00240192
-0.00228992
-0.00218252
-0.00206391
-0.00511061
-0.0050691
-0.00488571
-0.00484101
-0.00462867
-0.00438641
-0.00407919
-0.00430444
-0.00454354
-0.0047525
-0.00479787
-0.00497291
-0.00500859
-0.00379484
-0.00353263
-0.00330174
-0.0030908
-0.00288832
-0.00269624
-0.00252916
-0.00238903
-0.00227039
-0.00215699
-0.00205101
-0.00193412
-0.0049189
-0.0048755
-0.00470367
-0.00465655
-0.00444934
-0.00421588
-0.0039161
-0.00413371
-0.00436912
-0.00457388
-0.00461379
-0.00478313
-0.00482815
-0.00363916
-0.00339054
-0.00317135
-0.00296089
-0.00274499
-0.00255025
-0.00238918
-0.00225839
-0.00213873
-0.00202692
-0.0019223
-0.00180883
-0.0047403
-0.00468789
-0.00452397
-0.0044763
-0.00428111
-0.00404745
-0.00375681
-0.00397166
-0.0041956
-0.00439555
-0.00443929
-0.00460646
-0.00463989
-0.00349089
-0.00326187
-0.00305174
-0.00282114
-0.00259526
-0.00240651
-0.00225802
-0.00212836
-0.00200992
-0.00189896
-0.00179758
-0.00168302
-0.0045603
-0.00450586
-0.00435221
-0.00430838
-0.00411069
-0.00388661
-0.00360499
-0.00381423
-0.00403251
-0.00422304
-0.00426792
-0.00442721
-0.00446557
-0.00335621
-0.00314706
-0.00292235
-0.00266715
-0.0024439
-0.00227356
-0.00213131
-0.00200139
-0.00188257
-0.00177544
-0.00167176
-0.00156048
-0.00438781
-0.00433557
-0.00417777
-0.00413976
-0.00394832
-0.00372793
-0.00345949
-0.00366659
-0.00387428
-0.00406158
-0.00409778
-0.00425653
-0.00429767
-0.00323479
-0.00304416
-0.00276671
-0.00250221
-0.0023064
-0.00214955
-0.00200651
-0.00187738
-0.0017618
-0.00165031
-0.00155023
-0.00143506
-0.00420825
-0.00416808
-0.00401577
-0.00397407
-0.00379072
-0.00357732
-0.00332059
-0.00352455
-0.00372218
-0.00390144
-0.00394071
-0.00409408
-0.00412474
-0.00315834
-0.00289726
-0.00257788
-0.00235564
-0.00218573
-0.00202971
-0.00188633
-0.0017578
-0.00163919
-0.00152978
-0.00142682
-0.00131139
-0.00404604
-0.00400051
-0.00385547
-0.00381993
-0.00364251
-0.0034317
-0.00322623
-0.0033905
-0.00357656
-0.00375137
-0.00378097
-0.00393182
-0.00396997
-0.00306451
-0.00266929
-0.00241856
-0.00223902
-0.00207153
-0.0019131
-0.00176902
-0.00163934
-0.00151858
-0.0014086
-0.00130297
-0.00118856
-0.00388518
-0.00384717
-0.00370531
-0.00367047
-0.00350082
-0.00330032
-0.0032422
-0.00326814
-0.00343863
-0.00360512
-0.00363526
-0.00378324
-0.0038058
-0.00278299
-0.0024889
-0.00230748
-0.00213168
-0.00195848
-0.00179895
-0.00165426
-0.00152025
-0.00140056
-0.0012857
-0.00118198
-0.00106372
-0.00373387
-0.00369504
-0.00356265
-0.00353602
-0.0033628
-0.00325963
-0.00291171
-0.00337775
-0.00327255
-0.00347196
-0.00349309
-0.00363392
-0.00366134
-0.00256615
-0.00239019
-0.00220871
-0.00202188
-0.00184731
-0.00168693
-0.00153921
-0.00140565
-0.0012809
-0.00116709
-0.00105927
-0.000937811
-0.00359144
-0.0035611
-0.00342824
-0.00340873
-0.003211
-0.00307674
-0.00267169
-0.00287877
-0.00359626
-0.0033366
-0.0033478
-0.00349637
-0.00352245
-0.00248043
-0.00229914
-0.00210059
-0.00191367
-0.00173977
-0.00157769
-0.00142775
-0.00129088
-0.00116484
-0.00104577
-0.000933401
-0.000810661
-0.00346071
-0.00343316
-0.00323335
-0.00317462
-0.00312213
-0.00284498
-0.00258116
-0.00276318
-0.00291858
-0.00395096
-0.00303158
-0.0033708
-0.00339763
-0.00239775
-0.00219089
-0.0019941
-0.00180953
-0.00163472
-0.00147058
-0.00131958
-0.00117657
-0.00104564
-0.00092138
-0.000808953
-0.000681285
-0.00331308
-0.00321871
-0.00284991
-0.00303209
-0.00290627
-0.00272234
-0.00249469
-0.00264322
-0.00283786
-0.00298721
-0.00302813
-0.00460886
-0.00307431
-0.00228952
-0.00208427
-0.00189239
-0.00170688
-0.00153194
-0.00136693
-0.00120845
-0.00106366
-0.000925647
-0.000799845
-0.000680647
-0.00054649
-0.00298578
-0.00294041
-0.00277364
-0.00260431
-0.00238766
-0.00253306
-0.00270305
-0.00285625
-0.00290819
-0.00217908
-0.00198315
-0.00179112
-0.00160843
-0.00143255
-0.00126248
-0.0011028
-0.000949136
-0.000807767
-0.000673848
-0.000548514
-0.000409536
-0.00282576
-0.00278777
-0.00264823
-0.00249036
-0.00227693
-0.00242595
-0.00258822
-0.00272185
-0.00275809
-0.00207748
-0.00188218
-0.001695
-0.00151324
-0.00133513
-0.00116344
-0.000994694
-0.000835103
-0.000685445
-0.000544306
-0.000413888
-0.000267367
-0.00269353
-0.00266483
-0.00253376
-0.00237903
-0.00217339
-0.00231835
-0.00247914
-0.00261157
-0.00264237
-0.00197665
-0.00178589
-0.00160121
-0.00142073
-0.00124214
-0.00106257
-0.000887822
-0.000719589
-0.000560769
-0.000412696
-0.000274271
-0.000121285
-0.00258143
-0.00255254
-0.00242365
-0.00227341
-0.00207023
-0.00221491
-0.00236971
-0.00249901
-0.00252849
-0.00187812
-0.00169242
-0.00151352
-0.00133219
-0.00115017
-0.000965363
-0.000781154
-0.000602278
-0.000433955
-0.000276447
-0.000130374
3.26538e-05
-0.00247114
-0.00244398
-0.00231912
-0.00216649
-0.00197074
-0.00211256
-0.00226522
-0.00239064
-0.00242069
-0.00178469
-0.00160672
-0.00142713
-0.00124843
-0.00106143
-0.000867265
-0.000672973
-0.000483135
-0.000303661
-0.000135008
1.99442e-05
0.000191915
-0.00236397
-0.00233894
-0.00221166
-0.00206574
-0.00187508
-0.00201351
-0.00215982
-0.00229184
-0.00231273
-0.00169675
-0.00152139
-0.00134984
-0.00116745
-0.000973198
-0.000770449
-0.000563504
-0.000360618
-0.000167536
1.08192e-05
0.000177214
0.000358046
-0.00225807
-0.00223224
-0.00211112
-0.00196705
-0.00178493
-0.00191785
-0.00206024
-0.00218022
-0.00220743
-0.00161162
-0.00144642
-0.00127447
-0.00108873
-0.000886804
-0.000673458
-0.000452193
-0.000235131
-2.80426e-05
0.000164776
0.000341022
0.000531246
-0.00215686
-0.00212989
-0.00201072
-0.00187371
-0.00169679
-0.00182587
-0.00196476
-0.00208087
-0.00210596
-0.00153573
-0.00137621
-0.00120295
-0.00101098
-0.000802142
-0.000575784
-0.000340753
-0.000104684
0.000118671
0.00032556
0.000514755
0.000708804
-0.00205508
-0.00202998
-0.00191545
-0.00178278
-0.00161756
-0.00173721
-0.00187091
-0.00198605
-0.00201102
-0.00146735
-0.00131066
-0.00113253
-0.000936837
-0.000719545
-0.000478873
-0.000223755
3.1629e-05
0.000273758
0.000495231
0.000699172
0.000904326
-0.00195869
-0.00193437
-0.00182464
-0.00169745
-0.00154808
-0.00165305
-0.00178125
-0.00188968
-0.00191505
-0.00140678
-0.00124487
-0.0010641
-0.000867544
-0.000637963
-0.000379763
-0.000101957
0.000173938
0.000435203
0.000680771
0.000901006
0.00108723
-0.00186623
-0.00184398
-0.00173683
-0.0016162
-0.00148633
-0.00157988
-0.00169419
-0.00180232
-0.00182207
-0.00134615
-0.00117623
-0.00100485
-0.000800468
-0.000557458
-0.000277982
2.2514e-05
0.000324338
0.000617593
0.000870275
0.00118541
0.000448399
-0.00177749
-0.00175735
-0.00164988
-0.00156898
-0.00142608
-0.00163759
-0.00159459
-0.00171882
-0.0017377
-0.0012739
-0.00112172
-0.000949201
-0.000737516
-0.000477178
-0.000172884
0.000155268
0.000493671
0.000785838
0.00120382
0.000540425
-0.00169486
-0.00167581
-0.00153142
-0.00148871
-0.00135732
-0.00145296
-0.00233162
-0.00184099
-0.00163246
-0.00165426
-0.00121792
-0.00107301
-0.000900165
-0.000676155
-0.000394495
-6.43869e-05
0.000303305
0.000639762
0.00111696
0.000570706
-0.00160995
-0.00159316
-0.000832488
-0.0016365
-0.00155823
-0.00142542
-0.00129718
-0.00139185
-0.00152281
-0.00148513
-0.00155732
-0.00117063
-0.00103316
-0.000854756
-0.000616838
-0.000311827
5.8077e-05
0.000427952
0.00094422
0.000513179
-0.00141404
-0.00161988
-0.00158072
-0.00146667
-0.00143997
-0.00136111
-0.00124771
-0.00133414
-0.00142858
-0.00140509
-0.00154596
-0.0015135
-0.00162026
-0.00113457
-0.000998298
-0.000814613
-0.000557628
-0.000218582
0.000159381
0.000689808
0.000396665
-0.00164452
-0.00160677
-0.00148516
-0.00145914
-0.0013921
-0.00137693
-0.00130707
-0.00120984
-0.0012861
-0.00136435
-0.00134956
-0.00144409
-0.00142356
-0.0015676
-0.00153673
-0.00110415
-0.000972535
-0.000775788
-0.000493894
-0.000140961
0.000367366
0.000239862
-0.00150026
-0.00147627
-0.00140697
-0.00139539
-0.00133788
-0.00132374
-0.00126284
-0.00118022
-0.00124638
-0.00131416
-0.00130312
-0.00137933
-0.00136578
-0.00145759
-0.00143979
-0.00108598
-0.000949105
-0.000737659
-0.000437176
6.97406e-06
6.11008e-05
-0.00142184
-0.00141034
-0.00135349
-0.00133947
-0.00128973
-0.00127889
-0.001228
-0.0011617
-0.00121645
-0.00127271
-0.00126076
-0.00133014
-0.00131864
-0.0013939
-0.00138093
-0.00107248
-0.000931638
-0.000697918
-0.000351144
-0.00012007
-0.00136738
-0.0013539
-0.0013051
-0.00129397
-0.00125099
-0.00124476
-0.00120212
-0.00115141
-0.00119722
-0.00123834
-0.00123007
-0.00128581
-0.001276
-0.00134487
-0.00133126
-0.00107102
-0.000904509
-0.00066768
-0.000284986
-0.00132204
-0.00130758
-0.00126378
-0.00125914
-0.00122426
-0.00121701
-0.00118594
-0.00115814
-0.00118718
-0.00121545
-0.00121055
-0.00124925
-0.0012441
-0.00129722
-0.0012891
-0.00105908
-0.000919054
-0.000419753
-0.00127691
-0.00126983
-0.00123621
-0.00122978
-0.0012043
-0.00120039
-0.00118372
-0.00116612
-0.00119388
-0.00120242
-0.00119721
-0.00122537
-0.0012225
-0.00126063
-0.00125685
-0.00110852
-0.000521335
-0.00124662
-0.00124096
-0.00121598
-0.00121252
-0.00119406
-0.0011987
-0.00119181
-0.0012671
-0.00120078
-0.00119912
-0.0012032
-0.00121017
-0.00120664
-0.00123583
-0.00123155
-0.000594436
-0.00122777
-0.00122259
-0.00120456
-0.00120577
-0.001201
-0.00120834
-0.00123428
-0.000707379
-0.00130795
-0.00120747
-0.0012113
-0.00120695
-0.0012074
-0.00121734
-0.00121542
-0.00121289
-0.00121143
-0.00120845
-0.00121294
-0.0012225
-0.0012401
-0.00134588
-0.000661374
-0.00127247
-0.00129672
-0.00121402
-0.00121739
-0.00121437
-0.0012131
-0.00121398
-0.00121561
-0.00122952
-0.001243
-0.00133147
-0.00140557
-0.00136627
-0.00056295
-0.00126965
-0.00129306
-0.00121688
-0.00121948
-0.00122837
-0.00124067
-0.00131875
-0.00142002
-0.0015225
-0.000578354
-0.00126431
-0.00129025
-0.00131814
-0.00141149
-0.00165957
-0.000726491
-0.0939967
-0.093851
-0.0929654
-0.0930324
-0.0936855
-0.0935385
-0.0928841
-0.0929048
-0.0932727
-0.0937774
-0.0937437
-0.0938687
-0.0926483
-0.0929817
-0.0926977
-0.0932433
-0.0941239
-0.0941879
-0.0939665
-0.0941335
-0.0924087
-0.0927526
-0.0924535
-0.0931229
-0.0926915
-0.0950436
-0.0942847
-0.094658
-0.0942031
-0.0944321
-0.0921325
-0.0924925
-0.0921891
-0.0933008
-0.0920931
-0.0922021
-0.0952436
-0.0951562
-0.0944592
-0.0944728
-0.0947208
-0.0946839
-0.0919048
-0.0922513
-0.0919502
-0.093477
-0.0922964
-0.0911031
-0.0917005
-0.0920021
-0.0954388
-0.0949629
-0.0946419
-0.0949078
-0.0916682
-0.0917239
-0.0936587
-0.0924868
-0.0913026
-0.0901102
-0.0907746
-0.091209
-0.0915162
-0.0917683
-0.0956265
-0.0948263
-0.0914225
-0.0914736
-0.0938446
-0.0926728
-0.0914964
-0.0903077
-0.0891231
-0.0897279
-0.0902152
-0.0907943
-0.0908729
-0.0910376
-0.0912666
-0.0958094
-0.0950109
-0.0911564
-0.0912106
-0.0940332
-0.0928615
-0.0916852
-0.0905033
-0.0893191
-0.0881583
-0.0887484
-0.0892309
-0.0896265
-0.0900536
-0.0901312
-0.0907452
-0.0909806
-0.0959893
-0.0951915
-0.0909392
-0.0942199
-0.0930542
-0.0918763
-0.0906948
-0.0895138
-0.0883452
-0.0872568
-0.0877776
-0.0882454
-0.0886527
-0.0891357
-0.0894487
-0.0896884
-0.0901329
-0.0899053
-0.0903226
-0.0907072
-0.0961633
-0.0953571
-0.0943919
-0.0932462
-0.0920724
-0.090888
-0.0897049
-0.0885318
-0.0874062
-0.0862447
-0.0868635
-0.0873967
-0.087652
-0.0881371
-0.0884729
-0.0887106
-0.0891779
-0.0889476
-0.0963219
-0.0954872
-0.0945265
-0.0934241
-0.0922687
-0.0910866
-0.0898982
-0.0887184
-0.0875673
-0.0864247
-0.0852668
-0.0858589
-0.0863519
-0.0867521
-0.0873966
-0.0874334
-0.0876872
-0.0881953
-0.0879594
-0.0964467
-0.0955334
-0.0945702
-0.0935616
-0.0924514
-0.0912867
-0.090098
-0.0889089
-0.08774
-0.0865922
-0.0854484
-0.0843077
-0.0849021
-0.0853857
-0.085767
-0.0862299
-0.0865021
-0.0867046
-0.0871759
-0.0873884
-0.0964932
-0.0954074
-0.0944287
-0.0936006
-0.0925908
-0.0914732
-0.0903004
-0.0891077
-0.0879227
-0.0867601
-0.0856186
-0.0844834
-0.0833522
-0.083953
-0.0844317
-0.084819
-0.085296
-0.0855903
-0.0858372
-0.086285
-0.0860448
-0.0864877
-0.0865974
-0.0875668
-0.0963792
-0.0949667
-0.0939501
-0.0934401
-0.0926241
-0.0916131
-0.0904893
-0.089311
-0.0881179
-0.0869379
-0.0857846
-0.0846519
-0.0835251
-0.0823921
-0.0830032
-0.0834804
-0.083873
-0.0843472
-0.084643
-0.0848804
-0.0853503
-0.0851112
-0.0855474
-0.0857921
-0.0862388
-0.0860134
-0.0959717
-0.0940089
-0.0929205
-0.0929175
-0.092441
-0.0916375
-0.0906281
-0.0895014
-0.0883209
-0.0871305
-0.0859593
-0.084817
-0.0836935
-0.0825668
-0.0814334
-0.0820446
-0.0825267
-0.0829253
-0.0833983
-0.0836986
-0.0839326
-0.084398
-0.0841644
-0.0845984
-0.0848328
-0.0852991
-0.0850686
-0.0950792
-0.092292
-0.0910864
-0.0918074
-0.0918678
-0.0914267
-0.0906412
-0.0896368
-0.0885118
-0.0873333
-0.0861505
-0.0849911
-0.0838595
-0.0827402
-0.0816106
-0.0804983
-0.0810622
-0.0815606
-0.0819683
-0.0824485
-0.0827519
-0.0829885
-0.083453
-0.0832185
-0.0836535
-0.0838867
-0.0843477
-0.0841218
-0.09347
-0.0895931
-0.0882191
-0.0898465
-0.090668
-0.0907972
-0.090399
-0.0896343
-0.0886418
-0.0875234
-0.0863537
-0.0851831
-0.0840358
-0.0829126
-0.0817909
-0.0806645
-0.0794781
-0.0801407
-0.0806064
-0.0809735
-0.0814781
-0.0818021
-0.0820364
-0.0825069
-0.0822733
-0.0827087
-0.0829438
-0.0834073
-0.083175
-0.0909305
-0.0857958
-0.0842041
-0.0868004
-0.0885687
-0.0894992
-0.0897043
-0.0893534
-0.0886198
-0.0876457
-0.086542
-0.0853877
-0.0842318
-0.0830966
-0.0819757
-0.0808471
-0.0796793
-0.0784067
-0.0790586
-0.0796295
-0.0801259
-0.0805371
-0.0808014
-0.0810523
-0.0815493
-0.0813115
-0.0817602
-0.081995
-0.0824624
-0.0822312
-0.0873446
-0.0809577
-0.0791089
-0.0825585
-0.0853322
-0.0872493
-0.0882949
-0.088585
-0.0882941
-0.0875998
-0.0866536
-0.085573
-0.0844392
-0.083301
-0.082174
-0.0810479
-0.0798909
-0.0786532
-0.0772913
-0.0779862
-0.078563
-0.0789664
-0.0795092
-0.0798106
-0.0803148
-0.0805615
-0.0803215
-0.08075
-0.0810169
-0.08151
-0.0812725
-0.0827595
-0.0753158
-0.0731899
-0.0772028
-0.0808545
-0.0838087
-0.0858809
-0.0870545
-0.0874419
-0.0872214
-0.086578
-0.0856706
-0.0846209
-0.0835132
-0.0823919
-0.0812672
-0.0801211
-0.0789125
-0.0775783
-0.0761992
-0.0768447
-0.0774555
-0.0779057
-0.0784579
-0.0787837
-0.0790634
-0.079563
-0.0792764
-0.079587
-0.0805013
-0.0804622
-0.0800414
-0.0773961
-0.0692141
-0.0668121
-0.0710095
-0.0752341
-0.079085
-0.0822246
-0.0844631
-0.0857746
-0.0862733
-0.0861378
-0.0855588
-0.0847007
-0.0836905
-0.0826113
-0.0815049
-0.0803722
-0.0791877
-0.0778987
-0.0764565
-0.0747831
-0.0759073
-0.0763685
-0.0767468
-0.0773441
-0.0777166
-0.0780117
-0.0785476
-0.0782609
-0.0787623
-0.0790189
-0.0794594
-0.0792442
-0.0795516
-0.0807831
-0.0715779
-0.0630279
-0.0603749
-0.0643655
-0.0687695
-0.0731964
-0.0772464
-0.0805761
-0.0829885
-0.0844537
-0.0850805
-0.0850458
-0.0845448
-0.0837479
-0.0827833
-0.0817339
-0.0806356
-0.0794817
-0.0782352
-0.0768341
-0.0752165
-0.074275
-0.073283
-0.0748777
-0.076173
-0.0765833
-0.076878
-0.0774504
-0.0771448
-0.0776915
-0.0779706
-0.0785086
-0.078236
-0.07873
-0.0789804
-0.0794463
-0.079225
-0.065657
-0.0571258
-0.0542703
-0.0576955
-0.0618707
-0.0664654
-0.0710871
-0.0753326
-0.0788565
-0.0814557
-0.0830914
-0.0838618
-0.0839452
-0.0835384
-0.0828127
-0.0818987
-0.0808765
-0.0797755
-0.0785819
-0.0772419
-0.0756828
-0.0738313
-0.0728151
-0.0738243
-0.0746189
-0.0716181
-0.0751588
-0.0764109
-0.0763666
-0.0765405
-0.0768409
-0.0774151
-0.0771228
-0.0776533
-0.0779213
-0.0784621
-0.0782023
-0.0599781
-0.051854
-0.0488627
-0.051413
-0.0549886
-0.0593269
-0.0640963
-0.0689011
-0.0733398
-0.0770635
-0.0798618
-0.0816819
-0.0826164
-0.0828377
-0.0825382
-0.0818929
-0.0810317
-0.08003
-0.0789113
-0.0776517
-0.0761806
-0.0744219
-0.0722959
-0.0710666
-0.0722141
-0.0730655
-0.0735613
-0.0739697
-0.0743642
-0.0747587
-0.0698115
-0.0750909
-0.0754345
-0.0752381
-0.0761812
-0.0765062
-0.0768004
-0.0773683
-0.0770904
-0.0548673
-0.0475137
-0.0444593
-0.0459003
-0.0485568
-0.0522551
-0.0567344
-0.0616596
-0.0666361
-0.0712643
-0.0751919
-0.0781997
-0.0802237
-0.081343
-0.0817166
-0.0815392
-0.0809817
-0.0801708
-0.0791793
-0.0780205
-0.0766622
-0.075025
-0.0730218
-0.070599
-0.0691739
-0.0703746
-0.0713277
-0.0718952
-0.0723688
-0.0727659
-0.0731631
-0.067899
-0.0756368
-0.0761631
-0.050618
-0.0442939
-0.0412352
-0.0414654
-0.0429723
-0.045705
-0.0494996
-0.0540941
-0.0591546
-0.0642897
-0.069101
-0.0732361
-0.0764658
-0.0787103
-0.080029
-0.0805756
-0.0805319
-0.0800653
-0.0793003
-0.078302
-0.0770754
-0.0755818
-0.0737379
-0.071452
-0.0687227
-0.0673236
-0.0683367
-0.069338
-0.0700344
-0.0705416
-0.0709939
-0.0714316
-0.0655734
-0.0474273
-0.0422078
-0.0391804
-0.0382679
-0.0385406
-0.0400851
-0.0428663
-0.0467265
-0.0514083
-0.0565817
-0.061859
-0.0668474
-0.071191
-0.0746519
-0.0771296
-0.0786675
-0.0793998
-0.0794983
-0.0791244
-0.0783946
-0.0773678
-0.0760432
-0.0743718
-0.0722782
-0.0696759
-0.066568
-0.0647004
-0.066185
-0.0676531
-0.0678303
-0.0684307
-0.0689836
-0.0694895
-0.0629767
-0.0453324
-0.0410934
-0.0381087
-0.0362697
-0.035399
-0.035692
-0.0372494
-0.0400477
-0.0439414
-0.0486806
-0.0539418
-0.0593441
-0.0644991
-0.069051
-0.0727467
-0.0754707
-0.0772395
-0.0781696
-0.0784168
-0.0781308
-0.077422
-0.0763416
-0.0748828
-0.0729916
-0.0706016
-0.0676431
-0.0641291
-0.0619633
-0.0635289
-0.0648598
-0.0655298
-0.0661597
-0.0674901
-0.0672462
-0.0600988
-0.0441964
-0.0406827
-0.037735
-0.0352569
-0.0334781
-0.0326361
-0.0329303
-0.0344736
-0.0372581
-0.0411514
-0.0459161
-0.0512377
-0.0567444
-0.0620531
-0.0668048
-0.0707391
-0.0737137
-0.0757241
-0.0768593
-0.0772554
-0.0770507
-0.0763429
-0.0751791
-0.0735493
-0.0713972
-0.0686655
-0.0653306
-0.0613917
-0.0589657
-0.0606881
-0.0621651
-0.062995
-0.0636988
-0.0643125
-0.0649592
-0.06546
-0.0659445
-0.0678633
-0.0569255
-0.043766
-0.0406943
-0.0377716
-0.034928
-0.0325363
-0.0308116
-0.0299864
-0.0302639
-0.031768
-0.0345061
-0.0383649
-0.0431213
-0.0484738
-0.0540599
-0.0595035
-0.0644456
-0.0686113
-0.0718402
-0.0740939
-0.0754341
-0.0759774
-0.0758404
-0.0751129
-0.073835
-0.0719957
-0.0695435
-0.0664484
-0.0627115
-0.0583479
-0.0556682
-0.0575356
-0.0591533
-0.0600583
-0.0608372
-0.0615643
-0.0622881
-0.0628586
-0.063567
-0.0641786
-0.064794
-0.0534571
-0.0437658
-0.0408995
-0.0379896
-0.0349899
-0.0322564
-0.02995
-0.0282757
-0.027458
-0.0277026
-0.029142
-0.0318028
-0.0355919
-0.0403048
-0.045655
-0.0512919
-0.0568472
-0.0619615
-0.0663496
-0.0698242
-0.0723178
-0.0738616
-0.0745404
-0.0744557
-0.0736834
-0.0722601
-0.0701759
-0.0674027
-0.0639287
-0.0597784
-0.0549988
-0.052073
-0.0540754
-0.0558307
-0.0568178
-0.0576683
-0.0584716
-0.0592642
-0.0598813
-0.0606721
-0.0613821
-0.0620899
-0.0496977
-0.0439645
-0.0411495
-0.0382447
-0.035217
-0.0323433
-0.0297226
-0.027503
-0.0258757
-0.0250585
-0.0252537
-0.0266052
-0.0291588
-0.0328437
-0.0374763
-0.0427879
-0.0484427
-0.054081
-0.0593439
-0.0639332
-0.0676395
-0.0703643
-0.0720978
-0.0729
-0.0728475
-0.0720054
-0.070407
-0.0680567
-0.0649498
-0.0610933
-0.0565315
-0.0513533
-0.0481891
-0.0503167
-0.0522113
-0.0532716
-0.0541931
-0.0550741
-0.0559295
-0.0566073
-0.0574787
-0.0582569
-0.0590418
-0.0456645
-0.0442069
-0.0420856
-0.0405959
-0.0391409
-0.0354715
-0.0377143
-0.0325779
-0.0298347
-0.0273292
-0.0251966
-0.0236149
-0.0227898
-0.022923
-0.0241675
-0.0265874
-0.0301328
-0.0346468
-0.0398814
-0.0455165
-0.0512027
-0.0565828
-0.0613484
-0.065265
-0.0681987
-0.0701063
-0.0710115
-0.0709696
-0.0700333
-0.0682406
-0.0656142
-0.0621684
-0.0579364
-0.0529872
-0.0474289
-0.0440353
-0.046275
-0.0482982
-0.0494304
-0.0504173
-0.0513758
-0.0522995
-0.0530353
-0.0539697
-0.0548337
-0.0556769
-0.041388
-0.0451615
-0.0436126
-0.0425175
-0.0417764
-0.0410776
-0.0403235
-0.0395519
-0.0388423
-0.0363258
-0.0328297
-0.0349646
-0.0381731
-0.0374519
-0.030075
-0.0274645
-0.0250762
-0.0230315
-0.0214933
-0.0206571
-0.0207196
-0.02184
-0.0240978
-0.0274719
-0.0318293
-0.0369459
-0.0425196
-0.0482138
-0.0536734
-0.0585812
-0.0626772
-0.0657947
-0.0678493
-0.068835
-0.0687815
-0.0677347
-0.0657388
-0.0628308
-0.0590558
-0.0544687
-0.0491604
-0.0432536
-0.0396412
-0.0419743
-0.0441164
-0.0453045
-0.0463643
-0.0473842
-0.0483784
-0.0491542
-0.0501707
-0.051099
-0.052017
-0.0369138
-0.0448421
-0.0441142
-0.0433289
-0.0425182
-0.0418005
-0.041143
-0.0404072
-0.0395518
-0.0388647
-0.0367166
-0.0360394
-0.0336422
-0.0303221
-0.0323477
-0.0354007
-0.034713
-0.0382348
-0.0375306
-0.0277085
-0.0252328
-0.0229629
-0.0210064
-0.019513
-0.0186628
-0.0186465
-0.0196278
-0.0217033
-0.0248748
-0.0290375
-0.0339932
-0.0394627
-0.0451204
-0.050617
-0.0556251
-0.0598618
-0.0631272
-0.0652992
-0.0663399
-0.066256
-0.0650882
-0.062885
-0.0597069
-0.0556194
-0.0507046
-0.0450722
-0.0388602
-0.0350792
-0.0374317
-0.0396867
-0.0409319
-0.0420448
-0.0431268
-0.0441844
-0.0449979
-0.0460858
-0.047077
-0.0480706
-0.0322847
-0.0448691
-0.0441854
-0.0434191
-0.0367167
-0.0360605
-0.0340132
-0.0333685
-0.0310921
-0.0279493
-0.029865
-0.0327607
-0.0321071
-0.0354589
-0.0347869
-0.0254781
-0.0231378
-0.0209865
-0.0191205
-0.0176711
-0.0168065
-0.0167077
-0.0175401
-0.019414
-0.0223551
-0.0262879
-0.0310404
-0.0363581
-0.0419327
-0.0474185
-0.0524793
-0.0568113
-0.0601832
-0.0624391
-0.0635093
-0.0633822
-0.0620875
-0.0596861
-0.0562534
-0.0518789
-0.0466726
-0.0407524
-0.0342907
-0.0304633
-0.0326615
-0.0350226
-0.0363294
-0.0374927
-0.0386286
-0.0397435
-0.0405981
-0.0417318
-0.0427919
-0.0438401
-0.0275377
-0.0340134
-0.033388
-0.031443
-0.0308309
-0.0286763
-0.025711
-0.0275166
-0.0302543
-0.0296353
-0.032815
-0.0321758
-0.0233821
-0.0211768
-0.0191453
-0.0173689
-0.0159664
-0.0150875
-0.014905
-0.0155818
-0.0172401
-0.0199273
-0.0235969
-0.0281061
-0.0332268
-0.0386686
-0.0440912
-0.0491519
-0.0535285
-0.0569634
-0.0592681
-0.0603462
-0.0601616
-0.0587442
-0.0561582
-0.0524943
-0.0478713
-0.0424035
-0.0362506
-0.0296125
-0.02562
-0.0280319
-0.0302184
-0.0314909
-0.0327159
-0.0339152
-0.0350832
-0.035961
-0.037155
-0.0382613
-0.0393671
-0.0227681
-0.0314431
-0.0308487
-0.0290073
-0.0284278
-0.0263949
-0.023606
-0.0253022
-0.0278819
-0.0272975
-0.0303045
-0.0296987
-0.0214182
-0.0193471
-0.0174337
-0.0157486
-0.0143931
-0.0135037
-0.0132378
-0.0137562
-0.0151894
-0.0176028
-0.020981
-0.0252102
-0.0300912
-0.0353498
-0.040655
-0.0456603
-0.0500303
-0.053483
-0.055803
-0.0568635
-0.0566187
-0.0550841
-0.052332
-0.0484727
-0.0436277
-0.0379564
-0.0316349
-0.0249028
-0.0207211
-0.022959
-0.0254272
-0.0269576
-0.0278077
-0.0289536
-0.0301548
-0.0310849
-0.0323545
-0.0335226
-0.0346889
-0.0180222
-0.0290073
-0.0284439
-0.0267057
-0.0261587
-0.0242467
-0.0216319
-0.0232203
-0.0256435
-0.0250936
-0.0279277
-0.0273554
-0.0195831
-0.0176437
-0.0158474
-0.0142527
-0.0129472
-0.0120488
-0.0117034
-0.0120655
-0.0132677
-0.0153967
-0.0184599
-0.0223784
-0.0269774
-0.0320039
-0.0371386
-0.0420351
-0.0463468
-0.0497735
-0.0520731
-0.0531009
-0.0527872
-0.0511466
-0.0482578
-0.0442291
-0.0392188
-0.0333986
-0.026978
-0.0202152
-0.0159146
-0.0180699
-0.0204419
-0.0216918
-0.0229132
-0.0240908
-0.0254124
-0.0270216
-0.0269686
-0.0283647
-0.0296939
-0.0133554
-0.0267054
-0.0261731
-0.0245375
-0.0240228
-0.0222298
-0.0197857
-0.0212683
-0.0235379
-0.0230219
-0.0256851
-0.0251461
-0.0178725
-0.0160619
-0.01438
-0.0128754
-0.0116204
-0.0107179
-0.0102982
-0.0105069
-0.0114814
-0.0133185
-0.0160526
-0.0196337
-0.0239139
-0.0286653
-0.0335806
-0.0383169
-0.0425216
-0.045878
-0.0481274
-0.0490998
-0.048719
-0.0469905
-0.0439847
-0.0398371
-0.0347072
-0.0287968
-0.0223488
-0.0155967
-0.0112323
-0.0132729
-0.0156175
-0.0168237
-0.0180355
-0.0192181
-0.0204254
-0.0212592
-0.0224717
-0.0235675
-0.0246477
-0.0272307
-0.00885873
-0.0245368
-0.0240353
-0.0225008
-0.0220178
-0.0203416
-0.0180634
-0.0194433
-0.0215629
-0.0210801
-0.0235753
-0.0230693
-0.0162819
-0.0145955
-0.0130251
-0.011609
-0.0104058
-0.00950238
-0.0090155
-0.0090805
-0.00983181
-0.0113775
-0.0137748
-0.0169995
-0.0209345
-0.0253734
-0.0300259
-0.0345558
-0.038607
-0.041853
-0.04402
-0.0449258
-0.0444784
-0.0426725
-0.0395894
-0.0353562
-0.0301612
-0.0242319
-0.0177931
-0.0111429
-0.00673784
-0.00860998
-0.0108867
-0.0120174
-0.0132117
-0.014379
-0.0155711
-0.0163857
-0.0176158
-0.0187888
-0.0199934
-0.0208337
-0.0220457
-0.0231985
-0.0241922
-0.0046269
-0.0224996
-0.0220284
-0.0205932
-0.0201411
-0.0185782
-0.0164602
-0.0177411
-0.0197154
-0.019265
-0.0215962
-0.0211224
-0.0148052
-0.0132385
-0.0117759
-0.0104454
-0.00929371
-0.00839445
-0.00784877
-0.00778001
-0.00831829
-0.0095815
-0.0116414
-0.0145017
-0.0180731
-0.0221707
-0.0265254
-0.0308071
-0.0346631
-0.0377613
-0.0398212
-0.0406458
-0.0401324
-0.0382708
-0.0351325
-0.0308667
-0.0256648
-0.0197527
-0.0134035
-0.00694153
-0.00253805