/*--------------------------------*- C++ -*----------------------------------*\
| =========                 |                                                 |
| \\      /  F ield         | OpenFOAM: The Open Source CFD Toolbox           |
|  \\    /   O peration     | Version:  v1912                                 |
|   \\  /    A nd           | Website:  www.openfoam.com                      |
|    \\/     M anipulation  |                                                 |
\*---------------------------------------------------------------------------*/
FoamFile
{
    version     2.0;
    format      ascii;
    class       volVectorField;
    location    "200";
    object      U;
}
// * * * * * * * * * * * * * * * * * * * * * * * * * * * * * * * * * * * * * //

dimensions      [0 1 -1 0 0 0 0];


internalField   nonuniform List<vector> 
3673
(
(0.648227 -0.0255824 -1.63159e-21)
(0.974707 -0.0152945 -5.23212e-20)
(0.298306 -0.0525317 -3.74477e-24)
(1.01656 -0.0104054 2.43999e-20)
(0.766028 -0.0574814 -2.28716e-24)
(0.17542 -0.0543313 1.94624e-20)
(1.00676 -0.0138558 -1.90517e-37)
(0.961607 -0.054043 1.52637e-24)
(0.568928 -0.0966336 -1.77997e-20)
(0.124713 -0.0462197 2.39968e-20)
(0.999517 -0.0164406 -2.6294e-41)
(1.00908 -0.0522224 0)
(0.843952 -0.10389 -2.34761e-20)
(0.436367 -0.110507 -2.37372e-20)
(0.108221 -0.0400088 2.80774e-20)
(0.997599 -0.0170222 -4.067e-24)
(1.00893 -0.0520202 -6.95735e-24)
(0.969488 -0.100523 4.77469e-20)
(0.720547 -0.138248 2.50388e-20)
(0.365177 -0.11091 0)
(0.1049 -0.0374677 -3.08984e-20)
(0.997518 -0.0166427 -3.73399e-51)
(1.00224 -0.0521102 1.79249e-20)
(1.00431 -0.096659 -2.56348e-20)
(0.898717 -0.144837 -2.19997e-20)
(0.62615 -0.156566 2.8049e-20)
(0.332896 -0.109303 3.36033e-20)
(0.1056 -0.0368008 0)
(0.997717 -0.0157908 0)
(0.998117 -0.0514652 1.78163e-21)
(1.00469 -0.0940837 0)
(0.976611 -0.143427 6.98127e-24)
(0.824896 -0.177913 3.77787e-21)
(0.567348 -0.165646 0)
(0.320329 -0.108526 0)
(0.107669 -0.0368664 0)
(0.99787 -0.0146043 2.27272e-20)
(0.996111 -0.0497317 -1.99979e-20)
(0.998313 -0.091822 0)
(0.997005 -0.140208 1.7286e-20)
(0.936356 -0.18461 -2.59443e-20)
(0.766397 -0.200275 0)
(0.535606 -0.170114 -7.32582e-24)
(0.317061 -0.108459 0)
(0.109873 -0.0371334 0)
(0.997982 -0.0131098 -2.2848e-20)
(0.994822 -0.0469496 0)
(0.992894 -0.0889396 2.01762e-23)
(0.995369 -0.136927 -1.73287e-20)
(0.980727 -0.184788 0)
(0.897184 -0.21724 1.34149e-23)
(0.727386 -0.214271 6.67548e-24)
(0.520582 -0.172092 -3.07104e-20)
(0.317699 -0.108553 3.38373e-20)
(0.111552 -0.0373771 -6.79411e-24)
(0.998093 -0.0112917 0)
(0.993596 -0.043163 0)
(0.988698 -0.0849657 -2.24848e-23)
(0.988665 -0.133463 -4.12783e-23)
(0.989815 -0.182985 -3.58833e-23)
(0.962162 -0.223814 0)
(0.866792 -0.240748 -1.40494e-23)
(0.704444 -0.221935 2.70697e-20)
(0.514596 -0.172556 5.43967e-22)
(0.31936 -0.108542 -3.20617e-20)
(0.112563 -0.0375239 1.31861e-23)
(0.998225 -0.00913574 -2.5228e-23)
(0.992285 -0.0383325 0)
(0.984787 -0.0796067 0)
(0.981624 -0.129214 2.34149e-23)
(0.985535 -0.180771 2.11763e-23)
(0.984336 -0.226 1.81295e-23)
(0.946813 -0.254668 0)
(0.84663 -0.255564 0)
(0.692144 -0.22509 7.95023e-22)
(0.512691 -0.172165 -4.10679e-22)
(0.320752 -0.108377 0)
(0.112981 -0.0375484 -6.39149e-24)
(0.998388 -0.00665018 0)
(0.990923 -0.0323932 -2.77894e-20)
(0.980639 -0.0725811 0)
(0.974381 -0.123546 0)
(0.977272 -0.178121 0)
(0.985817 -0.227088 -2.20551e-20)
(0.981828 -0.262184 0)
(0.936866 -0.275915 1.28129e-23)
(0.834436 -0.263153 1.1201e-21)
(0.685778 -0.225579 2.44442e-20)
(0.512209 -0.171382 -2.59106e-20)
(0.321446 -0.108019 0)
(0.112876 -0.0374489 0)
(0.998592 -0.00387516 2.75066e-20)
(0.989611 -0.0253151 2.78679e-20)
(0.976172 -0.0636043 1.98981e-24)
(0.96631 -0.115819 0)
(0.967176 -0.174397 2.9057e-20)
(0.978969 -0.228141 2.23166e-20)
(0.991427 -0.267809 3.93204e-23)
(0.983248 -0.288443 -1.35645e-23)
(0.931241 -0.288011 -3.69603e-20)
(0.827103 -0.265995 0)
(0.682344 -0.224814 4.6059e-20)
(0.511918 -0.170361 0)
(0.321312 -0.107454 0)
(0.112351 -0.0372471 1.00327e-23)
(0.998841 -0.000891178 -5.53203e-20)
(0.988484 -0.0171513 -2.83741e-23)
(0.971561 -0.0524337 3.13746e-20)
(0.957103 -0.105361 3.29375e-20)
(0.954918 -0.168724 -2.93908e-20)
(0.967954 -0.229007 0)
(0.989155 -0.273869 0)
(1.00218 -0.298182 1.7083e-20)
(0.986789 -0.304053 1.23476e-20)
(0.927796 -0.293662 1.13635e-20)
(0.822512 -0.266358 -2.11392e-20)
(0.680225 -0.223453 5.01346e-24)
(0.511246 -0.169146 -2.22227e-20)
(0.320376 -0.10671 -2.37421e-20)
(0.111502 -0.0369676 -8.82998e-25)
(0.999138 0.00217909 2.78335e-20)
(0.987717 -0.00807707 2.98971e-20)
(0.967172 -0.038937 -3.12714e-20)
(0.946882 -0.0914618 -6.82333e-20)
(0.939869 -0.160018 -6.67517e-23)
(0.952918 -0.228973 5.81723e-23)
(0.980787 -0.281186 0)
(1.00738 -0.308408 -1.67643e-20)
(1.01456 -0.316129 1.36406e-20)
(0.989918 -0.311932 -1.0908e-20)
(0.925441 -0.295772 0)
(0.819524 -0.265456 -1.97808e-20)
(0.678503 -0.221756 1.95822e-20)
(0.50992 -0.167786 2.01361e-20)
(0.318749 -0.105845 1.00822e-23)
(0.110441 -0.0366319 -9.2737e-24)
(0.999477 0.00517608 5.4678e-23)
(0.987498 0.00157918 -2.9738e-20)
(0.963537 -0.0231958 1.34149e-22)
(0.936185 -0.0734381 -2.05915e-21)
(0.921735 -0.146922 0)
(0.932737 -0.226936 -3.86266e-20)
(0.967132 -0.289893 -5.713e-23)
(1.00595 -0.320863 3.30941e-23)
(1.02777 -0.32778 -1.34002e-20)
(1.02446 -0.325155 0)
(0.992087 -0.31559 0)
(0.923923 -0.295938 9.13581e-21)
(0.817318 -0.26384 -1.81616e-20)
(0.676611 -0.219902 1.31053e-23)
(0.507909 -0.166361 0)
(0.316589 -0.104888 -1.01126e-23)
(0.109234 -0.0362569 0)
(0.999842 0.00792041 0)
(0.98798 0.011333 -5.67222e-23)
(0.961334 -0.00562648 -3.29983e-20)
(0.926052 -0.050785 7.52144e-20)
(0.900722 -0.127694 -9.33667e-24)
(0.906059 -0.221297 3.95586e-20)
(0.946764 -0.299889 0)
(1.00002 -0.336627 0)
(1.03453 -0.340988 -3.21758e-23)
(1.04365 -0.336791 0)
(1.03146 -0.329618 -9.15774e-24)
(0.993901 -0.316847 8.93669e-21)
(0.922872 -0.294934 1.69632e-20)
(0.815275 -0.261894 8.4712e-24)
(0.674318 -0.218025 -8.48897e-24)
(0.505289 -0.164894 0)
(0.314031 -0.103868 -8.43556e-24)
(0.10793 -0.0358562 -1.54097e-20)
(1.00021 0.0102397 0)
(0.989231 0.0205833 -1.17742e-22)
(0.961254 0.0129174 3.28444e-20)
(0.918144 -0.0235061 -7.61613e-20)
(0.87777 -0.100145 -4.69615e-20)
(0.871651 -0.209643 1.85588e-22)
(0.917207 -0.311009 0)
(0.989226 -0.356792 -2.38151e-20)
(1.03832 -0.356789 2.54578e-23)
(1.05586 -0.348824 0)
(1.05466 -0.341139 0)
(1.037 -0.331487 9.05284e-25)
(0.995472 -0.316575 8.35633e-24)
(0.921842 -0.293332 -7.78424e-21)
(0.813081 -0.259872 -7.12612e-24)
(0.671571 -0.216176 0)
(0.502161 -0.163408 -7.28749e-24)
(0.311194 -0.102809 1.63057e-20)
(0.106583 -0.0354406 6.4837e-24)
(1.00055 0.0119985 2.45153e-20)
(0.991185 0.0286935 -2.73042e-20)
(0.963784 0.0311849 1.18376e-22)
(0.914622 0.0074248 7.54351e-20)
(0.855279 -0.0621271 4.55134e-20)
(0.828847 -0.187545 0)
(0.874707 -0.323136 0)
(0.971962 -0.382727 2.32015e-20)
(1.03993 -0.375634 2.50768e-23)
(1.06497 -0.362073 -4.68673e-24)
(1.06983 -0.35207 0)
(1.06322 -0.342895 0)
(1.04156 -0.331627 7.74014e-25)
(0.996569 -0.315471 1.58812e-23)
(0.920618 -0.291519 0)
(0.810623 -0.257888 1.39865e-20)
(0.668397 -0.214373 -6.50623e-24)
(0.498651 -0.161913 1.39598e-23)
(0.308174 -0.101725 -7.04215e-24)
(0.105208 -0.0350172 -1.24568e-23)
(1.00084 0.0131242 -4.79749e-20)
(0.993643 0.0351131 1.30247e-21)
(0.968965 0.0477071 2.91537e-20)
(0.917272 0.0397637 -3.69156e-20)
(0.838642 -0.0135058 -8.28358e-22)
(0.778915 -0.146077 -6.51941e-20)
(0.811769 -0.334296 5.22101e-20)
(0.94332 -0.415476 -7.81852e-23)
(1.03724 -0.396604 -4.78803e-23)
(1.07088 -0.375994 -1.05847e-20)
(1.08044 -0.362856 -2.02535e-23)
(1.08017 -0.352804 0)
(1.07009 -0.342844 -7.67686e-21)
(1.04504 -0.330804 7.17599e-21)
(0.997148 -0.314017 -6.91968e-24)
(0.919133 -0.289678 -1.30094e-20)
(0.807853 -0.255975 5.96166e-24)
(0.664843 -0.212612 6.51079e-24)
(0.494844 -0.160413 -6.67194e-24)
(0.30503 -0.100631 7.0651e-24)
(0.103829 -0.0345926 -1.18302e-20)
(1.00105 0.0136154 2.34702e-20)
(0.996312 0.0394913 2.60295e-20)
(0.976279 0.0611028 -2.89748e-20)
(0.926795 0.0702185 1.25808e-22)
(0.835794 0.0420169 4.48575e-20)
(0.729875 -0.074604 6.65936e-20)
(0.712471 -0.328861 -5.4582e-20)
(0.885433 -0.449485 -3.15704e-20)
(1.0177 -0.414305 7.77109e-23)
(1.06621 -0.386423 1.05408e-20)
(1.08404 -0.371616 -1.96673e-23)
(1.09036 -0.361072 0)
(1.08789 -0.351686 7.53403e-21)
(1.07522 -0.341779 6.57077e-25)
(1.04755 -0.329536 6.47282e-21)
(0.997255 -0.312444 0)
(0.917341 -0.287883 0)
(0.804767 -0.254139 1.16837e-20)
(0.660962 -0.210887 0)
(0.490823 -0.15892 0)
(0.301829 -0.099542 1.24109e-20)
(0.102463 -0.0341707 5.46311e-24)
(1.00117 0.0135344 0)
(0.998884 0.0417495 -2.29696e-20)
(0.984721 0.0704085 -4.97143e-23)
(0.942491 0.0953356 -2.96692e-20)
(0.849723 0.0977249 -8.31576e-20)
(0.701275 0.0252973 -6.25211e-20)
(0.560594 -0.265044 -4.2001e-20)
(0.75094 -0.453942 3.83519e-20)
(0.939037 -0.40627 0)
(1.02335 -0.380826 3.44891e-23)
(1.06637 -0.370778 8.65343e-21)
(1.08823 -0.364325 0)
(1.096 -0.357343 7.17812e-21)
(1.09291 -0.349509 -6.26635e-24)
(1.07883 -0.340202 -6.32406e-21)
(1.04925 -0.328068 0)
(0.996902 -0.310864 5.64697e-21)
(0.915228 -0.286157 -5.40874e-21)
(0.801379 -0.252369 5.4443e-24)
(0.656827 -0.209197 -1.06929e-20)
(0.486667 -0.157441 -5.07557e-24)
(0.298603 -0.0984629 -5.23935e-25)
(0.10113 -0.0337583 -4.55459e-24)
(1.00123 0.01298 0)
(1.00112 0.0420585 2.31722e-20)
(0.99311 0.075321 -9.24105e-23)
(0.961996 0.1125 2.90405e-20)
(0.880247 0.145358 7.13759e-20)
(0.708551 0.132759 5.72708e-20)
(0.530506 -0.0878465 3.70491e-20)
(0.497356 -0.00384449 9.33466e-22)
(0.537679 -0.464924 0)
(0.355579 -0.207533 7.39405e-20)
(0.383434 -0.382849 -3.674e-22)
(0.807957 -0.384796 0)
(0.503159 -0.31212 -1.24089e-20)
(0.636061 -0.294718 0)
(0.875757 -0.328161 0)
(0.735824 -0.289289 0)
(0.989681 -0.342823 -9.10444e-21)
(1.05392 -0.352911 7.67427e-21)
(1.08578 -0.355197 -7.18877e-21)
(1.09748 -0.352532 3.03858e-24)
(1.09562 -0.346728 6.03365e-21)
(1.08117 -0.338341 1.66208e-23)
(1.05021 -0.326542 -5.43633e-21)
(0.996103 -0.309315 -5.16932e-21)
(0.912802 -0.28449 -4.97708e-21)
(0.79772 -0.250649 9.65344e-21)
(0.652494 -0.207539 0)
(0.48243 -0.155987 4.46602e-25)
(0.295404 -0.0974048 -5.39146e-24)
(0.0998293 -0.0333556 -9.09612e-21)
(1.00123 0.0120623 -3.79241e-23)
(1.0029 0.0407418 0)
(1.00055 0.0761999 0)
(0.981976 0.12101 -1.96689e-22)
(0.920768 0.17719 -3.26194e-20)
(0.761716 0.228527 -3.97739e-22)
(0.490104 0.102466 0)
(0.515323 0.202203 -2.4503e-20)
(0.278679 -0.0770311 -3.72024e-20)
(0.288513 -0.320754 3.21622e-22)
(0.201832 -0.252899 -1.15201e-20)
(0.197673 -0.235637 8.65364e-21)
(0.168355 -0.154946 4.13183e-21)
(0.301588 -0.250289 -1.99576e-22)
(0.459636 -0.21507 3.65397e-23)
(0.256578 -0.10715 0)
(0.165248 -0.114161 -5.68322e-22)
(0.508463 -0.187915 -6.25989e-22)
(0.359363 -0.146072 -1.0137e-21)
(0.654114 -0.232585 0)
(0.791652 -0.261892 0)
(0.587322 -0.19386 -1.24093e-23)
(0.947875 -0.309631 -8.22955e-21)
(1.03427 -0.335073 0)
(1.07783 -0.345414 0)
(1.09568 -0.347069 -1.52766e-22)
(1.09644 -0.343561 0)
(1.08237 -0.336377 -1.07222e-23)
(1.0505 -0.324994 -1.01434e-23)
(0.994874 -0.307782 9.43844e-21)
(0.910062 -0.282867 4.54732e-21)
(0.793825 -0.248976 0)
(0.648025 -0.20592 0)
(0.478162 -0.154557 4.64866e-24)
(0.292243 -0.0963732 9.46396e-21)
(0.0985723 -0.032965 8.34827e-21)
(1.00118 0.0108821 -3.57971e-23)
(1.00423 0.0381685 3.83242e-23)
(1.0066 0.0738242 0)
(0.999559 0.121909 0)
(0.96159 0.190805 1.88038e-22)
(0.849213 0.286537 7.04284e-22)
(0.558629 0.297038 2.33969e-20)
(0.622297 0.371901 -7.26559e-23)
(0.237016 0.0630709 0)
(0.344811 0.255568 8.24662e-23)
(0.318253 0.187552 0)
(0.0647753 -0.0945241 6.70522e-22)
(0.106792 -0.166589 7.84167e-21)
(0.116059 -0.157561 -3.80268e-21)
(0.0776764 -0.097882 0)
(0.147966 -0.0587487 8.1491e-22)
(0.0848553 -0.0374721 -2.54833e-21)
(0.243869 -0.0760995 6.72837e-22)
(0.420939 -0.130945 0)
(0.28818 -0.0993375 9.54499e-22)
(0.540598 -0.166636 3.26085e-21)
(0.725429 -0.219491 -1.92548e-21)
(0.506619 -0.149002 0)
(0.367195 -0.108464 -1.10187e-23)
(0.906011 -0.283379 7.17569e-21)
(1.01026 -0.318534 -1.19488e-23)
(1.0662 -0.335411 -5.91972e-21)
(1.09135 -0.341215 4.64872e-24)
(1.09564 -0.340296 0)
(1.0826 -0.334348 9.00571e-24)
(1.05015 -0.323404 -4.5473e-21)
(0.993216 -0.306259 -4.3096e-21)
(0.907027 -0.281284 4.15655e-21)
(0.789744 -0.247349 3.79281e-24)
(0.643458 -0.204333 8.17259e-21)
(0.473901 -0.153165 0)
(0.289145 -0.0953702 -8.65986e-21)
(0.0973598 -0.0325879 -3.51194e-24)
(1.00111 0.00952337 0)
(1.00516 0.0346838 -1.80131e-20)
(1.01117 0.0690668 0)
(1.01336 0.117052 -1.82825e-20)
(0.997615 0.189014 -1.8877e-20)
(0.938574 0.303899 2.08216e-20)
(0.699551 0.433123 0)
(0.783437 0.461536 -7.13346e-22)
(0.318535 0.353561 2.21079e-20)
(0.425196 0.466554 -2.01282e-20)
(0.0417889 -0.0443832 0)
(0.0312251 0.0101044 0)
(0.171066 0.155133 -1.16779e-20)
(0.193303 0.240894 1.14773e-20)
(0.039099 -0.0782486 -1.46408e-20)
(0.105114 -0.0314047 5.37498e-22)
(0.214749 -0.0602937 1.37884e-23)
(0.0816111 -0.022341 -4.00171e-23)
(0.199497 -0.0544677 8.85116e-22)
(0.332271 -0.0929531 -3.70422e-21)
(0.480318 -0.135903 -3.36346e-21)
(0.674972 -0.194952 -7.9557e-21)
(0.460766 -0.127238 2.02944e-22)
(0.30772 -0.0843407 0)
(0.175123 -0.0472609 7.34275e-24)
(0.184969 -0.049827 -1.46484e-23)
(0.865937 -0.262557 -6.71925e-21)
(0.984341 -0.303286 1.28026e-23)
(1.05218 -0.325427 -1.01386e-23)
(1.0851 -0.335493 -7.98774e-25)
(1.09359 -0.336981 8.7897e-24)
(1.08196 -0.332221 -1.72266e-23)
(1.04919 -0.321771 4.13078e-21)
(0.99115 -0.304745 -3.93957e-21)
(0.903733 -0.279735 7.42558e-24)
(0.785504 -0.24576 -1.48222e-20)
(0.63884 -0.202789 7.47803e-21)
(0.469675 -0.151809 0)
(0.286121 -0.0944005 -3.77523e-24)
(0.0961991 -0.032225 3.5308e-24)
(1.00102 0.00805178 0)
(1.00577 0.0305774 1.09765e-21)
(1.01441 0.0626778 0)
(1.0234 0.108349 1.85463e-20)
(1.0251 0.1773 3.48472e-20)
(1.00745 0.2912 -4.81262e-21)
(0.899638 0.546713 -5.31874e-21)
(0.561425 0.556926 0)
(0.694717 0.61141 1.00962e-20)
(0.0646308 0.193557 2.66458e-21)
(0.100829 0.250986 0)
(0.208101 0.350634 -1.24728e-21)
(0.14977 0.30393 -8.81244e-22)
(0.03103 0.0712885 -3.71191e-22)
(0.0414053 0.132224 0)
(0.069654 -0.0176485 0)
(0.0645873 -0.0161829 -5.69675e-22)
(0.165007 -0.0433102 1.00098e-21)
(0.158942 -0.0415937 -7.61302e-24)
(0.290571 -0.0770187 3.7899e-21)
(0.443199 -0.120881 -3.30644e-24)
(0.633581 -0.178833 5.61253e-21)
(0.429072 -0.115849 -3.25579e-21)
(0.277962 -0.072923 2.27987e-21)
(0.147403 -0.0383748 0)
(0.152059 -0.039527 -9.71656e-22)
(0.0566467 -0.0142445 -2.76241e-25)
(0.0601202 -0.0149779 2.75518e-25)
(0.827994 -0.245063 6.25819e-21)
(0.957722 -0.28895 -7.02047e-25)
(1.03676 -0.316367 -8.71654e-24)
(1.07769 -0.329942 -4.60661e-21)
(1.09053 -0.333569 -1.68536e-23)
(1.0805 -0.330007 -4.03516e-21)
(1.04765 -0.320106 3.875e-24)
(0.988709 -0.303238 3.68311e-24)
(0.900207 -0.278216 1.03682e-20)
(0.781147 -0.244211 1.15969e-22)
(0.634201 -0.201285 2.94077e-25)
(0.465504 -0.150494 3.2589e-24)
(0.28319 -0.0934637 3.24939e-25)
(0.0950867 -0.0318759 0)
(1.00093 0.0065166 0)
(1.00613 0.0260771 2.54918e-20)
(1.01656 0.0552311 0)
(1.03033 0.0973372 0)
(1.04375 0.160511 -2.47305e-21)
(1.05308 0.2615 -1.52992e-20)
(1.05191 0.494405 6.87516e-21)
(0.770973 0.69443 -1.55045e-22)
(0.964219 0.747479 2.84607e-21)
(0.279239 0.474189 -3.57921e-21)
(0.435292 0.586243 7.25778e-21)
(0.657854 0.685683 0)
(0.551915 0.636371 -2.87044e-21)
(0.0533029 -0.0132368 0)
(0.0513096 -0.012767 5.91115e-25)
(0.142426 -0.0363385 -2.33044e-23)
(0.139641 -0.0355421 -1.0095e-21)
(0.267891 -0.0694434 -7.53307e-22)
(0.414981 -0.111693 4.94871e-23)
(0.595816 -0.165674 -6.96665e-21)
(0.402492 -0.107523 0)
(0.259263 -0.0671084 2.94269e-21)
(0.133955 -0.0339929 1.02129e-21)
(0.136217 -0.0346013 3.97735e-24)
(0.0474667 -0.0118525 2.43179e-24)
(0.0491752 -0.0122063 6.19334e-22)
(0.790959 -0.22875 -1.21001e-23)
(0.931596 -0.27701 -1.97976e-23)
(1.0213 -0.308092 4.76365e-21)
(1.06957 -0.324481 0)
(1.08657 -0.330103 8.06623e-24)
(1.0783 -0.327737 3.45706e-24)
(1.04558 -0.318415 0)
(0.985925 -0.301737 -3.28798e-21)
(0.896479 -0.276725 -3.11693e-21)
(0.776694 -0.2427 -6.25921e-21)
(0.629567 -0.199823 2.67053e-25)
(0.461409 -0.149218 -6.25328e-24)
(0.280349 -0.0925594 6.91558e-21)
(0.0940188 -0.0315391 -2.71934e-24)
(1.00083 0.00495447 0)
(1.00631 0.0213537 -8.28798e-21)
(1.01789 0.047152 0)
(1.03483 0.0850675 1.37727e-20)
(1.05558 0.141473 -1.39463e-20)
(1.08139 0.227575 0)
(1.12364 0.407309 -1.14518e-20)
(1.18084 0.631453 -1.63121e-21)
(0.460626 0.474521 0)
(0.599257 0.478516 -5.89112e-21)
(0.382228 0.325592 4.55268e-21)
(0.809596 0.498516 -3.41346e-23)
(0.100265 0.201888 0)
(0.254597 0.349118 0)
(0.346202 0.372752 0)
(0.0458471 -0.0113318 -1.27509e-21)
(0.0449609 -0.0111138 5.33146e-24)
(0.131123 -0.0330825 1.01587e-21)
(0.129531 -0.0325756 1.02305e-21)
(0.251398 -0.064752 2.1546e-21)
(0.388633 -0.10394 0)
(0.554053 -0.15105 1.53348e-21)
(0.373983 -0.0991354 0)
(0.243815 -0.0627867 -6.57568e-22)
(0.12565 -0.0316322 -9.98184e-22)
(0.12722 -0.0321283 2.00682e-21)
(0.0431652 -0.0106716 0)
(0.0439585 -0.0108603 -3.1297e-25)
(0.756815 -0.216141 -4.39092e-23)
(0.908018 -0.266791 2.01306e-23)
(1.00629 -0.30038 0)
(1.06089 -0.319177 -3.69226e-24)
(1.08186 -0.326637 -3.60351e-21)
(1.07545 -0.325432 -3.45092e-24)
(1.04304 -0.316701 3.17328e-21)
(0.98283 -0.300239 -3.01192e-21)
(0.892569 -0.275262 5.77238e-21)
(0.772166 -0.241227 -2.9067e-24)
(0.624949 -0.1984 2.90937e-24)
(0.457401 -0.147981 -5.75638e-21)
(0.277601 -0.0916823 2.91383e-24)
(0.0929897 -0.0312139 5.46019e-21)
(1.00073 0.00339129 0)
(1.00636 0.0165304 1.47154e-23)
(1.01859 0.0387506 -1.2184e-23)
(1.03747 0.072204 -1.39856e-20)
(1.06262 0.12163 0)
(1.09813 0.195052 0)
(1.15186 0.324675 6.87193e-21)
(1.32143 0.542923 3.07813e-24)
(0.825951 0.263745 0)
(1.17051 0.395126 6.59535e-23)
(0.18748 0.214628 2.01503e-22)
(0.209337 0.139545 0)
(0.612184 0.280868 5.58345e-23)
(0.237223 0.120869 5.69605e-21)
(0.042309 -0.0104299 -6.4747e-22)
(0.0418136 -0.0102869 0)
(0.123473 -0.0310851 -9.64885e-25)
(0.122174 -0.0306154 1.06124e-23)
(0.235869 -0.0606309 -1.32682e-21)
(0.354017 -0.0938413 -2.795e-21)
(0.515668 -0.13976 0)
(0.328885 -0.0849256 -2.7063e-21)
(0.226217 -0.0582279 1.02862e-23)
(0.118874 -0.0298207 5.50398e-24)
(0.120259 -0.0303151 3.69325e-24)
(0.0405994 -0.0100009 0)
(0.0411648 -0.0101541 -6.38401e-22)
(0.729169 -0.205969 4.49746e-23)
(0.887022 -0.257794 1.73048e-23)
(0.991711 -0.293252 3.78396e-24)
(1.05179 -0.31407 3.66721e-21)
(1.07652 -0.323197 0)
(1.07202 -0.323101 -3.10944e-21)
(1.04007 -0.314967 0)
(0.979445 -0.298752 2.82529e-24)
(0.888492 -0.273829 2.72088e-24)
(0.767588 -0.239792 5.27613e-21)
(0.620383 -0.197013 -2.44666e-24)
(0.453483 -0.146771 0)
(0.274935 -0.0908329 -5.60293e-21)
(0.0920039 -0.0309008 4.9148e-21)
(1.00063 0.0018456 0)
(1.00631 0.0116945 0)
(1.01886 0.030242 -1.43864e-23)
(1.03876 0.0591684 2.621e-23)
(1.06635 0.101849 4.88475e-21)
(1.1067 0.164395 0)
(1.16366 0.259564 -2.61479e-21)
(1.33707 0.432149 0)
(1.35132 0.350144 -5.14137e-20)
(0.196915 0.0520298 4.87412e-21)
(0.6598 0.167375 0)
(0.313129 0.0780712 0)
(0.901854 0.166839 3.51321e-20)
(0.0399567 -0.00984199 -6.2348e-22)
(0.0395277 -0.00970893 6.17571e-22)
(0.116918 -0.0294229 4.70791e-24)
(0.115417 -0.0288917 1.81653e-21)
(0.210782 -0.0543344 2.13288e-21)
(0.305743 -0.0799237 0)
(0.491112 -0.131554 0)
(0.294216 -0.0765909 0)
(0.176287 -0.0438108 0)
(0.1105 -0.0277864 1.74165e-21)
(0.113254 -0.0286113 -3.72234e-24)
(0.0385045 -0.0094652 5.99173e-22)
(0.0389926 -0.00961024 -5.87492e-25)
(0.706586 -0.197669 1.94302e-23)
(0.867957 -0.249872 -1.75468e-23)
(0.977551 -0.286658 -3.81417e-24)
(1.04239 -0.309167 3.32939e-21)
(1.07065 -0.319791 0)
(1.06809 -0.320749 -2.67272e-24)
(1.0367 -0.313226 0)
(0.975794 -0.297284 -4.77504e-24)
(0.884279 -0.272427 -4.85154e-21)
(0.762986 -0.238381 -2.00014e-25)
(0.615858 -0.195646 2.01925e-25)
(0.449655 -0.145591 5.01435e-21)
(0.272358 -0.0900094 0)
(0.0910627 -0.0306009 -2.11103e-24)
(1.00055 0.000330705 0)
(1.0062 0.00690639 -7.50498e-21)
(1.01882 0.0217693 0)
(1.03913 0.0462285 1.03317e-23)
(1.06783 0.0826398 -4.97303e-21)
(1.10972 0.135466 -2.82675e-21)
(1.16837 0.20872 -5.91458e-22)
(1.30916 0.333094 -3.09909e-23)
(1.48644 0.340917 3.66619e-20)
(1.03899 0.0993765 2.72456e-20)
(0.461438 0.0515855 4.71032e-22)
(0.17936 0.0101704 -1.07401e-20)
(0.606027 0.0139998 2.60153e-20)
(0.0379427 -0.00934182 3.33626e-24)
(0.0374559 -0.00919508 -1.15712e-21)
(0.105374 -0.0270073 -8.43628e-22)
(0.0969895 -0.0232581 4.2149e-22)
(0.151633 -0.0386696 6.02319e-22)
(0.286096 -0.0740791 0)
(0.473507 -0.126 -1.46322e-21)
(0.280685 -0.0720997 0)
(0.144949 -0.0364836 -5.56918e-22)
(0.0431263 -0.0116888 -1.80495e-22)
(0.0651467 -0.0121009 -2.65126e-22)
(0.035983 -0.00886833 -5.56766e-22)
(0.0368436 -0.00909768 -5.6934e-22)
(0.68719 -0.190734 -4.83548e-21)
(0.850392 -0.242795 0)
(0.963735 -0.280525 -3.49985e-21)
(1.03273 -0.304446 0)
(1.06433 -0.316409 0)
(1.06369 -0.318388 2.66746e-24)
(1.03296 -0.311497 0)
(0.971904 -0.295841 9.156e-24)
(0.879949 -0.271038 0)
(0.758361 -0.236982 -2.24423e-24)
(0.611394 -0.194302 -4.33707e-21)
(0.445923 -0.14444 2.31487e-24)
(0.269877 -0.0892139 0)
(0.0901488 -0.0303096 2.12058e-24)
(1.00046 -0.00114272 0)
(1.00604 0.00220834 1.51377e-20)
(1.01858 0.0134217 -6.78515e-21)
(1.03888 0.0335379 0)
(1.06783 0.0642116 -1.68069e-23)
(1.1094 0.108446 2.88957e-21)
(1.16805 0.167001 6.20354e-22)
(1.2783 0.25511 6.70614e-21)
(1.4751 0.290834 3.34281e-23)
(1.41894 0.163802 -9.50033e-20)
(0.674874 -0.0333978 -9.42254e-20)
(0.370412 -0.0178361 3.98014e-20)
(0.317731 -0.0143437 0)
(0.097407 -0.016415 1.01015e-20)
(0.231775 -0.0240278 1.46206e-20)
(0.0340228 -0.00867797 9.64485e-24)
(0.0315189 -0.00826277 0)
(0.0375838 -0.00956852 -4.9317e-22)
(0.0350248 -0.00888975 -6.11239e-22)
(0.141303 -0.0353971 -6.05816e-22)
(0.275186 -0.0709577 2.50408e-21)
(0.458997 -0.121763 5.47617e-21)
(0.271259 -0.0695966 0)
(0.138514 -0.0346122 5.60576e-22)
(0.0339362 -0.00831522 0)
(0.0342943 -0.00854655 5.79657e-22)
(0.0181452 -0.00320487 9.77613e-23)
(0.670077 -0.184642 0)
(0.833872 -0.236368 -7.02722e-24)
(0.950124 -0.274767 0)
(1.02283 -0.299844 0)
(1.05757 -0.31305 0)
(1.05887 -0.316055 2.41159e-21)
(1.02889 -0.309804 2.27571e-21)
(0.967807 -0.294406 -4.38281e-24)
(0.875516 -0.269647 0)
(0.753725 -0.235586 1.89445e-24)
(0.606993 -0.192976 4.10879e-21)
(0.442289 -0.143313 0)
(0.267464 -0.0884417 -2.07355e-24)
(0.0892764 -0.0300305 1.78507e-24)
(1.00039 -0.00256488 7.84927e-21)
(1.00584 -0.00236843 -7.6372e-21)
(1.01818 0.00525435 6.89698e-21)
(1.03825 0.0211746 -5.67439e-21)
(1.06692 0.0465991 0)
(1.1073 0.0833979 6.55476e-24)
(1.16403 0.131203 0)
(1.25474 0.195481 -1.02913e-20)
(1.41826 0.233686 -1.25874e-23)
(1.53223 0.173735 8.02795e-21)
(1.20374 0.0311937 5.48486e-20)
(0.481862 -0.0738122 -8.02198e-20)
(0.193265 -0.0282442 5.03823e-20)
(0.234559 -0.0473787 -2.05951e-20)
(0.11756 -0.00989908 0)
(0.158955 -0.0225342 1.47621e-23)
(0.0613222 -0.0134497 3.95436e-23)
(0.0335083 -0.00828261 5.5199e-22)
(0.033322 -0.00815577 -5.42851e-22)
(0.136074 -0.0340544 5.38619e-22)
(0.266639 -0.068779 -2.30943e-21)
(0.446841 -0.117636 1.21745e-21)
(0.263169 -0.0676999 -1.68812e-23)
(0.134001 -0.0334942 5.36272e-22)
(0.0328 -0.00801855 -5.25125e-22)
(0.0329249 -0.00812742 -2.06578e-24)
(0.654304 -0.179232 -4.19843e-21)
(0.817947 -0.230436 7.08368e-24)
(0.936554 -0.269228 -2.78463e-24)
(1.01266 -0.295308 0)
(1.05043 -0.309767 -2.41303e-21)
(1.05369 -0.313808 -2.23479e-21)
(1.02456 -0.308132 -3.92862e-24)
(0.96353 -0.292953 -3.7105e-24)
(0.870991 -0.26824 1.78038e-24)
(0.749097 -0.234196 -3.66512e-21)
(0.602657 -0.191666 -3.77727e-21)
(0.438748 -0.142218 1.79527e-24)
(0.265142 -0.0876965 1.71786e-25)
(0.0884388 -0.029761 -3.4344e-24)
(1.00032 -0.00392522 -7.91386e-21)
(1.00561 -0.00679635 0)
(1.01768 -0.00269758 7.85749e-25)
(1.03737 0.00916864 3.62817e-23)
(1.06548 0.029754 3.19679e-24)
(1.10434 0.060162 0)
(1.15798 0.0995705 1.58314e-24)
(1.23655 0.148647 3.06757e-22)
(1.36372 0.182213 7.46903e-21)
(1.51228 0.156046 5.90204e-20)
(1.46772 0.0667697 0)
(0.997548 -0.0438169 5.79969e-20)
(0.400464 -0.0725342 -2.07022e-20)
(0.182605 -0.0369296 -2.71768e-22)
(0.170501 -0.045721 4.78996e-21)
(0.062838 -0.00902493 -1.9903e-22)
(0.0668502 -0.0146032 -1.24524e-20)
(0.0776681 -0.015288 1.30792e-20)
(0.0822666 -0.023326 1.33542e-20)
(0.0228012 -0.00481607 0)
(0.0371443 -0.00980506 -9.51233e-21)
(0.0324102 -0.00800401 -5.14545e-22)
(0.0322945 -0.00790329 -5.05821e-22)
(0.131883 -0.0330484 1.52867e-21)
(0.259578 -0.0672845 -2.18459e-21)
(0.435367 -0.114227 5.93744e-21)
(0.257549 -0.0656756 -1.85078e-21)
(0.129759 -0.0325848 0)
(0.031833 -0.00778275 1.92594e-24)
(0.0319384 -0.00788672 -9.95016e-22)
(0.639188 -0.174245 -3.95658e-21)
(0.802194 -0.224748 -3.2069e-21)
(0.922817 -0.263733 2.79233e-24)
(1.00223 -0.290897 -4.63656e-24)
(1.04302 -0.306677 -3.20198e-25)
(1.04826 -0.311626 2.06759e-21)
(1.02 -0.306439 3.92356e-24)
(0.959082 -0.291471 3.70573e-24)
(0.866394 -0.26682 1.76083e-21)
(0.744477 -0.232809 3.36661e-21)
(0.598402 -0.19038 0)
(0.435314 -0.14115 -1.79723e-24)
(0.262895 -0.0869739 1.90962e-24)
(0.0876343 -0.0295028 -3.31193e-21)
(1.00025 -0.0052102 0)
(1.00533 -0.0110464 2.00623e-24)
(1.01706 -0.0104068 0)
(1.03632 -0.00248004 5.835e-21)
(1.06377 0.0135937 4.23694e-21)
(1.10106 0.0384642 -4.19096e-24)
(1.15129 0.0711045 0)
(1.22107 0.110063 3.18082e-21)
(1.32273 0.138942 -1.45391e-20)
(1.45385 0.128324 -2.75792e-20)
(1.53147 0.0739712 6.55818e-23)
(1.35043 -0.0112582 0)
(0.846248 -0.0817854 -1.22197e-22)
(0.355986 -0.0665708 -8.15235e-20)
(0.170098 -0.0309917 -5.66674e-22)
(0.174947 -0.0402229 3.27277e-20)
(0.0911758 -0.0192283 -1.57639e-22)
(0.0869843 -0.0208995 0)
(0.0752456 -0.0175611 -5.726e-21)
(0.061687 -0.02045 0)
(0.0110747 -0.00226045 8.17615e-21)
(0.013484 -0.00392351 0)
(0.016924 -0.00431931 -6.47943e-23)
(0.0145249 -0.00638294 -8.31659e-21)
(0.0314663 -0.00777593 4.77223e-22)
(0.0313522 -0.00767567 -4.70799e-22)
(0.127855 -0.0323311 2.30304e-21)
(0.252901 -0.0644415 -4.49732e-22)
(0.424566 -0.111162 5.51896e-21)
(0.250255 -0.0635249 -2.20411e-21)
(0.157839 -0.0419607 0)
(0.158034 -0.040825 5.64527e-22)
(0.0308343 -0.00757018 -1.76565e-24)
(0.0309749 -0.00765713 -4.60665e-22)
(0.624 -0.169392 3.6898e-21)
(0.785979 -0.218958 0)
(0.908886 -0.258292 0)
(0.991739 -0.286865 4.64741e-24)
(1.03553 -0.303754 -2.08717e-21)
(1.04266 -0.30945 1.9138e-21)
(1.01523 -0.304714 0)
(0.954482 -0.289961 -1.65816e-21)
(0.861741 -0.26539 0)
(0.739894 -0.231429 0)
(0.594241 -0.189117 0)
(0.431977 -0.140112 -3.30613e-21)
(0.260724 -0.0862764 3.35207e-21)
(0.0868592 -0.0292548 -2.90388e-24)
(1.00019 -0.00640289 0)
(1.005 -0.0150828 -3.97252e-24)
(1.01633 -0.0178429 3.38384e-24)
(1.03513 -0.0137822 0)
(1.06194 -0.00198761 -8.73928e-21)
(1.0978 0.0180019 2.36215e-21)
(1.14484 0.0450933 1.05614e-24)
(1.20743 0.0769375 0)
(1.29248 0.102302 6.98081e-21)
(1.39925 0.0998673 -1.17486e-23)
(1.50204 0.0656024 0)
(1.49852 0.00617575 -1.37777e-22)
(1.22894 -0.06487 -4.32687e-20)
(0.742928 -0.0969833 6.21225e-20)
(0.335129 -0.0643558 -9.66371e-20)
(0.157052 -0.0295152 3.39851e-20)
(0.15785 -0.0352819 -1.32938e-22)
(0.0620339 -0.0132609 -6.96271e-21)
(0.0898996 -0.0207211 -1.03377e-20)
(0.0897725 -0.022711 1.0164e-20)
(0.0435178 -0.0101532 -1.36296e-22)
(0.0413664 -0.0093131 0)
(0.0250955 -0.00337838 3.91882e-21)
(0.0120227 -0.00409344 -8.6592e-21)
(0.0305125 -0.00754473 -4.50679e-22)
(0.0302894 -0.00756496 -4.40582e-22)
(0.0936261 -0.0252181 -6.09142e-22)
(0.156905 -0.0397723 5.73134e-22)
(0.156382 -0.0392587 0)
(0.247136 -0.063052 3.36009e-24)
(0.413456 -0.108037 -9.77951e-22)
(0.24458 -0.0621644 -1.64158e-21)
(0.155542 -0.0390379 5.56322e-22)
(0.154882 -0.0387792 5.52116e-22)
(0.0937788 -0.0241272 -1.01294e-21)
(0.607485 -0.164223 0)
(0.769084 -0.212748 0)
(0.895141 -0.253509 0)
(0.981569 -0.283158 8.07163e-24)
(1.02807 -0.300901 -1.92367e-21)
(1.03687 -0.307266 0)
(1.01026 -0.302963 0)
(0.949765 -0.28843 0)
(0.85706 -0.26395 0)
(0.735361 -0.23006 0)
(0.590167 -0.187878 5.79449e-21)
(0.428731 -0.139102 -1.39914e-24)
(0.258626 -0.0856052 -3.24435e-21)
(0.0861176 -0.0290159 2.81124e-21)
(1.00013 -0.00748065 4.42154e-24)
(1.00459 -0.018857 8.38708e-24)
(1.01545 -0.0249644 3.97238e-24)
(1.03377 -0.0247434 -3.3594e-24)
(1.06002 -0.0170954 9.19063e-21)
(1.09473 -0.00152619 -4.9605e-21)
(1.13907 0.0209347 0)
(1.19572 0.0475922 0)
(1.26899 0.0703017 -5.60341e-21)
(1.35744 0.0733296 0)
(1.45055 0.0511384 -1.24295e-20)
(1.51464 0.010081 0)
(1.43997 -0.046925 3.85268e-20)
(1.12203 -0.0974196 -8.78256e-23)
(0.674559 -0.101647 6.18635e-20)
(0.320414 -0.0629653 -3.71154e-20)
(0.161589 -0.0319512 -7.2333e-22)
(0.157659 -0.0351191 6.34741e-20)
(0.058403 -0.0133535 -2.94555e-20)
(0.056952 -0.0135873 7.19143e-21)
(0.0112594 -0.00240312 6.55256e-21)
(0.0450381 -0.0113494 -1.64655e-22)
(0.0113981 -0.00353799 0)
(0.0447733 -0.0116058 -8.59098e-21)
(0.0106638 -0.00303139 -6.13599e-21)
(0.0107807 -0.00306541 -6.06828e-21)
(0.00642196 -0.000864755 4.6726e-21)
(0.0305722 -0.00794178 4.26576e-22)
(0.0921352 -0.0231667 1.969e-24)
(0.0915604 -0.0227822 -5.03489e-22)
(0.153948 -0.0387012 5.38668e-22)
(0.153283 -0.0384876 5.27879e-22)
(0.24142 -0.0615838 0)
(0.399946 -0.104384 -1.02103e-21)
(0.238351 -0.0605076 1.52118e-21)
(0.152364 -0.038329 5.01814e-25)
(0.151626 -0.0380382 -5.02568e-25)
(0.0911207 -0.022634 -9.87549e-22)
(0.0907345 -0.022511 -4.92348e-22)
(0.0305416 -0.00767807 3.75772e-22)
(0.58811 -0.15755 0)
(0.752543 -0.207598 0)
(0.882412 -0.249257 8.58218e-24)
(0.971842 -0.279622 1.97607e-21)
(1.02061 -0.298103 0)
(1.03093 -0.305085 3.04803e-24)
(1.00514 -0.301192 0)
(0.944958 -0.286878 1.42983e-21)
(0.852373 -0.262505 -1.37807e-21)
(0.730889 -0.228706 -2.62443e-21)
(0.586191 -0.186668 2.72167e-21)
(0.42558 -0.138122 2.68059e-21)
(0.256603 -0.0849561 -2.82742e-21)
(0.0853995 -0.028784 -2.34512e-24)
(1.00007 -0.0084138 0)