/*--------------------------------*- C++ -*----------------------------------*\
| =========                 |                                                 |
| \\      /  F ield         | OpenFOAM: The Open Source CFD Toolbox           |
|  \\    /   O peration     | Version:  v1912                                 |
|   \\  /    A nd           | Website:  www.openfoam.com                      |
|    \\/     M anipulation  |                                                 |
\*---------------------------------------------------------------------------*/
FoamFile
{
    version     2.0;
    format      ascii;
    class       volVectorField;
    location    "140";
    object      U;
}
// * * * * * * * * * * * * * * * * * * * * * * * * * * * * * * * * * * * * * //

dimensions      [0 1 -1 0 0 0 0];


internalField   nonuniform List<vector> 
3753
(
(0.440859 -0.0541622 -7.77506e-21)
(0.79082 -0.0850427 2.23381e-20)
(0.123737 -0.047193 -8.96853e-21)
(0.928101 -0.0780837 1.19293e-20)
(0.444308 -0.106821 9.98863e-21)
(0.0903878 -0.0407509 0)
(0.977188 -0.0656674 -2.77785e-20)
(0.692916 -0.143325 1.68141e-24)
(0.301853 -0.114761 -1.05035e-24)
(0.0929744 -0.0404878 0)
(0.991163 -0.0571643 -1.11713e-24)
(0.844976 -0.158309 -2.93245e-20)
(0.523714 -0.174188 2.64956e-25)
(0.277703 -0.119664 0)
(0.0998966 -0.0411172 -1.40592e-20)
(0.993434 -0.0517163 -6.18734e-20)
(0.923996 -0.161 2.79534e-20)
(0.70641 -0.215176 -3.41055e-20)
(0.465513 -0.190738 -3.10416e-20)
(0.285346 -0.119983 0)
(0.0986939 -0.0406344 -6.79304e-21)
(0.992974 -0.0476094 1.35466e-19)
(0.959463 -0.158072 0)
(0.829695 -0.238931 7.58683e-20)
(0.639203 -0.248663 2.85225e-20)
(0.461351 -0.191747 -2.89055e-24)
(0.285287 -0.117739 8.60157e-21)
(0.0964114 -0.0401034 -3.41242e-21)
(0.99242 -0.0440124 -7.37729e-20)
(0.972801 -0.152919 -6.82592e-20)
(0.900439 -0.250374 -4.25152e-20)
(0.775812 -0.291003 -4.00579e-20)
(0.624762 -0.253827 0)
(0.459554 -0.187733 9.30645e-21)
(0.280947 -0.116325 2.42663e-21)
(0.0952364 -0.0395318 0)
(0.99222 -0.040473 -1.0307e-23)
(0.976205 -0.146878 6.83763e-20)
(0.935143 -0.254555 0)
(0.867627 -0.319602 3.86746e-20)
(0.763184 -0.303273 -3.21735e-24)
(0.61854 -0.249185 -8.50864e-21)
(0.454231 -0.185515 -7.86738e-25)
(0.277636 -0.11482 -3.06173e-21)
(0.0934085 -0.0387546 0)
(0.992268 -0.0366851 1.04342e-19)
(0.975454 -0.140153 -9.74196e-20)
(0.948625 -0.254966 -1.03461e-23)
(0.921424 -0.338869 6.17435e-20)
(0.866997 -0.339642 5.26887e-24)
(0.755761 -0.299916 0)
(0.611562 -0.246467 0)
(0.449657 -0.183298 8.04765e-22)
(0.273644 -0.112724 -8.09561e-25)
(0.0910752 -0.0379019 0)
(0.992425 -0.0324464 8.07255e-21)
(0.972813 -0.132425 2.0996e-19)
(0.950398 -0.253412 1.10412e-19)
(0.949163 -0.353419 1.5416e-20)
(0.936999 -0.36546 0)
(0.864141 -0.338834 -1.55874e-24)
(0.747777 -0.29757 -2.29224e-25)
(0.606341 -0.243824 2.90196e-21)
(0.444502 -0.180336 6.18932e-25)
(0.268552 -0.110505 -1.40022e-20)
(0.0888478 -0.0370637 1.50529e-20)
(0.992633 -0.0276213 -1.13767e-19)
(0.968967 -0.12317 -1.12416e-19)
(0.945241 -0.250474 -1.11893e-19)
(0.961037 -0.366722 -1.64728e-19)
(0.981438 -0.384584 -3.23797e-24)
(0.942294 -0.367183 0)
(0.857793 -0.337756 0)
(0.742565 -0.295006 -1.06145e-21)
(0.600895 -0.240364 6.43525e-21)
(0.438056 -0.177296 6.14018e-22)
(0.263292 -0.108346 -1.84865e-20)
(0.0867401 -0.0362454 1.75231e-20)
(0.992917 -0.0221209 0)
(0.96405 -0.111762 0)
(0.934943 -0.246004 -7.06901e-23)
(0.96326 -0.38096 1.96349e-19)
(1.00978 -0.400437 2.15337e-20)
(0.995408 -0.38785 3.23588e-24)
(0.939887 -0.36762 -6.28381e-25)
(0.854035 -0.335829 6.80807e-25)
(0.737586 -0.29146 -2.41175e-22)
(0.594154 -0.236898 1.06725e-20)
(0.431135 -0.174353 -1.51421e-20)
(0.25815 -0.106222 -2.14023e-20)
(0.0847312 -0.0354731 0)
(0.993366 -0.0158995 0)
(0.958056 -0.0974908 1.50985e-19)
(0.919821 -0.239509 1.85723e-19)
(0.958666 -0.397339 -1.0444e-19)
(1.02895 -0.415241 -2.09559e-20)
(1.03121 -0.403809 1.89823e-24)
(0.997322 -0.389235 6.76161e-25)
(0.939024 -0.366503 6.29668e-25)
(0.85043 -0.332607 -8.63943e-23)
(0.731374 -0.287906 9.18618e-21)
(0.586762 -0.233578 1.36517e-20)
(0.424151 -0.171438 2.30901e-24)
(0.253162 -0.104202 2.30759e-20)
(0.0828581 -0.0347419 -5.23756e-24)
(0.994104 -0.00897206 6.70424e-20)
(0.951001 -0.0796095 -7.00843e-20)
(0.899821 -0.230242 2.74055e-20)
(0.947658 -0.416343 3.4307e-23)
(1.04228 -0.429745 3.24299e-23)
(1.05572 -0.416927 3.21762e-21)
(1.03593 -0.404876 -5.61158e-21)
(0.999492 -0.388425 -1.26417e-24)
(0.937525 -0.363743 4.68298e-23)
(0.8454 -0.329229 -8.58622e-21)
(0.724408 -0.284499 1.19093e-20)
(0.579083 -0.230274 0)
(0.417228 -0.16865 -4.00931e-20)
(0.248412 -0.102274 -1.21619e-23)
(0.081084 -0.0340415 2.22029e-20)
(0.995208 -0.00147205 -1.34464e-19)
(0.943207 -0.0574651 3.40809e-21)
(0.875086 -0.216674 -2.19593e-19)
(0.927756 -0.437915 0)
(1.04886 -0.44227 3.67456e-23)
(1.07038 -0.427063 -3.14727e-21)
(1.0599 -0.415529 5.48722e-21)
(1.03935 -0.403088 -6.89286e-25)
(0.999741 -0.385692 -4.85259e-21)
(0.933944 -0.360554 0)
(0.839406 -0.325884 -1.11185e-20)
(0.716926 -0.281074 -6.86335e-24)
(0.571263 -0.2271 1.77781e-20)
(0.4105 -0.165949 -5.09475e-24)
(0.243853 -0.100401 6.30133e-24)
(0.0794022 -0.0333799 2.29483e-20)
(0.996589 0.00612804 6.7289e-20)
(0.936164 -0.0305242 -8.16686e-20)
(0.845444 -0.195058 4.65516e-22)
(0.890489 -0.458851 0)
(1.04039 -0.447367 9.32446e-21)
(1.06905 -0.43032 -1.30021e-21)
(1.06766 -0.419462 4.72142e-21)
(1.06043 -0.410501 -6.56653e-25)
(1.03913 -0.399194 1.55274e-24)
(0.996865 -0.382198 7.88428e-21)
(0.928921 -0.357153 1.0412e-20)
(0.832594 -0.322427 -1.30379e-20)
(0.709038 -0.277768 7.67264e-24)
(0.563491 -0.223981 -9.19158e-24)
(0.403953 -0.163281 -2.24283e-20)
(0.239466 -0.0986202 6.63081e-24)
(0.0778452 -0.0327661 0)
(0.998214 0.0131456 -6.50023e-20)
(0.934002 0.000889647 3.21539e-21)
(0.808473 -0.157311 -1.01056e-21)
(0.816375 -0.461889 -1.15034e-19)
(0.993028 -0.436195 -9.46511e-21)
(1.03293 -0.416505 -2.9006e-21)
(1.04786 -0.410632 -4.73747e-21)
(1.0581 -0.40764 -1.07425e-21)
(1.05524 -0.40341 -9.40645e-25)
(1.03454 -0.394225 -7.68889e-21)
(0.991817 -0.37817 -1.00165e-20)
(0.922614 -0.353466 1.23543e-20)
(0.825037 -0.319055 0)
(0.700988 -0.274461 -1.69511e-20)
(0.555778 -0.220824 1.99952e-20)
(0.397549 -0.160708 -5.62115e-24)
(0.235306 -0.0969565 -1.3431e-23)
(0.0764147 -0.032195 -5.76211e-24)
(0.99986 0.0189239 6.43506e-20)
(0.942275 0.0289257 -7.76929e-20)
(0.754647 -0.0864418 2.76667e-20)
(0.668586 -0.413166 1.13942e-19)
(0.858243 -0.389272 0)
(0.924828 -0.369526 4.46083e-21)
(0.976852 -0.377795 0)
(1.01824 -0.387698 3.10508e-21)
(1.04125 -0.394675 5.8323e-21)
(1.04465 -0.395166 8.15754e-21)
(1.02704 -0.388449 2.17259e-24)
(0.98488 -0.373646 -5.73292e-24)
(0.915121 -0.349823 -6.63601e-24)
(0.817052 -0.3156 3.1363e-20)
(0.69278 -0.27101 4.42004e-24)
(0.548078 -0.217731 9.95589e-24)
(0.391362 -0.158278 0)
(0.231404 -0.0953944 6.79725e-24)
(0.0750849 -0.0316597 2.38609e-20)
(1.00139 0.0230987 0)
(0.951521 0.0520174 1.46666e-19)
(0.820991 0.0294414 -4.45471e-20)
(0.826667 0.0503598 0)
(0.515301 -0.384039 2.07752e-21)
(0.392194 -0.29422 1.93974e-20)
(0.638132 -0.0503628 0)
(0.707653 -0.341328 8.55263e-23)
(0.349342 -0.253798 -2.83422e-20)
(0.521112 -0.229387 1.25953e-21)
(0.693688 -0.270623 1.76209e-21)
(0.572249 -0.216455 0)
(0.823325 -0.307835 0)
(0.919013 -0.341717 -2.12509e-21)
(0.982965 -0.366739 -1.2412e-20)
(1.01938 -0.38128 -8.23457e-21)
(1.03094 -0.386151 2.22983e-24)
(1.01716 -0.382052 0)
(0.976276 -0.36918 -2.7099e-25)
(0.906902 -0.346002 -1.47797e-20)
(0.808643 -0.311871 0)
(0.684364 -0.267562 -4.4426e-24)
(0.540482 -0.214772 -5.04914e-24)
(0.385454 -0.155968 -2.37085e-20)
(0.227734 -0.0939109 0)
(0.0738265 -0.0311485 2.38745e-20)
(1.00241 0.0255987 -5.64662e-20)
(0.965577 0.0690373 -4.66537e-21)
(0.836911 0.0779698 0)
(0.85174 0.105142 3.24194e-20)
(0.642016 0.0320691 0)
(0.418997 -0.161459 -1.86745e-21)
(0.173891 -0.22022 -2.51218e-20)
(0.143059 -0.199468 -6.10763e-21)
(0.213239 -0.238239 3.19688e-20)
(0.387994 -0.107398 0)
(0.328759 -0.161524 -1.91777e-21)
(0.135405 -0.0640898 0)
(0.330377 -0.120885 0)
(0.255395 -0.0851535 -1.67277e-23)
(0.442513 -0.161455 -3.09765e-21)
(0.570349 -0.197426 4.51047e-22)
(0.378019 -0.13503 -1.14515e-24)
(0.742013 -0.264476 -2.38194e-21)
(0.86384 -0.313873 -3.93363e-22)
(0.946288 -0.347618 2.52242e-24)
(0.995644 -0.36786 0)
(1.01499 -0.376689 0)
(1.00532 -0.375923 0)
(0.966724 -0.364488 6.91248e-24)
(0.897996 -0.34177 3.70816e-24)
(0.799749 -0.308072 0)
(0.675862 -0.264218 -1.85988e-20)
(0.53309 -0.211923 2.09835e-20)
(0.379816 -0.153739 -1.16178e-23)
(0.224235 -0.0924837 0)
(0.0726346 -0.0306653 0)
(1.00278 0.0264628 3.52719e-21)
(0.982482 0.0792664 -6.4e-20)
(0.87083 0.130108 -3.11734e-20)
(0.89244 0.147244 -2.67562e-20)
(0.659748 0.0994036 0)
(0.686133 0.15763 -4.37975e-20)
(0.374196 0.00869085 0)
(0.37434 -0.0486172 0)
(0.122351 -0.135572 3.01698e-21)
(0.0579229 -0.108302 0)
(0.0912115 -0.029891 1.60259e-22)
(0.0778537 -0.0279146 -2.14965e-22)
(0.220649 -0.0739067 0)
(0.133274 -0.0409974 -2.24148e-21)
(0.337696 -0.111983 1.17437e-24)
(0.492608 -0.163936 3.48251e-21)
(0.318938 -0.10297 -3.46297e-22)
(0.183649 -0.0614103 -2.24854e-24)
(0.676545 -0.236402 3.8695e-21)
(0.814792 -0.291397 -7.09443e-25)
(0.911178 -0.3301 1.20323e-20)
(0.971057 -0.354635 1.29732e-20)
(0.997389 -0.368081 0)
(0.99263 -0.369667 -1.41103e-20)
(0.95633 -0.359287 -1.51939e-20)
(0.888324 -0.337414 1.60197e-20)
(0.790536 -0.304343 1.71997e-20)
(0.667422 -0.260958 -1.86905e-20)
(0.525923 -0.209129 0)
(0.374391 -0.151569 -2.3611e-20)
(0.220887 -0.0911201 0)
(0.0715023 -0.0302035 0)
(1.00293 0.0258339 5.37856e-20)
(0.996912 0.0829246 0)
(0.916695 0.162473 2.67494e-20)
(0.939622 0.163205 2.50288e-20)
(0.723579 0.206669 7.87635e-20)
(0.771411 0.238455 -3.5067e-20)
(0.385518 0.0680868 0)
(0.403339 0.126064 -1.96656e-20)
(0.452738 0.237033 0)
(0.425727 0.182949 1.88797e-20)
(0.0937897 -0.0242688 5.36788e-20)
(0.102612 -0.0812859 -2.59707e-20)
(0.0390103 -0.0112594 2.16455e-21)
(0.0550686 -0.0163308 1.69525e-22)
(0.0493241 -0.016157 1.35098e-23)
(0.163514 -0.0514075 1.44765e-21)
(0.29185 -0.0947936 1.95561e-22)
(0.431313 -0.143494 5.81946e-21)
(0.265333 -0.0835195 -2.16802e-21)
(0.196648 -0.0641309 -4.39499e-22)
(0.194813 -0.0619735 3.89057e-22)
(0.0416427 -0.0138047 0)
(0.0443919 -0.014027 0)
(0.625354 -0.215709 -3.3154e-24)
(0.771838 -0.272345 -1.30995e-20)
(0.877839 -0.313629 -1.36864e-20)
(0.945984 -0.343334 -1.35526e-20)
(0.979639 -0.359694 1.41817e-20)
(0.979236 -0.362906 1.49543e-20)
(0.944986 -0.35397 -3.1003e-20)
(0.878118 -0.333116 1.61483e-20)
(0.781209 -0.300674 1.72603e-20)
(0.659095 -0.257715 0)
(0.518937 -0.20637 2.08071e-20)
(0.369149 -0.149468 -2.3383e-20)
(0.21767 -0.0898119 0)
(0.0704364 -0.0297683 2.33406e-20)
(1.00278 0.0241039 1.96753e-22)
(1.00939 0.0825289 2.00608e-22)
(0.951171 0.229305 -4.40642e-20)
(0.82172 0.257542 0)
(0.862965 0.283947 -2.91486e-20)
(0.484679 0.286824 -1.52993e-20)
(0.524985 0.327165 1.38124e-20)
(0.629475 0.392986 1.31232e-20)
(0.574569 0.363386 -1.08677e-20)
(0.0980868 0.0390248 -2.75223e-20)
(0.111021 0.106243 2.58111e-20)
(0.162114 0.24163 4.54588e-20)
(0.132131 0.174292 -4.97597e-20)
(0.0383205 -0.0114561 -7.46465e-22)
(0.037858 -0.0120578 -1.07695e-21)
(0.115235 -0.037708 0)
(0.185492 -0.0592925 -2.51906e-22)
(0.177275 -0.0564273 -2.82144e-24)
(0.228498 -0.0745718 -2.02829e-21)
(0.391794 -0.129135 -3.62538e-21)
(0.211797 -0.0678693 5.13689e-22)
(0.1656 -0.0536048 3.89007e-22)
(0.146769 -0.0427646 6.44467e-22)
(0.113961 -0.0359092 3.62085e-22)
(0.58265 -0.199021 3.41919e-24)
(0.73296 -0.25441 3.62799e-24)
(0.845858 -0.300514 1.4392e-20)
(0.922283 -0.33284 -3.48897e-24)
(0.961831 -0.350966 0)
(0.964948 -0.356166 1.53415e-20)
(0.93301 -0.348762 -3.12181e-20)
(0.867657 -0.328884 1.61912e-20)
(0.771868 -0.296986 4.20663e-24)
(0.650865 -0.254464 -1.85547e-20)
(0.512105 -0.20366 2.05608e-20)
(0.364064 -0.147438 0)
(0.214599 -0.0885694 2.66841e-20)
(0.0694264 -0.0293502 2.30451e-20)
(1.00227 0.0216144 0)
(1.01868 0.0779873 -1.87377e-22)
(1.00548 0.220851 5.00948e-20)
(0.852598 0.537277 -2.25003e-20)
(0.956735 0.547712 1.27225e-20)
(0.685464 0.418253 -7.38308e-22)
(0.731884 0.432115 1.05364e-20)
(0.752965 0.521257 2.18588e-20)
(0.202866 0.30223 -2.10878e-20)
(0.256185 0.349404 4.53212e-22)
(0.395025 0.474431 -2.49708e-20)
(0.309465 0.37994 2.15957e-20)
(0.037193 -0.0119884 8.49265e-25)
(0.109093 -0.0343414 0)
(0.103905 -0.032742 2.76361e-22)
(0.121532 -0.0393975 4.88401e-22)
(0.110597 -0.0352943 0)
(0.199928 -0.0640974 2.40088e-21)
(0.360013 -0.118149 0)
(0.193383 -0.0613025 6.57845e-21)
(0.103874 -0.0329731 0)
(0.100713 -0.0316759 -1.35456e-21)
(0.0958039 -0.0304851 2.21656e-22)
(0.0668005 -0.0174235 0)
(0.0367538 -0.011481 -4.59307e-22)
(0.542633 -0.181812 0)
(0.697214 -0.241268 0)
(0.817402 -0.288856 0)
(0.8997 -0.32229 0)
(0.943523 -0.34254 0)
(0.950162 -0.349683 1.54414e-20)
(0.920754 -0.343693 -3.12847e-20)
(0.857088 -0.324622 1.61877e-20)
(0.762514 -0.293249 1.71038e-20)
(0.642713 -0.25123 -1.83291e-20)
(0.505413 -0.201017 -4.87039e-24)
(0.359159 -0.14549 -2.28105e-20)
(0.211664 -0.0873713 0)
(0.068449 -0.0289452 0)
(1.00155 0.0186361 4.40657e-20)
(1.02503 0.0709815 0)
(1.03212 0.193164 0)
(1.12407 0.479336 -7.39231e-21)
(0.819712 0.598179 2.85209e-21)
(0.640965 0.496062 -2.23475e-21)
(0.897588 0.470776 6.68412e-23)
(0.532116 0.541372 2.27022e-22)
(0.605228 0.552097 -1.11155e-20)
(0.517494 0.43693 -9.9877e-23)
(0.459554 0.441647 3.01733e-21)
(0.150092 0.254232 -1.7e-21)
(0.035336 -0.0109729 0)
(0.033745 -0.0105736 -1.86525e-22)
(0.0425711 -0.0139923 0)
(0.0368982 -0.0117255 0)
(0.0976504 -0.0308252 -1.43221e-21)
(0.0963536 -0.0301568 -1.51622e-21)
(0.184532 -0.0591669 0)
(0.319018 -0.1031 2.75961e-21)
(0.175684 -0.0556161 7.64903e-22)
(0.0945486 -0.0297255 -3.31667e-21)
(0.0934975 -0.0292196 0)
(0.0335937 -0.0105213 1.484e-24)
(0.032429 -0.0100732 1.15845e-21)
(0.0310563 -0.0101292 -3.33675e-22)
(0.0184545 -0.00484521 -4.13662e-22)
(0.507446 -0.170187 0)
(0.667492 -0.230216 0)
(0.791531 -0.277294 0)
(0.877226 -0.312398 -1.69247e-20)
(0.925148 -0.334613 3.85642e-24)
(0.935277 -0.343512 1.54899e-20)
(0.908412 -0.338638 -3.13285e-20)
(0.846438 -0.320294 -3.89945e-24)
(0.753148 -0.289495 1.68731e-20)
(0.63464 -0.248046 4.35616e-24)
(0.498887 -0.198462 1.17657e-25)
(0.354433 -0.143602 1.42917e-25)
(0.208839 -0.0862069 -1.24249e-23)
(0.0675036 -0.0285529 0)
(1.00085 0.015382 -4.46801e-20)
(1.02911 0.0631517 4.14657e-20)
(1.04304 0.159312 -2.81562e-20)
(1.24321 0.436414 -9.54294e-21)
(0.780254 0.134697 -4.86198e-20)
(1.06147 0.198954 1.29712e-19)
(0.440748 0.261855 -2.89019e-21)
(0.274806 0.242771 0)
(0.585731 0.186376 -2.26937e-20)
(0.258443 0.0995982 0)
(0.331391 0.427523 1.22803e-21)
(0.401757 0.435864 -3.49428e-21)
(0.0315741 -0.00979863 0)
(0.0311299 -0.0096105 0)
(0.0913034 -0.028805 -1.78746e-21)
(0.0899461 -0.0281667 -1.78858e-24)
(0.15211 -0.0472804 8.91833e-22)
(0.288034 -0.0928945 2.62638e-21)
(0.124801 -0.0406661 -3.08466e-21)
(0.0877249 -0.0277584 0)
(0.0841478 -0.0264079 -9.82731e-22)
(0.0305359 -0.00948 -4.10238e-24)
(0.0301801 -0.00934228 0)
(0.481822 -0.16179 0)
(0.641825 -0.218803 0)
(0.766087 -0.26676 1.81915e-20)
(0.855326 -0.303241 0)
(0.907107 -0.327285 -1.4453e-26)
(0.920525 -0.337473 1.55395e-20)
(0.896025 -0.333543 0)
(0.835718 -0.315934 3.91099e-24)
(0.743782 -0.285772 1.65754e-20)
(0.626681 -0.244947 -1.76707e-20)
(0.492545 -0.195966 4.79862e-24)
(0.349863 -0.141749 5.40523e-24)
(0.206086 -0.0850652 3.62113e-25)
(0.0665802 -0.0281708 0)
(1.00031 0.0120293 4.15258e-20)
(1.03118 0.054958 -2.57428e-21)
(1.04776 0.127869 2.92334e-20)
(1.27899 0.378092 9.82562e-21)
(1.16938 0.143776 -7.79816e-20)
(0.21962 0.00708148 -1.21185e-20)
(0.474835 -0.0160355 3.42841e-20)
(0.275811 -0.0272095 -3.03373e-20)
(0.63431 -0.0119989 6.33881e-20)
(0.029631 -0.00919034 2.06028e-21)
(0.029151 -0.00900201 0)
(0.0766556 -0.0244854 -9.96088e-22)
(0.0543952 -0.0140612 1.63144e-21)
(0.113168 -0.035484 -5.56469e-21)
(0.272269 -0.0878181 4.87912e-24)
(0.11046 -0.0345342 -1.85993e-21)
(0.0346432 -0.0109899 -4.10728e-22)
(0.0290923 -0.00955633 -9.51921e-22)
(0.0284453 -0.00887638 1.11156e-21)
(0.027205 -0.00853219 -5.44636e-22)
(0.461293 -0.15307 0)
(0.615525 -0.208774 5.0604e-24)
(0.741747 -0.256977 4.53027e-24)
(0.834387 -0.295054 0)
(0.889638 -0.320271 -7.7959e-24)
(0.905917 -0.331479 1.56382e-20)
(0.883602 -0.328437 0)
(0.824946 -0.311598 -3.12531e-20)
(0.734466 -0.282143 3.12641e-23)
(0.618886 -0.241905 0)
(0.48637 -0.193496 0)
(0.345406 -0.139926 0)
(0.203396 -0.0839548 1.22566e-23)
(0.0656989 -0.0278014 2.15027e-20)
(1 0.00871907 -4.21661e-20)
(1.03146 0.0463834 -4.05448e-20)
(1.05165 0.100899 -8.40001e-24)
(1.26813 0.31095 8.23638e-21)
(1.36705 0.15004 0)
(0.66035 -0.0348289 0)
(0.0718542 -0.0213038 1.98316e-20)
(0.281321 -0.0146723 6.04925e-23)
(0.125743 -0.0131815 -1.0385e-22)
(0.308454 -0.0558743 -1.01443e-19)
(0.0247991 -0.00821871 -8.29593e-24)
(0.01497 -0.00388856 -1.12943e-21)
(0.0267772 -0.00831093 1.79076e-25)
(0.02615 -0.0081678 1.42698e-21)
(0.107326 -0.0338427 1.9342e-21)
(0.310336 -0.103464 -9.20517e-24)
(0.106229 -0.0331904 -2.04294e-21)
(0.211152 -0.0694616 -3.69922e-21)
(0.0259747 -0.00807107 7.05885e-25)
(0.0259515 -0.00799668 2.89881e-21)
(0.436184 -0.143709 -2.84119e-21)
(0.306126 -0.100427 0)
(0.590271 -0.199158 -5.17111e-24)
(0.719122 -0.248565 0)
(0.814664 -0.287403 -1.70395e-20)
(0.872658 -0.313435 -3.20956e-20)
(0.891435 -0.325536 7.46008e-24)
(0.871152 -0.323378 1.51419e-20)
(0.814189 -0.307394 1.52897e-20)
(0.72529 -0.27857 0)
(0.61124 -0.23887 0)
(0.480319 -0.191052 0)
(0.341041 -0.138144 0)
(0.200779 -0.0828675 -2.41862e-20)
(0.0648366 -0.0274442 1.01445e-23)
(0.999896 0.00554556 0)
(1.03041 0.037412 3.75407e-20)
(1.05608 0.0780684 0)
(1.23916 0.247946 -8.79127e-21)
(1.43654 0.148788 0)
(1.08353 -0.0202209 1.40974e-19)
(0.352988 -0.0729037 -9.34734e-20)
(0.206354 -0.0137284 9.70272e-20)
(0.0217378 -0.00732085 4.30922e-20)
(0.0696445 -0.0260933 9.00232e-20)
(0.0254886 -0.00795555 -2.97444e-21)
(0.0254516 -0.00788263 -1.53717e-21)
(0.130958 -0.0429042 6.97105e-23)
(0.0772625 -0.0251348 4.45134e-21)
(0.025191 -0.00781609 6.0832e-24)
(0.0251858 -0.00775891 1.6105e-21)
(0.204159 -0.0662279 -2.91883e-23)
(0.130818 -0.0415303 2.67824e-21)
(0.294894 -0.0956302 4.70669e-21)
(0.410078 -0.134292 -2.95321e-21)
(0.283614 -0.0915294 4.72335e-21)
(0.567799 -0.191278 0)
(0.698559 -0.240924 1.85344e-20)
(0.795857 -0.280076 1.70048e-20)
(0.856068 -0.30673 -7.71603e-24)
(0.877055 -0.319684 -7.49749e-24)
(0.858745 -0.318533 -1.48408e-20)
(0.803577 -0.303265 -1.46146e-23)
(0.716256 -0.274997 1.55285e-20)
(0.603716 -0.235855 0)
(0.474384 -0.188651 1.8044e-20)
(0.336766 -0.136393 0)
(0.198233 -0.0818184 0)
(0.0639887 -0.0270961 2.06605e-20)
(0.999919 0.0025455 -4.08684e-20)
(1.02867 0.0281361 -3.83855e-20)
(1.06024 0.0585994 -2.06439e-20)
(1.20855 0.193121 0)
(1.43396 0.138921 1.20585e-23)
(1.33058 -0.00519171 -1.23028e-19)
(0.765367 -0.081139 -1.35089e-22)
(0.268938 -0.0616041 0)
(0.135231 -0.0285674 8.03942e-20)
(0.126635 -0.0483337 -1.44997e-21)
(0.0525522 -0.00227105 -7.84881e-20)
(-0.000257245 -0.0104435 -1.30959e-21)
(0.00799993 0.00257118 1.58908e-21)
(0.0772046 -0.0240877 -2.41288e-21)
(0.0251307 -0.00804196 -1.44698e-21)
(0.126012 -0.0402951 5.61159e-24)
(0.196136 -0.0626193 -2.85521e-21)
(0.128603 -0.0411588 0)
(0.268525 -0.0852373 1.00034e-20)
(0.389697 -0.127464 -2.86016e-21)
(0.25563 -0.0826675 -3.89359e-23)
(0.185489 -0.0592888 1.53702e-23)
(0.548649 -0.184473 -2.59925e-24)
(0.679304 -0.233745 0)
(0.777673 -0.272932 1.72253e-20)
(0.839785 -0.300151 1.53289e-23)
(0.862829 -0.314187 1.47913e-20)
(0.846563 -0.313812 -1.4558e-20)
(0.793123 -0.299139 -1.46449e-20)
(0.707333 -0.271435 7.5038e-24)
(0.596324 -0.232882 -1.6124e-20)
(0.468555 -0.186287 1.34096e-25)
(0.332582 -0.134688 1.97536e-20)
(0.195735 -0.0807992 5.51166e-24)
(0.0631893 -0.0267598 9.70589e-24)
(1 -0.000283323 4.14938e-20)
(1.02675 0.0187221 3.7149e-20)
(1.06316 0.0415363 8.17457e-22)
(1.18352 0.146055 5.60802e-21)
(1.39744 0.119226 -5.13418e-20)
(1.43719 0.00440576 2.55977e-23)
(1.10635 -0.0802179 6.35027e-23)
(0.578285 -0.0933692 1.61827e-22)
(0.0777342 -0.0230957 1.10268e-22)
(0.236451 -0.0515049 0)
(0.0504107 -0.0148831 -1.54684e-20)
(0.0252272 -0.0159555 5.01306e-20)
(0.00256773 0.00825659 4.93335e-20)
(0.0100509 -0.000937372 -2.1781e-20)
(0.0756305 -0.0238465 0)
(0.0250957 -0.00775862 1.62361e-21)
(0.12319 -0.0389801 -5.56261e-24)
(0.0738659 -0.0233734 1.26972e-21)
(0.120366 -0.0380436 -2.79193e-21)
(0.166991 -0.0519424 -5.27127e-21)
(0.246817 -0.0792965 -4.82558e-21)
(0.375067 -0.122471 5.83564e-21)
(0.241694 -0.0774462 9.73141e-21)
(0.152617 -0.0486415 1.67131e-23)
(0.109635 -0.0347852 0)
(0.115832 -0.0367701 5.38673e-24)
(0.53109 -0.17827 2.3696e-23)
(0.660669 -0.226724 -1.88193e-20)
(0.759958 -0.265847 1.70831e-20)
(0.823825 -0.294127 -7.60951e-24)
(0.849016 -0.308897 1.4522e-20)
(0.83462 -0.309121 7.03943e-24)
(0.782799 -0.29503 -1.43522e-20)
(0.698534 -0.267908 0)
(0.589035 -0.229945 0)
(0.462826 -0.183973 -1.71383e-20)
(0.32848 -0.133032 -1.54989e-25)
(0.193325 -0.0798118 -2.22982e-20)
(0.0624289 -0.0264359 -9.81193e-24)
(1.0001 -0.00296246 0)
(1.02497 0.00933691 -5.68701e-20)
(1.06458 0.025968 2.10851e-20)
(1.16552 0.105842 -5.95073e-21)
(1.35214 0.0951529 9.87542e-21)
(1.45679 0.00631933 2.07645e-23)
(1.31711 -0.0741693 -7.21058e-23)
(0.912441 -0.109956 -1.10672e-22)
(0.479677 -0.0880012 0)
(0.077644 -0.0192636 4.5982e-20)
(0.0173338 -0.00126963 -1.56262e-20)
(0.00934491 -0.00963107 -6.48441e-23)
(0.210331 -0.0443454 -1.71717e-19)
(0.0187655 -0.00338827 7.65572e-23)
(0.0144271 -0.0074778 -1.51357e-22)
(-0.00743004 -0.00507717 2.2851e-20)
(0.00496516 -0.000995553 0)
(-0.00618027 0.00197931 -1.17302e-20)
(0.000925432 9.09342e-05 -8.37808e-22)
(0.0245015 -0.00759531 -8.08122e-24)
(0.0721874 -0.0226314 4.63225e-24)
(0.023853 -0.00744348 -2.54839e-21)
(0.0705993 -0.0221576 1.17983e-21)
(0.0963893 -0.0278999 2.42236e-23)
(0.0827 -0.026888 1.49906e-21)
(0.146404 -0.0462662 -2.05448e-21)
(0.236776 -0.0757631 -9.73003e-21)
(0.362213 -0.118232 -7.85767e-24)
(0.233291 -0.0746917 9.8984e-21)
(0.143254 -0.045154 -2.05933e-21)
(0.0721613 -0.0228419 3.38467e-23)
(0.0757776 -0.0239883 -1.49154e-21)
(0.0629553 -0.0198542 0)
(0.0675357 -0.0212894 1.18729e-21)
(0.513621 -0.172078 -1.06955e-23)
(0.642318 -0.21943 -1.86898e-20)
(0.742715 -0.259584 1.64472e-20)
(0.808603 -0.288421 0)
(0.835609 -0.303691 1.43976e-20)
(0.822862 -0.304471 1.39258e-20)
(0.77261 -0.290963 -3.35634e-24)
(0.689857 -0.264426 1.4376e-20)
(0.581852 -0.22706 1.52156e-20)
(0.457189 -0.181721 0)
(0.324487 -0.131427 1.87372e-20)
(0.191003 -0.0788493 0)
(0.0616535 -0.026112 0)
(1.00018 -0.00551379 -6.32133e-25)
(1.02342 0.000102557 3.86156e-20)
(1.06476 0.0112556 0)
(1.15311 0.0713393 -4.17547e-21)
(1.31123 0.0705288 8.50661e-20)
(1.43397 0.00262299 -2.12721e-23)
(1.41331 -0.0674645 -8.67684e-20)
(1.17474 -0.113593 5.18417e-23)
(0.774637 -0.115183 1.24312e-22)
(0.417677 -0.0783855 0)
(0.0710076 -0.0166354 1.71994e-19)
(0.0202363 -0.00101702 -7.18959e-20)
(0.0189275 -0.00870621 1.42888e-20)
(0.00355693 0.00158233 1.02822e-20)
(0.00167585 -0.000471601 1.8295e-20)
(0.000620126 -0.000215572 1.23371e-20)
(-0.000600735 -0.00256072 -1.13004e-20)
(0.00490048 -0.000607698 1.29117e-22)
(0.189396 -0.0391606 0)
(0.00216048 0.000744334 1.43527e-20)
(-0.0082451 0.000544982 1.33034e-20)
(-0.00181253 0.00148303 0)
(0.023307 -0.00724184 1.64848e-21)
(0.0229088 -0.00713071 1.61678e-21)
(0.0437252 -0.0110692 6.61332e-22)
(0.0285174 -0.0094709 4.29657e-22)
(0.0704141 -0.0220245 -1.11198e-23)
(0.0696135 -0.0217741 2.837e-21)
(0.140781 -0.0443415 0)
(0.229106 -0.0733555 -1.96423e-20)
(0.348116 -0.113661 4.63692e-23)
(0.225426 -0.0722133 1.97685e-20)
(0.138739 -0.0437496 -6.11352e-21)
(0.0686063 -0.021439 -2.86129e-21)
(0.0689631 -0.0215309 2.84586e-21)
(0.023201 -0.00728339 -6.5822e-24)
(0.0250441 -0.00799007 1.0157e-21)
(0.0202829 -0.00668055 -1.01254e-22)
(0.0217855 -0.0068695 -1.58492e-21)
(0.495283 -0.16485 -3.15338e-23)
(0.624457 -0.213291 -1.80872e-20)
(0.726713 -0.253761 2.38197e-23)
(0.794052 -0.282875 -1.48491e-20)
(0.822498 -0.298571 0)
(0.811297 -0.299891 0)
(0.762582 -0.286954 -1.35547e-20)
(0.681293 -0.261 -1.39487e-20)
(0.574768 -0.224253 0)
(0.451693 -0.179541 0)
(0.320608 -0.129854 0)
(0.188704 -0.0779018 0)
(0.0609062 -0.0257966 -9.04918e-24)
(1.00022 -0.00795233 0)
(1.02212 -0.00891218 -1.98008e-20)
(1.06414 -0.00297008 0)
(1.14436 0.0411873 4.388e-21)
(1.27901 0.0464696 -5.9987e-21)
(1.39754 -0.00441256 6.91488e-20)
(1.43517 -0.0629765 5.58682e-21)
(1.3321 -0.109912 4.54185e-23)
(1.04698 -0.128865 4.6655e-23)
(0.676497 -0.109384 0)
(0.372611 -0.0698802 -1.26908e-22)
(0.0654717 -0.0148808 3.89528e-20)
(0.0201235 -0.000685933 0)
(0.0176716 -0.00778979 0)
(0.00464377 0.000760373 6.55186e-23)
(0.00479481 -0.00157418 1.68781e-20)
(0.00577223 -0.00101115 -1.62956e-20)
(0.00486948 -0.00271327 0)
(0.000572734 0.0002302 0)
(-0.000557972 -0.000414676 -1.45128e-21)
(0.17167 -0.0344582 0)
(0.000125289 0.000260219 6.26869e-22)
(0.0120923 -0.00307543 -3.89369e-22)
(0.022561 -0.00700792 -1.64366e-21)
(0.0223171 -0.00692825 1.64512e-21)
(0.0679525 -0.0212089 -2.83519e-21)
(0.0677092 -0.0211434 0)
(0.136635 -0.0430599 8.11428e-21)
(0.220267 -0.0706694 0)
(0.329319 -0.106589 -4.73901e-23)
(0.214229 -0.0687595 4.92603e-21)
(0.134456 -0.0424284 -8.17438e-21)
(0.0669269 -0.0209189 -1.11657e-23)
(0.0671946 -0.0209968 -2.83117e-21)
(0.0220088 -0.00683043 3.30243e-21)
(0.0221363 -0.00686247 1.65231e-21)
(0.477241 -0.159062 2.11625e-23)
(0.608673 -0.207734 -1.77946e-23)
(0.711764 -0.248206 -1.61939e-20)
(0.779963 -0.277482 -3.53483e-24)
(0.809672 -0.293562 -1.3813e-20)
(0.799949 -0.295384 0)
(0.752689 -0.283007 0)
(0.672843 -0.257668 0)
(0.567823 -0.221527 3.43849e-24)
(0.446318 -0.177399 7.5181e-24)
(0.316814 -0.128315 0)
(0.186476 -0.0769766 4.93555e-24)
(0.06019 -0.0254915 1.79732e-23)
(1.00022 -0.0102837 0)
(1.021 -0.0176796 0)
(1.06308 -0.0169038 1.23016e-20)
(1.13789 0.0141642 0)
(1.2552 0.0231327 -5.22318e-20)
(1.3624 -0.0136023 -7.13863e-21)
(1.42019 -0.0613169 8.21704e-20)
(1.40019 -0.104046 0)
(1.24182 -0.1317 -4.13115e-23)
(0.939543 -0.130088 -5.04181e-23)
(0.603672 -0.100776 -1.05327e-22)
(0.336709 -0.0623794 1.31759e-22)
(0.0595196 -0.0126087 1.07766e-21)
(0.0184896 -0.000718354 -5.52352e-22)
(0.0170475 -0.00723223 0)
(0.00130739 0.000712487 -1.07024e-20)
(0.00523496 -0.000866354 -1.46545e-23)
(0.00392048 -0.00292602 0)
(-0.000616698 0.000947935 1.15534e-20)
(0.000233272 -0.000226472 -9.86747e-21)
(0.000839369 -0.000109347 -8.9842e-21)
(0.000435876 -0.000713344 0)
(0.155682 -0.0299111 -1.41931e-19)
(0.0218381 -0.00676963 -3.05333e-24)
(0.0217539 -0.00674728 1.65489e-21)
(0.0663109 -0.0207049 -1.11156e-23)
(0.0660666 -0.0206324 2.23253e-23)
(0.131719 -0.0415735 7.94523e-23)
(0.204815 -0.0658414 9.81579e-24)
(0.309967 -0.100698 -2.94963e-21)
(0.192287 -0.0603642 5.38331e-21)
(0.127723 -0.0404446 -6.12815e-21)
(0.0652152 -0.0203873 2.87708e-21)
(0.0655429 -0.0204911 -1.11757e-23)
(0.0215027 -0.00667275 1.67597e-21)
(0.0216138 -0.00670378 8.12697e-25)
(0.462899 -0.154108 2.03277e-23)
(0.594492 -0.202616 1.78935e-20)
(0.697465 -0.242873 0)
(0.766252 -0.272241 1.42928e-20)
(0.797145 -0.288648 -3.22339e-24)
(0.788789 -0.290949 6.17983e-24)
(0.742921 -0.279175 0)
(0.664527 -0.254437 0)
(0.561027 -0.218856 -3.44741e-24)
(0.441062 -0.175294 -7.54145e-24)
(0.313123 -0.126803 0)
(0.184313 -0.0760705 -4.96291e-24)
(0.0594813 -0.025195 -1.75357e-23)
(1.00018 -0.0125018 0)
(1.02001 -0.0261841 0)
(1.06177 -0.030659 -1.26935e-20)
(1.13306 -0.0107314 -4.21478e-25)
(1.2381 0.000467788 1.65929e-20)
(1.33402 -0.0242524 -6.71897e-20)
(1.3935 -0.0621085 0)
(1.41229 -0.0988319 -1.89297e-23)
(1.34912 -0.128408 0)
(1.15276 -0.139399 3.78078e-24)
(0.851376 -0.124977 0)
(0.546497 -0.0918698 1.10384e-22)
(0.306202 -0.0555016 1.22529e-19)
(0.0532395 -0.0102388 1.39921e-19)
(0.0154806 0.000157676 1.04052e-19)
(0.0151057 -0.00571775 -5.31649e-20)
(0.000896424 0.000978514 -4.94596e-20)
(7.42724e-05 -0.000737604 1.08353e-20)
(-0.00123336 0.00104559 9.95453e-21)
(0.000740727 0.000156481 8.43664e-23)
(-0.000922208 -0.000233323 -6.98922e-23)
(-0.000665415 0.000883309 -8.21271e-23)
(0.141485 -0.0257435 0)
(0.0213375 -0.00661467 -3.1637e-24)
(0.0212465 -0.00658899 -1.02334e-25)
(0.0645513 -0.0201709 0)
(0.0640999 -0.0200282 0)
(0.120394 -0.0383382 9.93904e-22)
(0.179276 -0.0571443 4.8797e-21)
(0.298752 -0.0966715 5.96477e-21)
(0.173933 -0.0555849 -4.91349e-21)
(0.101876 -0.0312609 -5.75546e-21)
(0.0621552 -0.0194907 0)
(0.0633026 -0.0198368 2.81548e-21)
(0.0209778 -0.00650897 2.87522e-24)
(0.0211067 -0.0065481 0)
(0.450895 -0.149918 -3.07474e-23)
(0.581183 -0.197797 1.79439e-20)
(0.683603 -0.237723 0)
(0.752888 -0.267102 0)
(0.784861 -0.283803 3.234e-24)
(0.777788 -0.286664 -6.19784e-24)
(0.733321 -0.275485 5.93591e-24)
(0.656386 -0.251275 0)
(0.554368 -0.216221 0)
(0.435925 -0.173221 7.0709e-24)
(0.309496 -0.125311 0)
(0.182189 -0.0751908 0)
(0.0587879 -0.0249037 8.69822e-24)
(1.00008 -0.0145916 -3.08402e-24)
(1.01906 -0.034414 -2.39439e-24)
(1.06026 -0.0443053 1.48692e-20)
(1.12955 -0.0343315 0)
(1.22623 -0.0217195 5.37888e-24)
(1.31302 -0.0359334 0)
(1.36787 -0.0647903 3.62768e-20)
(1.39849 -0.0952754 1.86096e-23)
(1.38931 -0.122939 1.95792e-23)
(1.28966 -0.140222 -7.85474e-20)
(1.0705 -0.139085 8.09885e-23)
(0.778634 -0.117347 -9.12256e-20)
(0.498991 -0.083273 -2.06556e-19)
(0.279496 -0.0491664 0)
(0.0481214 -0.00791777 -1.16836e-22)
(0.0118889 0.00140156 9.46675e-23)
(0.0121074 -0.00422296 0)
(-0.0013645 0.00169117 -3.90911e-20)
(-0.00102195 0.000158224 0)
(-0.002784 0.0018394 1.26911e-20)
(-0.00201763 0.000354578 1.94345e-22)
(-0.00185453 2.21173e-05 0)
(-0.00166507 0.00154168 -1.09048e-20)
(-0.000461458 -2.04954e-05 -9.70021e-22)
(-0.000332266 0.000268841 -7.13932e-21)
(0.12798 -0.0221642 -3.03278e-23)
(0.0208027 -0.00645132 1.68381e-21)