/*--------------------------------*- C++ -*----------------------------------*\
| =========                 |                                                 |
| \\      /  F ield         | OpenFOAM: The Open Source CFD Toolbox           |
|  \\    /   O peration     | Version:  v1912                                 |
|   \\  /    A nd           | Website:  www.openfoam.com                      |
|    \\/     M anipulation  |                                                 |
\*---------------------------------------------------------------------------*/
FoamFile
{
    version     2.0;
    format      ascii;
    class       volScalarField;
    location    "20";
    object      p;
}
// * * * * * * * * * * * * * * * * * * * * * * * * * * * * * * * * * * * * * //

dimensions      [0 2 -2 0 0 0 0];


internalField   nonuniform List<scalar> 
3673
(
-0.996898
-1.01603
-1.06103
-1.01858
-1.05485
-1.0775
-1.0069
-1.03691
-1.0656
-1.05019
-0.992796
-1.01974
-1.04968
-1.04712
-1.02014
-0.978407
-1.00527
-1.03287
-1.04157
-1.02231
-0.994417
-0.963029
-0.990511
-1.01607
-1.0314
-1.02357
-0.999172
-0.970985
-0.946065
-0.974081
-0.998554
-1.01721
-1.02063
-1.00495
-0.977603
-0.948501
-0.927708
-0.955475
-0.979543
-1.00008
-1.012
-1.00815
-0.986994
-0.956751
-0.926464
-0.908002
-0.934797
-0.958061
-0.979972
-0.998011
-1.00544
-0.995377
-0.969247
-0.936164
-0.90602
-0.887624
-0.912167
-0.933771
-0.955967
-0.978611
-0.995586
-0.998276
-0.981856
-0.951122
-0.916839
-0.889181
-0.867046
-0.888437
-0.906783
-0.927839
-0.953284
-0.978199
-0.993129
-0.989422
-0.966979
-0.93348
-0.900933
-0.877023
-0.847231
-0.864419
-0.878205
-0.896003
-0.92227
-0.953244
-0.979222
-0.988863
-0.978135
-0.951456
-0.918865
-0.889564
-0.868332
-0.828652
-0.841294
-0.849193
-0.861859
-0.886415
-0.921605
-0.957128
-0.979578
-0.981465
-0.965029
-0.938385
-0.90897
-0.881395
-0.859934
-0.81216
-0.819789
-0.821225
-0.826776
-0.847192
-0.884488
-0.928476
-0.962893
-0.976773
-0.971244
-0.953868
-0.930458
-0.902416
-0.873032
-0.848461
-0.797867
-0.800836
-0.795342
-0.79236
-0.8058
-0.843088
-0.894791
-0.941044
-0.966071
-0.970316
-0.962619
-0.948426
-0.926528
-0.895269
-0.861069
-0.831848
-0.786288
-0.784766
-0.772819
-0.759889
-0.763486
-0.797837
-0.856894
-0.916006
-0.952464
-0.964725
-0.965189
-0.960354
-0.947905
-0.921882
-0.8835
-0.843573
-0.810222
-0.777062
-0.772097
-0.754401
-0.731077
-0.721273
-0.748861
-0.814247
-0.889217
-0.938657
-0.957735
-0.964162
-0.966953
-0.963757
-0.946689
-0.911372
-0.865071
-0.820928
-0.785314
-0.770297
-0.762583
-0.740982
-0.70757
-0.681045
-0.695808
-0.765616
-0.86097
-0.926951
-0.951936
-0.962552
-0.970706
-0.974659
-0.966358
-0.938362
-0.892432
-0.840644
-0.795089
-0.759583
-0.765202
-0.756187
-0.73255
-0.69147
-0.645725
-0.638567
-0.708704
-0.830923
-0.918971
-0.949056
-0.962265
-0.974225
-0.982878
-0.98101
-0.960538
-0.919539
-0.865945
-0.812753
-0.768655
-0.735052
-0.761689
-0.752079
-0.728989
-0.683861
-0.620621
-0.578201
-0.64058
-0.798366
-0.916961
-0.950283
-0.9644
-0.978926
-0.990617
-0.992492
-0.977487
-0.942226
-0.891285
-0.835219
-0.784452
-0.743652
-0.712731
-0.758854
-0.749838
-0.729084
-0.684972
-0.610378
-0.52553
-0.553784
-0.762993
-0.924815
-0.956749
-0.969339
-0.985218
-0.998799
-1.00272
-0.990694
-0.959741
-0.912692
-0.857697
-0.804082
-0.75802
-0.721022
-0.692632
-0.75671
-0.748462
-0.73173
-0.693071
-0.616857
-0.50231
-0.443461
-0.719598
-0.945071
-0.970548
-0.977632
-0.9932
-1.00742
-1.01232
-1.00179
-0.973247
-0.929347
-0.876805
-0.823508
-0.775315
-0.734445
-0.700673
-0.674132
-0.754531
-0.747694
-0.735204
-0.7055
-0.638793
-0.512595
-0.416804
-0.382615
-0.563011
-0.321802
-0.476652
-0.937502
-0.779366
-0.965354
-0.99065
-0.983893
-0.989493
-1.00263
-1.01595
-1.02106
-1.01136
-0.98431
-0.942355
-0.891969
-0.840139
-0.792107
-0.750076
-0.713507
-0.681883
-0.656443
-0.752555
-0.746881
-0.738685
-0.718545
-0.67021
-0.560141
-0.379457
-0.410031
-0.277993
-0.373554
-0.320618
-0.451508
-0.665596
-0.68545
-0.95697
-0.952843
-0.773378
-0.999413
-1.00404
-0.995319
-1.00485
-1.00834
-1.01297
-1.02416
-1.02833
-1.01917
-0.993489
-0.953146
-0.90428
-0.853789
-0.806559
-0.764871
-0.728068
-0.694289
-0.663837
-0.638885
-0.750248
-0.746141
-0.741354
-0.730125
-0.701656
-0.629082
-0.445882
-0.505427
-0.261203
-0.345124
-0.324722
-0.245878
-0.277068
-0.419941
-0.519037
-0.992922
-0.953554
-1.02308
-1.00571
-1.01203
-1.01735
-1.02237
-1.02238
-1.01683
-1.03076
-1.03347
-1.02473
-1.00083
-0.962444
-0.91519
-0.865661
-0.818934
-0.777578
-0.741468
-0.708192
-0.675817
-0.645907
-0.621019
-0.747959
-0.745096
-0.743378
-0.739029
-0.727268
-0.691579
-0.570194
-0.657078
-0.371354
-0.446884
-0.210647
-0.197259
-0.240263
-0.2858
-0.304396
-1.02261
-1.02063
-1.03427
-1.02051
-1.02446
-1.02965
-1.03476
-1.0324
-1.02901
-1.02599
-1.02458
-1.03642
-1.02799
-1.00607
-0.970324
-0.925366
-0.877044
-0.830498
-0.788847
-0.752796
-0.72066
-0.68922
-0.657406
-0.627701
-0.602648
-0.745232
-0.743993
-0.744582
-0.74561
-0.745058
-0.742657
-0.742475
-0.534305
-0.631117
-0.289022
-0.361442
-0.541718
-0.451285
-0.203452
-0.231367
-1.02864
-1.02792
-1.03016
-1.03
-1.03296
-1.03697
-1.03704
-1.03885
-1.03534
-1.03281
-1.03289
-1.03188
-1.02932
-1.02898
-1.00925
-0.976745
-0.935084
-0.888666
-0.842473
-0.800069
-0.76302
-0.730903
-0.701029
-0.670306
-0.638715
-0.60906
-0.583797
-0.742399
-0.742493
-0.745346
-0.750145
-0.756946
-0.773166
-0.823665
-0.939273
-0.998481
-0.549961
-0.693149
-0.775372
-0.735321
-1.03306
-1.03338
-1.03515
-1.03468
-1.03809
-1.03808
-1.02886
-1.0378
-1.03968
-1.03662
-1.03665
-1.03541
-1.03478
-1.01134
-0.981726
-0.944182
-0.900607
-0.855323
-0.81226
-0.773584
-0.740053
-0.710388
-0.681545
-0.651045
-0.619615
-0.590033
-0.564725
-0.739022
-0.740799
-0.745469
-0.753409
-0.764861
-0.788844
-0.853508
-1.13966
-0.910731
-1.19103
-1.24792
-1.35017
-0.571611
-0.84887
-0.949617
-1.0359
-1.03578
-1.03897
-1.03911
-1.03914
-1.03119
-1.01333
-1.02882
-1.03802
-1.04042
-1.04045
-1.03767
-1.03697
-0.985773
-0.952583
-0.912782
-0.869184
-0.825862
-0.785518
-0.749714
-0.718501
-0.690152
-0.661676
-0.631346
-0.600209
-0.570856
-0.54574
-0.735373
-0.738552
-0.74518
-0.755484
-0.770391
-0.797416
-0.861525
-1.07166
-1.73473
-1.58588
-0.973312
-1.42796
-1.59344
-1.5253
-1.03932
-1.03993
-1.04022
-1.04016
-1.03339
-1.01798
-0.989622
-1.01393
-1.02923
-1.03884
-1.03932
-1.04109
-1.04099
-0.960207
-0.924586
-0.883563
-0.840662
-0.799003
-0.760812
-0.727022
-0.697297
-0.669571
-0.641324
-0.611354
-0.580744
-0.551878
-0.527247
-0.73104
-0.735894
-0.74417
-0.756741
-0.774049
-0.802629
-0.862927
-1.01397
-1.50701
-1.94877
-1.71579
-1.65085
-1.71601
-1.04098
-1.04092
-1.03596
-1.03516
-1.02061
-0.997668
-0.967254
-0.990895
-1.01714
-1.03022
-1.03163
-1.0397
-1.04034
-0.935581
-0.897906
-0.856345
-0.813932
-0.773637
-0.73705
-0.704747
-0.675884
-0.648508
-0.620629
-0.591387
-0.561625
-0.533462
-0.509422
-0.726243
-0.732482
-0.742553
-0.756967
-0.77645
-0.805729
-0.861155
-0.974798
-1.32369
-1.59429
-1.80189
-1.81424
-1.67124
-1.03766
-1.03647
-1.02345
-1.02064
-1.00151
-0.977991
-0.945011
-0.970947
-0.994003
-1.01305
-1.02344
-1.0312
-1.03361
-0.910991
-0.871788
-0.829649
-0.787862
-0.748738
-0.713589
-0.682349
-0.654049
-0.627089
-0.600009
-0.571896
-0.543208
-0.515812
-0.492417
-0.720625
-0.728432
-0.740006
-0.756301
-0.777518
-0.807606
-0.858106
-0.948521
-1.18665
-1.45618
-1.4444
-1.62689
-1.73478
-1.77016
-1.71572
-1.02618
-1.0212
-1.00537
-1.00284
-0.98392
-0.957328
-0.922004
-0.949654
-0.975457
-0.995687
-0.997898
-1.02879
-0.885996
-0.845348
-0.803102
-0.761979
-0.724154
-0.690203
-0.659739
-0.631935
-0.605743
-0.579939
-0.553298
-0.52574
-0.499011
-0.476107
-0.714379
-0.723458
-0.736613
-0.754449
-0.777424
-0.808249
-0.855112
-0.929648
-1.09543
-1.3163
-1.39333
-1.33536
-1.43845
-1.50374
-1.60428
-1.65119
-1.72858
-0.988373
-0.986054
-0.964118
-0.935229
-0.897603
-0.927322
-0.954728
-0.977398
-0.979888
-0.859346
-0.818156
-0.776201
-0.736213
-0.699725
-0.666787
-0.636947
-0.609893
-0.585011
-0.560952
-0.535872
-0.509241
-0.482932
-0.460419
-0.707229
-0.717673
-0.732109
-0.751502
-0.775911
-0.807737
-0.852153
-0.91617
-1.0357
-1.20599
-1.31383
-1.32012
-1.27611
-1.31838
-1.36266
-1.41175
-1.44829
-1.48344
-1.52337
-1.60092
-1.65377
-0.969151
-0.966527
-0.942482
-0.912347
-0.870398
-0.903563
-0.932828
-0.956785
-0.959586
-0.831679
-0.790526
-0.749462
-0.710856
-0.67557
-0.643428
-0.614337
-0.588525
-0.565477
-0.54334
-0.519636
-0.493573
-0.467431
-0.445114
-0.699359
-0.710867
-0.726585
-0.747222
-0.773088
-0.805775
-0.84889
-0.90581
-0.996238
-1.12551
-1.23101
-1.27684
-1.27227
-1.22543
-1.25009
-1.27907
-1.29607
-1.31868
-1.34003
-1.369
-1.40419
-1.44074
-1.47627
-1.51399
-0.947761
-0.944929
-0.920705
-0.884083
-0.842085
-0.873863
-0.915978
-0.907812
-0.934961
-0.937802
-0.803298
-0.762981
-0.723247
-0.685975
-0.651731
-0.620352
-0.592396
-0.568399
-0.547507
-0.527191
-0.504411
-0.478469
-0.452274
-0.430115
-0.690588
-0.703163
-0.719846
-0.741709
-0.768758
-0.802453
-0.844836
-0.897366
-0.969542
-1.06841
-1.1612
-1.22007
-1.24775
-1.22904
-1.17852
-1.19959
-1.22267
-1.2366
-1.25441
-1.27336
-1.28463
-1.31012
-1.32996
-1.3619
-0.926057
-0.923666
-0.911952
-0.895064
-0.889357
-0.855063
-0.813095
-0.844698
-0.881689
-0.876435
-0.910955
-0.775082
-0.736088
-0.697753
-0.66184
-0.628386
-0.598
-0.571753
-0.549971
-0.531209
-0.512258
-0.489828
-0.463655
-0.437339
-0.415328
-0.681116
-0.694426
-0.711991
-0.73478
-0.763051
-0.797622
-0.839843
-0.88937
-0.950306
-1.02811
-1.10673
-1.16672
-1.20884
-1.21939
-1.18788
-1.13342
-1.15259
-1.17321
-1.1874
-1.21048
-1.22271
-1.251
-1.23506
-1.26163
-1.27579
-1.30015
-1.31706
-0.91794
-0.901315
-0.894025
-0.865051
-0.85954
-0.825824
-0.784098
-0.815561
-0.852023
-0.846953
-0.886624
-0.879955
-0.913777
-0.748069
-0.710153
-0.673473
-0.638375
-0.605771
-0.576901
-0.552809
-0.533329
-0.516341
-0.498127
-0.475492
-0.44891
-0.422562
-0.400866
-0.670873
-0.684805
-0.702879
-0.726523
-0.755813
-0.791455
-0.833791
-0.881624
-0.93536
-0.998772
-1.06515
-1.12188
-1.16821
-1.19622
-1.18875
-1.14731
-1.08564
-1.10496
-1.12621
-1.13846
-1.15993
-1.17455
-1.18454
-1.20767
-1.19623
-1.24206
-1.25271
-0.904571
-0.896786
-0.870698
-0.863788
-0.835877
-0.830478
-0.796533
-0.757088
-0.785876
-0.823079
-0.818112
-0.85676
-0.850493
-0.8894
-0.882328
-0.721535
-0.68582
-0.650104
-0.615731
-0.584353
-0.557463
-0.535713
-0.518275
-0.502421
-0.484237
-0.461075
-0.434182
-0.408042
-0.386818
-0.660101
-0.674259
-0.692615
-0.71677
-0.747126
-0.783845
-0.826783
-0.873527
-0.922739
-0.976415
-1.03287
-1.08524
-1.13172
-1.1677
-1.17852
-1.15586
-1.10329
-1.03736
-1.05743
-1.07841
-1.08972
-1.11194
-1.121
-1.13248
-1.15493
-1.14639
-0.873617
-0.866393
-0.841667
-0.834994
-0.806763
-0.801173
-0.767398
-0.730311
-0.758078
-0.792886
-0.787643
-0.828111
-0.821878
-0.859537
-0.852985
-0.697583
-0.662887
-0.627622
-0.594118
-0.564443
-0.539794
-0.520223
-0.504267
-0.488806
-0.470167
-0.446449
-0.41954
-0.393906
-0.373378
-0.648846
-0.662983
-0.681121
-0.705563
-0.736787
-0.774889
-0.818827
-0.865476
-0.911685
-0.95842
-1.00697
-1.05478
-1.10019
-1.1395
-1.1615
-1.15586
-1.1187
-1.05683
-0.989183
-1.01053
-1.0323
-1.04471
-1.06543
-1.07343
-1.08371
-1.10579
-1.09525
-1.1122
-1.12411
-1.14447
-1.13797
-0.844738
-0.8378
-0.812754
-0.80556
-0.775543
-0.770135
-0.741296
-0.706973
-0.732294
-0.764713
-0.757441
-0.797721
-0.790637
-0.831075
-0.8245
-0.675089
-0.640639
-0.606
-0.57385
-0.546149
-0.523691
-0.505854
-0.490647
-0.474943
-0.455663
-0.431682
-0.405186
-0.380347
-0.360618
-0.637428
-0.651041
-0.668531
-0.692736
-0.724772
-0.764358
-0.809983
-0.857188
-0.901838
-0.943638
-0.985498
-1.02864
-1.07232
-1.11314
-1.14184
-1.14866
-1.12737
-1.07737
-1.00979
-0.950876
-0.960612
-0.984978
-1.00062
-1.02257
-1.03264
-1.0426
-1.06084
-1.05133
-1.06607
-1.07616
-1.09765
-1.0872
-0.815868
-0.808269
-0.780389
-0.770779
-0.748807
-0.744175
-0.718754
-0.685085
-0.710177
-0.738691
-0.734838
-0.769975
-0.757148
-0.800561
-0.792912
-0.653419
-0.619279
-0.585487
-0.554886
-0.529269
-0.508675
-0.4919
-0.476765
-0.460519
-0.440799
-0.417022
-0.39134
-0.367484
-0.348605
-0.626032
-0.638717
-0.654851
-0.678301
-0.710749
-0.75214
-0.80011
-0.849108
-0.893308
-0.931509
-0.96767
-1.00577
-1.0469
-1.08803
-1.12107
-1.13665
-1.12842
-1.09286
-1.03317
-0.96818
-0.938935
-0.923327
-0.959564
-0.975707
-0.989294
-1.00048
-1.02274
-1.0119
-1.02927
-1.03967
-1.05413
-1.04578
-0.783451
-0.773367
-0.752098
-0.74725
-0.727166
-0.722778
-0.697097
-0.663802
-0.688832
-0.717132
-0.713329
-0.742313
-0.738043
-0.775516
-0.632157
-0.598494
-0.565896
-0.537151
-0.513386
-0.494093
-0.477738
-0.462283
-0.445559
-0.425838
-0.402772
-0.378201
-0.355374
-0.337279
-0.61507
-0.626227
-0.640312
-0.662085
-0.694478
-0.737686
-0.788983
-0.840839
-0.886084
-0.922039
-0.953218
-0.986102
-1.0236
-1.06371
-1.0992
-1.12107
-1.12277
-1.10032
-1.05318
-0.990225
-0.935347
-0.916421
-0.930457
-0.940857
-0.899538
-0.953028
-0.975736
-0.962572
-0.985894
-0.997244
-1.02109
-1.00859
-1.02483
-0.731331
-0.726308
-0.705848
-0.701634
-0.676037
-0.642693
-0.66785
-0.696147
-0.69242
-0.721204
-0.716916
-0.611307
-0.578444
-0.547275
-0.520219
-0.497902
-0.47935
-0.462998
-0.447201
-0.430376
-0.411191
-0.389224
-0.36586
-0.343973
-0.326556
-0.604856
-0.613995
-0.625096
-0.644155
-0.675532
-0.720547
-0.776065
-0.832559
-0.880358
-0.915191
-0.942245
-0.969831
-1.00293
-1.04056
-1.07661
-1.10252
-1.11153
-1.09959
-1.06507
-1.01085
-0.951988
-0.906738
-0.895406
-0.909152
-0.920433
-0.929114
-0.932511
-0.936546
-0.941622
-0.877989
-0.94741
-0.953995
-0.965083
-0.973231
-0.983785
-0.99488
-1.01756
-1.00602
-0.710375
-0.705518
-0.685043
-0.680871
-0.654927
-0.621544
-0.646594
-0.675342
-0.671557
-0.700532
-0.696276
-0.590639
-0.558878
-0.529223
-0.503648
-0.482316
-0.464146
-0.447724
-0.431865
-0.415434
-0.397234
-0.37655
-0.354296
-0.333166
-0.316294
-0.595868
-0.602411
-0.609649
-0.624578
-0.653721
-0.699969
-0.760759
-0.823624
-0.876236
-0.911207
-0.934686
-0.95729
-0.985503
-1.01962
-1.05439
-1.08212
-1.09601
-1.09189
-1.06783
-1.02456
-0.969103
-0.917572
-0.881615
-0.875927
-0.887019
-0.898732
-0.904638
-0.911948
-0.919724
-0.923484
-0.859495
-0.962175
-0.970984
-0.689789
-0.684906
-0.663917
-0.659593
-0.633424
-0.60049
-0.624975
-0.653771
-0.649872
-0.679816
-0.675387
-0.570467
-0.539865
-0.51149
-0.487005
-0.466439
-0.448567
-0.432272
-0.416775
-0.401193
-0.384233
-0.364767
-0.343391
-0.322801
-0.306331
-0.588465
-0.592047
-0.594484
-0.603749
-0.628734
-0.67523
-0.742128
-0.813946
-0.874148
-0.910385
-0.930697
-0.948507
-0.971844
-1.00175
-1.03398
-1.06151
-1.07796
-1.07911
-1.06296
-1.02951
-0.981696
-0.929658
-0.88731
-0.860419
-0.859009
-0.870176
-0.879237
-0.882843
-0.888651
-0.893733
-0.899478
-0.903797
-0.911194
-0.918693
-0.921129
-0.843708
-0.668582
-0.663412
-0.64204
-0.63765
-0.611975
-0.579798
-0.603731
-0.631832
-0.627924
-0.657995
-0.653373
-0.550464
-0.520909
-0.493707
-0.470321
-0.450443
-0.433
-0.417155
-0.402415
-0.387961
-0.372248
-0.353769
-0.33296
-0.312692
-0.296449
-0.583081
-0.583425
-0.580426
-0.582205
-0.600563
-0.645289
-0.718893
-0.802708
-0.874878
-0.913674
-0.930539
-0.943604
-0.962064
-0.98755
-1.01638
-1.0423
-1.05936
-1.06353
-1.05281
-1.02696
-0.98739
-0.939326
-0.89417
-0.861866
-0.842661
-0.843982
-0.855976
-0.864254
-0.868473
-0.872478
-0.875271
-0.879697
-0.882212
-0.887631
-0.892203
-0.897124
-0.829078
-0.6464
-0.641185
-0.620338
-0.616021
-0.590989
-0.559286
-0.582884
-0.610439
-0.60662
-0.635806
-0.631261
-0.530648
-0.50216
-0.47619
-0.453822
-0.434738
-0.417932
-0.402818
-0.389093
-0.375838
-0.361181
-0.343332
-0.322777
-0.302647
-0.286464
-0.57994
-0.57712
-0.56839
-0.56108
-0.56931
-0.609265
-0.68911
-0.789344
-0.879996
-0.922474
-0.934987
-0.942689
-0.956286
-0.977141
-1.00216
-1.02553
-1.04176
-1.04715
-1.0398
-1.01941
-0.98679
-0.944538
-0.900197
-0.864029
-0.840986
-0.826984
-0.829698
-0.837823
-0.849444
-0.855684
-0.861418
-0.863269
-0.867555
-0.869322
-0.8719
-0.874172
-0.877469
-0.816208
-0.62457
-0.619511
-0.599247
-0.595026
-0.570176
-0.538766
-0.562121
-0.589509
-0.585732
-0.614375
-0.609963
-0.510865
-0.483846
-0.45916
-0.437964
-0.419772
-0.403726
-0.389524
-0.3769
-0.364711
-0.35077
-0.333162
-0.312602
-0.292484
-0.27626
-0.573507
-0.559442
-0.542107
-0.536025
-0.565579
-0.650549
-0.772584
-0.892114
-0.93912
-0.94511
-0.946363
-0.954579
-0.9706
-0.99135
-1.01164
-1.02612
-1.0314
-1.02587
-1.00918
-0.981894
-0.945382
-0.904096
-0.866389
-0.839438
-0.823394
-0.813078
-0.817811
-0.826105
-0.832601
-0.83311
-0.841254
-0.846954
-0.852538
-0.85775
-0.864834
-0.864536
-0.869162
-0.804332
-0.603485
-0.59852
-0.578295
-0.574053
-0.549276
-0.518165
-0.541213
-0.568459
-0.564675
-0.593414
-0.58899
-0.492158
-0.466421
-0.443163
-0.423146
-0.405775
-0.39053
-0.377303
-0.365703
-0.354291
-0.340649
-0.322934
-0.302236
-0.282115
-0.26588
-0.554437
-0.527563
-0.503726
-0.512136
-0.59936
-0.752943
-0.91608
-0.966745
-0.962352
-0.955318
-0.957328
-0.967846
-0.983873
-1.00055
-1.01273
-1.01703
-1.01216
-0.997921
-0.974637
-0.943065
-0.905687
-0.868474
-0.838573
-0.819325
-0.808113
-0.800336
-0.806629
-0.815625
-0.822227
-0.826644
-0.831527
-0.839312
-0.842498
-0.847643
-0.852715
-0.857888
-0.864538
-0.863285
-0.791797
-0.582422
-0.577378
-0.557162
-0.552902
-0.528323
-0.498715
-0.520284
-0.547315
-0.543559
-0.572168
-0.567701
-0.474443
-0.450153
-0.428551
-0.409425
-0.392734
-0.378304
-0.365994
-0.355192
-0.344161
-0.330403
-0.312381
-0.291577
-0.271564
-0.519471
-0.477434
-0.452619
-0.52505
-0.728951
-0.959779
-1.01034
-0.988058
-0.970428
-0.965043
-0.969084
-0.979505
-0.992008
-1.00146
-1.00426
-0.999272
-0.98653
-0.966302
-0.938873
-0.905505
-0.870101
-0.838676
-0.815997
-0.80236
-0.794363
-0.787586
-0.793918
-0.804671
-0.812019
-0.816409
-0.82235
-0.824844
-0.828329
-0.833167
-0.829806
-0.837949
-0.842408
-0.847648
-0.852397
-0.778715
-0.561115
-0.556055
-0.536096
-0.531869
-0.507262
-0.481252
-0.499442
-0.5262
-0.522446
-0.550886
-0.546487
-0.457871
-0.435941
-0.415189
-0.396588
-0.380507
-0.366819
-0.355264
-0.344927
-0.333846
-0.319682
-0.301377
-0.280683
-0.462297
-0.402888
-0.414801
-0.686007
-1.03092
-1.07829
-1.02338
-0.992366
-0.97818
-0.974459
-0.978141
-0.985568
-0.991845
-0.992864
-0.987273
-0.97537
-0.957506
-0.933639
-0.904155
-0.871343
-0.839756
-0.81431
-0.797323
-0.787495
-0.781232
-0.774641
-0.780699
-0.791079
-0.798646
-0.80578
-0.813149
-0.815647
-0.820851
-0.823475
-0.820813
-0.765476
-0.540002
-0.534974
-0.51456
-0.510183
-0.489566
-0.464382
-0.481111
-0.5036
-0.499075
-0.529723
-0.525228
-0.443998
-0.422903
-0.402585
-0.384366
-0.368774
-0.355723
-0.344691
-0.33443
-0.322942
-0.308329
-0.289996
-0.269739
-0.371179
-0.359596
-0.3057
-0.535195
-0.436353
-0.291265
-1.01444
-0.746854
-1.07157
-1.1643
-1.19901
-1.0685
-1.02108
-0.99689
-0.984152
-0.979796
-0.981025
-0.983384
-0.982402
-0.976024
-0.964526
-0.948488
-0.927734
-0.901981
-0.872241
-0.841649
-0.814544
-0.794248
-0.781359
-0.773883
-0.768391
-0.761817
-0.767249
-0.777908
-0.784978
-0.791472
-0.798604
-0.803649
-0.807845
-0.816341
-0.81139
-0.81422
-0.752121
-0.51839
-0.512899
-0.495751
-0.487618
-0.472325
-0.450943
-0.466553
-0.484449
-0.482163
-0.50704
-0.501073
-0.431418
-0.410629
-0.390443
-0.37232
-0.357152
-0.34464
-0.333856
-0.323292
-0.311264
-0.296431
-0.278471
-0.272858
-0.254924
-0.230978
-0.338131
-0.56879
-0.605119
-1.01659
-0.997151
-0.800829
-1.27449
-1.12163
-1.20371
-1.11728
-1.19992
-1.05403
-1.02039
-0.997645
-0.984348
-0.978245
-0.975726
-0.972316
-0.965151
-0.953937
-0.939354
-0.921308
-0.89908
-0.872691
-0.843989
-0.816452
-0.7936
-0.777314
-0.767208
-0.761078
-0.755991
-0.749143
-0.753423
-0.764784
-0.771822
-0.778192
-0.784729
-0.789219
-0.79308
-0.800093
-0.796327
-0.803459
-0.807414
-0.815808
-0.810794
-0.738143
-0.501521
-0.47722
-0.474261
-0.458779
-0.438485
-0.453406
-0.470482
-0.468103
-0.41926
-0.398614
-0.378073
-0.360014
-0.345346
-0.333276
-0.322409
-0.311321
-0.298905
-0.284275
-0.177761
-0.150535
-0.183469
-0.251664
-0.502086
-0.521705
-0.277261
-0.793641
-1.03466
-0.934826
-1.32047
-1.24602
-1.26837
-1.1601
-1.08351
-1.1405
-1.21364
-1.04447
-1.01339
-0.991204
-0.977251
-0.968851
-0.962344
-0.95428
-0.943452
-0.93018
-0.914486
-0.895496
-0.872518
-0.84632
-0.819426
-0.79511
-0.775876
-0.762569
-0.754306
-0.749019
-0.744022
-0.736264
-0.737559
-0.750086
-0.758489
-0.765534
-0.772053
-0.77604
-0.779488
-0.785881
-0.782313
-0.788799
-0.792492
-0.799416
-0.795921
-0.725571
-0.463387
-0.460792
-0.446007
-0.426334
-0.440837
-0.457202
-0.455057
-0.407498
-0.386126
-0.364871
-0.347287
-0.33325
-0.32141
-0.310171
-0.298606
-0.286183
-0.145922
-0.10975
-0.0749949
-0.0872152
-0.179525
-0.404417
-0.580826
-1.29014
-1.28617
-1.28008
-1.17688
-1.11619
-1.06067
-1.09896
-1.14753
-1.22197
-1.24124
-1.02772
-0.998825
-0.977563
-0.962871
-0.952482
-0.943219
-0.932873
-0.920972
-0.907408
-0.891327
-0.871626
-0.848237
-0.822787
-0.798065
-0.776765
-0.760472
-0.749363
-0.742387
-0.737594
-0.73214
-0.724154
-0.72514
-0.728811
-0.741192
-0.751014
-0.759642
-0.764646
-0.768673
-0.773483
-0.770634
-0.775652
-0.778791
-0.785061
-0.781787
-0.71545
-0.450517
-0.448078
-0.433503
-0.414554
-0.428505
-0.444533
-0.442413
-0.395425
-0.371708
-0.351013
-0.334276
-0.320827
-0.30891
-0.29722
-0.285487
-0.152625
-0.102426
-0.0417972
-0.0582602
-0.207446
-1.19635
-1.1822
-1.12667
-1.07647
-1.03511
-1.06255
-1.10326
-1.15511
-1.15376
-1.00451
-0.978096
-0.957798
-0.943138
-0.932068
-0.922105
-0.91171
-0.9002
-0.886733
-0.870049
-0.849511
-0.82598
-0.801687
-0.779252
-0.760645
-0.746731
-0.737296
-0.731234
-0.726468
-0.720679
-0.713632
-0.722816
-0.715639
-0.734273
-0.741545
-0.749058
-0.753958
-0.763082
-0.758827
-0.764883
-0.770782
-0.772838
-0.770929
-0.705765
-0.437783
-0.435398
-0.421197
-0.403643
-0.416413
-0.43186
-0.4298
-0.38014
-0.356413
-0.336932
-0.321168
-0.308027
-0.29583
-0.283887
-1.13594
-1.12377
-1.07959
-1.04289
-1.006
-1.02988
-1.06233
-1.09861
-1.10912
-1.15673
-1.14791
-0.977498
-0.953354
-0.934824
-0.921499
-0.911436
-0.902421
-0.892954
-0.881885
-0.867915
-0.850082
-0.828672
-0.805362
-0.782561
-0.762404
-0.746171
-0.73421
-0.726082
-0.720525
-0.715612
-0.710095
-0.703706
-0.714696
-0.720202
-0.723504
-0.706118
-0.72614
-0.733712
-0.743681
-0.738817
-0.749139
-0.754333
-0.765576
-0.759495
-0.762796
-0.695752
-0.425038
-0.422739
-0.40944
-0.396177
-0.405628
-0.392334
-0.419211
-0.417237
-0.362011
-0.384444
-0.341242
-0.323005
-0.308016
-0.294896
-0.282469
-1.13638
-1.1238
-1.08431
-1.07543
-1.04301
-1.01035
-0.975317
-0.997459
-1.02726
-1.05714
-1.06499
-1.0982
-1.1092
-0.949167
-0.927953
-0.912368
-0.901575
-0.893442
-0.885796
-0.87693
-0.865383
-0.850014
-0.830718
-0.808704
-0.786085
-0.765035
-0.747087
-0.732943
-0.722603
-0.715414
-0.710063
-0.705183
-0.699985
-0.693605
-0.705396
-0.712856
-0.716818
-0.719292
-0.721249
-0.722796
-0.724472
-0.730783
-0.696248
-0.733274
-0.743652
-0.73851
-0.748833
-0.75399
-0.764733
-0.758923
-0.685049
-0.412515
-0.410496
-0.399163
-0.407531
-0.406265
-0.388156
-0.371994
-0.345756
-0.363893
-0.326435
-0.309414
-0.294873
-0.281654
-1.08389
-1.07445
-1.04525
-1.03809
-1.00923
-0.978472
-0.945878
-0.965775
-0.994285
-1.02184
-1.02855
-1.05563
-1.06416
-0.923106
-0.905634
-0.893655
-0.885515
-0.879012
-0.872005
-0.862572
-0.849403
-0.8321
-0.811508
-0.789439
-0.767993
-0.748865
-0.733004
-0.720682
-0.711632
-0.705042
-0.69981
-0.695006
-0.689768
-0.683012
-0.695467
-0.703366
-0.707248
-0.713398
-0.713997
-0.71563
-0.717389
-0.728698
-0.685146
-0.732842
-0.743202
-0.738128
-0.674084
-0.391814
-0.397583
-0.40254
-0.40062
-0.390515
-0.37694
-0.353947
-0.330236
-0.346591
-0.367309
-0.312318
-0.296241
-0.281876
-1.04435
-1.0365
-1.01109
-1.00467
-0.977257
-0.949264
-0.920873
-0.937655
-0.963293
-0.989643
-0.995886
-1.02019
-1.02751
-0.901932
-0.888547
-0.879691
-0.873243
-0.867332
-0.859607
-0.848328
-0.83285
-0.813696
-0.7924
-0.770928
-0.751046
-0.733894
-0.719943
-0.709155
-0.701048
-0.694823
-0.689647
-0.684734
-0.679178
-0.67212
-0.683913
-0.690765
-0.696824
-0.700647
-0.704204
-0.708665
-0.707581
-0.674182
-0.663175
-0.391307
-0.396026
-0.382893
-0.378312
-0.357812
-0.337398
-0.315773
-0.330775
-0.349401
-0.368294
-0.372439
-0.299047
-0.28352
-1.01038
-1.00343
-0.979563
-0.973374
-0.948617
-0.92508
-0.901731
-0.915292
-0.936647
-0.959656
-0.965473
-0.988637
-0.995398
-0.886761
-0.876902
-0.86937
-0.863328
-0.856581
-0.846842
-0.832982
-0.815231
-0.794846
-0.773626
-0.753332
-0.735241
-0.719994
-0.707721
-0.698138
-0.690669
-0.684633
-0.679371
-0.674167
-0.668327
-0.661229
-0.673137
-0.679234
-0.684647
-0.687326
-0.690368
-0.693751
-0.69674
-0.699362
-0.703236
-0.707742
-0.704918
-0.663169
-0.652351
-0.385693
-0.392906
-0.38048
-0.362704
-0.358774
-0.340962
-0.322508
-0.302495
-0.316623
-0.333587
-0.350294
-0.353868
-0.370343
-0.37513
-0.286524
-0.979367
-0.972696
-0.951399
-0.94574
-0.925161
-0.907156
-0.888043
-0.89937
-0.915825
-0.934284
-0.939482
-0.959362
-0.965461
-0.877182
-0.867946
-0.860596
-0.853768
-0.844997
-0.832521
-0.816094
-0.79671
-0.775962
-0.755545
-0.736811
-0.720552
-0.70704
-0.696147
-0.687438
-0.680349
-0.674328
-0.668833
-0.663346
-0.657419
-0.650328
-0.662324
-0.669423
-0.674073
-0.676045
-0.678754
-0.681463
-0.684119
-0.685874
-0.689075
-0.692298
-0.695391
-0.652679
-0.641312
-0.387429
-0.382088
-0.365259
-0.360819
-0.345552
-0.342175
-0.326168
-0.309117
-0.29007
-0.30378
-0.31964
-0.334893
-0.337965
-0.352369
-0.356374
-0.371829
-0.376769
-0.951533
-0.945693
-0.928061
-0.923072
-0.908281
-0.893685
-0.87964
-0.888693
-0.901824
-0.914412
-0.918727
-0.934643
-0.939865
-0.868827
-0.859568
-0.851534
-0.842869
-0.831446
-0.816265
-0.79793
-0.777841
-0.757564
-0.738459
-0.721436
-0.706905
-0.694874
-0.685034
-0.676893
-0.66996
-0.663797
-0.65804
-0.652416
-0.646476
-0.639265
-0.652281
-0.659984
-0.664708
-0.667345
-0.669489
-0.671341
-0.673598
-0.674744
-0.677371
-0.67988
-0.682454
-0.641545
-0.630373
-0.366826
-0.362312
-0.348128
-0.344374
-0.330752
-0.3278
-0.312955
-0.296683
-0.306971
-0.321341
-0.324065
-0.337178
-0.340609
-0.353881
-0.357937
-0.928312
-0.923357
-0.910975
-0.907186
-0.894947
-0.885323
-0.870679
-0.878967
-0.891771
-0.902377
-0.905392
-0.915113
-0.919093
-0.859815
-0.850069
-0.840651
-0.829841
-0.815773
-0.798485
-0.779193
-0.759304
-0.740094
-0.722542
-0.707185
-0.69417
-0.683314
-0.674203
-0.666367
-0.659413
-0.653046
-0.647123
-0.641458
-0.635422
-0.628232
-0.640796
-0.649145
-0.655346
-0.660739
-0.661248
-0.663981
-0.665624
-0.666817
-0.668541
-0.670169
-0.672122
-0.630793
-0.620129
-0.349734
-0.345952
-0.333492
-0.330195
-0.317595
-0.31493
-0.30064
-0.308938
-0.311463
-0.323795
-0.326865
-0.338799
-0.342275
-0.911131
-0.907863
-0.900103
-0.893747
-0.886694
-0.874728
-0.860478
-0.868641
-0.880237
-0.892015
-0.895956
-0.90444
-0.906064
-0.849255
-0.838586
-0.827818
-0.814654
-0.798383
-0.77997
-0.760679
-0.741638
-0.723803
-0.707811
-0.693949
-0.682173
-0.672168
-0.663499
-0.655771
-0.64871
-0.642197
-0.636215
-0.630487
-0.624416
-0.617705
-0.630049
-0.635744
-0.642713
-0.647228
-0.650686
-0.65441
-0.657629
-0.662946
-0.661121
-0.665916
-0.665391
-0.620907
-0.610098
-0.335198
-0.331865
-0.32047
-0.317454
-0.305328
-0.302791
-0.311497
-0.314381
-0.325485
-0.328609
-0.904114
-0.892835
-0.889036
-0.88544
-0.874708
-0.86366
-0.84849
-0.857288
-0.868653
-0.878819
-0.882237
-0.893359
-0.900067
-0.836541
-0.825497
-0.813074
-0.797774
-0.78023
-0.761647
-0.743021
-0.725163
-0.708741
-0.694168
-0.681552
-0.670707
-0.661257
-0.652812
-0.645091
-0.637955
-0.631407
-0.625404
-0.619638
-0.613815
-0.607591
-0.620683
-0.626174
-0.630466
-0.629934
-0.635926
-0.64025
-0.64362
-0.647038
-0.650817
-0.654535
-0.658287
-0.662556
-0.659094
-0.610989
-0.600062
-0.322248
-0.319171
-0.308303
-0.305354
-0.313242
-0.316185
-0.889634
-0.889346
-0.885618
-0.875786
-0.872395
-0.862945
-0.850986
-0.833789
-0.843833
-0.856585
-0.866266
-0.869487
-0.878695
-0.882153
-0.893365
-0.899622
-0.823341
-0.811335
-0.796846
-0.780107
-0.762228
-0.744174
-0.726552
-0.70993
-0.694805
-0.68143
-0.669777
-0.659568
-0.65044
-0.642106
-0.634403
-0.627296
-0.620794
-0.614805
-0.609173
-0.603723
-0.59766
-0.610733
-0.617584
-0.621803
-0.624802
-0.628776
-0.635089
-0.636027
-0.639674
-0.643203
-0.646718
-0.650566
-0.654321
-0.657811
-0.600909
-0.589634
-0.310128
-0.307108
-0.889363
-0.885686
-0.875086
-0.871651
-0.863475
-0.860236
-0.849963
-0.836142
-0.821405
-0.823886
-0.843031
-0.853921
-0.857283
-0.865469
-0.868531
-0.878571
-0.882004
-0.809686
-0.79584
-0.779878
-0.762631
-0.745124
-0.727908
-0.711324
-0.69583
-0.681801
-0.66937
-0.658398
-0.648586
-0.639652
-0.631427
-0.623836
-0.616863
-0.610466
-0.604602
-0.599244
-0.593993
-0.587649
-0.600702
-0.608276
-0.612266
-0.616827
-0.620771
-0.623076
-0.625041
-0.629
-0.627128
-0.632453
-0.63527
-0.639077
-0.642712
-0.590102
-0.579002
-0.874623
-0.871209
-0.862378
-0.859312
-0.850572
-0.847055
-0.835123
-0.819454
-0.808718
-0.832992
-0.840333
-0.843904
-0.853083
-0.856313
-0.86499
-0.867909
-0.795268
-0.779887
-0.763141
-0.746003
-0.72919
-0.712833
-0.697182
-0.682642
-0.669487
-0.657739
-0.647217
-0.637668
-0.62892
-0.620889
-0.613524
-0.606761
-0.60055
-0.594928
-0.58979
-0.584427
-0.577578
-0.589343
-0.596943
-0.60263
-0.607903
-0.611125
-0.615348
-0.617054
-0.620775
-0.618768
-0.578974
-0.568326
-0.861722
-0.858814
-0.849604
-0.84624
-0.836293
-0.828694
-0.822898
-0.808242
-0.817733
-0.795301
-0.829237
-0.840097
-0.843165
-0.852652
-0.855727
-0.78032
-0.764006
-0.747116
-0.730533
-0.714407
-0.698779
-0.683901
-0.670114
-0.6576
-0.646325
-0.636121
-0.626821
-0.618343
-0.610626
-0.603574
-0.597087
-0.591144
-0.585767
-0.580653
-0.574939
-0.567517
-0.577873
-0.585031
-0.590543
-0.595537
-0.601888
-0.606102
-0.609482
-0.613818
-0.609084
-0.567843
-0.557431
-0.84907
-0.845885
-0.836877
-0.837217
-0.824902
-0.822534
-0.81209
-0.795884
-0.80647
-0.819839
-0.817223
-0.781479
-0.830478
-0.827457
-0.839989
-0.84279