/*--------------------------------*- C++ -*----------------------------------*\
| =========                 |                                                 |
| \\      /  F ield         | OpenFOAM: The Open Source CFD Toolbox           |
|  \\    /   O peration     | Version:  v1912                                 |
|   \\  /    A nd           | Website:  www.openfoam.com                      |
|    \\/     M anipulation  |                                                 |
\*---------------------------------------------------------------------------*/
FoamFile
{
    version     2.0;
    format      ascii;
    class       volScalarField;
    location    "430";
    object      p;
}
// * * * * * * * * * * * * * * * * * * * * * * * * * * * * * * * * * * * * * //

dimensions      [0 2 -2 0 0 0 0];


internalField   nonuniform List<scalar> 
3754
(
0.237282
0.233969
0.270936
0.227614
0.263805
0.377376
0.218831
0.250621
0.354922
0.554883
0.539896
0.208411
0.234276
0.313039
0.506767
0.451104
0.665529
0.673885
0.614644
0.64334
0.197082
0.216953
0.265599
0.384957
0.31817
0.51522
0.568449
0.460392
0.503971
0.185412
0.199844
0.223115
0.23902
0.379312
0.427725
0.221142
0.205136
0.377316
0.173822
0.183435
0.188228
0.176921
-0.321612
-0.264479
0.135358
0.123336
-0.202744
-0.221934
0.162616
0.168002
0.159789
0.134814
-0.337804
-0.521349
-0.465456
-0.482492
-0.16815
-0.452573
0.152025
0.153758
0.136309
0.103773
-0.26953
-0.418005
-0.438634
-0.546594
-0.529393
-0.436675
-0.551301
0.142229
0.140857
0.116662
0.0765435
-0.219593
-0.376798
-0.347301
-0.424411
-0.463361
-0.425346
-0.440206
-0.554367
0.133364
0.129394
0.100114
0.0532701
-0.185711
-0.338281
-0.333975
-0.315269
-0.348297
-0.372061
-0.464843
-0.375889
-0.420107
-0.434057
-0.445274
0.125535
0.119413
0.0861582
0.0341946
-0.161998
-0.306499
-0.319919
-0.311511
-0.305941
-0.313281
-0.326552
-0.351577
-0.38725
-0.370933
-0.424187
-0.436244
0.118826
0.110944
0.0744066
0.0187137
-0.146006
-0.280765
-0.306628
-0.305679
-0.304274
-0.294865
-0.303929
-0.309898
-0.313648
-0.328322
-0.346846
-0.35866
-0.386688
-0.372429
0.113303
0.104004
0.0645514
0.00622126
-0.136026
-0.261192
-0.295503
-0.299728
-0.301558
-0.294367
-0.284578
-0.29101
-0.298473
-0.304684
-0.311127
-0.309653
-0.319577
-0.33356
-0.325157
-0.347766
-0.35841
0.109025
0.098611
0.0563736
-0.0037352
-0.130583
-0.247282
-0.287161
-0.295017
-0.298791
-0.293346
-0.283551
-0.28555
-0.273182
-0.297229
-0.299134
-0.303712
-0.306575
-0.313801
-0.309541
-0.307938
-0.321848
-0.333001
-0.32589
0.106044
0.094774
0.0497234
-0.0115498
-0.128657
-0.238336
-0.281551
-0.291856
-0.296589
-0.29251
-0.282898
-0.272521
-0.274314
-0.283363
-0.289461
-0.26252
-0.292834
-0.296976
-0.300641
-0.298312
-0.304069
-0.306795
-0.316265
-0.309674
-0.30685
0.104412
0.0925101
0.044495
-0.017524
-0.129625
-0.233851
-0.278531
-0.290231
-0.295172
-0.291978
-0.282709
-0.272301
-0.262432
-0.262748
-0.272792
-0.277808
-0.282361
-0.285585
-0.288011
-0.291119
-0.296832
-0.256539
-0.296431
-0.300891
-0.29856
-0.304399
-0.306924
-0.315849
-0.309711
0.104181
0.0918385
0.040626
-0.0218328
-0.133155
-0.233516
-0.278055
-0.290123
-0.29466
-0.291822
-0.282825
-0.272389
-0.262412
-0.255452
-0.257642
-0.263174
-0.26454
-0.272327
-0.275047
-0.276689
-0.279003
-0.295603
-0.246795
-0.296528
-0.301092
-0.298902
0.105407
0.0927817
0.0381154
-0.0245354
-0.139201
-0.237172
-0.28012
-0.291518
-0.295109
-0.292125
-0.283202
-0.272662
-0.262508
-0.254582
-0.245968
-0.247614
-0.255979
-0.260139
-0.262735
-0.265595
-0.261632
-0.268912
-0.236639
0.10815
0.0953711
0.0370277
-0.0256189
-0.148022
-0.244817
-0.284723
-0.294389
-0.296532
-0.292933
-0.283835
-0.273077
-0.262685
-0.253959
-0.245186
-0.235861
-0.237417
-0.245749
-0.250668
-0.255129
-0.25756
-0.25947
-0.260984
-0.262639
-0.266131
-0.260271
-0.227187
0.112474
0.0996404
0.0375043
-0.0250214
-0.160185
-0.256607
-0.291876
-0.298712
-0.298922
-0.29427
-0.284717
-0.273607
-0.26291
-0.253524
-0.244475
-0.235132
-0.226385
-0.228034
-0.235628
-0.240492
-0.244876
-0.247544
-0.24974
-0.251992
-0.255623
-0.257902
-0.259595
-0.260921
-0.217694
0.118442
0.105632
0.0397929
-0.0226852
-0.176596
-0.272845
-0.3016
-0.304472
-0.302262
-0.296146
-0.285844
-0.274236
-0.263156
-0.253212
-0.243831
-0.234446
-0.225649
-0.2172
-0.218175
-0.226277
-0.230888
-0.234782
-0.237344
-0.2395
-0.241807
-0.245366
-0.247864
-0.249871
-0.251878
-0.210222
0.1261
0.113402
0.0442833
-0.018666
-0.198609
-0.293998
-0.313931
-0.311657
-0.306535
-0.298558
-0.287212
-0.274954
-0.263413
-0.252967
-0.243238
-0.23377
-0.224927
-0.216626
-0.209486
-0.210927
-0.216107
-0.221376
-0.225438
-0.227903
-0.229869
-0.232056
-0.235221
-0.237622
-0.239587
-0.241661
-0.20233
0.13547
0.123036
0.0515966
-0.0131685
-0.228206
-0.320681
-0.328923
-0.320263
-0.311713
-0.301486
-0.288809
-0.275751
-0.263671
-0.25275
-0.242673
-0.233079
-0.224175
-0.215949
-0.208686
-0.201631
-0.202911
-0.209385
-0.213423
-0.214431
-0.218494
-0.220468
-0.222759
-0.225846
-0.228131
-0.22993
-0.231903
-0.194198
0.146535
0.134679
0.0626612
-0.00662637
-0.268255
-0.353622
-0.34664
-0.330288
-0.317764
-0.304893
-0.290614
-0.276613
-0.263923
-0.252527
-0.242108
-0.232362
-0.223374
-0.215161
-0.207812
-0.200822
-0.193579
-0.194739
-0.201213
-0.205239
-0.208553
-0.210655
-0.212576
-0.2149
-0.213843
-0.219758
-0.220671
-0.222586
-0.186538
0.159231
0.148595
0.078575
-0.00033247
-0.322147
-0.393617
-0.367069
-0.341724
-0.324647
-0.308731
-0.292594
-0.277521
-0.264155
-0.252275
-0.241519
-0.231602
-0.222521
-0.214273
-0.206853
-0.199902
-0.192861
-0.185949
-0.187055
-0.192866
-0.197153
-0.200416
-0.202486
-0.204361
-0.206274
-0.208801
-0.210862
-0.212625
-0.215966
-0.213029
-0.179315
0.173357
0.165399
0.100222
0.00292442
-0.392172
-0.440995
-0.38994
-0.354472
-0.332279
-0.312932
-0.294708
-0.278452
-0.264353
-0.251973
-0.240881
-0.230786
-0.221605
-0.213301
-0.205814
-0.198873
-0.192014
-0.185263
-0.178743
-0.179798
-0.185541
-0.189243
-0.191228
-0.194152
-0.196268
-0.198199
-0.200692
-0.202677
-0.204432
-0.206257
-0.208978
-0.210919
-0.212615
-0.215703
-0.172366
0.188448
0.186018
0.128983
0.00399593
-0.481003
-0.493862
-0.41441
-0.368151
-0.340466
-0.317383
-0.296901
-0.279372
-0.264494
-0.251599
-0.240175
-0.229897
-0.220617
-0.212253
-0.204704
-0.197753
-0.191034
-0.184459
-0.178083
-0.171813
-0.172865
-0.178346
-0.181928
-0.185816
-0.189338
-0.193922
-0.194476
-0.196357
-0.198174
-0.200884
-0.202753
-0.204583
-0.206309
-0.165586
0.203871
0.20924
0.169899
0.0153511
-0.599298
-0.546747
-0.438595
-0.381827
-0.348767
-0.32188
-0.299092
-0.280247
-0.264555
-0.251133
-0.239379
-0.228921
-0.219547
-0.211127
-0.203529
-0.196564
-0.189943
-0.183531
-0.177323
-0.171209
-0.165144
-0.16601
-0.171441
-0.17491
-0.178618
-0.182045
-0.185123
-0.186939
-0.190498
-0.188465
-0.193332
-0.194463
-0.196495
-0.198217
-0.159342
0.218681
0.231261
0.229217
0.0319719
-0.743534
-0.592897
-0.45899
-0.393968
-0.356357
-0.326076
-0.301148
-0.281023
-0.264509
-0.250554
-0.238475
-0.227841
-0.218381
-0.209916
-0.202287
-0.195314
-0.188764
-0.182491
-0.17645
-0.170522
-0.164647
-0.15899
-0.15965
-0.164547
-0.168087
-0.171699
-0.174997
-0.177927
-0.179702
-0.183001
-0.181241
-0.153887
0.231925
0.253844
0.244009
0.27778
0.180812
0.239943
0.322167
-0.730794
-0.20683
-0.871407
-0.626849
-0.870089
-0.470534
-0.402846
-0.362149
-0.329474
-0.302878
-0.281633
-0.264329
-0.249846
-0.237449
-0.226644
-0.217107
-0.20861
-0.20097
-0.194006
-0.187516
-0.181359
-0.175467
-0.169728
-0.164057
-0.158548
-0.153419
-0.154301
-0.158865
-0.161049
-0.164931
-0.168273
-0.171005
-0.172736
-0.17591
-0.174203
-0.148049
0.24275
0.273829
0.304923
0.331628
0.353089
0.309999
0.0299934
0.0437139
-0.754135
-0.724224
-0.430418
-1.04108
-0.919575
-0.897418
-0.68204
-0.472441
-0.604383
-0.857789
-0.407208
-0.365436
-0.331606
-0.304067
-0.281999
-0.264
-0.249012
-0.236301
-0.225326
-0.215715
-0.207198
-0.199566
-0.19263
-0.186205
-0.180152
-0.174393
-0.168826
-0.163358
-0.158013
-0.152912
-0.147671
-0.148381
-0.153018
-0.15598
-0.159259
-0.160871
-0.164817
-0.165958
-0.169125
-0.167462
-0.142331
0.250338
0.287791
0.354114
0.372218
0.396359
0.440732
0.38241
0.330773
0.0384373
-0.0329449
0.357203
-0.180187
-0.948208
-0.860772
-0.6753
-0.503554
-0.407212
-0.45354
-0.604628
-0.366496
-0.3324
-0.304608
-0.282071
-0.263527
-0.248082
-0.23506
-0.223903
-0.21421
-0.205676
-0.198066
-0.191177
-0.184828
-0.178879
-0.173245
-0.167834
-0.162553
-0.15738
-0.15236
-0.14725
-0.142001
-0.142644
-0.147157
-0.150041
-0.153155
-0.156064
-0.158639
-0.160122
-0.160801
-0.161645
-0.136899
0.254009
0.296168
0.378864
0.378514
0.474645
0.500951
0.435595
0.478388
0.538853
0.50528
0.413149
0.0738247
-0.862202
-0.711373
-0.648046
-0.498173
-0.40422
-0.365986
-0.456773
-0.57597
-0.627462
-0.332223
-0.304603
-0.281876
-0.262956
-0.247127
-0.233796
-0.222426
-0.212622
-0.204055
-0.196467
-0.189636
-0.183376
-0.17754
-0.172033
-0.166766
-0.161655
-0.156652
-0.151751
-0.146784
-0.141658
-0.136596
-0.137193
-0.141498
-0.14429
-0.147328
-0.150138
-0.152579
-0.154008
-0.156831
-0.155392
-0.158647
-0.16007
-0.15988
-0.161689
-0.131668
0.253454
0.294269
0.446919
0.523338
0.53527
0.567988
0.59383
0.628175
0.612728
0.476391
0.458802
0.580099
0.511221
0.141063
-0.509542
-0.481651
-0.415505
-0.364142
-0.390928
-0.331339
-0.444701
-0.466232
-0.572414
-0.619195
-0.304194
-0.281497
-0.262362
-0.246238
-0.232613
-0.22099
-0.211021
-0.202378
-0.194789
-0.188012
-0.181845
-0.17613
-0.170756
-0.165635
-0.160683
-0.155844
-0.151082
-0.146271
-0.141297
-0.136303
-0.131396
-0.131943
-0.136077
-0.138778
-0.141671
-0.144396
-0.146755
-0.148176
-0.150938
-0.149514
-0.152697
-0.154042
-0.156824
-0.155471
-0.126594
0.248958
0.285336
0.413904
0.627569
0.569948
0.636865
0.636734
0.610892
0.628305
0.627904
0.672652
0.723136
0.699719
0.387323
-0.501723
-0.481546
-0.443963
-0.419782
-0.405911
-0.371669
-0.329914
-0.353337
-0.396401
-0.386501
-0.303382
-0.46588
-0.280951
-0.261787
-0.245486
-0.231614
-0.219712
-0.209517
-0.200729
-0.193085
-0.186328
-0.180243
-0.174648
-0.169414
-0.164442
-0.159649
-0.154972
-0.150361
-0.145712
-0.140912
-0.136025
-0.131152
-0.126344
-0.126856
-0.130851
-0.133474
-0.136244
-0.138876
-0.141113
-0.142489
-0.145173
-0.14378
-0.146865
-0.148203
-0.150952
-0.149604
-0.121654
0.240923
0.271334
0.372825
0.444873
0.705194
0.49497
0.559186
0.408476
0.733178
0.730791
0.72002
-0.441943
-0.374357
-0.365438
-0.336093
-0.30214
-0.321138
-0.357549
-0.348475
-0.385569
-0.28017
-0.461082
-0.261188
-0.244859
-0.230841
-0.218686
-0.208231
-0.199227
-0.191446
-0.184647
-0.1786
-0.173104
-0.168006
-0.163189
-0.158558
-0.154046
-0.149593
-0.145112
-0.140497
-0.135755
-0.130954
-0.126151
-0.121424
-0.121912
-0.125786
-0.128344
-0.131013
-0.133566
-0.135707
-0.137034
-0.139619
-0.138276
-0.141214
-0.142509
-0.145181
-0.143862
-0.116816
0.229777
0.253536
0.331238
0.369404
0.0361668
0.0584922
0.648349
0.092173
0.0967162
-0.371508
-0.364278
-0.338585
-0.330459
-0.307182
-0.279068
-0.294901
-0.320435
-0.357483
-0.349346
-0.260458
-0.244279
-0.230244
-0.217923
-0.207236
-0.19798
-0.189992
-0.183065
-0.176985
-0.171538
-0.16655
-0.161879
-0.157412
-0.15307
-0.148785
-0.144477
-0.140054
-0.135486
-0.130801
-0.12604
-0.121283
-0.11661
-0.117088
-0.120858
-0.123366
-0.125945
-0.128432
-0.130494
-0.131781
-0.134282
-0.132984
-0.135802
-0.137054
-0.139625
-0.138354
-0.11205
0.215931
0.233001
0.291853
0.310418
0.00812897
-0.0356545
-0.0178375
-0.0318816
-0.0141435
-0.337966
-0.329865
-0.305657
-0.283372
-0.259399
-0.272851
-0.294461
-0.316519
-0.323793
-0.243625
-0.229712
-0.217347
-0.20652
-0.197044
-0.18882
-0.181695
-0.175496
-0.170021
-0.165088
-0.160531
-0.156218
-0.152047
-0.147938
-0.143811
-0.139583
-0.135207
-0.130679
-0.126012
-0.121265
-0.116537
-0.111919
-0.112284
-0.116054
-0.118514
-0.121014
-0.123446
-0.125442
-0.126696
-0.129126
-0.127866
-0.130586
-0.131802
-0.13429
-0.133059
-0.107546
0.199754
0.21054
0.254935
0.262642
0.0267949
-0.00256103
-0.00639393
-0.0363318
-0.0375183
-0.00570929
-0.039707
-0.336048
-0.329408
-0.307851
-0.302164
-0.282077
-0.263079
-0.242699
-0.253685
-0.272421
-0.290936
-0.296949
-0.229122
-0.21684
-0.205994
-0.196385
-0.187962
-0.180619
-0.174237
-0.168648
-0.16369
-0.159191
-0.154997
-0.150984
-0.147051
-0.143113
-0.139086
-0.134914
-0.130572
-0.126049
-0.121371
-0.116627
-0.111939
-0.107471
-0.107721
-0.111255
-0.113728
-0.116217
-0.118585
-0.120522
-0.121752
-0.124124
-0.122893
-0.125531
-0.126716
-0.129136
-0.127939
-0.103356
0.181558
0.186759
0.220298
0.220743
0.0386966
0.0037194
0.00933812
-0.00823924
-0.0143627
-0.0112751
-0.00953217
-0.301357
-0.283807
-0.278664
-0.262054
-0.241391
-0.22837
-0.253743
-0.269667
-0.274353
-0.290651
-0.296078
-0.216284
-0.205537
-0.195903
-0.187367
-0.179848
-0.17327
-0.167511
-0.162449
-0.15793
-0.153795
-0.149905
-0.146135
-0.142383
-0.138561
-0.134602
-0.130466
-0.126125
-0.121576
-0.116877
-0.112142
-0.107548
-0.103243
-0.103572
-0.106936
-0.108925
-0.111425
-0.113856
-0.115723
-0.11694
-0.119251
-0.118038
-0.12061
-0.121773
-0.124134
-0.122966
-0.0989868
0.161607
0.162114
0.187837
0.184115
0.0434908
0.00784402
0.0120568
0.00245646
0.00355054
0.00413982
0.0022649
-0.0123809
-0.0136805
-0.28286
-0.278392
-0.263605
-0.259019
-0.244587
-0.227421
-0.236935
-0.215596
-0.253309
-0.270106
-0.273907
-0.205042
-0.195482
-0.186934
-0.179323
-0.17259
-0.166657
-0.161442
-0.156829
-0.152677
-0.148851
-0.14521
-0.14163
-0.138009
-0.134267
-0.13035
-0.126217
-0.121847
-0.117259
-0.112537
-0.107836
-0.103325
-0.0989268
-0.0991614
-0.102609
-0.104832
-0.107142
-0.108926
-0.111018
-0.112183
-0.114514
-0.113325
-0.115805
-0.116955
-0.119262
-0.118111
-0.0946271
0.140103
0.136963
0.157477
0.152429
0.0448481
0.0111277
0.0141392
0.00363857
-0.00200422
-0.00115081
0.00407979
0.00194915
-1.63492e-05
-0.00215444
0.00207977
0.0052566
-0.262802
-0.258668
-0.245612
-0.24225
-0.229869
-0.214759
-0.223383
-0.238516
-0.23487
-0.204429
-0.254925
-0.250559
-0.269094
-0.195027
-0.186557
-0.178941
-0.17213
-0.166068
-0.160701
-0.155953
-0.151718
-0.147885
-0.144315
-0.140872
-0.137438
-0.133909
-0.130218
-0.12631
-0.122151
-0.117732
-0.113097
-0.108356
-0.103671
-0.099078
-0.0946023
-0.0947953
-0.0982232
-0.100412
-0.102713
-0.104927
-0.10672
-0.107788
-0.109101
-0.10894
-0.111608
-0.112249
-0.114505
-0.113413
-0.0903821
0.117201
0.11165
0.129188
0.125024
0.0439857
0.0139919
0.0158648
0.00516407
-0.00150598
-0.00618212
-0.00377221
-0.00116882
-0.00486438
0.00198097
0.00282178
0.00421381
0.00165216
0.00322868
-0.261877
-0.258653
-0.241517
-0.230759
-0.227517
-0.21704
-0.203664
-0.211071
-0.224607
-0.221734
-0.23825
-0.234947
-0.19447
-0.186146
-0.178602
-0.171795
-0.165674
-0.160198
-0.155319
-0.150968
-0.147068
-0.143504
-0.140145
-0.136862
-0.133532
-0.130066
-0.126394
-0.122466
-0.118256
-0.113775
-0.109082
-0.104302
-0.0995213
-0.0948246
-0.0903794
-0.0905444
-0.0939055
-0.0960633
-0.0983476
-0.100503
-0.102272
-0.103354
-0.105519
-0.104429
-0.106762
-0.107872
-0.108845
-0.109426
-0.0862362
0.0933079
0.086602
0.103094
0.101382
0.0415912
0.0160576
0.0168469
0.00659059
-0.00105206
-0.00575977
-0.00997854
-0.00794169
-0.00575635
-0.004622
-0.00363713
-0.0023874
1.2805e-06
-0.00736581
0.00360104
0.00251975
0.00369962
0.00129545
-0.229892
-0.227064
-0.217873
-0.214903
-0.205558
-0.193781
-0.200495
-0.210574
-0.224473
-0.222306
-0.185642
-0.178232
-0.171494
-0.165383
-0.159861
-0.154894
-0.150434
-0.14644
-0.142828
-0.139492
-0.13631
-0.133148
-0.129895
-0.12646
-0.122776
-0.118802
-0.114524
-0.109962
-0.105189
-0.100291
-0.0953798
-0.0906539
-0.086252
-0.0863877
-0.0896714
-0.0918003
-0.0940411
-0.096168
-0.0979131
-0.0989973
-0.101119
-0.100036
-0.102338
-0.103398
-0.105561
-0.104482
-0.106806
-0.107812
-0.108185
-0.109319
-0.082175
0.0697442
0.0625417
0.0796126
0.0812516
0.0383981
0.0173407
0.0170819
0.0076061
-0.000558213
-0.00539771
-0.00976656
-0.0145613
-0.0111735
-0.00945424
-0.00858165
-0.00786371
-0.00682845
-0.00559379
-0.00475713
-0.00379556
-0.00263631
0.00182039
-0.00794126
0.00317785
0.00215337
0.00319606
-0.217019
-0.214218
-0.204833
-0.195503
-0.185017
-0.190894
-0.200283
-0.208977
-0.211865
-0.22167
-0.177783
-0.171163
-0.165114
-0.159607
-0.154611
-0.150079
-0.145999
-0.142314
-0.138954
-0.135817
-0.132776
-0.129709
-0.126503
-0.12307
-0.11935
-0.115308
-0.110939
-0.10627
-0.101359
-0.0963048
-0.0913058
-0.0865746
-0.0821947
-0.0821852
-0.0855131
-0.0876139
-0.0898113
-0.091906
-0.0936122
-0.0946864
-0.096784
-0.0957063
-0.0979823
-0.099041
-0.101172
-0.100107
-0.102406
-0.103428
-0.105588
-0.104547
-0.0781927
0.047595
0.0409312
0.0595593
0.0646709
0.0350433
0.0180694
0.0168123
0.00819772
-2.70512e-05
-0.00492572
-0.00928094
-0.0133018
-0.012345
-0.0144391
-0.0151191
-0.0114035
-0.0108763
-0.0104401
-0.00935559
-0.00858773
-0.00800122
-0.00705691
-0.00585754
-0.216349
-0.214262
-0.205546
-0.203088
-0.194828
-0.186531
-0.177218
-0.182469
-0.190551
-0.198343
-0.201782
-0.170756
-0.164809
-0.159366
-0.154394
-0.149837
-0.145708
-0.141958
-0.138551
-0.135413
-0.132441
-0.129517
-0.126519
-0.123335
-0.11988
-0.1161
-0.111966
-0.107479
-0.102659
-0.0975727
-0.0923812
-0.0873182
-0.0825641
-0.0782223
-0.0783203
-0.0805283
-0.0834153
-0.0856866
-0.0877227
-0.0893909
-0.0904489
-0.0925125
-0.0914495
-0.0936811
-0.0947281
-0.0968345
-0.0957772
-0.0980516
-0.0990707
-0.101207
-0.100176
-0.0743135
0.0229913
0.0243554
0.0440775
0.0519322
0.0320395
0.0184358
0.0162434
0.00843468
0.00047467
-0.00439317
-0.00864216
-0.0122631
-0.0121568
-0.0142587
-0.0131216
-0.0129356
-0.0145207
-0.0137395
-0.0186152
-0.0115802
-0.0113667
-0.0111434
-0.0106923
-0.00962244
-0.1955
-0.193291
-0.185995
-0.178608
-0.170212
-0.174763
-0.182222
-0.189165
-0.19141
-0.198012
-0.201325
-0.16443
-0.159085
-0.154178
-0.149644
-0.145506
-0.14172
-0.138272
-0.135112
-0.132165
-0.129338
-0.126511
-0.123557
-0.120372
-0.116873
-0.113009
-0.108757
-0.104114
-0.0991094
-0.0938509
-0.0885343
-0.0833976
-0.0786394
-0.074366
-0.078377
-0.0744601
-0.0823294
-0.0835738
-0.0852611
-0.0862953
-0.0883169
-0.0872718
-0.0894596
-0.0904904
-0.0925613
-0.0915199
-0.0937491
-0.0947565
-0.096868
-0.0958456
-0.0705443
-0.00629189
0.0159662
0.0341027
0.0433091
0.0297467
0.0185722
0.0155052
0.00838414
0.000871352
-0.00389998
-0.00800146
-0.0114701
-0.0121241
-0.0144827
-0.0154739
-0.0151075
-0.0141336
-0.0191844
-0.0134951
-0.0133947
-0.0131992
-0.0134789
-0.0196644
-0.0113214
-0.195069
-0.19314
-0.186605
-0.184563
-0.178144
-0.169481
-0.163955
-0.174303
-0.18075
-0.183206
-0.188992
-0.191133
-0.158734
-0.153923
-0.149445
-0.145338
-0.141551
-0.138085
-0.134902
-0.13196
-0.129186
-0.126483
-0.123728
-0.120804
-0.117597
-0.114032
-0.110059
-0.105656
-0.100827
-0.095629
-0.0901988
-0.0847533
-0.0795531
-0.0748091
-0.0705971
-0.074626
-0.0776708
-0.0797572
-0.070705
-0.0820029
-0.0840983
-0.0826305
-0.0853354
-0.0863326
-0.0883657
-0.0873407
-0.0895269
-0.0905188
-0.0925942
-0.0915877
-0.0668284
0.0167655
0.0292572
0.0385414
0.028262
0.0185439
0.0146852
0.00811429
0.00112128
-0.0035208
-0.00744556
-0.0108103
-0.0120606
-0.0143772
-0.0179619
-0.0177477
-0.0189742
-0.017708
-0.0156059
-0.0150983
-0.0149196
-0.014653
-0.0140761
-0.0189853
-0.186221
-0.184286
-0.178723
-0.176953
-0.170564
-0.163384
-0.167671
-0.158296
-0.17415
-0.180423
-0.183375
-0.153603
-0.149205
-0.145159
-0.141402
-0.137945
-0.134757
-0.131815
-0.129066
-0.126444
-0.123846
-0.121154
-0.118236
-0.11499
-0.111337
-0.107228
-0.102647
-0.0976174
-0.0922195
-0.0866117
-0.0810389
-0.0757842
-0.0710521
-0.0668774
-0.0709328
-0.0739206
-0.0757773
-0.0773161
-0.0783386
-0.0792755
-0.0802746
-0.066995
-0.0813691
-0.0824153
-0.0838206
-0.0842549
-0.0853927
-0.0863587
-0.0883989
-0.0874074
-0.0631558
0.0272414
0.0365281
0.0273189
0.0183277
0.0138311
0.00768508
0.00121173
-0.00329252
-0.00703583
-0.0102772
-0.0119408
-0.0141529
-0.0169668
-0.0177043
-0.0183318
-0.0192868
-0.0187839
-0.0182964
-0.0160911
-0.0180437
-0.17838
-0.176369
-0.170951
-0.169347
-0.164364
-0.157766
-0.161457
-0.168018
-0.167167
-0.153212
-0.174864
-0.173062
-0.180173
-0.182995
-0.148905
-0.144939
-0.141236
-0.137813
-0.134643
-0.131707
-0.128975
-0.126404
-0.123917
-0.121411
-0.118761
-0.115838
-0.112535
-0.10877
-0.104502
-0.0997249
-0.0944829
-0.0888761
-0.0830839
-0.0773883
-0.0720796
-0.0673437
-0.0631986
-0.067235
-0.0702201
-0.0720646
-0.0735922
-0.0745431
-0.0753645
-0.076273
-0.0633328
-0.0835356
-0.084244
-0.0595334
0.03588
0.0264322
0.0178345
0.0129497
0.00713178
0.00113649
-0.00322771
-0.00680262
-0.00989907
-0.0118033
-0.0139207
-0.0164427
-0.0173175
-0.0178604
-0.0182632
-0.0186203
-0.018378
-0.0185966
-0.0194167
-0.0189843
-0.0182821
-0.178103
-0.176463
-0.164587
-0.163263
-0.158628
-0.152753
-0.156043
-0.16202
-0.160582
-0.16709
-0.14853
-0.144664
-0.141029
-0.137661
-0.134528
-0.131613
-0.128899
-0.126363
-0.12395
-0.12158
-0.119152
-0.116532
-0.113592
-0.110213
-0.106317
-0.10187
-0.0968839
-0.0914172
-0.0855888
-0.0796131
-0.0737917
-0.0684212
-0.0636779
-0.0595718
-0.0635775
-0.0665278
-0.0683626
-0.0698884
-0.0708363
-0.0716597
-0.072557
-0.0597315
-0.0559715
0.0253584
0.0169773
0.0120193
0.00646653
0.000886295
-0.00333093
-0.00675088
-0.00969195
-0.0116996
-0.0137011
-0.0159441
-0.0169227
-0.0173507
-0.0172092
-0.017701
-0.0186758
-0.0188443
-0.0193387
-0.0183463
-0.0184833
-0.0186908
-0.0195817
-0.0190915
-0.164033
-0.163062
-0.158965
-0.157651
-0.153599
-0.148068
-0.151155
-0.156502
-0.155166
-0.161939
-0.160557
-0.144326
-0.14077
-0.137468
-0.134387
-0.131508
-0.128821
-0.126317
-0.123951
-0.121677
-0.119416
-0.117051
-0.114453
-0.111479
-0.108008
-0.103966
-0.0993268
-0.0941159
-0.0884103
-0.0823534
-0.0761874
-0.0702374
-0.0648044
-0.0600679
-0.0560201
-0.0599921
-0.0628821
-0.0646946
-0.0661978
-0.0671371
-0.0679574
-0.0688525
-0.0561796
-0.0525098
0.0158907
0.0109893
0.00568505
0.000456514
-0.00360344
-0.00687282
-0.00965423
-0.0116704
-0.0135323
-0.0154867
-0.0164876
-0.0169001
-0.0169215
-0.0174648
-0.0175934
-0.0175215
-0.0177506
-0.0190552
-0.0208872
-0.0180671
-0.01719
-0.0186492
-0.0188155
-0.158615
-0.157433
-0.154119
-0.152514
-0.148749
-0.143928
-0.146603
-0.151604
-0.150513
-0.156384
-0.154959
-0.140449
-0.137224
-0.134206
-0.131377
-0.128725
-0.126255
-0.123927
-0.121716
-0.11957
-0.117399
-0.115095
-0.112505
-0.109485
-0.105909
-0.101708
-0.0968608
-0.09141
-0.0854542
-0.0791588
-0.0728
-0.0667203
-0.0612411
-0.0565353
-0.052588
-0.05649
-0.0592997
-0.0610886
-0.0625577
-0.0634822
-0.0642933
-0.065178
-0.0526542
-0.0492891
0.00994293
0.00474679
-0.000153928
-0.00403544
-0.00715308
-0.0097723
-0.0117381
-0.0134506
-0.0151365
-0.0161061
-0.0165363
-0.0166953
-0.0171819
-0.0176747
-0.0178228
-0.0177125
-0.0178328
-0.0177159
-0.0178043
-0.0179129
-0.0223458
-0.0170258
-0.0173628
-0.0189343
-0.154228
-0.152159
-0.148324
-0.144539
-0.140061
-0.142657
-0.146352
-0.151455
-0.149963
-0.13692
-0.133979
-0.131207
-0.1286
-0.126169
-0.123875
-0.12171
-0.119641
-0.117606
-0.115523
-0.113263
-0.110674
-0.107598
-0.103908
-0.0995303
-0.0944611
-0.0887573
-0.0825379
-0.0759986
-0.069444
-0.0632492
-0.057749
-0.0531166
-0.0493248
-0.052882
-0.0558127
-0.0575538
-0.05898
-0.0598919
-0.0606923
-0.0615637
-0.0494885
0.00374003
-0.000967819
-0.0046149
-0.00756867
-0.0100274
-0.0119078
-0.0134734
-0.0149214
-0.0158243
-0.0162659
-0.0165061
-0.0169518
-0.0174323
-0.0178505
-0.0179842
-0.0178725
-0.0180123
-0.0179045
-0.017984
-0.0180267
-0.0179252
-0.0179375
-0.0179754
-0.0178784
-0.0230329
-0.154027
-0.152024
-0.148676
-0.147619
-0.144205
-0.140651
-0.136554
-0.138822
-0.142555
-0.145662
-0.146748
-0.151317
-0.150063
-0.1337
-0.130994
-0.128436
-0.126052
-0.123793
-0.121668
-0.119651
-0.117705
-0.115776
-0.113766
-0.111545
-0.108947
-0.105807
-0.101987
-0.097423
-0.0921179
-0.0861466
-0.0796537
-0.0728653
-0.0661237
-0.0598368
-0.0543528
-0.0498246
-0.0497577
-0.0523013
-0.0538628
-0.0555257
-0.0563939
-0.0571451
-0.0580088
-0.00187317
-0.00535435
-0.00810068
-0.0103965
-0.0121732
-0.013601
-0.0148449
-0.0156584
-0.0160877
-0.0163578
-0.0167509
-0.0171939
-0.0176023
-0.0182341
-0.0180928
-0.0179643
-0.0181508
-0.0180602
-0.0181569
-0.0181372
-0.0180283
-0.0180683
-0.0180747
-0.0181114
-0.0180347
-0.0180599
-0.1444
-0.143386
-0.14031
-0.137083
-0.133374
-0.135426
-0.138612
-0.141504
-0.143266
-0.130738
-0.128229
-0.125897
-0.123679
-0.121591
-0.119616
-0.117728
-0.115898
-0.114061
-0.11212
-0.109928
-0.107314
-0.104098
-0.10014
-0.0953755
-0.0898186
-0.0835684
-0.0767936
-0.0697586
-0.0628472
-0.0564969
-0.0510523
-0.0490967
-0.0507396
-0.0520169
-0.0529023
-0.0534162
-0.0545653
-0.0061488
-0.00876039
-0.0108638
-0.0125205
-0.0138229
-0.0148957
-0.0156121
-0.0160063
-0.0162632
-0.0165869
-0.0169546
-0.0172928
-0.017653
-0.0167004
-0.0189073
-0.0181659
-0.018132
-0.0181373
-0.0183118
-0.0182626
-0.0181727
-0.0182346
-0.018235
-0.0182134
-0.0181063
-0.0181429
-0.140519
-0.139655
-0.136808
-0.133905
-0.130459
-0.132306
-0.13522
-0.138029
-0.138914
-0.141313
-0.143184
-0.127974
-0.125704
-0.12353
-0.121481
-0.119543
-0.117697
-0.11593
-0.114204
-0.112455
-0.11057
-0.108401
-0.105762
-0.102462
-0.0983547
-0.0933748
-0.0875539
-0.0810137
-0.0739537
-0.0666808
-0.0596195
-0.0532262
-0.0487897
-0.0496094
-0.0503932
-0.0511899
-0.0520642
-0.0529283
-0.0530908
-0.00945511
-0.0114402
-0.012941
-0.014122
-0.0150538
-0.0156767
-0.0160218
-0.016236
-0.0164752
-0.0167448
-0.0169823
-0.0171508
-0.0164585
-0.0165362
-0.0168544
-0.0170509
-0.0197775
-0.0180214
-0.0183281
-0.0182586
-0.018268
-0.0183466
-0.0183896
-0.0183446
-0.0182565
-0.0183046
-0.140339
-0.139576
-0.137036
-0.13621
-0.133724
-0.130928
-0.12764
-0.12952
-0.132124
-0.134633
-0.135447
-0.137933
-0.138781
-0.125471
-0.123343
-0.121336
-0.119436
-0.117625
-0.115902
-0.114245
-0.112616
-0.11094
-0.109107
-0.106955
-0.104282
-0.100889
-0.0966183
-0.0914108
-0.0853142
-0.0784752
-0.0711309
-0.0636315
-0.056436
-0.0488873
-0.0479328
-0.0496869
-0.0504115
-0.0511803
-0.0120416
-0.0134475
-0.0144867
-0.0152962
-0.0158336
-0.0161239
-0.0162819
-0.0164289
-0.016589
-0.0167189
-0.0167658
-0.0162603
-0.0162491
-0.0164592
-0.0167751
-0.0169017
-0.0170319
-0.0169344
-0.0180115
-0.0212848
-0.0181194
-0.0176029
-0.0184304
-0.0183898
-0.0183677
-0.018428
-0.136873
-0.136112
-0.133743
-0.133345
-0.13072
-0.127185
-0.125211
-0.128947
-0.131604
-0.132348
-0.134492
-0.135308
-0.123117
-0.121156
-0.119297
-0.11752
-0.115832
-0.11422
-0.112664
-0.111117
-0.10951
-0.107722
-0.105577
-0.102864
-0.099367
-0.0949218
-0.089474
-0.0830898
-0.0759467
-0.0683217
-0.0606047
-0.0479373
-0.0139658
-0.0149277
-0.0156078
-0.0160604
-0.0162951
-0.0163945
-0.0164523
-0.0165035
-0.0165265
-0.0164805
-0.0160939
-0.0160183
-0.016181
-0.016241
-0.0166097
-0.0167257
-0.0169601
-0.0170814
-0.0171967
-0.0172445
-0.017201
-0.0169803
-0.0220519
-0.0184718
-0.0173547
-0.13344
-0.133544
-0.130936
-0.130351
-0.127606
-0.124944
-0.12634
-0.122845
-0.128943
-0.131502
-0.132029
-0.120937
-0.119126
-0.117385
-0.115729
-0.114151
-0.11264
-0.11117
-0.109702
-0.108157
-0.106405
-0.104262
-0.1015
-0.0978877
-0.0932557
-0.087553
-0.0808723
-0.0734225
-0.0655184
-0.0153748
-0.0159907
-0.0163412
-0.016516
-0.0165605
-0.0165402
-0.0164933
-0.0164158
-0.0162876
-0.0159604
-0.0158295
-0.0159278
-0.0159507
-0.0158636
-0.0168482
-0.0164315
-0.0167702
-0.0168698
-0.0170342
-0.0171248
-0.0172158
-0.017165
-0.133528
-0.130759
-0.129739
-0.127782
-0.127131
-0.125384
-0.122518
-0.123986
-0.126534
-0.125889
-0.120674
-0.129254
-0.128566
-0.131438
-0.131871
-0.118925
-0.11722
-0.115597
-0.114048
-0.11257
-0.111146
-0.109759
-0.108361
-0.10687
-0.105149
-0.103001
-0.100179
-0.0964411
-0.091608
-0.0856394
-0.0786546
-0.0708928
-0.0163751
-0.0166787
-0.0167748
-0.0167645
-0.0166802
-0.0165517
-0.0163868
-0.0161836
-0.0158705
-0.0156872
-0.0157061
-0.0157001
-0.0156272
-0.0155266
-0.0160275
-0.016184
-0.0171396
-0.0179978
-0.016396
-0.0168492
-0.0169427
-0.0169973
-0.0169544
-0.130641
-0.129875
-0.125225
-0.125188
-0.122814
-0.120369
-0.121732
-0.124061
-0.123547
-0.118703
-0.117026
-0.115438
-0.113919
-0.112469
-0.111076
-0.109734
-0.108421
-0.107087
-0.105645
-0.103948
-0.101785
-0.0988952
-0.0950198
-0.0899705
-0.0837247
-0.0764254
-0.0170096
-0.0170749
-0.0169977
-0.0168573
-0.0166651
-0.01643
-0.0161614
-0.0158333
-0.0155943
-0.0155239
-0.0154689
-0.0153911
-0.0153361
-0.0154828
-0.0156903
-0.0158048
-0.016102
-0.0161988
-0.0162685
-0.0164534
-0.0170645
-0.0153177
-0.0166312
-0.016536
-0.12521
-0.122928
-0.122385
-0.120655
-0.118469
-0.119633
-0.121914
-0.12137
-0.123924
-0.12354
-0.1168
-0.115249
-0.113761
-0.112343
-0.110975
-0.109663
-0.108396
-0.107149
-0.105873
-0.104472
-0.102793
-0.100609
-0.0976414
-0.0936131
-0.0883326
-0.0817977
-0.0173599
-0.0172641
-0.0170626
-0.0168184
-0.0165297
-0.0162074
-0.0158503
-0.0155529
-0.0153899
-0.0152696
-0.0151582
-0.0151049
-0.0151962
-0.0151199
-0.0156634
-0.0155354
-0.0157747
-0.0158311
-0.0159285
-0.0159644
-0.0161819
-0.0162814
-0.0163649
-0.0165595
-0.0171446
-0.016227
-0.122772
-0.122287
-0.120772
-0.12026
-0.118691
-0.116535
-0.117808
-0.119783
-0.119276
-0.121856
-0.121325
-0.115025
-0.113575
-0.112193
-0.11085
-0.109562
-0.108323
-0.107123
-0.105937
-0.104712
-0.103349
-0.10168
-0.0994656
-0.0964081
-0.0922097
-0.0866857
-0.0175123
-0.0172988
-0.0170008
-0.0166678
-0.016305
-0.0159153
-0.0155623
-0.0153112
-0.0151147
-0.01495
-0.0148528
-0.0148472
-0.0146422
-0.0138495
-0.0148687
-0.0158194
-0.0155756
-0.0156196
-0.0156439
-0.0156329
-0.0158411
-0.0159187
-0.0160024
-0.0160468
-0.016248
-0.0163496
-0.0164369
-0.0166532
-0.120629
-0.120161
-0.118755
-0.118268
-0.116781
-0.114767
-0.115862
-0.118102
-0.117312
-0.119728
-0.119215
-0.11336
-0.112022
-0.110704
-0.109438
-0.108221
-0.107048
-0.105909
-0.104779
-0.103601
-0.102268
-0.100603
-0.0983494
-0.0951868
-0.0908023
-0.0175159
-0.0172116
-0.0168332
-0.0164368
-0.0160174
-0.0156174
-0.015288
-0.0150127
-0.014782
-0.0146187
-0.0145184
-0.0142422
-0.013624
-0.0135506
-0.0139875
-0.0143198
-0.0148174
-0.0150362
-0.0151649
-0.0167023