/*--------------------------------*- C++ -*----------------------------------*\
| =========                 |                                                 |
| \\      /  F ield         | OpenFOAM: The Open Source CFD Toolbox           |
|  \\    /   O peration     | Version:  v1912                                 |
|   \\  /    A nd           | Website:  www.openfoam.com                      |
|    \\/     M anipulation  |                                                 |
\*---------------------------------------------------------------------------*/
FoamFile
{
    version     2.0;
    format      ascii;
    class       surfaceScalarField;
    location    "430";
    object      phi;
}
// * * * * * * * * * * * * * * * * * * * * * * * * * * * * * * * * * * * * * //

dimensions      [0 3 -1 0 0 0 0];
oriented        oriented;


internalField   nonuniform List<scalar> 
7354
(
-3.49355e-05
0.00993345
-0.00016016
0.0100949
0.000763451
0.00916974
-0.000365162
0.0102383
0.00121006
0.00964829
0.00285595
0.00313585
0.00317767
-0.000600807
0.0102813
0.00133994
0.0101084
0.00465837
0.00358565
0.00426021
0.00195395
0.0005848
0.000597597
0.00395926
0.000604915
0.00056746
-0.000865746
0.0102955
0.00133442
0.0102869
0.00536086
0.00460181
0.00480412
0.00558217
0.00122981
0.000732928
0.00639785
0.00177701
0.00166752
-0.000598122
0.00118292
-0.00175038
0.0023553
-0.00116564
0.0103131
0.00119885
0.0104311
0.00533272
0.010315
0.00708914
0.00203476
0.00187576
0.00713867
0.00475459
-0.00308822
0.00431804
-0.00431838
0.00473637
0.00135901
0.00166719
-0.00149814
0.0103347
0.000932252
0.0105797
0.00479729
0.0109665
-0.00980967
0.0160628
0.00532336
0.00587722
-0.00515804
0.00525381
0.00193899
0.00145409
-0.00425841
0.00231191
0.00214524
-0.00166719
0.0030262
-0.00185667
0.010356
0.00054874
0.0107182
0.00403422
0.0113428
0.0139569
0.0130724
0.00599136
-0.00313417
0.0041897
-0.00172353
0.00621599
0.0056526
-0.00448029
0.00216086
-0.00265105
0.00182878
-0.00216086
0.00165505
-0.00223509
0.0103753
7.20938e-05
0.0108327
0.00319952
0.0115529
0.0114229
0.0138767
-0.00318981
0.00988569
0.0125925
0.00218561
0.00292047
-0.000371059
-0.000545333
-0.00112904
0.0012343
0.0046484
0.000526015
-0.00262926
0.0103925
-0.000473056
0.0109205
0.00233911
0.0116931
0.00897458
0.0140013
0.0089649
0.0147975
-0.00161482
0.00447985
0.0110253
-0.00129785
0.000861622
-0.000110822
0.00224337
-7.36945e-05
-0.000931673
0.000668611
-0.000107997
-0.00024271
0.00389521
0.000283305
-0.0030341
0.0104054
-0.00106561
0.010985
0.00146058
0.011799
0.00676878
0.0138989
0.00746059
0.0155056
0.00474799
0.0145294
0.0016298
0.00989297
-9.67498e-05
-0.000400703
-0.000637644
0.003235
0.000576837
-1.90493e-05
0.00177546
-8.14801e-05
-8.82601e-05
0.000516023
-1.28807e-05
0.000175308
-0.00344826
0.0104172
-0.00169111
0.0110309
0.000566643
0.0118789
0.00481644
0.0137513
0.00582196
0.0155375
0.0042022
0.0160514
0.0022587
0.0139005
0.00030565
0.00919069
0.000239518
0.000157112
-0.002995
0.00290672
-8.46437e-06
-0.000160709
0.000156259
0.00164396
-2.28397e-05
-6.37177e-06
-0.000447984
0.000389115
-2.26114e-05
-2.02203e-05
0.000143378
-0.00387038
0.0104271
-0.00233952
0.0110656
-0.000339061
0.0119366
0.00307275
0.0136226
0.00421953
0.0153538
0.00329322
0.0164465
0.00222814
0.0160819
0.000962742
0.0132434
-2.16675e-05
0.00886447
0.000114003
0.000233882
-0.00288316
0.00287098
0.000251697
0.000180672
0.00163676
4.02073e-06
-5.27915e-06
0.000368164
-1.8894e-06
0.000362823
-1.03081e-06
-0.000123158
0.000100546
-0.00429716
0.0104338
-0.00300463
0.0110922
-0.00125201
0.0119785
0.00148542
0.013524
0.00269535
0.0151468
0.00226536
0.0163816
0.00176243
0.0169122
0.00117706
0.0158676
0.000425194
0.0127965
7.44159e-05
0.00876558
-2.71499e-05
5.16253e-05
-0.00286943
0.00288318
0.000100257
0.000235429
-0.0017184
0.00175095
0.000113412
0.000105733
2.91136e-05
6.99179e-05
-0.000357937
0.000362531
-5.73583e-07
-3.92797e-07
9.86567e-05
9.76259e-05
-0.00473079
0.0104416
-0.00368642
0.0111156
-0.00216991
0.0120101
1.04155e-05
0.0134535
0.00124467
0.0149746
0.0012159
0.0161963
0.00109154
0.0170525
0.000978956
0.0171103
0.000652717
0.0156401
0.000299502
0.0125714
9.33246e-05
-6.39962e-05
0.00873625
-0.00289332
0.00272598
0.000140189
4.14798e-05
-0.00180181
0.00185832
8.45778e-06
3.52925e-05
0.00012484
5.97311e-05
-0.000455517
0.000483309
8.56201e-05
-0.000420545
7.07616e-05
0.000380904
1.07405e-05
3.02768e-05
-9.72331e-05
9.66595e-05
-0.00516689
0.0104471
-0.00437944
0.0111347
-0.00309173
0.0120374
-0.0013868
0.0134073
-0.000149364
0.0148476
0.000172137
0.0160184
0.0003472
0.0169406
0.000540356
0.0174911
0.000572297
0.0171907
0.000454768
0.0154848
0.000247114
0.0124176
-0.00205145
0.00474985
-1.05432e-05
-2.58596e-05
-6.09908e-06
0.000135634
0.00860671
-0.00189416
-1.21697e-05
-4.93391e-06
7.62326e-06
-1.98905e-06
-0.000570763
0.000575839
3.38251e-06
-0.000550659
1.51883e-05
0.000526517
8.16317e-05
3.55886e-05
-0.000208438
0.000237526
5.65325e-05
-0.000137677
0.0001074
-0.00560752
0.0104536
-0.00508749
0.0111551
-0.0040203
0.0120632
-0.00273932
0.0133899
-0.0015068
0.0147648
-0.000863108
0.0158828
-0.000418974
0.0167846
-8.34334e-06
0.0174893
0.000266084
0.0177973
0.000405639
0.0172399
0.000373031
0.0153589
0.00018132
0.0122302
0.00476415
0.000108937
1.23932e-05
-0.000878156
0.000869977
-1.46797e-06
-8.96814e-07
-0.000530555
-2.45421e-07
-1.19151e-06
-0.000372023
-3.84391e-05
0.000253845
0.00839131
-0.000575251
3.25258e-05
-0.000580034
-1.50245e-07
0.000581541
1.92125e-06
-4.82562e-07
-0.000330863
0.00033424
5.42259e-09
-0.000318049
2.37407e-06
0.000291093
2.80648e-05
8.63285e-06
5.65325e-05
-0.00605422
0.0104607
-0.00580862
0.0111748
-0.00495234
0.0120872
-0.00407713
0.013401
-0.00284395
0.0147271
-0.00189416
0.0157958
-0.00118871
0.0166525
-0.000595658
0.0173719
-0.000154499
0.0179099
0.000171808
0.0180312
0.000350914
0.017262
0.000323837
0.0152164
0.000175884
0.0120159
0.00466691
0.000168887
0.000182198
-0.0008824
0.000963656
2.25819e-05
5.09894e-06
1.1826e-06
-1.212e-06
-8.93075e-05
8.78396e-05
-9.02043e-05
-9.04498e-05
-9.16413e-05
-0.000336407
-3.08981e-06
4.73227e-05
4.9652e-05
0.00829433
-0.000335837
-7.20064e-07
0.000335889
2.72551e-07
-4.31005e-07
-9.56042e-05
9.56096e-05
-9.32301e-05
8.45972e-05
-0.00650595
0.0104667
-0.00654057
0.0111927
-0.0058923
0.0121147
-0.00543645
0.0134465
-0.00418091
0.014738
-0.00292342
0.0157563
-0.00195741
0.0165645
-0.00119405
0.0172509
-0.000622204
0.0178396
-0.000175516
0.0182572
0.000163571
0.0182185
0.000328998
0.0172568
0.000318366
0.0150739
0.000191272
0.0118719
0.00468592
-1.96534e-05
5.02981e-05
-0.00101656
0.00108603
2.56416e-05
7.3776e-05
7.11294e-05
5.81662e-05
-9.29091e-05
0.000115491
-8.78102e-05
-8.66276e-05
-9.47311e-05
0.000122304
-7.19884e-05
0.00824401
-9.54511e-05
9.58821e-05
-0.00696597
0.010476
-0.00728597
0.0112121
-0.0068444
0.0121447
-0.0068459
0.0135242
-0.00553411
0.0147997
-0.00395638
0.0157709
-0.00272489
0.0165238
-0.00179323
0.0171637
-0.00110513
0.0177339
-0.000569941
0.018234
-0.0001324
0.0185532
0.000180115
0.0183674
0.000330291
0.0172449
0.000300625
0.0149646
0.00020573
0.0117885
0.00466077
-2.91228e-05
-1.77163e-05
-0.00112798
0.00111946
-7.55465e-06
-3.58586e-06
-1.3373e-06
9.68699e-06
-0.000248225
0.000266776
7.09097e-06
-0.000198191
2.37421e-05
-0.000173657
4.65952e-05
0.000108032
-6.39102e-05
0.00819989
-0.00743328
0.0104843
-0.00803684
0.0112269
-0.00781147
0.0121792
-0.00834104
0.0136399
-0.00691929
0.0149093
-0.00499257
0.0158359
-0.00348831
0.0165344
-0.0023905
0.0171211
-0.00158915
0.0176477
-0.000980121
0.018144
-0.000482294
0.0185839
-8.12116e-05
0.0188145
0.000199089
0.0184986
0.000306661
0.0172389
0.000273682
0.0148966
0.000174829
0.0117217
0.00463206
-1.54638e-05
-1.9743e-05
-0.00110771
0.00108889
-5.93196e-06
-4.3778e-06
-3.14787e-06
-2.81239e-06
-0.000272272
0.000266802
-2.08513e-06
-0.000274265
-1.59247e-06
-0.000274848
-7.54573e-07
1.61484e-06
-7.03372e-05
7.74282e-05
-4.65952e-05
1.68407e-06
4.98996e-05
0.0081483
-0.00790787
0.0104936
-0.00878826
0.0112357
-0.00880484
0.0122203
-0.0099674
0.0138056
-0.00836166
0.0150823
-0.00604011
0.0159569
-0.00425186
0.0165994
-0.00298289
0.0171267
-0.00206814
0.0176001
-0.00139056
0.0180582
-0.000849174
0.0185109
-0.000400296
0.018903
-4.03018e-05
0.0190539
0.000188431
0.0186168
0.000266186
0.0172464
0.000227245
0.0148442
8.79583e-05
0.0116354
0.00465549
3.26323e-05
-6.16078e-06
-0.00107338
0.00106539
-4.0271e-06
-3.44277e-06
-1.76897e-06
-2.46447e-06
-0.000258805
0.00025458
-1.70742e-06
-0.000261806
-1.37731e-06
-0.000264146
-8.07606e-07
-1.5608e-07
-7.6696e-05
7.46108e-05
-7.82885e-05
-7.9043e-05
-0.000106725
0.000217389
0.00803763
-0.00838868
0.0105008
-0.00953097
0.0112363
-0.00984101
0.0122719
-0.0117792
0.014032
-0.00988067
0.0153246
-0.00710283
0.016145
-0.00501597
0.016721
-0.00357147
0.017188
-0.00254618
0.0176048
-0.00179978
0.0180093
-0.00121756
0.0184265
-0.000740142
0.0188508
-0.00034166
0.0192044
-3.51235e-05
0.0192775
0.000151886
0.0187311
0.000214777
0.0172588
0.000152618
0.0147795
1.07474e-05
0.011518
0.00462358
0.000155111
9.41855e-05
-0.00106125
0.00109049
4.59874e-06
-1.20537e-06
9.6093e-08
-2.11649e-06
-0.000248365
0.000245664
-1.32639e-06
-0.000250725
-1.08262e-06
-0.000252017
-4.77007e-07
9.85044e-08
-7.22699e-05
7.05624e-05
-7.36472e-05
-7.44548e-05
-0.000118207
0.000206078
0.00794976
-0.00886813
0.0105034
-0.0102528
0.0112227
-0.0109524
0.0123477
-0.0138453
0.0143381
-0.0114997
0.0156511
-0.0081874
0.0164091
-0.00578223
0.0169112
-0.00415678
0.0173063
-0.0030192
0.017661
-0.00220274
0.0180077
-0.00158513
0.0183768
-0.00108761
0.018774
-0.000669393
0.0191785
-0.000321611
0.0194908
-5.84272e-05
0.0194878
0.00010306
0.0188428
0.000145375
0.0172661
8.62015e-05
0.0147041
-2.1212e-05
0.011421
0.004607
6.0795e-05
0.000161859
-0.00112983
0.00115411
7.01929e-05
6.06324e-05
3.93024e-05
1.55414e-05
-0.000243178
0.000247536
2.40772e-07
-0.000243708
-6.75837e-07
-0.000243373
-2.38487e-07
1.74126e-07
-6.91013e-05
6.77749e-05
-7.01839e-05
-7.06609e-05
-3.70341e-05
4.85801e-05
0.00793821
-0.00934159
0.0105045
-0.0109481
0.0111987
-0.0121824
0.0124527
-0.0162336
0.014736
-0.0132264
0.0160648
-0.00929034
0.016754
-0.0065457
0.0171726
-0.00473475
0.0174892
-0.00348634
0.0177734
-0.00260313
0.0180614
-0.00194917
0.0183718
-0.0014317
0.0187209
-0.00100291
0.0191075
-0.000637559
0.0194944
-0.000334077
0.0197665
-9.92476e-05
0.0196901
4.29654e-05
0.0189452
8.1632e-05
0.0172706
3.65588e-05
0.0146463
-3.23053e-06
0.0113872
0.00464394
-1.46334e-05
2.62731e-05
-0.00119579
0.00122875
4.35387e-06
2.34761e-05
4.10712e-05
7.91143e-05
-0.000297528
0.000313716
5.40047e-05
-0.000278304
4.14092e-05
-0.000256982
1.79797e-05
6.09557e-06
-6.70347e-05
6.72754e-05
-6.77105e-05
-6.7949e-05
2.01717e-05
-2.59501e-05
0.00794398
-0.00980307
0.0105045
-0.011611
0.0111674
-0.0135727
0.012589
-0.0189888
0.0152078
-0.0150174
0.016527
-0.0103645
0.017139
-0.00727669
0.017485
-0.00529168
0.0177295
-0.00394196
0.0179448
-0.00299924
0.0181695
-0.00231137
0.0184236
-0.00177597
0.0187161
-0.00133851
0.0190565
-0.000965211
0.0194352
-0.000641897
0.0198023
-0.000364752
0.020032
-0.000151093
0.0198842
-1.85135e-05
0.0190454
2.19238e-05
0.0172853
1.19015e-05
0.0146312
1.48313e-05
0.0113925
0.00464705
-2.12858e-05
-7.77235e-06
-0.00124961
0.00124545
-7.2647e-06
-3.21466e-06
-9.48578e-07
6.367e-06
-0.000371931
0.000374481
1.80304e-06
-0.000357909
9.45478e-06
-0.000340908
2.40701e-05
5.19216e-05
-0.00013276
0.000151412
3.53525e-05
-9.13506e-05
-7.3371e-05
2.24709e-05
-3.4775e-05
0.00795629
-0.0102503
0.0105073
-0.0122323
0.0111258
-0.0151247
0.0127193
-0.0220636
0.0156638
-0.0167219
0.0169123
-0.0112867
0.0174491
-0.00789232
0.0177546
-0.00577555
0.0179689
-0.00436067
0.0181482
-0.0033804
0.018326
-0.00266807
0.0185262
-0.00211871
0.0187664
-0.0016723
0.0190498
-0.00129329
0.0193846
-0.000962533
0.0197558
-0.000667924
0.0201054
-0.0004124
0.0202933
-0.000210139
0.0200758
-8.48231e-05
0.0191521
-3.01773e-05
0.0173274
-7.68256e-06
0.0146537
-9.16765e-07
0.0114159
0.00464197
-1.67868e-05
-1.29049e-05
-0.00124063
0.00123013
-8.96632e-06
-1.81714e-06
-1.67943e-06
-1.27462e-06
-0.000377175
0.000373613
-3.70324e-06
-0.000377816
-2.57353e-06
-0.000378247
-5.17665e-07
2.60081e-06
-0.00021177
0.000213933
-3.59603e-07
-0.000203772
1.45634e-06
-0.000185662
5.96007e-06
1.76714e-05
3.53525e-05
-2.59788e-05
2.27609e-07
0.00798203
-0.0106876
0.0105052
-0.0127968
0.0110717
-0.0167454
0.0127465
-0.0252541
0.0159098
-0.018023
0.0169649
-0.011808
0.0174337
-0.00822104
0.0177778
-0.00607892
0.018058
-0.00467552
0.0182837
-0.00370814
0.018476
-0.00300065
0.0186586
-0.00245186
0.0188594
-0.002004
0.0190981
-0.00162341
0.01938
-0.00129083
0.0197129
-0.000987868
0.0200758
-0.000710571
0.0204036
-0.000467055
0.0205502
-0.000275242
0.0202662
-0.00014938
0.0192713
-7.634e-05
0.017396
-4.62699e-05
0.014699
-5.73402e-05
0.0114473
0.00465815
-3.65129e-06
-1.23087e-05
-0.00122688
0.00121928
-9.18861e-06
-9.65068e-06
-0.000368142
0.00033925
1.99259e-05
-0.000370967
1.00783e-06
-0.000372136
-5.1082e-07
2.02043e-07
-0.000213867
0.000211423
-1.25948e-06
-0.0002157
-7.4071e-07
-0.000215961
-2.56044e-07
5.72034e-07
-6.04403e-05
6.00807e-05
-5.8984e-05
-5.30239e-05
-0.000120432
8.94703e-05
0.00801299
-0.0110954
0.0104498
-0.0132595
0.010968
-0.0181801
0.0125065
-0.0281628
0.0156552
-0.0183703
0.0162571
-0.0115276
0.0166845
-0.00799168
0.0172043
-0.00601863
0.0177175
-0.00476982
0.0181523
-0.0039108
0.0184864
-0.00326891
0.0187442
-0.00275541
0.0189621
-0.00232357
0.019179
-0.00195003
0.0194247
-0.00161801
0.0197071
-0.0013137
0.0200387
-0.00103022
0.0203954
-0.000767013
0.0207036
-0.000533333
0.0208083
-0.00034591
0.0204627
-0.000210835
0.0194058
-0.000131017
0.0174808
-0.000105832
0.0147475
-0.000142067
0.0114689
0.00471364
3.237e-05
1.61277e-06
-0.00121067
0.00121206
-5.04307e-06
-3.69878e-06
-0.00056287
0.000554981
-6.94916e-07
-6.04876e-07
-0.000233643
2.20324e-07
1.50965e-07
-0.000211774
-1.94313e-06
-0.000210944
1.77494e-07
-0.00021132
-1.34788e-07
3.04663e-07
-5.96559e-05
5.83964e-05
-6.03966e-05
-6.06527e-05
-0.000228884
0.000235383
0.00800649
-0.0113956
0.0102571
-0.0136101
0.0108004
-0.0191006
0.0118885
-0.030019
0.0143627
-0.0169273
0.0142121
-0.00995773
0.0146873
-0.00689515
0.0155879
-0.00538625
0.016572
-0.00449318
0.0174409
-0.00387708
0.0181185
-0.00339322
0.0186107
-0.00297656
0.0189654
-0.00260163
0.0192402
-0.0022594
0.0194883
-0.00194008
0.0197467
-0.00164083
0.0200343
-0.00135708
0.0203656
-0.00108494
0.0207133
-0.000830091
0.0210003
-0.000602699
0.0210651
-0.000415077
0.020667
-0.000275468
0.0195503
-0.000194904
0.0175698
-0.000181798
0.0147872
-0.000222769
0.0114628
0.00474666
0.000135699
6.66628e-05
-0.00121206
0.00123601
8.41583e-06
1.61497e-06
-0.000551464
0.000547515
-5.45991e-07
-5.49156e-07
-1.31062e-07
-5.07681e-08
-5.6567e-05
5.5872e-05
-5.71719e-05
5.70209e-05
-5.68006e-05
-5.87438e-05
-5.85663e-05
-5.87011e-05
-0.00025931
0.000278767
0.00798703
-0.0115545
0.010019
-0.0136091
0.00520843
0.00504767
-0.00878067
0.00568694
0.00534517
-0.0105516
-0.0154023
0.0062927
-0.0142786
0.00525767
-0.00849846
0.0102852
-0.00435134
-0.0067873
0.0110417
-0.00479414
0.0125862
-0.00406996
0.0142716
-0.00372778
0.0158065
-0.00349591
0.0170597
-0.00327938
0.0180047
-0.00304408
0.0186782
-0.00278861
0.0191523
-0.00251958
0.0195004
-0.00224085
0.0197891
-0.00196167
0.0200676
-0.00168503
0.0203622
-0.00141336
0.020694
-0.00115008
0.0210333
-0.000901252
0.0212989
-0.000675569
0.0213256
-0.000482876
0.0208744
-0.000341483
0.0196968
-0.000264906
0.0176529
-0.000247632
0.0148121
-0.000251182
0.0114546
0.004749
0.000119683
0.00015674
-0.00126251
0.00129611
0.000102098
4.01573e-05
-0.000549137
0.000558203
-1.20483e-07
-5.30868e-07
-1.21152e-07
1.14415e-07
-5.5141e-05
5.4595e-05
-5.56902e-05
5.5741e-05
-0.000191448
0.000157226
0.00802124
-0.0115935
0.00985394
-0.013181
0.00492871
0.00466218
-0.00849433
0.00492208
-0.00821291
0.00476626
-0.0157861
0.0060707
-0.0156467
0.00245592
0.00274988
-0.00989697
0.00426741
-0.00701178
0.00480603
-0.00782731
0.00219464
0.00258163
-0.00515683
-0.00301236
-0.00140995
0.00112585
0.00154235
-0.00143865
0.00593569
-0.000999135
-0.00123742
0.00258746
-0.000895356
-0.0020883
0.00833585
-0.00227525
0.0107915
-0.00253599
0.0130799
-0.00274107
0.0150517
-0.00285625
0.0166366
-0.00287607
0.0178367
-0.00281213
0.0187017
-0.00267451
0.0193073
-0.00248097
0.0197405
-0.00225209
0.0200795
-0.00200194
0.0203845
-0.00174325
0.0206921
-0.00148085
0.0210248
-0.00122269
0.0213548
-0.000974026
0.0215973
-0.000744371
0.0215871
-0.000550372
0.0210833
-0.000409522
0.0198415
-0.000324801
0.0177301
-0.000277486
0.0148384
-0.000219742
0.0114829
0.00481765
1.63335e-05
7.22369e-05
-0.00131853
0.00135491
8.33015e-05
0.000134325
-0.000593289
0.000646346
3.56371e-05
1.34034e-05
6.44326e-07
4.42726e-06
-5.40574e-05
5.39368e-05
-5.45882e-05
5.44738e-05
-0.000104743
5.28758e-05
0.00807311
-0.0116177
0.00988823
-0.0123148
0.00453473
0.00445309
-0.0079779
0.0046937
-0.00743924
0.00412354
-0.00961623
0.00233188
0.00215363
-0.00655153
0.00105336
0.00170889
-0.00759003
0.00733908
-0.00777834
0.00289518
0.00226165
-0.00258163
0.00176391
-0.00289518
0.000353961
0.000781646
-0.000229498
0.000573699
0.00108657
0.00157952
-0.000430719
-2.17151e-05
0.00383951
2.95974e-05
0.000929243
-0.000348856
-0.000393109
0.000584325
-0.000655773
0.00671636
-0.00125279
0.00950833
-0.00175864
0.0120974
-0.00215692
0.0143524
-0.00244318
0.0162037
-0.00260944
0.017634
-0.00265983
0.018687
-0.00260737
0.0194337
-0.00247382
0.0199622
-0.00228276
0.0203603
-0.00205674
0.020698
-0.00180905
0.0210203
-0.00155153
0.0213536
-0.00129461
0.0216753
-0.00104471
0.0218977
-0.000812518
0.0218492
-0.000616233
0.02129
-0.000464728
0.0199814
-0.000358619
0.0178112
-0.000271243
0.0148899
-0.000161844
0.01154
0.00486654
-8.96252e-06
1.29506e-05
-0.0013915
0.00140171
6.11896e-06
3.5647e-05
-0.000686298
0.000741944
5.65762e-06
2.19979e-05
5.0756e-05
4.36166e-05
-7.24117e-05
0.000108049
-5.90084e-05
5.45811e-05
-4.48763e-05
2.7002e-06
0.00811528
-0.0116693
0.00999359
-0.0114377
0.00444336
0.00456769
-0.00686875
0.00396423
-0.00619428
0.00377862
-0.00922
0.00231251
0.00198496
-0.00809664
0.00139198
0.00160818
0.00617915
-0.00589447
0.00204719
0.00178126
0.00606946
-0.00501609
-0.00672125
0.000912486
0.000124463
0.000290528
-0.000109939
0.000429739
-5.22708e-06
1.96219e-05
0.000774796
0.000132731
1.53942e-05
0.00316834
0.000685113
0.000119281
0.000160314
-5.3907e-05
-2.55253e-05
-0.000364992
0.00582856
-0.000858644
0.00860834
-0.00135494
0.0112954
-0.00181196
0.0137212
-0.00218038
0.0157746
-0.00243531
0.0174095
-0.0025629
0.0186426
-0.00257289
0.0195328
-0.00248668
0.0201662
-0.00232664
0.0206302
-0.00211653
0.0210055
-0.00187966
0.0213484
-0.0016261
0.0216851
-0.00136718
0.0219978
-0.00111261
0.0221978
-0.00087594
0.0221089
-0.000669687
0.0214949
-0.000503267
0.020126
-0.000369585
0.0179096
-0.000242659
0.0149707
-0.000111794
0.011607
0.00488386
-1.21041e-05
-2.51718e-06
-0.00141191
0.00140894
-5.99932e-06
2.75529e-06
-0.000772401
0.000780604
-2.15928e-06
7.46324e-08
5.07506e-06
1.14346e-07
-0.000174966
0.000179665
9.57795e-07
-0.000157889
4.92072e-06
0.000129419
2.9386e-05
1.51466e-05
-1.48261e-05
-1.76274e-05
0.00814773
-0.0116975
0.0100062
-0.0105676
0.00912348
-0.00553604
0.00378512
-0.0048211
0.00385276
-0.00673519
0.00131782
0.00128496
-0.00541814
0.00121589
0.00124568
-0.00579788
0.00221592
-0.00546926
0.00165634
0.00486794
-0.00422931
0.000753356
0.00100686
-0.00627283
0.00159877
-0.00410361
1.45246e-05
9.29751e-06
2.89194e-05
0.000224437
2.42121e-05
4.4395e-05
-0.000316056
2.80438e-05
0.000956672
3.18453e-05
-5.00384e-05
0.00285339
2.74773e-06
2.49137e-05
-9.31126e-06
-2.35622e-05
-2.10339e-05
-5.91757e-06
-0.000300738
0.00527066
-0.000685454
0.00793885
-0.00114553
0.010629
-0.00160887
0.0131496
-0.00201569
0.015355
-0.00231932
0.0171659
-0.00250045
0.0185701
-0.00255914
0.0196052
-0.0025095
0.020349
-0.00237678
0.0208905
-0.00218348
0.0213093
-0.00195067
0.021673
-0.00169846
0.0220164
-0.00143571
0.0223209
-0.00117488
0.0224967
-0.000931034
0.0223703
-0.000713155
0.0217048
-0.000527561
0.020284
-0.000362283
0.0180292
-0.000209349
0.0150683
-8.25923e-05
0.0116747
0.00488635
-1.20501e-05
-8.06976e-06
-0.00140862
0.0014037
-7.18285e-06
-2.20044e-06
-0.000783722
0.000780789
-1.99759e-06
-1.06949e-06
4.56016e-07
-8.18602e-07
-0.000184247
0.000182862
-7.74095e-07
-0.000184018
-1.54527e-07
0.000183912
8.28203e-07
7.94694e-09
-4.94533e-05
5.04111e-05
-4.45326e-05
2.9386e-05
-8.2818e-06
-2.20478e-05
0.00817805
-0.011734
0.0100285
-0.00978561
0.00922428
0.00286287
-0.00490888
0.00304517
0.00330322
-0.00396589
0.00115945
0.00117342
0.00145699
0.00129274
-0.00360824
0.000696752
-0.00298987
0.00066659
0.00237581
-0.00175733
0.000597416
0.000631622
-0.00656175
0.00250483
-0.00490541
0.00389855
-0.00314519
-0.00250483
-1.03614e-05
1.10111e-05
2.38092e-05
1.02242e-05
7.20566e-05
-3.84334e-05
-1.14684e-05
2.59393e-06
3.2944e-06
1.50723e-05
0.000907988
-1.64279e-05
9.77667e-05
2.2627e-06
3.87179e-06
-7.04217e-05
0.00262307
-3.92265e-05
3.54083e-06
9.49635e-06
5.91757e-06
-2.69515e-05
-0.000271836
0.00485704
-0.00061099
0.0074043
-0.00103844
0.0100586
-0.00149321
0.0126272
-0.00191011
0.0149458
-0.00224289
0.0169083
-0.00246085
0.0184718
-0.0025558
0.0196515
-0.00253863
0.0205109
-0.00242609
0.0211331
-0.00224563
0.0216042
-0.00201988
0.0219944
-0.0017638
0.0223445
-0.00149727
0.0226433
-0.00123149
0.0227972
-0.000975982
0.0226331
-0.000743682
0.0219209
-0.000534491
0.0204562
-0.000346656
0.0181665
-0.00018635
0.015172
-7.50412e-05
0.0117415
0.00488623
-1.07138e-05
-1.12096e-05
-0.00139921
0.00139467
-7.51261e-06
-3.5787e-06
-0.000778993
0.000774558
-1.6633e-06
-1.08499e-06
1.1214e-07
-5.16534e-07
-0.000181659
0.00018039
-7.28409e-07
-0.000182484
-2.44595e-07
0.000183131
1.87072e-07
-1.72186e-07
-5.10927e-05
5.03185e-05
-5.12472e-05
5.12393e-05
-2.43569e-05
-1.15144e-05
0.00821392
-0.0117949
0.0100619
-0.00919156
0.0094344
-0.00347414
0.00778954
0.00344368
-0.000505809
-0.00155592
0.000897236
0.000765986
0.00416951
0.0025774
-0.001159
0.000561124
-0.000542616
0.000557033
6.27773e-06
0.000944908
0.000756404
-0.00244844
-0.00178185
0.00115023
-0.000552809
-1.59404e-05
-5.71622e-06
-5.31706e-06
-2.61048e-06
-1.55353e-06
4.14744e-06
1.74085e-06
0.00010742
5.07327e-06
3.45675e-07
3.94934e-06
0.000856645
-2.30284e-05
0.000104594
-5.16297e-06
-8.43952e-06
4.00353e-06
8.37782e-06
-5.02666e-07
-8.08977e-05
0.00243213
-1.53696e-06
-0.000274408
0.00452045
-0.000587425
0.00695329
-0.000988843
0.00955422
-0.00142344
0.0121405
-0.001841
0.0145439
-0.00218965
0.0166371
-0.0024343
0.0183503
-0.00256018
0.019673
-0.00256743
0.0206522
-0.00247554
0.021363
-0.00230602
0.0218904
-0.00208114
0.0223118
-0.00182539
0.0226726
-0.00155175
0.0229636
-0.00127519
0.0230964
-0.00101052
0.0228999
-0.000760081
0.0221465
-0.0005325
0.0206421
-0.000333992
0.0183142
-0.000180813
0.0152778
-9.02125e-05
0.0118073
0.00489426
-6.93493e-06
-1.26167e-05
-0.00138793
0.00138474
-7.53366e-06
-4.46398e-06
-0.00077147
0.000766673
-1.56215e-06
-1.15437e-06
-4.25346e-08
-4.48518e-07
-0.000179016
0.000177993
-6.40692e-07
-0.000179901
-2.00136e-07
0.000180309
1.9294e-07
-1.09105e-07
-5.00888e-05
4.93604e-05
-5.03334e-05
5.05056e-05
-6.4444e-05
2.19843e-05
0.00825638
-0.0118858
0.0100989
-0.0087757
0.00964603
-0.00291133
0.00887159
-0.00338578
0.00822857
0.00318671
0.00392956
-0.00132176
0.000710747
-0.00147673
0.00237397
-0.000710747
0.000910725
0.000654859
8.31676e-06
0.000565352
1.53696e-06
1.21334e-05
1.31753e-06
1.29595e-05
-4.80493e-07
0.000103282
5.23943e-06
2.20076e-08
-2.55546e-06
0.000804511
-2.62103e-05
0.000103914
-2.36605e-05
1.06513e-05
-2.85485e-06
8.14259e-06
-5.93088e-06
-5.0267e-07
-0.000109075
0.00226679
-0.000295969
0.004229
-0.000589819
0.00655426
-0.000962396
0.00909318
-0.00138182
0.0116813
-0.00179476
0.014149
-0.00215165
0.0163545
-0.00241478
0.0182049
-0.00256353
0.0196691
-0.00259443
0.0207711
-0.00251844
0.0215754
-0.00235849
0.0221677
-0.00213767
0.022624
-0.00187805
0.0229989
-0.00159862
0.023287
-0.00131287
0.0233987
-0.0010325
0.0231723
-0.00076838
0.0223824
-0.000527819
0.0208359
-0.000329051
0.0184624
-0.000190558
0.0153781
-0.000124035
0.0118669
0.00492238
4.30092e-06
-1.04354e-05
-0.00137692
0.00137673
-6.7419e-06
-4.79344e-06
-0.000762887
0.0007581
-1.50289e-06
-1.24474e-06
-2.07368e-07
-4.71043e-07
-0.00017649
0.000175542
-6.1403e-07
-0.00017744
-2.04157e-07
0.000177782
1.6913e-07
-1.07342e-07
-4.9244e-05
4.86033e-05
-4.94442e-05
4.95533e-05
-0.000131224
9.50982e-05
0.0082925
-0.0120044
0.0101317
-0.00851174
0.00983496
-0.00276738
0.00950208
0.00733991
0.00976026
0.00185882
-0.000540335
0.00227015
-0.000401918
0.00222547
0.00356291
-0.000388906
0.000759296
0.000265953
8.14855e-07
3.34358e-07
8.79244e-06
4.58951e-06
8.33823e-06
4.76147e-07
9.9554e-05
1.80348e-06
-1.51582e-05
0.000746869
-3.6276e-05
9.4731e-05
-2.13879e-05
5.50337e-07
-1.09228e-05
-3.16181e-06
-1.78825e-06
-2.5205e-06
-8.45139e-06
-0.000144882
0.0021157
-0.000326194
0.00396537
-0.000597339
0.0061892
-0.00095328
0.00866464
-0.00135476
0.0112413
-0.00175917
0.0137565
-0.00212008
0.0160598
-0.00239743
0.0180388
-0.00256416
0.0196389
-0.00261336
0.020866
-0.0025547
0.0217716
-0.00240261
0.0224327
-0.00218434
0.0229303
-0.00192094
0.0233212
-0.00163352
0.0236076
-0.0013385
0.0237047
-0.00104622
0.0234502
-0.000769019
0.0226236
-0.000524658
0.0210315
-0.000332827
0.0186047
-0.000211998
0.0154661
-0.000170932
0.0119066
0.00497202
4.0476e-05
4.97416e-06
-0.00137004
0.00137731
-2.96302e-06
-3.75354e-06
-0.000754156
0.000750155
-1.40647e-06
-1.33493e-06
-3.70499e-07
-4.79969e-07
-0.000173829
0.000172928
-6.02129e-07
-0.000174856
-2.1784e-07
0.000175202
1.32073e-07
-1.25523e-07
-4.84609e-05
4.78468e-05
-4.86651e-05
4.87724e-05
-0.000198007
0.000202264
0.00828824
-0.0121508
0.0101624
-0.00836852
0.00998845
-0.00281982
0.0098874
0.00596144
0.0108806
-0.00161701
0.00479237
0.00881037
0.00103729
0.0016585
-0.000180092
-0.000245546
-0.000141164
0.000498543
0.00298319
0.000124789
-2.22772e-06
-1.63422e-06
-1.20128e-06
-6.34584e-06
-2.13283e-06
-6.40977e-07
8.77796e-05
-8.20749e-06
-2.56431e-05
0.000691137
-6.35098e-05
7.89115e-05
-2.74088e-05
-1.56119e-05
-6.6354e-06
-5.48687e-06
4.62375e-06
-7.78558e-06
2.8355e-06
-0.000181274
0.00197078
-0.000346778
0.00371481
-0.000611525
0.00584744
-0.00094963
0.00825951
-0.00133598
0.0108181
-0.00173153
0.013368
-0.002092
0.0157544
-0.00237876
0.0178534
-0.00256114
0.0195867
-0.00262679
0.0209381
-0.00257958
0.0219486
-0.00243592
0.0226842
-0.00221987
0.0232292
-0.00195507
0.0236428
-0.00166017
0.0239293
-0.0013532
0.0240117
-0.00104957
0.0237307
-0.00076521
0.0228642
-0.00052124
0.0212199
-0.00033967
0.0187323
-0.00023494
0.0155301
-0.000201885
0.0119105
0.00498798
0.000121266
6.5039e-05
-0.0013785
0.00140335
1.56305e-05
3.77793e-06
-0.000747336
0.000746865
-1.06327e-06
-1.4293e-06
-5.4554e-07
-3.89902e-07
-0.000171023
0.000170207
-5.90629e-07
-0.000172125
-2.33205e-07
0.00017246
9.71342e-08
-1.45208e-07
-4.76355e-05
4.70333e-05
-4.78533e-05
4.79789e-05
-0.000194676
0.000222954
0.00825996
-0.012318
0.0101853
-0.00831548
0.0101093
-0.00297506
0.0101437
0.00455805
0.0112908
0.0047601
0.0109128
-0.000940472
0.00283522
0.00751551
-0.000599882
0.000462745
-5.38835e-05
0.00126588
-1.62311e-05
-0.000377786
0.000197694
-0.000124789
0.00250547
-1.63422e-06
-9.91843e-06
-7.69771e-06
-2.86178e-06
-2.00424e-05
-7.20415e-07
-3.05701e-06
6.69724e-05
-1.37047e-05
-0.000119348
0.000629209
3.93192e-05
-3.58576e-05
-2.89945e-05
-9.65252e-06
-8.80447e-06
1.07013e-05
-1.49508e-05
-2.38598e-06
-2.48341e-06
-0.000196647
0.00182065
-0.000372377
0.00347566
-0.000623676
0.00552148
-0.000948577
0.00787211
-0.00132028
0.0104068
-0.0017046
0.0129806
-0.00206415
0.0154397
-0.00235461
0.0176469
-0.00254912
0.019509
-0.00262909
0.0209876
-0.00259441
0.0221071
-0.00246021
0.0229246
-0.00224649
0.0235207
-0.00197751
0.0239601
-0.00167549
0.0242516
-0.00135844
0.0243206
-0.00104572
0.0240112
-0.000757553
0.0231005
-0.000516918
0.0213971
-0.000342121
0.0188395
-0.000238561
0.0155668
-0.00018056
0.0118964
0.00497091
0.000104786
0.000135231
-0.00142111
0.0014451
9.72796e-05
4.72727e-05
-0.000750903
0.000765968
1.56258e-06
-9.9769e-07
-6.15607e-07
3.54543e-07
-0.000168187
0.000167678
-5.54753e-07
-0.00016937
-2.46633e-07
0.000169602
5.8737e-08
-1.57456e-07
-4.67519e-05
4.61613e-05
-4.69852e-05
4.71304e-05
-0.000102354
0.000104832
0.00825747
-0.0125023
0.0102023
-0.00832342
0.0101932
-0.00318282
0.0103171
0.00329537
0.0114064
0.00421159
0.0118393
0.00340168
0.0103464
0.00161467
0.00641749
-0.000227788
-0.000288858
-0.000242335
0.00214792
0.00014381
0.00104382
-8.61194e-06
-1.1658e-05
0.000127579
-2.86178e-06
-1.59202e-05
2.48825e-07
-1.67942e-05
-2.18322e-06
-3.20637e-05
-4.40148e-06
-6.23455e-06
3.73444e-05
-1.30448e-05
-7.83971e-05
-2.59325e-05
-0.000112841
0.000545401
-3.05777e-05
1.94563e-05
-2.25655e-05
-6.54351e-06
-6.14252e-06
5.34519e-06
-7.73118e-06
-0.000221969
0.00167023
-0.000389493
0.00324147
-0.000635929
0.00520883
-0.000945999
0.00749782
-0.00130319
0.0100054
-0.00167822
0.0125947
-0.0020316
0.0151167
-0.00232669
0.0174245
-0.00253062
0.0194105
-0.00262302
0.0210162
-0.00260045
0.0222473
-0.00247266
0.0231508
-0.00226026
0.0238034
-0.00198806
0.0242727
-0.00167852
0.0245717
-0.00135368
0.0246285
-0.00103532
0.024289
-0.00074427
0.0233278
-0.000502679
0.0215577
-0.000324925
0.0189259
-0.000202911
0.0155891
-9.98944e-05
0.0118939
0.00499648
1.26378e-05
6.66216e-05
-0.00145793
0.00147858
8.4136e-05
0.000122392
-0.000796833
0.000828742
4.243e-05
2.29396e-05
3.57485e-06
1.28319e-05
-0.000166634
0.000168376
-1.80299e-07
-0.000167464
-1.68428e-07
0.00016702
4.25146e-08
-8.96202e-08
-4.58158e-05
4.5261e-05
-4.60625e-05
4.622e-05
1.76561e-05
-1.61736e-05
0.00825599
-0.0126953
0.010211
-0.00836393
0.0102428
-0.00341028
0.0104207
0.00221549
0.011397
0.00348457
0.0121334
0.00335711
0.0118839
0.00242496
0.00953609
0.00115521
0.00584049
-0.000304273
-0.000273923
-0.00194348