/*--------------------------------*- C++ -*----------------------------------*\
| =========                 |                                                 |
| \\      /  F ield         | OpenFOAM: The Open Source CFD Toolbox           |
|  \\    /   O peration     | Version:  v1912                                 |
|   \\  /    A nd           | Website:  www.openfoam.com                      |
|    \\/     M anipulation  |                                                 |
\*---------------------------------------------------------------------------*/
FoamFile
{
    version     2.0;
    format      ascii;
    class       volVectorField;
    location    "140";
    object      U;
}
// * * * * * * * * * * * * * * * * * * * * * * * * * * * * * * * * * * * * * //

dimensions      [0 1 -1 0 0 0 0];


internalField   nonuniform List<vector> 
3673
(
(0.648225 -0.02558 -1.63203e-21)
(0.974707 -0.0152879 -5.26777e-20)
(0.298294 -0.0525265 -3.77538e-24)
(1.01656 -0.010396 2.45702e-20)
(0.766012 -0.0574659 -2.31419e-24)
(0.175399 -0.0543237 1.97569e-20)
(1.00676 -0.0138452 -1.91683e-37)
(0.961598 -0.0540187 1.53792e-24)
(0.568888 -0.0966113 -1.80691e-20)
(0.124685 -0.04621 2.4314e-20)
(0.999518 -0.0164294 -2.64362e-41)
(1.00908 -0.052192 0)
(0.843917 -0.103854 -2.36923e-20)
(0.436304 -0.110479 -2.40514e-20)
(0.108188 -0.0399977 2.8405e-20)
(0.9976 -0.0170102 -4.08757e-24)
(1.00893 -0.0519862 -7.00153e-24)
(0.969467 -0.100476 4.81395e-20)
(0.720479 -0.138203 2.52867e-20)
(0.365096 -0.110877 0)
(0.104863 -0.0374555 -3.12317e-20)
(0.997519 -0.0166296 -3.75036e-51)
(1.00223 -0.0520731 1.8014e-20)
(1.0043 -0.0966044 -2.58251e-20)
(0.898665 -0.144777 -2.22168e-20)
(0.626049 -0.156515 2.83263e-20)
(0.3328 -0.109267 3.39673e-20)
(0.105561 -0.0367882 0)
(0.997718 -0.0157764 0)
(0.998111 -0.0514246 1.78044e-21)
(1.00468 -0.094023 0)
(0.976577 -0.143356 7.03057e-24)
(0.824806 -0.177845 3.77743e-21)
(0.567219 -0.165591 0)
(0.320223 -0.10849 0)
(0.107631 -0.0368541 0)
(0.997871 -0.0145885 2.28077e-20)
(0.996105 -0.049687 -2.00871e-20)
(0.998299 -0.091755 0)
(0.996978 -0.140127 1.73849e-20)
(0.93629 -0.184528 -2.61641e-20)
(0.76627 -0.200204 0)
(0.535457 -0.170058 -7.40251e-24)
(0.316952 -0.108424 0)
(0.109838 -0.0371219 0)
(0.997983 -0.0130926 -2.29289e-20)
(0.994816 -0.0469003 0)
(0.992876 -0.0888653 2.02678e-23)
(0.995341 -0.136837 -1.74277e-20)
(0.980676 -0.184694 0)
(0.89708 -0.217155 1.35303e-23)
(0.727227 -0.214199 6.74221e-24)
(0.52042 -0.172037 -3.1031e-20)
(0.31759 -0.10852 3.42117e-20)
(0.111521 -0.0373671 -6.87668e-24)
(0.998094 -0.0112731 0)
(0.99359 -0.0431089 0)
(0.988679 -0.0848831 -2.25757e-23)
(0.988632 -0.133362 -4.14704e-23)
(0.989766 -0.182879 -3.60882e-23)
(0.962079 -0.223714 0)
(0.86665 -0.240663 -1.41707e-23)
(0.704261 -0.221866 2.73519e-20)
(0.514428 -0.172504 5.44684e-22)
(0.319257 -0.108513 -3.24346e-20)
(0.112538 -0.0375155 1.33515e-23)
(0.998226 -0.00911597 -2.53045e-23)
(0.992278 -0.0382735 0)
(0.984766 -0.0795151 0)
(0.981586 -0.129101 2.35091e-23)
(0.98548 -0.180651 2.12775e-23)
(0.98426 -0.225886 1.82375e-23)
(0.946694 -0.25457 0)
(0.846456 -0.255483 0)
(0.691945 -0.225025 7.96204e-22)
(0.512523 -0.172118 -4.11353e-22)
(0.320658 -0.108352 0)
(0.112963 -0.037542 -6.47439e-24)
(0.99839 -0.00662939 0)
(0.990917 -0.0323296 -2.7871e-20)
(0.980619 -0.0724801 0)
(0.97434 -0.123419 0)
(0.977208 -0.177983 0)
(0.985734 -0.226958 -2.21673e-20)
(0.98172 -0.262071 0)
(0.936714 -0.275824 1.29331e-23)
(0.834238 -0.263079 1.12181e-21)
(0.685572 -0.22552 2.47262e-20)
(0.512047 -0.17134 -2.62275e-20)
(0.321362 -0.107999 0)
(0.112864 -0.0374445 0)
(0.998593 -0.00385361 2.75798e-20)
(0.989605 -0.0252474 2.79497e-20)
(0.976152 -0.0634939 1.99446e-24)
(0.966267 -0.115677 0)
(0.967105 -0.174241 2.91609e-20)
(0.978874 -0.22799 2.24298e-20)
(0.991314 -0.267678 3.95496e-23)
(0.983109 -0.288339 -1.36839e-23)
(0.931061 -0.287929 -3.73329e-20)
(0.826888 -0.265928 0)
(0.682136 -0.224761 4.66202e-20)
(0.511765 -0.170325 0)
(0.321241 -0.107439 0)
(0.112345 -0.0372448 1.01956e-23)
(0.998843 -0.000869201 -5.54652e-20)
(0.98848 -0.0170803 -2.845e-23)
(0.971544 -0.0523144 3.14578e-20)
(0.95706 -0.105203 3.3029e-20)
(0.95484 -0.168546 -2.94954e-20)
(0.967845 -0.228832 0)
(0.989026 -0.273715 0)
(1.00204 -0.29806 1.72074e-20)
(0.986622 -0.303961 1.24683e-20)
(0.927594 -0.293589 1.14867e-20)
(0.822288 -0.266298 -2.13954e-20)
(0.68002 -0.223406 5.08103e-24)
(0.511106 -0.169116 -2.2534e-20)
(0.32032 -0.1067 -2.41037e-20)
(0.111502 -0.0369673 -8.84987e-25)
(0.99914 0.00220109 2.79052e-20)
(0.987714 -0.0080037 2.99723e-20)
(0.967157 -0.0388101 -3.1354e-20)
(0.946842 -0.0912881 -6.84128e-20)
(0.939788 -0.159816 -6.69468e-23)
(0.952797 -0.228771 5.84026e-23)
(0.980636 -0.281004 0)
(1.00721 -0.308264 -1.68868e-20)
(1.01439 -0.316022 1.37612e-20)
(0.989728 -0.311851 -1.10263e-20)
(0.925222 -0.295707 0)
(0.819295 -0.265402 -2.00356e-20)
(0.678305 -0.221715 1.98571e-20)
(0.509795 -0.167762 2.04436e-20)
(0.318707 -0.10584 1.02558e-23)
(0.110449 -0.0366335 -9.43656e-24)
(0.999478 0.00519771 5.48136e-23)
(0.987497 0.00165355 -2.98128e-20)
(0.963527 -0.0230629 1.34458e-22)
(0.93615 -0.0732495 -2.05631e-21)
(0.921654 -0.146694 0)
(0.932606 -0.226702 -3.87414e-20)
(0.966959 -0.289679 -5.73795e-23)
(1.00575 -0.320693 3.33361e-23)
(1.02758 -0.327654 -1.35191e-20)
(1.02427 -0.325061 0)
(0.991878 -0.315517 0)
(0.923692 -0.295879 9.25416e-21)
(0.817087 -0.263791 -1.84137e-20)
(0.676423 -0.219866 1.33043e-23)
(0.5078 -0.166343 0)
(0.316562 -0.104887 -1.02866e-23)
(0.109247 -0.0362605 0)
(0.999844 0.00794126 0)
(0.987981 0.011407 -5.68601e-23)
(0.961329 -0.00549012 -3.30718e-20)
(0.926026 -0.0505836 7.53775e-20)
(0.900646 -0.12744 -9.36049e-24)
(0.905924 -0.221029 3.96746e-20)
(0.946571 -0.299635 0)
(0.999791 -0.336426 0)
(1.03431 -0.340838 -3.24105e-23)
(1.04344 -0.336679 0)
(1.03125 -0.329534 -9.26907e-24)
(0.993676 -0.316782 9.05118e-21)
(0.922633 -0.294881 1.71987e-20)
(0.815047 -0.26185 8.59316e-24)
(0.674142 -0.217995 -8.62109e-24)
(0.505196 -0.164882 0)
(0.314018 -0.103871 -8.60541e-24)
(0.107949 -0.0358617 -1.57366e-20)
(1.00021 0.0102594 0)
(0.989234 0.0206553 -1.18012e-22)
(0.961255 0.0130544 3.29173e-20)
(0.918129 -0.0232956 -7.63136e-20)
(0.877705 -0.0998661 -4.70484e-20)
(0.871516 -0.209335 1.8601e-22)
(0.916995 -0.310708 0)
(0.988963 -0.356553 -2.39438e-20)
(1.03805 -0.356613 2.5691e-23)
(1.05562 -0.348691 0)
(1.05443 -0.341039 0)
(1.03677 -0.331411 9.06635e-25)
(0.995233 -0.316516 8.46752e-24)
(0.921598 -0.293283 -7.90085e-21)
(0.812858 -0.259833 -7.24503e-24)
(0.671409 -0.216152 0)
(0.502086 -0.163401 -7.4315e-24)
(0.311195 -0.102818 1.66517e-20)
(0.106607 -0.0354479 6.64055e-24)
(1.00055 0.0120168 2.45783e-20)
(0.991189 0.0287623 -2.73699e-20)
(0.963791 0.0313195 1.1864e-22)
(0.914621 0.00763941 7.55767e-20)
(0.855234 -0.0618281 4.55961e-20)
(0.82872 -0.187192 0)
(0.874481 -0.322777 0)
(0.971657 -0.382444 2.3328e-20)
(1.03962 -0.375427 2.53112e-23)
(1.06468 -0.361916 -4.69132e-24)
(1.06956 -0.351949 0)
(1.06297 -0.342804 0)
(1.04131 -0.331557 7.75481e-25)
(0.996319 -0.315416 1.53905e-23)
(0.92037 -0.291474 0)
(0.810406 -0.257853 1.42287e-20)
(0.668249 -0.214354 -6.63323e-24)
(0.498593 -0.161912 1.42461e-23)
(0.308188 -0.101737 -7.20803e-24)
(0.105237 -0.0350262 -1.277e-23)
(1.00084 0.0131408 -4.81e-20)
(0.993648 0.0351774 1.30435e-21)
(0.968978 0.0478363 2.92168e-20)
(0.917285 0.0399769 -3.69831e-20)
(0.838624 -0.0131939 -8.29514e-22)
(0.778806 -0.145681 -6.52829e-20)
(0.811538 -0.333862 5.23578e-20)
(0.942972 -0.415144 -7.86965e-23)
(1.03689 -0.396365 -4.83539e-23)
(1.07054 -0.375811 -1.0703e-20)
(1.08013 -0.362713 -2.04766e-23)
(1.07989 -0.352693 0)
(1.06983 -0.342759 -7.78636e-21)
(1.04478 -0.330738 7.2843e-21)
(0.996889 -0.313965 -7.02742e-24)
(0.918884 -0.289636 -1.32349e-20)
(0.807645 -0.255945 6.07717e-24)
(0.664711 -0.212598 6.6378e-24)
(0.494804 -0.160418 -6.81426e-24)
(0.305058 -0.100648 7.23156e-24)
(0.103863 -0.0346033 -1.21484e-20)
(1.00105 0.0136304 2.35323e-20)
(0.996318 0.0395504 2.60935e-20)
(0.976297 0.0612242 -2.90377e-20)
(0.926822 0.0704245 1.26049e-22)
(0.835806 0.0423316 4.49188e-20)
(0.729803 -0.0741713 6.66797e-20)
(0.71226 -0.328337 -5.47418e-20)
(0.885052 -0.449108 -3.1715e-20)
(1.01731 -0.41404 7.82145e-23)
(1.06584 -0.386219 1.06588e-20)
(1.08369 -0.371451 -1.98922e-23)
(1.09003 -0.36094 0)
(1.08759 -0.351582 7.64171e-21)
(1.07494 -0.341698 6.58692e-25)
(1.04728 -0.329473 6.57948e-21)
(0.996988 -0.312393 0)
(0.917091 -0.287843 0)
(0.804567 -0.254112 1.19185e-20)
(0.660846 -0.210879 0)
(0.4908 -0.15893 0)
(0.30187 -0.0995632 1.27447e-20)
(0.102502 -0.0341829 5.61789e-24)
(1.00118 0.0135478 0)
(0.99889 0.041803 -2.30304e-20)
(0.984741 0.0705201 -4.98315e-23)
(0.942529 0.0955293 -2.97256e-20)
(0.849765 0.0980311 -8.32712e-20)
(0.701266 0.0257481 -6.25759e-20)
(0.560424 -0.264446 -4.20929e-20)
(0.75056 -0.453514 3.85341e-20)
(0.938661 -0.406013 0)
(1.02298 -0.380623 3.49648e-23)
(1.066 -0.370602 8.77063e-21)
(1.08787 -0.364175 0)
(1.09565 -0.357219 7.2869e-21)
(1.09259 -0.349408 -6.36889e-24)
(1.07853 -0.340123 -6.42841e-21)
(1.04897 -0.328005 0)
(0.996627 -0.310814 5.75315e-21)
(0.91498 -0.286119 -5.51767e-21)
(0.801189 -0.252346 5.55798e-24)
(0.656727 -0.209194 -1.0944e-20)
(0.486661 -0.157457 -5.21207e-24)
(0.298656 -0.0984883 -5.2647e-25)
(0.101174 -0.033772 -4.70534e-24)
(1.00123 0.0129918 0)
(1.00113 0.0421062 2.32335e-20)
(0.993131 0.0754218 -9.2639e-23)
(0.962041 0.112677 2.90961e-20)
(0.880314 0.145646 7.14775e-20)
(0.708603 0.133201 5.73211e-20)
(0.530431 -0.0872183 3.71028e-20)
(0.497342 -0.0031875 9.341e-22)
(0.537291 -0.464346 0)
(0.355388 -0.20682 7.40938e-20)
(0.383076 -0.382301 -3.683e-22)
(0.807595 -0.384549 0)
(0.502837 -0.311834 -1.24779e-20)
(0.635782 -0.294531 0)
(0.87548 -0.328009 0)
(0.735578 -0.289129 0)
(0.989352 -0.34267 -9.22753e-21)
(1.05356 -0.352761 7.7903e-21)
(1.08542 -0.35506 -7.29786e-21)
(1.09712 -0.352413 3.08988e-24)
(1.09529 -0.346629 6.13791e-21)
(1.08085 -0.338262 1.69209e-23)
(1.04992 -0.326479 -5.53863e-21)
(0.995822 -0.309265 -5.27332e-21)
(0.912556 -0.284454 -5.08476e-21)
(0.79754 -0.25063 9.88063e-21)
(0.65241 -0.207541 0)
(0.482441 -0.156008 4.48735e-25)
(0.295469 -0.0974341 -5.55172e-24)
(0.099878 -0.0333709 -9.40442e-21)
(1.00123 0.0120725 -3.80396e-23)
(1.00291 0.040784 0)
(1.00057 0.0762898 0)
(0.982025 0.121169 -1.97088e-22)
(0.920852 0.177453 -3.26681e-20)
(0.761817 0.228939 -3.97992e-22)
(0.490145 0.103123 0)
(0.515413 0.20286 -2.45143e-20)
(0.278547 -0.076268 -3.72485e-20)
(0.288205 -0.320092 3.22367e-22)
(0.201585 -0.252277 -1.15415e-20)
(0.19742 -0.235279 8.67452e-21)
(0.168183 -0.154772 4.14823e-21)
(0.301322 -0.25004 -1.99457e-22)
(0.459423 -0.214936 3.68407e-23)
(0.256466 -0.107101 0)
(0.165136 -0.114061 -5.68056e-22)
(0.508338 -0.187844 -6.41144e-22)
(0.359255 -0.145994 -1.03751e-21)
(0.653948 -0.232497 0)
(0.791454 -0.261809 0)
(0.587211 -0.193804 -1.26503e-23)
(0.947584 -0.309514 -8.35364e-21)
(1.03392 -0.334944 0)
(1.07746 -0.345287 0)
(1.09531 -0.346955 -1.51994e-22)
(1.09609 -0.343463 0)
(1.08205 -0.336297 -1.09207e-23)
(1.05019 -0.324931 -1.03419e-23)
(0.994587 -0.307733 9.6432e-21)
(0.909818 -0.282833 4.6532e-21)
(0.793656 -0.248961 0)
(0.647956 -0.205927 0)
(0.478189 -0.154583 4.78343e-24)
(0.29232 -0.0964064 9.78449e-21)
(0.0986254 -0.0329818 8.65331e-21)
(1.00118 0.010891 -3.59116e-23)
(1.00424 0.0382054 3.84398e-23)
(1.00662 0.0739034 0)
(0.999608 0.122049 0)
(0.961681 0.191039 1.88405e-22)
(0.849351 0.286902 7.05089e-22)
(0.558764 0.297679 2.34081e-20)
(0.622474 0.37252 -7.26789e-23)
(0.236977 0.0638707 0)
(0.344903 0.256404 8.24906e-23)
(0.31829 0.188385 0)
(0.064628 -0.0940624 6.71547e-22)
(0.10662 -0.166056 7.85648e-21)
(0.11588 -0.157266 -3.81166e-21)
(0.0775851 -0.0977473 0)
(0.147936 -0.0587304 8.34017e-22)
(0.0848134 -0.0374517 -2.58509e-21)
(0.243848 -0.0760866 6.95961e-22)
(0.420882 -0.130922 0)
(0.288131 -0.0993146 9.77506e-22)
(0.540519 -0.166608 3.32455e-21)
(0.725282 -0.219442 -1.96034e-21)
(0.50656 -0.148981 0)
(0.367169 -0.108453 -1.12476e-23)
(0.905754 -0.283287 7.30202e-21)
(1.00993 -0.318421 -1.21677e-23)
(1.06583 -0.335292 -6.0257e-21)
(1.09098 -0.341103 4.7461e-24)
(1.09528 -0.340198 0)
(1.08226 -0.334268 9.1976e-24)
(1.04983 -0.323339 -4.64623e-21)
(0.992925 -0.30621 -4.41006e-21)
(0.906786 -0.281251 4.26062e-21)
(0.789586 -0.247337 3.89946e-24)
(0.643406 -0.204345 8.41247e-21)
(0.473944 -0.153196 0)
(0.289233 -0.0954072 -8.97601e-21)
(0.0974171 -0.032606 -3.65767e-24)
(1.00111 0.00953113 0)
(1.00517 0.034716 -1.80715e-20)
(1.01119 0.0691359 0)
(1.01341 0.117175 -1.83336e-20)
(0.997707 0.189219 -1.89217e-20)
(0.938726 0.304212 2.08566e-20)
(0.699755 0.433702 0)
(0.783647 0.462064 -7.13872e-22)
(0.318681 0.354366 2.21098e-20)
(0.425436 0.467331 -2.01298e-20)
(0.0416885 -0.0438966 0)
(0.0311747 0.0105949 0)
(0.171075 0.155929 -1.16812e-20)
(0.193359 0.241693 1.14806e-20)
(0.0390313 -0.0780478 -1.46632e-20)
(0.105108 -0.0314025 5.54418e-22)
(0.21474 -0.0602945 1.41432e-23)
(0.0816146 -0.022341 -3.99226e-23)
(0.199494 -0.0544659 9.07415e-22)
(0.332263 -0.0929497 -3.77776e-21)
(0.480271 -0.135893 -3.42713e-21)
(0.674857 -0.194918 -8.09498e-21)
(0.460728 -0.127226 2.0316e-22)
(0.30772 -0.0843406 0)
(0.175129 -0.0472601 7.51373e-24)
(0.18497 -0.0498288 -1.49916e-23)
(0.865709 -0.262483 -6.84497e-21)
(0.984025 -0.303184 1.30379e-23)
(1.05181 -0.325313 -1.03419e-23)
(1.08472 -0.335382 -8.02167e-25)
(1.09322 -0.336882 8.98044e-24)
(1.0816 -0.332138 -1.76066e-23)
(1.04886 -0.321705 4.22817e-21)
(0.990854 -0.304696 -4.03834e-21)
(0.903496 -0.279704 7.62524e-24)
(0.785358 -0.245752 -1.52554e-20)
(0.638804 -0.202806 7.71402e-21)
(0.469734 -0.151845 0)
(0.286221 -0.0944411 -3.92653e-24)
(0.0962606 -0.0322445 3.67729e-24)
(1.00102 0.00805848 0)
(1.00578 0.0306053 1.09846e-21)
(1.01443 0.0627377 0)
(1.02345 0.108455 1.85984e-20)
(1.02519 0.177478 3.49373e-20)
(1.0076 0.291471 -4.81144e-21)
(0.8999 0.547215 -5.32195e-21)
(0.561731 0.557659 0)
(0.695048 0.612085 1.01017e-20)
(0.0647161 0.194073 2.66535e-21)
(0.100967 0.251508 0)
(0.208341 0.351146 -1.24697e-21)
(0.149964 0.304453 -8.81325e-22)
(0.0310227 0.0717924 -3.71388e-22)
(0.0414423 0.132735 0)
(0.0696603 -0.0176505 0)
(0.0645929 -0.0161841 -5.84027e-22)
(0.165016 -0.0433139 1.02247e-21)
(0.158953 -0.0415953 -7.77968e-24)
(0.290575 -0.077021 3.86231e-21)
(0.443167 -0.120875 -3.36813e-24)
(0.633487 -0.178809 5.71608e-21)
(0.429045 -0.115841 -3.31834e-21)
(0.277967 -0.0729255 2.32281e-21)
(0.147416 -0.0383773 0)
(0.152071 -0.0395315 -9.92657e-22)
(0.0566533 -0.0142456 -2.83106e-25)
(0.0601259 -0.0149794 2.82365e-25)
(0.827788 -0.245001 6.38323e-21)
(0.957419 -0.288858 -7.15815e-25)
(1.03639 -0.316259 -8.91426e-24)
(1.0773 -0.329831 -4.70654e-21)
(1.09014 -0.333469 -1.72321e-23)
(1.08013 -0.329922 -4.13042e-21)
(1.04731 -0.320038 3.96909e-24)
(0.988408 -0.303188 3.77864e-24)
(0.899974 -0.278187 1.06692e-20)
(0.781012 -0.244206 1.16634e-22)
(0.634181 -0.201307 2.95947e-25)
(0.465579 -0.150535 3.38567e-24)
(0.283301 -0.0935079 3.27505e-25)
(0.0951523 -0.0318967 0)
(1.00093 0.00652237 0)
(1.00614 0.0261011 2.558e-20)
(1.01658 0.0552828 0)
(1.03037 0.0974287 0)
(1.04383 0.160663 -2.47357e-21)
(1.05323 0.26173 -1.53353e-20)
(1.05217 0.494816 6.89939e-21)
(0.771429 0.695025 -1.55167e-22)
(0.964687 0.748082 2.84324e-21)
(0.279512 0.474803 -3.57837e-21)
(0.43564 0.586936 7.25543e-21)
(0.658296 0.686382 0)
(0.552325 0.637064 -2.86935e-21)
(0.0533104 -0.0132386 0)
(0.0513172 -0.0127686 6.04259e-25)
(0.142439 -0.0363433 -2.32363e-23)
(0.139654 -0.035545 -1.02992e-21)
(0.267897 -0.0694463 -7.67911e-22)
(0.414957 -0.111689 4.94498e-23)
(0.595736 -0.165653 -7.1052e-21)
(0.40247 -0.107517 0)
(0.259269 -0.067111 2.99921e-21)
(0.133967 -0.0339958 1.04132e-21)
(0.136229 -0.0346058 4.05612e-24)
(0.0474745 -0.0118542 2.48335e-24)
(0.0491829 -0.0122082 6.32721e-22)
(0.790772 -0.228697 -1.23467e-23)
(0.931304 -0.276924 -2.02282e-23)
(1.02094 -0.307987 4.86698e-21)
(1.06917 -0.324371 0)
(1.08618 -0.330001 8.2541e-24)
(1.07792 -0.327649 3.54806e-24)
(1.04523 -0.318344 0)
(0.98562 -0.301685 -3.38312e-21)
(0.89625 -0.276697 -3.21518e-21)
(0.776571 -0.242699 -6.4686e-21)
(0.629562 -0.19985 2.6892e-25)
(0.461499 -0.149264 -6.50503e-24)
(0.28047 -0.0926071 7.21967e-21)
(0.0940883 -0.0315612 -2.85971e-24)
(1.00083 0.00495943 0)
(1.00632 0.0213744 -8.31755e-21)
(1.0179 0.0471964 0)
(1.03486 0.0851458 1.38245e-20)
(1.05566 0.141602 -1.39927e-20)
(1.08153 0.22777 0)
(1.12388 0.407643 -1.15053e-20)
(1.1813 0.631903 -1.62968e-21)
(0.460997 0.474937 0)
(0.599664 0.478869 -5.89645e-21)
(0.382516 0.325856 4.55688e-21)
(0.810025 0.498847 -3.41426e-23)
(0.100373 0.202151 0)
(0.254844 0.349503 0)
(0.346512 0.373111 0)
(0.0458547 -0.0113337 -1.30141e-21)
(0.0449682 -0.0111154 5.3247e-24)
(0.131135 -0.0330867 1.03585e-21)
(0.129542 -0.0325783 1.04289e-21)
(0.251404 -0.0647546 2.19593e-21)
(0.388613 -0.103938 0)
(0.553987 -0.151033 1.56847e-21)
(0.373966 -0.0991308 0)
(0.243821 -0.0627891 -6.70914e-22)
(0.125661 -0.0316348 -1.01777e-21)
(0.127231 -0.0321322 2.04623e-21)
(0.043172 -0.0106731 0)
(0.0439655 -0.0108621 -3.19314e-25)
(0.756643 -0.216094 -4.48805e-23)
(0.907736 -0.26671 2.05683e-23)
(1.00592 -0.300277 0)
(1.06048 -0.319066 -3.78626e-24)
(1.08145 -0.326532 -3.69757e-21)
(1.07505 -0.325342 -3.54179e-24)
(1.04268 -0.316628 3.26553e-21)
(0.982521 -0.300187 -3.10539e-21)
(0.892344 -0.275235 5.96586e-21)
(0.772054 -0.241229 -3.00794e-24)
(0.62496 -0.198431 3.01993e-24)
(0.457506 -0.148031 -6.00965e-21)
(0.277733 -0.0917335 3.05855e-24)
(0.093063 -0.0312374 5.7471e-21)
(1.00073 0.00339556 0)
(1.00636 0.0165481 1.47726e-23)
(1.01861 0.0387887 -1.22378e-23)
(1.0375 0.0722708 -1.40383e-20)
(1.06269 0.121738 0)
(1.09825 0.195216 0)
(1.15207 0.324938 6.93214e-21)
(1.32187 0.54332 3.07664e-24)
(0.826261 0.263879 0)
(1.17094 0.395361 6.59532e-23)
(0.18764 0.214826 2.03582e-22)
(0.209481 0.139645 0)
(0.612488 0.281015 5.5858e-23)
(0.237356 0.120937 5.69897e-21)
(0.0423155 -0.0104315 -6.60205e-22)
(0.0418198 -0.0102883 0)
(0.123484 -0.0310887 -9.83944e-25)
(0.122184 -0.0306177 1.06168e-23)
(0.235875 -0.0606333 -1.35414e-21)
(0.354003 -0.0938399 -2.85566e-21)
(0.515612 -0.139747 0)
(0.328875 -0.084922 -2.7679e-21)
(0.226222 -0.05823 1.03449e-23)
(0.118884 -0.0298228 5.43018e-24)
(0.120269 -0.0303184 3.76813e-24)
(0.0406051 -0.0100022 0)
(0.0411707 -0.0101555 -6.5099e-22)
(0.729007 -0.205926 4.59692e-23)
(0.886746 -0.257717 1.77341e-23)
(0.991348 -0.293151 3.88231e-24)
(1.05138 -0.313959 3.76297e-21)
(1.0761 -0.32309 0)
(1.07162 -0.323008 -3.19994e-21)
(1.0397 -0.314892 0)
(0.979133 -0.298699 2.91567e-24)
(0.888271 -0.273804 2.81455e-24)
(0.767488 -0.239797 5.47853e-21)
(0.620409 -0.197049 -2.55352e-24)
(0.453602 -0.146826 0)
(0.275078 -0.0908874 -5.89689e-21)
(0.0920809 -0.0309255 5.19743e-21)
(1.00063 0.00184926 0)
(1.00631 0.0117097 0)
(1.01887 0.0302745 -1.44421e-23)
(1.03879 0.0592253 2.63149e-23)
(1.0664 0.101941 4.90894e-21)
(1.10681 0.164533 0)
(1.16385 0.259772 -2.64733e-21)
(1.33746 0.432486 0)
(1.35176 0.350408 -5.14028e-20)
(0.197004 0.0520501 4.87677e-21)
(0.659958 0.167462 0)
(0.313196 0.0780979 0)
(0.902065 0.166967 3.51332e-20)
(0.0399621 -0.00984333 -6.35916e-22)
(0.0395329 -0.00971005 6.29935e-22)
(0.116927 -0.0294259 4.67522e-24)
(0.115426 -0.0288936 1.85432e-21)
(0.210788 -0.0543365 2.17923e-21)
(0.305735 -0.0799238 0)
(0.491062 -0.131542 0)
(0.29421 -0.0765891 0)
(0.176294 -0.0438127 0)
(0.110508 -0.0277883 1.77883e-21)
(0.113262 -0.0286142 -3.68788e-24)
(0.0385093 -0.00946625 6.11444e-22)
(0.0389976 -0.00961147 -5.99488e-25)
(0.706432 -0.197628 1.992e-23)
(0.867687 -0.249798 -1.79821e-23)
(0.977189 -0.286558 -3.91331e-24)
(1.04197 -0.309056 3.42408e-21)
(1.07022 -0.319682 0)
(1.06767 -0.320652 -2.75888e-24)
(1.03632 -0.313148 0)
(0.975478 -0.29723 -4.94945e-24)
(0.884062 -0.272403 -5.03803e-21)
(0.762897 -0.23839 -2.01689e-25)
(0.615898 -0.195686 2.03774e-25)
(0.449788 -0.145651 5.26025e-21)
(0.27251 -0.0900673 0)
(0.0911434 -0.0306268 -2.24585e-24)
(1.00055 0.000333851 0)
(1.0062 0.00691934 -7.53452e-21)
(1.01883 0.0217969 0)
(1.03915 0.0462766 1.03838e-23)
(1.06788 0.0827165 -4.99771e-21)
(1.10981 0.135582 -2.84866e-21)
(1.16853 0.208887 -6.28105e-22)
(1.30949 0.333361 -3.09454e-23)
(1.48694 0.341201 3.66513e-20)
(1.03914 0.0995143 2.72385e-20)
(0.461483 0.051638 4.71017e-22)
(0.179364 0.0101809 -1.07421e-20)
(0.606034 0.0140541 2.60153e-20)
(0.0379473 -0.00934294 3.35767e-24)
(0.0374603 -0.00919603 -1.18137e-21)
(0.105382 -0.0270099 -8.6192e-22)
(0.0969965 -0.0232597 4.30502e-22)
(0.151641 -0.0386721 6.15577e-22)
(0.28609 -0.0740796 0)
(0.47346 -0.125989 -1.49941e-21)
(0.28068 -0.072098 0)
(0.144957 -0.0364861 -5.69571e-22)
(0.0431306 -0.0116898 -1.8447e-22)
(0.0651525 -0.0121029 -2.7273e-22)
(0.0359871 -0.00886923 -5.68715e-22)
(0.0368478 -0.00909873 -5.81363e-22)
(0.68704 -0.190694 -4.9625e-21)
(0.850127 -0.242722 0)
(0.963372 -0.280425 -3.59932e-21)
(1.03231 -0.304333 0)
(1.06388 -0.316296 0)
(1.06326 -0.318287 2.75348e-24)
(1.03257 -0.311416 0)
(0.971584 -0.295786 9.50122e-24)
(0.879737 -0.271015 0)
(0.758283 -0.236995 -2.34024e-24)
(0.611449 -0.194347 -4.55005e-21)
(0.446069 -0.144504 2.4339e-24)
(0.270039 -0.0892751 0)
(0.0902332 -0.0303367 2.25599e-24)
(1.00047 -0.00114001 0)
(1.00604 0.00221939 1.51973e-20)
(1.01859 0.0134452 -6.81391e-21)
(1.0389 0.0335787 0)
(1.06788 0.0642759 -1.69057e-23)
(1.10949 0.108543 2.91205e-21)
(1.16819 0.167137 6.58324e-22)
(1.27857 0.255316 6.67464e-21)
(1.47556 0.29109 3.33807e-23)
(1.41935 0.164015 -9.49668e-20)
(0.674769 -0.0333331 -9.42115e-20)
(0.370298 -0.0177823 3.98032e-20)
(0.317701 -0.0143242 0)
(0.0973806 -0.0164111 1.01028e-20)
(0.231714 -0.0240032 1.46219e-20)
(0.0340266 -0.00867894 9.73288e-24)
(0.0315222 -0.00826355 0)
(0.0375878 -0.00956997 -5.03946e-22)
(0.0350285 -0.00889033 -6.24704e-22)
(0.14131 -0.0353994 -6.20065e-22)
(0.275181 -0.070958 2.56591e-21)
(0.458952 -0.121752 5.61958e-21)
(0.271254 -0.0695948 0)
(0.138521 -0.0346144 5.74247e-22)
(0.0339397 -0.00831576 0)
(0.0342978 -0.00854771 5.92815e-22)
(0.0181471 -0.0032054 1.00565e-22)
(0.669932 -0.184604 0)
(0.83361 -0.236297 -7.23846e-24)
(0.94976 -0.274668 0)
(1.0224 -0.299729 0)
(1.05712 -0.312935 0)
(1.05842 -0.315951 2.49746e-21)
(1.02849 -0.30972 2.36125e-21)
(0.967484 -0.29435 -4.55367e-24)
(0.875308 -0.269625 0)
(0.753657 -0.235602 1.98709e-24)
(0.607062 -0.193026 4.31881e-21)
(0.442449 -0.143382 0)
(0.267636 -0.0885062 -2.20928e-24)
(0.0893644 -0.0300589 1.91608e-24)
(1.00039 -0.00256254 7.8783e-21)
(1.00584 -0.00235902 -7.66726e-21)
(1.01819 0.00527421 6.92624e-21)
(1.03827 0.0212089 -5.70217e-21)
(1.06696 0.0466529 0)
(1.10737 0.083478 6.60134e-24)
(1.16416 0.131315 0)
(1.25495 0.195641 -1.02409e-20)
(1.41865 0.233894 -1.25606e-23)
(1.53274 0.173959 8.03135e-21)
(1.20395 0.0313405 5.48288e-20)
(0.481644 -0.0737556 -8.0217e-20)
(0.193097 -0.028203 5.03824e-20)
(0.234392 -0.0473481 -2.05958e-20)
(0.117458 -0.00986642 0)
(0.158867 -0.0225087 1.47633e-23)
(0.0612894 -0.013442 3.95477e-23)
(0.0335116 -0.00828365 5.64983e-22)
(0.0333253 -0.00815623 -5.55796e-22)
(0.136081 -0.0340564 5.52026e-22)
(0.266634 -0.0687792 -2.37029e-21)
(0.446798 -0.117625 1.25324e-21)
(0.263164 -0.0676982 -1.73301e-23)
(0.134008 -0.0334962 5.50034e-22)
(0.0328032 -0.00801903 -5.37934e-22)
(0.0329279 -0.00812844 -2.11607e-24)
(0.654163 -0.179195 -4.32328e-21)
(0.817689 -0.230366 7.29662e-24)
(0.936191 -0.269128 -2.87874e-24)
(1.01223 -0.295191 0)
(1.04997 -0.309648 -2.49901e-21)
(1.05323 -0.3137 -2.31889e-21)
(1.02415 -0.308045 -4.09093e-24)
(0.963203 -0.292897 -3.87528e-24)
(0.870787 -0.26822 1.86587e-24)
(0.74904 -0.234215 -3.85286e-21)
(0.60274 -0.19172 -3.98351e-21)
(0.438921 -0.142291 1.90822e-24)
(0.265322 -0.087764 1.74287e-25)
(0.0885303 -0.0297905 -3.69504e-24)
(1.00032 -0.00392319 -7.94313e-21)
(1.00561 -0.00678835 0)
(1.01768 -0.00268083 7.89329e-25)
(1.03738 0.00919747 3.63601e-23)
(1.06551 0.0297988 3.22241e-24)
(1.1044 0.0602282 0)
(1.15809 0.0996627 1.56256e-24)
(1.23673 0.148775 3.0744e-22)
(1.36403 0.182376 7.45361e-21)
(1.51277 0.156241 5.897e-20)
(1.46817 0.066956 0)
(0.997573 -0.043716 5.79802e-20)
(0.400207 -0.0724696 -2.07028e-20)
(0.182412 -0.0368779 -2.71764e-22)
(0.170319 -0.0456824 4.78992e-21)
(0.0627303 -0.0089979 -1.99018e-22)
(0.0667449 -0.014579 -1.24518e-20)
(0.0775615 -0.0152627 1.30789e-20)
(0.0821557 -0.0233041 1.33542e-20)
(0.0227576 -0.0048053 0)
(0.0371051 -0.00979613 -9.51275e-21)
(0.0324132 -0.00800496 -5.27358e-22)
(0.0322976 -0.00790371 -5.18595e-22)
(0.13189 -0.0330504 1.56889e-21)
(0.259573 -0.067285 -2.2453e-21)
(0.435325 -0.114217 6.11441e-21)
(0.257544 -0.0656745 -1.90511e-21)
(0.129765 -0.0325867 0)
(0.0318361 -0.0077832 1.9757e-24)
(0.0319414 -0.00788768 -1.02056e-21)
(0.639051 -0.174209 -4.08146e-21)
(0.80194 -0.224679 -3.31394e-21)
(0.922454 -0.263633 2.88671e-24)
(1.00179 -0.290779 -4.8088e-24)
(1.04254 -0.306555 -3.23045e-25)
(1.04779 -0.311514 2.15028e-21)
(1.01958 -0.30635 4.0857e-24)
(0.958752 -0.291413 3.87031e-24)
(0.866194 -0.266801 1.84756e-21)
(0.74443 -0.232831 3.55081e-21)
(0.598499 -0.190439 0)
(0.4355 -0.141228 -1.91027e-24)
(0.263085 -0.0870446 2.04331e-24)
(0.0877292 -0.0295335 -3.57519e-21)
(1.00025 -0.00520843 0)
(1.00533 -0.0110396 2.01366e-24)
(1.01707 -0.0103927 0)
(1.03634 -0.00245592 5.86374e-21)
(1.0638 0.013631 4.26408e-21)
(1.10111 0.0385187 -4.2399e-24)
(1.15139 0.0711799 0)
(1.22122 0.110166 3.16137e-21)
(1.32298 0.139071 -1.45061e-20)
(1.45426 0.128478 -2.75523e-20)
(1.53201 0.0741475 6.55301e-23)
(1.35078 -0.0111159 0)
(0.846143 -0.081708 -1.22174e-22)
(0.355702 -0.066502 -8.15265e-20)
(0.169888 -0.0309402 -5.66661e-22)
(0.17474 -0.0401727 3.27267e-20)
(0.0910312 -0.0191915 -1.57621e-22)
(0.0868464 -0.0208648 0)
(0.0751209 -0.0175336 -5.7255e-21)
(0.0615744 -0.0204236 0)
(0.0110329 -0.00224964 8.17524e-21)
(0.0134446 -0.00391401 0)
(0.0168845 -0.00430952 -6.47908e-23)
(0.0144809 -0.00637338 -8.31623e-21)
(0.0314692 -0.00777684 4.89843e-22)
(0.0313551 -0.00767607 -4.83434e-22)
(0.127861 -0.032333 2.36706e-21)
(0.252897 -0.064442 -4.63251e-22)
(0.424526 -0.111153 5.69361e-21)
(0.250251 -0.0635235 -2.27132e-21)
(0.157844 -0.0419623 0)
(0.158038 -0.040826 5.81847e-22)
(0.0308372 -0.00757061 -1.81467e-24)
(0.0309777 -0.00765804 -4.73233e-22)
(0.623866 -0.169356 3.81266e-21)
(0.785729 -0.218889 0)
(0.908523 -0.258192 0)
(0.991293 -0.286745 4.82009e-24)
(1.03505 -0.303628 -2.17069e-21)
(1.04218 -0.309335 1.99538e-21)
(1.0148 -0.304622 0)
(0.954149 -0.289903 -1.73998e-21)
(0.861545 -0.265372 0)
(0.739858 -0.231455 0)
(0.59435 -0.189179 0)
(0.432176 -0.140193 -3.53181e-21)
(0.260923 -0.0863501 3.61799e-21)
(0.0869576 -0.0292867 -3.15665e-24)
(1.00019 -0.00640134 0)
(1.005 -0.0150771 -3.98746e-24)
(1.01634 -0.0178311 3.39851e-24)
(1.03514 -0.0137621 0)
(1.06196 -0.00195671 -8.7948e-21)
(1.09785 0.0180467 2.38808e-21)
(1.14492 0.0451548 1.07949e-24)
(1.20755 0.0770198 0)
(1.29268 0.102405 6.96318e-21)
(1.39957 0.0999868 -1.17334e-23)
(1.50253 0.065746 0)
(1.49906 0.00632324 -1.37671e-22)
(1.22917 -0.0647657 -4.32461e-20)
(0.742739 -0.0969133 6.21138e-20)
(0.33483 -0.0642841 -9.66427e-20)
(0.15683 -0.0294594 3.39846e-20)
(0.157633 -0.0352323 -1.32932e-22)
(0.0619097 -0.0132312 -6.96191e-21)
(0.0897463 -0.0206824 -1.03366e-20)
(0.0896228 -0.0226739 1.01629e-20)
(0.0434252 -0.0101303 -1.36277e-22)
(0.0412794 -0.00929194 0)
(0.0250334 -0.00336778 3.91835e-21)
(0.0119789 -0.00408144 -8.65804e-21)
(0.0305153 -0.0075456 -4.63224e-22)
(0.0302924 -0.00756533 -4.53047e-22)
(0.0936321 -0.0252197 -6.25312e-22)
(0.156909 -0.039774 5.90359e-22)
(0.156386 -0.0392598 0)
(0.247131 -0.0630522 3.46459e-24)
(0.413419 -0.108028 -1.01167e-21)
(0.244577 -0.0621628 -1.6946e-21)
(0.155545 -0.0390394 5.73465e-22)
(0.154886 -0.0387799 5.69202e-22)
(0.0937846 -0.0241288 -1.04387e-21)
(0.607357 -0.164188 0)
(0.768839 -0.21268 0)
(0.894779 -0.253408 0)
(0.981117 -0.283036 8.40649e-24)
(1.02758 -0.300772 -2.00572e-21)
(1.03638 -0.307147 0)
(1.00982 -0.302869 0)
(0.949429 -0.288371 0)
(0.856868 -0.263933 0)
(0.735335 -0.230089 0)
(0.59029 -0.187945 6.18411e-21)
(0.428943 -0.139187 -1.50615e-24)
(0.258835 -0.085682 -3.50668e-21)
(0.0862193 -0.0290488 3.0668e-21)
(1.00013 -0.00747928 4.436e-24)
(1.00459 -0.0188521 8.41722e-24)
(1.01545 -0.0249546 3.9873e-24)
(1.03378 -0.0247268 -3.37394e-24)
(1.06004 -0.01707 9.24743e-21)
(1.09477 -0.00148959 -5.01386e-21)
(1.13913 0.0209846 0)
(1.19583 0.0476579 0)
(1.26916 0.0703834 -5.5835e-21)
(1.3577 0.073423 0)
(1.45095 0.0512477 -1.24131e-20)
(1.5152 0.0102068 0)
(1.44047 -0.0468116 3.85016e-20)
(1.12215 -0.0973418 -8.77889e-23)
(0.67432 -0.101578 6.18576e-20)
(0.32011 -0.0628937 -3.71184e-20)
(0.161347 -0.031891 -7.23313e-22)
(0.157425 -0.0350634 6.34729e-20)
(0.0582741 -0.0133202 -2.94522e-20)
(0.0568274 -0.0135576 7.19054e-21)
(0.0112269 -0.00239514 6.55135e-21)
(0.0449399 -0.0113237 -1.64598e-22)
(0.0113656 -0.00353041 0)
(0.0446761 -0.0115816 -8.5898e-21)
(0.0106324 -0.00302344 -6.13499e-21)
(0.010751 -0.0030573 -6.06728e-21)
(0.00640339 -0.000861576 4.67193e-21)
(0.0305752 -0.0079424 4.37896e-22)
(0.0921408 -0.0231682 2.02901e-24)
(0.0915658 -0.0227837 -5.18909e-22)
(0.153951 -0.0387025 5.55677e-22)
(0.153286 -0.0384884 5.44827e-22)
(0.241417 -0.061584 0)
(0.399913 -0.104375 -1.05774e-21)
(0.238348 -0.0605062 1.57347e-21)
(0.152367 -0.0383303 5.18278e-25)
(0.15163 -0.0380389 -5.19056e-25)
(0.0911259 -0.0226354 -1.01805e-21)
(0.0907396 -0.0225124 -5.07743e-22)
(0.0305447 -0.00767876 3.87184e-22)
(0.58799 -0.157516 0)
(0.752303 -0.207531 0)
(0.882049 -0.249157 8.94021e-24)
(0.971383 -0.279498 2.06118e-21)
(1.0201 -0.297971 0)
(1.03043 -0.304964 3.19998e-24)
(1.00469 -0.301095 0)
(0.944618 -0.286817 1.50881e-21)
(0.852185 -0.26249 -1.46007e-21)
(0.730873 -0.228739 -2.79841e-21)
(0.586327 -0.186739 2.91327e-21)
(0.425804 -0.138212 2.89739e-21)
(0.25682 -0.0850358 -3.08394e-21)
(0.0855045 -0.028818 -2.58747e-24)
(1.00007 -0.00841259 0)