/*--------------------------------*- C++ -*----------------------------------*\
| =========                 |                                                 |
| \\      /  F ield         | OpenFOAM: The Open Source CFD Toolbox           |
|  \\    /   O peration     | Version:  v1912                                 |
|   \\  /    A nd           | Website:  www.openfoam.com                      |
|    \\/     M anipulation  |                                                 |
\*---------------------------------------------------------------------------*/
FoamFile
{
    version     2.0;
    format      ascii;
    class       volScalarField;
    location    "320";
    object      p;
}
// * * * * * * * * * * * * * * * * * * * * * * * * * * * * * * * * * * * * * //

dimensions      [0 2 -2 0 0 0 0];


internalField   nonuniform List<scalar> 
3675
(
0.00183526
0.00208633
0.00165969
0.00190443
0.00150722
0.00214879
0.00174225
0.00136283
0.00236187
0.00197948
0.00159225
0.00123045
0.002551
0.00218994
0.00182171
0.00145365
0.00111111
0.00270538
0.00237993
0.00202641
0.00168212
0.00133002
0.000996277
0.00281338
0.00253517
0.00221515
0.00188535
0.00155086
0.00120978
0.00089221
0.00286014
0.00264469
0.00237352
0.00206706
0.00174518
0.0014238
0.00110083
0.00079673
0.00283869
0.00269737
0.00248892
0.00222262
0.00192574
0.00161689
0.00131216
0.00100213
0.000705962
0.00275092
0.0026879
0.00255494
0.00234437
0.00208056
0.00179397
0.00150078
0.00120719
0.000904791
0.000626894
0.00260686
0.00260873
0.00256506
0.00242012
0.00219751
0.00194359
0.00167136
0.00139072
0.00110841
0.000821869
0.000552005
0.00242694
0.00246085
0.00251635
0.00244789
0.00227433
0.00205885
0.00181664
0.00155895
0.00128951
0.00101914
0.000742845
0.000484843
0.00226441
0.0022353
0.00241417
0.00243391
0.00230721
0.00212908
0.00192464
0.0016968
0.00144986
0.00119174
0.000937211
0.000670671
0.000418078
0.00219167
0.0019374
0.00225613
0.00238477
0.00229532
0.0021506
0.00198865
0.0017989
0.00158604
0.00135164
0.00111049
0.000860427
0.000602731
0.000362619
0.0022137
0.00166528
0.00195633
0.0020046
0.00231756
0.0022445
0.00212533
0.0020035
0.00185803
0.00168772
0.00148408
0.00126288
0.00102516
0.000787542
0.000543028
0.000312169
0.00222701
0.00209561
0.00183606
0.00167561
0.00136573
0.00197071
0.00222814
0.00216063
0.00205106
0.00196695
0.00186785
0.00174158
0.0015763
0.00138599
0.00117384
0.00095114
0.00072381
0.000487223
0.000269039
0.0021549
0.00204378
0.00191499
0.0018825
0.00138033
0.00206347
0.00182552
0.00129871
0.00180006
0.00194897
0.00205494
0.00193253
0.001884
0.00182798
0.00174606
0.00162595
0.00147562
0.0012964
0.00109698
0.000883227
0.000665972
0.000441195
0.000231292
0.00202014
0.0021435
0.00196441
0.00187501
0.0019109
0.00172101
0.000926559
0.00185912
0.00188938
0.00180682
0.00178904
0.00111873
0.00179925
0.00177472
0.00184834
0.00178392
0.00176184
0.0017445
0.00170159
0.00162789
0.00152158
0.00138286
0.00121375
0.00102295
0.000822604
0.000614863
0.000399465
0.000199698
0.00198338
0.00207519
0.00189981
0.00184275
0.00179465
0.0018113
0.000280277
0.00141913
0.00181284
0.00163583
0.00161878
0.00162586
0.00164065
0.00181576
0.00173717
0.00252372
0.00201112
0.00171345
0.00178807
0.00160627
0.00162275
0.001614
0.00158163
0.00151879
0.00142457
0.00129392
0.00113668
0.000958561
0.000761775
0.000570062
0.000364358
0.000175559
0.00195304
0.00202203
0.00167963
0.00170811
-0.0010329
0.00285345
0.00163872
0.00163834
0.00153185
0.00147269
0.00144099
0.00144944
0.00148863
0.00152819
0.00151086
0.00174226
0.00204627
0.00225255
0.00166552
0.00147123
0.0014909
0.00149084
0.00146814
0.00141919
0.001332
0.00121185
0.00106279
0.000891866
0.000717709
0.000530951
0.000336593
0.00015611
-0.00354201
0.00158475
0.0015384
0.00145386
0.00145447
0.00139705
0.00132828
0.00130427
0.0012909
0.00133939
0.00140423
0.00140937
0.00146365
0.00148746
0.00134121
0.00136401
0.00137776
0.00136839
0.00132458
0.00124633
0.00113408
0.000994557
0.000843162
0.000672323
0.000498136
0.000313286
0.000145091
0.00141628
0.00140729
0.00133792
0.00131912
0.0012478
0.00119172
0.00117303
0.0011517
0.0011889
0.00125359
0.00127583
0.00134959
0.00138438
0.00121709
0.00125585
0.00127718
0.00127287
0.00123618
0.0011643
0.00106122
0.000937675
0.000792791
0.000637979
0.000474752
0.000300053
0.000135942
0.00129962
0.00127843
0.00119428
0.00116699
0.00110929
0.00106063
0.00105238
0.00102021
0.00105269
0.0011025
0.00113035
0.00120117
0.00124809
0.00111021
0.00115249
0.00117963
0.00118328
0.00115101
0.00108564
0.000994827
0.000882242
0.000753967
0.000607893
0.000455397
0.000289063
0.000139401
0.00115355
0.00112678
0.00105186
0.0010234
0.00097546
0.000943158
0.000945807
0.000898159
0.000923933
0.000964671
0.000991412
0.00105087
0.00109852
0.00100337
0.00105716
0.00109134
0.00109448
0.0010683
0.00101179
0.000931277
0.000833639
0.000715368
0.000584182
0.000441816
0.00028513
0.000145088
0.00100787
0.000985324
0.000918294
0.000891294
0.000854892
0.000832695
0.000840965
0.000792118
0.000806668
0.000836769
0.000862855
0.000913102
0.000954878
0.000910381
0.000968673
0.00100346
0.00101476
0.000990234
0.00094096
0.00087469
0.000791514
0.000691461
0.000569685
0.000434555
0.000291254
0.00016063
0.000873556
0.000853456
0.000797081
0.000769552
0.000743196
0.000728661
0.000748165
0.00068987
0.000699392
0.000719796
0.000748279
0.000785905
0.000825779
0.000819559
0.000882354
0.000924898
0.000930518
0.000910582
0.000875017
0.000827003
0.000760717
0.000670352
0.000559722
0.000436601
0.000301754
0.000172102
0.000751012
0.000732346
0.00068434
0.000658449
0.000640852
0.00063518
0.000657598
0.00059684
0.000599048
0.000614625
0.000638828
0.000666721
0.000712907
0.000738352
0.000802455
0.000837873
0.000846635
0.000834368
0.000814666
0.000786564
0.000736157
0.000657924
0.000554587
0.000441353
0.000307963
0.000196087
0.000640816
0.000619637
0.000579081
0.000562788
0.000546589
0.000547707
0.000575904
0.0005084
0.000507501
0.000516983
0.000536963
0.000562663
0.000603432
0.000657587
0.00072194
0.000759097
0.000761923
0.000761249
0.000763846
0.000756702
0.000719788
0.000646923
0.000555774
0.000448182
0.000331828
0.000224409
0.000537747
0.000523473
0.000484127
0.000468808
0.000459473
0.000467233
0.000497408
0.000425567
0.000421602
0.000427694
0.000445491
0.000470519
0.000496831
0.000584126
0.000646556
0.000666538
0.000674562
0.000696293
0.000727601
0.000736627
0.000706214
0.000645234
0.00055805
0.000468645
0.000355043
0.000259241
0.000441637
0.000429779
0.000395373
0.000383485
0.000378338
0.000394784
0.000426011
0.00034407
0.000342216
0.000343781
0.000360801
0.000382122
0.000405819
0.000509557
0.000556265
0.000568997
0.000591284
0.00064788
0.000706859
0.000723012
0.000695971
0.000642248
0.000572945
0.000483827
0.00038894
0.000301129
0.000352812
0.000344983
0.000315404
0.000301622
0.000302454
0.000323732
0.000352224
0.000268358
0.000264653
0.000266584
0.000283928
0.000298327
0.000321699
0.000432263
0.00046073
0.000464336
0.000524038
0.000626501
0.00069387
0.000708422
0.000688649
0.000644912
0.000583299
0.00051449
0.000424647
0.000346651
0.000274122
0.000262369
0.000238381
0.000230013
0.000232833
0.00025415
0.000285731
0.00019567
0.000189752
0.000191653
0.000205297
0.000222076
0.000245897
0.00034926
0.000336035
0.000366424
0.000498806
0.000620832
0.00068161
0.000694705
0.000680895
0.000650376
0.000604246
0.000545486
0.000468569
0.000404796
0.000194963
0.0002011
0.000166298
0.000159672
0.000163483
0.000186262
0.00021462
0.000119765
0.000118419
0.000119866
0.000135054
0.000147115
0.000161953
0.000232034
0.000202142
0.000325016
0.000506677
0.000620011
0.000660609
0.000674165
0.000676456
0.00066154
0.000632553
0.000586866
0.000521668
0.000471334
0.000122998
0.000130592
0.000100651
8.71667e-05
9.33607e-05
0.000119384
0.00013402
3.9212e-05
4.87644e-05
4.82311e-05
6.9109e-05
7.69568e-05
9.28196e-05
7.90698e-05
0.000104641
0.000356176
0.00053289
0.000595953
0.000627503
0.00065638
0.000673634
0.000679992
0.0006643
0.000635052
0.000583106
0.000548277
5.96519e-05
5.66053e-05
3.12167e-05
1.90966e-05
2.25717e-05
5.70839e-05
2.99288e-05
-5.07669e-05
-3.10661e-05
-2.24948e-05
2.96279e-07
5.87355e-06
2.95822e-05
-0.000138725
0.000158565
0.000433783
0.000512099
0.000548091
0.000593855
0.000639386
0.000679589
0.000702258
0.000706901
0.000687409
0.000657179
0.000636012
-1.02943e-05
-8.53952e-06
-3.67877e-05
-5.35181e-05
-4.63671e-05
-1.0544e-05
-0.000282441
-0.000143099
-0.000108498
-0.000100762
-7.04068e-05
-6.22112e-05
-3.93065e-05
-0.000134389
0.000336092
0.000417844
0.000443611
0.000496599
0.000561661
0.000628716
0.000686358
0.000730028
0.000747999
0.000762494
0.000739379
0.000736176
-7.87055e-05
-8.02482e-05
-0.000105209
-0.000133968
-0.000121452
-0.000126
-0.000504977
-0.000470306
-0.000168538
-0.000188092
-0.000145506
-0.000136343
-0.000107585
0.000242552
0.000326719
0.000324751
0.000374724
0.00044854
0.00053254
0.000618742
0.000698605
0.000763013
0.000814242
0.000832064
0.000836145
0.000849696
-0.000152665
-0.000154888
-0.000186985
-0.000229693
-0.000105031
-0.000812964
0.000115496
-0.000371515
-0.000200097
-0.000293098
-0.000217892
-0.000221385
-0.000185535
0.000238573
0.000189336
0.000235508
0.000311197
0.000401703
0.000505279
0.000614069
0.000718825
0.000810382
0.000873807
0.000928364
0.000940251
0.000970792
-0.000231714
-0.000254699
-0.000215369
-0.000293267
-0.00142909
-2.32122e-05
0.000103387
-4.09986e-05
-0.00047605
-1.29991e-05
-8.97229e-05
-0.000330776
-0.000277616
4.67758e-05
8.51601e-05
0.000161675
0.000251727
0.000358401
0.000479577
0.00061129
0.000743162
0.000859121
0.000959094
0.00101848
0.00106086
0.00111802
-0.00031601
-0.000354561
0.000365088
-0.00227913
-1.12511e-05
-0.000168971
-9.3897e-05
-0.000141097
-0.000183054
-6.66973e-05
0.000551611
-0.000150288
-0.000286617
-6.90522e-05
1.20573e-05
9.58692e-05
0.000193267
0.000311566
0.000455315
0.000613732
0.000774817
0.000922394
0.00104159
0.00113833
0.00119923
0.00127825
7.55505e-05
-0.00450106
-0.000173638
-0.000212739
-0.000261822
-0.000231109
-0.000205743
-0.00022318
-0.000256684
-0.00029451
-0.000332905
-0.000135461
-5.72621e-05
2.45427e-05
0.000130324
0.000267651
0.000434721
0.000622631
0.000815074
0.000995707
0.00114357
0.00126826
0.00135206
0.00145341
-0.000322456
-0.0003034
-0.000285329
-0.000296624
-0.000273401
-0.000300984
-0.000307958
-0.000302724
-0.000316516
-0.000202621
-0.00013358
-4.68164e-05
7.0719e-05
0.000223975
0.000414944
0.000634408
0.000862579
0.00107311
0.00126335
0.00141023
0.00152293
0.00165364
-0.000321352
-0.000325951
-0.000349859
-0.000363002
-0.000342758
-0.000374267
-0.000380393
-0.000351463
-0.000353461
-0.000277776
-0.000209885
-0.000120069
5.20782e-06
0.00017764
0.000398277
0.000653073
0.000916897
0.00117164
0.00139098
0.00157561
0.00171899
0.00187181
-0.000379999
-0.000395555
-0.000418853
-0.000427845
-0.000411721
-0.000447956
-0.000451387
-0.000433345
-0.000422667
-0.000356932
-0.000290267
-0.000197658
-6.27747e-05
0.00013265
0.000385833
0.000677129
0.000984866
0.00128505
0.00153891
0.001764
0.0019269
0.00210773
-0.000453926
-0.000468252
-0.00048908
-0.000495042
-0.000488645
-0.00051966
-0.000519374
-0.000503339
-0.000493879
-0.000434627
-0.000372123
-0.000280807
-0.000131963
8.89927e-05
0.000375553
0.000712035
0.00106927
0.00140375
0.00171032
0.00195519
0.00216945
0.00236727
-0.000524623
-0.000539178
-0.000554675
-0.000567955
-0.000563671
-0.000593773
-0.000589354
-0.000575888
-0.000558102
-0.000518417
-0.000466346
-0.000372142
-0.000204043
4.41617e-05
0.000371743
0.000753646
0.00115299
0.00154093
0.00188631
0.00219228
0.0024364
0.00268957
-0.000592872
-0.000607058
-0.00062542
-0.000639644
-0.000643735
-0.000671533
-0.000661942
-0.000641903
-0.000628299
-0.000613769
-0.000569988
-0.000468261
-0.000280017
2.95065e-06
0.000371529
0.000801751
0.0012548
0.00170005
0.00209841
0.00245565
0.00275586
0.00303931
-0.000656084
-0.000675215
-0.000698191
-0.00071471
-0.00073168
-0.000746646
-0.000735898
-0.000713743
-0.000697841
-0.000720844
-0.000681915
-0.000564987
-0.000352437
-3.58419e-05
0.000376926
0.000860961
0.00137846
0.00187116
0.0023432
0.00273212
0.00329106
0.00126888
-0.000732956
-0.000748536
-0.000772072
-0.000790685
-0.000834117
-0.000828249
-0.000808004
-0.000785293
-0.000771018
-0.000846307
-0.000802839
-0.000662051
-0.000426041
-7.57408e-05
0.000386562
0.000931155
0.00150367
0.00208334
0.00256071
0.00333817
0.00148004
-0.000805156
-0.000821092
-0.00084721
-0.000874782
-0.000961476
-0.000918878
-0.000884329
-0.000856544
-0.000842956
-0.000989677
-0.0009114
-0.000762942
-0.000506823
-0.000115186
0.000403885
0.00100759
0.0016647
0.00224085
0.00312461
0.00153984
-0.000881027
-0.000898448
-0.000919066
-0.000981488
-0.0011025
-0.00112223
-0.000950087
-0.000938213
-0.0009178
-0.00110535
-0.00102192
-0.000871699
-0.000588897
-0.000149577
0.000425005
0.00111009
0.0017629
0.00272521
0.00139607
-0.000957716
-0.000978607
-0.000948606
-0.0014337
-0.00124048
-0.00114747
-0.000927783
-0.00102177
-0.000998525
-0.00120704
-0.0011487
-0.000990573
-0.000671449
-0.000184219
0.000465942
0.00115692
0.0021569
0.00112602
-0.00104393
-0.00107187
-0.00373005
-0.00213102
-0.00122996
-0.00133584
-0.00131716
-0.00156685
-0.00141114
-0.00114475
0.00138211
-0.00110746
-0.00133923
-0.00129418
-0.00111474
-0.000756505
-0.000205782
0.000463424
0.00144297
0.000771071
-0.000969029
-0.00137003
-0.00134534
-0.00136617
-0.00146152
-0.00142379
-0.00136086
-0.00135879
-0.0013699
-0.00138611
-0.000694104
-0.00149793
-0.00144884
-0.00124118
-0.000835837
-0.000251943
0.000631539
0.000360632
-0.0012869
-0.00138134
-0.00138273
-0.00138277
-0.00140245
-0.00148434
-0.0016185
-0.00155765
-0.00143639
-0.00145829
-0.00138212
-0.00138783
-0.0014519
-0.00144501
-0.00167176
-0.00160991
-0.00137028
-0.000919317
-0.000204236
-6.54201e-05
-0.00142089
-0.00141269
-0.00140234
-0.00142368
-0.00149464
-0.00152382
-0.00162771
-0.00179778
-0.00171255
-0.00156073
-0.00159945
-0.00144895
-0.00147792
-0.00140047
-0.00140585
-0.00185581
-0.0017795
-0.00148379
-0.000987569
-0.000472536
-0.00141406
-0.00143953
-0.00151109
-0.00154063
-0.00162805
-0.00167159
-0.00179069
-0.00199322
-0.00188942
-0.00170863
-0.00175347
-0.00158015
-0.0016131
-0.00145806
-0.00149084
-0.0020593
-0.00192036
-0.00165641
-0.000827525
-0.0015222
-0.00155457
-0.00164367
-0.00168681
-0.00178499
-0.00183351
-0.00197362
-0.00222139
-0.00208443
-0.00187798
-0.00192312
-0.00172468
-0.0017638
-0.0015902
-0.00162429
-0.00223829
-0.00217982
-0.00110885
-0.00165629
-0.00169556
-0.00180185
-0.00184276
-0.00196243
-0.00201566
-0.00218591
-0.00245321
-0.00231914
-0.0020669
-0.00211439
-0.00188917
-0.0019311
-0.00173475
-0.00177224
-0.00257333
-0.00131377
-0.00181017
-0.0018478
-0.00197661
-0.00202281
-0.00216504
-0.00222168
-0.00241727
-0.00290552
-0.00254685
-0.00228425
-0.00234078
-0.00207044
-0.00212044
-0.00190008
-0.00193718
-0.00145387
-0.00198182
-0.00202679
-0.00217224
-0.00222557
-0.00239555
-0.00245969
-0.00272514
-0.00167783
-0.00302171
-0.00251551
-0.0025791
-0.00228263
-0.00233828
-0.00207612
-0.00211918
-0.00217129
-0.00222498
-0.00239726
-0.00245617
-0.00265242
-0.00274381
-0.00319848
-0.00159295
-0.0028721
-0.00298377
-0.00251451
-0.00257899
-0.00228112
-0.00233471
-0.00239062
-0.00244659
-0.00265684
-0.00274622
-0.00310442
-0.00335461
-0.00330691
-0.00136708
-0.00285153
-0.00295461
-0.00250482
-0.0025636
-0.00263617
-0.00272439
-0.00307035
-0.00336893
-0.00363142
-0.00133993
-0.00282391
-0.00293667
-0.0030544
-0.0033482
-0.00393252
-0.0016451
-0.018791
-0.0178221
-0.0186739
-0.0179363
-0.0175161
-0.0185013
-0.0186991
-0.0176097
-0.017169
-0.0183052
-0.019193
-0.0175906
-0.0191457
-0.0172474
-0.0167894
-0.0198377
-0.0185819
-0.0167222
-0.0199308
-0.0168333
-0.0195622
-0.0168925
-0.0164181
-0.0213856
-0.0201427
-0.0188632
-0.017043
-0.0151996
-0.0160766
-0.0207431
-0.0199806
-0.0165142
-0.0160629
-0.0229665
-0.0217335
-0.0215473
-0.020433
-0.019127
-0.017328
-0.0155253
-0.0137169
-0.0145855
-0.0153344
-0.0157692
-0.0161522
-0.0204175
-0.0208295
-0.0156805
-0.0244638
-0.0233479
-0.0223567
-0.023168
-0.0220357
-0.0212126
-0.0216
-0.0206977
-0.0193648
-0.0175885
-0.0158143
-0.0140356
-0.0122587
-0.0131117
-0.0138512
-0.0142759
-0.0146541
-0.0150197
-0.0153931
-0.0152852
-0.0249945
-0.0239668
-0.0248089
-0.0256214
-0.0257718
-0.0236613
-0.0220192
-0.0224357
-0.0228246
-0.0232223
-0.0222991
-0.0209361
-0.0195785
-0.0178238
-0.0160747
-0.0143253
-0.0125744
-0.0108198
-0.0116572
-0.0123858
-0.0128027
-0.0131745
-0.013536
-0.0139029
-0.0141828
-0.0145608
-0.0149174
-0.0267044
-0.0253233
-0.0236407
-0.0240647
-0.0255805
-0.0244776
-0.0249005
-0.0266158
-0.0267695
-0.0239262
-0.0225382
-0.0211525
-0.0197684
-0.0180331
-0.0163083
-0.0145858
-0.012864
-0.0111372
-0.00939772
-0.01022
-0.0109393
-0.0113496
-0.0117165
-0.0120729
-0.0124344
-0.0127091
-0.0130812
-0.013433
-0.0137946
-0.028411
-0.0270115
-0.0255865
-0.0253191
-0.0257399
-0.0259001
-0.0264327
-0.0267496
-0.0274816
-0.027666
-0.0241703
-0.0227562
-0.0213488
-0.0199326
-0.0182155
-0.0165143
-0.0148183
-0.0131228
-0.0114288
-0.00972172
-0.00798887
-0.00879586
-0.0095077
-0.00991328
-0.0102759
-0.010629
-0.010985
-0.0112559
-0.0116234
-0.0119706
-0.0123273
-0.0301737
-0.0287211
-0.0285692
-0.0272785
-0.0258338
-0.0260828
-0.0265614
-0.0271553
-0.0283755
-0.0275879
-0.0243951
-0.0229558
-0.0215222
-0.0200685
-0.0183703
-0.0166926
-0.0150219
-0.0133521
-0.0116868
-0.0100176
-0.00832425
-0.00659745
-0.00737855
-0.00808466
-0.008488
-0.00884748
-0.00919835
-0.00955098
-0.00981877
-0.0101824
-0.0105279
-0.0108784
-0.0319891
-0.0304893
-0.0294552
-0.0303587
-0.0290052
-0.0275326
-0.0260627
-0.0265124
-0.0270366
-0.0284661
-0.0292676
-0.0280206
-0.0274849
-0.0245993
-0.0231383
-0.0216664
-0.0201686
-0.0184971
-0.0168399
-0.0151934
-0.0135485
-0.0119096
-0.0102741
-0.00862541
-0.00694085
-0.00524324
-0.00595967
-0.006663
-0.00706682
-0.00742467
-0.00777468
-0.00812506
-0.00839107
-0.00875264
-0.00909652
-0.00944476
-0.0338319
-0.0322972
-0.0312592
-0.0321805
-0.0307771
-0.0301657
-0.0292668
-0.0277674
-0.026275
-0.0269453
-0.0289145
-0.0283724
-0.0293667
-0.0279256
-0.0273798
-0.024787
-0.0232933
-0.0217772
-0.0202243
-0.018583
-0.0169519
-0.015334
-0.0137124
-0.0120958
-0.0104875
-0.00887855
-0.0072441
-0.00556488
-0.00390813
-0.0046116
-0.00524496
-0.0056402
-0.00599763
-0.00635129
-0.00670045
-0.00696543
-0.00732632
-0.00767061
-0.00801767
-0.0357127
-0.0341361
-0.0330926
-0.0340376
-0.0325843
-0.0310644
-0.0319805
-0.03104
-0.0302564
-0.0298033
-0.0295072
-0.0279861
-0.0264672
-0.0288199
-0.0282626
-0.0292692
-0.0278238
-0.0249483
-0.0234146
-0.0218434
-0.0202292
-0.0186251
-0.0170259
-0.0154373
-0.0138424
-0.0122476
-0.0106605
-0.00908008
-0.00749185
-0.0058602
-0.0041979
-0.00255637
-0.00325324
-0.00394498
-0.00426399
-0.0045594
-0.00490219
-0.00525634
-0.00552851
-0.00589459
-0.00624159
-0.00659178
-0.0376309
-0.0360238
-0.0349641
-0.0359164
-0.0344256
-0.0329125
-0.0338879
-0.0328496
-0.0307069
-0.0311647
-0.0320644
-0.031603
-0.0312837
-0.0301616
-0.0297117
-0.0297284
-0.0281839
-0.0266385
-0.0287138
-0.0291576
-0.0250789
-0.023492
-0.021859
-0.0201806
-0.0186193
-0.0170578
-0.0155021
-0.0139354
-0.0123606
-0.010791
-0.00923165
-0.00767635
-0.00609723
-0.00446661
-0.00281592
-0.00128275
-0.00199092
-0.00257137
-0.00289302
-0.00322073
-0.00355765
-0.00399561
-0.00395507
-0.00436599
-0.00475546
-0.00513682
-0.0395823
-0.037957
-0.0368697
-0.0378482
-0.0363144
-0.0347992
-0.0357153
-0.0346938
-0.0325169
-0.0329903
-0.0340156
-0.0334455
-0.0330944
-0.030612
-0.0310647
-0.0319578
-0.0315073
-0.0315087
-0.0300507
-0.0296082
-0.0299328
-0.0283605
-0.0267763
-0.0251664
-0.0235167
-0.0218204
-0.0200869
-0.0185639
-0.0170424
-0.0155228
-0.0139896
-0.0124395
-0.0108845
-0.00933801
-0.00780073
-0.00625916
-0.00467608
-0.00302363
-0.00141356
-0.000269578
-0.000903722
-0.00139154
-0.00168106
-0.00196499
-0.00225628
-0.00255676
-0.00274778
-0.00303737
-0.00331163
-0.0040312
-0.0415797
-0.0399217
-0.0388189
-0.0398147
-0.0382502
-0.0366714
-0.0376453
-0.0365823
-0.0344042
-0.0348464
-0.0357934
-0.0353109
-0.0349413
-0.0324005
-0.0328351
-0.0340602
-0.0332491
-0.0333224
-0.030507
-0.030954
-0.0318496
-0.0314067
-0.0317168
-0.0301158
-0.0285064
-0.0268733
-0.0252033
-0.023488
-0.0217342
-0.0199556
-0.0184649
-0.0169779
-0.015496
-0.0139999
-0.01248
-0.0109438
-0.00940765
-0.00787662
-0.00635071
-0.00480177
-0.00317632
-0.00148868
-0.000337202
-5.22174e-05
-0.000445174
-0.000679864
-0.000891952
-0.001132
-0.00137993
-0.00155015
-0.00184143
-0.00212964
-0.00243035
-0.00262553
-0.00292377
-0.00321438
-0.00421638
-0.0436256
-0.0419272
-0.0408072
-0.0418213
-0.0402238
-0.0386246
-0.0396153
-0.0385167
-0.0362903
-0.0367746
-0.0377367
-0.0372518
-0.0368297
-0.0341563
-0.0346653
-0.0356722
-0.0351736
-0.0351711
-0.0322971
-0.0327221
-0.0341076
-0.0331204
-0.0335335
-0.0319045
-0.0302695
-0.0286128
-0.0269202
-0.0251853
-0.0234117
-0.0216095
-0.0197979
-0.0183302
-0.0168727
-0.0154221
-0.0139648
-0.0124805
-0.010969
-0.00944336
-0.00791231
-0.00638816
-0.0048482
-0.00325453
-0.00151681
-0.000384483
2.22006e-05
-0.000163417
-0.000321025
-0.000476515
-0.00056721
-0.000778356
-0.00100746
-0.00126115
-0.00140698
-0.00170036
-0.00199987
-0.00230304
-0.0457273
-0.0439798
-0.0428372
-0.0438718
-0.0422355
-0.0406131
-0.0416225
-0.0404943
-0.0382337
-0.0387266
-0.0397048
-0.0392101
-0.0387634
-0.0361739
-0.0366584
-0.0376203
-0.0371388
-0.0370628
-0.0353887
-0.0337278
-0.0320657
-0.0303839
-0.028671
-0.0269133
-0.0251192
-0.0232952
-0.0214574
-0.0196277
-0.0181701
-0.0167336
-0.0153089
-0.0138846
-0.0124367
-0.0109568
-0.00944973
-0.00792157
-0.00638802
-0.0048365
-0.00325984
-0.00148959
-0.000413188
4.3517e-05
-0.000132697
-0.000242904
-0.000380473
-0.000431046
-0.000636576
-0.000867363
-0.00111907
-0.0478818
-0.0460821
-0.0449127
-0.0459701
-0.0442933
-0.0426407
-0.0436699
-0.0425126
-0.0402115
-0.0407164
-0.0417147
-0.0412081
-0.040745
-0.0381177
-0.0386075
-0.0395853
-0.0390965
-0.0389985
-0.0372826
-0.0355877
-0.033898
-0.0321916
-0.0304526
-0.0286769
-0.0268595
-0.0250136
-0.0231502
-0.0212918
-0.0194571
-0.0179986
-0.0165703
-0.015164
-0.0137675
-0.0123545
-0.0109131
-0.00943099
-0.00791227
-0.00637117
-0.00479763
-0.00321646
-0.00140983
-0.000426585
6.74793e-05
-4.96991e-05
-0.000132034
-0.000253826
-0.0500564
-0.048222
-0.0470359
-0.0481251
-0.0463971
-0.0447088
-0.045758
-0.0445748
-0.0422319
-0.0427479
-0.0437672
-0.0432491
-0.0427679
-0.040094
-0.0405956
-0.0415932
-0.0410923
-0.0409816
-0.0392229
-0.0374904
-0.0357659
-0.0340332
-0.0322726
-0.0304712
-0.0286351
-0.0267657
-0.0248786
-0.0229913
-0.0211249
-0.0193052
-0.0178272
-0.0163972
-0.0149968
-0.0136192
-0.0122386
-0.0108332
-0.00938713
-0.00789039
-0.00634725
-0.00475235
-0.00315543
-0.00130074
-0.000424219
-0.0522985
-0.0503977
-0.049201
-0.0503208
-0.0485366
-0.0468159
-0.0478987
-0.046681
-0.0442955
-0.044824
-0.0458652
-0.0453352
-0.0448349
-0.0421133
-0.0426252
-0.0436451
-0.0431329
-0.0430089
-0.041208
-0.0394351
-0.0376782
-0.0359139
-0.0341276
-0.0323054
-0.0304447
-0.0285545
-0.0266427
-0.0247293
-0.0228308
-0.0209766
-0.0191947
-0.0176758
-0.0162251
-0.0148202
-0.0134511
-0.012095
-0.0107238
-0.00931415
-0.00784715
-0.00632236
-0.00471824
-0.0031013
-0.00119276
-0.000415137
-0.0545772
-0.0526482
-0.051424
-0.0525583
-0.0507181
-0.0490113
-0.0501693
-0.0488251
-0.0464019
-0.04694
-0.0479935
-0.0474565
-0.0469431
-0.0441769
-0.0447005
-0.0457437
-0.04522
-0.0450796
-0.043239
-0.0414256
-0.0396301
-0.037836
-0.0360215
-0.0341747
-0.0322934
-0.0303792
-0.0284445
-0.0265047
-0.0245773
-0.0226887
-0.0208688
-0.0191435
-0.017564
-0.0160723
-0.0146445
-0.0132741
-0.0119328
-0.0105908
-0.0092188
-0.00779306
-0.00629637
-0.00470197
-0.00308046
-0.00112401
-0.000418009
-0.0569074
-0.054947
-0.0536934
-0.0548561
-0.0529685
-0.0512022
-0.0523214
-0.0510124
-0.0485169
-0.049055
-0.050106
-0.049819
-0.0490904
-0.0462857
-0.0468202
-0.0478689
-0.0473445
-0.0471894
-0.0453142
-0.0434601
-0.0416292
-0.0397995
-0.0379569
-0.0360839
-0.0341784
-0.0322428
-0.030284
-0.0283192
-0.0263628
-0.0244431
-0.0225873
-0.0208214
-0.0191634
-0.0175097
-0.0159594
-0.0144894
-0.013099
-0.0117607
-0.0104401
-0.00910261
-0.0077184
-0.00626535
-0.00470008
-0.00309065
-0.00111766
-0.000448133
-0.0593037
-0.0572902
-0.0560128
-0.0571944
-0.0552727
-0.0534767
-0.0546316
-0.0532609
-0.0506888
-0.0512806
-0.0524312
-0.051855
-0.0512818
-0.0483906
-0.0488616
-0.0497841
-0.0493426
-0.0474278
-0.0455417
-0.0436699
-0.0418078
-0.0399338
-0.0380347
-0.0361044
-0.0341444
-0.0321627
-0.0301726
-0.0281894
-0.0262376
-0.0243493
-0.0225456
-0.0208476
-0.0192551
-0.017526
-0.0159044
-0.0143749
-0.0129425
-0.0115903
-0.01028
-0.00897094
-0.00762846
-0.00622431
-0.00470687
-0.00313315
-0.0011785
-0.000507247
-0.0617623
-0.0596919
-0.0583785
-0.0596235
-0.0576278
-0.0557948
-0.0569529
-0.0555651
-0.0530298
-0.0536071
-0.0547375
-0.0541641
-0.0535329
-0.0515383
-0.0495863
-0.0476629
-0.0457592
-0.0438605
-0.0419549
-0.0400271
-0.0380715
-0.0360875
-0.0340814
-0.0320663
-0.0300563
-0.0280756
-0.0261521
-0.0243152
-0.0225782
-0.0209471
-0.0194076
-0.0176126
-0.0159183
-0.0143175
-0.0128252
-0.0114368
-0.0101187
-0.0088286
-0.00752386
-0.00617124
-0.00471367
-0.00319587
-0.00129673
-0.000592869
-0.0643081
-0.0621628
-0.0608303
-0.0620704
-0.0600385
-0.0580512
-0.0590444
-0.0597006
-0.0579276
-0.0553402
-0.0559277
-0.05708
-0.0564945
-0.0558388
-0.0537923
-0.0517919
-0.0498273
-0.0478885
-0.0459591
-0.0440219
-0.0420641
-0.0400816
-0.0380721
-0.0360409
-0.0340007
-0.0319631
-0.0299537
-0.0279998
-0.0261267
-0.0243557
-0.0226864
-0.0211089
-0.0196013
-0.0177588
-0.0160024
-0.0143302
-0.0127647
-0.0113202
-0.00997212
-0.00868199
-0.00740725
-0.00610346
-0.00470864
-0.00325788
-0.00144476
-0.000692534
-0.0668755
-0.0646926
-0.0633261
-0.0646116
-0.062512
-0.0603349
-0.0609781
-0.0615861
-0.0622069
-0.0603474
-0.0576809
-0.0588233
-0.0583097
-0.0595449
-0.0582064
-0.0561037
-0.0540506
-0.0520416
-0.0500656
-0.0481005
-0.0461326
-0.0441459
-0.0421358
-0.0400998
-0.0380429
-0.0359761
-0.0339119
-0.0318721
-0.0298868
-0.0279807
-0.0261743
-0.0244715
-0.0228594
-0.0213132
-0.0198096
-0.0179439
-0.0161455
-0.0144129
-0.0127732
-0.0112564
-0.00985728
-0.00854787
-0.00728471
-0.00602175
-0.00468806
-0.00331106
-0.00159808
-0.000798393
-0.0695233
-0.0672511
-0.065884
-0.0672014
-0.0650382
-0.0628426
-0.0634852
-0.0641086
-0.0647422
-0.0628255
-0.0602153
-0.0608603
-0.0614611
-0.062079
-0.0606329
-0.0588876
-0.059459
-0.0584746
-0.0563674
-0.0543102
-0.0522904
-0.0502924
-0.0482905
-0.0462735
-0.0442344
-0.042172
-0.0400883
-0.0379949
-0.0359015
-0.0338323
-0.0318142
-0.0298751
-0.0280331
-0.0262954
-0.0246502
-0.0230735
-0.0215383
-0.0200146
-0.018141
-0.0163294
-0.0145545
-0.0128497
-0.0112576
-0.00979042
-0.00843929
-0.00716783
-0.0059316
-0.00465053
-0.00334954
-0.00173399
-0.000911462
-0.0722351
-0.0699089
-0.0685135
-0.0698532
-0.0676086
-0.0653806
-0.0660317
-0.0666537
-0.0673628
-0.0653535
-0.0627339
-0.0633746
-0.0639783
-0.0646035
-0.0631152
-0.0600977
-0.0607268
-0.0613404
-0.0619466
-0.0609066
-0.0587447
-0.0566337
-0.0545697
-0.0525302
-0.050497
-0.0484493
-0.046381
-0.0442895
-0.0421785
-0.0400571
-0.0379354
-0.0358348
-0.0337841
-0.0318091
-0.029933
-0.0281597
-0.0264792
-0.0248701
-0.0233055
-0.0217632
-0.0202136
-0.0183294
-0.0165293
-0.0147342
-0.0129842
-0.0113251
-0.00978409
-0.00837251
-0.0070689
-0.00584023
-0.00460101
-0.00337123
-0.00183964
-0.00103702
-0.0750017
-0.0726473
-0.0712034
-0.0725886
-0.0702665
-0.0679935
-0.0686518
-0.0693033
-0.0699832
-0.0679356
-0.0652591
-0.0658969
-0.066489
-0.067356
-0.0656471
-0.062604
-0.0632375
-0.0638578
-0.0644697
-0.0633931
-0.0611792
-0.059017
-0.0569049
-0.0548238
-0.0527524
-0.0506723
-0.0485748
-0.0464545
-0.0443147
-0.0421647
-0.0400131
-0.0378812
-0.035796
-0.0337852
-0.0318712
-0.030061
-0.0283459
-0.0267019
-0.0251048
-0.0235291
-0.021963
-0.020768
-0.0185087
-0.0198716
-0.0167246
-0.0149299
-0.0131562
-0.0114493
-0.00984113
-0.00835928
-0.00700413
-0.00575859
-0.0045445
-0.00337648
-0.00191387
-0.0011827
-0.0778502
-0.0754327
-0.0739675
-0.0753807
-0.0730079
-0.0706858
-0.0713869
-0.0720517
-0.0727323
-0.0705927
-0.0678215
-0.0684815
-0.0691366
-0.0698125
-0.0682348
-0.065126
-0.0657419
-0.0663066
-0.0671928
-0.0659288
-0.0636693
-0.0614603
-0.059297
-0.0571728
-0.0550624
-0.0529476
-0.0508174
-0.0486679
-0.0464984
-0.0443186
-0.042136
-0.0399722
-0.0378522
-0.0358046
-0.0338512
-0.0320035
-0.0302492
-0.0285697
-0.0269371
-0.0253253
-0.0237168
-0.0225139
-0.0216192
-0.0208337
-0.0190132
-0.0169076
-0.0182056
-0.0199552
-0.0151206
-0.0133454
-0.011613
-0.00995471
-0.00840462
-0.00698593
-0.00570026
-0.00448996
-0.00336632
-0.00196327
-0.00134805
-0.0807962
-0.0782954
-0.0767968
-0.0782398
-0.0758079
-0.0734409
-0.0741552
-0.0748345
-0.0755297
-0.0733298
-0.070562
-0.0712627
-0.0719027
-0.0725656
-0.0708952
-0.0685254
-0.0662132
-0.0639572
-0.0617496
-0.059578
-0.0574267
-0.0552755
-0.0531121
-0.0509306
-0.048731
-0.0465204
-0.0443062
-0.0421077
-0.0399529
-0.0378666
-0.0358764
-0.0339859
-0.0321944
-0.0304761
-0.0288067
-0.0271591
-0.0255127
-0.0242868
-0.0233757
-0.0225619
-0.0216839
-0.0210809
-0.0206395
-0.0190758
-0.0174013
-0.0152871
-0.0165962
-0.0182819
-0.0197709
-0.0202169
-0.0135304
-0.0117969
-0.0101099
-0.00850434
-0.00701874
-0.00567566
-0.00444627
-0.00334437
-0.00199899
-0.00151461
-0.0838164
-0.0812425
-0.0797011
-0.0811775
-0.0786816
-0.0762587
-0.0769909
-0.0776854
-0.0783972
-0.0761397
-0.0733175
-0.0740306
-0.0746828
-0.0753591
-0.0736313
-0.0711891
-0.068818
-0.0665112
-0.0642565
-0.0620426
-0.0598495
-0.0576585
-0.05546
-0.0532456
-0.0510137
-0.0487716
-0.0465246
-0.0442925
-0.0420995
-0.0399749
-0.0379411
-0.0360138
-0.0341792
-0.032423
-0.0307154
-0.0290316
-0.0273506
-0.0260973
-0.025172
-0.0243435
-0.023443
-0.0228277
-0.0223818
-0.0215097
-0.0219556
-0.0210928
-0.0206542
-0.0192916
-0.0189118
-0.0174626
-0.0157772
-0.013692
-0.0149884
-0.0166403
-0.0181178
-0.0185141
-0.0198444
-0.0202226
-0.0119789
-0.0102875
-0.00864583
-0.00710091