/*--------------------------------*- C++ -*----------------------------------*\
| =========                 |                                                 |
| \\      /  F ield         | OpenFOAM: The Open Source CFD Toolbox           |
|  \\    /   O peration     | Version:  v1912                                 |
|   \\  /    A nd           | Website:  www.openfoam.com                      |
|    \\/     M anipulation  |                                                 |
\*---------------------------------------------------------------------------*/
FoamFile
{
    version     2.0;
    format      ascii;
    class       volScalarField;
    location    "430";
    object      p;
}
// * * * * * * * * * * * * * * * * * * * * * * * * * * * * * * * * * * * * * //

dimensions      [0 2 -2 0 0 0 0];


internalField   nonuniform List<scalar> 
3673
(
0.155194
0.138339
0.0853168
0.139733
0.0941271
0.0585833
0.156018
0.116802
0.0734968
0.0723684
0.174651
0.139731
0.0949617
0.0790819
0.0858264
0.19256
0.159941
0.118855
0.0911624
0.0883191
0.0923689
0.209856
0.179151
0.142824
0.109737
0.09495
0.0935723
0.0942796
0.226434
0.197983
0.166007
0.132488
0.107818
0.0975423
0.0951409
0.0929376
0.242002
0.216266
0.1882
0.156478
0.126381
0.106223
0.0976203
0.0938363
0.0893151
0.256258
0.233763
0.209542
0.180417
0.148196
0.12029
0.103257
0.0955177
0.0903572
0.0843332
0.268876
0.250211
0.230174
0.204147
0.171564
0.138514
0.113091
0.0989997
0.0916674
0.0855166
0.0786809
0.279506
0.265272
0.250042
0.227797
0.19593
0.159422
0.126841
0.105187
0.0937909
0.0866974
0.0799717
0.0727794
0.287794
0.278546
0.268897
0.251421
0.221322
0.182321
0.143547
0.114243
0.0973172
0.0881105
0.0811318
0.0741338
0.0669003
0.293408
0.289585
0.286323
0.274895
0.24793
0.207224
0.162575
0.125637
0.102463
0.0901035
0.0822373
0.0752916
0.0682792
0.061238
0.296079
0.29792
0.301753
0.297879
0.275899
0.234526
0.183901
0.138797
0.108916
0.0928403
0.0834948
0.0762434
0.0694316
0.0626115
0.0558923
0.29564
0.303098
0.314462
0.319754
0.305207
0.264801
0.208005
0.153463
0.116122
0.096166
0.0850316
0.0771152
0.0702939
0.0637492
0.0572403
0.0509224
0.292074
0.304747
0.32361
0.339558
0.335539
0.298694
0.235752
0.169686
0.123512
0.0996827
0.0868109
0.0779872
0.0709368
0.0645693
0.0583651
0.0522282
0.0463314
0.285547
0.302656
0.328317
0.355893
0.366101
0.336835
0.268419
0.187744
0.130476
0.102884
0.0886271
0.078868
0.0714009
0.0651156
0.0591739
0.0533242
0.0475846
0.0421266
0.276408
0.296857
0.327853
0.366892
0.39526
0.379735
0.307786
0.208152
0.136215
0.105169
0.0901814
0.07966
0.071704
0.0653956
0.0596992
0.0541235
0.048648
0.043323
0.0382894
0.265176
0.287666
0.321883
0.370457
0.419807
0.42772
0.356117
0.231628
0.13958
0.105783
0.0911168
0.0801816
0.0717989
0.0654273
0.0599368
0.054656
0.0494364
0.0443467
0.0394245
0.034797
0.252475
0.275682
0.31064
0.364987
0.434339
0.479432
0.416816
0.258663
0.138651
0.103846
0.0909869
0.0801992
0.0715768
0.0652007
0.0598979
0.0549036
0.0499778
0.045116
0.0404023
0.0358706
0.0316305
0.238966
0.261712
0.294993
0.350149
0.43347
0.524308
0.497816
0.290194
0.129591
0.0983228
0.0892959
0.0794175
0.0708916
0.0646605
0.0595853
0.0548719
0.0502514
0.0456631
0.0411498
0.036805
0.032645
0.0287603
0.225274
0.246645
0.276339
0.327198
0.414858
0.539214
0.604078
0.33259
0.109559
0.08722
0.0856796
0.0774827
0.0695824
0.0637274
0.0589753
0.05457
0.0502618
0.0459668
0.0416992
0.0375288
0.0335336
0.0297155
0.0261664
0.211931
0.231304
0.256297
0.298979
0.379187
0.518949
0.626973
0.655737
0.487118
0.71811
0.571948
0.119589
0.271977
0.091895
0.0708624
0.0712098
0.079496
0.0742197
0.0674956
0.06233
0.0580223
0.0539887
0.0500211
0.046025
0.0420262
0.0380735
0.0342297
0.0305606
0.027067
0.0238161
0.199358
0.216358
0.236309
0.269084
0.332328
0.458971
0.653358
0.619036
0.756272
0.670606
0.722062
0.594321
0.387537
0.36592
0.100926
0.103833
0.277939
0.0601786
0.0534843
0.0703036
0.0698756
0.0588756
0.0699578
0.0646438
0.060449
0.0566877
0.0531026
0.0495342
0.0458492
0.0421227
0.038415
0.0347679
0.0312328
0.0278673
0.0246641
0.0216956
0.187865
0.202304
0.217381
0.240338
0.283521
0.374839
0.576178
0.509931
0.76733
0.679102
0.701967
0.788917
0.760713
0.625448
0.529865
0.0661046
0.104574
0.0409472
0.0626441
0.0513864
0.0617747
0.0651241
0.0584427
0.0562207
0.0616303
0.058195
0.0549844
0.0518963
0.048807
0.0454514
0.0419952
0.0385449
0.0351237
0.0317635
0.0285106
0.0254255
0.0224938
0.0197732
0.177669
0.189481
0.200093
0.214361
0.239435
0.293733
0.436491
0.340018
0.644601
0.561879
0.817025
0.824627
0.780819
0.731731
0.735336
0.0421298
0.0508836
0.0335594
0.0509829
0.0567721
0.0600869
0.0593329
0.0579567
0.0556872
0.0506854
0.0516637
0.0560568
0.0530298
0.0504021
0.0478677
0.0448495
0.0416549
0.0384638
0.0352842
0.0321294
0.0290307
0.0260462
0.0232152
0.0205255
0.0180363
0.168909
0.178111
0.184729
0.191794
0.202919
0.221977
0.239192
0.468065
0.362954
0.719024
0.643059
0.451286
0.547638
0.811591
0.780299
0.0443466
0.0460854
0.052934
0.0529504
0.0570706
0.0576529
0.0546672
0.0553967
0.0562221
0.0534277
0.0535008
0.0476719
0.0483545
0.0512213
0.0486869
0.0468109
0.0440833
0.0411186
0.0381785
0.0352476
0.0323153
0.0294046
0.0265568
0.0238111
0.0212117
0.0187456
0.0164571
0.161671
0.168329
0.171408
0.172643
0.173575
0.170084
0.136243
0.0320254
-0.0366849
0.443292
0.294164
0.210613
0.250311
0.0507327
0.0510832
0.054959
0.0550995
0.0560289
0.054347
0.0501146
0.051925
0.0544002
0.0549116
0.0551791
0.0520281
0.0520713
0.0467988
0.0458109
0.0432422
0.0404247
0.0377075
0.0350195
0.0323178
0.0296141
0.0269366
0.0243129
0.0217851
0.0193957
0.0171264
0.0150253
0.155996
0.160207
0.160159
0.156693
0.150075
0.134591
0.0820395
-0.200177
0.0688837
-0.228782
-0.287624
-0.401882
0.419417
0.131908
0.0284173
0.0538333
0.0541786
0.0551258
0.0546731
0.0532887
0.0505513
0.0449507
0.0479109
0.0513015
0.0533378
0.054071
0.0542192
0.0544552
0.0449951
0.0424652
0.039651
0.0370953
0.0346202
0.0321406
0.0296506
0.027166
0.0246996
0.0222773
0.0199454
0.0177454
0.0156577
0.0137211
0.151893
0.153774
0.150957
0.143691
0.13148
0.108751
0.0516809
-0.154486
-0.815439
-0.684433
0.00263227
-0.473976
-0.656006
-0.580776
0.0545154
0.0541809
0.0529259
0.0520835
0.0498548
0.0457526
0.0443078
0.0423234
0.0479348
0.0502706
0.0512821
0.0529348
0.0536309
0.0418515
0.038905
0.0364205
0.0340957
0.0318039
0.0295155
0.0272334
0.0249522
0.022672
0.0204285
0.0182737
0.0162438
0.0143194
0.0125374
0.149355
0.14903
0.143743
0.133377
0.117063
0.0896724
0.0314036
-0.119728
-0.632846
-1.02361
-0.813339
-0.737482
-0.828574
0.0524964
0.0517667
0.0497019
0.0486296
0.0459026
0.0444533
0.0412356
0.0430529
0.0400312
0.0468963
0.048053
0.0499905
0.0509315
0.0382893
0.0357762
0.033518
0.0313557
0.0292283
0.0271364
0.0250558
0.0229511
0.0208293
0.0187424
0.0167458
0.0148779
0.0131039
0.0114577
0.148355
0.145955
0.13845
0.125509
0.106149
0.0758694
0.0186017
-0.0993878
-0.464586
-0.753506
-0.908344
-0.916323
-0.81617
0.0493098
0.0483687
0.0465923
0.0467184
0.0446384
0.0411326
0.0377939
0.0395931
0.0427492
0.0443732
0.0367164
0.0466363
0.0475846
0.0352296
0.0329644
0.0308687
0.0288372
0.0268867
0.0250016
0.0230982
0.0211306
0.0191391
0.017197
0.0153588
0.0136342
0.0119962
0.0104712
0.148857
0.144516
0.135006
0.119879
0.0981803
0.0661063
0.0112022
-0.0870184
-0.341269
-0.626309
-0.632631
-0.79017
-0.868592
-0.898297
-0.85998
0.0455859
0.0473457
0.0447133
0.0440175
0.0406725
0.0380238
0.0347792
0.0365707
0.039182
0.0418126
0.0426014
0.0332363
0.0324964
0.0304094
0.0284223
0.0265263
0.0247953
0.0231042
0.0213224
0.0194506
0.0175849
0.0157912
0.0140932
0.0125011
0.0109818
0.00957722
0.150817
0.144676
0.133347
0.11632
0.0927369
0.0594766
0.00721347
-0.0778561
-0.261122
-0.498773
-0.58678
-0.546384
-0.635852
-0.689237
-0.775388
-0.813119
-0.872619
0.0407653
0.0400306
0.0377138
0.0351573
0.0320715
0.0337784
0.0362732
0.0386441
0.0392937
0.030008
0.0280589
0.0261285
0.0244611
0.0229719
0.0214011
0.0196685
0.0178945
0.0161639
0.0145082
0.0129371
0.0114648
0.0100642
0.00875604
0.154179
0.146388
0.133414
0.1147
0.0895089
0.0553667
0.00546355
-0.0700418
-0.208681
-0.398365
-0.517238
-0.531121
-0.502781
-0.540699
-0.574398
-0.618917
-0.64979
-0.676717
-0.709549
-0.775963
-0.816237
0.0378739
0.0371383
0.0349088
0.0325114
0.0296996
0.029911
0.0336173
0.0357619
0.0364119
0.0277696
0.0257856
0.0240411
0.0227166
0.0213773
0.0197898
0.0181136
0.0164639
0.0148675
0.0133336
0.0118852
0.0105244
0.00921928
0.008009
0.158878
0.149604
0.13516
0.114924
0.0882774
0.0533513
0.00531409
-0.0629493
-0.173058
-0.324107
-0.443469
-0.493975
-0.494347
-0.463197
-0.491035
-0.512809
-0.531965
-0.548949
-0.562549
-0.584553
-0.616773
-0.646901
-0.674639
-0.703944
0.0350408
0.0343515
0.0328225
0.0299235
0.0275036
0.0287843
0.0265542
0.028795
0.0330944
0.0336749
0.0255711
0.0235944
0.0223577
0.0212793
0.0198254
0.0182381
0.016678
0.0151575
0.01368
0.0122657
0.0109247
0.0096606
0.0084515
0.00732243
0.164832
0.154265
0.138542
0.116931
0.0889016
0.0531399
0.00638839
-0.0563829
-0.147786
-0.270036
-0.379792
-0.444685
-0.471695
-0.459039
-0.429629
-0.452473
-0.470537
-0.489204
-0.50185
-0.516589
-0.531042
-0.549075
-0.560653
-0.58291
0.0326425
0.0320286
0.0357503
0.0296207
0.0293374
0.0277847
0.0254389
0.0265852
0.0288275
0.0283621
0.0297177
0.0232742
0.0218638
0.021152
0.0198035
0.0182732
0.0167995
0.0153675
0.0139616
0.0125954
0.011288
0.0100455
0.0088738
0.0077461
0.00669759
0.171942
0.160303
0.143526
0.120691
0.0913044
0.0545583
0.00846982
-0.0502774
-0.129068
-0.230472
-0.328606
-0.39703
-0.437743
-0.446657
-0.427724
-0.402762
-0.421802
-0.435606
-0.451571
-0.468937
-0.483255
-0.506379
-0.494382
-0.515302
-0.529199
-0.545734
-0.554479
0.0324698
0.0294074
0.0291345
0.0278982
0.0272943
0.0257351
0.0232785
0.0245246
0.0267529
0.026209
0.0287018
0.0282761
0.0294601
0.0211074
0.0210426
0.0197567
0.0182354
0.0168314
0.0154903
0.0141655
0.0128623
0.0116044
0.0103961
0.00924489
0.0081535
0.00710334
0.00611993
0.180082
0.167635
0.150077
0.126202
0.0954696
0.0575215
0.0114559
-0.0445721
-0.114735
-0.201069
-0.288221
-0.355619
-0.40146
-0.424654
-0.420781
-0.401743
-0.378182
-0.395283
-0.408176
-0.421199
-0.434197
-0.447454
-0.454959
-0.472081
-0.463059
-0.504779
-0.513713
0.029235
0.0290187
0.0277631
0.0271875
0.025813
0.025203
0.0237732
0.0201763
0.0225964
0.024709
0.024119
0.0266725
0.0261591
0.0286001
0.0282049
0.0209313
0.0197154
0.0181424
0.0167874
0.0155285
0.0142861
0.013056
0.0118589
0.0106998
0.00958295
0.00851053
0.0074935
0.00650842
0.00559221
0.189091
0.176151
0.158158
0.133485
0.101436
0.0620292
0.0153243
-0.039184
-0.103517
-0.178946
-0.256476
-0.320892
-0.367968
-0.397919
-0.406746
-0.397251
-0.378051
-0.357435
-0.371475
-0.383011
-0.39434
-0.406927
-0.416697
-0.423982
-0.436337
-0.430959
0.027682
0.0271356
0.0256667
0.0250974
0.0238046
0.0231788
0.021118
0.0207217
0.019204
0.0229281
0.022301
0.024625
0.0240843
0.0265904
0.0261035
0.0196772
0.0180089
0.0166841
0.0154946
0.0143269
0.0131697
0.0120395
0.0109414
0.00987481
0.00883809
0.00783915
0.0068863
0.00596609
0.00510221
0.198769
0.185712
0.167716
0.14258
0.109297
0.0681586
0.0201164
-0.0340188
-0.0946355
-0.162238
-0.231637
-0.292211
-0.33884
-0.371405
-0.387774
-0.38791
-0.375485
-0.357538
-0.338724
-0.351649
-0.361399
-0.370532
-0.382078
-0.390442
-0.396686
-0.409096
-0.402638
-0.415869
-0.422911
-0.432879
-0.429897
0.0255822
0.0250494
0.0236236
0.0230765
0.0219554
0.0207347
0.0205392
0.0195117
0.0202737
0.0179334
0.0203407
0.0227797
0.0224161
0.0245479
0.0240354
0.0178494
0.0165351
0.0154067
0.0142992
0.0132081
0.012141
0.0111087
0.0101067
0.00912556
0.0081601
0.00722305
0.00632794
0.00546126
0.00465194
0.208866
0.196134
0.178673
0.153538
0.119199
0.0760754
0.0259432
-0.0289769
-0.0876087
-0.14971
-0.212414
-0.268803
-0.314096
-0.347422
-0.367608
-0.374454
-0.369431
-0.355957
-0.339375
-0.321993
-0.330598
-0.342009
-0.351072
-0.360632
-0.366824
-0.372885
-0.384061
-0.378295
-0.38982
-0.39584
-0.40811
-0.402013
0.0235299
0.0230138
0.0220565
0.0230264
0.0206891
0.0205118
0.0193756
0.0176665
0.0187097
0.0200467
0.0198087
0.0154647
0.0225212
0.0226126
0.0223042
0.0163563
0.0152745
0.0142197
0.0131841
0.012169
0.011196
0.0102645
0.00935496
0.00844276
0.00753527
0.00664992
0.00581085
0.0049975
0.00423505
0.219079
0.207177
0.19091
0.166412
0.131343
0.0860319
0.0329935
-0.0239509
-0.0821678
-0.140581
-0.197851
-0.250022
-0.293346
-0.326504
-0.34855
-0.359334
-0.360005
-0.351951
-0.338316
-0.322528
-0.320297
-0.306832
-0.335062
-0.341312
-0.34792
-0.352761
-0.362362
-0.357404
-0.3661
-0.373045
-0.383135
-0.377808
0.0215909
0.0228427
0.021024
0.0203832
0.019356
0.0190287
0.0178037
0.0161602
0.0171042
0.018672
0.0183971
0.0199382
0.0196591
0.0124991
0.0151024
0.0140982
0.0131119
0.0121402
0.0112095
0.0103384
0.00950922
0.00867357
0.00781455
0.00695272
0.00612264
0.00533415
0.00456851
0.00385041
0.229046
0.218534
0.204245
0.181231
0.145982
0.0983912
0.0415569
-0.0188068
-0.0782016
-0.134409
-0.187274
-0.235356
-0.276242
-0.308571
-0.331417
-0.344478
-0.348775
-0.345361
-0.335631
-0.322012
-0.307411
-0.305586
-0.315602
-0.323926
-0.293725
-0.333157
-0.342557
-0.336912
-0.347345
-0.352113
-0.362525
-0.356903
-0.363848
0.0193011
0.0189616
0.017932
0.0175179
0.0163249
0.0148917
0.0156706
0.0171455
0.016845
0.0186371
0.0183668
0.0139343
0.0129987
0.0120727
0.0111667
0.0103297
0.00957669
0.0088359
0.00805014
0.00722833
0.00641331
0.00563225
0.00489201
0.00417232
0.00349547
0.238357
0.229819
0.218398
0.197964
0.163405
0.113652
0.0520506
-0.0133666
-0.0757437
-0.131046
-0.180267
-0.224403
-0.262517
-0.293469
-0.316373
-0.330756
-0.337303
-0.337095
-0.331028
-0.32034
-0.307245
-0.294087
-0.292871
-0.301662
-0.307831
-0.313865
-0.317178
-0.320885
-0.324863
-0.280801
-0.329537
-0.334105
-0.339485
-0.342322
-0.346765
-0.351386
-0.361341
-0.356187
0.0179014
0.0174681
0.0164325
0.0160431
0.0150096
0.0137256
0.0144041
0.0157014
0.0154286
0.0171023
0.0168119
0.0128435
0.011975
0.0110911
0.0102575
0.00955403
0.00891581
0.00822961
0.00746519
0.00667509
0.00590793
0.00517707
0.00448621
0.00380687
0.00317007
0.246567
0.24056
0.232961
0.216472
0.18392
0.132471
0.0650925
-0.00738348
-0.0749814
-0.130607
-0.17665
-0.216884
-0.251953
-0.281073
-0.303418
-0.318435
-0.326429
-0.32832
-0.32498
-0.317193
-0.306209
-0.293965
-0.281315
-0.279923
-0.288533
-0.295154
-0.299528
-0.302991
-0.306394
-0.308443
-0.268623
-0.338401
-0.341665
0.0163802
0.0159827
0.0150839
0.0147332
0.0138187
0.0126414
0.0132517
0.0144336
0.0141665
0.0156482
0.0153852
0.0118352
0.0110022
0.0101501
0.00944831
0.0089033
0.00834165
0.00765566
0.00690137
0.00615436
0.00543929
0.00476088
0.00410988
0.0034706
0.0028713
0.25323
0.250207
0.247355
0.236445
0.207781
0.155699
0.0815771
-0.000490774
-0.0763469
-0.133499
-0.17647
-0.212647
-0.24439
-0.271275
-0.292533
-0.307593
-0.316468
-0.31978
-0.318324
-0.312829
-0.304068
-0.293246
-0.281418
-0.269291
-0.267665
-0.275899
-0.282107
-0.286358
-0.289721
-0.292844
-0.296025
-0.2992
-0.302611
-0.305661
-0.306328
-0.258
0.0150228
0.0146724
0.01388
0.0135442
0.0127242
0.0116393
0.0121807
0.0132754
0.0130307
0.0143786
0.0141241
0.0108895
0.0100426
0.00928228
0.00879232
0.0083811
0.00779637
0.00708537
0.00636183
0.00566847
0.00500849
0.0043734
0.00376336
0.00316267
0.00259866
0.25794
0.258167
0.260791
0.25729
0.235105
0.184326
0.102857
0.0078885
-0.0806361
-0.140503
-0.179989
-0.211669
-0.239726
-0.263991
-0.283695
-0.298268
-0.307529
-0.311797
-0.311674
-0.307837
-0.300946
-0.291748
-0.281042
-0.269597
-0.258484
-0.257289
-0.264244
-0.269581
-0.27393
-0.277087
-0.279902
-0.282942
-0.286112
-0.289433
-0.292342
-0.295343
-0.247635
0.0138176
0.0134807
0.0127639
0.0124655
0.011711
0.010709
0.0111868
0.012202
0.011975
0.0132225
0.0129919
0.00995671
0.00910508
0.00857508
0.00834463
0.00789004
0.00722337
0.00652331
0.0058558
0.0052208
0.00460934
0.00401801
0.00344736
0.00288046
0.00235183
0.260389
0.263868
0.27228
0.277909
0.265748
0.219415
0.130915
0.0186877
-0.0892506
-0.152933
-0.187709
-0.214047
-0.237935
-0.259163
-0.276875
-0.290485
-0.299674
-0.3045
-0.305332
-0.30271
-0.297237
-0.28951
-0.280077
-0.269517
-0.258754
-0.248157
-0.246884
-0.253527
-0.259173
-0.26258
-0.265283
-0.267367
-0.270633
-0.27374
-0.276753
-0.279428
-0.282273
-0.23763
0.0126989
0.0124037
0.0117385
0.0114577
0.0107681
0.00982287
0.0102465
0.0112131
0.0109897
0.0121503
0.0119393
0.00901891
0.0082357
0.00822777
0.00794834
0.0073188
0.00663488
0.00599285
0.00538718
0.00480675
0.00424432
0.00369406
0.00315744
0.00262425
0.0021241
0.266854
0.280752
0.296496
0.298763
0.26256
0.168271
0.0329944
-0.104689
-0.17281
-0.200403
-0.219993
-0.239052
-0.256763
-0.272041
-0.284251
-0.292946
-0.29796
-0.29943
-0.297718
-0.293321
-0.286771
-0.278528
-0.26898
-0.258784
-0.248503
-0.238258
-0.236829
-0.243529
-0.248564
-0.250627
-0.254264
-0.257171
-0.259894
-0.262379
-0.265573
-0.266714
-0.270662
-0.228568
0.0116713
0.0113968
0.0107822
0.0105174
0.00987533
0.00904911
0.00932748
0.0102803
0.0100553
0.0111661
0.0109547
0.00781986
0.00799331
0.00798821
0.00737735
0.00669734
0.00607669
0.00549956
0.00495451
0.0044296
0.00391211
0.0033973
0.00289183
0.00238896
0.00191991
0.285267
0.310769
0.331062
0.31604
0.218769
0.0506841
-0.13176
-0.203017
-0.219153
-0.22984
-0.243188
-0.256794
-0.269164
-0.279559
-0.287375
-0.292226
-0.294038
-0.292987
-0.289426
-0.283803
-0.276545
-0.267976
-0.258515
-0.248666
-0.238721
-0.229136
-0.227866
-0.233641
-0.238629
-0.242982
-0.247765
-0.252538
-0.254249
-0.256767
-0.259431
-0.261911
-0.264929
-0.265319
-0.220026
0.0107188
0.0104567
0.00987467
0.00961326
0.0090716
0.00758804
0.00857775
0.00937368
0.00912574
0.0102374
0.0100279
0.00751227
0.00803741
0.00740078
0.00671425
0.00610999
0.00555531
0.00504344
0.00456212
0.00408914
0.00360776
0.00312386
0.00265101
0.00217542
0.318569
0.357551
0.376156
0.293061
0.0733408
-0.17861
-0.248437
-0.245095
-0.244078
-0.250508
-0.259285
-0.268218
-0.276387
-0.282967
-0.287336
-0.289207
-0.288583
-0.285665
-0.28079
-0.27433
-0.266602
-0.257908
-0.248613
-0.239031
-0.229587
-0.220548
-0.219344
-0.225058
-0.229403
-0.232997
-0.238113
-0.241341
-0.243843
-0.248712
-0.246084
-0.251831
-0.253888
-0.25646
-0.259004
-0.211676
0.00980427
0.00955674
0.00899956
0.00874344
0.00830927
0.00677198
0.00724059
0.00859729
0.00830468
0.0093368
0.00910808
0.00809644
0.00738879
0.00668453
0.00610182
0.00555819
0.00506751
0.00463133
0.00421282
0.00377821
0.00333076
0.00287819
0.00242859
0.372838
0.427
0.404456
0.115902
-0.253083
-0.317742
-0.278979
-0.263318
-0.261229
-0.264268
-0.269169
-0.274701
-0.279713
-0.283305
-0.284976
-0.284556
-0.282102
-0.277828
-0.272029
-0.264999
-0.257002
-0.248311
-0.239176
-0.22995
-0.220986
-0.212223
-0.211005
-0.216526
-0.220797
-0.224611
-0.229011
-0.231315
-0.234301
-0.238744
-0.236435
-0.203688
0.00891506
0.0086837
0.00825962
0.00796776
0.00565313
0.0080217
0.00751053
0.00800857
0.00820954
0.00853214
0.00827261
0.00733824
0.00660334
0.00606259
0.00552158
0.0050287
0.00463016
0.00427247
0.00389728
0.00349751
0.00307843
0.00265124
0.00222556
0.459572
0.462197
0.517455
0.270575
0.37068
0.526158
-0.233399
0.0479335
-0.291753
-0.405175
-0.427949
-0.321374
-0.287677
-0.275584
-0.271723
-0.271961
-0.274449
-0.277584
-0.280131
-0.281365
-0.280942
-0.278779
-0.274971
-0.269723
-0.263282
-0.255888
-0.247772
-0.239132
-0.230223
-0.221379
-0.21271
-0.204276
-0.203014
-0.208355
-0.212425
-0.216037
-0.220231
-0.223132
-0.225309
-0.229849
-0.227465
-0.230207
-0.196336
0.00805053
0.00782908
0.00405888
0.0079826
0.00770008
0.007194
0.0075028
0.00766415
0.00743899
0.00759239
0.00850754
0.00647844
0.00600015
0.00546458
0.00493865
0.00455516
0.00426268
0.00395544
0.0036123
0.00323905
0.00284501
0.00244361
0.550883
0.569617
0.585929
0.470052
0.229241
0.19297
-0.233518
-0.213035
-0.00857597
-0.504631
-0.342286
-0.440487
-0.367183
-0.440655
-0.315045
-0.293367
-0.281454
-0.276488
-0.27556
-0.276535
-0.277794
-0.278377
-0.277766
-0.275732
-0.272256
-0.267455
-0.261518
-0.254648
-0.247047
-0.238895
-0.230373
-0.221734
-0.213171
-0.20481
-0.196878
-0.19572
-0.200462
-0.204422
-0.207943
-0.211898
-0.21465
-0.216744
-0.220843
-0.218752
-0.222828
-0.22496
-0.229378
-0.227029
-0.189404
0.00149458
0.0073931
0.0074296
0.0070573
0.00632082
0.00676417
0.00731018
0.00727662
0.00592297
0.0053996
0.00482426
0.00440503
0.00418254
0.00394837
0.00366856
0.00334993
0.00300214
0.00263769
0.639757
0.668172
0.628402
0.559375
0.297876
0.278447
0.528929
-0.000621857
-0.252195
-0.147481
-0.549823
-0.480761
-0.49531
-0.404429
-0.339464
-0.387631
-0.451774
-0.311764
-0.292852
-0.282454
-0.27793
-0.276498
-0.276255
-0.276
-0.275035
-0.272984
-0.269714
-0.265259
-0.259745
-0.253333
-0.246195
-0.238494
-0.230375
-0.222021
-0.213619
-0.205332
-0.197393
-0.189864
-0.188621
-0.19327
-0.196909
-0.200017
-0.203992
-0.206593
-0.208609
-0.212504
-0.210484
-0.214385
-0.216429
-0.220504
-0.218485
-0.182594
0.00706779
0.0069142
0.00632351
0.00579711
0.00603809
0.00675237
0.00661859
0.00538027
0.0046819
0.00420932
0.00402737
0.00388024
0.00366383
0.00340345
0.00310975
0.00279404
0.666143
0.703444
0.741689
0.727615
0.629468
0.398514
0.219382
-0.515246
-0.518944
-0.514246
-0.418117
-0.367202
-0.323915
-0.353356
-0.391638
-0.459025
-0.477336
-0.303846
-0.289233
-0.281332
-0.277383
-0.275457
-0.274204
-0.272744
-0.27055
-0.267369
-0.26316
-0.257991
-0.251977
-0.245254
-0.237964
-0.230236
-0.222208
-0.214033
-0.205861
-0.19792
-0.190343
-0.18306
-0.18198
-0.184887
-0.189553
-0.192959
-0.196508
-0.198641
-0.200747
-0.204582
-0.202626
-0.206325
-0.208285
-0.212175
-0.21023
-0.176027
0.00637023
0.00616793
0.00572543
0.00546253
0.00549543
0.00601704
0.00589896
0.00449843
0.00404151
0.00379179
0.00375698
0.00360364
0.00339762
0.0031588
0.00289779
0.655927
0.708569
0.774831
0.756092
0.601943
-0.435173
-0.422259
-0.375709
-0.336552
-0.310443
-0.327057
-0.357081
-0.398983
-0.395296
-0.295593
-0.285289
-0.279042
-0.275326
-0.272944
-0.270878
-0.268434
-0.265238
-0.26118
-0.256277
-0.250601
-0.244249
-0.237335
-0.229974
-0.222281
-0.214375
-0.206379
-0.198484
-0.190865
-0.183561
-0.176534
-0.180967
-0.175437
-0.186854
-0.189406
-0.191774
-0.193541
-0.197046
-0.19529
-0.198303
-0.20081
-0.204234
-0.202412
-0.169863
0.00572467
0.00556468
0.00527111
0.00498308
0.00507873
0.00544706
0.00534656
0.00319163
0.00362824
0.00355573
0.00350249
0.0033382
0.00314709
0.00294212
-0.383687
-0.373345
-0.339597
-0.31721
-0.29981
-0.310698
-0.328872
-0.354128
-0.362609
-0.400296
-0.388603
-0.289046
-0.281185
-0.275772
-0.272171
-0.269413
-0.266637
-0.263332
-0.259334
-0.254622
-0.249223
-0.243196
-0.236627
-0.22961
-0.222242
-0.214624
-0.206853
-0.19907
-0.191449
-0.184102
-0.177049
-0.170368
-0.174717
-0.178946
-0.182267
-0.169274
-0.184562
-0.186813
-0.189897
-0.188204
-0.191501
-0.19328
-0.197124
-0.195073
-0.197323
-0.164064
0.00522846
0.00509799
0.00486292
-0.000355494
0.00452974
0.00753857
0.00500596
0.00493128
0.00360464
0.00198539
0.00332035
0.00335172
0.00324415
0.0030837
0.00292313
-0.383896
-0.373878
-0.344484
-0.337864
-0.319005
-0.304372
-0.291884
-0.299674
-0.312029
-0.327248
-0.332364
-0.354897
-0.363119
-0.28341
-0.276678
-0.271839
-0.268329
-0.265164
-0.261662
-0.257636
-0.25304
-0.247859
-0.242112
-0.235853
-0.229156
-0.222099
-0.21477
-0.207249
-0.19964
-0.192083
-0.18471
-0.177607
-0.170863
-0.164509
-0.168609
-0.172646
-0.175789
-0.177867
-0.17961
-0.181144
-0.182848
-0.185361
-0.163564
-0.186403
-0.189653
-0.187953
-0.191235
-0.19297
-0.196635
-0.194742
-0.158329
0.00482718
0.00469791
0.00509733
0.00445514
0.00413918
0.00260641
0.00299012
0.00319342
0.00304776
0.00314
0.00312723
0.00298448
0.00284567
-0.344935
-0.338447
-0.321994
-0.317911
-0.305646
-0.295321
-0.285406
-0.291602
-0.300754
-0.311118
-0.314469
-0.327758
-0.332697
-0.277949
-0.271911
-0.267627
-0.26404
-0.26025
-0.2561
-0.251545
-0.246522
-0.241009
-0.235026
-0.228623
-0.221863
-0.214815
-0.207553
-0.200154
-0.192726
-0.185381
-0.17824
-0.171408
-0.164964
-0.15878
-0.162967
-0.166749
-0.169452
-0.171872
-0.173192
-0.174612
-0.17613
-0.184823
-0.157819
-0.186141
-0.189372
-0.18774
-0.152739
0.00663652
2.63312e-05
0.00402987
0.00391283
0.00159562
0.00269923
0.00293957
0.00295549
0.00287417
0.00280197
0.00297109
0.00287052
0.00272409
-0.32231
-0.318339
-0.307762
-0.305008
-0.296279
-0.288269
-0.279521
-0.284997
-0.29252
-0.300246
-0.302628
-0.311544
-0.314762
-0.272433
-0.26731
-0.263336
-0.259143
-0.254754
-0.250154
-0.245226
-0.239898
-0.234156
-0.228023
-0.22154
-0.214765
-0.207759
-0.200587
-0.193331
-0.186081
-0.178947
-0.172042
-0.165484
-0.159237
-0.153201
-0.15719
-0.160956
-0.163882
-0.165763
-0.167257
-0.168733
-0.169743
-0.152245
-0.147367
0.00262157
0.00414618
0.0023325
0.00242074
0.00275535
0.00283081
0.00279628
0.00273891
0.00272915
0.00256208
0.002553
0.00274804
0.00259294
-0.308059
-0.305387
-0.297921
-0.295889
-0.289042
-0.282189
-0.273575
-0.279065
-0.285834
-0.292224
-0.294094
-0.300633
-0.302914
-0.267352
-0.263171
-0.258426
-0.253653
-0.2489
-0.24399
-0.238793
-0.233254
-0.227362
-0.22114
-0.214625
-0.207869
-0.200928
-0.193869
-0.186761
-0.179693
-0.172765
-0.166106
-0.159758
-0.153674
-0.147844
-0.151679
-0.155272
-0.158084
-0.15995
-0.161429
-0.162837
-0.164248
-0.165573
-0.16705
-0.168364
-0.168816
-0.146839
-0.14231
0.00229012
0.00237198
0.00231623
0.00260471
0.00261019
0.0026994
0.00269086
0.00260121
0.00256105
0.00262991
0.00262439
0.00262601
0.00245047
0.00240266
0.00247574
-0.298213
-0.29625
-0.290441
-0.288768
-0.282849
-0.27637
-0.26785
-0.272968
-0.279906
-0.285627
-0.28727
-0.292599
-0.294384
-0.26363
-0.258212
-0.252884
-0.247849
-0.242854
-0.237716
-0.232332
-0.226652
-0.22067
-0.214402
-0.207888
-0.201176
-0.194321
-0.187384
-0.180431
-0.173544
-0.166833
-0.160383
-0.154208
-0.148322
-0.142753
-0.146251
-0.149826
-0.152542
-0.154311
-0.155748
-0.157078
-0.158451
-0.15979
-0.161264
-0.162586
-0.163942
-0.141835
-0.1374
0.00212166
0.00216443
0.0025092
0.00253656
0.0026167
0.00259261
0.00256653
0.00251076
0.00236863
0.00235037
0.00246038
0.00252939
0.00257076
0.0025595
0.0025562
0.00235281
0.00227592
-0.290733
-0.289124
-0.284125
-0.282582
-0.277181
-0.269535
-0.264574
-0.268518
-0.274047
-0.279659
-0.281267
-0.286
-0.287557
-0.258563
-0.252561
-0.247111
-0.24189
-0.23671
-0.231412
-0.225905
-0.220138
-0.214104
-0.207823
-0.201334
-0.194685
-0.18793
-0.181124
-0.17433
-0.16763
-0.161115
-0.154842
-0.148859
-0.143208
-0.137825
-0.141317
-0.144464
-0.147106
-0.148883
-0.150276
-0.151542
-0.152881
-0.154152
-0.155578
-0.156841
-0.158154
-0.136941
-0.132588
0.00242873
0.00247363
0.00255507
0.00253632
0.00250386
0.00245713
0.00238492
0.0023118
0.00226236
0.00235824
0.00241757
0.00247492
0.00251199
0.00250282
0.00250361
-0.284404
-0.282937
-0.278384
-0.276857
-0.269314
-0.266665
-0.259319
-0.264008
-0.269585
-0.274146
-0.275811
-0.280016
-0.28152
-0.252772
-0.246824
-0.241205
-0.235851
-0.230539
-0.225143
-0.219558
-0.213739
-0.20768
-0.201406
-0.19496
-0.18839
-0.181747
-0.17508
-0.168447
-0.161927
-0.155586
-0.149498
-0.143729
-0.138265
-0.133014
-0.136402
-0.139585
-0.142102
-0.143687
-0.144797
-0.14615
-0.147463
-0.148705
-0.150087
-0.151305
-0.152586
-0.132134
-0.127932
0.00250378
0.002493
0.00244591
0.00240589
0.00232871
0.0022667
0.00217808
0.00215433
0.00222595
0.00230999
0.00235989
0.00242787
0.002465
-0.278571
-0.277182
-0.272144
-0.267476
-0.267379
-0.261157
-0.253491
-0.258539
-0.26447
-0.269844
-0.271202
-0.275169
-0.276085
-0.247077
-0.240955
-0.235244
-0.229794
-0.22441
-0.218953
-0.21332
-0.207469
-0.201402
-0.195151
-0.188764
-0.182287
-0.175765
-0.16924
-0.16277
-0.156414
-0.150248
-0.144357
-0.138774
-0.133459
-0.128357
-0.131606
-0.13464
-0.137147
-0.138702
-0.139966
-0.141201
-0.142447
-0.143695
-0.144651
-0.146111
-0.147183
-0.127487
-0.123462
0.00239742
0.00236494
0.00226584
0.00222283
0.00212616
0.00204226
0.00210783
0.00216381
0.0022672
0.00231476
-0.275169
-0.264988
-0.268248
-0.267044
-0.261667
-0.255628
-0.247798
-0.252926
-0.259036
-0.264245
-0.265455
-0.270413
-0.27456
-0.241277
-0.23501
-0.229287
-0.223787
-0.218365
-0.212868
-0.207203
-0.201331
-0.195267
-0.189056
-0.182744
-0.176372
-0.169976
-0.163597
-0.15728
-0.151088
-0.145104
-0.139393
-0.13397
-0.128802
-0.123887
-0.126997
-0.129974
-0.132311
-0.13331
-0.134918
-0.136207
-0.137444
-0.138545
-0.139807
-0.140984
-0.142246
-0.143371
-0.143994
-0.123005
-0.119201
0.00220931
0.00218858
0.00206515
0.00199888
0.00206813
0.00211754
-0.261487
-0.268643
-0.267249
-0.262732
-0.261499
-0.256225
-0.250037
-0.241328
-0.247227
-0.253501
-0.25884
-0.260139
-0.264531
-0.265793
-0.270143
-0.274154
-0.235374
-0.22911
-0.223396
-0.217872
-0.212426
-0.206905
-0.20121
-0.195319
-0.189273
-0.183119
-0.176898
-0.170639
-0.164374
-0.158137
-0.151973
-0.145948
-0.140135
-0.134587
-0.129314
-0.124326
-0.1196
-0.122502
-0.125429
-0.12771
-0.129641
-0.131851
-0.133925
-0.134875
-0.136022
-0.137227
-0.138356
-0.139597
-0.140796
-0.14197
-0.11878
-0.115043
0.00201452
0.00196595
-0.268831
-0.267472
-0.263094
-0.261819
-0.257353
-0.256018
-0.250679
-0.243958
-0.236153
-0.236706
-0.248039
-0.253268
-0.254644
-0.259161
-0.260474
-0.264822
-0.266071
-0.229367
-0.223339
-0.217586
-0.212058
-0.206615
-0.201065
-0.195324
-0.189425
-0.18342
-0.177344
-0.171223
-0.165082
-0.158949
-0.152854
-0.146842
-0.140977
-0.135326
-0.129932
-0.12483
-0.120019
-0.115432
-0.118318
-0.121016
-0.123154
-0.125148
-0.127362
-0.12885
-0.130013
-0.132299
-0.13108
-0.133675
-0.134694
-0.135856
-0.137024
-0.114626
-0.110974
-0.263394
-0.262116
-0.257692
-0.256339
-0.251786
-0.250409
-0.24484
-0.236697
-0.229947
-0.246906
-0.247687
-0.249069
-0.253576
-0.25495
-0.259467
-0.260754
-0.22369
-0.217616
-0.211857
-0.206389
-0.200939
-0.195311
-0.189529
-0.183655
-0.177715
-0.171728
-0.165715
-0.159695
-0.153694
-0.14774
-0.141879
-0.13617
-0.130669
-0.12544
-0.120505
-0.11584
-0.11136
-0.11414
-0.116835
-0.118963
-0.120774
-0.122824
-0.124315
-0.125452
-0.127642
-0.126513
-0.110565
-0.107032
-0.257975
-0.256631
-0.252091
-0.250705
-0.245595
-0.241247
-0.239346
-0.230512
-0.235712
-0.224389