/*--------------------------------*- C++ -*----------------------------------*\
| =========                 |                                                 |
| \\      /  F ield         | OpenFOAM: The Open Source CFD Toolbox           |
|  \\    /   O peration     | Version:  v1912                                 |
|   \\  /    A nd           | Website:  www.openfoam.com                      |
|    \\/     M anipulation  |                                                 |
\*---------------------------------------------------------------------------*/
FoamFile
{
    version     2.0;
    format      ascii;
    class       volVectorField;
    location    "430";
    object      U;
}
// * * * * * * * * * * * * * * * * * * * * * * * * * * * * * * * * * * * * * //

dimensions      [0 1 -1 0 0 0 0];


internalField   nonuniform List<vector> 
3673
(
(0.648259 -0.0256093 -1.62602e-21)
(0.974712 -0.0153672 -5.28267e-20)
(0.298454 -0.0525917 -3.78411e-24)
(1.01654 -0.010511 2.46503e-20)
(0.76621 -0.0576508 -2.32018e-24)
(0.175674 -0.0544199 1.97945e-20)
(1.00674 -0.0139792 -1.92474e-37)
(0.961716 -0.0543023 1.54332e-24)
(0.569363 -0.0968765 -1.81036e-20)
(0.125051 -0.0463335 2.43141e-20)
(0.999503 -0.0165743 -2.65552e-41)
(1.00913 -0.052546 0)
(0.844324 -0.104262 -2.37509e-20)
(0.437042 -0.110817 -2.40483e-20)
(0.108628 -0.0401419 2.8363e-20)
(0.997587 -0.0171663 -4.10637e-24)
(1.00897 -0.0523872 -7.02742e-24)
(0.969728 -0.101 4.82776e-20)
(0.721242 -0.138709 2.5309e-20)
(0.366051 -0.111275 0)
(0.105365 -0.0376155 -3.11484e-20)
(0.997506 -0.0167994 -3.77017e-51)
(1.00228 -0.0525132 1.80987e-20)
(1.00446 -0.0972152 -2.5907e-20)
(0.899252 -0.145427 -2.22424e-20)
(0.627159 -0.157097 2.8303e-20)
(0.333929 -0.109705 3.38614e-20)
(0.106106 -0.0369587 0)
(0.997704 -0.0159617 0)
(0.998165 -0.0519056 1.79655e-21)
(1.00483 -0.0947048 0)
(0.976983 -0.144124 7.04984e-24)
(0.825776 -0.178581 3.78984e-21)
(0.568621 -0.166226 0)
(0.321483 -0.10895 0)
(0.108197 -0.0370293 0)
(0.997855 -0.01479 2.29544e-20)
(0.996164 -0.0502133 -2.01906e-20)
(0.998462 -0.0925064 0)
(0.997298 -0.140996 1.74341e-20)
(0.937027 -0.185396 -2.61723e-20)
(0.767613 -0.200989 0)
(0.537086 -0.170719 -7.36621e-24)
(0.318298 -0.10889 0)
(0.110404 -0.0372966 0)
(0.997966 -0.0133104 -2.30767e-20)
(0.994877 -0.0474755 0)
(0.99306 -0.0896925 2.0349e-23)
(0.995658 -0.137806 -1.74789e-20)
(0.981253 -0.185685 0)
(0.898188 -0.218069 1.35042e-23)
(0.728887 -0.215 6.7125e-24)
(0.522211 -0.1727 -3.08455e-20)
(0.318976 -0.108979 3.39594e-20)
(0.112072 -0.0375371 -6.81284e-24)
(0.998075 -0.0115068 0)
(0.993651 -0.0437348 0)
(0.988877 -0.0857934 -2.26758e-23)
(0.988982 -0.134438 -4.1615e-23)
(0.990301 -0.183994 -3.61493e-23)
(0.962977 -0.224756 0)
(0.868115 -0.241579 -1.41389e-23)
(0.706165 -0.222657 2.71962e-20)
(0.516317 -0.173152 5.4502e-22)
(0.320644 -0.108957 -3.21473e-20)
(0.113063 -0.0376784 1.32172e-23)
(0.998206 -0.00936437 -2.54943e-23)
(0.992338 -0.0389502 0)
(0.984971 -0.0805141 0)
(0.981971 -0.130295 2.36168e-23)
(0.986051 -0.181903 2.13382e-23)
(0.985072 -0.227066 1.8252e-23)
(0.947931 -0.255602 0)
(0.848224 -0.256368 0)
(0.69402 -0.225788 7.92203e-22)
(0.514457 -0.172743 -4.11911e-22)
(0.322017 -0.108777 0)
(0.113456 -0.0376961 -6.40386e-24)
(0.998368 -0.00689074 0)
(0.990972 -0.0330552 -2.8089e-20)
(0.980823 -0.0735709 0)
(0.974751 -0.124743 0)
(0.977841 -0.17939 0)
(0.986575 -0.228295 -2.21794e-20)
(0.982839 -0.263239 0)
(0.938265 -0.276801 1.28636e-23)
(0.836236 -0.263914 1.11331e-21)
(0.687749 -0.226248 2.45038e-20)
(0.513984 -0.171937 -2.59529e-20)
(0.322675 -0.108403 0)
(0.113323 -0.0375889 0)
(0.99857 -0.00412532 2.78499e-20)
(0.989652 -0.0260177 2.81695e-20)
(0.976349 -0.0646763 1.93657e-24)
(0.966689 -0.117141 0)
(0.967796 -0.17582 2.92554e-20)
(0.979803 -0.229509 2.24449e-20)
(0.992452 -0.269011 3.95224e-23)
(0.984525 -0.289432 -1.3603e-23)
(0.93287 -0.288829 -3.70581e-20)
(0.829047 -0.266711 0)
(0.684364 -0.225454 4.61308e-20)
(0.513674 -0.170895 0)
(0.322494 -0.10782 0)
(0.11277 -0.0373794 1.003e-23)
(0.998818 -0.00114795 -5.60347e-20)
(0.988515 -0.0178886 -2.87165e-23)
(0.971723 -0.0535843 3.17006e-20)
(0.957479 -0.106812 3.32233e-20)
(0.955575 -0.170316 -2.95958e-20)
(0.968876 -0.230558 0)
(0.990276 -0.275244 0)
(1.00347 -0.299304 1.71079e-20)
(0.988293 -0.304949 1.23755e-20)
(0.929598 -0.294414 1.1382e-20)
(0.824551 -0.267036 -2.11725e-20)
(0.68226 -0.224066 5.0159e-24)
(0.512964 -0.169657 -2.22263e-20)
(0.321506 -0.107058 -2.37338e-20)
(0.111894 -0.0370924 -8.89018e-25)
(0.999114 0.00191929 2.82049e-20)
(0.987735 -0.00884079 3.02802e-20)
(0.967308 -0.0401585 -3.15988e-20)
(0.947239 -0.0930423 -6.88461e-20)
(0.940546 -0.161794 -6.72799e-23)
(0.953921 -0.230732 5.8445e-23)
(0.982042 -0.282763 0)
(1.00878 -0.30969 -1.67858e-20)
(1.01607 -0.317132 1.36499e-20)
(0.991598 -0.312738 -1.0926e-20)
(0.927369 -0.296471 0)
(0.821619 -0.2661 -1.97938e-20)
(0.680528 -0.222345 1.95843e-20)
(0.511589 -0.168276 2.01241e-20)
(0.319825 -0.106176 1.00683e-23)
(0.110809 -0.0367495 -9.26521e-24)
(0.999452 0.00491721 5.54637e-23)
(0.9875 0.000799432 -3.01199e-20)
(0.963638 -0.0244754 1.35559e-22)
(0.936503 -0.0751428 -2.09499e-21)
(0.922409 -0.148894 0)
(0.933802 -0.228929 -3.88376e-20)
(0.968529 -0.291705 -5.72183e-23)
(1.00753 -0.322331 3.30804e-23)
(1.02939 -0.328915 -1.34077e-20)
(1.02613 -0.326043 0)
(0.993902 -0.316323 0)
(0.925939 -0.296594 9.14549e-21)
(0.819439 -0.264457 -1.81619e-20)
(0.678609 -0.220469 1.30972e-23)
(0.509522 -0.166831 0)
(0.317612 -0.105203 -1.00991e-23)
(0.109579 -0.0363681 0)
(0.999817 0.00766653 0)
(0.987966 0.0105493 -5.75628e-23)
(0.96139 -0.00694693 -3.34193e-20)
(0.926307 -0.0526001 7.598e-20)
(0.90136 -0.129867 -9.10329e-24)
(0.907161 -0.223553 3.97855e-20)
(0.948301 -0.301979 0)
(1.00181 -0.338309 0)
(1.03634 -0.342272 -3.21676e-23)
(1.04542 -0.337783 0)
(1.03325 -0.330412 -9.1577e-24)
(0.995818 -0.317523 8.94101e-21)
(0.924947 -0.295557 1.69648e-20)
(0.817401 -0.262489 8.46951e-24)
(0.676278 -0.218573 -8.48189e-24)
(0.506842 -0.165347 0)
(0.315003 -0.104168 -8.41352e-24)
(0.108254 -0.0359614 -1.53722e-20)
(1.00019 0.0099947 0)
(0.9892 0.0198084 -1.19482e-22)
(0.961259 0.0115775 3.32646e-20)
(0.918314 -0.0254077 -7.70013e-20)
(0.878329 -0.102513 -4.73803e-20)
(0.87275 -0.212195 1.86909e-22)
(0.918874 -0.313434 0)
(0.991255 -0.35872 -2.37624e-20)
(1.04037 -0.358238 2.53961e-23)
(1.05781 -0.349936 0)
(1.05653 -0.342016 0)
(1.03888 -0.332207 9.09212e-25)
(0.997465 -0.317208 8.3567e-24)
(0.923953 -0.29393 -7.77875e-21)
(0.815196 -0.260451 -7.11591e-24)
(0.673485 -0.216708 0)
(0.503656 -0.163843 -7.26796e-24)
(0.312119 -0.103096 1.62565e-20)
(0.106888 -0.0355404 6.46115e-24)
(1.00053 0.0117659 2.50116e-20)
(0.991139 0.0279405 -2.77906e-20)
(0.963736 0.0298497 1.20183e-22)
(0.914686 0.00546996 7.63454e-20)
(0.855704 -0.0646659 4.59302e-20)
(0.829894 -0.190424 0)
(0.876486 -0.325973 0)
(0.974262 -0.384942 2.31439e-20)
(1.04226 -0.377261 2.49769e-23)
(1.06714 -0.363311 -4.68501e-24)
(1.07186 -0.353042 0)
(1.06517 -0.34368 0)
(1.04352 -0.33229 7.77024e-25)
(0.998614 -0.316074 1.7973e-23)
(0.922745 -0.292101 0)
(0.812716 -0.258453 1.39619e-20)
(0.670261 -0.214891 -6.4889e-24)
(0.500088 -0.162333 1.39187e-23)
(0.309055 -0.101999 -7.01529e-24)
(0.105497 -0.0351122 -1.24098e-23)
(1.00082 0.0129065 -4.89926e-20)
(0.993584 0.0343936 1.27858e-21)
(0.968865 0.0464016 2.96486e-20)
(0.917218 0.0377959 -3.73833e-20)
(0.838877 -0.0161696 -8.35962e-22)
(0.779839 -0.149292 -6.57254e-20)
(0.813595 -0.337647 5.21313e-20)
(0.945901 -0.418001 -7.77355e-23)
(1.03986 -0.398411 -4.75893e-23)
(1.07331 -0.377355 -1.05296e-20)
(1.08268 -0.363928 -2.02016e-23)
(1.08227 -0.353667 0)
(1.07211 -0.343559 -7.66467e-21)
(1.04706 -0.331428 7.16943e-21)
(0.99923 -0.314599 -6.91275e-24)
(0.921265 -0.290248 -1.29873e-20)
(0.809918 -0.25653 5.94619e-24)
(0.666656 -0.213117 6.49356e-24)
(0.496227 -0.160819 -6.65028e-24)
(0.305872 -0.100895 7.03806e-24)
(0.104104 -0.0346833 -1.17791e-20)
(1.00103 0.0134144 2.39921e-20)
(0.996244 0.038815 2.65391e-20)
(0.976134 0.0598509 -2.94658e-20)
(0.926623 0.0682819 1.27789e-22)
(0.835796 0.0392952 4.54289e-20)
(0.730539 -0.0781231 6.71694e-20)
(0.714191 -0.33279 -5.44655e-20)
(0.888192 -0.452291 -3.13821e-20)
(1.02052 -0.416233 7.73031e-23)
(1.06885 -0.38787 1.04847e-20)
(1.08649 -0.372768 -1.9588e-23)
(1.09264 -0.362011 0)
(1.09004 -0.352465 7.52146e-21)
(1.07728 -0.342443 6.58304e-25)
(1.04961 -0.330133 6.46198e-21)
(0.99936 -0.313012 0)
(0.919468 -0.288445 0)
(0.806798 -0.254685 1.16501e-20)
(0.662724 -0.211381 0)
(0.492154 -0.159314 0)
(0.302635 -0.0997951 1.23501e-20)
(0.102725 -0.0342575 5.43708e-24)
(1.00116 0.013351 0)
(0.998811 0.0411232 -2.35192e-20)
(0.984542 0.0692301 -5.07348e-23)
(0.942214 0.0934739 -3.02106e-20)
(0.849484 0.0950254 -8.42999e-20)
(0.701515 0.0215842 -6.32443e-20)
(0.562066 -0.269414 -4.19367e-20)
(0.753584 -0.456912 3.81009e-20)
(0.941716 -0.408092 0)
(1.02596 -0.382231 3.41835e-23)
(1.06891 -0.371941 8.59543e-21)
(1.09067 -0.36531 0)
(1.09829 -0.358179 7.15372e-21)
(1.09508 -0.350225 -6.25199e-24)
(1.08093 -0.340831 -6.3133e-21)
(1.05134 -0.328647 0)
(0.999021 -0.311426 5.63377e-21)
(0.917344 -0.286714 -5.39335e-21)
(0.803375 -0.252907 5.42709e-24)
(0.65854 -0.20968 -1.06493e-20)
(0.487951 -0.157824 -5.04967e-24)
(0.299377 -0.098707 -5.24854e-25)
(0.101381 -0.0338416 -4.52659e-24)
(1.00121 0.0128141 0)
(1.00105 0.0414857 2.37254e-20)
(0.992909 0.0742305 -9.45206e-23)
(0.961635 0.110751 2.95683e-20)
(0.87979 0.142758 7.25223e-20)
(0.708321 0.129029 5.79377e-20)
(0.531242 -0.0924377 3.71898e-20)
(0.497676 -0.00859139 9.42445e-22)
(0.540138 -0.468661 0)
(0.356926 -0.212189 7.38398e-20)
(0.385608 -0.386262 -3.66698e-22)
(0.810439 -0.386519 0)
(0.505201 -0.313887 -1.22995e-20)
(0.637989 -0.295989 0)
(0.877799 -0.329225 0)
(0.737619 -0.290368 0)
(0.991992 -0.343831 -9.04443e-21)
(1.05635 -0.353856 7.6268e-21)
(1.08818 -0.356052 -7.16395e-21)
(1.09977 -0.353291 3.02951e-24)
(1.09781 -0.347399 6.01763e-21)
(1.08329 -0.338947 1.65832e-23)
(1.05232 -0.327111 -5.42375e-21)
(0.998228 -0.309873 -5.15495e-21)
(0.914902 -0.285044 -4.96035e-21)
(0.799679 -0.251181 9.61383e-21)
(0.654161 -0.208013 0)
(0.483671 -0.156359 4.47331e-25)
(0.296148 -0.0976408 -5.36073e-24)
(0.10007 -0.0334359 -9.03831e-21)
(1.00121 0.0119132 -3.90808e-23)
(1.00283 0.0402232 0)
(1.00034 0.0752051 0)
(0.98156 0.119401 -2.01139e-22)
(0.920139 0.174758 -3.31883e-20)
(0.761056 0.224947 -4.03287e-22)
(0.490106 0.0977186 0)
(0.514937 0.197443 -2.48108e-20)
(0.279586 -0.0819211 -3.73268e-20)
(0.29031 -0.32472 3.20963e-22)
(0.203277 -0.256594 -1.15167e-20)
(0.19915 -0.237766 8.63519e-21)
(0.169311 -0.155954 4.1085e-21)
(0.303131 -0.251789 -2.01293e-22)
(0.461066 -0.215932 3.60428e-23)
(0.257351 -0.107499 0)
(0.165945 -0.114754 -5.70246e-22)
(0.509479 -0.188461 -6.04673e-22)
(0.360196 -0.146579 -9.74338e-22)
(0.655393 -0.233207 0)
(0.793194 -0.262486 0)
(0.588256 -0.194281 -1.2212e-23)
(0.949932 -0.310374 -8.1801e-21)
(1.03657 -0.335858 0)
(1.08018 -0.346173 0)
(1.09797 -0.347772 -1.55848e-22)
(1.09864 -0.344201 0)
(1.08452 -0.336968 -1.06966e-23)
(1.05262 -0.325559 -1.0117e-23)
(0.997001 -0.30834 9.40708e-21)
(0.912144 -0.283419 4.52955e-21)
(0.795749 -0.249503 0)
(0.649647 -0.206385 0)
(0.479363 -0.15492 4.62215e-24)
(0.292961 -0.0966018 9.39875e-21)
(0.0988042 -0.0330426 8.28912e-21)
(1.00117 0.0107489 -3.69899e-23)
(1.00416 0.0377026 3.95052e-23)
(1.00639 0.0729269 0)
(0.999116 0.120452 0)
(0.960853 0.18859 1.92402e-22)
(0.8482 0.283236 7.19001e-22)
(0.557872 0.292385 2.36901e-20)
(0.621218 0.367386 -7.38309e-23)
(0.237361 0.058019 0)
(0.34438 0.25029 8.3365e-23)
(0.31817 0.182283 0)
(0.0655442 -0.097173 6.71554e-22)
(0.107827 -0.169742 7.83809e-21)
(0.117044 -0.159272 -3.79602e-21)
(0.0781845 -0.0986149 0)
(0.148246 -0.0588924 7.83543e-22)
(0.0851227 -0.037603 -2.48393e-21)
(0.244155 -0.076242 6.41531e-22)
(0.421505 -0.131161 0)
(0.288646 -0.0995464 9.22525e-22)
(0.541344 -0.166881 3.21267e-21)
(0.726683 -0.219856 -1.90858e-21)
(0.507255 -0.149201 0)
(0.367556 -0.108598 -1.08265e-23)
(0.90787 -0.283958 7.12852e-21)
(1.01244 -0.319206 -1.1895e-23)
(1.06849 -0.3361 -5.89998e-21)
(1.09363 -0.341877 4.63315e-24)
(1.09786 -0.340916 0)
(1.08476 -0.334933 8.97717e-24)
(1.05229 -0.323969 -4.53228e-21)
(0.995341 -0.306818 -4.2929e-21)
(0.909089 -0.281835 4.13798e-21)
(0.791633 -0.247871 3.77187e-24)
(0.64504 -0.204791 8.12461e-21)
(0.475066 -0.153519 0)
(0.28984 -0.0955922 -8.59398e-21)
(0.0975838 -0.032663 -3.48234e-24)
(1.0011 0.00940483 0)
(1.0051 0.0342679 -1.86408e-20)
(1.01097 0.0682643 0)
(1.01291 0.11575 -1.88695e-20)
(0.99683 0.187039 -1.94601e-20)
(0.937331 0.300962 2.14291e-20)
(0.698246 0.428798 0)
(0.781967 0.457415 -7.30813e-22)
(0.317753 0.348533 2.24413e-20)
(0.423887 0.461671 -2.04319e-20)
(0.0422785 -0.0471002 0)
(0.0314375 0.00736285 0)
(0.171054 0.150338 -1.17921e-20)
(0.193034 0.236104 1.15884e-20)
(0.0394917 -0.0793651 -1.46567e-20)
(0.105226 -0.0314451 5.12255e-22)
(0.214934 -0.0603374 1.33713e-23)
(0.0816537 -0.0223643 -4.04901e-23)
(0.199644 -0.0545185 8.61289e-22)
(0.332533 -0.0930259 -3.6488e-21)
(0.480897 -0.136036 -3.32877e-21)
(0.676074 -0.195225 -7.90683e-21)
(0.461317 -0.127372 2.03646e-22)
(0.307936 -0.0843982 0)
(0.175208 -0.0472986 7.1834e-24)
(0.185082 -0.0498522 -1.43148e-23)
(0.867653 -0.263036 -6.68145e-21)
(0.98643 -0.303881 1.27458e-23)
(1.05443 -0.326065 -1.01017e-23)
(1.08737 -0.336127 -7.97949e-25)
(1.09581 -0.337589 8.76016e-24)
(1.08413 -0.332803 -1.71682e-23)
(1.05134 -0.322338 4.11494e-21)
(0.99327 -0.305306 -3.92207e-21)
(0.905774 -0.280286 7.38792e-24)
(0.78736 -0.246278 -1.47355e-20)
(0.640384 -0.203239 7.42938e-21)
(0.470808 -0.152155 0)
(0.286795 -0.0946166 -3.74296e-24)
(0.0964161 -0.0322979 3.50105e-24)
(1.00101 0.00794659 0)
(1.00571 0.0302078 1.08535e-21)
(1.01422 0.0619645 0)
(1.02297 0.107193 1.91401e-20)
(1.02431 0.175562 3.6016e-20)
(1.00613 0.288652 -4.7989e-21)
(0.897666 0.542853 -5.46629e-21)
(0.559701 0.552194 0)
(0.692726 0.606963 1.03903e-20)
(0.064197 0.19067 2.6931e-21)
(0.100137 0.248108 0)
(0.206879 0.347787 -1.27531e-21)
(0.14881 0.301071 -8.95733e-22)
(0.0310279 0.0684434 -3.73929e-22)
(0.0411953 0.129339 0)
(0.0696668 -0.017652 0)
(0.0646 -0.0161893 -5.54356e-22)
(0.165073 -0.0433203 9.83906e-22)
(0.158999 -0.0416143 -7.48294e-24)
(0.290776 -0.077058 3.75069e-21)
(0.443737 -0.12099 -3.27999e-24)
(0.634604 -0.179072 5.58456e-21)
(0.429606 -0.11597 -3.23383e-21)
(0.278172 -0.0729661 2.26013e-21)
(0.147451 -0.0383924 0)
(0.152112 -0.0395343 -9.57118e-22)
(0.0566498 -0.0142496 -2.69733e-25)
(0.0601297 -0.0149806 2.69027e-25)
(0.829609 -0.245483 6.22689e-21)
(0.959736 -0.289494 -6.99101e-25)
(1.03897 -0.316972 -8.68401e-24)
(1.07995 -0.330558 -4.5901e-21)
(1.09275 -0.334171 -1.67938e-23)
(1.08268 -0.330589 -4.01964e-21)
(1.0498 -0.320676 3.8592e-24)
(0.990823 -0.303802 3.66587e-24)
(0.902227 -0.278767 1.03089e-20)
(0.78297 -0.244725 1.16475e-22)
(0.635711 -0.201728 2.94225e-25)
(0.466607 -0.150833 3.23134e-24)
(0.283845 -0.0936744 3.24948e-25)
(0.0952973 -0.0319468 0)
(1.00092 0.00642344 0)
(1.00608 0.0257499 2.64763e-20)
(1.01639 0.0546001 0)
(1.02993 0.0963192 0)
(1.04299 0.158992 -2.46997e-21)
(1.05178 0.259319 -1.58836e-20)
(1.04977 0.491084 7.4454e-21)
(0.76839 0.690945 -1.72274e-22)
(0.961395 0.743778 2.55432e-21)
(0.277759 0.470771 -3.68313e-21)
(0.433415 0.582381 7.50428e-21)
(0.655459 0.681665 0)
(0.54973 0.63245 -2.98603e-21)
(0.0533013 -0.0132368 0)
(0.0513086 -0.0127695 5.81558e-25)
(0.142477 -0.0363428 -2.36496e-23)
(0.139695 -0.0355559 -9.9859e-22)
(0.268115 -0.0694856 -7.47582e-22)
(0.415515 -0.111804 5.03235e-23)
(0.596795 -0.165897 -6.93431e-21)
(0.403028 -0.107644 0)
(0.259502 -0.0671582 2.92356e-21)
(0.134021 -0.03401 1.01214e-21)
(0.136279 -0.0346098 3.94018e-24)
(0.0474656 -0.0118549 2.40017e-24)
(0.0491748 -0.0122065 6.10079e-22)
(0.792501 -0.229134 -1.20442e-23)
(0.933552 -0.27752 -1.97203e-23)
(1.02348 -0.308675 4.74656e-21)
(1.07181 -0.325086 0)
(1.0888 -0.330702 8.03593e-24)
(1.08048 -0.328322 3.44119e-24)
(1.04774 -0.318989 0)
(0.988031 -0.302304 -3.2695e-21)
(0.898479 -0.277276 -3.09647e-21)
(0.778488 -0.24321 -6.21523e-21)
(0.631044 -0.200261 2.671e-25)
(0.462485 -0.14955 -6.19816e-24)
(0.280986 -0.0927652 6.84946e-21)
(0.0942238 -0.0316082 -2.68922e-24)
(1.00082 0.00487207 0)
(1.00626 0.0210646 -8.62378e-21)
(1.01773 0.0465956 0)
(1.03446 0.0841744 1.44046e-20)
(1.05487 0.14015 -1.45513e-20)
(1.08017 0.225718 0)
(1.12152 0.404538 -1.26126e-20)
(1.17785 0.628577 -1.46651e-21)
(0.458658 0.472182 0)
(0.59714 0.476558 -5.6254e-21)
(0.380757 0.324173 4.3404e-21)
(0.807192 0.496651 -3.34007e-23)
(0.0996632 0.200485 0)
(0.253306 0.347041 0)
(0.34459 0.370717 0)
(0.0458475 -0.0113319 -1.2598e-21)
(0.0449651 -0.0111163 5.37195e-24)
(0.131197 -0.0330939 1.00753e-21)
(0.129611 -0.0325942 1.01534e-21)
(0.251652 -0.0648042 2.14224e-21)
(0.389171 -0.104056 0)
(0.55499 -0.151264 1.52619e-21)
(0.37452 -0.0992579 0)
(0.244083 -0.0628453 -6.54045e-22)
(0.125743 -0.0316547 -9.91573e-22)
(0.127309 -0.0321447 1.99276e-21)
(0.0431754 -0.0106755 0)
(0.0439664 -0.0108623 -3.09703e-25)
(0.758306 -0.216505 -4.37338e-23)
(0.909932 -0.267282 2.00521e-23)
(1.00844 -0.300949 0)
(1.06312 -0.319775 -3.67639e-24)
(1.08409 -0.327236 -3.58747e-21)
(1.07764 -0.326021 -3.43502e-24)
(1.0452 -0.31728 3.15604e-21)
(0.984927 -0.30081 -2.99314e-21)
(0.894549 -0.275813 5.73169e-21)
(0.773932 -0.241734 -2.88506e-24)
(0.626397 -0.198831 2.8852e-24)
(0.458452 -0.148307 -5.6999e-21)
(0.278223 -0.0918837 2.88163e-24)
(0.0931895 -0.0312814 5.3985e-21)
(1.00072 0.00331844 0)
(1.00631 0.0162753 1.53936e-23)
(1.01845 0.0382613 -1.28505e-23)
(1.03714 0.0714226 -1.46258e-20)
(1.06197 0.120482 0)
(1.097 0.193466 0)
(1.14992 0.32241 8.0417e-21)
(1.31831 0.540268 3.00124e-24)
(0.824014 0.262886 0)
(1.16779 0.393687 6.45444e-23)
(0.186649 0.213612 -5.84591e-23)
(0.208577 0.138986 0)
(0.610529 0.28003 5.45813e-23)
(0.236489 0.120477 5.56793e-21)
(0.0423224 -0.0104331 -6.42164e-22)
(0.0418306 -0.0102919 0)
(0.123573 -0.0311049 -9.58724e-25)
(0.122279 -0.0306401 1.05871e-23)
(0.236148 -0.060692 -1.32025e-21)
(0.354542 -0.0939587 -2.78249e-21)
(0.516576 -0.13997 0)
(0.329388 -0.0850423 -2.69439e-21)
(0.226503 -0.0582929 1.01843e-23)
(0.11899 -0.0298484 5.50583e-24)
(0.120371 -0.0303388 3.67332e-24)
(0.040622 -0.0100073 0)
(0.0411853 -0.0101591 -6.33881e-22)
(0.730629 -0.206325 4.4795e-23)
(0.888904 -0.258275 1.72324e-23)
(0.993838 -0.293813 3.76727e-24)
(1.05401 -0.314666 3.65078e-21)
(1.07875 -0.323798 0)
(1.07422 -0.323695 -3.09251e-21)
(1.04223 -0.315552 0)
(0.981534 -0.299325 2.80702e-24)
(0.890453 -0.27438 2.7011e-24)
(0.769328 -0.240295 5.23194e-21)
(0.621803 -0.197439 -2.42263e-24)
(0.454512 -0.147092 0)
(0.275544 -0.0910302 -5.53692e-21)
(0.0921991 -0.0309668 4.85296e-21)
(1.00063 0.00178117 0)
(1.00627 0.0114697 0)
(1.01873 0.0298124 -1.50524e-23)
(1.03846 0.0584861 2.74907e-23)
(1.06576 0.100856 5.20537e-21)
(1.10567 0.163037 0)
(1.16195 0.257718 -3.21793e-21)
(1.33412 0.429836 0)
(1.34835 0.34868 -5.05004e-20)
(0.196401 0.0518823 4.80531e-21)
(0.6586 0.166903 0)
(0.312576 0.0778998 0)
(0.900217 0.166213 3.46067e-20)
(0.039982 -0.00984816 -6.19607e-22)
(0.0395556 -0.00971631 6.13978e-22)
(0.117039 -0.0294492 4.78049e-24)
(0.115541 -0.0289212 1.80779e-21)
(0.211063 -0.0543994 2.12367e-21)
(0.306226 -0.0800339 0)
(0.492013 -0.131764 0)
(0.294696 -0.0767042 0)
(0.176531 -0.0438678 0)
(0.110631 -0.0278178 1.73387e-21)
(0.113383 -0.0286403 -3.78173e-24)
(0.0385368 -0.00947363 5.96013e-22)
(0.0390233 -0.00961772 -5.84302e-25)
(0.70803 -0.198021 1.93492e-23)
(0.869817 -0.250347 -1.74733e-23)
(0.97966 -0.287214 -3.79731e-24)
(1.0446 -0.309762 3.31276e-21)
(1.07288 -0.320395 0)
(1.07029 -0.321348 -2.65598e-24)
(1.03886 -0.313816 0)
(0.977873 -0.297861 -4.73812e-24)
(0.886222 -0.272978 -4.81074e-21)
(0.764702 -0.238882 -1.99932e-25)
(0.617253 -0.196067 2.01774e-25)
(0.450664 -0.145907 4.95869e-21)
(0.272953 -0.0902029 0)
(0.0912537 -0.0306656 -2.08107e-24)
(1.00054 0.000273649 0)
(1.00616 0.0067082 -7.86791e-21)
(1.01871 0.0213922 0)
(1.03886 0.0456332 1.10021e-23)
(1.06731 0.081782 -5.29844e-21)
(1.1088 0.134303 -3.14349e-21)
(1.16687 0.207198 -1.20141e-21)
(1.30657 0.331167 -2.97923e-23)
(1.48307 0.33932 3.59779e-20)
(1.0373 0.0988496 2.67684e-20)
(0.460854 0.0513466 4.70728e-22)
(0.179199 0.0101209 -1.05888e-20)
(0.605381 0.013841 2.56249e-20)
(0.0379771 -0.00935021 3.3373e-24)
(0.0374921 -0.0092043 -1.15156e-21)
(0.105504 -0.0270375 -8.39982e-22)
(0.0971122 -0.0232861 4.19776e-22)
(0.151852 -0.0387214 6.0016e-22)
(0.28658 -0.0741912 0)
(0.474414 -0.126215 -1.45746e-21)
(0.281175 -0.0722153 0)
(0.145168 -0.0365356 -5.54949e-22)
(0.0431817 -0.0117038 -1.79827e-22)
(0.0652308 -0.0121145 -2.63629e-22)
(0.0360221 -0.0088782 -5.5429e-22)
(0.0368817 -0.00910699 -5.66729e-22)
(0.688622 -0.191087 -4.81453e-21)
(0.852233 -0.243267 0)
(0.965827 -0.281078 -3.48239e-21)
(1.03494 -0.305041 0)
(1.06655 -0.317016 0)
(1.06589 -0.318992 2.65071e-24)
(1.03511 -0.312092 0)
(0.973974 -0.29642 9.0822e-24)
(0.881875 -0.271589 0)
(0.760054 -0.23748 -2.22269e-24)
(0.612766 -0.194718 -4.28826e-21)
(0.446912 -0.144751 2.28773e-24)
(0.270461 -0.089404 0)
(0.0903359 -0.030373 2.09048e-24)
(1.00046 -0.00119336 0)
(1.00601 0.00203343 1.58744e-20)
(1.01848 0.0130908 -7.14497e-21)
(1.03865 0.0330188 0)
(1.06738 0.0634705 -1.81237e-23)
(1.1086 0.107451 3.21318e-21)
(1.16673 0.16573 1.25166e-21)
(1.27612 0.253539 6.11034e-21)
(1.47185 0.289347 3.21908e-23)
(1.41603 0.162974 -9.3465e-20)
(0.674284 -0.033441 -9.258e-20)
(0.370394 -0.0179684 3.91995e-20)
(0.317541 -0.0143806 0)
(0.0974192 -0.0164098 9.96068e-21)
(0.231753 -0.0240789 1.44091e-20)
(0.0340616 -0.00868779 9.63611e-24)
(0.0315567 -0.00827283 0)
(0.0376338 -0.00958051 -4.91433e-22)
(0.0350725 -0.00890221 -6.09132e-22)
(0.141527 -0.0354504 -6.03709e-22)
(0.275683 -0.0710748 2.4952e-21)
(0.459909 -0.121983 5.454e-21)
(0.271762 -0.0697169 0)
(0.138744 -0.0346672 5.58668e-22)
(0.0339855 -0.00832761 0)
(0.0343432 -0.00855838 5.77681e-22)
(0.018168 -0.00320852 9.72124e-23)
(0.671501 -0.184997 0)
(0.835695 -0.236838 -6.99047e-24)
(0.952199 -0.275319 0)
(1.02503 -0.30044 0)
(1.0598 -0.313661 0)
(1.06107 -0.316664 2.39439e-21)
(1.03104 -0.310404 2.25791e-21)
(0.969869 -0.294988 -4.34592e-24)
(0.877426 -0.270197 0)
(0.755396 -0.236081 1.87322e-24)
(0.608344 -0.193388 4.06056e-21)
(0.443261 -0.14362 0)
(0.268038 -0.0886286 -2.04233e-24)
(0.0894599 -0.0300928 1.75548e-24)
(1.00039 -0.00260996 8.21735e-21)
(1.00581 -0.0025231 -8.01125e-21)
(1.0181 0.00496353 7.26246e-21)
(1.03804 0.0207217 -6.03224e-21)
(1.06652 0.0459584 0)
(1.1066 0.0825464 7.19653e-24)
(1.16288 0.130133 0)
(1.2529 0.194197 -9.35047e-21)
(1.41541 0.232402 -1.20024e-23)
(1.52887 0.172836 7.98969e-21)
(1.20158 0.0309264 5.39231e-20)
(0.481674 -0.0736913 -7.86331e-20)
(0.19353 -0.0283075 4.94881e-20)
(0.234827 -0.0473737 -2.02517e-20)
(0.117773 -0.0099974 0)
(0.159092 -0.0225848 1.45476e-23)
(0.0613814 -0.0134625 3.89895e-23)
(0.0335591 -0.00829488 5.50136e-22)
(0.0333734 -0.00816855 -5.41041e-22)
(0.136309 -0.0341109 5.36783e-22)
(0.267146 -0.0689011 -2.3009e-21)
(0.447759 -0.117859 1.21185e-21)
(0.26368 -0.0678245 -1.68183e-23)
(0.134241 -0.0335521 5.34429e-22)
(0.0328531 -0.00803171 -5.23402e-22)
(0.0329774 -0.00814015 -2.05897e-24)
(0.65572 -0.179588 -4.17754e-21)
(0.819753 -0.230906 7.04653e-24)
(0.938614 -0.269779 -2.76703e-24)
(1.01485 -0.295905 0)
(1.05265 -0.310381 -2.39575e-21)
(1.05589 -0.314421 -2.21727e-21)
(1.02671 -0.308735 -3.89361e-24)
(0.965583 -0.293538 -3.67387e-24)
(0.872885 -0.26879 1.76092e-24)
(0.750749 -0.234688 -3.62173e-21)
(0.603988 -0.192074 -3.72954e-21)
(0.439705 -0.14252 1.76897e-24)
(0.265705 -0.0878804 1.71387e-25)
(0.0886189 -0.0298222 -3.37533e-24)
(1.00032 -0.00396554 -8.28493e-21)
(1.00558 -0.00693356 0)
(1.0176 -0.00295365 8.31671e-25)
(1.03719 0.00877294 3.38748e-23)
(1.06513 0.0291994 3.54621e-24)
(1.10373 0.0594331 0)
(1.15698 0.0986666 1.25304e-24)
(1.23499 0.147587 3.01137e-22)
(1.36133 0.181138 7.15732e-21)
(1.50907 0.155205 5.77073e-20)
(1.46462 0.0663915 0)
(0.995936 -0.0437311 5.68916e-20)
(0.400274 -0.072379 -2.02722e-20)
(0.182784 -0.0369425 -2.66448e-22)
(0.170762 -0.0456966 4.69711e-21)
(0.0630756 -0.00909175 -1.95506e-22)
(0.06709 -0.0146507 -1.22346e-20)
(0.0779142 -0.0153427 1.28589e-20)
(0.0825405 -0.0233531 1.31343e-20)
(0.0229286 -0.00484837 0)
(0.0372453 -0.0098237 -9.37227e-21)
(0.0324644 -0.00801719 -5.12857e-22)
(0.0323492 -0.0079168 -5.04155e-22)
(0.132127 -0.0331076 1.52334e-21)
(0.260094 -0.0674113 -2.17611e-21)
(0.436286 -0.114454 5.90943e-21)
(0.258068 -0.0658023 -1.84307e-21)
(0.130005 -0.0326451 0)
(0.0318891 -0.00779655 1.91955e-24)
(0.031994 -0.00790027 -9.91722e-22)
(0.640593 -0.174601 -3.93525e-21)
(0.803981 -0.225216 -3.18758e-21)
(0.924859 -0.264282 2.77464e-24)
(1.00441 -0.291494 -4.60242e-24)
(1.04523 -0.307294 -3.20214e-25)
(1.05046 -0.312244 2.05036e-21)
(1.02214 -0.307047 3.88855e-24)
(0.961126 -0.292058 3.66911e-24)
(0.868273 -0.267369 1.7411e-21)
(0.746111 -0.233298 3.32372e-21)
(0.599715 -0.190784 0)
(0.436256 -0.141449 -1.7709e-24)
(0.263449 -0.0871551 1.87869e-24)
(0.0878113 -0.0295631 -3.25208e-21)
(1.00025 -0.00524647 0)
(1.00531 -0.0111687 2.1012e-24)
(1.017 -0.010633 0)
(1.03617 -0.00282651 6.20711e-21)
(1.06347 0.0131129 4.60022e-21)
(1.10053 0.0378393 -4.87769e-24)
(1.15043 0.070339 0)
(1.21973 0.10918 2.84857e-21)
(1.32073 0.138048 -1.38885e-20)
(1.45105 0.127593 -2.69064e-20)
(1.52818 0.0735813 6.42182e-23)
(1.34767 -0.0112167 0)
(0.844895 -0.0814827 -1.19747e-22)
(0.355658 -0.0663714 -7.96916e-20)
(0.170162 -0.0309903 -5.54648e-22)
(0.175074 -0.0402004 3.20416e-20)
(0.0913459 -0.0192621 -1.54411e-22)
(0.0871771 -0.0209248 0)
(0.0754602 -0.0175864 -5.6153e-21)
(0.0619203 -0.0204714 0)
(0.0111894 -0.00229098 8.02894e-21)
(0.0135913 -0.00394667 0)
(0.0170328 -0.0043444 -6.37196e-23)
(0.0146591 -0.00640289 -8.18069e-21)
(0.0315231 -0.00778981 4.75616e-22)
(0.0314092 -0.00768973 -4.69195e-22)
(0.128102 -0.0323923 2.29461e-21)
(0.253421 -0.0645684 -4.47809e-22)
(0.425484 -0.111391 5.49064e-21)
(0.250776 -0.0636525 -2.19445e-21)
(0.158152 -0.0420412 0)
(0.15835 -0.0409045 5.62153e-22)
(0.0308922 -0.00758442 -1.75946e-24)
(0.0310325 -0.00767124 -4.59074e-22)
(0.625389 -0.169747 3.66807e-21)
(0.787744 -0.219423 0)
(0.910909 -0.258839 0)
(0.993902 -0.287463 4.61312e-24)
(1.03774 -0.304373 -2.06972e-21)
(1.04485 -0.310071 1.89648e-21)
(1.01737 -0.305325 0)
(0.956518 -0.290549 -1.63953e-21)
(0.863606 -0.265938 0)
(0.741511 -0.231915 0)
(0.595537 -0.189517 0)
(0.432905 -0.140407 -3.25329e-21)
(0.26127 -0.0864551 3.28997e-21)
(0.0870334 -0.0293141 -2.84594e-24)
(1.00019 -0.00643576 0)
(1.00498 -0.0151924 -4.16589e-24)
(1.01628 -0.0180437 3.57479e-24)
(1.035 -0.0140866 0)
(1.06168 -0.00240561 -9.48232e-21)
(1.09735 0.0174651 2.72236e-21)
(1.1441 0.044444 1.39244e-24)
(1.20629 0.0761996 0)
(1.29079 0.101557 6.64389e-21)
(1.39689 0.0992518 -1.14191e-23)
(1.49901 0.0652504 0)
(1.4953 0.00619983 -1.34869e-22)
(1.22643 -0.0645072 -4.23473e-20)
(0.741605 -0.0965307 6.07568e-20)
(0.33458 -0.0640815 -9.43566e-20)
(0.156997 -0.0294705 3.32074e-20)
(0.15786 -0.0352364 -1.29928e-22)
(0.0621351 -0.0132846 -6.81118e-21)
(0.0900293 -0.0207393 -1.01196e-20)
(0.0899235 -0.0227235 9.95344e-21)
(0.0436477 -0.0101818 -1.33506e-22)
(0.0415054 -0.00934173 0)
(0.0252241 -0.00340272 3.84212e-21)
(0.0121382 -0.00411945 -8.49632e-21)
(0.0305707 -0.00755904 -4.49094e-22)
(0.0303477 -0.00757948 -4.39e-22)
(0.0938096 -0.0252668 -6.07123e-22)
(0.157222 -0.0398503 5.70799e-22)
(0.1567 -0.0393364 0)
(0.247658 -0.0631808 3.34495e-24)
(0.414367 -0.108265 -9.72306e-22)
(0.245103 -0.0622934 -1.63371e-21)
(0.155861 -0.0391159 5.53983e-22)
(0.155202 -0.0388574 5.49769e-22)
(0.093964 -0.0241743 -1.00878e-21)
(0.608853 -0.164576 0)
(0.770824 -0.213209 0)
(0.897144 -0.254054 0)
(0.98372 -0.283756 8.0027e-24)
(1.03028 -0.301522 -1.9062e-21)
(1.03907 -0.30789 0)
(1.01239 -0.303577 0)
(0.951792 -0.289019 0)
(0.858912 -0.264497 0)
(0.736962 -0.230544 0)
(0.591448 -0.188275 5.7026e-21)
(0.429647 -0.139393 -1.3739e-24)
(0.259164 -0.0857815 -3.18311e-21)
(0.0862891 -0.0290743 2.75256e-21)
(1.00013 -0.00751069 4.61037e-24)
(1.00458 -0.0189559 8.77988e-24)
(1.0154 -0.0251437 4.1661e-24)
(1.03366 -0.0250122 -3.54932e-24)
(1.0598 -0.0174603 9.95179e-21)
(1.09434 -0.00198875 -5.69923e-21)
(1.13843 0.0203826 0)
(1.19475 0.0469742 0)
(1.26756 0.0696809 -5.26583e-21)
(1.35546 0.0728167 0)
(1.44794 0.0508433 -1.20916e-20)
(1.51152 0.0101041 0)
(1.43685 -0.0465407 3.77115e-20)
(1.11962 -0.0968095 -8.58416e-23)
(0.673103 -0.101066 6.04188e-20)
(0.319601 -0.0626039 -3.61982e-20)
(0.161357 -0.0318429 -7.05991e-22)
(0.157519 -0.0350216 6.19775e-20)
(0.0584422 -0.0133554 -2.8778e-20)
(0.0570244 -0.0135959 7.02979e-21)
(0.0112925 -0.00241257 6.41036e-21)
(0.0451384 -0.0113702 -1.61838e-22)
(0.0114337 -0.00354363 0)
(0.0448912 -0.0116263 -8.41308e-21)
(0.0107166 -0.00304343 -6.01168e-21)
(0.0108344 -0.0030781 -5.94843e-21)
(0.00645851 -0.000871616 4.58093e-21)
(0.0306317 -0.0079572 4.2519e-22)
(0.0923193 -0.0232122 1.96097e-24)
(0.091745 -0.0228274 -5.01426e-22)
(0.154269 -0.03878 5.36312e-22)
(0.153604 -0.0385666 5.25508e-22)
(0.241943 -0.0617135 0)
(0.400841 -0.10461 -1.01473e-21)
(0.238871 -0.0606366 1.51311e-21)
(0.152686 -0.0384083 4.99475e-25)
(0.151948 -0.0381175 -5.00225e-25)
(0.0913062 -0.0226793 -9.83451e-22)
(0.0909207 -0.0225566 -4.90268e-22)
(0.0306015 -0.00769313 3.74263e-22)
(0.589447 -0.157895 0)
(0.754256 -0.208054 0)
(0.884396 -0.249801 8.50961e-24)
(0.973981 -0.28022 1.95849e-21)
(1.02281 -0.298726 0)
(1.03312 -0.305712 3.01427e-24)
(1.00727 -0.301808 0)
(0.946977 -0.287467 1.4117e-21)
(0.854213 -0.263052 -1.35895e-21)
(0.732475 -0.229187 -2.58326e-21)
(0.587457 -0.187061 2.67639e-21)
(0.426484 -0.138411 2.62931e-21)
(0.257134 -0.0851302 -2.76714e-21)
(0.0855684 -0.0288416 -2.28903e-24)
(1.00006 -0.00844154 0)