/*--------------------------------*- C++ -*----------------------------------*\
| =========                 |                                                 |
| \\      /  F ield         | OpenFOAM: The Open Source CFD Toolbox           |
|  \\    /   O peration     | Version:  v1912                                 |
|   \\  /    A nd           | Website:  www.openfoam.com                      |
|    \\/     M anipulation  |                                                 |
\*---------------------------------------------------------------------------*/
FoamFile
{
    version     2.0;
    format      ascii;
    class       surfaceScalarField;
    location    "180";
    object      phi;
}
// * * * * * * * * * * * * * * * * * * * * * * * * * * * * * * * * * * * * * //

dimensions      [0 3 -1 0 0 0 0];
oriented        oriented;


internalField   nonuniform List<scalar> 
7351
(
-3.34847e-06
0.00133984
-1.27718e-05
0.00411762
-2.62154e-06
0.00134243
-3.31279e-05
0.00693707
-1.30586e-05
0.00412802
-3.73327e-06
0.00134607
-6.05622e-05
0.00968564
-3.28583e-05
0.00695684
-1.38481e-05
0.00413804
-2.74708e-06
0.00134872
-9.41891e-05
0.0121811
-5.96159e-05
0.00971236
-3.14364e-05
0.00697436
-1.13004e-05
0.00414649
-2.81944e-06
0.00135143
-0.000143139
0.0142164
-9.4104e-05
0.0122155
-5.5252e-05
0.00973611
-2.99128e-05
0.00699289
-1.13217e-05
0.00415491
-2.79318e-06
0.00135417
-0.000185056
0.0155621
-0.000136651
0.0142589
-9.1303e-05
0.0122515
-5.49873e-05
0.00976113
-2.55549e-05
0.00700705
-1.11824e-05
0.00416325
-1.78257e-06
0.00135591
-0.000237406
0.0160634
-0.00018634
0.0156118
-0.000132736
0.0143003
-8.5703e-05
0.0122822
-4.53249e-05
0.00978085
-2.24247e-05
0.00701825
-9.18726e-06
0.00417063
-1.69332e-06
0.00135762
-0.000277754
0.0156187
-0.00023119
0.0161082
-0.000177743
0.0156568
-0.000120591
0.0143351
-7.09798e-05
0.0123078
-4.1114e-05
0.00979951
-1.94291e-05
0.00702848
-7.0956e-06
0.00417605
-1.5661e-06
0.0013592
-0.000312082
0.0142818
-0.000280341
0.0156678
-0.000219715
0.0161502
-0.000151175
0.0156873
-9.96096e-05
0.0143637
-6.37197e-05
0.0123304
-3.68199e-05
0.0098169
-1.78911e-05
0.00703929
-6.18228e-06
0.00418068
-1.60456e-06
0.00136081
-0.000336038
0.0121817
-0.000323862
0.0143254
-0.000260013
0.0157081
-0.000187135
0.0161861
-0.000130464
0.0157182
-8.27078e-05
0.0143827
-5.1961e-05
0.0123456
-2.73189e-05
0.00982634
-1.48906e-05
0.00704801
-6.65651e-06
0.00418573
-1.63285e-06
0.00136241
-0.000343331
0.00952504
-0.000352742
0.0122105
-0.00027834
0.0143436
-0.000207348
0.0157283
-0.000149088
0.0162047
-0.000104591
0.01574
-6.92054e-05
0.0144
-4.22308e-05
0.0123605
-2.68136e-05
0.00983828
-1.15069e-05
0.00705286
-4.06384e-06
0.00418814
-1.26147e-06
0.00136363
0.0065364
-0.00019322
-0.000114137
-0.000372574
0.00954492
-0.000287527
0.0122197
-0.000212624
0.0143489
-0.000160321
0.0157395
-0.000113442
0.0162136
-7.91297e-05
0.01575
-5.10574e-05
0.0144088
-3.52121e-05
0.0123689
-1.76172e-05
0.00984438
-1.15653e-05
0.00706033
-5.80035e-06
0.00419263
-6.61772e-07
0.00136424
0.00654104
-0.000176708
-0.000200508
-0.00214653
0.00210481
-0.00015152
-8.39471e-05
-0.000259881
0.00951721
-0.000191535
0.0121986
-0.000151846
0.0143404
-0.000111031
0.0157371
-8.78038e-05
0.0162223
-6.50535e-05
0.015764
-4.50682e-05
0.0144186
-3.02877e-05
0.0123815
-2.22295e-05
0.00985502
-1.11e-05
0.0070656
-4.59766e-06
0.00419654
-1.37959e-06
0.00136562
0.00647063
-5.95434e-05
-0.00012994
-0.00208698
0.00206317
-0.000152887
-0.000182666
-0.00137434
0.00131654
-6.20242e-05
-3.171e-05
-2.4781e-05
-0.000141399
0.00946713
-0.00011983
0.0121666
-9.60391e-05
0.0143255
-7.99009e-05
0.0157292
-6.28498e-05
0.0162201
-4.59258e-05
0.0157648
-3.92145e-05
0.0144276
-2.51538e-05
0.0123845
-1.67305e-05
0.00986063
-1.19811e-05
0.00707297
-5.37207e-06
0.00420053
-2.13122e-06
0.00136776
0.00638581
-1.08012e-05
-4.57778e-05
-0.00201481
0.00199148
-3.62265e-05
-8.15913e-05
-0.00129874
0.00125456
-3.87658e-05
-6.99337e-05
-8.27914e-05
-8.20687e-05
-0.00041581
0.000388868
-3.50875e-05
-0.00042967
-1.78561e-05
-9.64568e-06
-6.81932e-05
0.00941544
-6.57568e-05
0.0121363
-6.28096e-05
0.0143084
-5.14559e-05
0.0157178
-4.37356e-05
0.0162179
-3.77519e-05
0.0157634
-3.16049e-05
0.014434
-2.4615e-05
0.0123923
-2.12196e-05
0.00986986
-1.30869e-05
0.00708068
-7.40716e-06
0.00420582
-1.09875e-06
0.00136888
0.00633473
-5.00536e-07
-1.662e-05
-0.0019629
0.0019583
-6.19583e-06
-1.71882e-05
-0.00120182
0.00117157
-7.89806e-07
-5.19499e-06
-2.18638e-05
-6.99363e-06
-0.000319482
0.000300596
-1.98764e-05
-0.000342671
-4.67389e-05
0.000363751
-5.76711e-05
-6.09857e-05
-0.000237719
0.000212339
-9.71073e-06
-0.000251697
-3.88247e-06
-1.62473e-06
-3.54148e-05
0.00938517
-3.92186e-05
0.0121128
-3.77816e-05
0.0142947
-3.85952e-05
0.0157127
-3.23201e-05
0.0162124
-3.35343e-05
0.0157653
-2.60825e-05
0.0144355
-2.82625e-05
0.0123994
-2.06073e-05
0.00987739
-1.51003e-05
0.00708839
-7.15822e-06
0.00421189
-2.77544e-06
0.00137163
0.00630238
3.96134e-06
-7.0136e-06
-0.00194517
0.00194573
-1.06508e-06
-3.50035e-06
-0.00115585
0.00114967
1.04971e-06
-1.05861e-06
-1.80001e-06
3.31867e-07
-0.00027579
0.0002754
-4.01162e-07
-0.000280489
-5.00657e-07
0.000285383
-6.65503e-06
-2.10252e-06
-0.000107615
8.77396e-05
-0.000154352
0.000175238
-2.0569e-05
-4.00975e-05
-7.03778e-05
6.06662e-05
-7.42608e-05
-1.50636e-05
0.00936097
-2.42058e-05
0.0120991
-2.5473e-05
0.0142816
-2.30121e-05
0.0157034
-2.95368e-05
0.0162084
-2.58659e-05
0.0157651
-3.67189e-05
0.0144439
-3.33089e-05
0.0124121
-2.67367e-05
0.00988904
-1.81762e-05
0.0070994
-1.00747e-05
0.00421917
-1.87562e-06
0.00137347
0.00628807
3.60427e-06
-4.36041e-06
-0.00193949
0.00194262
8.42647e-07
-7.65709e-07
-0.00114619
0.00114485
2.61476e-07
1.1709e-08
-5.12534e-07
4.83123e-07
-0.000272914
0.000273762
2.0325e-07
-0.000274112
1.43124e-07
0.000273646
-4.32734e-08
-1.3264e-07
-7.84797e-05
7.8078e-05
-7.89811e-05
8.10837e-05
4.00975e-05
-6.63925e-06
0.00934346
-7.37058e-06
0.0120811
-1.31592e-05
0.0142718
-2.057e-05
0.0156944
-2.56622e-05
0.0162082
-3.70444e-05
0.0157654
-3.40096e-05
0.0144446
-3.64594e-05
0.0124218
-3.04922e-05
0.00990135
-1.99007e-05
0.00710922
-1.05209e-05
0.00422778
-2.59988e-06
0.00137603
0.00628068
1.82727e-06
-1.06939e-06
-0.00193839
0.00194144
5.55569e-07
-1.35266e-07
-0.00114379
0.00114455
-1.58308e-07
2.54272e-07
-1.03603e-07
3.99988e-07
-0.000273639
0.000273833
6.51375e-08
-0.000273765
1.33658e-07
0.000273473
-2.26749e-07
1.87659e-07
-7.80464e-05
7.82498e-05
-7.79027e-05
7.80353e-05
-6.25697e-07
0.00933666
-7.03e-06
0.0120749
-1.14732e-05
0.0142626
-1.52912e-05
0.015684
-2.80591e-05
0.0161993
-4.12081e-05
0.0157726
-5.06772e-05
0.0144589
-4.35484e-05
0.0124349
-3.62681e-05
0.0099177
-2.53714e-05
0.00712404
-1.10178e-05
0.00423616
-3.36516e-06
0.00137937
0.00627767
1.92155e-06
4.66709e-07
-0.00194059
0.00194111
1.31836e-06
-2.03485e-07
-0.00114388
0.00114446
1.39063e-07
-1.61245e-07
1.97115e-07
3.31663e-07
-0.000274353
0.000274164
3.44373e-08
-0.000274049
-4.53751e-08
0.000273724
8.58711e-09
7.68922e-08
-7.83426e-05
7.84073e-05
-7.82098e-05
7.80222e-05
-7.65663e-07
0.00933045
-1.43792e-07
0.0120636
-6.80525e-06
0.0142542
-2.59095e-05
0.0156819
-3.91968e-05
0.0161973
-5.00541e-05
0.015772
-5.85792e-05
0.0144739
-5.75758e-05
0.0124561
-4.63401e-05
0.00993865
-2.69104e-05
0.0071399
-1.11018e-05
0.00424387
-2.30912e-06
0.00138166
0.00627472
1.84873e-06
3.31725e-07
-0.00194139
0.00194191
1.4002e-06
1.83365e-07
-0.00114356
0.00114497
2.5089e-07
-3.34137e-07
3.14678e-07
3.87505e-07
-0.0002743
0.000274484
-4.31516e-08
-0.000274619
1.56011e-07
0.00027441
-5.04648e-08
1.20774e-07
-7.84488e-05
7.8484e-05
-7.84935e-05
7.84166e-05
5.08812e-06
0.00932518
9.96245e-08
0.0120567
-1.0718e-05
0.014239
-2.52259e-05
0.0156679
-4.99693e-05
0.0161972
-6.71417e-05
0.0157805
-7.2402e-05
0.0144887
-6.78419e-05
0.0124776
-4.94024e-05
0.00996112
-2.94079e-05
0.00715819
-1.41237e-05
0.00425567
-3.00777e-06
0.00138466
0.0062755
2.43153e-06
1.87918e-06
-0.00194139
0.00194299
2.53653e-07
8.5453e-07
-0.0011452
0.00114609
1.95476e-07
3.14833e-07
-3.21964e-07
2.71415e-07
-0.000274852
0.000275067
3.9532e-08
-0.000275321
1.39906e-07
0.000274791
1.13973e-08
-1.39118e-07
-7.87095e-05
7.86667e-05
-7.85539e-05
7.84331e-05
1.88534e-06
0.00932345
-3.2005e-06
0.0120492
-2.00017e-05
0.0142338
-4.33051e-05
0.0156613
-7.01651e-05
0.0162002
-9.15436e-05
0.0157997
-9.63907e-05
0.0145172
-7.92181e-05
0.0125074
-5.43179e-05
0.00998602
-2.9909e-05
0.00717396
-1.20837e-05
0.00426474
-3.31922e-06
0.00138799
0.0062752
3.31622e-07
1.85653e-06
-0.00194362
0.00194494
1.11131e-06
1.23894e-06
-0.00114679
0.00114663
2.5892e-07
1.65307e-07
-1.69075e-07
3.21828e-07
-0.000275143
0.000275581
-2.44126e-07
-0.000274988
1.56691e-07
0.000274815
-7.18329e-08
9.72465e-08
-7.86807e-05
7.87212e-05
-7.85399e-05
7.8679e-05
1.74271e-06
0.00931847
-6.47285e-06
0.0120357
-2.36646e-05
0.0142141
-5.93566e-05
0.0156504
-9.13721e-05
0.0162
-0.000111712
0.015815
-0.00010703
0.014545
-8.63122e-05
0.0125394
-5.92826e-05
0.0100154
-3.26266e-05
0.0071945
-1.33918e-05
0.00427483
-2.76913e-06
0.00139079
0.00627321
1.90905e-06
1.82639e-06
-0.00194664
0.00194567
1.31134e-06
1.611e-07
-0.00114782
0.00114894
-2.83679e-07
2.63673e-07
-2.84412e-07
3.29597e-07
-0.000275672
0.000275904
2.88502e-08
-0.000275596
9.13651e-08
0.000275415
-1.04996e-09
1.42999e-07
-7.89022e-05
7.86577e-05
-7.8746e-05
7.86488e-05
-5.6971e-07
0.00931261
-1.38725e-05
0.0120259
-4.61616e-05
0.0142009
-8.85831e-05
0.0156476
-0.000129099
0.0162174
-0.000138934
0.0158469
-0.000129588
0.0145883
-9.56e-05
0.0125757
-5.89658e-05
0.0100417
-3.17882e-05
0.00721291
-1.12722e-05
0.00428336
-1.84934e-06
0.00139266
0.00627048
4.25439e-07
1.73942e-06
-0.00194668
0.00194823
3.60789e-07
8.15243e-07
-0.00114845
0.00114979
-1.76357e-07
1.4733e-07
3.12206e-07
3.51055e-07
-0.000275992
0.000275971
-2.6333e-07
-0.000275833
1.01301e-07
0.000275611
6.19089e-09
1.06497e-07
-7.88921e-05
7.89212e-05
-7.88002e-05
7.86572e-05
-2.83375e-06
0.00930153
-2.45559e-05
0.0120043
-7.06626e-05
0.014183
-0.000127322
0.0156459
-0.000164051
0.0162425
-0.000171355
0.0158886
-0.000136479
0.0146292
-9.86398e-05
0.0126154
-6.07204e-05
0.0100707
-2.83249e-05
0.00722999
-1.07921e-05
0.00429233
-1.69754e-06
0.0013944
0.00626533
4.96656e-07
1.81956e-06
-0.00194889
0.00194898
3.42059e-07
1.0915e-06
-0.0011501
0.00115052
1.57654e-07
-2.15003e-07
3.33264e-07
1.72883e-07
-0.000276531
0.000276327
3.09936e-08
-0.000276439
5.87002e-08
0.00027626
2.6153e-08
1.73049e-07
-7.9134e-05
7.88705e-05
-7.90333e-05
7.89268e-05
-8.91044e-06
0.00928592
-4.58148e-05
0.0119794
-0.000110364
0.014166
-0.000171764
0.0156536
-0.000206614
0.0162778
-0.00018414
0.0159363
-0.000143507
0.0146741
-9.63109e-05
0.012651
-5.14933e-05
0.0100939
-2.39285e-05
0.00724315
-8.57236e-06
0.00429924
-1.35395e-06
0.00139578
0.00625548
-8.67486e-07
1.79854e-06
-0.00194987
0.00195002
3.43813e-07
9.33544e-07
-0.001151
0.00115143
2.61e-07
-3.47821e-07
3.20538e-07
3.02196e-07
-0.000276415
0.000276816
-2.41634e-07
-0.000276715
8.41314e-08
0.000276598
6.15889e-08
5.54754e-08
-7.91296e-05
7.91613e-05
-7.90703e-05
7.88972e-05
-1.81697e-05
0.00925824
-7.73646e-05
0.0119464
-0.000162701
0.014157
-0.000230216
0.0156772
-0.000231995
0.0163256
-0.000198057
0.0159909
-0.000143103
0.0147209
-8.64229e-05
0.012686
-4.67653e-05
0.0101167
-2.04689e-05
0.00725507
-5.62908e-06
0.00430354
-3.09758e-07
0.00139611
0.00623799
-2.57566e-06
1.90461e-06
-0.00195061
0.00194968
6.28163e-08
1.21076e-06
-0.0011523
0.00115217
1.51133e-07
3.22465e-07
3.36147e-07
-2.769e-07
-0.000276849
0.00027714
-2.61925e-08
-0.000277276
8.26949e-08
0.000277083
5.68358e-08
1.1094e-07
-7.93621e-05
7.91209e-05
-7.92782e-05
7.92227e-05
-3.8841e-05
0.00921975
-0.00013113
0.0119149
-0.00023579
0.0141626
-0.000277307
0.0157225
-0.000250607
0.0163782
-0.00018933
0.0160371
-0.000127203
0.0147617
-7.35718e-05
0.0127128
-3.87614e-05
0.010135
-1.68697e-05
0.00726633
-3.27441e-06
0.00430652
-1.61203e-07
0.00139629
0.00620566
-8.42338e-06
1.90701e-06
-0.00195131
0.00194858
1.47438e-07
2.74517e-07
-0.00115322
0.00115331
-1.49681e-07
1.20287e-07
2.96575e-07
-1.29305e-07
-0.000277477
0.000277561
6.72802e-08
-0.000277011
-1.45177e-07
0.000277407
6.77058e-08
1.17994e-07
-7.93729e-05
7.93476e-05
-7.92895e-05
7.91785e-05
-7.72706e-05
0.00916586
-0.000208931
0.011888
-0.000300682
0.0141859
-0.000298141
0.0157701
-0.000236382
0.0164253
-0.00017046
0.0160804
-0.000108226
0.0147963
-6.36608e-05
0.0127377
-3.24225e-05
0.0101506
-9.70378e-06
0.00727278
-2.47315e-06
0.00430885
8.36044e-07
0.00139548
0.00614822
-1.88743e-05
-9.43129e-07
-0.00195007
0.00194339
-1.73105e-06
4.16596e-07
-0.00115312
0.00115324
-2.92403e-07
3.2067e-07
3.03906e-07
1.60338e-07
-0.000277687
0.000277531
7.00109e-09
-0.000277679
1.1446e-07
0.000277851
7.948e-09
4.33522e-08
-7.93874e-05
7.94545e-05
-7.95329e-05
7.94149e-05
-0.000146756
0.00910373
-0.000310653
0.011898
-0.000343171
0.014231
-0.000286401
0.0158201
-0.000211102
0.0164659
-0.000142661
0.0161148
-8.80847e-05
0.0148208
-4.82725e-05
0.0127536
-1.98355e-05
0.0101607
-5.78545e-06
0.0072761
1.49731e-06
0.00430821
1.21655e-06
0.00139428
0.0060584
-4.62067e-05
-1.07255e-05
-0.00194406
0.00192937
-4.18501e-06
-1.61175e-06
-0.00115345
0.00115169
-1.10408e-07
1.34968e-07
3.09502e-07
-9.95243e-08
-0.00027833
0.000277979
5.81427e-08
-0.000277879
-1.33024e-07
0.000277822
1.11176e-08
1.02768e-07
-7.9621e-05
7.96282e-05
-7.95061e-05
7.94628e-05
-0.000277848
0.0090709
-0.000370691
0.0119255
-0.000320062
0.0142647
-0.000239655
0.0158487
-0.000170834
0.0164941
-0.000108771
0.0161355
-6.48212e-05
0.0148373
-3.43613e-05
0.0127681
-1.14088e-05
0.0101664
-9.94065e-07
0.00727861
3.08225e-06
0.00430636
1.55804e-06
0.00139274
0.00595633
-0.000121709
-5.40545e-05
-0.00192596
0.00189598
-1.6215e-05
-7.30591e-06
-0.00115003
0.00114579
-2.39826e-07
3.02857e-07
3.01633e-07
-2.50674e-07
-0.000278143
0.000278228
-1.9301e-07
-0.000278124
1.17322e-07
0.000278274
1.56296e-08
5.17025e-08
-7.96081e-05
7.9666e-05
-7.97416e-05
7.96388e-05
-0.000386223
0.0090865
-0.000338022
0.0119435
-0.00025422
0.0142793
-0.000184932
0.0158628
-0.000125059
0.0165104
-8.12991e-05
0.016152
-4.32912e-05
0.0148463
-1.75911e-05
0.0127743
-4.8296e-06
0.0101702
3.10472e-06
0.0072786
3.60864e-06
0.00430432
2.84913e-06
0.0013899
0.00594999
-0.000209148
-0.000170717
-0.00187162
0.00181323
-6.33094e-05
-2.96993e-05
-0.0011387
0.00112394
-1.55539e-06
1.07617e-07
3.59836e-07
-5.68994e-07
-0.000278403
0.000278098
6.77795e-08
-0.000278163
6.30683e-08
0.000278516
1.32216e-08
1.02469e-07
-7.98514e-05
7.96589e-05
-7.97337e-05
7.9682e-05
-0.000333997
0.00908245
-0.000239864
0.0119291
-0.000176421
0.0142707
-0.000130522
0.0158683
-9.00338e-05
0.0165192
-5.69133e-05
0.0161657
-3.02695e-05
0.014859
-1.09293e-05
0.0127804
3.81947e-06
0.0101695
6.62308e-06
0.00727559
7.19665e-06
0.00429999
3.39932e-06
0.00138652
0.00589357
-9.76652e-05
-0.000179879
-0.00177583
0.00174379
-0.000177084
-0.000133313
-0.00109831
0.0010478
-1.08401e-05
-1.96154e-06
-4.37281e-07
-3.63059e-06
-0.000277899
0.000276594
-2.47151e-07
-0.000277956
1.67998e-07
0.000278409
5.14951e-08
-1.13763e-07
-7.98376e-05
7.99062e-05
-7.97746e-05
7.96721e-05
-0.000183054
0.00902571
-0.0001477
0.0119005
-0.000117827
0.0142581
-8.54751e-05
0.0158637
-5.86569e-05
0.0165209
-3.26335e-05
0.016168
-1.43661e-05
0.0148624
-3.72832e-07
0.0127846
7.97599e-06
0.0101682
1.30758e-05
0.00726972
1.00905e-05
0.00429331
3.80346e-06
0.00138272
0.00579047
-1.78708e-05
-6.20729e-05
-0.00169911
0.00165897
-5.75084e-05
-0.000135201
-0.000966865
0.000919478
-6.61375e-05
-6.35471e-05
-1.44916e-05
-3.78807e-05
-0.000271582
0.000262544
-1.80124e-06
-0.000272957
-5.87821e-07
0.000276365
-2.08945e-07
-2.22307e-07
-8.00136e-05
7.97673e-05
-7.98447e-05
7.99585e-05
-8.5674e-05
0.00896365
-8.21597e-05
0.0118648
-7.0385e-05
0.014243
-5.35308e-05
0.0158586
-3.47487e-05
0.016523
-1.60248e-05
0.0161697
-9.09689e-07
0.014863
1.19561e-05
0.0127806
1.59729e-05
0.0101653
1.46427e-05
0.00726518
9.5853e-06
0.00428754
4.81066e-06
0.00137792
0.00572318
5.3512e-08
-1.83931e-05
-0.00161985
0.00160918
-7.17536e-06
-2.2947e-05
-0.000852615
0.00080317
-1.34609e-06
-6.7062e-06
-4.87371e-05
-1.96005e-05
-0.000183202
0.000157448
-4.03797e-05
-0.000224361
-2.23848e-05
0.000252097
-4.04148e-06
-1.01427e-05
-7.87479e-05
7.6947e-05
-7.93359e-05
7.95582e-05
-4.08703e-05
0.00892246
-4.37892e-05
0.0118383
-3.937e-05
0.0142289
-3.0283e-05
0.0158542
-1.68896e-05
0.0165239
-3.57801e-06
0.0161724
1.2678e-05
0.0148622
1.58664e-05
0.0127807
2.08108e-05
0.0101591
1.76621e-05
0.00725711
1.36244e-05
0.00427873
5.04697e-06
0.00137288
0.00568653
3.17616e-06
-7.38341e-06
-0.00159447
0.00159494
-3.95235e-07
-3.67651e-06
-0.000780932
0.000773768
2.80427e-07
-2.77376e-07
-7.29744e-07
2.69904e-08
-8.24045e-05
8.10599e-05
-8.91104e-05
0.000108711
-4.03793e-05
-6.27635e-05
7.29062e-05
-1.85696e-05
0.0088972
-2.26888e-05
0.0118215
-1.95993e-05
0.0142182
-8.54915e-06
0.0158458
-4.49355e-07
0.0165208
1.21695e-05
0.0161729
1.56474e-05
0.0148625
2.53321e-05
0.0127762
2.50049e-05
0.0101518
2.3257e-05
0.00724749
1.56535e-05
0.00426813
5.84007e-06
0.00136705
0.00566875
3.76692e-06
-4.50892e-06
-0.00158863
0.00159076
1.07098e-06
-1.05553e-06
-0.000770021
0.000769589
1.13295e-07
-6.09739e-08
-4.71092e-08
1.19793e-07
-8.00825e-05
8.03651e-05
-8.03585e-05
8.03315e-05
-5.12375e-06
0.00887972
-9.20189e-06
0.0118112
-4.61688e-06
0.0142143
2.389e-06
0.015843
1.33537e-05
0.0165196
1.94322e-05
0.0161691
3.164e-05
0.0148562
3.25992e-05
0.0127686
3.25292e-05
0.0101425
2.77582e-05
0.00723539
1.73421e-05
0.00425663
6.74437e-06
0.00136031
0.00566254
3.36142e-06
-2.26816e-06
-0.00158623
0.00158999
3.06516e-08
3.23233e-08
-0.000768286
0.000769308
1.89899e-07
-1.20079e-07
9.43921e-08
1.61777e-07
-8.03782e-05
8.04944e-05
-8.04385e-05
8.03187e-05
-8.59143e-07
0.00887133
1.29394e-06
0.0118053
4.42679e-06
0.0142122
1.0841e-05
0.0158455
2.32363e-05
0.0165158
3.02364e-05
0.0161705
3.17627e-05
0.014857
3.61582e-05
0.012765
3.48887e-05
0.0101354
3.10539e-05
0.00722168
2.05547e-05
0.00424283
7.70618e-06
0.0013526
0.00566019
2.66426e-06
-1.14254e-06
-0.00158744
0.00159001
8.23283e-07
2.93658e-07
-0.00076919
0.000769359
3.23792e-08
-1.53174e-07
7.93213e-08
7.5342e-08
-8.06345e-05
8.08278e-05
-8.07525e-05
8.05908e-05
2.1314e-06
0.00887058
8.03046e-06
0.0118017
1.47671e-05
0.0142083
2.22823e-05
0.0158465
2.64044e-05
0.0165197
4.01624e-05
0.0161621
4.61074e-05
0.0148471
4.83066e-05
0.0127516
4.2622e-05
0.0101238
3.5738e-05
0.0072065
2.29177e-05
0.00422762
8.64345e-06
0.00134396
0.00565972
2.71206e-06
-1.20195e-07
-0.0015891
0.00159092
8.51172e-07
-2.3124e-07
-0.000769552
0.000770472
4.83676e-08
-1.28578e-07
4.89789e-08
6.13935e-08
-8.08314e-05
8.08674e-05
-8.09835e-05
8.09082e-05
6.58653e-06
0.00887196
1.30985e-05
0.0118033
1.73731e-05
0.0142132
3.13839e-05
0.0158415
4.15634e-05
0.0165183
4.66301e-05
0.0161616
4.9337e-05
0.014846
5.34187e-05
0.0127408
5.04085e-05
0.0101092
4.10034e-05
0.00718841
2.66126e-05
0.00420965
9.48315e-06
0.00133448
0.00566354
2.8204e-06
-1.74532e-08
-0.00159021
0.00159237
5.6798e-07
5.96726e-07
-0.000770116
0.000770952
-5.53278e-08
7.55447e-08
5.4077e-08
7.23663e-08
-8.08536e-05
8.09049e-05
-8.098e-05
8.09186e-05
7.94778e-06
0.0088772
1.46311e-05
0.0118062
2.70316e-05
0.0142176
3.46169e-05
0.0158485
4.35579e-05
0.0165213
5.39924e-05
0.0161569
6.13718e-05
0.0148381
6.03134e-05
0.0127309
5.78157e-05
0.0100924
4.47068e-05
0.00717032
2.95825e-05
0.00418955
1.07645e-05
0.00132371
0.00566731
2.99802e-06
1.16935e-06
-0.00159172
0.00159394
6.07224e-07
6.35876e-07
-0.000771419
0.00077189
5.47164e-08
4.9111e-08
5.58203e-08
7.89689e-08
-8.11075e-05
8.10538e-05
-8.10316e-05
8.09592e-05
9.91498e-06
0.00888185
1.90914e-05
0.011814
2.82031e-05
0.014224
4.12023e-05
0.0158508
5.46385e-05
0.0165207
6.22778e-05
0.016156
7.0511e-05
0.0148279
6.95771e-05
0.0127191
6.51945e-05
0.0100719
5.32782e-05
0.00714662
3.19413e-05
0.00416837
1.15948e-05
0.00131212
0.00567402
3.00613e-06
2.32188e-07
-0.00159444
0.00159669
7.64346e-07
6.73716e-07
-0.000772594
0.000773097
5.91013e-08
4.75053e-08
-1.2594e-07
5.73966e-08
-8.12403e-05
8.12966e-05
-8.11899e-05
8.11109e-05
1.1235e-05
0.0088898
2.11696e-05
0.0118211
3.45507e-05
0.0142307
4.6014e-05
0.0158594
6.10163e-05
0.0165219
7.16244e-05
0.0161549
7.70413e-05
0.0148204
8.34125e-05
0.0127009
7.45123e-05
0.0100506
5.95456e-05
0.00711902
3.70621e-05
0.0041429
1.17695e-05
0.00130035
0.00568087
3.0605e-06
1.31673e-06
-0.00159621
0.00159852
7.09905e-07
7.10628e-07
-0.000773586
0.000774355
9.6829e-08
-9.19301e-08
5.78886e-08
1.31635e-07
-8.12753e-05
8.13358e-05
-8.12279e-05
8.11705e-05
1.12864e-05
0.00889961
2.37625e-05
0.0118319
4.06644e-05
0.014236
5.80361e-05
0.0158624
7.12587e-05
0.0165223
8.48228e-05
0.0161471
9.24758e-05
0.0148113
9.16924e-05
0.0126837
8.47963e-05
0.0100254
6.50608e-05
0.00709102
3.92781e-05
0.0041154
9.99732e-06
0.00129035
0.00568929
2.71139e-06
1.77118e-07
-0.00159912
0.00160148
7.24686e-07
7.22287e-07
-0.000774926
0.000775712
5.26798e-08
-1.22525e-07
6.24984e-08
7.84795e-08
-8.14363e-05
8.15353e-05
-8.15268e-05
8.13952e-05
1.26839e-05
0.00891076
2.7841e-05
0.0118447
4.52686e-05
0.0142488
6.4329e-05
0.0158693
7.98524e-05
0.0165273
9.27863e-05
0.0161468
0.000104223
0.0147988
0.000100159
0.0126684
9.35574e-05
0.00999688
7.38556e-05
0.00705644
4.16622e-05
0.00408373
1.22522e-05
0.00127811
0.00570011
1.11914e-06
7.17543e-07
-0.00160103
0.00160331
4.33885e-07
6.22407e-07
-0.000776307
0.000777101
-1.06822e-07
4.63967e-08
5.74957e-08
7.5633e-08
-8.15543e-05
8.16091e-05
-8.16766e-05
8.15981e-05
1.58374e-05
0.00892268
3.22927e-05
0.0118577
5.44698e-05
0.0142586
7.05565e-05
0.0158786
9.11915e-05
0.0165289
0.000106374
0.0161447
0.000115341
0.0147836
0.00011808
0.0126439
0.000104743
0.00996599
7.93315e-05
0.00701877
4.1622e-05
0.00405437
3.02583e-05
0.00124785
0.00571145
2.59602e-06
1.90603e-06
-0.00160422
0.00160715
-1.81371e-06
-1.78235e-07
-0.000777585
0.000777829
1.16392e-07
7.56952e-08
5.33064e-08
8.50709e-08
-8.17918e-05
8.16871e-05
-8.17438e-05
8.16682e-05
1.96437e-05
0.00893541
3.90717e-05
0.0118731
5.79962e-05
0.0142712
8.2842e-05
0.015887
0.000104166
0.0165311
0.000121786
0.0161382
0.000130576
0.0147711
0.000126268
0.0126223
0.000116179
0.00992915
8.39328e-05
0.00697646
7.13244e-05
0.0040133
7.2022e-05
0.00572147
5.50554e-06
4.08495e-06
-0.00161257
0.00161014
-1.45082e-06
6.45789e-06
-3.51567e-06
-0.000777753
0.000775943
1.49282e-08
-1.89445e-08
2.33902e-08
-1.2139e-07
-8.19013e-05
8.20192e-05
-8.18256e-05
8.17405e-05
2.40677e-05
0.00895034
4.10012e-05
0.01189
6.56994e-05
0.0142883
8.92405e-05
0.0159019
0.000113575
0.0165393
0.000132479
0.0161363
0.000144018
0.0147534
0.000144888
0.0125936
0.000123879
0.0098892
0.000111033
0.00693676
0.000132112
0.00573488
5.50458e-06
5.16375e-06
-0.00161277
0.00161453
2.33381e-06
1.40323e-06
2.01321e-06
-5.54016e-07
-0.000483023
0.000488396
-6.82552e-06
-0.000457945
-1.86255e-05
0.000314741
-2.21613e-08
-2.45048e-07
-8.19046e-05
8.19203e-05
-8.19224e-05
8.20438e-05
2.37298e-05
0.00896769
4.79587e-05
0.0119078
7.35964e-05
0.014304
0.000105875
0.0159096
0.000132977
0.0165388
0.00015193
0.0161284
0.000161869
0.0147364
0.000158352
0.0125591
0.000150755
0.00984948
0.000174375
0.00574995
4.31306e-06
4.30818e-06
-0.00161659
0.00161989
1.42274e-06
7.702e-07
1.85997e-06
1.24822e-06
-0.000493748
0.000494872
1.21442e-06
-0.000492909
5.63764e-07
-0.000490204
-6.88447e-07
-2.36198e-06
-0.000293067
0.000287596
-1.35965e-06
3.0462e-06
8.18961e-05
8.16493e-05
2.69461e-05
0.00898864
5.23628e-05
0.011929
8.39715e-05
0.0143259
0.00011475
0.0159278
0.000142774
0.016548
0.000167985
0.0161223
0.000173834
0.0147209
0.000182622
0.0125273
0.000205524
0.00576668
4.73719e-06
5.4993e-06
-0.00162225
0.00162487
1.04786e-06
6.40192e-07
1.34293e-06
6.06374e-07
-0.000497063
0.000497692
7.97134e-07
-0.000496522
2.28315e-07
-0.000495462
8.02607e-07
6.59176e-07
-0.000286478
0.000287597
9.44132e-08
-0.000285968
5.7326e-08
-0.00028629
-3.65403e-07
-1.0563e-06
-8.46955e-05
8.3334e-05
2.96239e-05
0.00901146
6.04809e-05
0.0119526
9.51235e-05
0.0143455
0.00013178
0.0159388
0.000162193
0.0165537
0.000178976
0.0161172
0.000203417
0.0147001
0.000223719
0.00578514
5.16905e-06
5.95824e-06
-0.00162849
0.00163134
1.15323e-06
7.21402e-07
1.14183e-06
7.35117e-07
-0.000499004
0.000499518
5.35367e-07
-0.00049877
4.04383e-07
-0.000497645
2.20837e-07
6.53127e-07
-0.000288588
0.000289221
1.61269e-07
-0.000288546
1.88969e-07
-0.000287992
2.50602e-07
2.65178e-07
-8.19699e-05
8.20653e-05
-8.19121e-05
-8.22777e-05
3.54624e-05
0.00903641
6.66272e-05
0.011981
0.000107057
0.0143702
0.000144415
0.0159566
0.000171978
0.0165607
0.000206874
0.0161137
0.000229231
0.00580921
5.83326e-06
5.57519e-06
-0.00163526
0.00163845
1.18324e-06
7.94329e-07
1.22322e-06
8.12344e-07
-0.000500883
0.000501829
2.08548e-07
-0.000500623
4.59343e-07
-0.000499933
4.52318e-07
3.20722e-07
-0.000290269
0.000290687
1.13675e-07
-0.00028998
1.17887e-07
-0.000289716
-4.29537e-08
1.58421e-07
-8.27708e-05
8.29325e-05
-8.25813e-05
-8.23305e-05
3.80177e-05
0.00906511
7.87133e-05
0.0120094
0.000121541
0.0143931
0.000157116
0.0159714
0.000195333
0.0165723
0.000218199
0.00583346
6.3931e-06
7.35033e-06
-0.00164163
0.00164544
1.30696e-06
7.07064e-07
1.50393e-06
8.88998e-07
-0.000503318
0.000503907
5.95618e-07
-0.0005026
7.44716e-08
-0.000501873
4.98392e-07
7.6909e-07
-0.00029171
0.000291781
1.34312e-07
-0.00029121
-3.91916e-08
-0.000290886
1.29121e-07
1.21248e-07
-8.31658e-05
8.32794e-05
-8.30478e-05
-8.30909e-05
4.5439e-05
0.00909831
8.87554e-05
0.0120421
0.000130673
0.0144195
0.000170712
0.015996
0.000193265
0.00586264
7.54249e-06
8.74341e-06
-0.00165008
0.00165407
1.49681e-06
8.97669e-07
1.64848e-06
1.0593e-06
-0.000505607
0.000506252
6.62902e-07
-0.000505396
4.93198e-07
-0.000504031
1.39142e-07
7.65064e-07
-0.00029267
0.000293325
-6.30687e-08
-0.000292715
1.2218e-07
-0.000292365
1.48373e-07
1.84488e-07
-8.34902e-05
8.36245e-05
-8.35295e-05
-8.34007e-05
5.39432e-05
0.00913318
0.000103663
0.0120691
0.000141986
0.0144482
0.000154513
0.00589724
9.56546e-06
9.75589e-06
-0.0016597
0.00166445
1.67673e-06
1.11817e-06
1.85915e-06
1.26042e-06
-0.000508212
0.000509217
4.94286e-07
-0.00050791
5.94734e-07
-0.000506858
5.98182e-07
4.53002e-07
-0.000294264
0.000294954
-2.99247e-08
-0.000293963
1.92831e-07
-0.000293951
1.26406e-07
1.38398e-07
-8.40794e-05
8.4016e-05
-8.39571e-05
-8.3809e-05
6.79179e-05
0.00916887
0.00010786
0.0121032
0.000111924
0.00593781
1.41089e-05
1.3259e-05
-0.00167064
0.00167702
1.3257e-06
1.85964e-06
1.52183e-06
2.04772e-06
-0.000511614
0.000512356
9.39444e-07
-0.000510791
2.96312e-07
-0.000509642
7.12793e-07
8.35746e-07
-0.000296116
0.000296436
1.73147e-07
-0.000295691
1.71115e-07
-0.000295255
1.62361e-07
1.50789e-07
-8.44729e-05
8.44427e-05
-8.42803e-05
-8.41544e-05
7.88531e-05
0.00919792
6.8572e-05
0.00597596
2.26254e-05
1.81198e-05
-0.00168546
0.00169346
3.33316e-06
2.78209e-06
2.39743e-06
2.43111e-06
-0.00051571
0.00051604
1.00165e-06
-0.000514623
7.75537e-07
-0.000513486
3.87282e-07
9.18887e-07
-0.000297862
0.00029862
1.82075e-07
-0.00029774
1.76651e-07
-0.000297051
2.51727e-08
2.20757e-07
-8.49265e-05
8.51e-05
-8.47554e-05
-8.45934e-05
3.9836e-05
1.39554e-05
4.1017e-05
-0.00170367
0.0017144
7.20331e-06
4.71754e-06
3.9719e-06
3.94452e-06
-0.000520835
0.000522287
1.88696e-06
-0.000519232
1.18223e-06
-0.000517427
5.96805e-07
1.04641e-06
-0.000300285
0.000301103
1.88082e-07
-0.000299529
2.35935e-08
-0.000299338
1.98363e-07
2.01211e-07
-8.55231e-05
8.57064e-05
-8.5346e-05
-8.53208e-05
-0.00173149
8.18985e-06
2.07713e-05
1.43181e-05
9.62273e-06
-0.000528704
0.000532316
3.60234e-06
-0.000526355
2.37393e-06
-0.000524569
2.19037e-06
1.66402e-06
-0.000303197
0.000304717
3.71629e-07
-0.000302302
2.91273e-07
-0.000301933
2.32062e-07
2.18242e-07
-8.61307e-05
8.63214e-05
-8.61064e-05
-8.59076e-05
-0.000545515
1.27687e-05
-0.000539522
1.47898e-05
-0.000535229
1.00326e-05
6.71343e-06
-0.000309374
0.000312026
9.5659e-07
-0.000307577
5.80577e-07
-0.000305968
5.85097e-07
4.14003e-07
-8.70658e-05
8.74397e-05
-8.67731e-05
-8.65396e-05
-0.000327172
2.0105e-05
-0.000322161
9.78327e-06
-0.000316756
4.63367e-06
1.9853e-06
-8.90218e-05
8.99813e-05
-8.84399e-05
-8.78537e-05
-0.000106387
-9.66019e-05
-9.19666e-05
-1.21453e-05
1.21541e-05
6.10301e-06
-1.82812e-05
-5.17921e-05
4.64185e-05
1.75471e-05
1.64059e-05
-6.21482e-05
3.00439e-06
-2.13138e-05
1.42627e-05
3.22023e-05
-0.000103091
9.73058e-05
2.33541e-05
2.45571e-05
-0.000111297
1.00276e-05
-6.92412e-05
1.30736e-06
-2.26732e-05
1.96225e-05
9.19848e-05
5.99659e-06
2.62434e-05
-0.000360355
5.31061e-05
0.000350163
-1.56336e-05
5.17772e-05
-0.00037215
-0.000116932
5.82008e-06
-7.38415e-05
6.93884e-07
-2.34084e-05
1.26495e-05
8.53555e-05
1.88667e-06
2.43593e-05
-3.08609e-05
-0.00127087
0.00125468
0.000100268
-5.13743e-06
0.000337077
-3.50289e-05
0.000107211
-0.00129188
-1.18289e-05
-0.000388896
-6.60608e-06
-0.000122964
3.46039e-06
-7.6659e-05
9.13931e-08
-2.35074e-05
8.20913e-05
9.41242e-07
2.33789e-05
-1.98382e-05
6.60071e-05
-0.00176951
0.00175278
0.000117043
-3.87558e-06
-1.17835e-06
0.000127349
-0.00178997
-2.02298e-05
8.37413e-05
-0.00134158
-1.45129e-05
-0.000402474
-4.25984e-06
-2.49066e-06
-0.000126108
1.4388e-06
-7.80072e-05
1.99967e-07
-2.37117e-05
7.91411e-05
3.44246e-07
2.29986e-05
9.85575e-05
-0.00204235
0.00202274
0.000136743
7.82962e-05
0.00014981
-0.00206508
0.000126923
-0.0018337
7.49958e-05
-8.51151e-06
-0.00139693
-1.17511e-05
-0.000412509
-2.46938e-06
-2.06649e-06
-0.000128938
-1.06196e-06
-0.000130387
-7.8874e-05
1.75736e-07
-2.3902e-05
6.86798e-08
0.000124975
-0.00207652
0.00205972
0.000153666
0.000167876
-0.00209485
0.000164085
-0.00210274
0.000135154
-0.00189432
-0.000418437
-8.50326e-07
-1.78469e-06
9.20448e-05
-1.03077e-05
-0.00146123
-1.76733e-05
-0.000426766
-2.38197e-06
-1.07655e-06
-0.000131883
-9.94886e-07
-0.000133001
-9.47396e-07
-7.96975e-05
2.05643e-07
-2.41084e-05
0.000145423
-0.00184816
0.00184067
0.000161275
0.00017388
-0.00185436
0.000190057
-0.00212132