/*--------------------------------*- C++ -*----------------------------------*\
| =========                 |                                                 |
| \\      /  F ield         | OpenFOAM: The Open Source CFD Toolbox           |
|  \\    /   O peration     | Version:  v1912                                 |
|   \\  /    A nd           | Website:  www.openfoam.com                      |
|    \\/     M anipulation  |                                                 |
\*---------------------------------------------------------------------------*/
FoamFile
{
    version     2.0;
    format      ascii;
    class       surfaceScalarField;
    location    "220";
    object      phi;
}
// * * * * * * * * * * * * * * * * * * * * * * * * * * * * * * * * * * * * * //

dimensions      [0 3 -1 0 0 0 0];
oriented        oriented;


internalField   nonuniform List<scalar> 
7194
(
-1.80679e-06
0.00131915
0.00395958
-1.95691e-06
0.00132111
-9.08109e-06
0.0039667
-2.10883e-06
0.00132322
-2.41653e-05
0.00657195
-9.46531e-06
0.00397406
-2.11223e-06
0.00132533
-4.4774e-05
0.00905001
-2.40315e-05
0.00658651
-9.46795e-06
0.00398142
-1.99338e-06
0.00132732
-7.49802e-05
0.0112891
-4.80371e-05
0.00907401
-2.35526e-05
0.0066006
-9.34167e-06
0.00398876
-2.0353e-06
0.00132936
-0.000115648
0.0131525
-7.90056e-05
0.0113201
-4.53297e-05
0.00909579
-2.41665e-05
0.00661542
-9.72476e-06
0.00399645
-1.71917e-06
0.00133108
-0.000161962
0.0145126
-0.000119312
0.0131928
-7.88966e-05
0.0113537
-4.63117e-05
0.00911793
-2.17477e-05
0.00662745
-8.08375e-06
0.00400282
-1.59538e-06
0.00133267
-0.000208105
0.0152574
-0.000164883
0.0145582
-0.000117661
0.0132316
-7.32213e-05
0.0113806
-4.13896e-05
0.00913758
-1.9552e-05
0.00663892
-7.26474e-06
0.00400849
-1.49173e-06
0.00133417
-0.000249298
0.0153171
-0.000214275
0.0153068
-0.000162228
0.0146028
-0.000112369
0.0132707
-7.06225e-05
0.0114098
-3.77511e-05
0.00915577
-1.82152e-05
0.00664987
-6.64239e-06
0.00401364
-1.16603e-06
0.00133533
-0.000279626
0.0146574
-0.000258226
0.015361
-0.000211274
0.0153558
-0.000155732
0.0146461
-0.000100865
0.013301
-6.16609e-05
0.0114337
-3.35236e-05
0.00917108
-1.55243e-05
0.00665875
-4.57337e-06
0.00401705
-1.17997e-06
0.00133651
-0.000293038
0.0133138
-0.000300531
0.0146997
-0.000258167
0.0154079
-0.000197629
0.0153977
-0.000136898
0.0146822
-9.1982e-05
0.0133313
-5.42465e-05
0.0114544
-2.9911e-05
0.00918547
-1.41715e-05
0.00666835
-5.1992e-06
0.00402107
-8.47542e-07
0.00133736
-0.000286226
0.0113695
-0.000330928
0.0133442
-0.000296519
0.0147381
-0.000237137
0.0154474
-0.000173326
0.0154341
-0.00012243
0.0147126
-7.83846e-05
0.0133554
-4.74937e-05
0.011472
-2.56426e-05
0.00919694
-1.08947e-05
0.00667404
-4.57838e-06
0.0040248
-7.53075e-07
0.00133811
-0.000245817
0.0089586
-0.00035086
0.0113894
-0.00032678
0.0133745
-0.000263549
0.0147645
-0.000200878
0.015475
-0.000149162
0.0154609
-0.000102303
0.0147365
-6.57142e-05
0.0133736
-3.94416e-05
0.0114858
-2.14356e-05
0.00920748
-1.13753e-05
0.00668084
-4.17282e-06
0.00402822
-7.89205e-07
0.0013389
-5.06037e-05
0.00623406
-0.000109739
-0.000357517
0.00896526
-0.000344053
0.0114067
-0.000276211
0.0133871
-0.000217285
0.0147809
-0.00016647
0.0154923
-0.000119478
0.0154781
-8.41074e-05
0.0147549
-5.79096e-05
0.0133921
-3.63103e-05
0.0115007
-2.06347e-05
0.00921674
-1.02442e-05
0.00668691
-4.01171e-06
0.00403144
-7.73896e-07
0.00133968
0.00211577
-0.00213392
-3.24538e-05
-0.000141678
0.00622
-0.000201779
0.00206982
-6.3789e-05
-0.000349335
0.00897054
-0.000268893
0.0113993
-0.000211426
0.0133813
-0.000166817
0.0147812
-0.000129379
0.0155022
-0.000101086
0.015495
-7.35223e-05
0.0147705
-4.7735e-05
0.0134035
-3.02428e-05
0.0115103
-1.74173e-05
0.00922391
-8.6914e-06
0.00669159
-3.88924e-06
0.00403455
-8.41707e-07
0.00134052
-2.00633e-05
0.00139512
-0.00142003
-9.07647e-07
-6.64147e-06
0.00203919
-0.000111051
-0.000195222
0.00620575
-0.000139867
0.00201142
-0.000174007
0.00135174
-1.54995e-05
-4.90545e-06
-0.000228048
0.0089297
-0.000183571
0.0113715
-0.000153902
0.0133683
-0.000128545
0.0147804
-0.00010509
0.0155062
-8.05613e-05
0.0155021
-5.74065e-05
0.0147802
-4.22945e-05
0.0134156
-2.77014e-05
0.0115206
-1.88002e-05
0.00923402
-1.02253e-05
0.00669793
-3.43318e-06
0.00403715
-1.08354e-06
0.0013416
-3.60124e-06
-5.95978e-08
0.00044547
-0.000445612
-7.6604e-07
0.000440582
-1.75311e-06
0.00129728
-1.68497e-05
-3.97484e-05
0.00198766
-0.000171464
-0.000100367
0.00611969
-4.16135e-05
0.00195696
-0.000109167
0.00126308
-8.68639e-05
-5.29392e-05
-0.000438317
0.000428307
-5.48951e-06
-2.63988e-06
-0.000124652
0.00887078
-0.000116965
0.0113346
-0.000107384
0.0133472
-9.59103e-05
0.0147712
-7.99273e-05
0.0155055
-6.3752e-05
0.0155084
-5.20317e-05
0.0147899
-3.83832e-05
0.0134263
-2.70813e-05
0.0115289
-1.71548e-05
0.00924095
-1.07619e-05
0.00670525
-4.9885e-06
0.00404105
-1.14413e-06
0.00134275
-0.000448152
-1.06095e-06
-1.83247e-08
0.000260894
-0.000261598
-6.18723e-08
0.000259416
-2.74616e-07
0.000420635
-9.17813e-06
0.000399136
-1.82491e-05
0.00123504
-7.99214e-05
-6.34996e-05
0.00191099
-5.4402e-05
-3.64919e-05
0.00603975
-8.22686e-06
0.00189367
-2.42876e-05
0.00118325
-1.69959e-05
-4.03799e-05
-0.000379359
0.000352376
-5.98808e-05
-3.3163e-05
-0.000257189
0.000252462
-7.6245e-07
-4.13065e-07
-6.69902e-05
0.0088208
-7.45856e-05
0.0113018
-7.60455e-05
0.0133273
-7.23312e-05
0.0147636
-6.48248e-05
0.0155066
-5.78711e-05
0.0155143
-4.67168e-05
0.0147983
-3.66972e-05
0.0134359
-2.91239e-05
0.0115408
-2.05368e-05
0.00925073
-1.06048e-05
0.00671087
-5.31115e-06
0.00404522
-1.21101e-06
0.00134396
-0.000262546
-1.13801e-07
-4.47407e-08
7.55591e-05
-7.56209e-05
7.52845e-05
0.000245007
-1.72324e-06
0.000230534
-3.77615e-06
0.000330815
-5.83596e-05
0.000310778
-4.34633e-05
0.0011418
-1.03899e-05
-2.56773e-06
0.00186971
-1.25355e-05
-1.53044e-05
0.00598869
-6.23882e-07
0.00186692
-5.43092e-06
0.00112082
-1.74895e-07
-3.13454e-06
-0.00028905
0.00027836
-6.30591e-06
-1.86513e-05
-0.000207089
0.000168478
-2.12703e-05
-9.71761e-06
-7.48714e-05
7.41089e-05
-3.72096e-05
0.00878343
-4.88498e-05
0.0112746
-5.41515e-05
0.0133091
-5.45141e-05
0.0147533
-5.40186e-05
0.0155028
-4.89092e-05
0.0155165
-4.30773e-05
0.0148047
-3.79424e-05
0.0134447
-2.9493e-05
0.0115498
-2.0337e-05
0.00926046
-1.36165e-05
0.00671918
-6.15587e-06
0.00405016
-1.53434e-06
0.00134549
-7.57347e-05
7.23857e-05
6.86096e-05
0.00014774
-3.76217e-05
0.000104277
0.000270245
-2.27556e-06
0.000268348
-6.70429e-07
0.00110927
-1.20023e-06
2.16618e-07
0.00185514
-3.53277e-06
-7.87682e-06
0.0059584
9.57334e-07
0.00185552
-1.00298e-06
0.00110393
5.49269e-07
-6.37822e-07
-0.000265588
0.000265506
-9.26273e-08
-3.74499e-07
-8.56256e-05
7.93197e-05
-5.88919e-05
3.76217e-05
-2.1982e-05
0.00875656
-3.34032e-05
0.0112538
-4.04984e-05
0.0132951
-4.65968e-05
0.0147459
-4.75045e-05
0.0155014
-4.66068e-05
0.01552
-4.58056e-05
0.0148125
-4.0574e-05
0.0134558
-3.25484e-05
0.011562
-2.50771e-05
0.00927192
-1.51049e-05
0.00672812
-6.92196e-06
0.00405555
-1.57227e-06
0.00134706
7.70442e-05
7.63737e-05
0.000264479
-1.72955e-07
0.000264671
2.46062e-08
0.00110051
-3.341e-07
2.2425e-07
0.00184906
-1.41345e-06
-4.98965e-06
0.00593976
1.65261e-06
0.00185064
-6.24518e-07
0.00109942
4.02968e-07
-3.2276e-07
-0.000263976
0.000264466
5.92553e-08
5.64237e-08
-7.59992e-05
7.59066e-05
-1.39839e-05
0.00873714
-2.48376e-05
0.0112382
-3.19109e-05
0.0132804
-3.76675e-05
0.0147361
-4.43085e-05
0.0154991
-4.75843e-05
0.0155218
-4.92116e-05
0.0148212
-4.52749e-05
0.0134685
-3.93123e-05
0.0115762
-2.84952e-05
0.00928531
-1.6991e-05
0.00673819
-7.76692e-06
0.00406174
-1.93473e-06
0.001349
7.57337e-05
7.57583e-05
0.000264218
-8.6274e-08
0.000264387
5.55984e-08
0.00109805
-1.88215e-07
1.51762e-07
0.00184631
-6.54313e-07
-3.13909e-06
0.00592794
9.67602e-07
0.00184799
-2.84257e-08
0.00109732
2.63547e-07
-1.6121e-07
-0.000263984
0.000264354
3.30202e-08
8.05258e-08
-7.58147e-05
7.5874e-05
-1.01294e-05
0.00872243
-1.7196e-05
0.0112234
-2.73627e-05
0.0132701
-3.54274e-05
0.0147272
-4.36622e-05
0.0154951
-5.32983e-05
0.0155258
-5.56355e-05
0.0148315
-5.41381e-05
0.0134833
-4.51487e-05
0.0115929
-3.39652e-05
0.00930228
-2.04041e-05
0.00675083
-9.33203e-06
0.00406914
-2.03489e-06
0.00135103
7.57877e-05
7.58433e-05
0.000264234
-6.84642e-08
0.000264353
3.26566e-08
0.00109677
-1.51794e-07
4.71363e-08
0.00184539
-5.42944e-07
-1.85684e-06
0.00591893
7.42192e-07
0.00184613
2.25848e-07
0.00109658
2.52953e-07
-9.54235e-08
-0.000264126
0.000264379
1.06911e-08
6.56787e-08
-7.59238e-05
7.59568e-05
-7.03924e-06
0.00871228
-1.423e-05
0.0112103
-2.48929e-05
0.0132596
-3.62283e-05
0.0147197
-4.90836e-05
0.0154909
-5.89698e-05
0.0155292
-6.57256e-05
0.0148431
-6.33934e-05
0.0135016
-5.33028e-05
0.0116122
-3.58453e-05
0.00931773
-2.07353e-05
0.00676223
-8.87352e-06
0.00407598
-1.84684e-06
0.00135288
7.58884e-05
7.5921e-05
0.000264307
-7.94403e-08
0.000264337
1.68414e-08
0.00109609
-8.76456e-08
3.48967e-08
0.00184466
-3.87474e-07
-1.47512e-06
0.0059122
1.16372e-06
0.00184522
1.81769e-07
0.00109626
1.64367e-07
-1.07855e-07
-0.000264171
0.000264415
8.36754e-09
7.10113e-08
-7.59867e-05
7.59974e-05
-5.89956e-06
0.00870395
-1.2959e-05
0.0111984
-2.3902e-05
0.0132473
-4.19911e-05
0.0147127
-6.07553e-05
0.0154927
-7.54956e-05
0.015539
-7.938e-05
0.0148591
-7.30578e-05
0.0135213
-5.86095e-05
0.011635
-4.10548e-05
0.00933804
-2.28799e-05
0.00677624
-8.7795e-06
0.00408291
-1.91654e-06
0.0013548
7.59179e-05
7.59348e-05
0.000264408
-8.02911e-08
0.000264429
1.41016e-08
0.00109594
-1.99672e-08
-4.41912e-08
0.00184396
-2.09889e-07
-1.17299e-06
0.0059065
9.7319e-07
0.0018449
2.26922e-07
0.001096
1.62676e-07
-4.30953e-08
-0.000264252
0.000264415
2.21795e-09
6.83152e-08
-7.60058e-05
7.60142e-05
-4.08604e-06
0.00869507
-1.26693e-05
0.0111871
-2.8379e-05
0.0132337
-4.72153e-05
0.0146991
-7.07093e-05
0.0154879
-8.93331e-05
0.0155489
-9.72417e-05
0.0148833
-8.67666e-05
0.0135495
-6.63342e-05
0.0116603
-4.33465e-05
0.00935851
-2.2379e-05
0.00678984
-9.477e-06
0.00409047
-2.49584e-06
0.00135729
7.59339e-05
7.5948e-05
0.000264475
-7.99605e-08
0.000264422
8.57442e-09
0.00109585
-1.85143e-08
-3.83066e-08
0.00184391
-1.82496e-07
-6.39009e-07
0.00590222
8.2927e-07
0.00184464
2.35096e-07
0.00109594
1.66424e-07
-3.12372e-08
-0.000264282
0.000264439
5.6063e-09
9.70456e-08
-7.60163e-05
7.60185e-05
-5.03839e-06
0.00868744
-1.50779e-05
0.0111738
-3.41778e-05
0.0132206
-6.48248e-05
0.0146932
-9.4027e-05
0.0154926
-0.000112826
0.0155645
-0.000113028
0.0149095
-9.71647e-05
0.0135803
-7.1317e-05
0.0116882
-4.45688e-05
0.0093807
-2.27206e-05
0.00680308
-7.72202e-06
0.0040957
-7.22792e-07
0.00135801
7.59386e-05
7.59471e-05
0.000264504
-8.34139e-08
0.000264449
1.6292e-08
0.00109582
-1.1289e-08
-4.85021e-08
0.00184399
1.35798e-08
-3.41099e-07
0.00589709
4.36985e-07
0.00184455
2.71763e-07
0.00109591
1.64958e-07
-2.22051e-08
-0.000264352
0.000264513
6.18304e-09
6.53986e-08
-7.60442e-05
7.60498e-05
-4.32172e-06
0.00867669
-2.0283e-05
0.0111599
-4.79822e-05
0.0132038
-8.45917e-05
0.0146838
-0.000118474
0.0154983
-0.000136554
0.015588
-0.000129886
0.0149423
-0.000106613
0.0136156
-7.49493e-05
0.0117186
-4.19729e-05
0.00939995
-2.13105e-05
0.00681667
-6.70069e-06
0.00410168
-6.53401e-07
0.00135867
7.59664e-05
7.59827e-05
0.000264589
-8.78516e-08
0.000264432
1.08526e-07
0.00109597
-6.66016e-09
-3.83763e-08
0.00184415
5.95645e-08
1.85765e-07
0.00589332
-7.41134e-07
0.00184445
1.34687e-07
0.00109609
1.69155e-07
-1.59897e-08
-0.000264423
0.000264595
-6.42155e-09
-1.33883e-08
-7.60481e-05
7.60542e-05
-7.51876e-06
0.00866392
-2.77237e-05
0.0111397
-6.48049e-05
0.013184
-0.000113554
0.0146789
-0.000151213
0.0155129
-0.000163392
0.0156215
-0.000144767
0.0149804
-0.00011089
0.0136516
-7.21651e-05
0.0117488
-4.10488e-05
0.00941969
-1.74096e-05
0.00682738
-6.19449e-06
0.00410722
-4.02574e-07
0.00135907
7.59664e-05
7.60749e-05
0.000264635
-4.64348e-08
0.000264484
1.11855e-07
0.00109617
3.59628e-09
-3.24974e-08
0.00184454
9.73787e-08
1.06262e-06
0.00588578
-1.03632e-06
0.00184365
1.47704e-07
0.00109615
1.70011e-07
-1.33633e-08
-0.00026448
0.000264654
-5.23541e-09
-1.14016e-08
-7.60615e-05
7.60551e-05
-1.11709e-05
0.00864737
-4.05561e-05
0.0111154
-9.51848e-05
0.0131656
-0.000151573
0.0146792
-0.000188132
0.0155377
-0.000185595
0.0156623
-0.00015484
0.0150244
-0.000110907
0.0136903
-6.80935e-05
0.0117759
-3.63449e-05
0.00943863
-1.59498e-05
0.00683714
-2.9886e-06
0.0041098
-1.81352e-07
0.00135925
7.60087e-05
7.61205e-05
0.000264737
-7.87665e-08
0.000264591
1.12698e-07
0.00109627
3.32689e-09
-2.38227e-08
0.00184454
1.7416e-07
1.39477e-06
0.00587522
-2.00188e-06
0.00184369
-1.88312e-07
0.00109627
1.65854e-07
-1.9832e-08
-0.000264588
0.000264764
-5.46771e-09
-1.01631e-08
-7.61091e-05
7.61039e-05
-1.83e-05
0.00862511
-6.45938e-05
0.0110848
-0.000135461
0.0131495
-0.000199374
0.0146905
-0.00022326
0.0155753
-0.00019742
0.0157049
-0.000153499
0.015067
-0.00010175
0.013724
-6.09311e-05
0.0118004
-3.09168e-05
0.00945359
-1.06729e-05
0.00684482
-2.73182e-06
0.00411236
1.91934e-07
0.00135906
7.60251e-05
7.61378e-05
0.000264811
-4.37011e-08
0.000264707
7.96178e-08
0.00109648
-1.09673e-10
-2.93696e-08
0.00184462
4.65428e-07
9.0887e-07
0.00585945
-3.44662e-06
0.00184303
-4.10485e-07
0.00109611
1.7942e-07
3.13822e-09
-0.000264665
0.000264839
-8.15665e-09
2.21897e-08
-7.61277e-05
7.61222e-05
-3.08355e-05
0.00859135
-0.000100839
0.0110502
-0.000191769
0.0131419
-0.000248922
0.0147161
-0.000241193
0.0156191
-0.000200688
0.0157521
-0.000142579
0.0151078
-9.26424e-05
0.0137557
-5.17661e-05
0.0118213
-2.28209e-05
0.00946574
-6.47635e-06
0.00684857
7.62165e-07
0.00411178
1.74385e-06
0.00135732
7.60785e-05
7.61581e-05
0.000264923
-8.37854e-08
0.000264802
9.1356e-08
0.00109656
1.82357e-08
-1.17944e-08
0.00184339
5.42794e-07
1.63249e-06
0.00583288
-5.8909e-06
0.00184059
-6.41635e-07
0.00109604
1.08502e-07
7.01677e-09
-0.000264796
0.000264972
2.6867e-09
9.51395e-09
-7.61803e-05
7.61721e-05
-5.54113e-05
0.00854593
-0.000161265
0.0110197
-0.000260054
0.013153
-0.000281212
0.0147562
-0.000245555
0.015664
-0.000184506
0.015794
-0.000126466
0.0151416
-7.71106e-05
0.013781
-4.12281e-05
0.0118397
-1.56622e-05
0.00947493
-3.03268e-06
0.00685236
1.6641e-06
0.00411186
2.07588e-06
0.00135524
7.60883e-05
7.61797e-05
0.000265068
-7.76271e-08
0.00026496
9.65732e-08
0.00109655
9.36087e-08
-6.3249e-08
0.00184226
-4.09893e-08
-1.878e-07
0.0057897
-1.20513e-05
0.00183732
-9.48501e-07
0.00109578
5.03862e-08
8.07926e-08
-0.000264955
0.000265065
-1.56307e-09
1.18507e-08
-7.61892e-05
7.61919e-05
-0.000104383
0.00848905
-0.000242727
0.0110024
-0.000310783
0.0131826
-0.000287868
0.0147985
-0.000224186
0.0157036
-0.000159476
0.0158271
-0.000103669
0.0151682
-6.14954e-05
0.0138013
-2.86495e-05
0.0118527
-9.32176e-06
0.00948122
1.02296e-06
0.006853
5.27495e-06
0.00410867
2.4738e-06
0.00135277
7.61143e-05
7.62108e-05
0.000265204
-4.52397e-08
0.000265072
6.89953e-08
0.00109569
1.77126e-07
-1.26122e-07
0.00183794
-8.07887e-07
-5.21654e-06
0.00571851
-2.79748e-05
0.00182877
-2.87833e-06
0.00109464
-1.90651e-10
9.8933e-08
-0.000265107
0.000265152
5.64857e-09
4.54934e-08
-7.62227e-05
7.62211e-05
-0.000192367
0.00843869
-0.000330239
0.0110218
-0.000322595
0.0132173
-0.000256203
0.0148305
-0.000188639
0.0157328
-0.000129893
0.0158533
-8.22671e-05
0.0151889
-4.3705e-05
0.0138163
-1.8401e-05
0.0118618
-2.3199e-06
0.00948456
3.68806e-06
0.00685459
7.32316e-06
0.00410382
2.85472e-06
0.00134991
7.61759e-05
7.62449e-05
0.000265402
-7.26698e-08
0.000265173
1.02548e-07
0.00109381
1.92347e-07
-1.70447e-07
0.00182684
-3.29342e-06
-2.60462e-05
0.00562327
-7.1075e-05
0.00180762
-8.75433e-06
0.00109115
-3.12881e-07
9.77566e-08
-0.000265257
0.000265286
-2.97628e-08
1.52812e-08
-7.62904e-05
7.6296e-05
-0.000323386
0.00843183
-0.000348707
0.011048
-0.000275651
0.0132368
-0.000206391
0.0148482
-0.000147317
0.0157502
-9.96456e-05
0.0158707
-5.86615e-05
0.0152039
-2.91919e-05
0.0138271
-8.50294e-06
0.0118679
4.02287e-06
0.00948422
1.08461e-05
0.00685107
7.65077e-06
0.00409902
3.32963e-06
0.00134658
7.62234e-05
7.63259e-05
0.000265506
-2.77086e-08
0.000265258
7.77758e-08
0.0010879
4.46085e-07
-4.90765e-07
0.00179565
-1.40681e-05
-9.55123e-05
0.0055702
-0.000174807
0.0017556
-3.10274e-05
0.00107979
-8.05871e-07
1.58045e-07
-0.000265304
0.000265025
-3.4262e-08
5.16505e-08
-7.63412e-05
7.63114e-05
-0.000362765
0.00844589
-0.000275392
0.0110477
-0.000206187
0.0132366
-0.000154062
0.014855
-0.000108412
0.015759
-6.95118e-05
0.0158815
-3.93271e-05
0.015214
-1.37956e-05
0.0138324
2.88743e-06
0.0118691
1.1525e-05
0.00948355
1.19863e-05
0.00684673
9.21205e-06
0.00409314
3.86781e-06
0.00134271
7.62837e-05
7.63615e-05
0.000265519
-4.71056e-08
0.00026495
7.787e-08
0.00106702
1.38886e-07
-1.43783e-06
0.00171977
-5.96874e-05
-0.000195658
0.00556363
-0.000160538
0.00167094
-0.000125972
0.00103983
-3.58872e-06
-2.52366e-07
-0.000265083
0.000264354
-7.66579e-08
2.48192e-08
-7.64131e-05
7.63789e-05
-0.000239554
0.00841005
-0.000179034
0.0110205
-0.000139266
0.0132218
-0.000103716
0.0148503
-7.41063e-05
0.0157636
-4.67799e-05
0.015889
-2.06286e-05
0.0152209
-3.60458e-06
0.0138389
1.08616e-05
0.0118697
1.53989e-05
0.00948013
1.95148e-05
0.00683643
1.07519e-05
0.00408625
4.59767e-06
0.00133812
7.63318e-05
7.64096e-05
0.000264594
-1.01272e-07
0.000263183
-2.71117e-08
0.000992804
-2.17075e-06
-1.04858e-05
0.00164367
-0.000168393
-0.000106838
0.00547359
-4.26725e-05
0.00161024
-0.000127103
0.000918149
-3.70265e-05
-1.42903e-05
-0.000263001
0.000259933
-5.21367e-07
-6.94892e-08
-7.64345e-05
7.63578e-05
-0.00012116
0.00835218
-0.000106569
0.0109878
-8.96219e-05
0.0132077
-6.94796e-05
0.0148457
-4.85477e-05
0.0157654
-2.48387e-05
0.0158932
-6.73663e-06
0.015224
8.34585e-06
0.0138414
1.81408e-05
0.011867
2.16224e-05
0.00947803
1.75169e-05
0.00682966
1.51939e-05
0.00407566
6.3143e-06
0.0013318
7.62565e-05
7.62294e-05
0.000258368
-6.05229e-07
0.000249613
-1.73108e-06
0.000872721
-5.94595e-05
-6.35052e-05
0.00155818
-5.47797e-05
-3.17048e-05
0.00538943
-5.29704e-06
0.00153558
-2.00734e-05
0.000809136
-1.86311e-05
-4.48869e-05
-0.000239137
0.000212066
-9.95558e-06
-3.81433e-06
-7.61599e-05
7.56386e-05
-5.66005e-05
0.00830221
-5.90051e-05
0.0109572
-5.31409e-05
0.0131913
-4.10891e-05
0.0148382
-2.32756e-05
0.0157638
-7.13378e-06
0.0158936
6.74934e-06
0.0152256
2.06396e-05
0.0138389
2.5788e-05
0.0118628
2.82875e-05
0.00946726
2.55674e-05
0.00681929
1.53516e-05
0.00406662
5.7745e-06
0.00132603
7.50333e-05
7.33023e-05
0.000174655
-2.20482e-05
0.000148634
-3.74841e-05
0.000761951
-6.3532e-06
-1.24197e-06
0.00151235
-8.47022e-06
-1.10281e-05
0.00534209
1.76826e-06
0.00150964
-2.59562e-06
0.000742657
9.81831e-08
-8.77546e-07
-0.000103747
8.51157e-05
-6.94879e-05
5.95323e-05
-2.72948e-05
0.0082705
-3.28719e-05
0.010937
-2.84085e-05
0.0131787
-1.93639e-05
0.0148343
-8.96429e-06
0.0157656
4.38077e-06
0.0158959
1.70447e-05
0.0152292
2.73802e-05
0.0138373
3.15731e-05
0.0118596
3.28019e-05
0.00946002
2.79812e-05
0.00680666
1.91205e-05
0.00405327
6.59473e-06
0.00131943
3.74841e-05
7.87625e-05
7.75206e-05
0.000734236
-1.94644e-07
1.45182e-07
0.00149998
-1.36284e-06
-5.00005e-06
0.00531665
3.14312e-06
0.00150164
1.03191e-07
0.000731579
1.45757e-07
-8.4139e-08
-7.6643e-05
7.67412e-05
-1.13137e-05
0.00824894
-1.3861e-05
0.0109224
-1.21974e-05
0.0131715
-4.05663e-06
0.0148294
6.72003e-06
0.0157633
1.83039e-05
0.0158947
2.92576e-05
0.0152273
3.54042e-05
0.0138335
3.98078e-05
0.0118525
4.12321e-05
0.00944677
3.18441e-05
0.00679394
2.15133e-05
0.00403836
8.51288e-06
0.00131092
7.65466e-05
7.66917e-05
0.000730109
-1.85418e-08
1.25366e-07
0.00149678
-1.32305e-07
-2.8078e-06
0.00530525
2.89293e-06
0.00149949
4.26494e-07
0.000730147
9.55016e-08
-3.03716e-08
-7.66076e-05
7.67534e-05
-3.36659e-06
0.00823845
-3.24638e-06
0.0109135
1.00432e-06
0.0131664
8.67426e-06
0.0148274
1.92185e-05
0.0157624
2.84401e-05
0.0158955
3.84965e-05
0.0152242
4.40626e-05
0.0138292
4.84875e-05
0.0118453
4.35652e-05
0.00943505
3.72657e-05
0.00677818
2.15849e-05
0.00402528
8.07061e-06
0.00130285
7.67348e-05
7.68602e-05
0.000729956
-3.04976e-08
9.00846e-08
0.00149657
1.1172e-07
-1.1936e-06
0.00530036
2.72043e-06
0.00149894
5.25136e-07
0.000730338
6.37183e-08
-1.96866e-08
-7.68298e-05
7.69253e-05
1.84984e-06
0.00823335
3.81234e-06
0.0109107
9.44262e-06
0.0131657
1.6781e-05
0.0148299
2.67779e-05
0.015764
3.84338e-05
0.0158956
4.56481e-05
0.0152226
5.40243e-05
0.0138237
5.55569e-05
0.0118333
4.96569e-05
0.00942266
4.08078e-05
0.00675896
2.43847e-05
0.00400897
8.9737e-06
0.00129388
7.68948e-05
7.69849e-05
0.000730371
-4.32936e-09
8.25443e-08
0.00149742
3.27814e-07
-2.64789e-07
0.00529941
3.0648e-06
0.00149956
5.83561e-07
0.000730872
5.27449e-08
-2.77439e-08
-7.69652e-05
7.70289e-05
4.29299e-06
0.00823287
9.08034e-06
0.010911
1.69024e-05
0.0131655
2.62515e-05
0.0148304
3.6162e-05
0.0157663
4.69358e-05
0.0158943
5.62538e-05
0.0152204
6.08181e-05
0.0138184
5.76701e-05
0.0118253
5.50762e-05
0.00940839
4.25076e-05
0.00674084
2.99045e-05
0.00398804
9.3818e-06
0.00128449
7.70246e-05
7.71071e-05
0.000731122
2.81917e-08
4.9425e-08
0.00149887
4.2448e-07
-1.02947e-07
0.00530084
2.95758e-06
0.00150134
5.96952e-07
0.000731595
3.31019e-08
7.7487e-08
-7.70794e-05
7.71321e-05
7.49032e-06
0.00823446
1.4365e-05
0.0109136
2.2509e-05
0.0131693
3.38562e-05
0.0148327
4.60747e-05
0.0157672
5.5488e-05
0.015895
6.36068e-05
0.0152176
6.9251e-05
0.0138069
7.2047e-05
0.0118083
6.28119e-05
0.00938808
5.28532e-05
0.00671789
3.05489e-05
0.00396687
9.96488e-06
0.00127453
7.71603e-05
7.72097e-05
0.000731933
3.12121e-08
5.50005e-08
0.0015008
4.36854e-07
8.15475e-07
0.00530502
2.50318e-06
0.00150313
6.23932e-07
0.000732511
2.04663e-08
-9.78737e-10
-7.72872e-05
7.73203e-05
8.98103e-06
0.00823984
1.70452e-05
0.010919
2.7433e-05
0.0131757
4.08104e-05
0.014838
5.21634e-05
0.0157705
6.48766e-05
0.0158938
7.52373e-05
0.0152116
7.91646e-05
0.0137997
8.15323e-05
0.0117896
7.24227e-05
0.00936852
5.44434e-05
0.00669399
3.43326e-05
0.0039425
1.34497e-05
0.00126108
7.73515e-05
7.74065e-05
0.000732897
7.2249e-09
4.28852e-08
0.00150333
6.14848e-07
1.09482e-06
0.00531033
2.5736e-06
0.00150516
6.71643e-07
0.000733468
2.44321e-08
2.92293e-08
-7.74056e-05
7.7426e-05
1.04098e-05
0.00824648
2.09969e-05
0.0109255
3.34886e-05
0.013183
4.66802e-05
0.0148434
6.09407e-05
0.0157744
7.44268e-05
0.0158946
8.24531e-05
0.0152083
8.75227e-05
0.0137938
8.47009e-05
0.0117773
8.01442e-05
0.00934281
6.13864e-05
0.00666694
3.77861e-05
0.00391817
2.76998e-05
0.00123338
7.74333e-05
7.74761e-05
0.000733992
3.32633e-08
5.76452e-08
0.0015056
6.6057e-07
1.25707e-06
0.00531716
2.3207e-06
0.00150723
9.38155e-07
0.00073463
2.79331e-08
5.06265e-09
-7.75054e-05
7.75298e-05
1.15229e-05
0.00825595
2.4897e-05
0.010934
4.12958e-05
0.0131884
5.54744e-05
0.0148489
7.17727e-05
0.0157771
8.23335e-05
0.0158947
9.34763e-05
0.0152024
9.78182e-05
0.0137806
9.6231e-05
0.0117612
8.60154e-05
0.00931819
6.80432e-05
0.00663668
5.83002e-05
0.00388757
5.46237e-05
7.75631e-05
7.76207e-05
0.000735197
3.4686e-08
5.89714e-08
0.00150773
7.53402e-07
1.134e-06
0.00532594
1.60815e-06
0.00150951
5.49307e-07
0.000736024
1.05586e-07
5.94451e-09
-7.76258e-05
7.76537e-05
1.30323e-05
0.00826782
2.79538e-05
0.0109474
4.50188e-05
0.0131989
6.32433e-05
0.0148574
7.91092e-05
0.0157803
9.39417e-05
0.0158942
0.000102992
0.0151972
0.000106563
0.0137703
0.000103964
0.0117433
9.14421e-05
0.00929479
8.7792e-05
0.00660719
9.95895e-05
7.76884e-05
7.77474e-05
0.000736674
7.17038e-08
3.15008e-08
0.00151034
3.0079e-07
7.59741e-07
0.00533708
1.13773e-06
0.00151215
-2.04959e-07
0.000737166
3.10637e-08
2.6549e-08
-7.77533e-05
7.78589e-05
1.71512e-05
0.00827862
3.38264e-05
0.0109586
5.11545e-05
0.013211
6.94851e-05
0.0148671
8.68514e-05
0.0157874
0.000102828
0.0158944
0.000112478
0.0151913
0.000119791
0.0137545
0.000116816
0.0117179
0.000114093
0.00926849
0.000129586
7.79306e-05
7.79621e-05
0.000737402
1.57579e-08
4.89806e-08
0.00151425
-1.33992e-06
1.47476e-06
0.00534763
5.11955e-06
0.00151733
-1.93657e-06
0.000737248
-9.52581e-10
-5.00168e-08
-7.79887e-05
7.80197e-05
2.07748e-05
0.00829167
3.69224e-05
0.0109728
5.79303e-05
0.0132225
7.84658e-05
0.0148754
9.82188e-05
0.015792
0.000110935
0.0158959
0.000123047
0.015188
0.000128346
0.013743
0.000133935
0.0116981
0.000151174
7.80355e-05
7.80845e-05
0.000735863
2.29667e-08
2.2059e-08
0.00151534
5.19858e-06
-1.73301e-06
5.30816e-06
0.00535789
5.21124e-06
0.00151963
-4.04584e-07
1.22681e-06
0.000435264
-2.20336e-07
0.000298887
-4.57426e-09
-7.80345e-05
7.80335e-05
2.23306e-05
0.00830626
4.23183e-05
0.0109884
6.31213e-05
0.0132379
8.67495e-05
0.0148869
0.000104598
0.0157983
0.000121399
0.0158976
0.0001303
0.0151861
0.000143184
0.0137337
0.000159855
7.80565e-05
7.80785e-05
0.000456166
-1.57037e-05
0.000461235
-6.80245e-06
0.00152189
1.23612e-06
1.81694e-06
4.60002e-06
0.00537115
4.47309e-06
0.00152436
1.2358e-06
1.50293e-06
0.000463896
-3.06491e-06
0.000466047
-9.24346e-07
-7.8074e-05
7.78536e-05
0.000280347
2.83709e-06
2.42242e-05
0.00832436
4.66148e-05
0.0110049
7.13137e-05
0.0132533
9.45522e-05
0.014897
0.000113662
0.0158061
0.000130043
0.0158978
0.00014625
0.015183
0.000164579
0.000274431
-8.86781e-07
0.000466981
3.02322e-07
0.000468274
5.24113e-07
0.00152666
1.01655e-06
1.28161e-06
4.83101e-06
0.00538602
4.52221e-06
0.0015293
7.64594e-07
1.07418e-06
0.000468868
6.40935e-07
0.00046956
8.11482e-07
0.000272411
-1.0454e-06
0.000272002
-5.14583e-07
8.06907e-05
2.76327e-05
0.00834334
5.13688e-05
0.0110249
7.85514e-05
0.0132693
0.000100802
0.0149098
0.000120581
0.0158155
0.000138856
0.0159052
0.000157991
7.98039e-05
0.000272305
-5.5626e-10
0.000272724
1.04442e-07
0.000469981
5.95202e-07
0.000470845
4.17869e-07
0.00153235
7.7705e-07
9.98483e-07
5.19505e-06
0.0054035
4.95244e-06
0.001535
1.05436e-06
8.19054e-07
0.000471198
4.11143e-07
0.000471707
5.65973e-07
0.000273204
1.60666e-07
0.00027387
1.45964e-07
7.87585e-05
7.8244e-05
3.04636e-05
0.00836425
5.78821e-05
0.0110455
8.4841e-05
0.0132853
0.00010608
0.0149243
0.000127224
0.0158272
0.000141277
7.82434e-05
7.83478e-05
0.000274281
1.84435e-07
0.000274565
1.34047e-07
0.000472068
4.15244e-07
0.000472606
4.61036e-07
0.00153835
1.04179e-06
8.03411e-07
5.88509e-06
0.00542271
5.36623e-06
0.00154139
1.11762e-06
7.92085e-07
0.000473285
3.75502e-07
0.000473733
3.71235e-07
0.000274878
9.75287e-08
0.000275345
9.89e-08
7.85085e-05
7.86545e-05
3.49948e-05
0.00838713
6.45799e-05
0.0110658
9.01559e-05
0.0133012
0.000110786
0.0149408
0.000117571
7.88389e-05
7.89729e-05
0.000275667
9.36981e-08
0.000276001
1.26444e-07
0.000474195
5.79021e-07
0.000474617
3.8142e-07
0.00154515
1.22896e-06
8.97651e-07
6.62916e-06
0.00544489
6.19086e-06
0.00154842
1.2166e-06
8.82786e-07
0.000475402
3.3264e-07
0.000475792
4.01929e-07
0.000276321
5.62443e-08
0.0002766
9.20956e-08
7.90705e-05
7.91694e-05
4.05517e-05
0.00841116
7.14184e-05
0.0110845
9.10267e-05
0.0133209
9.14981e-05
7.92631e-05
7.93895e-05
0.000277054
1.24681e-07
0.000277343
9.26198e-08
0.000476401
6.20605e-07
0.000476885
4.13897e-07
0.0015524
1.36306e-06
1.28333e-06
8.02673e-06
0.00547032
7.09497e-06
0.00155618
1.12567e-06
1.28521e-06
0.00047773
3.70672e-07
0.000478001
6.12599e-07
0.000277579
9.65101e-08
0.00027788
1.00537e-07
7.94458e-05
7.95379e-05
4.92755e-05
0.0084333
7.25232e-05
0.011103
6.4851e-05
7.96625e-05
7.97552e-05
0.000278405
9.55514e-08
0.000278612
2.07035e-07
0.000478849
5.15018e-07
0.000479658
4.73735e-07
0.00156143
1.30623e-06
1.46766e-06
1.04766e-05
0.00549889
1.02284e-05
0.00156562
1.42083e-06
1.49164e-06
0.000480295
4.88605e-07
0.0004809
6.80986e-07
0.000278901
8.2143e-08
0.000279402
1.11432e-07
7.98517e-05
7.99522e-05
5.39839e-05
0.00845184
4.21789e-05
8.00477e-05
8.02548e-05
0.000279773
1.43555e-07
0.000280131
1.16074e-07
0.000481621
5.85049e-07
0.000482528
5.60337e-07
0.00157241
1.72935e-06
1.95625e-06
1.45532e-05
0.00552253
1.5788e-05
0.00157811
2.16527e-06
2.36359e-06
0.000483433
5.16057e-07
0.000484085
8.4e-07
0.000280502
1.17306e-07
0.000281105
7.87148e-08
8.03369e-05
8.04484e-05
2.81135e-05
8.05919e-05
8.0708e-05
0.000281537
1.52304e-07
0.000281963
1.34509e-07
0.000485094
7.19827e-07
0.000486307
7.43811e-07
0.00158652
2.76976e-06
3.36676e-06
3.10996e-05
1.23358e-05
0.00159353
3.8186e-06
4.96535e-06
0.000487515
9.56358e-07
0.000488562
1.31705e-06
0.000282341
1.37918e-07
0.000283038
1.43361e-07
8.08253e-05
8.0904e-05
8.10563e-05
8.11908e-05
0.000283572
1.86374e-07
0.00028414
1.75245e-07
0.000489924
1.40723e-06
0.000491688
1.60307e-06
0.0016058
8.05128e-06
1.07763e-05
1.60936e-05
7.83397e-06
0.000493701
1.80575e-06
0.000495842
2.82458e-06
0.000284879
2.17202e-07
0.000285905
2.91303e-07
8.13287e-05
8.14721e-05
8.16585e-05
8.18337e-05
0.000286961
3.50754e-07
0.00028818
3.84297e-07
0.000498975
4.91794e-06
0.000502261
7.49064e-06
0.000506651
1.17037e-05
1.12479e-05
0.000289503
4.82921e-07
0.000291599
7.28675e-07
8.20509e-05
8.23422e-05
8.2693e-05
8.30773e-05
0.000295039
1.47755e-06
0.000299149
3.38095e-06
0.000303408
7.44454e-06
1.53029e-05
8.35602e-05
8.42889e-05
8.57664e-05
8.91474e-05
9.65919e-05
-4.74208e-06
4.74205e-06
2.85902e-06
-7.60127e-06
-2.03366e-05
6.55424e-06
1.85243e-05
6.26338e-06
-2.37408e-05
1.39522e-06
-8.99654e-06
1.39524e-05
8.42388e-05
-8.53737e-05
5.279e-06
1.32451e-05
4.12929e-06
-2.64751e-05
6.3759e-07
-9.63417e-06
-1.04056e-05
0.000197801
1.64653e-05
-0.000189911
-2.34292e-06
1.17842e-05
8.00763e-05
-1.86194e-06
-8.97881e-05
1.09022e-05
-2.76994e-05
2.83424e-07
-9.91758e-06
-5.82352e-06
0.000196997
1.84135e-05
-0.000207714
1.19574e-05
0.000212231
-7.43612e-06
1.95142e-05
-0.000197733
-4.25366e-06
-9.1376e-07
7.54571e-05
-2.90957e-07
-1.43117e-06
-9.51507e-05
-6.42733e-07
9.98834e-06
-2.88472e-05
1.51041e-07
-1.00688e-05
-3.87715e-06
0.00018151
2.17246e-05
-2.36588e-06
-0.000205547
1.62427e-05
-0.00106101
8.90143e-06
0.00106407
1.92189e-05
0.000212524
2.05654e-05
-0.000211604
-2.78874e-06
-3.90773e-06
-9.82923e-05
-3.94624e-07
-7.17765e-07
7.1928e-05
-2.15775e-07
-1.32589e-07
9.69728e-06
-2.9339e-05
1.83007e-07
-1.0252e-05
0.000160642
2.5046e-05
-2.36407e-06