/*--------------------------------*- C++ -*----------------------------------*\
| =========                 |                                                 |
| \\      /  F ield         | OpenFOAM: The Open Source CFD Toolbox           |
|  \\    /   O peration     | Version:  v1912                                 |
|   \\  /    A nd           | Website:  www.openfoam.com                      |
|    \\/     M anipulation  |                                                 |
\*---------------------------------------------------------------------------*/
FoamFile
{
    version     2.0;
    format      ascii;
    class       volScalarField;
    location    "500";
    object      p;
}
// * * * * * * * * * * * * * * * * * * * * * * * * * * * * * * * * * * * * * //

dimensions      [0 2 -2 0 0 0 0];


internalField   nonuniform List<scalar> 
3753
(
-0.00650564
-0.00647826
-0.00626422
-0.00643315
-0.00623783
-0.00602108
-0.00639341
-0.00619165
-0.0059959
-0.00579263
-0.00636585
-0.00615127
-0.00595334
-0.00576858
-0.00556835
-0.00635688
-0.00612092
-0.00591627
-0.0057254
-0.00554494
-0.00535116
-0.00637544
-0.0061078
-0.00588511
-0.00568529
-0.00550396
-0.00532765
-0.00514391
-0.00643127
-0.00611842
-0.00586663
-0.00565383
-0.00546863
-0.00528754
-0.00512103
-0.00494121
-0.00652589
-0.00616062
-0.00586951
-0.00563643
-0.00544058
-0.00525309
-0.00508101
-0.00491911
-0.00474484
-0.00666004
-0.00624002
-0.00589937
-0.00563946
-0.00542431
-0.00522529
-0.00504573
-0.00488055
-0.00472358
-0.00455612
-0.0068309
-0.00635851
-0.00595824
-0.00566653
-0.00542788
-0.00521206
-0.00501857
-0.00484793
-0.0046856
-0.00453399
-0.0043736
-0.00702317
-0.00651588
-0.00604128
-0.00571893
-0.00545738
-0.00521964
-0.00500627
-0.00482327
-0.00465153
-0.00449727
-0.0043528
-0.00419229
-0.00718932
-0.00672022
-0.00614653
-0.00579733
-0.00551726
-0.00525176
-0.00501523
-0.00481097
-0.00462695
-0.00446785
-0.00431611
-0.0041721
-0.00401859
-0.00695246
-0.00729418
-0.0072739
-0.00627182
-0.00589955
-0.00560697
-0.00531279
-0.00505009
-0.00481931
-0.00461742
-0.0044439
-0.00428278
-0.00413687
-0.00399917
-0.00384697
-0.00642623
-0.00688517
-0.00724573
-0.00727574
-0.00732175
-0.00602279
-0.00572152
-0.00540257
-0.00511304
-0.00485302
-0.00462718
-0.00443188
-0.00425953
-0.00410826
-0.00396431
-0.00382866
-0.00368128
-0.00617393
-0.00649332
-0.0066366
-0.00698333
-0.00747104
-0.00727737
-0.00726907
-0.00738547
-0.00585224
-0.00551833
-0.0052038
-0.00491552
-0.00466272
-0.00444137
-0.00425155
-0.00408679
-0.00393441
-0.00379565
-0.0036622
-0.00352278
-0.00599494
-0.00626177
-0.00640683
-0.00659637
-0.00669774
-0.00693439
-0.00702752
-0.00718919
-0.00782208
-0.00721819
-0.00731915
-0.00741835
-0.00565386
-0.00531721
-0.00500622
-0.00472656
-0.00447671
-0.00426189
-0.00407816
-0.00391281
-0.00376856
-0.00362993
-0.00350529
-0.0033619
-0.00579426
-0.00605188
-0.00618039
-0.00635681
-0.00648896
-0.00664758
-0.00672353
-0.00683322
-0.00675002
-0.00690443
-0.00651531
-0.0067716
-0.0083654
-0.00733457
-0.00738663
-0.00746531
-0.00544843
-0.00512128
-0.00481619
-0.00453874
-0.004297
-0.00408859
-0.00390432
-0.00374865
-0.00360389
-0.00347244
-0.00334454
-0.00320981
-0.00559057
-0.00584188
-0.00596311
-0.0061338
-0.00625315
-0.00638264
-0.00646015
-0.00658689
-0.00651421
-0.00670324
-0.00675937
-0.00686424
-0.00681903
-0.00685763
-0.00909634
-0.00525164
-0.00492528
-0.00462728
-0.00435894
-0.00412214
-0.00391546
-0.00374161
-0.00358564
-0.00344586
-0.00331488
-0.00319255
-0.00305683
-0.00539048
-0.00564163
-0.00575475
-0.00592169
-0.0060309
-0.00616078
-0.00622602
-0.0063435
-0.00627191
-0.00642686
-0.0064866
-0.00661852
-0.00655501
-0.00505141
-0.00473975
-0.00444611
-0.00418102
-0.0039508
-0.00375345
-0.00358041
-0.00342927
-0.00329164
-0.00316134
-0.00304081
-0.00290586
-0.00518935
-0.00544241
-0.00554959
-0.00571934
-0.00582041
-0.00595172
-0.00601156
-0.00611037
-0.00605748
-0.00619553
-0.00626154
-0.00637586
-0.00630647
-0.00486724
-0.00455262
-0.00426592
-0.00401194
-0.00378638
-0.00359245
-0.00342553
-0.00327536
-0.00313686
-0.00301209
-0.00289159
-0.00276389
-0.00500085
-0.00524375
-0.00534907
-0.00551426
-0.00561755
-0.00574928
-0.00580422
-0.00590099
-0.00584734
-0.0059844
-0.006049
-0.00614331
-0.0060913
-0.00467397
-0.00437284
-0.0040956
-0.00384397
-0.00362708
-0.00343902
-0.00327318
-0.00312263
-0.00298985
-0.00286401
-0.00274759
-0.00261984
-0.00480578
-0.00505494
-0.00515148
-0.0053152
-0.00542053
-0.00554233
-0.00560074
-0.00569474
-0.00564991
-0.00578414
-0.00583864
-0.00593763
-0.0058801
-0.00449558
-0.00419931
-0.00392673
-0.00368397
-0.00347382
-0.00328961
-0.00312319
-0.00297662
-0.00284247
-0.00271854
-0.00260588
-0.00247918
-0.0046263
-0.00486158
-0.00495786
-0.0051233
-0.00521965
-0.00534863
-0.00539673
-0.00549961
-0.00544537
-0.00557802
-0.00563393
-0.00572922
-0.00568561
-0.00431782
-0.00402951
-0.00376229
-0.00353035
-0.00332551
-0.00314245
-0.00297881
-0.00283089
-0.00269734
-0.0025784
-0.00246477
-0.00234279
-0.00444401
-0.00467949
-0.00477167
-0.00493181
-0.00502815
-0.00515036
-0.00520473
-0.00529701
-0.00524742
-0.00538384
-0.00543186
-0.005533
-0.00547751
-0.00414606
-0.00386184
-0.00360847
-0.00338297
-0.00318361
-0.00300097
-0.00283343
-0.00268452
-0.00255652
-0.00243776
-0.00232954
-0.00220824
-0.00427146
-0.00449952
-0.00458752
-0.00474666
-0.0048367
-0.00496566
-0.00500515
-0.00510563
-0.00505623
-0.00518375
-0.00523954
-0.00532899
-0.00528062
-0.00397735
-0.00370424
-0.0034595
-0.00324386
-0.00304462
-0.00285657
-0.00268808
-0.00254376
-0.00241637
-0.00230356
-0.00219534
-0.00207584
-0.00410073
-0.00432671
-0.00440913
-0.00456674
-0.00465232
-0.00477653
-0.00482213
-0.00491041
-0.00486548
-0.0049979
-0.00503379
-0.00513628
-0.00509453
-0.0038154
-0.00355221
-0.00332049
-0.00310869
-0.0029054
-0.0027125
-0.00254463
-0.00240366
-0.00228419
-0.00216999
-0.0020632
-0.00194543
-0.00393681
-0.00415514
-0.00423775
-0.00439147
-0.00447212
-0.00459704
-0.00463717
-0.00472749
-0.00468014
-0.00480721
-0.00485244
-0.00494364
-0.00490002
-0.00365887
-0.00340942
-0.00318936
-0.0029781
-0.00276136
-0.00256588
-0.00240401
-0.00227236
-0.00215188
-0.00203928
-0.00193385
-0.00181952
-0.00377668
-0.00399227
-0.00406848
-0.00421711
-0.00430304
-0.00441785
-0.0044618
-0.00454691
-0.00449901
-0.00462966
-0.00466331
-0.00476415
-0.00471152
-0.00350991
-0.00327962
-0.00306932
-0.00283752
-0.00261105
-0.00242154
-0.0022722
-0.00214168
-0.00202242
-0.00191068
-0.00180851
-0.00169307
-0.00362416
-0.00383401
-0.00390682
-0.00405319
-0.00413177
-0.00424449
-0.00428958
-0.0043743
-0.00433025
-0.00444955
-0.00448811
-0.00458327
-0.00452862
-0.00337387
-0.00316614
-0.00293833
-0.00268311
-0.00245912
-0.00228794
-0.00214483
-0.00201407
-0.00189444
-0.00178653
-0.00168206
-0.0015699
-0.00347766
-0.00368565
-0.00374736
-0.00389414
-0.00396859
-0.00408221
-0.00411861
-0.00419901
-0.00416079
-0.00427802
-0.00431937
-0.00440993
-0.00435747
-0.00325376
-0.00305897
-0.00278291
-0.00251763
-0.00232096
-0.00216326
-0.00201937
-0.0018894
-0.00177302
-0.00166076
-0.0015599
-0.00144386
-0.00333849
-0.00354272
-0.00359595
-0.0037413
-0.00381019
-0.00392125
-0.00396072
-0.00403619
-0.00399429
-0.00411475
-0.0041456
-0.00422952
-0.00418914
-0.0031738
-0.00291365
-0.00259356
-0.00237033
-0.00219961
-0.00204276
-0.00189854
-0.00176917
-0.00164977
-0.00153961
-0.00143586
-0.00131958
-0.00324298
-0.00340812
-0.00344963
-0.00359482
-0.00366122
-0.00377043
-0.00380022
-0.0038751
-0.00383934
-0.00395168
-0.00399002
-0.0040665
-0.00402076
-0.00308092
-0.0026852
-0.00243337
-0.00225305
-0.00208477
-0.00192549
-0.00178056
-0.00165007
-0.00152853
-0.00141781
-0.0013114
-0.00119614
-0.00325839
-0.00328495
-0.00331755
-0.00345631
-0.00351878
-0.00362335
-0.00365369
-0.00372417
-0.00368912
-0.00380234
-0.00382508
-0.00390483
-0.00386663
-0.00279886
-0.00250383
-0.00232163
-0.00214507
-0.00197104
-0.00181066
-0.00166513
-0.00153033
-0.00140988
-0.0012943
-0.0011898
-0.0010707
-0.00292747
-0.0033938
-0.00327605
-0.00328943
-0.00338009
-0.00348959
-0.00351089
-0.00358074
-0.00355393
-0.00365219
-0.0036798
-0.00375276
-0.00371372
-0.0025812
-0.00240445
-0.00222225
-0.0020346
-0.00185919
-0.00169797
-0.00154944
-0.0014151
-0.00128961
-0.00117509
-0.0010665
-0.000944212
-0.00268688
-0.00289445
-0.00309264
-0.00361232
-0.00322748
-0.00335344
-0.00336485
-0.00344568
-0.00342598
-0.00351404
-0.00354028
-0.00360955
-0.00357905
-0.00249483
-0.0023128
-0.00211346
-0.0019257
-0.00175097
-0.00158807
-0.00143734
-0.00129972
-0.00117295
-0.00105317
-0.000940053
-0.000816497
-0.00259571
-0.00277829
-0.00286038
-0.00293431
-0.00313806
-0.00396688
-0.00304786
-0.00325001
-0.00319107
-0.0033877
-0.00341472
-0.00347819
-0.00345045
-0.00241153
-0.00220389
-0.00200629
-0.00182089
-0.00164526
-0.00148032
-0.00132854
-0.0011848
-0.00105316
-0.000928198
-0.000815038
-0.000686575
-0.0025086
-0.0026577
-0.00273714
-0.00285301
-0.00292171
-0.00300293
-0.00304397
-0.00286596
-0.00304805
-0.00462471
-0.00309066
-0.00332978
-0.00323523
-0.00230265
-0.0020966
-0.00190391
-0.00171758
-0.00154182
-0.00137603
-0.0012168
-0.00107129
-0.000932582
-0.000806096
-0.000686187
-0.000551259
-0.00240093
-0.00254691
-0.00261847
-0.00271759
-0.00278849
-0.00287138
-0.00292347
-0.00300135
-0.00295582
-0.00219155
-0.00199483
-0.00180198
-0.00161848
-0.0014418
-0.00127096
-0.00111054
-0.000956179
-0.000814132
-0.000679552
-0.00055353
-0.000413805
-0.00228955
-0.00243915
-0.00250389
-0.00260213
-0.00266245
-0.00273637
-0.00277277
-0.00284074
-0.00280259
-0.00208931
-0.00189321
-0.00170522
-0.00152265
-0.00134374
-0.0011713
-0.00100184
-0.00084157
-0.000691259
-0.000549484
-0.000418401
-0.000271157
-0.00218536
-0.00233091
-0.00239191
-0.00249242
-0.00254735
-0.00262546
-0.00265641
-0.00270789
-0.00267902
-0.00198783
-0.00179627
-0.00161079
-0.0014295
-0.00125013
-0.00106981
-0.00089438
-0.0007255
-0.000566057
-0.00041737
-0.000278301
-0.000124612
-0.00208157
-0.00222683
-0.00228566
-0.00238235
-0.0024366
-0.00251226
-0.00254191
-0.00259516
-0.00256611
-0.00188866
-0.00170217
-0.00152245
-0.00134032
-0.00115752
-0.000972004
-0.000787144
-0.000607656
-0.000438737
-0.000280637
-0.000133937
2.97749e-05
-0.00198145
-0.00212385
-0.0021781
-0.00227722
-0.00233144
-0.00240326
-0.00243347
-0.00248424
-0.00245691
-0.0017946
-0.00161583
-0.00143543
-0.00125591
-0.00106816
-0.000873323
-0.000678421
-0.000488005
-0.000307959
-0.000138731
1.68329e-05
0.000189471
-0.00188516
-0.00202417
-0.00207672
-0.00217119
-0.00222334
-0.00230382
-0.00232487
-0.00237642
-0.00235123
-0.00170604
-0.00152987
-0.00135749
-0.00117429
-0.000979325
-0.000775947
-0.000568433
-0.000365002
-0.000171367
7.54913e-06
0.000174541
0.000356024
-0.00179439
-0.00192788
-0.0019774
-0.00207098
-0.00212217
-0.00219157
-0.00221894
-0.00226989
-0.00224389
-0.00162028
-0.00145425
-0.00128146
-0.00109495
-0.000892349
-0.000678421
-0.000456629
-0.000239045
-3.14217e-05
0.000161946
0.000338775
0.00052963
-0.00170563
-0.00183528
-0.00188345
-0.00197487
-0.00202114
-0.00209159
-0.00211684
-0.00216805
-0.00214092
-0.00154375
-0.00138337
-0.00120928
-0.00101659
-0.000807129
-0.000580241
-0.000344712
-0.000108147
0.000115741
0.000323156
0.000512925
0.000707571
-0.00162578
-0.00174602
-0.00179189
-0.0018804
-0.00192525
-0.00199615
-0.00202127
-0.00206564
-0.00204038
-0.00147471
-0.00131714
-0.00113822
-0.000941849
-0.000724009
-0.000482838
-0.00022726
2.86216e-05
0.000271239
0.000493256
0.000697735
0.000903477
-0.00155567
-0.00166126
-0.00170596
-0.00179013
-0.00183382
-0.00189916
-0.00192468
-0.00196864
-0.00194415
-0.00141345
-0.00125067
-0.00106916
-0.00087208
-0.000641867
-0.000383276
-0.000105002
0.000171309
0.000433358
0.000679105
0.00089998
0.00108671
-0.00149323
-0.0015875
-0.0016241
-0.00170247
-0.00174541
-0.00181119
-0.00183109
-0.00187555
-0.00185315
-0.0013521
-0.00118139
-0.00100938
-0.000804125
-0.000561004
-0.000281015
1.98801e-05
0.000322415
0.00061515
0.000869253
0.00118473
0.000448257
-0.00143221
-0.00164448
-0.00157629
-0.00160231
-0.00165787
-0.00172708
-0.00174612
-0.00178621
-0.00176591
-0.00127918
-0.0011263
-0.00095304
-0.000741216
-0.000480169
-0.000175464
0.000153156
0.000491007
0.000785405
0.00120299
0.000540208
-0.00136276
-0.00145904
-0.00149519
-0.00184787
-0.00233868
-0.00153891
-0.00164013
-0.00166207
-0.00170296
-0.00168377
-0.0012226
-0.001077
-0.000903875
-0.000679096
-0.00039698
-6.65059e-05
0.000301389
0.00063944
0.00111597
0.000570405
-0.00130201
-0.00139726
-0.00143116
-0.00149119
-0.00152906
-0.00156467
-0.00164317
-0.00156432
-0.000839857
-0.00161748
-0.00160056
-0.00117473
-0.00103665
-0.00085751
-0.000619234
-0.000313876
5.63335e-05
0.000426812
0.000943292
0.000512746
-0.00125196
-0.00133894
-0.00136621
-0.00141048
-0.00143413
-0.00144569
-0.00147257
-0.00151961
-0.00155227
-0.00158722
-0.0016266
-0.00162729
-0.00142133
-0.00113812
-0.0010012
-0.000816936
-0.000559605
-0.000220216
0.00015812
0.000688975
0.000396219
-0.00121352
-0.00129032
-0.00131159
-0.00135434
-0.00136928
-0.00138201
-0.00139735
-0.001429
-0.00144969
-0.0014649
-0.0014911
-0.0015429
-0.00157395
-0.00161332
-0.0016513
-0.00110716
-0.000974917
-0.000777708
-0.000495427
-0.000142137
0.000366596
0.00023954
-0.00118335
-0.00125004
-0.00126679
-0.00130732
-0.0013185
-0.00132824
-0.00134252
-0.0013706
-0.00138431
-0.00140051
-0.00141225
-0.00144528
-0.00146323
-0.00148208
-0.00150625
-0.00108842
-0.000950987
-0.000739106
-0.000438246
6.2657e-06
6.08703e-05
-0.00116428
-0.00121955
-0.00123139
-0.0012644
-0.00127649
-0.00128281
-0.0012938
-0.00132289
-0.00133452
-0.001344
-0.00135816
-0.00138581
-0.00139893
-0.00141552
-0.00142717
-0.00107439
-0.000933023
-0.000698891
-0.000351763
-0.000120242
-0.00115343
-0.00119976
-0.00120496
-0.00123315
-0.00124156
-0.00124812
-0.00125449
-0.00127968
-0.00128963
-0.00129793
-0.0013092
-0.00133555
-0.0013493
-0.00135847
-0.00137211
-0.00107241
-0.00090541
-0.000668201
-0.000285113
-0.00115962
-0.00118917
-0.00118822
-0.00121308
-0.00121811
-0.00121981
-0.0012272
-0.00124722
-0.0012525
-0.00126253
-0.00126732
-0.00129282
-0.00130108
-0.00131159
-0.00132619
-0.00105995
-0.000919497
-0.00041985
-0.00116698
-0.00119532
-0.00118545
-0.00119918
-0.00120453
-0.00120264
-0.0012067
-0.00122507
-0.00122807
-0.00123262
-0.00123918
-0.00126002
-0.00126394
-0.00127327
-0.0012805
-0.00110893
-0.000521412
-0.00126749
-0.00120166
-0.00119298
-0.00120461
-0.00120067
-0.0012004
-0.0011959
-0.00120864
-0.00121231
-0.0012148
-0.0012184
-0.00123416
-0.00123858
-0.00124384
-0.00124964
-0.000594521
-0.000707549
-0.00130786
-0.00123505
-0.00121209
-0.00120844
-0.00120947
-0.00120228
-0.00120884
-0.00120853
-0.00120748
-0.00120642
-0.00121747
-0.00121953
-0.00122491
-0.00123024
-0.000661414
-0.00134613
-0.00129689
-0.00127284
-0.0012407
-0.0012232
-0.00121821
-0.00121501
-0.00121408
-0.00120974
-0.00121459
-0.00121599
-0.0012132
-0.00121479
-0.000562924
-0.00136621
-0.0014056
-0.00133161
-0.00129333
-0.00127009
-0.00124358
-0.0012302
-0.00122035
-0.00121791
-0.00121679
-0.00121531
-0.000578377
-0.00152244
-0.00142003
-0.00131888
-0.00129056
-0.00126478
-0.00124127
-0.00122909
-0.000726566
-0.00165957
-0.00141156
-0.00131832
-0.0964504
-0.095482
-0.0963012
-0.0955372
-0.0954254
-0.0959815
-0.0961387
-0.0957641
-0.0954388
-0.0952201
-0.0961774
-0.0962887
-0.0962129
-0.0957397
-0.0955053
-0.0952617
-0.095013
-0.0963776
-0.0965298
-0.0965194
-0.0965771
-0.095631
-0.0952504
-0.0953085
-0.0950501
-0.0947741
-0.0965911
-0.0967968
-0.097342
-0.0966547
-0.0969969
-0.095781
-0.094729
-0.0948299
-0.09508
-0.094822
-0.0945759
-0.0968322
-0.0970219
-0.097516
-0.096797
-0.0970547
-0.0959235
-0.0949001
-0.0938728
-0.0943898
-0.0948755
-0.0946564
-0.094614
-0.0943715
-0.0972236
-0.0976801
-0.0969413
-0.0972732
-0.0960654
-0.0950545
-0.0940382
-0.0939716
-0.0930133
-0.0936011
-0.0944556
-0.0942353
-0.0944192
-0.0941596
-0.0978316
-0.0970822
-0.0962061
-0.0951995
-0.0941949
-0.0931774
-0.0940253
-0.0938276
-0.0931178
-0.0921522
-0.092685
-0.0936994
-0.0936545
-0.0942026
-0.0939323
-0.0979739
-0.0972208
-0.0963468
-0.0953425
-0.0943431
-0.0933377
-0.092319
-0.0939782
-0.0937814
-0.0929783
-0.0922558
-0.0913056
-0.091827
-0.0926032
-0.0935824
-0.093015
-0.0937478
-0.098111
-0.0973574
-0.0964875
-0.0954868
-0.0944896
-0.0934913
-0.0924837
-0.0914697
-0.0930537
-0.0928489
-0.0921749
-0.0913887
-0.0905146
-0.0909694
-0.0917492
-0.0924471
-0.0926618
-0.0935514
-0.0932075
-0.0982442
-0.0974861
-0.0966212
-0.0956326
-0.0946386
-0.0936436
-0.0926434
-0.0916344
-0.0906489
-0.0922156
-0.092009
-0.0912938
-0.0906461
-0.0896068
-0.0901595
-0.0908603
-0.091591
-0.0918051
-0.0983684
-0.0975907
-0.09673
-0.0957717
-0.09479
-0.0937989
-0.0928027
-0.0917988
-0.0907976
-0.0897775
-0.0913507
-0.0911365
-0.0906527
-0.0897066
-0.0887162
-0.0892521
-0.0900618
-0.0906626
-0.0908951
-0.0984692
-0.0976313
-0.09677
-0.0958841
-0.094935
-0.0939575
-0.0929658
-0.0919651
-0.0909593
-0.0899419
-0.0888962
-0.0904349
-0.0906592
-0.0895927
-0.0888269
-0.0878229
-0.0883718
-0.0891718
-0.0898318
-0.090016
-0.0985094
-0.0975323
-0.0966601
-0.095922
-0.0950509
-0.0941089
-0.0931324
-0.0921367
-0.0911298
-0.0901109
-0.0890736
-0.0880059
-0.0908424
-0.089646
-0.0894239
-0.0887415
-0.0879371
-0.0869109
-0.0874773
-0.088296
-0.0890095
-0.0892407
-0.0898251
-0.0899151
-0.0984188
-0.0971683
-0.0962664
-0.0957989
-0.0950862
-0.094228
-0.0932906
-0.0923121
-0.0913092
-0.0902897
-0.0892534
-0.0881928
-0.0870997
-0.0896044
-0.0893989
-0.0887937
-0.0885679
-0.0878532
-0.0870274
-0.0859729
-0.0865601
-0.0873996
-0.088129
-0.0883559
-0.0889723
-0.0891991
-0.0980798
-0.0963528
-0.0953903
-0.0953705
-0.094947
-0.0942585
-0.0934125
-0.0924776
-0.0914938
-0.0904793
-0.0894433
-0.0883848
-0.0872968
-0.0861703
-0.0887452
-0.08853
-0.0879014
-0.0876764
-0.0869421
-0.0860936
-0.0850194
-0.0856146
-0.0864795
-0.0872286
-0.0874572
-0.088088
-0.0883101
-0.0973182
-0.0948505
-0.0937837
-0.0944253
-0.0944776
-0.0940985
-0.0934366
-0.0926014
-0.0916666
-0.0906741
-0.0896448
-0.0885879
-0.0875018
-0.0863804
-0.0852227
-0.087852
-0.0876362
-0.0869933
-0.0867628
-0.0860088
-0.0851305
-0.084076
-0.0846323
-0.0855307
-0.0863039
-0.0865394
-0.0871848
-0.0874113
-0.0959105
-0.0924285
-0.0912052
-0.0927043
-0.0934547
-0.0935823
-0.0932525
-0.0926161
-0.0917915
-0.0908545
-0.0898509
-0.0888035
-0.0877199
-0.0866009
-0.0854428
-0.0842664
-0.0869465
-0.0867194
-0.0860625
-0.0858294
-0.0850388
-0.0841714
-0.0830305
-0.0837001
-0.0845324
-0.0853575
-0.0855937
-0.0862595
-0.0864928
-0.0936347
-0.0889401
-0.087505
-0.0899567
-0.0916072
-0.0924725
-0.0926803
-0.092401
-0.0917941
-0.0909793
-0.0900387
-0.0890215
-0.0879511
-0.0868361
-0.0856792
-0.0844856
-0.0832513
-0.086015
-0.0857848
-0.0851031
-0.0848638
-0.0840922
-0.0831701
-0.081923
-0.0825888
-0.0836713
-0.084351
-0.0846029
-0.0853119
-0.0855487
-0.0903484
-0.0843995
-0.0827042
-0.0860323
-0.088677
-0.0904854
-0.0914699
-0.0917641
-0.0915422
-0.0909659
-0.0901616
-0.0892166
-0.0881822
-0.0870849
-0.0859333
-0.0847346
-0.0834905
-0.0821799
-0.085059
-0.0848201
-0.0841077
-0.0838708
-0.0830413
-0.082066
-0.0807752
-0.0814839
-0.0824812
-0.0833525
-0.0838496
-0.0842933
-0.0845622
-0.0860598
-0.0790061
-0.0770205
-0.0809639
-0.0845168
-0.087357
-0.0893277
-0.0904422
-0.0908306
-0.0906699
-0.0901274
-0.0893353
-0.0883842
-0.0873299
-0.0862006
-0.0850076
-0.0837586
-0.0824518
-0.0810561
-0.0840043
-0.0835968
-0.0830881
-0.0827962
-0.0819512
-0.0809299
-0.0796647
-0.0803254
-0.0813869
-0.0822823
-0.0825677
-0.0831277
-0.0840231
-0.0809536
-0.0730844
-0.0707995
-0.0749879
-0.0791727
-0.0829476
-0.0859871
-0.0881299
-0.089381
-0.0898721
-0.0897785
-0.0892743
-0.0884953
-0.0875377
-0.0864601
-0.0852946
-0.0840542
-0.082747
-0.0813663
-0.0798964
-0.0829784
-0.0827524
-0.0820296
-0.0817412
-0.0808124
-0.0798305
-0.0782923
-0.0793849
-0.0802122
-0.0811849
-0.0814796
-0.0822479
-0.0825146
-0.0830818
-0.0842842
-0.0753336
-0.0670044
-0.0644369
-0.0684729
-0.0729031
-0.0773205
-0.0813167
-0.0845594
-0.0868799
-0.0882791
-0.0888806
-0.0888626
-0.0884006
-0.0876373
-0.0866724
-0.0855687
-0.0843627
-0.0830698
-0.0816967
-0.0802327
-0.0786556
-0.0829548
-0.0827241
-0.0819826
-0.0817044
-0.0809053
-0.0806036
-0.0796304
-0.0778343
-0.0769045
-0.078385
-0.0800357
-0.0803267
-0.0811463
-0.0814308
-0.0822077
-0.0824684
-0.0695456
-0.061134
-0.0583254
-0.061841
-0.0661008
-0.0707578
-0.0754
-0.0796136
-0.0830626
-0.0855706
-0.0871269
-0.0878489
-0.0879138
-0.0875008
-0.0867556
-0.0857835
-0.0846516
-0.0834016
-0.0820511
-0.0806024
-0.0790372
-0.0773273
-0.0819297
-0.0816634
-0.0808626
-0.0805688
-0.0798417
-0.0797838
-0.0781325
-0.0765248
-0.0774297
-0.0754184
-0.0786279
-0.0799794
-0.0802822
-0.0811013
-0.0813757
-0.063932
-0.0558203
-0.0528339
-0.0555087
-0.0592154
-0.0636786
-0.0685468
-0.0734023
-0.0778306
-0.0814897
-0.0841923
-0.0859145
-0.0867684
-0.0869264
-0.0865677
-0.0858442
-0.0848657
-0.083705
-0.0824073
-0.0809927
-0.0794553
-0.0777767
-0.0759138
-0.0808105
-0.0805295
-0.079618
-0.0787177
-0.0782535
-0.0779038
-0.0767469
-0.0749996
-0.0760108
-0.0775468
-0.0771925
-0.0738593
-0.0788778
-0.0785678
-0.0799389
-0.0802363
-0.0588174
-0.0513747
-0.0482845
-0.0498663
-0.0526864
-0.056558
-0.061203
-0.0662639
-0.0713213
-0.0759598
-0.0798297
-0.0827324
-0.0846334
-0.0856301
-0.0858896
-0.0855936
-0.0848962
-0.0839135
-0.082724
-0.0813753
-0.0798881
-0.0782528
-0.0764404
-0.0744158
-0.0795945
-0.079082
-0.0768286
-0.0764866
-0.0752398
-0.0733943
-0.0744366
-0.0761365
-0.0757344
-0.0722728
-0.0545008
-0.0480113
-0.044883
-0.0452428
-0.0469234
-0.0498595
-0.0538697
-0.0586716
-0.0639049
-0.069151
-0.0739913
-0.078072
-0.0811824
-0.0832707
-0.0844213
-0.0847952
-0.0845698
-0.0839044
-0.082921
-0.0817028
-0.0802986
-0.0787314
-0.0769829
-0.0750186
-0.0728307
-0.0753286
-0.0749621
-0.0735623
-0.0718901
-0.0727358
-0.0745761
-0.0741579
-0.0703772
-0.0511992
-0.0457777
-0.0426576
-0.0418344
-0.0422592
-0.0440097
-0.0470339
-0.0511528
-0.0560838
-0.0614675
-0.0668847
-0.0719184
-0.0762077
-0.0795305
-0.0818158
-0.0831328
-0.083631
-0.0834867
-0.0828608
-0.0818804
-0.0806329
-0.0791703
-0.0775103
-0.0756312
-0.0734951
-0.0710738
-0.0737002
-0.0732847
-0.0722144
-0.0697425
-0.0709759
-0.0728216
-0.0723237
-0.0683098
-0.0489806
-0.0445415
-0.0414516
-0.0396439
-0.0388735
-0.0393396
-0.0411342
-0.0442148
-0.0484103
-0.053441
-0.0589494
-0.0645192
-0.069734
-0.0742289
-0.0777651
-0.0802563
-0.08175
-0.0823861
-0.0823333
-0.0817552
-0.080782
-0.0795061
-0.0779776
-0.0762089
-0.0741779
-0.0718349
-0.0691442
-0.0718399
-0.0721131
-0.069917
-0.0675652
-0.0688517
-0.0709524
-0.07045
-0.0660434
-0.0477376
-0.0440488
-0.0409916
-0.0384867
-0.0367405
-0.0360079
-0.0364944
-0.0383048
-0.0414099
-0.0456475
-0.0507456
-0.0563509
-0.0620516
-0.067433
-0.072124
-0.0758762
-0.0785784
-0.080261
-0.0810466
-0.0810975
-0.0805757
-0.079614
-0.0783067
-0.0767033
-0.0748074
-0.0725976
-0.0700214
-0.0670182
-0.0724873
-0.0700165
-0.0695009
-0.0677909
-0.0651879
-0.0666061
-0.0690224
-0.0684634
-0.0707842
-0.0704213
-0.0635416
-0.0472325
-0.0440163
-0.0409848
-0.0380693
-0.035646
-0.0339538
-0.0332453
-0.0337324
-0.0355314
-0.0386266
-0.0428713
-0.0480024
-0.0536742
-0.0594802
-0.0650095
-0.0698879
-0.0738513
-0.0767701
-0.0786514
-0.079598
-0.0797644
-0.079307
-0.0783603
-0.0770177
-0.0753256
-0.073283
-0.0708691
-0.0680234
-0.0646684
-0.0699007
-0.0694137
-0.0679181
-0.0673392
-0.0654082
-0.0625523
-0.0641013
-0.0667664
-0.0661442
-0.0689344
-0.0683761
-0.0607721
-0.0471908
-0.0442048
-0.0411889
-0.0380895
-0.0352766
-0.0329335
-0.0312907
-0.0305954
-0.0310643
-0.0328235
-0.0358757
-0.0400907
-0.0452184
-0.0509232
-0.0568065
-0.062462
-0.0675126
-0.0716819
-0.0748193
-0.0769053
-0.0780257
-0.0783172
-0.0779321
-0.0770014
-0.0756166
-0.07382
-0.0716125
-0.0689606
-0.0658082
-0.0620636
-0.0677752
-0.0672132
-0.0655309
-0.0648923
-0.0627552
-0.0596276
-0.0613133
-0.064256
-0.0635682
-0.0666528
-0.0660267
-0.0577017
-0.0473727
-0.0444542
-0.0414459
-0.0383053
-0.0353243
-0.0326175
-0.0303562
-0.0287586
-0.0280674
-0.0284985
-0.0301916
-0.0331681
-0.0373165
-0.0424028
-0.0481045
-0.0540337
-0.0597896
-0.064994
-0.0693588
-0.0727113
-0.0750093
-0.0763096
-0.0767357
-0.0764291
-0.0755134
-0.0740762
-0.0721605
-0.0697643
-0.0668434
-0.0633395
-0.0591672
-0.06537
-0.0647421
-0.0628726
-0.0621733
-0.0598112
-0.0563846
-0.0582152
-0.0614637
-0.0607023
-0.0641241
-0.0634249
-0.0543036
-0.0476126
-0.0438837
-0.0454212
-0.0385637
-0.0408977
-0.0423755
-0.0355503
-0.0326936
-0.0300965
-0.0279175
-0.0263627
-0.025665
-0.0260427
-0.0276469
-0.0305173
-0.0345612
-0.0395668
-0.0452275
-0.0511674
-0.0569939
-0.062329
-0.0668746
-0.0704366
-0.0729447
-0.0744318
-0.0749997
-0.0747734
-0.0738684
-0.0723693
-0.0703174
-0.0677044
-0.0644819
-0.0605852
-0.0559469
-0.0626853
-0.0620027
-0.0599244
-0.0591505
-0.0565398
-0.0527969
-0.0547806
-0.0583575
-0.0575185
-0.0613017
-0.0605377
-0.0505554
-0.0469994
-0.048592
-0.0436035
-0.044382
-0.0451055
-0.0458696
-0.035808
-0.0380383
-0.0394534
-0.040627
-0.0413744
-0.0420696
-0.0428037
-0.0329284
-0.0301999
-0.0277155
-0.0256199
-0.0241051
-0.0233957
-0.0237082
-0.0252021
-0.0279341
-0.0318385
-0.0367241
-0.0423036
-0.0482161
-0.0540799
-0.0595183
-0.0642243
-0.067983
-0.0706988
-0.072373
-0.0730839
-0.0729371
-0.0720386
-0.0704661
-0.0682544
-0.0653969
-0.061837
-0.057508
-0.0523802
-0.0597075
-0.0589455
-0.0566499
-0.0557897
-0.0529216
-0.0488472
-0.0509894
-0.0549184
-0.0539835
-0.0581726
-0.0573146
-0.0464617
-0.0467079
-0.0475157
-0.0482666
-0.0436902
-0.0444506
-0.0451316
-0.0458726
-0.0331835
-0.0353074
-0.0366577
-0.0377782
-0.0384933
-0.0391593
-0.0398623
-0.0407091
-0.0414395
-0.042094
-0.0428058
-0.0304417
-0.0278449
-0.0254757
-0.0234644
-0.0219905
-0.0212646
-0.0215003
-0.0228648
-0.0254337
-0.029164
-0.03389
-0.0393466
-0.0451923
-0.0510551
-0.0565644
-0.0614048
-0.0653429
-0.0682557
-0.0701121
-0.0709632
-0.0708921
-0.0699918
-0.0683292
-0.0659375
-0.0628024
-0.0588713
-0.0540876
-0.0484467
-0.0564048
-0.0555517
-0.053023
-0.0520734
-0.0489332
-0.0445827
-0.0468189
-0.0511112
-0.0500909
-0.0546979
-0.053745
-0.0420387
-0.0468011
-0.0475901
-0.0482957
-0.0306924
-0.032708
-0.033992
-0.0350581
-0.0357401
-0.0363761
-0.0370476
-0.0378556
-0.0385551
-0.0391826
-0.0398648
-0.0280914
-0.0256287
-0.023376
-0.0214521
-0.0200179
-0.0192737
-0.0194257
-0.0206468
-0.0230289
-0.0265538
-0.0310831
-0.036375
-0.0421098
-0.047931
-0.0534735
-0.0584171
-0.0625107
-0.0656028
-0.0676301
-0.0686129
-0.0686111
-0.0676961
-0.0659276
-0.0633293
-0.0598862
-0.0555605
-0.0503035
-0.0441443
-0.0527339
-0.0518003
-0.0490252
-0.0479847
-0.044554
-0.0401204
-0.0422522
-0.0469309
-0.0458217
-0.0508482
-0.0498157
-0.0372697
-0.028336
-0.0302419
-0.0314586
-0.0324695
-0.0331175
-0.0337228
-0.0343623
-0.0351306
-0.0357982
-0.036398
-0.0370502
-0.0258776
-0.02355
-0.0214166
-0.01958
-0.0181884
-0.0174246
-0.0174893
-0.0185565
-0.0207335
-0.0240253
-0.0283214
-0.0334067
-0.0389865
-0.0447222
-0.0502565
-0.0552664
-0.0594838
-0.062731
-0.064911
-0.0660132
-0.0660651
-0.0651221
-0.0632274
-0.060397
-0.0566271
-0.0518799
-0.0461477
-0.0395129
-0.0486925
-0.0476671
-0.0446517
-0.0435197
-0.0398695
-0.0351897
-0.0376874
-0.042356
-0.0411419
-0.0466317
-0.0454975
-0.0322295
-0.0261147
-0.0279101
-0.0290592
-0.0300143
-0.0306279
-0.0312019
-0.0318088
-0.0325367
-0.0331718
-0.0337431
-0.0343648
-0.0237992
-0.0216077
-0.0195932
-0.0178468
-0.0164982
-0.0157178
-0.0156936
-0.0166009
-0.0185594
-0.0215934
-0.0256238
-0.0304624
-0.0358435
-0.0414472
-0.046928
-0.0519612
-0.0562651
-0.0596356
-0.0619443
-0.063143
-0.0632341
-0.0622433
-0.0602004
-0.0571227
-0.0529996
-0.0478342
-0.0416535
-0.0346133
-0.0442879
-0.0431615
-0.0398263
-0.0386202
-0.0350273
-0.0299408
-0.0323777
-0.0374789
-0.0366293
-0.0420203
-0.0407627
-0.0269955
-0.0240276
-0.025713
-0.0267945
-0.0276931
-0.0282719
-0.028815
-0.0293893
-0.0300762
-0.030678
-0.0312204
-0.0318111
-0.0218546
-0.0197981
-0.0179031
-0.0162469
-0.014945
-0.0141497
-0.0140394
-0.0147866
-0.0165159
-0.0192753
-0.0230094
-0.0275657
-0.032704
-0.0381287
-0.0435077
-0.0485172
-0.052863
-0.0563192
-0.0587235
-0.059995
-0.0600996
-0.0590402
-0.0568354
-0.0534885
-0.0490186
-0.0434508
-0.0368745
-0.0295043
-0.0393775
-0.0380313
-0.0350429
-0.0336217
-0.0296646
-0.0245862
-0.0270323
-0.0323638
-0.0310285
-0.0366042
-0.0367442
-0.021658
-0.022073
-0.0236493
-0.024664
-0.0255064
-0.0260506
-0.0265628
-0.0271043
-0.0277496
-0.0283177
-0.0288317
-0.0293914
-0.0200405
-0.0181178
-0.0163408
-0.0147757
-0.0135223
-0.0127178
-0.0125268
-0.0131147
-0.0146135
-0.0170836
-0.020499
-0.0247392
-0.0295939
-0.0347938
-0.0400207
-0.0449546
-0.0492941
-0.052791
-0.0552532
-0.0565626
-0.0566567
-0.0555118
-0.0531239
-0.049514
-0.0447063
-0.0387755
-0.0318811
-0.0242622
-0.0342266
-0.033071
-0.0296643
-0.0283324
-0.0242781
-0.0191764
-0.0215979
-0.0270167
-0.0256551
-0.0318915
-0.0305732
-0.0370254
-0.0163377
-0.0202481
-0.0217172
-0.0226661
-0.0234531
-0.0239631
-0.0244445
-0.0249535
-0.0255575
-0.0260921
-0.0265777
-0.027106
-0.0183535
-0.0165615
-0.0149008
-0.0134268
-0.0122248
-0.0114161
-0.011152
-0.0115884
-0.0128559
-0.0150294
-0.0181102
-0.0220071
-0.0265426
-0.0314719
-0.0364956
-0.0413016
-0.0455819
-0.0490694
-0.0515458
-0.05286
-0.0529158
-0.051662
-0.0490931
-0.0452209
-0.0401096
-0.0338883
-0.0267454
-0.0190151
-0.03375
-0.0326823
-0.0291969
-0.0278684
-0.0242457
-0.0228926
-0.0188135
-0.0138132
-0.0161367
-0.0215447
-0.0201642
-0.0265599
-0.0251762
-0.0314386
-0.0301213
-0.0111668
-0.0185495
-0.0199139
-0.0207986
-0.0215313
-0.0220076
-0.0224586
-0.0229356
-0.023499
-0.0240003
-0.0244574
-0.0249547
-0.016789
-0.0151238
-0.013577
-0.0121929
-0.0110443
-0.0102389
-0.00991081
-0.0102038
-0.0112454
-0.0131243
-0.01586
-0.0193933
-0.0235783
-0.0281949
-0.0329676
-0.0375915
-0.0417574
-0.0451841
-0.0476296
-0.0489097
-0.0488994
-0.0475269
-0.0447709
-0.0406696
-0.0353113
-0.0288612
-0.0215917
-0.0138934
-0.0287251
-0.0274028
-0.0237507
-0.022389
-0.0187401