/*--------------------------------*- C++ -*----------------------------------*\
| =========                 |                                                 |
| \\      /  F ield         | OpenFOAM: The Open Source CFD Toolbox           |
|  \\    /   O peration     | Version:  v1912                                 |
|   \\  /    A nd           | Website:  www.openfoam.com                      |
|    \\/     M anipulation  |                                                 |
\*---------------------------------------------------------------------------*/
FoamFile
{
    version     2.0;
    format      ascii;
    class       volVectorField;
    location    "320";
    object      U;
}
// * * * * * * * * * * * * * * * * * * * * * * * * * * * * * * * * * * * * * //

dimensions      [0 1 -1 0 0 0 0];


internalField   nonuniform List<vector> 
3754
(
(0.0489774 -0.020714 0)
(0.150255 -0.0618892 -1.93037e-23)
(0.048478 -0.0205098 8.98164e-24)
(0.252722 -0.102056 0)
(0.148754 -0.0612808 9.49475e-24)
(0.0480004 -0.020308 -9.03535e-24)
(0.352148 -0.139409 6.78855e-21)
(0.250238 -0.10106 7.42418e-24)
(0.147306 -0.0606867 9.16095e-21)
(0.0475375 -0.0201106 0)
(0.44224 -0.171611 -5.97081e-21)
(0.348702 -0.138041 6.52328e-21)
(0.247804 -0.100078 -7.50466e-21)
(0.145872 -0.0600982 -8.49218e-24)
(0.0470729 -0.0199147 0)
(0.515387 -0.195986 5.19216e-24)
(0.437873 -0.169899 -5.74617e-21)
(0.345306 -0.136698 0)
(0.245411 -0.0991196 2.75271e-25)
(0.144453 -0.0595146 8.5126e-24)
(0.0466241 -0.0197242 0)
(0.563982 -0.210083 -2.03481e-25)
(0.51019 -0.193975 -5.22106e-21)
(0.433569 -0.168227 -5.28042e-24)
(0.341973 -0.135385 6.04035e-21)
(0.243034 -0.0981602 6.89691e-24)
(0.14307 -0.0589443 0)
(0.0461728 -0.0195331 0)
(0.582049 -0.212281 4.85046e-24)
(0.558074 -0.207828 4.91911e-21)
(0.505083 -0.192022 0)
(0.429351 -0.16659 -5.3149e-21)
(0.338664 -0.134074 5.81465e-24)
(0.24069 -0.0972121 0)
(0.141696 -0.0583782 0)
(0.0457208 -0.0193415 0)
(0.566786 -0.202281 0)
(0.575575 -0.209842 -4.8968e-21)
(0.55228 -0.205647 0)
(0.50007 -0.190108 -9.22392e-24)
(0.425163 -0.164963 1.48615e-23)
(0.335381 -0.132773 0)
(0.23837 -0.0962761 0)
(0.140324 -0.0578112 0)
(0.0452797 -0.0191531 -7.06498e-24)
(0.519357 -0.181267 -5.62538e-24)
(0.559881 -0.199713 4.97861e-21)
(0.569226 -0.207496 0)
(0.546593 -0.203516 -4.55951e-21)
(0.495101 -0.188212 9.23296e-24)
(0.42101 -0.163347 -3.86514e-25)
(0.332137 -0.131488 0)
(0.236069 -0.0953434 0)
(0.138964 -0.0572497 0)
(0.044851 -0.0189735 7.09906e-24)
(0.444659 -0.151682 0)
(0.512131 -0.178608 0)
(0.553122 -0.19727 -4.80358e-21)
(0.563035 -0.205225 4.46887e-21)
(0.540994 -0.201417 -4.39489e-21)
(0.490182 -0.186333 0)
(0.416903 -0.161748 -9.40824e-24)
(0.328914 -0.130207 0)
(0.233792 -0.0944243 0)
(0.137641 -0.0567027 7.03668e-21)
(0.0444187 -0.018794 0)
(0.35008 -0.11667 3.76374e-21)
(0.437116 -0.14893 -2.31268e-23)
(0.505094 -0.176137 5.10799e-21)
(0.546627 -0.194942 -1.83724e-23)
(0.556998 -0.203002 4.29257e-21)
(0.535472 -0.199345 0)
(0.485318 -0.184471 0)
(0.412822 -0.160158 0)
(0.325737 -0.128947 0)
(0.231545 -0.0935089 -5.72243e-21)
(0.13632 -0.0561604 -6.76884e-21)
(0.0439942 -0.0186145 0)
(0.244161 -0.0794833 -5.34095e-21)
(0.342021 -0.113779 3.60034e-24)
(0.429871 -0.146472 1.12125e-24)
(0.498506 -0.173834 0)
(0.540387 -0.192686 0)
(0.55109 -0.200827 1.65953e-23)
(0.530027 -0.197301 -4.07448e-21)
(0.480495 -0.18263 0)
(0.408793 -0.158588 4.35789e-21)
(0.322574 -0.127688 0)
(0.229321 -0.0926133 5.49858e-21)
(0.135031 -0.0556286 -3.12128e-24)
(0.0435745 -0.0184354 0)
(0.163375 -0.0524324 1.8589e-21)
(0.234447 -0.076174 2.11747e-21)
(0.159225 -0.0510315 -1.84148e-21)
(0.334505 -0.111303 0)
(0.42344 -0.144276 -5.61016e-21)
(0.492352 -0.171651 4.8589e-21)
(0.534374 -0.190516 0)
(0.545305 -0.198697 3.99242e-21)
(0.524657 -0.195289 -7.4796e-24)
(0.475738 -0.180811 -7.94411e-21)
(0.404802 -0.157035 0)
(0.319476 -0.12646 -4.59395e-21)
(0.227141 -0.0917286 1.09075e-25)
(0.133752 -0.0551002 3.12655e-24)
(0.0431625 -0.0182592 0)
(0.10832 -0.0343504 9.03258e-25)
(0.152932 -0.0485672 -1.83625e-21)
(0.226206 -0.0734741 -9.39626e-22)
(0.146337 -0.0470323 -1.80012e-21)
(0.104633 -0.0332485 1.22894e-21)
(0.328505 -0.109256 6.54283e-21)
(0.417715 -0.142282 -5.40392e-21)
(0.486561 -0.1696 1.78416e-23)
(0.528554 -0.188416 0)
(0.539643 -0.196616 7.70121e-24)
(0.519373 -0.193308 3.75979e-21)
(0.471053 -0.179023 3.79937e-24)
(0.400882 -0.155506 4.03272e-21)
(0.316421 -0.125243 -2.11432e-24)
(0.225002 -0.0908623 2.51862e-24)
(0.132495 -0.0545783 0)
(0.0427793 -0.0180962 0)
(0.0666775 -0.0210011 5.72879e-22)
(0.0970453 -0.0302422 0)
(0.141722 -0.0453257 0)
(0.22117 -0.0716331 -2.1032e-21)
(0.139146 -0.0444489 3.48017e-21)
(0.0878466 -0.028051 4.15098e-22)
(0.0630685 -0.0198947 2.23779e-24)
(0.0653226 -0.0206971 0)
(0.323634 -0.107582 -2.55495e-23)
(0.412525 -0.140479 7.54624e-25)
(0.481058 -0.167658 -6.68433e-25)
(0.522915 -0.186385 0)
(0.534096 -0.194578 0)
(0.514176 -0.191362 0)
(0.46644 -0.177258 0)
(0.397019 -0.153999 1.92745e-24)
(0.313435 -0.124057 2.11598e-24)
(0.222907 -0.0900094 2.31158e-24)
(0.131302 -0.0540809 -5.73435e-21)
(0.0423861 -0.0179313 0)
(0.0389734 -0.012197 0)
(0.0591936 -0.0185544 0)
(0.0524164 -0.0155345 -3.30248e-22)
(0.0834984 -0.0264057 4.06923e-22)
(0.137333 -0.0436638 6.76491e-21)
(0.217749 -0.0704824 1.96471e-21)
(0.136215 -0.0433552 -3.3664e-21)
(0.0817861 -0.0257171 -1.96895e-21)
(0.0420332 -0.0134894 -5.3479e-22)
(0.0454315 -0.0144192 -1.82573e-23)
(0.0364643 -0.0115084 4.85851e-22)
(0.0381624 -0.0120096 -5.26164e-22)
(0.319431 -0.106164 0)
(0.407712 -0.13882 5.18127e-21)
(0.475802 -0.165806 -1.72806e-23)
(0.517429 -0.184413 0)
(0.528663 -0.192585 -3.42399e-24)
(0.509075 -0.18945 -3.48406e-21)
(0.461894 -0.175522 3.51757e-21)
(0.393242 -0.152527 -3.70034e-21)
(0.310513 -0.122891 -4.055e-21)
(0.220878 -0.0891794 4.65013e-21)
(0.13012 -0.0535911 -5.49532e-21)
(0.0420123 -0.0177741 0)
(0.0125689 -0.00390944 0)
(0.0337815 -0.0102187 4.97094e-22)
(0.0230657 -0.00552832 2.42796e-22)
(0.0402245 -0.0126446 -5.84424e-22)
(0.0394018 -0.0123673 8.62456e-24)
(0.0808301 -0.0253774 -3.87754e-21)
(0.135163 -0.0429646 -3.31589e-21)
(0.214979 -0.0696238 -1.84878e-21)
(0.134405 -0.0428163 -3.22652e-21)
(0.0802268 -0.0251816 3.0336e-21)
(0.0388674 -0.0121253 -4.15312e-24)
(0.039083 -0.012184 1.628e-21)
(0.0138946 -0.00452839 3.69822e-22)
(0.0154168 -0.00507213 0)
(0.0116704 -0.00374303 -3.63866e-22)
(0.0123322 -0.00384841 3.72542e-22)
(0.315654 -0.104903 -5.98657e-21)
(0.403168 -0.137258 -4.97778e-21)
(0.470728 -0.164026 -8.01002e-24)
(0.51209 -0.182497 -3.74485e-21)
(0.52334 -0.190632 3.42812e-21)
(0.504052 -0.187573 -3.32997e-21)
(0.457456 -0.173824 3.37169e-21)
(0.389554 -0.151084 1.17035e-23)
(0.307672 -0.121752 0)
(0.218906 -0.0883752 4.45553e-21)
(0.128986 -0.0531179 0)
(0.0416464 -0.0176212 0)
(0.0109365 -0.00354618 -2.30097e-22)
(0.00640975 -0.00148336 -4.86719e-23)
(0.0129222 -0.00406807 3.93685e-22)
(0.0125847 -0.00392909 7.23771e-22)
(0.0386818 -0.0120449 1.05402e-21)
(0.038579 -0.0120393 4.06319e-24)
(0.0797393 -0.0250336 2.98362e-21)
(0.133536 -0.0425005 0)
(0.212531 -0.0688583 -1.81591e-21)
(0.132915 -0.0423795 -2.94198e-23)
(0.0793021 -0.0249173 7.50558e-22)
(0.0384205 -0.0119781 -4.0254e-24)
(0.0384632 -0.0119776 -4.10665e-26)
(0.0124131 -0.00385039 7.09801e-22)
(0.0124784 -0.00387519 1.76533e-24)
(0.312131 -0.103732 1.1709e-20)
(0.398845 -0.135783 -9.46103e-24)
(0.465822 -0.162304 3.99713e-21)
(0.506869 -0.180624 3.60301e-21)
(0.518118 -0.188722 -1.57948e-24)
(0.499144 -0.185732 1.59394e-24)
(0.453108 -0.172159 6.46655e-21)
(0.38596 -0.149673 3.3959e-21)
(0.304916 -0.120645 0)
(0.216991 -0.0875883 0)
(0.127884 -0.0526618 2.40264e-24)
(0.0412784 -0.0174653 -4.96393e-21)
(0.012362 -0.00383498 7.00523e-22)
(0.0123317 -0.00383131 6.94847e-22)
(0.0382929 -0.011919 0)
(0.0382139 -0.0119251 1.00978e-21)
(0.0788791 -0.024794 -1.13369e-23)
(0.132128 -0.0420801 3.05327e-21)
(0.210249 -0.0681383 -1.028e-20)
(0.131526 -0.0419523 -2.93102e-24)
(0.0784859 -0.0246793 2.84653e-21)
(0.0380707 -0.0118835 9.89837e-22)
(0.0381271 -0.0118754 -9.91349e-22)
(0.0122976 -0.00381404 -6.83796e-22)
(0.0123012 -0.00381819 6.88232e-22)
(0.308822 -0.102635 1.12529e-23)
(0.394679 -0.134355 0)
(0.461037 -0.160629 -3.83824e-21)
(0.501765 -0.178797 3.46186e-21)
(0.513003 -0.186844 1.58091e-24)
(0.494332 -0.183928 -6.13689e-21)
(0.448874 -0.170531 -3.09153e-21)
(0.382459 -0.148294 -1.5519e-24)
(0.302233 -0.119564 0)
(0.215144 -0.0868329 0)
(0.126797 -0.0522086 -4.6947e-24)
(0.0409474 -0.0173197 1.08078e-23)
(0.0122585 -0.00379836 6.7843e-22)
(0.0122267 -0.00379628 -6.70402e-22)
(0.037946 -0.0118269 0)
(0.0378825 -0.0118263 3.7935e-24)
(0.0780876 -0.0245578 -2.76906e-24)
(0.130766 -0.041657 2.95191e-21)
(0.208084 -0.0674376 3.35747e-21)
(0.130184 -0.0415346 2.91455e-21)
(0.0776914 -0.0244389 -2.6811e-24)
(0.0377053 -0.0117734 0)
(0.0377837 -0.0117738 9.67724e-22)
(0.0121834 -0.00378378 -8.41322e-25)
(0.0122122 -0.0037857 -6.68994e-22)
(0.305612 -0.101567 -5.52663e-21)
(0.390627 -0.132976 -2.10928e-24)
(0.456375 -0.158998 -3.68632e-21)
(0.496752 -0.176999 0)
(0.507983 -0.185003 3.02653e-21)
(0.489632 -0.18216 0)
(0.444748 -0.168939 -2.88918e-24)
(0.37907 -0.146955 -3.1026e-21)
(0.299655 -0.118523 0)
(0.213349 -0.0860933 3.84275e-21)
(0.125748 -0.0517657 9.14429e-21)
(0.0406064 -0.0171801 0)
(0.0121616 -0.00377411 2.58242e-24)
(0.0121397 -0.00376897 6.53383e-22)
(0.0375764 -0.0117128 9.53677e-22)
(0.0375164 -0.0117155 0)
(0.0773022 -0.024312 2.68363e-24)
(0.129461 -0.0412416 -2.84675e-21)
(0.205959 -0.0667559 6.35987e-21)
(0.128895 -0.0411168 -2.81186e-21)
(0.0769145 -0.0242011 6.77097e-22)
(0.0373434 -0.011663 0)
(0.0374173 -0.011665 0)
(0.0120668 -0.00374756 6.44872e-22)
(0.0121026 -0.00375149 -1.29939e-21)
(0.302521 -0.100545 0)
(0.386689 -0.13163 2.11277e-24)
(0.451794 -0.157394 -1.78472e-24)
(0.491833 -0.175235 -3.18991e-21)
(0.503062 -0.183194 2.93656e-21)
(0.485041 -0.180427 -2.82382e-21)
(0.440736 -0.167385 2.82776e-21)
(0.3758 -0.145654 0)
(0.297156 -0.117509 -3.24253e-21)
(0.211594 -0.0853682 -3.68432e-21)
(0.124731 -0.051346 -2.18019e-24)
(0.0402619 -0.0170367 8.17716e-24)
(0.0120392 -0.00373482 -6.3803e-22)
(0.0120128 -0.00373114 6.35129e-22)
(0.0372258 -0.0116052 0)
(0.0371579 -0.0115979 0)
(0.0765239 -0.0240688 6.65769e-22)
(0.12819 -0.0408392 -2.73566e-21)
(0.203934 -0.0660972 -1.55808e-21)
(0.127624 -0.0407179 -3.84909e-23)
(0.0761558 -0.0239575 2.50877e-24)
(0.0369762 -0.0115486 0)
(0.0370408 -0.0115485 -9.02278e-22)
(0.0119608 -0.00371472 6.27226e-22)
(0.0119921 -0.00371885 -6.31927e-22)
(0.299504 -0.0995379 0)
(0.382821 -0.13031 4.13381e-21)
(0.447278 -0.155812 3.40134e-21)
(0.486986 -0.173495 -3.00125e-21)
(0.498235 -0.181413 -3.13154e-23)
(0.480562 -0.178728 0)
(0.43686 -0.16587 2.70459e-21)
(0.372634 -0.144388 0)
(0.294721 -0.116518 2.99855e-24)
(0.209888 -0.0846679 0)
(0.12372 -0.0509271 -4.10919e-21)
(0.0399415 -0.0169016 -4.08209e-21)
(0.0119316 -0.00370183 6.21544e-22)
(0.0118978 -0.00369167 6.17803e-22)
(0.0368445 -0.011487 -8.86603e-22)
(0.0367685 -0.011486 -3.4354e-24)
(0.0757964 -0.0238387 -2.51173e-24)
(0.126942 -0.0404403 2.69129e-21)
(0.201939 -0.0654512 1.503e-21)
(0.126407 -0.0403201 2.61407e-21)
(0.0754218 -0.0237315 2.49105e-21)
(0.0366192 -0.011432 0)
(0.0366873 -0.011438 3.43827e-24)
(0.0118364 -0.0036758 6.08773e-22)
(0.011859 -0.00367817 -6.13592e-22)
(0.296534 -0.098551 -4.79327e-21)
(0.378995 -0.129003 0)
(0.442827 -0.154253 0)
(0.482204 -0.171773 2.87519e-21)
(0.4935 -0.179657 -5.33519e-24)
(0.476208 -0.177059 -2.5544e-21)
(0.433096 -0.164389 -1.28462e-24)
(0.369554 -0.143154 0)
(0.292355 -0.115558 -1.4601e-24)
(0.208219 -0.0839848 3.31187e-21)
(0.122735 -0.0505197 7.80869e-21)
(0.0396201 -0.0167651 0)
(0.0118058 -0.00366261 0)
(0.011776 -0.00365877 5.99098e-22)
(0.0364806 -0.0113728 0)
(0.0364216 -0.0113715 0)
(0.0750578 -0.0236032 -1.82421e-21)
(0.125737 -0.0400581 0)
(0.199973 -0.0648144 0)
(0.125193 -0.0399384 2.7362e-23)
(0.0747017 -0.0234998 1.21923e-21)
(0.036268 -0.0113273 8.45032e-22)
(0.0363278 -0.0113253 -3.28992e-24)
(0.0117206 -0.00363805 5.91118e-22)
(0.0117585 -0.00364692 -5.953e-22)
(0.293599 -0.0975738 0)
(0.375213 -0.127709 7.19282e-24)
(0.4384 -0.152698 0)
(0.477474 -0.170062 0)
(0.488849 -0.177915 0)
(0.471958 -0.17542 -1.28022e-24)
(0.429441 -0.162947 2.45078e-21)
(0.366564 -0.141956 0)
(0.290037 -0.114621 -2.75244e-21)
(0.206585 -0.0833165 -3.13159e-21)
(0.121762 -0.0501129 -3.67809e-21)
(0.0392883 -0.0166257 -3.64616e-21)
(0.0116791 -0.00362397 5.85082e-22)
(0.01166 -0.00361964 5.80838e-22)
(0.0361501 -0.0112689 -8.27019e-22)
(0.0360769 -0.0112626 -3.20251e-24)
(0.0743439 -0.0233807 -9.2006e-24)
(0.124535 -0.0396764 0)
(0.198038 -0.0641862 1.40022e-21)
(0.124012 -0.0395582 -2.45372e-21)
(0.0739895 -0.0232787 -2.31276e-21)
(0.03592 -0.0112152 -8.08746e-22)
(0.0359948 -0.0112266 -8.09492e-22)
(0.0116056 -0.003605 1.72295e-24)
(0.0116376 -0.00360834 -5.77669e-22)
(0.29069 -0.0966014 8.58937e-24)
(0.371434 -0.126415 -7.19962e-24)
(0.433975 -0.151139 1.16205e-23)
(0.472771 -0.168344 -5.10204e-24)
(0.48428 -0.176188 -4.66159e-24)
(0.467822 -0.173809 -2.31811e-21)
(0.425882 -0.161538 0)
(0.363639 -0.140787 4.69523e-24)
(0.287774 -0.113706 0)
(0.20496 -0.0826475 2.96582e-21)
(0.120784 -0.0497052 3.52989e-23)
(0.0389566 -0.0164849 -1.34969e-23)
(0.0115855 -0.00359343 5.678e-22)
(0.0115565 -0.00358594 0)
(0.0357881 -0.0111553 0)
(0.0357418 -0.0111557 0)
(0.0736534 -0.0231643 0)
(0.123372 -0.0393076 0)
(0.196121 -0.0635602 1.33689e-21)
(0.12285 -0.0391872 -2.33516e-21)
(0.0732908 -0.0230588 2.24069e-21)
(0.0355854 -0.0111124 7.84188e-22)
(0.035652 -0.0111168 0)
(0.0115005 -0.00357117 1.07869e-24)
(0.0115315 -0.00357979 5.58382e-22)
(0.287774 -0.0956262 -4.38019e-21)
(0.367607 -0.125103 -1.32636e-23)
(0.429503 -0.149554 -2.96398e-21)
(0.468087 -0.166615 -2.58251e-21)
(0.479782 -0.174464 4.65375e-24)
(0.463773 -0.172228 -2.09699e-24)
(0.422399 -0.160165 2.18671e-21)
(0.360774 -0.139645 0)
(0.285516 -0.112791 0)
(0.203332 -0.0819772 2.80044e-21)
(0.119802 -0.0492938 3.25469e-21)
(0.038633 -0.0163451 -3.22867e-21)
(0.0114608 -0.00355494 5.48148e-22)
(0.011443 -0.00355046 -5.45854e-22)
(0.0354759 -0.0110558 0)
(0.0354188 -0.0110586 0)
(0.072965 -0.0229491 -8.56182e-24)
(0.12221 -0.0389319 8.88165e-24)
(0.194213 -0.0629374 3.75009e-21)
(0.121693 -0.0388152 -4.52288e-21)
(0.0726177 -0.0228474 5.58657e-22)
(0.0352506 -0.0110065 7.53432e-22)
(0.0353242 -0.0110185 2.95637e-24)
(0.0113935 -0.00353779 3.6912e-24)
(0.0114171 -0.00354216 5.40956e-22)
(0.284811 -0.0946366 -8.26164e-24)
(0.363682 -0.123754 3.29834e-21)
(0.424959 -0.147921 2.76243e-21)
(0.463387 -0.164847 -2.48043e-21)
(0.475342 -0.172752 1.0493e-24)
(0.4598 -0.170682 2.0936e-24)
(0.418983 -0.158824 -3.92247e-24)
(0.357928 -0.138512 8.1404e-24)
(0.283264 -0.111877 0)
(0.201703 -0.0813039 -3.00154e-23)
(0.118815 -0.0488765 -1.16287e-23)
(0.0382955 -0.016202 3.02197e-21)
(0.0113706 -0.00352455 -5.35154e-22)
(0.0113403 -0.00352166 5.27638e-22)
(0.0351342 -0.01095 -7.48089e-22)
(0.035086 -0.0109557 2.87055e-24)
(0.0722871 -0.0227312 0)
(0.121078 -0.0385724 2.21732e-21)
(0.192281 -0.0623045 -1.25853e-21)
(0.120562 -0.0384517 2.16291e-21)
(0.0719374 -0.0226301 2.08103e-21)
(0.0349288 -0.0109077 0)
(0.0349965 -0.0109168 -7.31422e-22)
(0.0112921 -0.00350486 1.71198e-24)
(0.0113216 -0.00351563 5.23199e-22)
(0.281722 -0.0936042 1.5241e-23)
(0.359566 -0.122324 3.24786e-21)
(0.420262 -0.146201 2.64809e-21)
(0.458662 -0.163048 0)
(0.470952 -0.171064 -1.04754e-24)
(0.455898 -0.169176 0)
(0.415604 -0.157503 1.13252e-23)
(0.355084 -0.137378 -1.58e-23)
(0.281005 -0.110959 -2.19789e-21)
(0.200075 -0.0806273 9.25746e-24)
(0.117813 -0.0484518 7.8221e-25)
(0.0379538 -0.0160603 -2.83073e-21)
(0.0112504 -0.00348747 5.13371e-22)
(0.0112274 -0.00348743 5.10164e-22)
(0.034831 -0.0108545 2.79104e-24)
(0.0347719 -0.0108554 -1.41079e-24)
(0.0716299 -0.0225262 -2.04754e-21)
(0.119947 -0.0382093 2.09816e-21)
(0.190273 -0.0616466 -1.1965e-21)
(0.119424 -0.0380824 0)
(0.0712873 -0.0224268 9.91908e-24)
(0.0346099 -0.0108055 0)
(0.034668 -0.0108078 -1.38423e-24)
(0.0111904 -0.00347438 5.03644e-22)
(0.011211 -0.00348131 0)
(0.278358 -0.0924817 9.58354e-23)
(0.35515 -0.120767 -3.12932e-21)
(0.415386 -0.144368 -2.62052e-21)
(0.453923 -0.161246 0)
(0.466627 -0.169428 -7.45386e-24)
(0.45205 -0.167703 0)
(0.412241 -0.156187 -7.4034e-24)
(0.352247 -0.136243 7.66048e-24)
(0.278755 -0.110037 2.05704e-21)
(0.198419 -0.0799355 -9.26174e-24)
(0.11681 -0.0480284 2.09545e-23)
(0.0375995 -0.0159127 0)
(0.0111606 -0.00345886 -9.78226e-25)
(0.0111353 -0.00345738 4.92516e-22)
(0.0345135 -0.0107606 0)
(0.0344528 -0.0107563 0)
(0.0709647 -0.022317 -4.98796e-22)
(0.118825 -0.0378474 2.05342e-21)
(0.188037 -0.0609255 -5.65275e-21)
(0.118263 -0.0377057 1.99419e-21)
(0.070635 -0.0222177 4.88686e-22)
(0.0343039 -0.0107086 -1.31996e-24)
(0.0343675 -0.0107182 1.31907e-24)
(0.0110772 -0.00343809 -4.86208e-22)
(0.011112 -0.00344665 4.9082e-22)
(0.27458 -0.0912103 3.67175e-21)
(0.350268 -0.118978 2.92639e-21)
(0.410336 -0.14246 -1.21948e-24)
(0.449231 -0.15951 2.08924e-21)
(0.462393 -0.167844 4.04058e-25)
(0.448252 -0.166246 0)
(0.408894 -0.15487 1.7495e-21)
(0.349415 -0.135101 -1.78551e-21)
(0.27648 -0.109101 -7.72984e-24)
(0.196762 -0.0792392 8.02344e-24)
(0.115787 -0.0475953 2.46227e-21)
(0.0372402 -0.0157596 4.55565e-24)
(0.0110551 -0.00343014 4.80937e-22)
(0.0110314 -0.00342635 4.7669e-22)
(0.0341984 -0.0106616 0)
(0.0341542 -0.0106639 6.56008e-22)
(0.0703248 -0.0221108 -1.41088e-21)
(0.117605 -0.0374565 1.93506e-21)
(0.185373 -0.0600664 0)
(0.116945 -0.0372835 -1.94351e-21)
(0.0699745 -0.0220095 0)
(0.0339975 -0.010614 5.37389e-24)
(0.0340646 -0.0106203 -1.25781e-24)
(0.0109919 -0.0034102 -4.69987e-22)
(0.0110133 -0.0034179 4.7257e-22)
(0.269939 -0.0895981 1.78921e-21)
(0.344889 -0.116944 2.90605e-21)
(0.405288 -0.140643 -2.23247e-21)
(0.444697 -0.157862 -7.38926e-24)
(0.458263 -0.166295 7.05158e-24)
(0.444491 -0.164795 -1.64844e-21)
(0.405553 -0.153548 -6.56951e-24)
(0.346572 -0.133952 -1.67632e-21)
(0.27419 -0.108153 0)
(0.195085 -0.0785353 -1.99779e-21)
(0.114744 -0.0471509 -2.2786e-21)
(0.0368878 -0.0156095 -1.28856e-23)
(0.0109578 -0.00339977 0)
(0.010943 -0.0033994 0)
(0.0338986 -0.0105676 1.25584e-24)
(0.0338431 -0.0105636 -6.3232e-22)
(0.069643 -0.0218941 -4.4969e-22)
(0.116171 -0.037005 -1.89815e-21)
(0.181618 -0.0588637 -2.65044e-21)
(0.115212 -0.0367412 1.43295e-23)
(0.0692676 -0.0217857 2.23062e-21)
(0.0336964 -0.0105167 0)
(0.0337654 -0.01053 0)
(0.0108826 -0.00337743 -9.05842e-22)
(0.0109183 -0.00338584 4.56932e-22)
(0.264095 -0.0874073 -3.38034e-21)
(0.339412 -0.115034 -2.65048e-21)
(0.400527 -0.138973 2.17726e-21)
(0.440367 -0.156277 7.40062e-24)
(0.454226 -0.16477 1.69041e-21)
(0.440763 -0.16335 -1.58221e-21)
(0.402214 -0.152224 1.52449e-21)
(0.343706 -0.132788 5.87088e-24)
(0.271895 -0.107201 -1.653e-21)
(0.193395 -0.0778211 1.83299e-21)
(0.113712 -0.0467082 2.08282e-21)
(0.0365183 -0.0154522 8.33862e-24)
(0.0108614 -0.00336997 4.48514e-22)
(0.0108394 -0.00336652 4.44421e-22)
(0.0335895 -0.0104714 6.11606e-22)
(0.0335403 -0.0104696 -1.18533e-24)
(0.0688859 -0.0216473 1.76358e-21)
(0.113884 -0.0363636 1.7854e-21)
(0.174844 -0.0564535 -1.58904e-23)
(0.112008 -0.0357504 -1.39365e-23)
(0.0683513 -0.0215041 4.23647e-22)
(0.0334053 -0.0104261 7.55593e-24)
(0.0334565 -0.0104325 -1.16407e-24)
(0.0107964 -0.00334848 0)
(0.0108258 -0.00335955 4.40381e-22)
(0.257871 -0.0853347 3.1089e-21)
(0.334493 -0.113374 -2.43697e-21)
(0.396172 -0.137417 -1.63129e-23)
(0.436229 -0.154747 -1.73643e-21)
(0.450271 -0.163271 1.55912e-21)
(0.437067 -0.161914 0)
(0.398883 -0.150898 -1.43998e-21)
(0.340852 -0.131622 1.44007e-21)
(0.269589 -0.106238 -1.5218e-21)
(0.19171 -0.0771016 -1.68114e-21)
(0.11266 -0.0462509 -1.89213e-21)
(0.0361361 -0.0152903 0)
(0.0107564 -0.00333739 4.32787e-22)
(0.0107409 -0.00333663 4.29049e-22)
(0.033317 -0.0103814 -1.16268e-24)
(0.0332484 -0.010369 0)
(0.0676415 -0.0213041 -4.11974e-22)
(0.10863 -0.0346513 9.21257e-22)
(0.166667 -0.0539333 5.23556e-22)
(0.103086 -0.0325731 1.40095e-23)
(0.0665079 -0.0209862 -5.13464e-23)
(0.03307 -0.010323 -5.75545e-22)
(0.0331585 -0.0103377 5.82878e-22)
(0.0107042 -0.00332134 -8.44764e-22)
(0.0107287 -0.00332905 4.2542e-22)
(0.25287 -0.0836618 -3.04899e-21)
(0.330311 -0.111908 0)
(0.392141 -0.135954 0)
(0.432249 -0.153272 -1.27223e-23)
(0.446396 -0.161799 -1.51575e-21)
(0.43341 -0.160488 2.77532e-21)
(0.395573 -0.149571 -5.39997e-24)
(0.338002 -0.13045 -8.28807e-24)
(0.267288 -0.105266 -1.40661e-21)
(0.190004 -0.0763666 1.52761e-21)
(0.111579 -0.0457825 1.69819e-21)
(0.0357526 -0.0151297 2.93669e-24)
(0.0106847 -0.00331294 4.18235e-22)
(0.0106582 -0.0033058 4.15168e-22)
(0.0329337 -0.0102723 6.4296e-24)
(0.0327915 -0.0102426 -4.38507e-24)
(0.0642639 -0.0202477 -5.67231e-22)
(0.0967686 -0.030822 -8.71254e-22)
(0.161843 -0.0521568 3.04503e-21)
(0.0931892 -0.029806 -8.02091e-22)
(0.0570468 -0.01764 0)
(0.032293 -0.0101145 -2.78811e-22)
(0.0326221 -0.0101844 4.37409e-24)
(0.010608 -0.00329213 4.08692e-22)
(0.0106371 -0.00329854 -4.09749e-22)
(0.249176 -0.0823596 2.29777e-23)
(0.326663 -0.110606 0)
(0.388373 -0.134589 0)
(0.428413 -0.151848 1.57193e-21)
(0.442599 -0.160349 -1.38326e-21)
(0.429794 -0.159069 -3.45738e-25)
(0.392287 -0.148244 -2.7973e-23)
(0.335159 -0.129269 1.22012e-21)
(0.264982 -0.104286 4.70778e-24)
(0.188283 -0.0756234 -2.72283e-21)
(0.110503 -0.0453151 0)
(0.0353541 -0.0149614 -2.94351e-24)
(0.0105734 -0.0032804 2.5547e-24)
(0.0105338 -0.00327005 4.00277e-22)
(0.031729 -0.010004 -1.6595e-23)
(0.0305202 -0.00946945 -2.49269e-22)
(0.0479876 -0.0154965 -1.47091e-22)
(0.0913942 -0.0289355 7.73126e-22)
(0.159219 -0.0511695 -8.46512e-22)
(0.090442 -0.0285983 1.23266e-23)
(0.0449387 -0.0141919 1.11188e-21)
(0.0189389 -0.00444126 0)
(0.0279199 -0.00829899 0)
(0.010381 -0.00322682 5.86957e-22)
(0.0104958 -0.00325249 -3.97033e-22)
(0.246219 -0.0813245 -2.86585e-21)
(0.323367 -0.109437 0)
(0.384817 -0.133301 -6.75831e-24)
(0.424697 -0.150462 0)
(0.438876 -0.158921 0)
(0.426226 -0.157657 1.18383e-21)
(0.389014 -0.146912 1.16397e-21)
(0.332327 -0.128085 0)
(0.262669 -0.103295 1.13813e-21)
(0.186567 -0.0748742 -1.20133e-21)
(0.109406 -0.0448313 1.30352e-21)
(0.0349448 -0.0147923 0)
(0.0101895 -0.00319709 -3.8755e-22)
(0.0097232 -0.00311317 -1.77314e-22)
(0.0126991 -0.00398413 2.16081e-22)
(0.0113007 -0.00375882 0)
(0.0441289 -0.0137712 0)
(0.0897305 -0.0283063 -1.23204e-23)
(0.157385 -0.0505877 4.25968e-21)
(0.0892897 -0.0282142 1.51742e-21)
(0.0437081 -0.013617 3.65193e-22)
(0.0103381 -0.00325462 -3.8764e-22)
(0.0106086 -0.00335027 2.0081e-22)
(0.00523652 -0.00117979 0)
(0.00905553 -0.00290822 -1.696e-22)
(0.24367 -0.0804546 0)
(0.320336 -0.10837 -2.13159e-21)
(0.381424 -0.132068 1.31849e-23)
(0.421093 -0.149114 0)
(0.435225 -0.157511 1.27376e-21)
(0.422697 -0.156253 -1.09759e-21)
(0.385784 -0.145584 -3.91624e-24)
(0.329509 -0.126891 0)
(0.260373 -0.102296 1.00514e-21)
(0.184838 -0.0741091 -1.04725e-21)
(0.108282 -0.0443374 0)
(0.034525 -0.0146154 0)
(0.0102977 -0.00320104 -3.87263e-22)
(0.0102546 -0.00318817 0)
(0.0434547 -0.0135401 1.15831e-23)
(0.0888043 -0.0280519 -1.2441e-25)
(0.155832 -0.0501236 -8.37483e-22)
(0.0884666 -0.0279967 -1.45712e-21)
(0.0432579 -0.0134826 0)
(0.0102148 -0.00317542 7.13166e-25)
(0.0102259 -0.00316785 3.76933e-22)
(0.241388 -0.0796834 2.50374e-21)
(0.317493 -0.107369 2.03326e-21)
(0.378172 -0.130884 -6.42423e-24)
(0.417587 -0.147793 -1.30638e-21)
(0.431642 -0.156117 -1.19492e-21)
(0.419225 -0.154854 -1.06914e-21)
(0.382575 -0.144249 9.86548e-22)
(0.326709 -0.12569 -9.2844e-22)
(0.258067 -0.101283 -8.9772e-22)
(0.18308 -0.0733279 7.78877e-25)
(0.107148 -0.0438335 8.92627e-22)
(0.0340977 -0.0144339 0)
(0.0101993 -0.00316079 -7.11145e-25)
(0.0101913 -0.00316776 3.62522e-22)
(0.0430911 -0.0134414 3.51725e-22)
(0.0880433 -0.0278451 0)
(0.154457 -0.0496947 0)
(0.0877208 -0.0277859 1.38965e-21)
(0.0429249 -0.01339 -1.32479e-24)
(0.0101604 -0.00315657 3.54367e-22)
(0.0101691 -0.00315133 3.58211e-22)
(0.239273 -0.0789668 -2.37817e-21)
(0.314792 -0.106414 0)
(0.37503 -0.129733 5.74896e-24)
(0.414167 -0.146496 1.22032e-21)
(0.42813 -0.154734 1.0506e-21)
(0.415796 -0.153456 -9.26413e-22)
(0.379402 -0.142911 1.73693e-21)
(0.323923 -0.124479 7.8764e-22)
(0.25576 -0.100257 0)
(0.181311 -0.0725324 -7.17557e-22)
(0.105986 -0.0433121 0)
(0.0336512 -0.0142465 0)
(0.0101402 -0.00314399 -6.87835e-25)
(0.0101394 -0.00315027 6.50448e-25)
(0.0427695 -0.0133501 -1.26815e-24)
(0.0873123 -0.0276269 -1.38144e-21)
(0.153172 -0.0492814 1.54583e-21)
(0.0870258 -0.0275662 0)
(0.0425872 -0.0132993 2.59745e-24)
(0.0101008 -0.00313587 6.69053e-25)
(0.0101157 -0.00313349 3.43573e-22)
(0.237269 -0.0782863 -9.35239e-24)
(0.312201 -0.105497 -6.81266e-24)
(0.371988 -0.128612 -3.17605e-25)
(0.410834 -0.145217 -1.21832e-21)
(0.424681 -0.153361 0)
(0.412421 -0.152061 -8.4842e-22)
(0.376265 -0.141567 0)
(0.321151 -0.123256 -1.45496e-24)
(0.253448 -0.0992132 0)
(0.179523 -0.071718 0)
(0.104801 -0.0427762 4.59899e-22)
(0.0331841 -0.014053 -2.26315e-22)
(0.0100777 -0.00312392 3.36953e-22)
(0.0100734 -0.00313075 0)
(0.0424206 -0.0132472 1.26885e-21)
(0.0866271 -0.0274072 -1.2939e-21)
(0.151933 -0.0488807 1.47428e-21)
(0.0863274 -0.0273428 -1.26178e-21)
(0.0422533 -0.0131936 -3.1441e-22)
(0.0100256 -0.00311715 3.2546e-22)
(0.0100421 -0.00311465 3.31303e-22)
(0.235361 -0.0776353 -4.22269e-24)
(0.309716 -0.104609 1.74931e-21)
(0.36903 -0.12751 1.30465e-21)
(0.40758 -0.143956 1.15237e-21)
(0.421302 -0.151994 1.74564e-24)
(0.40909 -0.15066 1.47019e-24)
(0.373151 -0.140211 7.16544e-22)
(0.318385 -0.122014 0)
(0.251121 -0.0981468 2.00888e-25)
(0.177704 -0.0708799 -3.69093e-22)
(0.103576 -0.0422226 2.31631e-22)
(0.0327032 -0.0138521 8.55864e-26)
(0.00999838 -0.00310119 3.2344e-22)
(0.00999203 -0.00310579 3.20691e-22)
(0.0420912 -0.0131402 0)
(0.0859531 -0.027195 -2.48667e-21)
(0.15075 -0.0484909 7.01757e-22)
(0.0856718 -0.0271358 -1.20618e-21)
(0.0419193 -0.0130852 -1.16284e-24)
(0.00994481 -0.00309125 3.14727e-22)
(0.00995969 -0.00308833 3.14656e-22)
(0.233534 -0.0770058 -2.04845e-21)
(0.307299 -0.10374 1.65509e-21)
(0.366167 -0.126432 -1.2312e-21)
(0.404403 -0.142702 -2.09347e-24)
(0.417984 -0.150629 -1.74561e-24)
(0.405811 -0.149257 -6.7956e-22)
(0.370068 -0.138844 0)
(0.31563 -0.120754 0)
(0.248776 -0.0970557 -2.01028e-25)
(0.175861 -0.0700219 -3.96642e-22)
(0.102316 -0.0416481 0)
(0.0322043 -0.0136463 -3.13203e-22)
(0.00991896 -0.00307588 3.10306e-22)
(0.00991163 -0.00308054 3.0719e-22)
(0.0417642 -0.0130378 1.16577e-21)
(0.0853078 -0.0269884 -1.17326e-24)
(0.149621 -0.0481151 -2.1708e-23)
(0.0850295 -0.0269283 -1.14888e-21)
(0.041613 -0.012995 0)
(0.00987675 -0.00306574 5.84609e-25)
(0.00989059 -0.0030655 -5.97173e-25)
(0.231759 -0.0763928 -1.94936e-21)
(0.30497 -0.102892 0)
(0.363383 -0.125365 1.24578e-21)
(0.401299 -0.141455 0)
(0.414729 -0.149264 0)
(0.402576 -0.147846 0)
(0.367008 -0.137459 5.39604e-22)
(0.312875 -0.119471 -3.94693e-22)
(0.246419 -0.0959389 1.76688e-22)
(0.17397 -0.0691317 -2.7238e-23)
(0.101022 -0.0410586 1.94298e-25)
(0.0316811 -0.0134349 -2.2338e-25)
(0.00984101 -0.00305006 2.96753e-22)
(0.00983646 -0.00305706 2.93523e-22)
(0.0414585 -0.012943 0)
(0.0846845 -0.0267875 2.2547e-21)
(0.14852 -0.047752 6.36587e-22)
(0.0844242 -0.0267269 -1.09424e-21)
(0.0412998 -0.0128968 1.06001e-24)
(0.0098067 -0.00304753 0)
(0.0098129 -0.00304373 2.91659e-22)
(0.230055 -0.075799 -1.95008e-21)
(0.302712 -0.102058 -1.40016e-21)
(0.36067 -0.124304 2.15435e-24)
(0.398264 -0.140211 1.70096e-24)
(0.411535 -0.147897 0)
(0.399386 -0.146423 -5.10337e-22)
(0.363977 -0.136055 3.585e-22)
(0.310111 -0.118155 0)
(0.244028 -0.0947883 2.28226e-23)
(0.172038 -0.0682137 0)
(0.0996711 -0.0404501 -5.21772e-25)
(0.0311484 -0.0132253 -2.06261e-24)
(0.00977395 -0.00303039 2.84857e-22)
(0.00975975 -0.00303375 2.81389e-22)
(0.0411657 -0.0128504 -1.06191e-21)
(0.084077 -0.0265916 4.15084e-24)
(0.147465 -0.047404 2.90786e-21)
(0.0838149 -0.0265355 -1.0455e-21)
(0.0410126 -0.0128004 0)
(0.00972857 -0.0030238 5.34315e-25)
(0.00973661 -0.00301985 2.7846e-22)
(0.228407 -0.0752207 0)
(0.300531 -0.101233 0)
(0.358034 -0.123248 -1.64635e-24)
(0.395304 -0.138971 8.85785e-22)
(0.408404 -0.146525 0)
(0.396243 -0.144983 0)
(0.360958 -0.134623 0)
(0.307336 -0.116807 2.26959e-26)
(0.241592 -0.0936002 0)
(0.170054 -0.0672668 0)
(0.0982638 -0.0398334 3.27871e-25)
(0.0306165 -0.0130097 -1.21097e-21)
(0.00970398 -0.0030095 2.71593e-22)
(0.00970007 -0.00301365 2.68976e-22)
(0.0408736 -0.012758 2.53389e-22)
(0.0834868 -0.0264049 0)
(0.146442 -0.0470746 -5.71912e-22)
(0.0832391 -0.0263509 -9.90677e-22)
(0.0407217 -0.0127135 3.95303e-24)
(0.00966293 -0.00300108 0)
(0.00967548 -0.00299833 2.66711e-22)
(0.226826 -0.0746515 1.77416e-21)
(0.298422 -0.100407 0)
(0.355468 -0.122197 -9.53948e-22)
(0.392416 -0.137734 0)
(0.405334 -0.145143 0)
(0.393138 -0.143523 4.59578e-22)
(0.35795 -0.133159 7.29439e-26)
(0.304553 -0.115425 -2.2705e-26)
(0.239124 -0.092376 2.27821e-22)
(0.167993 -0.0662852 5.8504e-22)
(0.0967951 -0.0392356 0)
(0.0302296 -0.0127118 1.55535e-21)
(0.00963694 -0.00298791 0)
(0.00963361 -0.00299301 2.6245e-25)
(0.0405862 -0.0126689 0)
(0.0829088 -0.0262288 9.6242e-25)
(0.145454 -0.0467714 -2.10223e-21)
(0.082656 -0.0261854 9.41841e-22)
(0.0404419 -0.0126257 0)
(0.00959089 -0.00298094 2.51327e-22)
(0.00960485 -0.00297821 2.55123e-22)
(0.225322 -0.0740684 -7.895e-25)
(0.296369 -0.0995822 0)
(0.352986 -0.121161 0)
(0.389604 -0.136493 0)
(0.402326 -0.143747 -4.52538e-22)
(0.390071 -0.142037 1.3376e-25)
(0.354959 -0.131661 -7.29652e-26)
(0.301744 -0.113998 -1.17733e-22)
(0.236586 -0.0911085 -4.88971e-22)
(0.165888 -0.0652967 0)
(0.0952256 -0.038582 0)
(0.0306206 -0.0124508 0)
(0.00956871 -0.00296747 0)
(0.00956216 -0.00297141 2.45566e-22)
(0.0403012 -0.0125819 0)
(0.0823342 -0.0260943 9.32657e-22)
(0.144634 -0.0463282 1.03147e-24)
(0.0821167 -0.0261094 3.57825e-24)
(0.0401577 -0.0125408 0)