/*--------------------------------*- C++ -*----------------------------------*\
| =========                 |                                                 |
| \\      /  F ield         | OpenFOAM: The Open Source CFD Toolbox           |
|  \\    /   O peration     | Version:  v1912                                 |
|   \\  /    A nd           | Website:  www.openfoam.com                      |
|    \\/     M anipulation  |                                                 |
\*---------------------------------------------------------------------------*/
FoamFile
{
    version     2.0;
    format      ascii;
    class       surfaceScalarField;
    location    "110";
    object      phi;
}
// * * * * * * * * * * * * * * * * * * * * * * * * * * * * * * * * * * * * * //

dimensions      [0 3 -1 0 0 0 0];
oriented        oriented;


internalField   nonuniform List<scalar> 
7196
(
0.00510748
0.00489951
0.00623239
0.0088831
0.00246058
0.00243892
0.00618926
0.0100501
0.00447548
0.0068682
0.000927326
0.00151157
0.00596545
0.0102328
0.00523143
0.00929414
0.0025898
0.00520571
0.000295449
0.0012161
0.00577763
0.0101968
0.00528058
0.0101837
0.00374808
0.00813583
0.00129107
0.00421008
7.88912e-05
0.00113719
0.00563339
0.0101552
0.0051199
0.0103575
0.00420697
0.00972477
0.00233925
0.00708763
0.000568531
0.00372044
1.24141e-06
0.00113593
0.00550907
0.0101353
0.00495356
0.0103216
0.00424787
0.0103165
0.00298077
0.00908325
0.00129184
0.00636431
0.000197217
0.00352446
-2.87594e-05
0.00116469
0.00539404
0.010127
0.00482195
0.0102669
0.00414217
0.0104273
0.00320771
0.0100896
0.00188168
0.00849341
0.000607076
0.00595444
1.50528e-05
0.00348065
-3.82607e-05
0.00120294
0.00528609
0.0101199
0.0047219
0.0102271
0.00402224
0.0103868
0.00319977
0.0104352
0.00217696
0.00979429
0.00102865
0.00807184
0.000197572
0.00577191
-6.67932e-05
0.00350919
-3.6598e-05
0.00123955
0.00518233
0.0101138
0.00464293
0.0101989
0.00392589
0.0103234
0.00310839
0.0104781
0.00222739
0.0103848
0.00128211
0.00954081
0.000438449
0.00783097
-2.05519e-05
0.00572566
-9.23668e-05
0.00356497
-3.02445e-05
0.00126979
0.00508523
0.0101051
0.00458485
0.0101718
0.00385999
0.0102647
0.00300938
0.0104225
0.0021497
0.0105558
0.001334
0.0103329
0.00059888
0.00938037
7.94674e-05
0.00773096
-0.000117808
0.0057511
-9.14438e-05
0.00362618
-2.38152e-05
0.00129362
0.00499601
0.0100932
0.00454932
0.0101406
0.00382619
0.0102057
0.0029328
0.0103413
0.00202872
0.0105434
0.00124217
0.0106476
0.000610293
0.0103215
0.000145536
0.0093143
-0.000106086
0.00771924
-0.000147113
0.00580678
-7.97492e-05
0.00368212
-1.76826e-05
0.00131131
0.00491319
0.0100818
0.00453576
0.0101068
0.00382638
0.0101404
0.00288947
0.010249
0.00190718
0.0104628
0.00107366
0.0107119
0.000481335
0.0107766
0.000106255
0.0103608
-0.000108076
0.00931629
-0.000184251
0.00775639
-0.000145613
0.00587265
-6.53643e-05
0.00372981
-1.20453e-05
0.00132336
0.00483668
0.0100695
0.00454647
0.0100711
0.00386914
0.010064
0.00289112
0.0101387
0.00180578
0.0103504
0.000870875
0.0106656
0.000253937
0.0109394
-5.20258e-05
0.0109349
-0.000178689
0.0104314
-0.000226889
0.00935893
-0.000206209
0.007817
-0.00012992
0.00593721
-5.06431e-05
0.00376842
-7.77111e-06
0.00133114
0.00476437
0.0100573
0.00458099
0.010035
0.00395866
0.00998151
0.00294956
0.0100056
0.00174256
0.0102019
0.000658718
0.0105626
-4.23073e-05
0.0109618
-0.000314614
0.011202
-0.000344364
0.0111005
-0.00031681
0.0105213
-0.000273445
0.00942618
-0.00020014
0.00788723
-0.000109744
0.00599632
-3.71822e-05
0.00379784
-4.12807e-06
0.00133527
0.00469347
0.0100499
0.004634
0.0100043
0.00410069
0.00989301
0.0030845
0.00984655
0.00174244
0.0100057
0.000454933
0.0104056
-0.000394267
0.0109145
-0.000664818
0.011312
-0.000597607
0.0114552
-0.00047577
0.0112595
-0.00037618
0.0106241
-0.00028167
0.00950771
-0.000181044
0.00795854
-8.77227e-05
0.00604686
-2.626e-05
0.00381998
-1.92569e-06
0.0013372
0.00462036
0.0100461
0.00470103
0.00998292
0.00429306
0.00981186
0.00331106
0.00966647
0.00183667
0.0097523
0.000279378
0.0101813
-0.000803463
0.0108148
-0.00110253
0.0113523
-0.000926141
0.0116406
-0.000705099
0.0116846
-0.000532694
0.011416
-0.00039105
0.0107335
-0.000266678
0.00959335
-0.000156073
0.0080269
-6.92666e-05
0.00608987
-1.74621e-05
0.00383553
7.72747e-08
0.00133713
0.00454138
0.01005
0.00476831
0.0099788
0.00452696
0.00974905
0.00364592
0.009477
0.00206902
0.00943415
0.000169742
0.00986192
-0.00127455
0.0106524
-0.00164204
0.0113543
-0.00132612
0.0117522
-0.000990246
0.0119257
-0.00074146
0.0118933
-0.000543694
0.0115687
-0.000379516
0.0108463
-0.000242375
0.00967966
-0.000131559
0.0080892
-5.27868e-05
0.0061252
-1.066e-05
0.00384627
1.2755e-06
0.00133586
0.00445206
0.0100613
0.00482402
0.00999432
0.00478399
0.00972176
0.0040897
0.00930529
0.00249541
0.00905061
0.000190521
0.00941342
-0.00181475
0.0104021
-0.00231616
0.0113266
-0.00179767
0.0118259
-0.00131914
0.0120812
-0.000994949
0.0121792
-0.000741033
0.0120907
-0.000528268
0.0117174
-0.000353363
0.0109573
-0.00021516
0.00976327
-0.000109809
0.00814623
-4.00622e-05
0.00615461
-6.19981e-06
0.00385376
1.94817e-06
0.00133392
0.00434915
0.0100789
0.00485392
0.0100314
0.00503315
0.00974518
0.00461601
0.00919544
0.00317112
0.00862961
0.000462706
0.00877839
-0.00241299
0.0100117
-0.00316209
0.011248
-0.00234434
0.0118732
-0.00168563
0.0121924
-0.00127607
0.0123623
-0.000969115
0.0124073
-0.0007137
0.0122761
-0.000498277
0.0118624
-0.000325379
0.0110675
-0.000189689
0.00984315
-9.16087e-05
0.00819778
-3.00407e-05
0.00617846
-2.15007e-06
0.00385786
2.71721e-06
0.00133121
0.0042307
0.0101014
0.00484336
0.0100895
0.0052437
0.00982083
0.00517044
0.00919078
0.00408798
0.00827859
0.00123295
0.00785946
-0.00297106
0.00933646
-0.00418397
0.0110336
-0.0029348
0.0118385
-0.00205969
0.0122473
-0.00156153
0.0124778
-0.00121235
0.0126055
-0.00092446
0.0126181
-0.000675196
0.012453
-0.000465365
0.0120024
-0.000295287
0.0111731
-0.000165697
0.00991725
-7.54811e-05
0.00824323
-2.17338e-05
0.00619804
3.73236e-07
0.00386021
3.00915e-06
0.0013282
0.00409851
0.0101232
0.00478541
0.0101594
0.00538197
0.00995127
0.00568258
0.00930869
0.00513996
0.00813883
0.00280017
0.00671132
-0.00308196
0.00797038
-0.00524245
0.0103949
-0.00339622
0.011495
-0.0023476
0.0121264
-0.0017982
0.012484
-0.00143486
0.0127004
-0.00113894
0.01282
-0.000874605
0.0128175
-0.000634977
0.0126227
-0.00043038
0.0121375
-0.000266147
0.0112736
-0.000145291
0.00998706
-6.23e-05
0.0082838
-1.5914e-05
0.00621433
1.71926e-06
0.0038615
3.15203e-06
0.00132506
0.00395333
0.0101422
0.00468035
0.0102283
0.00542335
0.010118
0.00607125
0.00956263
0.00620643
0.00824223
0.00473182
0.00317375
0.00303349
-0.000145106
0.00286301
-0.00134675
0.00225818
-0.00319976
0.00446821
-0.0023315
0.00379098
-0.00187725
0.0102538
-0.00137787
-0.00231475
0.0114622
-0.00185907
0.0121873
-0.00156496
0.0126141
-0.00131579
0.0128772
-0.00106883
0.0130143
-0.000822169
0.0130047
-0.000592354
0.0127846
-0.000396676
0.012268
-0.000241395
0.0113697
-0.000127931
0.0100527
-5.2765e-05
0.00832065
-1.15877e-05
0.00622764
3.15166e-06
0.00386151
2.9337e-06
0.00132213
0.00379959
0.0101558
0.00453606
0.0102864
0.00536819
0.0102835
0.00627195
0.00991727
0.0070767
0.00869237
0.00692426
0.00299506
0.00305468
0.000669072
0.0023596
0.00162302
0.00207951
-0.00316882
0.00283206
-0.000623589
0.000864685
0.00077175
-0.00124694
-0.00111355
0.000565068
0.000884799
-0.00173844
0.0043294
-0.000981313
0.00127064
0.000881898
-0.000670668
-0.000640897
0.00321468
-0.000521242
-0.000912759
0.00953406
-0.000682223
-0.000988198
0.00393972
-0.00154225
0.0111453
-0.00147531
0.0120976
-0.00137873
0.0126771
-0.00121879
0.0130272
-0.00100189
0.013194
-0.000766121
0.0131784
-0.000548232
0.0129362
-0.000363438
0.01239
-0.000219539
0.0114613
-0.000112964
0.0101129
-4.51183e-05
0.00835419
-9.17888e-06
0.00623998
3.22168e-06
0.00386123
2.9937e-06
0.00131914
0.00364048
0.0101641
0.0043609
0.0103309
0.00523027
0.0104244
0.00628251
0.0102729
0.00754653
0.00944742
0.00876973
0.00328037
0.00356657
0.00269564
0.00192248
0.00365158
0.00106017
0.00103852
0.00053556
0.000393102
0.000527251
-0.00106475
0.000682497
-0.000833855
0.000540846
-0.000919933
0.000488875
0.00105394
-0.000488875
0.000957426
-0.000487809
0.00111756
0.000680846
-0.000286758
0.000286758
-0.000170834
0.0026608
-0.000263489
-0.000321271
0.000917582
0.00355523
-0.000528259
-0.000425611
0.00874612
-0.000328687
0.00322214
-0.000349121
-0.00105343
0.0107235
-0.00122259
0.0119415
-0.00124867
0.0127069
-0.00113123
0.0131565
-0.000927866
0.0133557
-0.000707416
0.0133376
-0.000504653
0.0130774
-0.000332946
0.0125034
-0.000199111
0.0115475
-0.000101843
0.0101696
-4.00171e-05
0.00838503
-7.15489e-06
0.00625036
3.41233e-06
0.00386081
2.57426e-06
0.00131657
0.00347803
0.0101695
0.00416345
0.0103615
0.00503165
0.0105296
0.00614439
0.0105625
0.0076331
0.0101864
0.00967109
0.00408902
0.00445701
0.00472585
0.00220614
0.00553144
0.00276096
0.00109125
0.000268408
0.000251726
0.000846642
-0.00147676
0.00181571
0.000721229
0.000653004
0.000685693
-0.000292593
0.000379088
-0.000379088
0.000359574
-0.000769784
0.000652579
-5.36303e-05
0.00227084
-8.09661e-05
-5.73243e-05
-0.000115694
0.0030094
-0.000212871
-0.00021486
0.0080927
-0.000185135
0.0028366
-0.000155889
0.00200288
-3.78501e-05
-4.33057e-05
-0.000807022
0.0103079
-0.00108549
0.0117783
-0.00115555
0.0127313
-0.0010351
0.0132638
-0.000848153
0.0134965
-0.000649011
0.013482
-0.000463513
0.013208
-0.000307503
0.0126118
-0.000183691
0.0116293
-9.42644e-05
0.0102239
-3.59287e-05
0.00841381
-6.65234e-06
0.00626043
3.16041e-06
0.00386023
2.45472e-06
0.00131413
0.00331271
0.0101733
0.00394955
0.0103834
0.00478948
0.0106037
0.00590047
0.0107735
0.00744199
0.0107536
0.00978199
0.0100755
0.00613538
0.00348509
0.00654821
0.00404417
0.00504167
-0.00166567
0.000304552
0.000341275
0.00637719
0.000888453
0.000536983
-2.41907e-05
0.000227535
0.00122986
0.000269784
0.00028542
0.00024388
0.000591004
-1.9389e-05
0.00019025
0.00054681
-1.31276e-05
0.00183992
-2.67523e-05
-2.31591e-05
0.00272086
-9.91091e-05
-0.000138036
0.00756853
-0.000144807
0.00261601
-8.02718e-05
0.00172137
-1.80407e-05
-1.92914e-05
-0.000512408
0.000483986
-9.42465e-06
-8.90202e-06
-0.000722103
0.00994455
-0.00102617
0.011649
-0.00104216
0.0127383
-0.000928743
0.0133444
-0.000765859
0.0136133
-0.000592377
0.0136109
-0.000428875
0.0133294
-0.000286591
0.0127147
-0.000171835
0.0117069
-8.79557e-05
0.0102759
-3.41376e-05
0.0084413
-6.47747e-06
0.00627007
2.56894e-06
0.00386013
1.92562e-06
0.00131221
0.00314476
0.010176
0.00372569
0.0103972
0.00451814
0.0106547
0.00558518
0.010919
0.00708244
0.0111331
0.0093555
0.01118
-0.00766546
0.0141988
0.00472223
0.00536809
0.00718144
0.00127852
0.00140231
0.00190781
0.00165233
0.0010873
-0.000782744
0.00142858
-0.00196556
0.002854
0.000497324
0.000170861
0.000157734
0.000462923
-5.6876e-06
0.000445034
-5.27053e-06
0.00164459
-1.17297e-05
-1.05964e-05
0.00253809
-6.01142e-05
-0.000121677
0.00712619
-0.000158073
0.00245305
-5.97656e-05
0.00158212
-8.82103e-06
-8.96899e-06
-0.000429891
0.000416388
-4.53691e-06
-4.14759e-06
-0.000148832
0.000139408
-0.000748161
0.00966655
-0.000931716
0.0115385
-0.000912631
0.0127222
-0.000817671
0.0133962
-0.000686105
0.0137071
-0.000541828
0.0137238
-0.000399194
0.013442
-0.000270095
0.012813
-0.000162896
0.0117818
-8.38424e-05
0.0103256
-3.25311e-05
0.00846735
-6.59788e-06
0.00627925
1.83331e-06
0.00386023
1.7707e-06
0.00131045
0.00297698
0.0101758
0.00349617
0.0104055
0.00422665
0.0106886
0.00522624
0.0110137
0.00663019
0.0113712
0.00869264
0.0117959
0.0129711
0.0124077
0.00885884
-0.00421779
-0.00340717
0.00197263
0.00151571
0.00891279
0.00531415
0.00304259
0.00108993
0.0034922
0.000952706
-0.00395962
0.00164964
0.00118491
0.000133721
0.00012845
0.000407153
-2.49319e-06
0.000398848
-2.28927e-06
0.00153463
-6.14138e-06
-6.48335e-06
0.00238606
-5.46774e-05
-0.00016277
0.00678343
-0.000242623
0.00229499
-6.70053e-05
0.00148724
-6.56062e-06
-5.80842e-06
-0.000391736
0.000384967
-2.04921e-06
-1.85518e-06
-0.000124303
0.000119766
-0.000746201
0.00948104
-0.000784588
0.0114105
-0.000768915
0.0126735
-0.000713062
0.0134231
-0.000619215
0.0137845
-0.000502766
0.0138274
-0.000377816
0.0135497
-0.000258486
0.0129086
-0.000157054
0.0118551
-8.03813e-05
0.0103735
-3.17075e-05
0.00849247
-6.98698e-06
0.00628808
1.29727e-06
0.00386072
1.43446e-06
0.00130902
0.00280903
0.010177
0.00326209
0.0104098
0.00392443
0.0107077
0.00484326
0.0110716
0.00612698
0.0115169
0.00797042
0.0120934
0.0113493
0.0134178
-0.0068777
0.0161056
0.00549107
0.00660153
-0.00322754
0.00147
-0.00298572
0.00315406
0.00180429
-0.00147
-0.00180429
0.0018356
0.00155921
0.00108993
0.00204263
0.000117273
0.000114984
0.000380197
-1.37002e-06
0.000374864
-1.14995e-06
0.00144311
-4.66255e-06
-5.88457e-06
0.00221642
-8.41897e-05
-0.000291901
0.00660743
-0.000278294
0.00211128
-0.000137482
0.00138809
-7.28416e-06
-4.7e-06
-0.000370313
0.000365234
-1.48014e-06
-1.25689e-06
-0.000113129
0.00011108
-0.00057633
0.00927279
-0.00061341
0.011255
-0.000642515
0.0126029
-0.00062794
0.0134319
-0.000568887
0.0138506
-0.000474959
0.0139245
-0.000362028
0.0136532
-0.000248449
0.013
-0.000150448
0.0119251
-7.66756e-05
0.0104184
-3.0845e-05
0.00851634
-7.91582e-06
0.0062973
4.51876e-07
0.00386171
1.29841e-06
0.00130773
0.00264133
0.0101767
0.00302774
0.0104113
0.00361543
0.0107188
0.00444533
0.0111057
0.00560034
0.0115983
0.00723749
0.0122498
0.00982731
0.0136154
0.0144658
0.0150576
0.00506916
-0.00202605
-0.00136877
0.00198476
0.00183198
0.00592833
0.00574236
-0.00155921
0.00136877
0.00010971
0.000108561
0.000361641
-1.06849e-06
0.000356809
-1.05079e-06
0.00131926
-4.91092e-06
-1.04448e-05
0.00203837
-0.000218992
-0.000212227
0.00636167
-0.000118338
0.00198195
-0.000221863
0.00121854
-2.64823e-05
-1.0278e-05
-0.000353101
0.000347197
-1.37811e-06
-9.91663e-07
-0.000107304
0.000105824
-0.000379874
0.00903926
-0.000478226
0.0110907
-0.000546938
0.0125219
-0.000566943
0.0134299
-0.000535164
0.0139108
-0.000457562
0.0140201
-0.000352236
0.013757
-0.000241093
0.0130906
-0.000145328
0.0119938
-7.50461e-05
0.0104626
-3.0954e-05
0.00853938
-7.98702e-06
0.00630574
-7.1478e-08
0.00386308
8.16096e-07
0.00130692
0.00247319
0.0101771
0.00279265
0.0104118
0.00330487
0.0107219
0.00404431
0.0111198
0.00507095
0.0116351
0.00650889
0.0123268
0.00854311
0.013534
0.0122363
0.0158449
-0.00415551
0.0119304
0.013211
-0.00108447
0.00148354
0.00158571
0.000747509
-0.000988098
0.00405849
0.000104756
0.000103705
0.00034345
-1.1633e-06
0.000334619
-1.61284e-06
0.00112283
-4.07312e-05
-8.2547e-05
0.00189356
-0.000123837
-8.23558e-05
0.00610894
-4.47794e-05
0.00183026
-5.50348e-05
0.00104611
-6.5353e-05
-7.97916e-05
-0.000326647
0.000305379
-5.21333e-06
-2.30508e-06
-0.000102713
0.000101336
-0.000264146
0.00882518
-0.000388882
0.0109326
-0.000485089
0.0124401
-0.000531704
0.0134265
-0.000517662
0.0139709
-0.000445602
0.0141134
-0.000340128
0.0138561
-0.000231544
0.0131769
-0.000139062
0.0120578
-7.23296e-05
0.010504
-3.00052e-05
0.0085614
-9.04911e-06
0.00631473
-8.85491e-07
0.00386479
5.50281e-07
0.00130638
0.00230683
0.0101774
0.00255994
0.0104099
0.00299643
0.0107202
0.00364478
0.0111214
0.00454854
0.0116422
0.00580014
0.0123438
0.00746494
0.013405
0.0101975
0.0155729
0.0114825
0.0162928
-0.00201641
0.00708687
0.00955203
-0.00141144
-0.00042972
0.00102733
0.000317789
0.0027362
-0.000391962
-0.000302157
0.000100172
9.85596e-05
0.000277052
-1.24036e-05
0.000222068
-2.75625e-05
0.000953487
-2.44803e-05
-6.72986e-06
0.00177591
-2.80105e-05
-4.34319e-05
0.00591757
-2.93486e-05
0.00174756
-1.64211e-05
0.000901865
-6.42394e-07
-2.76849e-06
-0.000193353
0.000128
-5.10756e-05
-9.62545e-05
9.10415e-05
-0.000204998
0.0086413
-0.000337165
0.0107847
-0.000454712
0.0123631
-0.000520958
0.0134298
-0.000510782
0.0140361
-0.000433993
0.0142073
-0.00032583
0.0139504
-0.000220228
0.013258
-0.000131607
0.0121171
-6.87518e-05
0.0105428
-3.05121e-05
0.00858287
-9.878e-06
0.00632372
-1.96237e-06
0.00386731
4.85712e-07
0.0013059
0.00214046
0.0101774
0.00232834
0.0104089
0.00268877
0.0107175
0.00324789
0.0111171
0.00403692
0.0116331
0.00512169
0.0123207
0.00652194
0.0132868
0.00854727
0.0150552
0.0101104
0.016945
0.00853657
0.0148431
0.00351627
0.00673765
-0.000267749
-0.000434132
0.00166432
-0.000161338
-0.00017822
-0.000123187
0.000758557
0.000194602
0.000532782
-7.6382e-05
7.8638e-05
5.10756e-05
0.00010352
9.67904e-05
0.000875322
-1.03368e-06
-4.32129e-07
0.0017173
-1.31776e-05
-3.19118e-05
0.00577195
-2.74544e-05
0.00169855
-1.05955e-05
0.000859962
-3.5619e-07
-7.03401e-07
-9.40219e-05
9.33797e-05
-0.000172004
0.00847615
-0.000316382
0.0106464
-0.000453812
0.0122959
-0.000525599
0.0134446
-0.000501844
0.0141039
-0.000415389
0.0142969
-0.000307782
0.0140379
-0.000207027
0.0133335
-0.000125419
0.0121738
-6.67715e-05
0.010579
-3.06343e-05
0.00860363
-1.07659e-05
0.00633253
-2.35213e-06
0.00387015
-1.27176e-07
0.00130603
0.00197625
0.0101772
0.00209947
0.0104062
0.00238703
0.0107107
0.00285845
0.011107
0.00354068
0.0116134
0.00447683
0.0122779
0.0056687
0.0131739
0.00723514
0.014599
0.00862732
0.0165383
0.00841541
0.0170662
0.00562452
0.0127349
0.00149718
0.00513299
4.65951e-05
6.08739e-05
-0.00129035
0.00105924
-9.791e-06
-2.68416e-05
-2.47334e-05
-3.54351e-05
-0.000393892
0.000271645
-3.9088e-05
-3.93285e-05
0.000118221
9.23462e-05
9.19142e-05
0.000847738
-5.65406e-07
-3.86943e-07
0.00167742
-1.07724e-05
-2.49267e-05
0.00564557
-2.06957e-05
0.00166168
-1.17134e-05
0.000837981
-3.48994e-07
-4.88937e-07
-9.12108e-05
9.08548e-05
-0.000160438
0.00832021
-0.000329539
0.0105221
-0.000480566
0.0122509
-0.000531613
0.0134744
-0.000482002
0.0141705
-0.000389085
0.0143782
-0.000288268
0.0141192
-0.000193721
0.0134018
-0.000119039
0.012226
-6.5998e-05
0.0106144
-3.09322e-05
0.0086238
-1.25569e-05
0.00634274
-3.69307e-06
0.00387372
-1.33421e-07
0.00130616
0.00181244
0.0101768
0.00187388
0.0104028
0.0020878
0.0107055
0.00247504
0.0110941
0.00305866
0.011589
0.00386394
0.0122262
0.0048865
0.0130601
0.00615243
0.0142566
0.00732159
0.0159047
0.00760391
0.0173498
0.00640433
0.0162864
0.00346547
0.0107666
0.000717009
0.00445572
-4.03235e-05
5.64628e-07
-0.00101008
0.000988458
2.13972e-05
4.68199e-05
6.07756e-05
4.92531e-05
-0.000191851
0.000183629
-1.56822e-06
-0.000212103
-6.58871e-06
-0.000232819
-4.01817e-06
3.39071e-06
-7.8892e-05
3.98044e-05
9.02895e-05
8.99026e-05
0.000828141
-4.72325e-07
-4.58176e-07
0.00164649
-9.7344e-06
-1.77593e-05
0.00552323
-2.03393e-05
0.00163096
1.69132e-06
-6.85546e-06
0.000817413
-4.85966e-07
-4.98215e-07
-8.94137e-05
8.90648e-05
-0.000176774
0.00816745
-0.000378101
0.0104197
-0.000515983
0.0122353
-0.000513303
0.0135057
-0.000447726
0.0142292
-0.0003576
0.0144475
-0.000264142
0.0141896
-0.000181003
0.0134637
-0.00011442
0.0122744
-6.5068e-05
0.0106485
-3.34199e-05
0.00864467
-1.45163e-05
0.00635357
-4.30376e-06
0.0038779
-7.01126e-07
0.00130687
0.00165131
0.0101751
0.00165219
0.0103985
0.00179476
0.0106958
0.00209976
0.0110808
0.00258838
0.0115644
0.00327958
0.0121733
0.0041619
0.0129508
0.00521936
0.0139932
0.00621925
0.015359
0.00664682
0.0168618
0.00624391
0.0175103
0.00465531
0.0150966
0.00209991
0.00938366
0.000319295
0.0041141
3.29527e-05
-1.06519e-05
-0.000974958
0.000965743
-3.11202e-05
-2.10213e-06
1.61621e-05
-0.000239482
0.000247655
1.32219e-05
-0.000220853
2.81908e-05
-0.000199987
3.99091e-05
3.28955e-05
-3.25881e-05
3.102e-05
-3.91769e-05
-4.31951e-05
8.85926e-05
8.81345e-05
0.000473581
-2.70015e-07
-2.4797e-07
0.000334617
0.00161995
-4.21857e-06
-2.53137e-06
-1.55622e-05
0.00538915
-2.7124e-05
0.00160425
-2.02134e-06
-2.6227e-06
0.00050405
-2.8777e-05
0.000505606
-8.41193e-06
-8.76363e-05
8.71505e-05
-0.000235989
0.00802534
-0.000460827
0.0103645
-0.000507839
0.0122298
-0.000469632
0.0135276
-0.000402336
0.0142739
-0.000322725
0.0145061
-0.000243938
0.0142525
-0.000171384
0.0135207
-0.000112487
0.0123219
-6.69782e-05
0.0106821
-3.5554e-05
0.00866571
-1.60698e-05
0.00636534
-5.21761e-06
0.00388242
-7.67866e-07
0.00130764
0.00149126
0.0101751
0.00143422
0.0103931
0.00150653
0.0106867
0.00172939
0.0110662
0.00212912
0.01154
0.00271836
0.0121256
0.00348375
0.0128515
0.00438982
0.0137804
0.00526615
0.0149463
0.00574436
0.0162614
0.0056724
0.0174333
0.00495493
0.0172106
0.00328254
0.0139139
0.00124809
0.00845486
0.00010764
0.00390564
4.0152e-05
6.06513e-05
-0.000946434
0.000934857
4.45222e-05
8.65286e-06
-0.000230453
0.000348367
-1.48954e-06
-0.000146581
-9.70773e-07
-0.000250885
1.8326e-05
1.29308e-05
-0.00010798
0.000118459
2.74175e-06
-8.7239e-05
7.44994e-06
-6.39156e-05
1.65852e-05
8.68806e-05
8.66327e-05
0.000304055
1.78564e-06
0.000504179
-2.79129e-06
0.000503042
-1.39391e-06
0.00159357
-1.8359e-06
-3.04063e-06
-2.25649e-05
0.00522681
-5.10816e-05
0.00157291
-2.33561e-06
-4.13184e-06
0.000501986
-9.64255e-07
0.000499959
-5.95602e-07
0.000297699
-2.05602e-06
-0.000359828
0.00792435
-0.00047978
0.0103365
-0.000454691
0.0122149
-0.000407938
0.0135332
-0.000353719
0.0143049
-0.000292443
0.0145546
-0.000226986
0.0143081
-0.000166765
0.013575
-0.000112309
0.0123672
-6.96135e-05
0.0107162
-3.82898e-05
0.00868793
-1.77777e-05
0.0063779
-6.30275e-06
0.00388795
-1.21417e-06
0.00130886
0.00133277
0.0101735
0.00122308
0.0103862
0.00122514
0.0106745
0.00136703
0.0110491
0.00167883
0.0115165
0.00217462
0.0120838
0.00284104
0.0127683
0.00363243
0.0136089
0.00441865
0.0146279
0.00492827
0.0157624
0.00501159
0.0169223
0.00471471
0.0176735
0.00383049
0.0166627
0.00226344
0.0128986
0.000736027
0.00782647
3.38333e-05
0.00382357
2.25671e-05
2.56633e-05
-0.000925681
0.000932103
3.37267e-05
6.98248e-05
-0.000355335
0.000377013
1.73306e-05
5.5092e-06
-8.31417e-08
1.76619e-06
-2.89352e-05
2.7445e-05
-0.000127673
-5.85181e-07
-2.99065e-05
3.71544e-06
-2.40351e-05
2.67765e-05
-1.65852e-05
8.84184e-05
0.000295867
-9.59169e-07
0.000294761
-2.87781e-07
0.000498833
-7.08741e-07
0.000497032
-1.23913e-06
0.00155705
-2.01481e-06
-4.67973e-06
-6.46865e-05
0.00507085
-0.000139173
0.00151814
-3.65127e-06
-8.52024e-06
0.000495951
-1.25458e-06
0.000492867
-1.0472e-06
0.000293986
-1.88363e-07
0.000293458
-6.68175e-08
8.63625e-05
-0.000445604
0.00789017
-0.000404569
0.0102863
-0.0003702
0.0121772
-0.000344306
0.0135238
-0.000310364
0.0143228
-0.000267354
0.014595
-0.000217443
0.0143588
-0.000164899
0.0136276
-0.000116044
0.0124136
-7.3724e-05
0.0107516
-4.13542e-05
0.00871151
-1.94231e-05
0.00639102
-7.18922e-06
0.00389393
-1.18243e-06
0.00131004
0.00117902
0.0101693
0.00101826
0.0103783
0.000951108
0.0106602
0.00101209
0.0110294
0.00123574
0.0114922
0.00164177
0.0120493
0.00222344
0.0127014
0.0029272
0.0134735
0.0036473
0.0143802
0.00417837
0.0153778
0.00436837
0.0164056
0.00426194
0.017375
0.00383835
0.0176657
0.00289953
0.0160266
0.00155502
0.0120796
0.000439035
0.00742126
-4.91989e-05
0.00375546
6.82827e-05
4.90149e-05
-0.000940917
0.000951508
1.19727e-05
1.68488e-05
-0.000401005
0.000424757
8.92502e-07
9.08022e-06
2.52261e-05
2.06035e-05
-3.46367e-05
5.19661e-05
-2.91278e-05
2.73616e-05
-3.0492e-05
8.54033e-05
8.51157e-05
0.000292916
-1.66357e-07
0.000291874
-1.96971e-07
0.000491894
-1.04127e-06
0.000488894
-1.6795e-06
0.00147725
-6.79302e-06
-1.7002e-05
-0.000201738
0.00502883
-0.000201835
0.00140145
-2.03413e-05
-4.30359e-05
0.000487101
-1.85653e-06
0.000481058
-2.477e-06
0.000290857
-2.36733e-07
0.000290055
-2.45415e-07
8.49274e-05
8.48606e-05
-0.000323128
0.00780874
-0.000291009
0.0102071
-0.000292074
0.0121249
-0.000290283
0.0135037
-0.000278494
0.014334
-0.000252428
0.01463
-0.000214709
0.0144086
-0.000169165
0.0136807
-0.000120224
0.0124601
-7.69527e-05
0.0107872
-4.24889e-05
0.00873458
-2.01244e-05
0.00640396
-7.3712e-06
0.00390012
-1.55138e-06
0.00131159
0.00102809
0.0101654
0.000821742
0.0103658
0.000688703
0.0106407
0.000664714
0.0110076
0.000797433
0.0114677
0.00111685
0.0120171
0.00162125
0.0126515
0.00225826
0.0133703
0.00293295
0.0141879
0.00347778
0.0150808
0.00375551
0.0159906
0.00376647
0.0169011
0.0035669
0.0176465
0.00307603
0.0174892
0.00217722
0.0154044
0.00106945
0.0114492
0.000243133
0.00712892
-7.91296e-05
0.00371906
4.53647e-05
7.01531e-05
-0.000959103
0.000964817
6.25649e-05
4.1417e-05
-0.000439976
0.000452336
6.3547e-07
-1.02463e-06
1.78853e-06
-1.59412e-07
-8.62225e-05
8.73232e-05
-2.08886e-07
-7.88798e-05
1.73675e-06
6.44336e-05
1.27571e-05
6.15656e-06
8.46943e-05
8.44975e-05
0.000289198
-1.83426e-07
0.000287834
-3.14564e-07
0.000477674
-3.40872e-06
0.000467185
-6.51191e-06
0.00135485
-5.78607e-05
-9.72698e-05
-0.000133686
0.00489368
-5.42876e-05
0.00131361
-8.72234e-05
-7.33736e-05
0.000457126
-1.0281e-05
0.000433753
-1.96625e-05
0.000286304
-3.25969e-07
0.000284229
-4.01388e-07
8.42608e-05
8.40155e-05
-0.000174296
0.00769203
-0.000203788
0.0101189
-0.000233051
0.0120677
-0.000253878
0.0134791
-0.000259808
0.0143414
-0.000249231
0.0146645
-0.000218774
0.0144582
-0.000174335
0.0137348
-0.000124358
0.0125075
-7.94961e-05
0.0108242
-4.49998e-05
0.00875946
-2.15474e-05
0.00641813
-7.97111e-06
0.00390654
-1.33651e-06
0.00131293
0.000882219
0.0101582
0.000637408
0.0103498
0.000438092
0.0106164
0.000328233
0.0109772
0.000364559
0.0114405
0.000592977
0.0119916
0.0010242
0.0126141
0.00160946
0.0133003
0.00225368
0.0140496
0.00281416
0.0148515
0.00316585
0.0156705
0.00327726
0.0164798
0.00319855
0.0172695
0.00294655
0.017776
0.00244224
0.0172242
0.00163018
0.0148437
0.000733725
0.0109586
0.00012961
0.00692018
-7.32163e-05
0.00374386
1.47907e-05
3.36162e-05
-0.000972711
0.000984531
3.35418e-05
6.22571e-05
-0.000474259
0.000489157
2.57272e-05
2.19372e-05
5.79334e-06
1.36993e-05
-8.79031e-05
8.88299e-05
-2.92272e-07
-8.86011e-05
-3.27075e-07
8.85161e-05
5.95535e-07
-2.44523e-07
-2.06502e-05
2.04412e-05
-1.89135e-05
1.2757e-05
8.38322e-05
8.35178e-05
0.000281366
-5.45454e-07
0.000275879
-1.02435e-06
0.000412345
-3.64529e-05
0.000378132
-6.30562e-05
0.00124474
-4.512e-05
-1.96886e-05
-3.21551e-05
0.00475994
-8.40099e-06
0.00120465
-1.09908e-05
-3.20769e-06
0.000356015
-6.5105e-05
0.000333086
-5.04443e-05
0.000267437
-1.83861e-06
0.000251759
-3.98369e-06
8.31919e-05
8.27906e-05
-0.000100572
0.00758882
-0.000151331
0.0100371
-0.000195858
0.0120097
-0.000233602
0.0134529
-0.000254393
0.0143465
-0.000252701
0.0146984
-0.000226529
0.0145104
-0.000180438
0.0137909
-0.000129207
0.0125573
-8.11399e-05
0.0108604
-4.56312e-05
0.00878354
-2.13354e-05
0.0064315
-7.63785e-06
0.00391284
-1.43363e-06
0.00131436
0.000742351
0.0101485
0.000467316
0.0103283
0.000205647
0.0105822
5.21368e-06
0.0109394
-6.32785e-05
0.011405
6.81187e-05
0.0119653
0.000425456
0.0125903
0.000967463
0.0132561
0.0015981
0.0139559
0.00218063
0.0146831
0.00259295
0.0154244
0.00279478
0.016153
0.00280876
0.0168696
0.00268476
0.0175312
0.00241648
0.0178017
0.00193152
0.0169228
0.001222
0.0143554
0.00050809
0.0105801
6.20472e-05
0.0067849
-9.94362e-05
8.53643e-05
0.00375792
-0.000989774
0.000940028
6.45322e-05
2.83709e-05
-0.000508046
0.000528456
3.66409e-06
9.46589e-06
2.78047e-05
1.55625e-05
-0.000108877
0.000116846
1.7757e-05
-0.000100924
1.39826e-05
9.253e-05
2.09238e-06
5.30494e-06
-2.0465e-05
2.01726e-05
-2.07921e-05
2.10367e-05
8.22453e-05
8.12211e-05
0.000225602
-1.02951e-05
0.000185082
-2.25357e-05
0.000308649
-2.06827e-05
0.000295917
-6.95565e-06
0.00117651
-3.34495e-06
-6.67089e-07
-1.21976e-05
0.0046754
-3.83357e-06
0.00116887
-9.56163e-07
1.92483e-07
0.000287331
-2.40369e-06
0.000284817
-6.93476e-07
0.000162546
-4.25683e-05
0.000112101
7.93826e-05
7.5399e-05
-6.80084e-05
0.00750549
-0.000121372
0.00996265
-0.000177239
0.0119533
-0.000227787
0.0134263
-0.000262818
0.0143567
-0.000267034
0.0147389
-0.000238046
0.014568
-0.00018691
0.0138486
-0.000130784
0.0126069
-8.14272e-05
0.0108962
-4.43625e-05
0.00880657
-2.10781e-05
0.00644493
-7.2999e-06
0.0039187
-1.32343e-06
0.00131568
0.000609762
0.0101358
0.000315554
0.0103002
-3.88102e-06
0.0105378
-0.000298914
0.0108863
-0.000481988
0.0113581
-0.000463604
0.0119367
-0.000186137
0.0125769
0.000318742
0.0132391
0.000950842
0.0139034
0.00156395
0.0145726
0.00203523
0.0152409
0.0023179
0.0159013
0.00241852
0.0165432
0.00238009
0.0171743
0.00223619
0.0177115
0.00197519
0.017758
0.00152725
0.0166176
0.000920282
0.0139432
0.000352881
0.0102892
4.28318e-06
0.00668118
-0.000623174
0.00158274
4.69945e-05
1.88192e-05
-0.000122688
0.000124682
0.00375592
-0.000549322
-9.32282e-06
6.17563e-06
1.32771e-06
-0.000140089
0.000142137
1.61538e-06
-0.000134565
3.94146e-06
0.000127674
1.69764e-05
8.67119e-06
-4.15521e-05
4.94302e-05
9.87809e-06
-2.75697e-05
2.22648e-05
6.51039e-05
4.25683e-05
9.14188e-05
8.44634e-05
0.000281869
-3.97566e-07
0.000281437
-2.35497e-07
0.00115814
-1.08853e-06
-3.74094e-07
-8.04025e-06
0.00461915
-3.71005e-06
0.00115505
-6.23775e-07
-1.24164e-07
0.000280625
-1.43628e-07
0.000280687
1.30748e-07
8.20598e-05
8.13662e-05
-5.2776e-05
0.00743691
-0.000106839
0.00989226
-0.000172906
0.0118984
-0.000238789
0.0134022
-0.000280885
0.0143705
-0.000282726
0.0147836
-0.000246305
0.0146274
-0.000188467
0.0139063
-0.000128741
0.0126542
-7.93395e-05
0.0109311
-4.38191e-05
0.0088293
-2.04386e-05
0.00645807
-7.14034e-06
0.00392451
-1.18715e-06
0.00131686
0.000485818
0.0101201
0.000186383
0.010265
-0.000183035
0.0104794
-0.000574557
0.0108134
-0.00088791
0.0112923
-0.00100255
0.0118971
-0.000817175
0.0125678
-0.000349702
0.0132454
0.000300519
0.0138894
0.000957262
0.0145101
0.00148802
0.0151198
0.00184467
0.0157141
0.00202566
0.0162942
0.00206559
0.0168577
0.00199958
0.0174109
0.00185855
0.0178282
0.00161309
0.0176722
0.00121025
0.0163276
0.000698236
0.0135978
0.000236789
0.0100567
-3.72173e-05
0.00659571
0.00161744
3.29181e-05
5.70672e-05
-0.000229824
0.000258876
1.31249e-05
4.81382e-06
-0.00021301
1.65455e-06
3.47989e-07
-0.000111032
8.10042e-05
0.00378594
-0.000134354
-2.46668e-07
-2.84358e-07
-8.74504e-05
0.000143792
4.51934e-06
1.07655e-05
-7.13841e-05
7.28985e-05
1.00406e-07
-6.80722e-05
6.29057e-07
6.12782e-05
5.12799e-06
1.87686e-06
9.87805e-06
8.09686e-05
8.07332e-05
0.000279646
-4.80645e-08
0.000279453
-1.80968e-07
0.00114827
-8.08885e-07
-4.46479e-07