/*--------------------------------*- C++ -*----------------------------------*\
| =========                 |                                                 |
| \\      /  F ield         | OpenFOAM: The Open Source CFD Toolbox           |
|  \\    /   O peration     | Version:  v1912                                 |
|   \\  /    A nd           | Website:  www.openfoam.com                      |
|    \\/     M anipulation  |                                                 |
\*---------------------------------------------------------------------------*/
FoamFile
{
    version     2.0;
    format      ascii;
    class       surfaceScalarField;
    location    "260";
    object      phi;
}
// * * * * * * * * * * * * * * * * * * * * * * * * * * * * * * * * * * * * * //

dimensions      [0 3 -1 0 0 0 0];
oriented        oriented;


internalField   nonuniform List<scalar> 
7354
(
-3.49791e-05
0.00993343
-0.000160202
0.0100949
0.00076273
0.00916965
-0.000365147
0.0102383
0.00120943
0.00964814
0.00285409
0.00313577
0.00317758
-0.000600773
0.0102813
0.00133949
0.0101082
0.00465684
0.00358543
0.00425992
0.0019515
0.000584805
0.000597586
0.00395673
0.000604884
0.000567456
-0.000865658
0.0102955
0.0013341
0.0102867
0.00535972
0.00460153
0.00480388
0.00557977
0.00122957
0.000732835
0.00639575
0.00177671
0.00166722
-0.000596754
0.00118156
-0.00174902
0.00235391
-0.00116553
0.0103131
0.00119871
0.0104309
0.00533197
0.0103144
0.00708732
0.00203449
0.00187548
0.00713716
0.00475402
-0.00308674
0.00431631
-0.00431684
0.00473484
0.0013587
0.00166669
-0.00149798
0.0103347
0.000932247
0.0105795
0.00479698
0.010966
-0.00980747
0.0160601
0.00532259
0.00587641
-0.00515654
0.0052524
0.00193861
0.00145379
-0.00425739
0.00231149
0.00214485
-0.00166669
0.00302538
-0.00185649
0.010356
0.000548906
0.010718
0.00403427
0.0113422
0.0139551
0.0130709
0.00599044
-0.0031336
0.00418894
-0.00172318
0.00621523
0.00565163
-0.00447918
0.0021604
-0.00265053
0.00182843
-0.0021604
0.00165472
-0.00223488
0.0103753
7.24006e-05
0.0108325
0.00319992
0.0115524
0.0114221
0.0138753
-0.00318937
0.00988517
0.0125904
0.00218525
0.00291992
-0.000370985
-0.000545219
-0.00112881
0.00123406
0.00464751
0.000525915
-0.00262902
0.0103925
-0.000472587
0.0109203
0.00233978
0.0116926
0.00897449
0.014
0.00896517
0.0147953
-0.00161477
0.00448052
0.0110225
-0.00129792
0.00086159
-0.00011082
0.00224286
-7.37066e-05
-0.000931505
0.000668498
-0.000107974
-0.000242658
0.00389434
0.000283257
-0.00303384
0.0104054
-0.001065
0.0109849
0.00146153
0.0117986
0.00676937
0.0138978
0.0074616
0.0155036
0.0047495
0.0145263
0.0016312
0.00988943
-9.71077e-05
-0.000400981
-0.000637682
0.00323411
0.000576731
-1.90517e-05
0.00177494
-8.14855e-05
-8.82696e-05
0.00051591
-1.28852e-05
0.000175284
-0.00344798
0.0104172
-0.00169035
0.0110308
0.000567833
0.0118786
0.0048176
0.0137504
0.00582361
0.0155358
0.00420447
0.0160486
0.00226105
0.0138965
0.000307582
0.00918629
0.000238984
0.000156597
-0.00299397
0.00290551
-8.64898e-06
-0.000160842
0.000156232
0.00164334
-2.28565e-05
-6.38659e-06
-0.000447865
0.000388992
-2.26118e-05
-2.02229e-05
0.000143347
-0.00387007
0.0104271
-0.00233863
0.0110654
-0.000337622
0.0119363
0.00307443
0.0136218
0.00422175
0.0153523
0.00329612
0.0164442
0.00223136
0.0160783
0.000965719
0.0132384
-1.93432e-05
0.00885903
0.000113409
0.000233219
-0.00288173
0.00286938
0.000251348
0.00018038
0.001636
3.99634e-06
-5.30279e-06
0.000368029
-1.89369e-06
0.000362676
-1.03433e-06
-0.000123124
0.000100512
-0.00429683
0.0104338
-0.0030036
0.0110921
-0.00125034
0.0119782
0.00148756
0.0135232
0.00269808
0.0151454
0.00226878
0.0163796
0.00176634
0.0169092
0.00118105
0.015863
0.00042872
0.0127903
7.69831e-05
0.00875883
-2.775e-05
5.09855e-05
-0.0028676
0.00288111
9.99021e-05
0.000235005
-0.00171745
0.00174986
0.000113306
0.000105637
2.90699e-05
6.98589e-05
-0.000357772
0.000362348
-5.78759e-07
-3.98654e-07
9.86186e-05
9.75842e-05
-0.00473044
0.0104416
-0.00368524
0.0111154
-0.00216801
0.0120098
1.30105e-05
0.0134528
0.0012479
0.0149734
0.00121978
0.0161945
0.00109598
0.01705
0.00098376
0.0171065
0.00065743
0.0156343
0.000303537
0.0125638
9.62658e-05
-6.53384e-05
0.00872792
-0.00289097
0.00272349
0.000139742
4.11269e-05
-0.00180053
0.00185683
8.39559e-06
3.52092e-05
0.000124702
5.96405e-05
-0.000455227
0.000482985
8.55499e-05
-0.000420296
7.07071e-05
0.00038069
1.0729e-05
3.02543e-05
-9.71856e-05
9.66069e-05
-0.00516649
0.0104471
-0.00437813
0.0111345
-0.0030896
0.012037
-0.00138378
0.0134066
-0.000145668
0.0148463
0.000176457
0.0160167
0.000352103
0.0169383
0.00054577
0.0174879
0.000577988
0.0171859
0.000460219
0.0154776
0.000251769
0.0124083
-0.0020494
0.00474418
-1.06667e-05
-2.59447e-05
-2.55858e-06
0.000133823
0.00859667
-0.00189245
-1.22187e-05
-4.99343e-06
7.55593e-06
-2.04627e-06
-0.000570297
0.00057534
3.35463e-06
-0.000550238
1.51514e-05
0.000526136
8.15522e-05
3.55403e-05
-0.000208297
0.000237358
5.64909e-05
-0.00013759
0.000107336
-0.00560711
0.0104536
-0.00508602
0.011155
-0.00401792
0.0120628
-0.00273586
0.0133891
-0.00150261
0.0147635
-0.000858359
0.0158811
-0.00041364
0.0167824
-2.44356e-06
0.0174865
0.000272494
0.0177934
0.000412274
0.0172339
0.000379343
0.0153501
0.000186782
0.0122189
0.00475719
0.000108604
1.22195e-05
-0.000877076
0.000868789
-1.47398e-06
-9.01601e-07
-0.000529975
-2.49459e-07
-1.19477e-06
-0.000371598
-3.42636e-05
0.000251495
0.00837947
-0.000574655
3.24628e-05
-0.000579469
-1.78087e-07
0.000581005
1.89333e-06
-5.09025e-07
-0.000330579
0.000333935
-3.74432e-10
-0.000317793
2.36672e-06
0.000290872
2.80394e-05
8.62097e-06
5.64909e-05
-0.00605376
0.0104607
-0.00580702
0.0111746
-0.00494972
0.0120868
-0.00407321
0.0134002
-0.00283926
0.0147258
-0.00188894
0.0157941
-0.00118295
0.0166504
-0.000589319
0.0173693
-0.000147547
0.0179066
0.000179314
0.0180264
0.00035864
0.0172546
0.000331207
0.0152056
0.000182248
0.0120025
0.00465873
0.000168317
0.000181653
-0.000881055
0.000962049
2.25332e-05
5.08271e-06
1.17516e-06
-1.21846e-06
-8.91845e-05
8.77107e-05
-9.0086e-05
-9.03353e-05
-9.153e-05
-0.000336041
-3.09301e-06
5.21102e-05
4.71745e-05
0.00828022
-0.000335492
-7.2506e-07
0.000335563
2.66828e-07
-4.36925e-07
-9.55181e-05
9.5518e-05
-9.31514e-05
8.45304e-05
-0.00650547
0.0104667
-0.00653881
0.0111925
-0.00588942
0.0121143
-0.00543201
0.0134456
-0.00417568
0.0147366
-0.00291773
0.0157546
-0.00195122
0.0165624
-0.00118729
0.0172484
-0.000614789
0.0178366
-0.000167378
0.0182533
0.000172351
0.0182127
0.000338032
0.0172478
0.000326957
0.0150609
0.000198685
0.0118559
0.00467601
-1.99513e-05
4.98643e-05
-0.00101469
0.00108386
2.55511e-05
7.35992e-05
7.09761e-05
5.80416e-05
-9.27503e-05
0.000115284
-8.76675e-05
-8.64922e-05
-9.46229e-05
0.000127772
-7.46485e-05
0.00822715
-9.53479e-05
9.57849e-05
-0.00696542
0.010476
-0.00728409
0.011212
-0.00684123
0.0121443
-0.00684087
0.0135232
-0.0055283
0.0147982
-0.00395017
0.0157691
-0.00271824
0.0165216
-0.00178604
0.0171611
-0.00109728
0.0177309
-0.000561293
0.0182305
-0.00012287
0.0185485
0.000190415
0.0183603
0.000340855
0.0172339
0.000310659
0.014949
0.000214331
0.0117694
0.00464888
-2.94307e-05
-1.80603e-05
-0.00112548
0.00111674
-7.58548e-06
-3.62511e-06
-1.37322e-06
9.62236e-06
-0.000247717
0.000266204
7.06571e-06
-0.000197802
2.36854e-05
-0.000173325
4.65001e-05
0.000114364
-6.69978e-05
0.00817983
-0.0074327
0.0104843
-0.00803481
0.0112267
-0.00780801
0.0121787
-0.00833532
0.0136388
-0.00691281
0.0149077
-0.00498579
0.0158339
-0.00348115
0.016532
-0.00238285
0.0171184
-0.00158086
0.0176447
-0.000971012
0.0181406
-0.000472188
0.0185798
-7.00184e-05
0.018809
0.000211174
0.01849
0.00031902
0.0172256
0.000285375
0.0148779
0.000184787
0.011699
0.00461787
-1.58548e-05
-2.01187e-05
-0.00110472
0.00108568
-5.96902e-06
-4.4178e-06
-3.18032e-06
-2.85461e-06
-0.000271592
0.000266101
-2.09279e-06
-0.000273615
-1.60041e-06
-0.000274225
-7.61695e-07
1.6031e-06
-7.01855e-05
7.72514e-05
-4.65001e-05
9.21089e-06
4.59963e-05
0.00812467
-0.00790721
0.0104935
-0.00878612
0.0112355
-0.00880099
0.0122197
-0.00996083
0.0138043
-0.0083544
0.0150804
-0.00603264
0.0159546
-0.00424412
0.0165968
-0.00297473
0.0171239
-0.00205939
0.0175969
-0.001381
0.0180547
-0.00083857
0.018507
-0.000388445
0.0188982
-2.71474e-05
0.0190473
0.000202599
0.0186064
0.000280606
0.0172303
0.000240784
0.014822
9.95137e-05
0.0116087
0.00463854
3.19843e-05
-6.62913e-06
-0.00106989
0.00106161
-4.07547e-06
-3.48874e-06
-1.809e-06
-2.51096e-06
-0.000258017
0.000253767
-1.71648e-06
-0.000261047
-1.38619e-06
-0.000263411
-8.14246e-07
-1.63887e-07
-7.64926e-05
7.44e-05
-7.80929e-05
-7.88545e-05
-9.7804e-05
0.000212251
0.00801028
-0.00838799
0.0105008
-0.00952867
0.0112361
-0.00983666
0.0122712
-0.0117715
0.0140304
-0.00987242
0.0153223
-0.00709456
0.0161423
-0.00500753
0.016718
-0.00356274
0.0171848
-0.00253693
0.0176014
-0.00178975
0.0180057
-0.00120649
0.0184227
-0.00072775
0.0188463
-0.000327742
0.0191988
-1.96824e-05
0.0192696
0.000168438
0.0187186
0.000231489
0.0172397
0.00016822
0.0147533
2.40693e-05
0.0114869
0.00460391
0.000153724
9.31827e-05
-0.00105711
0.00108587
4.50428e-06
-1.26685e-06
4.19287e-08
-2.16724e-06
-0.000247453
0.000244718
-1.33767e-06
-0.000249846
-1.09285e-06
-0.000251168
-4.85195e-07
8.9321e-08
-7.20359e-05
7.03197e-05
-7.3422e-05
-7.42361e-05
-0.000108009
0.000200122
0.00791822
-0.00886736
0.0105034
-0.0102504
0.0112225
-0.0109474
0.0123469
-0.0138363
0.014336
-0.0114903
0.0156483
-0.00817815
0.0164059
-0.00577301
0.0169078
-0.00414739
0.0173027
-0.00300939
0.0176573
-0.00219222
0.0180039
-0.00157359
0.0183728
-0.00107473
0.0187697
-0.000654875
0.0191735
-0.000305282
0.0194845
-4.03686e-05
0.0194784
0.00012227
0.0188279
0.000164612
0.0172433
0.000104028
0.0146733
-6.08035e-06
0.011385
0.00458424
5.95774e-05
0.000160249
-0.00112462
0.00114842
6.97107e-05
6.02277e-05
3.90392e-05
1.53964e-05
-0.000242107
0.000246395
2.20026e-07
-0.000242682
-6.89221e-07
-0.000242389
-2.49111e-07
1.63917e-07
-6.88313e-05
6.74939e-05
-6.99239e-05
-7.0409e-05
-2.5902e-05
4.25429e-05
0.00790164
-0.00934081
0.0105044
-0.0109454
0.0111984
-0.0121764
0.0124515
-0.0162228
0.0147334
-0.0132157
0.0160614
-0.00928004
0.0167502
-0.00653561
0.0171685
-0.00472466
0.017485
-0.00347595
0.0177692
-0.00259209
0.0180572
-0.00193715
0.0183675
-0.00141835
0.0187164
-0.000987879
0.0191027
-0.000620558
0.0194888
-0.000314983
0.0197591
-7.82629e-05
0.019679
6.50811e-05
0.0189274
0.000103588
0.0172438
5.67552e-05
0.0146105
1.36114e-05
0.0113455
0.00461722
-1.5593e-05
2.51855e-05
-0.00118942
0.0012217
4.1407e-06
2.3171e-05
4.0698e-05
7.85502e-05
-0.000295988
0.000312036
5.3666e-05
-0.000276913
4.11559e-05
-0.00025574
1.78692e-05
6.05269e-06
-6.67199e-05
6.69403e-05
-6.74089e-05
-6.76578e-05
3.22104e-05
-3.21938e-05
0.00790168
-0.0098022
0.0105044
-0.011608
0.011167
-0.0135655
0.0125876
-0.0189761
0.0152048
-0.0150053
0.0165231
-0.0103532
0.0171346
-0.00726581
0.0174804
-0.00528092
0.0177248
-0.00393101
0.0179401
-0.0029877
0.0181648
-0.00229887
0.0184189
-0.00176215
0.0187113
-0.00132298
0.0190516
-0.000947655
0.0194298
-0.000622046
0.0197959
-0.00034256
0.0200234
-0.000126889
0.019871
6.73835e-06
0.0190243
4.67843e-05
0.0172538
3.45446e-05
0.0145896
3.34112e-05
0.0113443
0.00461603
-2.22526e-05
-8.72913e-06
-0.00124185
0.00123709
-7.43304e-06
-3.39278e-06
-1.11691e-06
6.16295e-06
-0.000369702
0.000372144
1.70255e-06
-0.000355846
9.31799e-06
-0.000339012
2.3866e-05
5.15778e-05
-0.000132019
0.000150547
3.51406e-05
-9.08624e-05
-7.2993e-05
3.56834e-05
-4.15086e-05
0.00790756
-0.0102494
0.0105072
-0.0122289
0.0111254
-0.015116
0.0127176
-0.022049
0.0156605
-0.0167089
0.0169083
-0.0112748
0.0174446
-0.00788097
0.0177498
-0.00576439
0.0179638
-0.0043493
0.0181431
-0.00336845
0.0183209
-0.00265515
0.0185211
-0.00210445
0.0187613
-0.00165633
0.0190447
-0.00127522
0.0193792
-0.000942084
0.0197498
-0.000644868
0.0200982
-0.000386787
0.0202833
-0.000182445
0.0200602
-5.61925e-05
0.0191273
-2.24818e-06
0.0172906
1.75002e-05
0.0146055
1.96125e-05
0.0113604
0.00460628
-1.78696e-05
-1.38515e-05
-0.00123166
0.00122056
-9.13631e-06
-2.01337e-06
-1.85095e-06
-1.43685e-06
-0.000374527
0.000370878
-3.78063e-06
-0.000375267
-2.64941e-06
-0.000375789
-5.91242e-07
2.52032e-06
-0.000210424
0.000212509
-3.8018e-07
-0.000202531
1.42792e-06
-0.000184571
5.90808e-06
1.75557e-05
3.51407e-05
-1.1196e-05
-7.42106e-06
0.00792623
-0.0106865
0.0105052
-0.012793
0.0110712
-0.0167352
0.0127446
-0.0252378
0.0159064
-0.0180098
0.0169613
-0.0117963
0.0174298
-0.0082099
0.0177735
-0.00606785
0.0180533
-0.00466413
0.0182787
-0.00369605
0.0184707
-0.0029875
0.0186532
-0.00243729
0.018854
-0.00198764
0.0190926
-0.0016049
0.0193744
-0.00126984
0.019707
-0.000964154
0.0200691
-0.00068397
0.0203954
-0.000437718
0.0205386
-0.000243799
0.0202478
-0.000117155
0.0192422
-4.52048e-05
0.0173533
-1.83928e-05
0.0146435
-3.45567e-05
0.0113838
0.0046172
-4.93681e-06
-1.33778e-05
-0.00121668
0.0012084
-9.57495e-06
-9.95814e-06
-0.000365133
0.000336351
1.96478e-05
-0.000368046
9.03177e-07
-0.000369307
-5.86418e-07
1.3664e-07
-0.000212268
0.000209767
-1.27691e-06
-0.000214158
-7.57377e-07
-0.000214474
-2.72145e-07
5.57473e-07
-6.00327e-05
5.9653e-05
-5.86046e-05
-5.26964e-05
-0.000103645
8.03234e-05
0.0079496
-0.0110943
0.0104497
-0.0132553
0.0109675
-0.0181686
0.0125046
-0.0281454
0.0156522
-0.018358
0.0162547
-0.0115172
0.0166822
-0.00798173
0.0172017
-0.00600848
0.0177142
-0.00475902
0.0181482
-0.00389904
0.0184817
-0.00325587
0.0187391
-0.00274077
0.0189567
-0.00230698
0.0191734
-0.00193116
0.0194189
-0.00159658
0.0197011
-0.00128942
0.0200323
-0.00100288
0.0203881
-0.000736534
0.0206943
-0.000499982
0.0207948
-0.000310474
0.0204412
-0.000174836
0.0193718
-9.65125e-05
0.0174315
-7.50616e-05
0.014684
-0.000116763
0.011397
0.00466668
3.0582e-05
2.90333e-07
-0.0011991
0.00119968
-5.49621e-06
-4.07242e-06
-0.000557588
0.000549361
-7.17778e-07
-6.21238e-07
-0.000231537
2.1173e-07
1.35903e-07
-0.000209932
-1.95457e-06
-0.000209182
1.54904e-07
-0.000209614
-1.51651e-07
2.92656e-07
-5.91814e-05
5.7905e-05
-5.99386e-05
-6.02105e-05
-0.000209738
0.000223929
0.00793546
-0.0113943
0.010257
-0.0136054
0.0107999
-0.0190876
0.0118866
-0.0300011
0.0143603
-0.0169173
0.0142115
-0.00994993
0.0146874
-0.0068875
0.015588
-0.00537791
0.0165711
-0.00448377
0.0174389
-0.00386632
0.0181155
-0.00338086
0.0186067
-0.0029623
0.0189607
-0.00258515
0.0192349
-0.00224041
0.0194826
-0.00191833
0.0197407
-0.00161609
0.0200278
-0.00132913
0.0203585
-0.00105363
0.0207052
-0.000795424
0.0209898
-0.000565066
0.0210494
-0.000375432
0.0206418
-0.000235516
0.0195108
-0.000156847
0.0175133
-0.000147916
0.0147152
-0.000194779
0.011382
0.00469378
0.000132428
6.44196e-05
-0.00119884
0.00122167
7.75687e-06
1.14116e-06
-0.000545509
0.000541161
-5.70233e-07
-5.68265e-07
-1.4561e-07
-6.818e-08
-5.59742e-05
5.52571e-05
-5.65952e-05
5.64593e-05
-5.62471e-05
-5.82015e-05
-5.80463e-05
-5.81977e-05
-0.000238158
0.000265596
0.00790807
-0.0115531
0.0100189
-0.0136038
0.0052081
0.00504732
-0.00877467
0.0056858
0.00534399
-0.0105429
-0.0153912
0.00629143
-0.0142714
0.00525659
-0.00849474
0.0102865
-0.00434876
-0.00678301
0.0110446
-0.00478952
0.0125895
-0.00406412
0.0142742
-0.00372042
0.0158078
-0.00348684
0.0170595
-0.00326837
0.018003
-0.00303082
0.0186752
-0.00277277
0.0191483
-0.00250088
0.0194954
-0.00221909
0.0197834
-0.00193665
0.0200613
-0.00165661
0.0203553
-0.00138138
0.0206863
-0.00111447
0.0210242
-0.000862101
0.0212868
-0.000633404
0.0213074
-0.000438822
0.0208451
-0.000297399
0.0196514
-0.000223119
0.0175885
-0.000210517
0.014731
-0.000220651
0.0113645
0.00469035
0.000116088
0.00015297
-0.00124699
0.00127936
0.000100063
3.9117e-05
-0.000542351
0.000550819
-1.51247e-07
-5.51836e-07
-1.37849e-07
9.41043e-08
-5.44758e-05
5.39062e-05
-5.50437e-05
5.51119e-05
-0.000169048
0.000144044
0.00793312
-0.0115919
0.00985382
-0.0131751
0.00492829
0.00466187
-0.00848805
0.0049215
-0.00820639
0.00476564
-0.0157741
0.00606875
-0.0156339
0.00245493
0.00274885
-0.00988786
0.0042665
-0.00700911
0.00480579
-0.00782308
0.00219404
0.00258078
-0.0051544
-0.00301129
-0.00140949
0.00112588
0.00154237
-0.00143783
0.00594014
-0.000998829
-0.00123683
0.00258869
-0.000894829
-0.00208644
0.0083415
-0.00227187
0.0107973
-0.00253092
0.0130847
-0.00273413
0.0150551
-0.0028472
0.0166383
-0.00286452
0.0178367
-0.00279765
0.0187001
-0.00265677
0.0193042
-0.00245972
0.0197361
-0.0022272
0.020074
-0.00197329
0.020378
-0.00171079
0.0206847
-0.00144449
0.0210163
-0.00118246
0.0213446
-0.000930119
0.0215835
-0.000697451
0.021566
-0.000501712
0.0210495
-0.00036113
0.0197894
-0.000279163
0.0176572
-0.000237164
0.0147475
-0.000186962
0.0113825
0.00475153
1.37969e-05
6.90879e-05
-0.00130061
0.00133555
8.1153e-05
0.000131733
-0.000584987
0.000636874
3.5028e-05
1.31561e-05
6.13891e-07
4.33984e-06
-5.33112e-05
5.31605e-05
-5.38628e-05
5.37687e-05
-8.14383e-05
3.98992e-05
0.0079747
-0.0116161
0.00988815
-0.0123086
0.00453444
0.00445291
-0.00797098
0.00469291
-0.00743223
0.00412309
-0.00960653
0.00233119
0.00215314
-0.0065451
0.00105296
0.00170812
-0.00758339
0.00733492
-0.00777369
0.0028937
0.0022607
-0.00258078
0.00176353
-0.0028937
0.000354034
0.000781354
-0.000229448
0.000573983
0.0010869
0.00158132
-0.000430468
-2.14495e-05
0.00384532
2.98576e-05
0.000931166
-0.000348668
-0.00039281
0.000584879
-0.000653939
0.00672359
-0.00124955
0.00951591
-0.00175375
0.0121044
-0.00215006
0.014358
-0.00243383
0.0162077
-0.00259702
0.0176361
-0.00264381
0.0186872
-0.00258741
0.0194319
-0.00244969
0.0199586
-0.00225439
0.0203551
-0.00202411
0.0206913
-0.00177219
0.0210124
-0.00151047
0.0213444
-0.00124946
0.0216639
-0.000995797
0.0218819
-0.000760628
0.0218249
-0.000562784
0.0212511
-0.0004119
0.0199222
-0.000309075
0.0177291
-0.000227775
0.0147883
-0.000127033
0.0114281
0.00479229
-1.12896e-05
1.04528e-05
-0.00137052
0.00137941
4.91739e-06
3.41339e-05
-0.000675844
0.000730052
5.42682e-06
2.15257e-05
4.99202e-05
4.28482e-05
-7.1271e-05
0.0001063
-5.81145e-05
5.37747e-05
-2.06184e-05
-1.04631e-05
0.00800582
-0.0116676
0.00999356
-0.0114313
0.00444321
0.00456765
-0.00686166
0.00396389
-0.00618724
0.00377848
-0.00920955
0.00231168
0.00198424
-0.00808604
0.00139186
0.00160775
0.00617263
-0.00588773
0.00204629
0.00178068
0.00606557
-0.00501261
-0.00671488
0.000912171
0.000124586
0.000291059
-0.000109885
0.000430989
-5.19883e-06
1.96825e-05
0.000776819
0.000132906
1.66462e-05
0.00317476
0.000687077
0.000119611
0.000161599
-5.38114e-05
-2.54644e-05
-0.000362823
0.0058369
-0.000855273
0.00861746
-0.00135003
0.0113044
-0.00180493
0.0137291
-0.00217044
0.0157811
-0.00242174
0.017414
-0.00254511
0.0186449
-0.00255046
0.0195327
-0.0024594
0.0201636
-0.0022945
0.0206255
-0.0020796
0.0209987
-0.00183809
0.02134
-0.00158004
0.021675
-0.00131687
0.021985
-0.00105847
0.0221798
-0.000818887
0.022081
-0.000611298
0.0214506
-0.00044589
0.020059
-0.000316089
0.0178174
-0.000196108
0.0148574
-7.49769e-05
0.0114825
0.00480126
-1.45028e-05
-4.9056e-06
-0.00138818
0.00138396
-7.06398e-06
1.69118e-06
-0.000759316
0.000766591
-2.28048e-06
-6.95758e-08
4.88204e-06
-7.32429e-09
-0.000172031
0.000176557
9.03695e-07
-0.000155312
4.80813e-06
0.000127333
2.88899e-05
1.48707e-05
1.05994e-05
-3.12913e-05
0.00802657
-0.0116959
0.0100062
-0.0105612
0.00912344
-0.00552903
0.00378501
-0.00481423
0.00385283
-0.00672494
0.0013178
0.00128497
-0.00540802
0.00121587
0.00124567
-0.0057907
0.00221465
-0.00546172
0.00165527
0.00486039
-0.00422183
0.000753294
0.00100642
-0.0062664
0.0015978
-0.00410044
1.47009e-05
9.50215e-06
2.91848e-05
0.000225774
2.42776e-05
4.4458e-05
-0.000317568
2.82642e-05
0.000960926
3.21212e-05
-4.86303e-05
0.0028606
2.84447e-06
2.49782e-05
-9.57631e-06
-2.32384e-05
-2.09959e-05
-5.85534e-06
-0.000298387
0.00528004
-0.000682011
0.00794947
-0.0011405
0.01064
-0.00160141
0.0131601
-0.00200494
0.0153643
-0.00230444
0.0171734
-0.00248069
0.0185752
-0.00253404
0.0196073
-0.00247883
0.020348
-0.0023406
0.0208865
-0.00214197
0.0213026
-0.00190412
0.0216641
-0.00164714
0.0220053
-0.00137999
0.0223065
-0.0011153
0.0224762
-0.000868643
0.0223384
-0.00064968
0.0216544
-0.000465527
0.0202084
-0.000304793
0.0179261
-0.000159733
0.0149422
-4.36352e-05
0.0115368
0.00479509
-1.45773e-05
-1.04956e-05
-0.00138229
0.00137608
-8.27702e-06
-3.227e-06
-0.000768873
0.000765139
-2.12566e-06
-1.19768e-06
3.3946e-07
-9.24461e-07
-0.000180778
0.000179303
-8.02717e-07
-0.000180662
-1.83801e-07
0.000180646
7.95355e-07
-2.17659e-08
-4.8569e-05
4.94732e-05
-4.37607e-05
2.889e-05
1.86111e-05
-3.64086e-05
0.00804447
-0.0117323
0.0100285
-0.00977934
0.00922432
0.00285388
-0.00489429
0.00304606
0.00330358
-0.00395617
0.00115949
0.00117365
0.0014574
0.00129313
-0.0036008
0.00069677
-0.00298242
0.000666585
0.00236836
-0.00174986
0.000597367
0.00063161
-0.00655439
0.00250264
-0.00489911
0.00389269
-0.0031394
-0.00250264
-9.99792e-06
1.10388e-05
2.41802e-05
1.02818e-05
7.28994e-05
-3.88163e-05
-1.17426e-05
2.6074e-06
3.32187e-06
1.53692e-05
0.000913001
-1.60473e-05
9.87603e-05
2.32962e-06
3.93679e-06
-6.89083e-05
0.00263116
-3.96092e-05
3.63977e-06
9.55147e-06
5.85534e-06
-2.68511e-05
-0.000269484
0.00486755
-0.000607488
0.00741649
-0.00103309
0.0100717
-0.00148521
0.0126404
-0.00189847
0.0149584
-0.00222657
0.0169193
-0.002439
0.0184802
-0.00252786
0.0196564
-0.00250438
0.0205118
-0.00238564
0.0211301
-0.00219931
0.0215979
-0.00196811
0.0219851
-0.001707
0.0223323
-0.00143592
0.0226272
-0.00116629
0.0227739
-0.000908088
0.0225968
-0.000674988
0.0218639
-0.000467704
0.0203713
-0.000285133
0.0180516
-0.000133577
0.0150321
-3.3737e-05
0.0115891
0.00478583
-1.33853e-05
-1.37029e-05
-0.00137023
0.00136433
-8.65527e-06
-4.6351e-06
-0.00076255
0.000757302
-1.80334e-06
-1.21848e-06
-1.83039e-09
-6.31318e-07
-0.000177831
0.000176466
-7.58512e-07
-0.000178754
-2.72846e-07
0.000179479
1.66672e-07
-1.97867e-07
-5.00634e-05
4.92612e-05
-5.0247e-05
5.02688e-05
4.35534e-06
-2.68783e-05
0.00806706
-0.0117932
0.0100619
-0.0091855
0.00943464
-0.00346112
0.00779112
0.00345595
-0.00051256
-0.001562
0.000897919
0.000766711
0.00418082
0.00257871
-0.00115149
0.000561119
-0.000535165
0.000557317
-7.86522e-07
0.000945625
0.000757183
-0.00244263
-0.00177604
0.00114443
-0.000547071
-1.58122e-05
-5.5302e-06
-5.51509e-06
-2.586e-06
-1.47076e-06
4.07837e-06
1.85123e-06
0.000108591
5.14392e-06
4.03258e-07
4.28704e-06
0.000862396
-2.25651e-05
0.000105966
-5.0901e-06
-8.32463e-06
4.18115e-06
8.57656e-06
-4.56739e-07
-7.94211e-05
0.00244113
-1.49243e-06
-0.000272072
0.00453217
-0.000583697
0.00696712
-0.000983145
0.00956964
-0.00141488
0.0121568
-0.0018284
0.0145602
-0.00217185
0.0166521
-0.00241028
0.0183626
-0.0025293
0.0196813
-0.00252946
0.0206556
-0.00243067
0.0213615
-0.0022547
0.0218845
-0.00202395
0.0223021
-0.00176291
0.0226593
-0.0014846
0.0229455
-0.00120418
0.02307
-0.000936973
0.0228588
-0.000686032
0.0220822
-0.000460869
0.0205471
-0.000268338
0.0181863
-0.000124704
0.0151231
-4.62593e-05
0.0116398
0.00478398
-9.8096e-06
-1.51725e-05
-0.00135621
0.00135158
-8.72419e-06
-5.55718e-06
-0.000753407
0.000747773
-1.71111e-06
-1.29445e-06
-1.60578e-07
-5.70696e-07
-0.000174815
0.000173689
-6.7373e-07
-0.000175802
-2.30738e-07
0.000176295
1.71979e-07
-1.36694e-07
-4.89576e-05
4.81996e-05
-4.92302e-05
4.94281e-05
-3.3424e-05
5.05706e-06
0.00809551
-0.0118842
0.010099
-0.00877001
0.00964638
-0.00289986
0.00887341
-0.0033891
0.00824203
0.00318789
0.00393106
-0.00132853
0.000712146
-0.00147886
0.00237677
-0.000712146
0.000911175
0.000655206
1.40392e-05
0.000571347
1.49243e-06
1.23809e-05
1.34224e-06
1.32505e-05
-4.6376e-07
0.000104803
5.32137e-06
1.35204e-07
-2.20032e-06
0.000810997
-2.5796e-05
0.000105637
-2.33885e-05
1.09866e-05
-2.8241e-06
8.52259e-06
-5.8576e-06
-4.56653e-07
-0.000107633
0.00227673
-0.000293409
0.00424191
-0.00058587
0.00656987
-0.00095641
0.00911119
-0.00137269
0.0117011
-0.0017812
0.0141696
-0.00213233
0.0163742
-0.00238855
0.0182219
-0.00252965
0.0196815
-0.00255266
0.0207776
-0.00246905
0.0215759
-0.00230204
0.0221626
-0.00207492
0.0226141
-0.00180972
0.0229844
-0.00152551
0.0232668
-0.00123592
0.023369
-0.000953157
0.0231259
-0.000688848
0.0223102
-0.000451227
0.02073
-0.000259126
0.0183208
-0.000130905
0.0152078
-7.7074e-05
0.0116835
0.00480126
9.65426e-07
-1.31455e-05
-0.00134234
0.00134054
-7.99322e-06
-5.91714e-06
-0.000743157
0.000737504
-1.65928e-06
-1.38935e-06
-3.29792e-07
-5.99294e-07
-0.000171898
0.000170841
-6.4879e-07
-0.000172953
-2.36236e-07
0.000173384
1.47413e-07
-1.3607e-07
-4.80046e-05
4.73315e-05
-4.82351e-05
4.83718e-05
-9.72382e-05
7.55144e-05
0.00811727
-0.0120029
0.0101317
-0.00850639
0.00983538
-0.00275742
0.00950391
0.00735219
0.00976324
0.00186004
-0.000540672
0.00227075
-0.000402233
0.00222706
0.00356403
-0.000389132
0.000759634
0.000266074
8.857e-07
4.22043e-07
9.19919e-06
4.64805e-06
8.75094e-06
5.86301e-07
0.000101417
2.0297e-06
-1.47771e-05
0.000754079
-3.59122e-05
9.67481e-05
-2.11174e-05
2.59303e-07
-9.99012e-06
-3.13157e-06
-1.76924e-06
-2.40184e-06
-8.25908e-06
-0.000143147
0.0021265
-0.00032348
0.00397955
-0.000593314
0.0062068
-0.000947013
0.00868554
-0.0013451
0.011265
-0.00174466
0.013782
-0.00209924
0.0160849
-0.00236896
0.0180612
-0.00252726
0.0196561
-0.00256778
0.0208764
-0.00250074
0.0217746
-0.00234096
0.0224286
-0.0021159
0.0229203
-0.00184664
0.0233056
-0.00155429
0.0235852
-0.00125544
0.0236713
-0.000960929
0.023398
-0.000683872
0.0225429
-0.000442963
0.0209138
-0.000258457
0.0184484
-0.000148559
0.0152793
-0.000120602
0.0117068
0.00483929
3.5849e-05
1.66532e-06
-0.00133237
0.00133775
-4.39768e-06
-4.95399e-06
-0.000732699
0.000727768
-1.57019e-06
-1.47603e-06
-4.90812e-07
-6.11844e-07
-0.000168836
0.000167822
-6.3801e-07
-0.000169968
-2.50614e-07
0.000170407
1.09763e-07
-1.54983e-07
-4.71074e-05
4.64597e-05
-4.73432e-05
4.74793e-05
-0.000160733
0.000178853
0.00809923
-0.0121494
0.0101624
-0.0083636
0.0099889
-0.00281115
0.00988913
0.00597218
0.0108839
-0.00161863
0.00479662
0.0088123
0.00103811
0.00165845
-0.000180129
-0.000245692
-0.000141259
0.00049866
0.00298351
0.000124814
-2.02118e-06
-1.58778e-06
-1.17375e-06
-5.30642e-06
-2.06624e-06
-5.81989e-07
8.99631e-05
-7.98267e-06
-2.5176e-05
0.000699039
-6.2907e-05
8.12125e-05
-2.71518e-05
-1.44144e-05
-6.5929e-06
-5.41077e-06
4.53057e-06
-7.6618e-06
2.76145e-06
-0.000179425
0.00198247
-0.000344149
0.00373042
-0.000607423
0.00586723
-0.000943185
0.00828365
-0.00132584
0.0108462
-0.0017161
0.0133988
-0.00206965
0.0157856
-0.0023481
0.0178821
-0.00252128
0.0196096
-0.00257741
0.0209531
-0.00252104
0.0219547
-0.00236902
0.0226818
-0.00214567
0.0232193
-0.00187468
0.023626
-0.0015747
0.0239045
-0.00126391
0.0239743
-0.000958191
0.0236723
-0.000674299
0.0227742
-0.000434292
0.0210897
-0.000260688
0.0185605
-0.000167539
0.0153262
-0.000148207
0.0116943
0.0048448
0.000113734
5.96411e-05
-0.00133716
0.00135954
1.34813e-05
2.26075e-06
-0.000724019
0.000722454
-1.24695e-06
-1.57204e-06
-6.61922e-07
-5.32724e-07
-0.000165621
0.000164684
-6.27851e-07
-0.000166827
-2.65867e-07
0.000167261
7.5174e-08
-1.75426e-07
-4.61654e-05
4.55287e-05
-4.64152e-05
4.65702e-05
-0.000155229
0.000197295
0.00805718
-0.0123167
0.0101853
-0.00831092
0.0101098
-0.00296752
0.0101453
0.00456726
0.011294
0.0047646
0.0109159
-0.000940915
0.00283642
0.00751661
-0.000599823
0.000462871
-5.3887e-05
0.00126568
-1.62204e-05
-0.000377781
0.000197652
-0.000124814
0.00250547
-1.5877e-06
-9.72775e-06
-7.49272e-06
-2.81543e-06
-1.86926e-05
-6.90187e-07
-3.00863e-06
6.94228e-05
-1.33781e-05
-0.00011816
0.00063781
4.18022e-05
-3.52766e-05
-2.75532e-05
-9.57282e-06
-8.71267e-06
1.04455e-05
-1.46622e-05
-2.37401e-06
-2.45642e-06
-0.000194999
0.00183336
-0.000369792
0.00349281
-0.000619647
0.00554371
-0.000941999
0.00789982
-0.00130969
0.0104398
-0.00168826
0.0130175
-0.00204034
0.0154779
-0.00232184
0.0176826
-0.00250636
0.0195386
-0.00257599
0.0210081
-0.00253133
0.022117
-0.00238807
0.0229242
-0.0021665
0.0235111
-0.00189096
0.0239423
-0.00158368
0.0242242
-0.00126277
0.0242789
-0.000948105
0.0239461
-0.000660719
0.0230007
-0.000424551
0.0212535
-0.000258398
0.0186514
-0.000167253
0.0153453
-0.00012421
0.0116634
0.00481812
9.69867e-05
0.000127012
-0.00137506
0.00139676
9.20537e-05
4.41331e-05
-0.000725271
0.000738651
1.26995e-06
-1.16058e-06
-7.31821e-07
1.77588e-07
-0.000162361
0.000161713
-5.94821e-07
-0.000163649
-2.80074e-07
0.000163989
3.76396e-08
-1.88853e-07
-4.51636e-05
4.45368e-05
-4.5429e-05
4.56044e-05
-6.25632e-05
8.0505e-05
0.00803935
-0.012501
0.0102023
-0.00831926
0.0101936
-0.0031762
0.0103185
0.00330316
0.0114093
0.00421583
0.0118428
0.00340345
0.0103488
0.00161461
0.00641824
-0.000227577
-0.000288678
-0.000242266
0.00214791
0.000143765
0.00104367
-8.60596e-06
-1.1653e-05
0.000127544
-2.81537e-06
-1.56064e-05
2.55844e-07
-1.64528e-05
-2.16017e-06
-3.04779e-05
-4.30277e-06
-6.14579e-06
3.54176e-05
-1.28071e-05
-7.32291e-05
-2.57139e-05
-0.000111901
0.000554747
-3.03302e-05
1.9085e-05
-2.21705e-05
-6.48465e-06
-6.07836e-06
5.27179e-06
-7.64561e-06
-0.00022038
0.00168397
-0.000387139
0.00326033
-0.000632
0.00523372
-0.000939299
0.00752946
-0.00129212
0.0100437
-0.00166102
0.0126382
-0.00200642
0.0151625
-0.00229189
0.0174682
-0.00248506
0.0194476
-0.00256629
0.021043
-0.00253292
0.0222618
-0.00239531
0.023153
-0.00217447
0.0237946
-0.00189529
0.0242539
-0.00158026
0.0245417
-0.0012515
0.0245823
-0.000931296
0.0242167
-0.000641341
0.0232175
-0.000404766
0.0213999
-0.000236466
0.0187206
-0.000128065
0.0153491
-4.18807e-05
0.0116427
0.00483152
7.32182e-06
5.98375e-05
-0.0014076
0.00142584
7.87463e-05
0.00011617
-0.000767377
0.000797228
4.04382e-05
2.17767e-05
3.27788e-06
1.21395e-05
-0.000160312
0.000161823
-2.38159e-07
-0.000161266
-2.06629e-07
0.000160962
2.08246e-08
-1.25585e-07
-4.41067e-05
4.35126e-05
-4.43862e-05
4.4575e-05
5.66981e-05
-3.84032e-05
0.0080211
-0.0126941
0.0102111
-0.00836011
0.0102432
-0.0034045
0.0104219
0.00222207
0.0113995
0.00348834
0.0121368
0.00335906
0.0118872
0.00242543
0.00953802
0.00115513
0.0058412
-0.000304286
-0.000273836
-0.00194353