/*--------------------------------*- C++ -*----------------------------------*\
| =========                 |                                                 |
| \\      /  F ield         | OpenFOAM: The Open Source CFD Toolbox           |
|  \\    /   O peration     | Version:  v1912                                 |
|   \\  /    A nd           | Website:  www.openfoam.com                      |
|    \\/     M anipulation  |                                                 |
\*---------------------------------------------------------------------------*/
FoamFile
{
    version     2.0;
    format      ascii;
    class       volVectorField;
    location    "210";
    object      U;
}
// * * * * * * * * * * * * * * * * * * * * * * * * * * * * * * * * * * * * * //

dimensions      [0 1 -1 0 0 0 0];


internalField   nonuniform List<vector> 
3675
(
(0.0774306 -0.0261683 0)
(0.232343 -0.0770083 0)
(0.076907 -0.0260021 7.00177e-22)
(0.230861 -0.0765277 8.30319e-22)
(0.0763928 -0.0258303 0)
(0.382435 -0.124329 -6.79649e-22)
(0.229413 -0.0760537 7.31031e-25)
(0.0759046 -0.0256658 0)
(0.526605 -0.167976 0)
(0.380139 -0.123591 0)
(0.227996 -0.0755862 0)
(0.0754182 -0.0255048 0)
(0.656697 -0.205629 0)
(0.523592 -0.167017 0)
(0.377875 -0.122861 0)
(0.226594 -0.0751291 0)
(0.0749443 -0.0253464 -5.20839e-22)
(0.76508 -0.235224 0)
(0.653027 -0.204466 -5.64045e-25)
(0.520586 -0.166064 0)
(0.375653 -0.122151 0)
(0.225232 -0.0746803 5.02812e-22)
(0.0744727 -0.0251885 0)
(0.844311 -0.254886 0)
(0.760835 -0.233876 -2.95957e-22)
(0.649402 -0.203324 5.63521e-25)
(0.517627 -0.165127 0)
(0.373441 -0.121435 0)
(0.223861 -0.0742253 0)
(0.073999 -0.0250317 0)
(0.888131 -0.2632 -2.95421e-22)
(0.839507 -0.253351 2.77511e-22)
(0.756634 -0.232552 0)
(0.645784 -0.202187 0)
(0.514678 -0.164191 0)
(0.371242 -0.120724 4.48459e-25)
(0.22249 -0.0737746 0)
(0.0735326 -0.0248768 7.3067e-22)
(0.892311 -0.259442 5.82994e-22)
(0.882712 -0.261462 0)
(0.834734 -0.251845 0)
(0.752451 -0.231245 -2.60426e-22)
(0.642192 -0.201061 0)
(0.51172 -0.163253 0)
(0.36904 -0.120013 -4.48407e-25)
(0.221134 -0.0733263 -3.71665e-22)
(0.0730625 -0.02472 0)
(0.855336 -0.243769 -2.96859e-22)
(0.886189 -0.25748 -2.73228e-22)
(0.877321 -0.259759 2.64685e-22)
(0.829989 -0.250365 2.44114e-22)
(0.748256 -0.229938 4.47996e-25)
(0.638575 -0.199927 0)
(0.508758 -0.162312 0)
(0.366839 -0.1193 3.798e-25)
(0.219755 -0.0728715 0)
(0.0725967 -0.024564 0)
(0.778934 -0.217345 -6.00585e-25)
(0.848436 -0.241571 2.80961e-22)
(0.880084 -0.255561 -2.64755e-22)
(0.871964 -0.258095 -2.50453e-22)
(0.825236 -0.248891 0)
(0.744061 -0.228632 -4.47715e-25)
(0.63494 -0.198786 0)
(0.50579 -0.161368 0)
(0.364638 -0.118588 -1.07807e-24)
(0.2184 -0.0724226 0)
(0.0721349 -0.0244073 0)
(0.668105 -0.182282 -2.88477e-22)
(0.77123 -0.214915 0)
(0.841527 -0.239427 0)
(0.874045 -0.253706 2.19424e-24)
(0.86664 -0.256455 -2.72344e-24)
(0.820485 -0.247419 2.23594e-22)
(0.739834 -0.227315 -2.13044e-22)
(0.631295 -0.197639 0)
(0.502821 -0.160419 0)
(0.362415 -0.117864 1.01944e-24)
(0.217051 -0.0719751 0)
(0.0716748 -0.02425 0)
(0.530569 -0.141372 3.29274e-22)
(0.659617 -0.179645 -1.13232e-24)
(0.763419 -0.212541 -2.11406e-24)
(0.834754 -0.237396 2.56809e-22)
(0.868122 -0.251905 -1.91329e-24)
(0.861349 -0.254825 -2.14458e-22)
(0.815719 -0.245943 1.99803e-22)
(0.735579 -0.225988 0)
(0.627625 -0.196483 3.80438e-22)
(0.499832 -0.159464 0)
(0.360226 -0.117152 -3.44298e-22)
(0.215714 -0.0715269 -3.1668e-22)
(0.0712247 -0.0241017 0)
(0.375759 -0.0976012 1.71966e-22)
(0.521268 -0.13859 2.33779e-24)
(0.650773 -0.177021 2.22168e-24)
(0.755895 -0.210367 2.11725e-24)
(0.828242 -0.235455 2.42968e-22)
(0.862314 -0.250134 1.67289e-24)
(0.85608 -0.253203 0)
(0.810933 -0.244461 7.27522e-25)
(0.731319 -0.224661 -3.46562e-22)
(0.623962 -0.19533 0)
(0.496865 -0.158514 2.92173e-22)
(0.358056 -0.11644 2.5788e-22)
(0.214386 -0.0710843 0)
(0.0707684 -0.0239511 1.59611e-22)
(0.253647 -0.0648191 -1.49676e-22)
(0.365503 -0.0948185 5.95139e-23)
(0.250405 -0.0639259 -1.3611e-22)
(0.510955 -0.135639 0)
(0.642489 -0.174739 2.81392e-22)
(0.748926 -0.208349 -2.57049e-22)
(0.82202 -0.233586 1.70067e-24)
(0.856612 -0.248395 -1.67484e-24)
(0.850832 -0.251591 -1.45363e-24)
(0.806151 -0.242982 -1.4084e-24)
(0.727043 -0.223327 1.00224e-24)
(0.620291 -0.194168 0)
(0.493904 -0.15756 0)
(0.355887 -0.115728 -2.92319e-22)
(0.213073 -0.0706462 0)
(0.0703216 -0.0238007 0)
(0.256005 -0.0652974 1.56637e-22)
(0.169284 -0.0426297 3.04617e-23)
(0.245433 -0.0627958 0)
(0.351855 -0.091201 -7.25258e-23)
(0.238049 -0.0606405 -9.86299e-23)
(0.167047 -0.0421354 -2.21153e-24)
(0.501886 -0.133218 -3.26438e-22)
(0.635299 -0.172722 2.60375e-22)
(0.742489 -0.206448 -2.28178e-22)
(0.816023 -0.231782 -3.28426e-24)
(0.850998 -0.246687 -1.89483e-22)
(0.845614 -0.249989 1.45411e-24)
(0.801365 -0.241501 9.99814e-25)
(0.722778 -0.221992 -3.19281e-25)
(0.61664 -0.19301 -3.09304e-22)
(0.490984 -0.156618 2.48471e-22)
(0.353758 -0.115028 2.70232e-22)
(0.211761 -0.0702085 2.3911e-22)
(0.0698851 -0.0236543 0)
(0.170703 -0.0429574 0)
(0.105273 -0.0262667 -3.28696e-25)
(0.104875 -0.0261584 -4.0959e-23)
(0.163301 -0.0412389 -2.37385e-23)
(0.228026 -0.0578335 -7.89396e-23)
(0.341766 -0.0884211 7.97466e-23)
(0.219794 -0.0561599 2.45618e-22)
(0.155325 -0.0391604 0)
(0.103491 -0.0258867 3.85711e-23)
(0.10431 -0.0260689 -7.97678e-23)
(0.494917 -0.131266 -1.51065e-23)
(0.629046 -0.170907 2.5511e-22)
(0.736484 -0.204673 -2.06157e-22)
(0.810231 -0.230047 1.98899e-22)
(0.845474 -0.245011 1.76221e-22)
(0.840426 -0.2484 0)
(0.796598 -0.240026 -3.18544e-25)
(0.718526 -0.220662 2.81508e-22)
(0.613012 -0.191858 -2.89835e-22)
(0.488072 -0.155677 -2.29712e-22)
(0.351658 -0.114338 -1.94357e-22)
(0.210491 -0.0697828 2.19077e-22)
(0.0694568 -0.0235105 2.4258e-22)
(0.10564 -0.026344 3.28775e-25)
(0.105935 -0.0264226 4.37015e-23)
(0.0615762 -0.0152481 -3.6326e-23)
(0.0613514 -0.0151978 0)
(0.102303 -0.0256979 -1.17584e-24)
(0.100308 -0.0251764 1.37026e-24)
(0.141115 -0.0352087 7.24925e-23)
(0.214644 -0.0546015 -1.32857e-22)
(0.335931 -0.0866144 -3.29881e-22)
(0.211829 -0.0537155 -1.86598e-24)
(0.13099 -0.0330781 -1.19403e-22)
(0.0909051 -0.0224512 -2.38195e-24)
(0.096891 -0.0244745 1.91498e-24)
(0.0606264 -0.0150568 -5.38128e-25)
(0.0610847 -0.0151419 3.65853e-23)
(0.489394 -0.129685 2.44063e-22)
(0.623426 -0.16928 2.29166e-22)
(0.730803 -0.203006 0)
(0.804607 -0.228367 -3.63198e-22)
(0.840033 -0.243364 6.82389e-25)
(0.835278 -0.246823 0)
(0.791857 -0.238559 -2.79476e-25)
(0.714305 -0.219338 2.63328e-22)
(0.609437 -0.190719 0)
(0.48523 -0.154755 -2.5385e-22)
(0.349573 -0.113646 -1.78454e-22)
(0.209245 -0.0693639 6.92797e-23)
(0.0690326 -0.0233685 -8.94249e-23)
(0.0617644 -0.0152988 3.70328e-23)
(0.0619295 -0.0153333 -4.0006e-23)
(0.0198336 -0.00487332 4.47554e-25)
(0.0197848 -0.00486588 2.7277e-23)
(0.0599315 -0.0149309 0)
(0.058678 -0.0146883 3.35879e-23)
(0.0798555 -0.0188033 6.52048e-24)
(0.0701673 -0.0179098 -5.81061e-25)
(0.127009 -0.0318281 2.73593e-23)
(0.209835 -0.053075 1.86843e-24)
(0.332018 -0.0855337 -2.88791e-22)
(0.208549 -0.0527128 1.68735e-24)
(0.125348 -0.0312838 -1.60186e-24)
(0.0621155 -0.0156724 -3.59581e-23)
(0.0647525 -0.0163785 3.94135e-23)
(0.0516542 -0.0121054 -2.20476e-24)
(0.0562361 -0.0140718 0)
(0.0195731 -0.00481614 2.02286e-25)
(0.0196925 -0.00483977 -2.02389e-25)
(0.484688 -0.128369 2.23673e-22)
(0.618266 -0.167803 -1.96595e-22)
(0.725392 -0.201425 1.89969e-22)
(0.79914 -0.226738 1.37416e-24)
(0.834668 -0.241741 1.54811e-22)
(0.830171 -0.24526 1.47304e-22)
(0.787146 -0.237098 2.79484e-25)
(0.710128 -0.218023 0)
(0.605903 -0.189586 2.2335e-22)
(0.482417 -0.153834 0)
(0.347552 -0.112976 -1.63658e-22)
(0.208021 -0.0689514 0)
(0.0686189 -0.0232297 0)
(0.0198831 -0.00488905 -2.10153e-25)
(0.0199297 -0.00489727 -2.98583e-23)
(0.0193849 -0.00478229 2.4369e-23)
(0.0190104 -0.00472435 2.61429e-23)
(0.0346577 -0.00597952 1.86434e-24)
(0.0237866 -0.00626816 -1.02954e-23)
(0.0610039 -0.0151803 -3.63839e-23)
(0.0604335 -0.0149965 3.40243e-23)
(0.124317 -0.0310044 -2.23416e-23)
(0.207368 -0.0524505 -1.03325e-22)
(0.32886 -0.0847522 -3.12102e-22)
(0.206525 -0.052257 1.59387e-24)
(0.123642 -0.0308196 -2.32536e-23)
(0.0599646 -0.0148374 3.15466e-23)
(0.06016 -0.0149014 -5.19084e-25)
(0.0200905 -0.00506823 2.89586e-23)
(0.0214926 -0.00561584 -2.23661e-23)
(0.016898 -0.00433438 3.63089e-23)
(0.0181047 -0.00463433 2.3206e-23)
(0.480499 -0.12722 2.26084e-22)
(0.613442 -0.166432 1.55005e-24)
(0.720188 -0.199906 -1.64011e-22)
(0.793779 -0.225144 -7.48483e-24)
(0.829367 -0.24014 -1.47472e-22)
(0.825113 -0.243711 0)
(0.78249 -0.235651 0)
(0.706011 -0.216721 0)
(0.602425 -0.188467 -2.36263e-22)
(0.47967 -0.152934 -2.22328e-22)
(0.345575 -0.112316 0)
(0.206826 -0.0685466 0)
(0.0682117 -0.0230936 -7.04263e-23)
(0.00961399 -0.00153156 -2.55219e-24)
(0.0195929 -0.00485103 0)
(0.0193865 -0.00477618 -4.70306e-23)
(0.0597764 -0.0147892 -3.02276e-23)
(0.059659 -0.0147647 3.12012e-23)
(0.123069 -0.0307023 9.29356e-23)
(0.205556 -0.0520514 5.35192e-24)
(0.326086 -0.0840665 -5.46259e-23)
(0.204821 -0.0518726 8.66764e-23)
(0.122585 -0.030589 0)
(0.0594802 -0.014706 -2.90118e-23)
(0.0595489 -0.0147355 3.02702e-23)
(0.0192419 -0.00473004 -4.45386e-23)
(0.0193015 -0.00475186 2.24204e-23)
(0.476652 -0.126172 -1.84144e-22)
(0.608849 -0.165132 3.45889e-22)
(0.715138 -0.198441 -1.6362e-22)
(0.788521 -0.223586 0)
(0.824131 -0.238561 -1.34816e-22)
(0.820105 -0.242176 0)
(0.777888 -0.234216 -1.22841e-22)
(0.70195 -0.215433 9.78403e-23)
(0.599024 -0.187365 1.95554e-22)
(0.476987 -0.152049 0)
(0.34364 -0.111668 0)
(0.205653 -0.0681516 0)
(0.067817 -0.0229631 0)
(0.0191954 -0.00471616 2.63614e-25)
(0.0191455 -0.00470846 -2.12054e-23)
(0.0593485 -0.0146839 -2.77744e-23)
(0.0592628 -0.0146675 -2.737e-23)
(0.122112 -0.0304922 8.38789e-23)
(0.203927 -0.051669 7.98121e-23)
(0.323526 -0.0834166 2.62952e-22)
(0.203252 -0.0514918 8.50292e-23)
(0.121656 -0.0303831 -9.89871e-23)
(0.059091 -0.014619 0)
(0.0591591 -0.0146484 2.66187e-23)
(0.0191072 -0.00469331 2.28505e-25)
(0.0191228 -0.0047044 2.08965e-23)
(0.473007 -0.125185 -1.91199e-22)
(0.604436 -0.163892 1.52802e-22)
(0.710203 -0.197011 1.40284e-22)
(0.783344 -0.222053 7.70575e-24)
(0.818958 -0.237 0)
(0.815155 -0.240654 -8.89695e-25)
(0.773349 -0.232795 1.09863e-22)
(0.697972 -0.214161 0)
(0.5957 -0.186282 0)
(0.474384 -0.151186 1.73185e-25)
(0.341766 -0.111039 0)
(0.204523 -0.0677686 -1.19755e-25)
(0.0674264 -0.0228363 -6.15834e-23)
(0.0190743 -0.00468547 2.00606e-23)
(0.0190317 -0.00467952 2.86645e-25)
(0.0589527 -0.0145957 -8.18032e-25)
(0.0588655 -0.0145773 1.00355e-24)
(0.121188 -0.0302763 -9.19317e-23)
(0.202407 -0.0512937 -7.15813e-23)
(0.321093 -0.0827932 -8.17698e-25)
(0.201754 -0.0511193 -6.84276e-24)
(0.120748 -0.0301634 -1.64967e-23)
(0.0586835 -0.0145259 2.39008e-23)
(0.0587566 -0.0145569 2.35328e-23)
(0.0189925 -0.00466566 -1.82047e-23)
(0.0190119 -0.00467743 -1.95719e-25)
(0.469515 -0.124239 -1.74941e-22)
(0.600147 -0.162684 -1.55617e-22)
(0.705366 -0.195611 1.41071e-22)
(0.778234 -0.22054 0)
(0.813837 -0.235452 1.20448e-22)
(0.810262 -0.239145 0)
(0.768885 -0.231386 0)
(0.694082 -0.212907 0)
(0.592473 -0.185219 0)
(0.471831 -0.150332 -1.88212e-22)
(0.339921 -0.110414 1.74431e-22)
(0.2034 -0.0673887 1.19729e-25)
(0.0670277 -0.022701 6.0816e-26)
(0.0189567 -0.00465765 -3.52807e-23)
(0.0189121 -0.00465079 2.84206e-25)
(0.058539 -0.014498 0)
(0.0584475 -0.0144775 1.01602e-24)
(0.120304 -0.0300594 5.13482e-23)
(0.200926 -0.0509215 -6.30363e-23)
(0.318746 -0.0821822 -3.76711e-23)
(0.200295 -0.0507517 5.98224e-23)
(0.119867 -0.0299477 -6.34703e-23)
(0.0582649 -0.0144234 0)
(0.0583379 -0.0144536 4.19803e-23)
(0.0188636 -0.00463507 -1.22434e-25)
(0.0188875 -0.0046475 -1.69356e-23)
(0.466133 -0.12332 -2.7764e-25)
(0.595949 -0.161504 1.26371e-22)
(0.70061 -0.194236 -1.18983e-22)
(0.773172 -0.21904 0)
(0.808758 -0.233913 -2.25117e-25)
(0.805434 -0.237645 1.03711e-22)
(0.764507 -0.229993 -1.88214e-25)
(0.690281 -0.211669 -9.6963e-23)
(0.589317 -0.184173 7.12799e-23)
(0.469357 -0.149501 -1.47832e-22)
(0.338134 -0.109809 0)
(0.202282 -0.0670082 0)
(0.0666408 -0.0225703 6.53613e-23)
(0.0188241 -0.00462604 -1.52307e-23)
(0.0187789 -0.00461904 3.03141e-23)
(0.058123 -0.0143959 1.89402e-23)
(0.0580331 -0.0143759 1.94639e-23)
(0.119434 -0.0298433 8.51369e-23)
(0.199491 -0.0505555 6.10069e-23)
(0.316461 -0.0815846 3.15132e-23)
(0.198868 -0.0503851 5.24151e-23)
(0.119003 -0.0297347 -4.32097e-23)
(0.0578454 -0.0143216 0)
(0.0579228 -0.0143519 1.78811e-23)
(0.0187281 -0.00460148 -1.396e-23)
(0.0187545 -0.00461388 -2.59485e-25)
(0.462844 -0.122426 -2.24024e-23)
(0.591823 -0.160343 1.32284e-22)
(0.695889 -0.192872 0)
(0.768153 -0.217553 -1.04509e-22)
(0.803731 -0.232383 -1.03568e-22)
(0.800671 -0.236154 0)
(0.760219 -0.228615 -2.01749e-24)
(0.686582 -0.210455 8.5448e-23)
(0.586244 -0.183149 0)
(0.466926 -0.148682 0)
(0.336345 -0.109205 0)
(0.201184 -0.0666348 1.50444e-22)
(0.0662791 -0.0224445 -7.20825e-23)
(0.0186893 -0.00459304 -2.7053e-23)
(0.0186441 -0.00458611 0)
(0.0577057 -0.0142931 -1.03761e-24)
(0.057615 -0.0142733 -3.2718e-23)
(0.118582 -0.0296294 1.15486e-23)
(0.198092 -0.0501966 0)
(0.314232 -0.0809977 -1.14489e-22)
(0.197476 -0.0500301 -5.19982e-23)
(0.118161 -0.0295213 -3.81029e-23)
(0.0574377 -0.0142206 0)
(0.0575087 -0.014251 -1.62956e-23)
(0.0185922 -0.00456851 -1.20718e-23)
(0.0186197 -0.00458081 -2.64105e-25)
(0.459597 -0.121539 -1.10172e-22)
(0.587746 -0.159197 0)
(0.691199 -0.191515 1.12105e-22)
(0.763137 -0.216059 -1.87048e-25)
(0.798731 -0.230848 -3.8548e-25)
(0.795978 -0.234669 9.04622e-23)
(0.75602 -0.227251 0)
(0.682966 -0.209257 0)
(0.58324 -0.182141 -8.74735e-23)
(0.464544 -0.147878 0)
(0.334584 -0.108604 -1.22033e-22)
(0.200091 -0.0662532 -1.23115e-25)
(0.0658841 -0.0223096 1.83869e-22)
(0.0185538 -0.00455987 -2.34226e-23)
(0.0185072 -0.00455318 2.28055e-23)
(0.0572985 -0.0141923 -1.49484e-23)
(0.0572104 -0.0141716 -1.35787e-23)
(0.117749 -0.0294203 1.94058e-23)
(0.196721 -0.0498444 0)
(0.31205 -0.0804222 1.27045e-22)
(0.196121 -0.0496807 -6.57717e-24)
(0.117334 -0.0293142 9.36147e-24)
(0.0570314 -0.0141195 0)
(0.0571033 -0.0141486 -8.10196e-25)
(0.0184626 -0.00453642 0)
(0.0184871 -0.00454933 0)
(0.456405 -0.120668 9.80065e-23)
(0.583674 -0.15805 0)
(0.686494 -0.190151 0)
(0.758124 -0.214559 1.86975e-25)
(0.793763 -0.229307 0)
(0.79135 -0.233185 1.59227e-25)
(0.75191 -0.2259 0)
(0.679437 -0.20808 7.94536e-23)
(0.580302 -0.181152 0)
(0.462162 -0.147069 0)
(0.332837 -0.108001 0)
(0.198983 -0.0658689 -9.9395e-23)
(0.0654705 -0.0221736 1.17467e-22)
(0.0184232 -0.00452813 0)
(0.0183794 -0.00452091 2.77612e-25)
(0.0568931 -0.0140919 -8.83605e-25)
(0.0568217 -0.0140757 -9.76819e-25)
(0.116933 -0.0292139 8.17717e-24)
(0.195383 -0.0494994 1.45482e-25)
(0.309884 -0.0798485 -1.33877e-22)
(0.194785 -0.0493384 -3.30439e-23)
(0.116528 -0.0291104 -2.87307e-23)
(0.0566312 -0.0140221 0)
(0.056705 -0.0140481 -1.18859e-23)
(0.0183296 -0.00450385 0)
(0.0183554 -0.00451619 -2.53591e-25)
(0.45321 -0.119795 5.66202e-25)
(0.579576 -0.156899 0)
(0.681741 -0.188772 0)
(0.753072 -0.213033 7.70197e-23)
(0.788808 -0.227748 -2.95188e-25)
(0.786787 -0.231702 7.5148e-23)
(0.747877 -0.224564 0)
(0.675967 -0.206918 -1.56938e-25)
(0.577379 -0.180166 8.35454e-23)
(0.459808 -0.146265 0)
(0.331051 -0.107387 -1.67697e-22)
(0.197856 -0.0654825 -1.09082e-22)
(0.0650567 -0.0220325 -3.93054e-25)
(0.0182904 -0.0044961 -2.96253e-25)
(0.0182501 -0.00448925 -8.42869e-24)
(0.0565001 -0.0139936 0)
(0.0564326 -0.0139781 -9.71823e-25)
(0.116137 -0.0290123 1.37059e-23)
(0.194063 -0.0491602 2.99421e-23)
(0.307753 -0.0792838 1.86395e-23)
(0.193472 -0.0490008 6.23506e-24)
(0.115736 -0.0289115 3.08144e-23)
(0.0562465 -0.0139263 0)
(0.056318 -0.0139513 -9.96768e-24)
(0.0181976 -0.0044729 0)
(0.0182366 -0.00448602 7.74848e-24)
(0.44999 -0.118917 -3.62891e-25)
(0.575414 -0.155727 0)
(0.676882 -0.187349 -8.32683e-23)
(0.747958 -0.211465 0)
(0.783854 -0.226164 -7.53575e-23)
(0.782277 -0.230222 -7.07885e-23)
(0.743911 -0.223246 0)
(0.672543 -0.205771 4.11449e-24)
(0.574465 -0.179178 3.12391e-25)
(0.457434 -0.145452 1.41901e-22)
(0.329265 -0.106769 0)
(0.196689 -0.0650738 0)
(0.064638 -0.0218913 1.43918e-22)
(0.0181652 -0.00446497 -6.90675e-24)
(0.0181261 -0.00445819 -1.37963e-23)
(0.056116 -0.0138972 -9.13606e-25)
(0.0560477 -0.0138822 -9.53663e-25)
(0.115351 -0.0288144 -1.68761e-23)
(0.192758 -0.0488217 -3.01145e-23)
(0.305614 -0.0787142 0)
(0.192172 -0.0486619 2.16114e-23)
(0.114956 -0.028717 3.05456e-23)
(0.0558649 -0.0138321 0)
(0.055936 -0.0138562 0)
(0.0180756 -0.00444297 -6.00957e-24)
(0.0181131 -0.00445561 5.12198e-26)
(0.446696 -0.118016 0)
(0.571087 -0.154508 0)
(0.671859 -0.185862 6.03725e-23)
(0.742738 -0.209834 -5.68864e-23)
(0.778887 -0.224554 7.11131e-23)
(0.77781 -0.228752 6.84611e-23)
(0.739991 -0.221944 -7.57169e-23)
(0.669122 -0.204622 7.91714e-23)
(0.571542 -0.178184 8.19001e-23)
(0.455037 -0.144621 0)
(0.327434 -0.106127 1.77376e-22)
(0.195517 -0.0646624 -1.33299e-22)
(0.064216 -0.0217459 0)
(0.0180415 -0.00443428 -1.14287e-23)
(0.0180007 -0.00442741 -5.72352e-24)
(0.0557404 -0.0138041 -7.24138e-24)
(0.0556729 -0.0137886 -7.05627e-24)
(0.114585 -0.0286209 8.65291e-24)
(0.191487 -0.0484906 -8.24642e-26)
(0.303423 -0.0781307 0)
(0.190896 -0.0483267 1.65579e-23)
(0.114198 -0.0285233 -1.6572e-23)
(0.0554956 -0.0137417 0)
(0.0555621 -0.0137644 -6.54942e-24)
(0.0179513 -0.00441262 -4.73467e-24)
(0.0179891 -0.00442506 0)
(0.443252 -0.117082 5.42442e-23)
(0.566503 -0.15321 -6.66546e-23)
(0.666584 -0.184266 6.11419e-23)
(0.737369 -0.208124 0)
(0.773914 -0.222937 -1.07174e-23)
(0.773384 -0.2273 -2.75014e-25)
(0.736089 -0.220652 1.39429e-25)
(0.665704 -0.203471 -7.40212e-23)
(0.568595 -0.177172 8.20996e-23)
(0.452595 -0.143771 -1.50054e-22)
(0.325568 -0.105469 1.85743e-22)
(0.194319 -0.0642363 -1.988e-22)
(0.063762 -0.0215939 -1.80542e-22)
(0.0179212 -0.00440495 -4.36281e-24)
(0.0178802 -0.00439741 -4.21745e-24)
(0.0553691 -0.0137131 -5.67223e-24)
(0.0553039 -0.0136994 -7.83483e-25)
(0.113825 -0.0284261 6.35465e-24)
(0.190214 -0.048158 0)
(0.301157 -0.0775294 -5.29081e-23)
(0.189605 -0.0479905 -1.14697e-23)
(0.113449 -0.0283322 -1.03631e-23)
(0.0551291 -0.0136488 0)
(0.0551991 -0.0136705 -4.9058e-24)
(0.0178348 -0.00438405 -3.5951e-24)
(0.0178684 -0.00439594 3.1742e-26)
(0.439501 -0.116067 0)
(0.561476 -0.151757 3.71544e-23)
(0.660933 -0.182512 0)
(0.731875 -0.206363 -1.04503e-22)
(0.768952 -0.221337 1.2523e-25)
(0.768996 -0.225874 -1.37311e-22)
(0.732197 -0.21936 -5.76767e-25)
(0.662256 -0.202301 -1.50731e-22)
(0.565611 -0.176139 0)
(0.450101 -0.142894 -1.56776e-22)
(0.32366 -0.104791 1.60696e-22)
(0.19308 -0.0637981 -4.89605e-23)
(0.0632833 -0.0214329 -2.53964e-23)
(0.0177972 -0.00437616 2.62523e-26)
(0.0177674 -0.00437289 -2.09784e-25)
(0.0550074 -0.0136212 -9.38939e-25)
(0.0549457 -0.0136086 -8.3032e-25)
(0.113082 -0.0282359 -1.97698e-24)
(0.188916 -0.0478169 -2.6018e-23)
(0.298669 -0.0768734 -2.27835e-24)
(0.188305 -0.0476465 0)
(0.112711 -0.028144 1.05899e-23)
(0.0547718 -0.013561 -3.18736e-24)
(0.0548441 -0.013582 -3.39727e-24)
(0.0177136 -0.00435252 -2.41697e-24)
(0.0177504 -0.00436397 0)
(0.435182 -0.114897 -4.31001e-23)
(0.555807 -0.150072 1.86296e-23)
(0.654922 -0.180613 4.75845e-23)
(0.726321 -0.204608 -4.62229e-23)
(0.764052 -0.219785 1.25464e-22)
(0.764652 -0.224463 5.13756e-25)
(0.728301 -0.218059 7.06685e-23)
(0.658779 -0.201111 0)
(0.562563 -0.175076 0)
(0.447565 -0.141996 -3.38926e-25)
(0.321714 -0.104096 -3.15652e-23)
(0.191789 -0.0633395 1.90023e-22)
(0.0627963 -0.0212671 2.08456e-22)
(0.0176785 -0.00434652 -4.40225e-24)
(0.0176506 -0.00434377 -2.11513e-25)
(0.0546574 -0.0135347 0)
(0.0545979 -0.0135201 2.54418e-24)
(0.112349 -0.0280475 8.63345e-24)
(0.187589 -0.047469 1.1019e-23)
(0.295687 -0.0761172 1.29614e-24)
(0.186865 -0.0472712 -7.33693e-24)
(0.111961 -0.027951 1.60508e-25)
(0.0544319 -0.0134747 -1.68414e-24)
(0.0544983 -0.013496 1.97397e-24)
(0.0175969 -0.00432477 9.36701e-27)
(0.017635 -0.00433557 0)
(0.429907 -0.113432 -2.18211e-23)
(0.549265 -0.148044 1.59093e-25)
(0.648675 -0.178681 5.00319e-23)
(0.720871 -0.202943 -9.81261e-24)
(0.75927 -0.218277 4.87237e-25)
(0.76035 -0.223055 -6.05495e-23)
(0.724393 -0.216741 1.07775e-24)
(0.655254 -0.199895 -5.90879e-25)
(0.559473 -0.173988 0)
(0.444984 -0.141073 -1.57574e-23)
(0.319733 -0.103381 -3.95242e-25)
(0.190452 -0.062858 -4.41199e-25)
(0.0622978 -0.0210997 -2.40742e-23)
(0.0175675 -0.00432001 1.05494e-24)
(0.0175398 -0.0043157 1.01744e-24)
(0.0543166 -0.0134484 1.2679e-24)
(0.0542599 -0.0134353 0)
(0.111604 -0.0278525 -1.81897e-25)
(0.186035 -0.0470818 9.17199e-25)
(0.29166 -0.0750797 -4.8067e-25)
(0.185042 -0.0468299 -1.31619e-24)
(0.11117 -0.0277483 7.89953e-25)
(0.0540926 -0.0133893 -9.34334e-25)
(0.0541635 -0.0134115 0)
(0.0174919 -0.00429792 0)
(0.0175242 -0.00430883 -5.97628e-25)
(0.422913 -0.111368 -3.00249e-23)
(0.542091 -0.145857 -2.11736e-24)
(0.642598 -0.176912 -1.15151e-23)
(0.715677 -0.201365 0)
(0.754622 -0.216794 5.98535e-23)
(0.756083 -0.221644 0)
(0.720464 -0.215406 -5.31668e-25)
(0.651694 -0.198653 5.90788e-25)
(0.556344 -0.172873 1.68042e-22)
(0.442376 -0.140126 -3.75103e-25)
(0.317676 -0.102632 0)
(0.189107 -0.0623771 2.463e-22)
(0.0617857 -0.0209252 -2.28771e-23)
(0.0174579 -0.00429241 0)
(0.0174321 -0.00428955 0)
(0.0539825 -0.0133631 -1.78133e-25)
(0.053927 -0.013349 4.11942e-25)
(0.110768 -0.0276396 -8.58969e-25)
(0.183776 -0.0465756 0)
(0.28463 -0.0732284 5.19866e-23)
(0.18193 -0.0461003 0)
(0.110216 -0.0275187 2.03991e-24)
(0.0537581 -0.0133067 0)
(0.05383 -0.0133284 -1.02282e-24)
(0.0173823 -0.00427125 5.33289e-25)
(0.0174184 -0.00428271 0)
(0.414233 -0.108792 4.8723e-23)
(0.535232 -0.14398 -4.98523e-23)
(0.637052 -0.175303 -6.69667e-25)
(0.710775 -0.199847 4.11725e-23)
(0.750092 -0.215332 4.1911e-25)
(0.751845 -0.220231 0)
(0.716524 -0.214051 0)
(0.648095 -0.197383 7.29139e-23)
(0.553168 -0.171725 1.75571e-22)
(0.439697 -0.139147 -4.26685e-25)
(0.315602 -0.101871 0)
(0.187736 -0.0618753 2.8058e-22)
(0.0612571 -0.0207454 -3.48702e-22)
(0.0173521 -0.00426567 1.09636e-24)
(0.017326 -0.00426224 0)
(0.0536401 -0.0132755 0)
(0.0535891 -0.0132611 -2.85903e-24)
(0.109568 -0.0273649 2.56348e-24)
(0.179095 -0.0455507 6.30766e-25)
(0.272432 -0.0699008 -2.33963e-23)
(0.174209 -0.0440399 -2.70974e-23)
(0.108521 -0.0271582 0)
(0.053397 -0.0132175 -4.12723e-24)
(0.0534857 -0.0132427 -2.61096e-24)
(0.0172805 -0.00424642 1.99152e-24)
(0.0173139 -0.00425711 1.54124e-24)
(0.40627 -0.106728 5.69753e-25)
(0.52947 -0.142385 0)
(0.632082 -0.173807 -4.37538e-23)
(0.706144 -0.19839 5.75245e-25)
(0.745674 -0.213891 0)
(0.74764 -0.218813 0)
(0.712573 -0.212678 -6.84777e-23)
(0.644479 -0.196091 -1.59468e-22)
(0.549955 -0.170555 -3.77094e-25)
(0.436998 -0.138143 4.26593e-25)
(0.313465 -0.101076 2.81876e-22)
(0.18634 -0.0613638 3.21701e-22)
(0.0607126 -0.0205556 -3.97187e-22)
(0.0172498 -0.00423985 0)
(0.0172233 -0.00423621 2.13258e-24)
(0.0532628 -0.0131868 9.49305e-25)
(0.0531594 -0.0131567 4.90577e-24)
(0.106884 -0.0268312 -3.63753e-24)
(0.165217 -0.0413659 -8.86154e-23)
(0.262546 -0.0673634 1.04638e-25)
(0.155786 -0.0396525 1.38364e-23)
(0.103384 -0.0259394 0)
(0.0528003 -0.0130885 0)
(0.0530201 -0.0131346 5.03321e-24)
(0.0171713 -0.00421995 6.40489e-24)
(0.017212 -0.00423116 0)
(0.40054 -0.105137 2.54725e-23)
(0.524702 -0.140973 1.60831e-23)
(0.627551 -0.172413 0)
(0.701721 -0.196984 -5.76091e-25)
(0.741352 -0.212467 0)
(0.743469 -0.21739 3.92849e-25)
(0.708624 -0.211287 2.51106e-25)
(0.640836 -0.194771 0)
(0.546715 -0.169352 3.76943e-25)
(0.43424 -0.137108 -4.80323e-22)
(0.311338 -0.100274 -3.141e-25)
(0.184891 -0.0608197 3.65084e-22)
(0.060127 -0.0203632 0)
(0.0171465 -0.00421587 -3.15953e-24)
(0.0171015 -0.00420384 1.84054e-25)
(0.0525227 -0.0130476 0)
(0.0520176 -0.0129556 4.63785e-24)
(0.0919267 -0.0225624 3.61457e-23)
(0.150002 -0.0379651 -4.81615e-25)
(0.257679 -0.0657613 -3.29208e-23)
(0.147472 -0.0371355 6.427e-24)
(0.07766 -0.020091 -1.42017e-23)
(0.049128 -0.0119859 1.66198e-24)
(0.0511349 -0.0128518 0)
(0.017011 -0.00417998 0)
(0.0170841 -0.00419671 4.40166e-25)
(0.396437 -0.103916 -1.81981e-23)
(0.520606 -0.139738 -1.78711e-25)
(0.623371 -0.171122 2.38492e-25)
(0.697482 -0.195626 1.88965e-23)
(0.737129 -0.21106 -2.69777e-25)
(0.739337 -0.21596 -7.66021e-25)
(0.704682 -0.209875 5.597e-23)
(0.637174 -0.193421 0)
(0.543453 -0.168123 2.12363e-22)
(0.431461 -0.136044 0)
(0.309125 -0.0994303 3.40593e-22)
(0.183375 -0.0602613 0)
(0.059517 -0.0201589 1.01241e-21)
(0.0169321 -0.00416539 -4.80194e-24)
(0.0167654 -0.00413903 -5.31733e-24)
(0.0447716 -0.0102239 1.10401e-24)
(0.030156 -0.00506165 0)
(0.0726964 -0.0182808 -1.92232e-25)
(0.14601 -0.0365614 -1.5011e-23)
(0.254975 -0.0649625 -2.31574e-25)
(0.145175 -0.0363148 3.93536e-24)
(0.071566 -0.0177279 -1.16719e-23)
(0.0183839 -0.00494178 2.0506e-24)
(0.0205758 -0.00508196 -2.25699e-24)
(0.0157527 -0.00401457 -3.33034e-24)
(0.0164665 -0.00411765 -1.77218e-25)
(0.393124 -0.102951 -2.15588e-25)
(0.516931 -0.138639 -1.07486e-25)
(0.619458 -0.169907 -1.7977e-23)
(0.693404 -0.194303 0)
(0.732987 -0.209658 2.69919e-25)
(0.735245 -0.21452 -9.09986e-23)
(0.700749 -0.208442 -5.52056e-23)
(0.63351 -0.192047 0)
(0.540167 -0.16686 0)
(0.428645 -0.134954 -3.15927e-24)
(0.306878 -0.0985657 -3.77046e-22)
(0.181822 -0.0596829 -9.77303e-22)
(0.058906 -0.0199485 -1.64344e-23)
(0.014669 -0.00369403 4.93146e-26)
(0.00830052 -0.00128404 7.2315e-23)
(0.017251 -0.00435601 3.01115e-24)
(0.0168301 -0.00420766 3.41578e-24)
(0.0709997 -0.017545 1.41247e-23)
(0.144506 -0.0361784 1.28166e-23)
(0.252983 -0.0644892 -3.26269e-25)
(0.144062 -0.036094 -1.24515e-23)
(0.0706519 -0.0174464 0)
(0.0166982 -0.00410666 -4.89485e-24)
(0.016769 -0.00414113 4.84193e-24)
(0.390303 -0.102153 3.58184e-26)
(0.513606 -0.137643 -1.91768e-23)
(0.615754 -0.168742 0)
(0.689461 -0.193005 4.80857e-24)
(0.728927 -0.208262 5.45816e-23)
(0.731193 -0.213069 5.34129e-23)
(0.696826 -0.206984 -2.5684e-25)
(0.629837 -0.190641 0)
(0.536855 -0.165564 -2.49384e-22)
(0.425768 -0.133821 3.18447e-22)
(0.30457 -0.0976675 4.07779e-22)
(0.180222 -0.0590772 5.37676e-22)
(0.0582417 -0.0197269 1.31072e-21)
(0.0166767 -0.00410049 0)
(0.0166634 -0.00409673 -5.04409e-24)
(0.0704216 -0.0174131 5.13565e-24)
(0.143559 -0.036007 0)
(0.251279 -0.0640853 1.49699e-23)
(0.143198 -0.0359291 0)
(0.0702391 -0.0173737 0)
(0.0166342 -0.00408512 4.99629e-24)
(0.0166419 -0.00408725 5.30874e-24)
(0.38779 -0.101441 1.89654e-23)
(0.510518 -0.136712 -2.61906e-25)
(0.612228 -0.16762 9.16852e-24)
(0.685634 -0.191724 -2.06019e-23)
(0.724943 -0.206864 1.2169e-23)
(0.727184 -0.2116 3.04274e-23)
(0.692921 -0.205501 5.42831e-23)
(0.626168 -0.189202 0)
(0.533495 -0.164226 2.43494e-22)
(0.422855 -0.132653 0)
(0.302188 -0.0967298 0)
(0.178564 -0.058453 -6.08832e-22)
(0.0575635 -0.0195033 -7.52523e-22)
(0.0166135 -0.00408403 -1.05658e-23)
(0.0166128 -0.00408309 4.21566e-26)
(0.0700611 -0.0173473 6.16156e-24)
(0.142742 -0.0358315 -2.35628e-23)
(0.249783 -0.0637076 0)
(0.142405 -0.0357446 0)
(0.0698798 -0.0173 1.04007e-25)
(0.0165847 -0.00407648 0)
(0.0165865 -0.00407761 5.90612e-24)
(0.385513 -0.100792 2.79617e-25)
(0.507601 -0.135821 2.02192e-23)
(0.608835 -0.166521 -2.07597e-23)
(0.681906 -0.190451 -1.24741e-23)
(0.721028 -0.205459 -3.0453e-23)
(0.723217 -0.210112 -7.97651e-23)
(0.689038 -0.203989 5.43034e-23)
(0.622477 -0.187726 -3.09576e-22)
(0.530115 -0.16285 0)
(0.419903 -0.131453 3.73559e-22)
(0.299761 -0.0957644 0)
(0.176864 -0.0578097 6.90399e-22)
(0.0568667 -0.0192718 8.36372e-22)
(0.0165545 -0.00407265 -1.25635e-23)
(0.0165486 -0.00406849 -6.62728e-24)
(0.0696992 -0.0172645 -1.03986e-25)
(0.141966 -0.0356414 0)
(0.248412 -0.0633479 -3.11205e-25)
(0.141652 -0.0355564 0)
(0.0695173 -0.0172147 0)
(0.0165077 -0.00405596 0)
(0.0165194 -0.00406125 0)
(0.383363 -0.100172 -4.28873e-23)
(0.504822 -0.13496 2.61116e-23)
(0.605566 -0.165444 0)
(0.678282 -0.189184 -2.1678e-26)
(0.717181 -0.204042 2.73112e-23)
(0.719293 -0.208602 -5.27696e-23)
(0.685167 -0.202444 1.38275e-22)
(0.618777 -0.186211 9.42158e-23)
(0.526727 -0.16144 -3.27348e-22)
(0.416893 -0.130205 4.10822e-22)
(0.297311 -0.0947687 0)
(0.175079 -0.0571261 0)
(0.0561256 -0.0190383 -9.56835e-22)
(0.016475 -0.00405195 -7.63151e-24)
(0.0164699 -0.00404923 -7.8774e-24)
(0.0693413 -0.0171757 0)
(0.141236 -0.0354573 -1.40791e-25)
(0.247111 -0.0629986 1.28979e-25)
(0.14094 -0.0353725 1.40748e-25)
(0.0691739 -0.0171314 0)
(0.0164264 -0.00403696 0)
(0.0164385 -0.00404199 8.31903e-24)
(0.381333 -0.0995798 4.64381e-25)
(0.502174 -0.134126 0)
(0.602403 -0.164375 -4.26378e-23)
(0.674745 -0.187912 -2.6536e-23)
(0.713405 -0.202612 -3.12975e-26)
(0.715411 -0.207065 -5.34181e-23)
(0.681314 -0.200864 -8.8604e-23)
(0.615088 -0.184655 0)
(0.523295 -0.159978 -3.5988e-22)
(0.413852 -0.12891 4.54106e-22)
(0.294726 -0.0937113 0)
(0.173215 -0.0564371 8.77754e-22)
(0.0553402 -0.0187582 -1.10614e-24)
(0.0163962 -0.00403205 8.85058e-24)
(0.0163882 -0.00402924 -9.09991e-24)
(0.0690041 -0.0170922 0)
(0.140545 -0.0352805 1.61296e-25)
(0.245871 -0.062659 -2.71285e-26)
(0.140247 -0.035194 -1.61242e-25)
(0.0688308 -0.0170469 0)
(0.0163565 -0.00401902 9.73771e-24)
(0.0163584 -0.00402271 9.43046e-24)
(0.379397 -0.0990058 8.75436e-23)
(0.499625 -0.133303 1.1704e-22)
(0.599346 -0.163309 2.86909e-23)
(0.671295 -0.186631 0)
(0.709691 -0.20116 -1.35894e-26)
(0.711571 -0.205498 0)
(0.677476 -0.199241 0)
(0.611378 -0.183049 1.0845e-22)
(0.519809 -0.158455 -3.977e-22)
(0.410709 -0.12756 0)
(0.292061 -0.092617 0)
(0.171248 -0.0557288 -1.04202e-24)
(0.0547133 -0.0183284 1.2079e-21)
(0.0163235 -0.00401384 9.95579e-24)
(0.0163168 -0.0040109 -1.02818e-23)
(0.0686649 -0.017011 0)
(0.139872 -0.0351024 3.64178e-25)
(0.24469 -0.0623348 -7.19794e-23)
(0.139595 -0.0350201 -5.56583e-25)
(0.0684978 -0.0169638 0)
(0.0162728 -0.00400039 -1.08817e-23)
(0.016287 -0.00400499 1.07303e-23)
(0.377561 -0.098453 -8.13207e-23)
(0.497186 -0.13249 2.59905e-25)
(0.596387 -0.162238 0)