/*--------------------------------*- C++ -*----------------------------------*\
| =========                 |                                                 |
| \\      /  F ield         | OpenFOAM: The Open Source CFD Toolbox           |
|  \\    /   O peration     | Version:  v1912                                 |
|   \\  /    A nd           | Website:  www.openfoam.com                      |
|    \\/     M anipulation  |                                                 |
\*---------------------------------------------------------------------------*/
FoamFile
{
    version     2.0;
    format      ascii;
    class       volVectorField;
    location    "450";
    object      U;
}
// * * * * * * * * * * * * * * * * * * * * * * * * * * * * * * * * * * * * * //

dimensions      [0 1 -1 0 0 0 0];


internalField   nonuniform List<vector> 
3753
(
(0.0489852 0.0207139 0)
(0.150253 0.0618853 1.89289e-23)
(0.0484855 0.0205098 -8.80896e-24)
(0.252699 0.102044 0)
(0.148751 0.0612769 -9.31034e-24)
(0.0480075 0.0203079 8.86164e-24)
(0.352107 0.13939 -6.65167e-21)
(0.250215 0.101048 -7.2776e-24)
(0.147303 0.0606827 -8.98111e-21)
(0.047544 0.0201105 8.24213e-24)
(0.442188 0.171588 5.85043e-21)
(0.34866 0.138022 -6.39158e-21)
(0.24778 0.100066 7.35059e-21)
(0.145868 0.0600943 8.32607e-24)
(0.0470791 0.0199147 -8.32755e-21)
(0.515331 0.195961 -5.0853e-24)
(0.437821 0.169876 5.63017e-21)
(0.345265 0.136679 0)
(0.245387 0.0991081 6.74925e-24)
(0.144449 0.0595109 -8.34609e-24)
(0.0466301 0.0197242 0)
(0.563927 0.210059 1.99737e-25)
(0.510134 0.193951 5.11296e-21)
(0.433517 0.168204 5.17257e-24)
(0.341932 0.135367 -5.9234e-21)
(0.24301 0.0981489 -6.75993e-24)
(0.143065 0.0589407 0)
(0.0461787 0.0195331 0)
(0.581996 0.212258 -4.74945e-24)
(0.558019 0.207805 -4.81723e-21)
(0.505028 0.191999 0)
(0.4293 0.166569 5.207e-21)
(0.338623 0.134056 0)
(0.240666 0.0972011 0)
(0.141692 0.0583746 0)
(0.0457267 0.0193415 -7.4986e-21)
(0.566733 0.20226 0)
(0.575522 0.20982 4.79488e-21)
(0.552226 0.205625 0)
(0.500016 0.190086 9.0321e-24)
(0.425112 0.164942 -1.45561e-23)
(0.33534 0.132755 0)
(0.238346 0.0962653 0)
(0.140319 0.0578078 0)
(0.0452857 0.0191531 6.92486e-24)
(0.519311 0.181248 5.39773e-24)
(0.55983 0.199692 -4.87499e-21)
(0.569174 0.207474 0)
(0.546538 0.203495 4.46339e-21)
(0.495046 0.188191 -9.04094e-24)
(0.42096 0.163327 3.79576e-25)
(0.332097 0.131471 0)
(0.236046 0.0953328 0)
(0.138959 0.0572464 0)
(0.044857 0.0189735 -6.95826e-24)
(0.444608 0.151661 2.98036e-24)
(0.512082 0.178587 -2.6437e-24)
(0.553071 0.197249 4.70289e-21)
(0.562982 0.205204 -4.37464e-21)
(0.54094 0.201397 4.30204e-21)
(0.490128 0.186312 0)
(0.416854 0.161728 9.21363e-24)
(0.328874 0.130191 0)
(0.23377 0.0944138 0)
(0.137637 0.0566992 -6.894e-21)
(0.0444248 0.0187939 0)
(0.35004 0.116651 -3.71947e-21)
(0.437077 0.148912 1.9668e-23)
(0.505046 0.176117 -5.00095e-21)
(0.546575 0.194922 1.79844e-23)
(0.556946 0.202982 -4.20187e-21)
(0.535418 0.199325 0)
(0.485265 0.184451 0)
(0.412773 0.160139 -4.25457e-24)
(0.325699 0.12893 0)
(0.231523 0.0934985 5.6066e-21)
(0.136316 0.0561569 6.63111e-21)
(0.0440001 0.0186143 0)
(0.244139 0.0794716 5.23593e-21)
(0.341989 0.113764 -3.52872e-24)
(0.429829 0.146454 -1.10907e-24)
(0.498457 0.173815 0)
(0.540335 0.192667 0)
(0.551038 0.200808 -1.62432e-23)
(0.529974 0.197281 3.98783e-21)
(0.480443 0.18261 0)
(0.408745 0.158568 4.25899e-24)
(0.322536 0.127671 0)
(0.2293 0.0926029 -5.38689e-21)
(0.135027 0.0556249 3.05792e-24)
(0.0435803 0.0184352 0)
(0.234428 0.0761639 -2.0767e-21)
(0.159207 0.0510214 1.80645e-21)
(0.163355 0.0524252 -1.82283e-21)
(0.334474 0.111289 0)
(0.423398 0.144259 5.49296e-21)
(0.492303 0.171633 -4.75682e-21)
(0.534323 0.190497 0)
(0.545253 0.198678 -3.90751e-21)
(0.524605 0.19527 7.31978e-24)
(0.475687 0.180792 3.88599e-21)
(0.404755 0.157016 0)
(0.319439 0.126444 0)
(0.22712 0.0917181 -1.07068e-25)
(0.133748 0.0550963 -3.06308e-24)
(0.0431683 0.0182588 0)
(0.226188 0.0734659 9.20718e-22)
(0.146324 0.0470246 1.76507e-21)
(0.152915 0.0485604 1.80116e-21)
(0.104616 0.0332415 -1.60642e-21)
(0.108306 0.0343451 4.05022e-22)
(0.328474 0.109243 -6.40611e-21)
(0.417672 0.142265 5.29041e-21)
(0.486512 0.169582 -1.74647e-23)
(0.528503 0.188397 0)
(0.539591 0.196598 -7.53674e-24)
(0.519321 0.193289 -3.6796e-21)
(0.471002 0.179003 0)
(0.400835 0.155487 1.88447e-24)
(0.316384 0.125227 2.07001e-24)
(0.22498 0.0908515 -2.46666e-24)
(0.132491 0.0545742 0)
(0.0427851 0.0180958 0)
(0.221153 0.0716257 2.06084e-21)
(0.139134 0.044443 -3.41034e-21)
(0.141709 0.04532 0)
(0.0878394 0.0280472 -4.06981e-22)
(0.0970405 0.0302399 0)
(0.0630549 0.0198901 3.23007e-23)
(0.0653106 0.0206941 5.36141e-22)
(0.0666667 0.0209962 -5.6187e-22)
(0.323603 0.10757 2.50204e-23)
(0.412483 0.140463 -7.38853e-25)
(0.481009 0.167641 6.55016e-25)
(0.522864 0.186368 0)
(0.534045 0.19456 0)
(0.514125 0.191343 0)
(0.46639 0.177239 0)
(0.396973 0.15398 -1.88662e-24)
(0.313399 0.12404 4.13725e-21)
(0.222886 0.0899984 -2.26346e-24)
(0.131298 0.0540766 5.61561e-21)
(0.0423918 0.0179308 0)
(0.217733 0.0704753 -1.92499e-21)
(0.136203 0.0433496 3.29891e-21)
(0.13732 0.0436592 -6.62937e-21)
(0.0817789 0.0257138 1.9297e-21)
(0.0834911 0.0264026 -3.98927e-22)
(0.0420285 0.013488 5.24421e-22)
(0.0454333 0.0144186 1.79012e-23)
(0.0591846 0.0185504 -1.74105e-23)
(0.052416 0.0155311 3.24656e-22)
(0.0364589 0.0115063 -5.0615e-22)
(0.0381543 0.0120086 7.62463e-24)
(0.0389618 0.0121919 7.85373e-24)
(0.319401 0.106152 0)
(0.407669 0.138805 -5.07369e-21)
(0.475753 0.165788 1.69149e-23)
(0.517378 0.184395 0)
(0.528612 0.192567 3.34999e-24)
(0.509024 0.189431 3.4087e-21)
(0.461845 0.175503 -3.4416e-21)
(0.393197 0.152507 -1.3992e-23)
(0.310477 0.122874 0)
(0.220857 0.0891681 -4.55399e-21)
(0.130116 0.0535866 5.38122e-21)
(0.0420178 0.0177735 0)
(0.214963 0.0696171 1.81143e-21)
(0.134393 0.0428107 3.16125e-21)
(0.13515 0.04296 3.24966e-21)
(0.08022 0.0251786 -2.96093e-21)
(0.080823 0.0253747 3.7886e-21)
(0.0388636 0.0121235 4.07122e-24)
(0.0390791 0.0121825 -1.57946e-21)
(0.0402206 0.0126433 5.72927e-22)
(0.0393979 0.0123656 -2.50954e-23)
(0.0138935 0.00452788 -3.6257e-22)
(0.0154159 0.00507163 0)
(0.0337757 0.0102164 -4.57644e-22)
(0.0230638 0.00552742 -2.38643e-22)
(0.0116696 0.00374237 3.56971e-22)
(0.012325 0.00384686 0)
(0.0125655 0.00390777 0)
(0.315623 0.104891 5.86224e-21)
(0.403125 0.137243 4.87436e-21)
(0.470679 0.164009 7.83966e-24)
(0.512039 0.182479 3.6647e-21)
(0.523289 0.190614 -3.35397e-21)
(0.504003 0.187554 3.25804e-21)
(0.457407 0.173805 -3.29925e-21)
(0.389509 0.151065 3.47125e-21)
(0.307637 0.121735 0)
(0.218885 0.0883637 -4.36317e-21)
(0.128981 0.0531131 0)
(0.0416516 0.0176205 0)
(0.212514 0.0688517 1.77938e-21)
(0.132903 0.042374 2.93206e-23)
(0.133523 0.0424961 0)
(0.0792952 0.0249142 -7.35643e-22)
(0.0797324 0.0250309 -2.92398e-21)
(0.0384169 0.0119763 3.94558e-24)
(0.0384594 0.0119762 -7.92574e-24)
(0.038678 0.0120436 -1.03319e-21)
(0.0385753 0.0120376 3.9828e-24)
(0.0124121 0.0038498 -6.95884e-22)
(0.0124773 0.00387468 -1.75014e-24)
(0.0129212 0.00406763 -3.85985e-22)
(0.0125837 0.00392855 0)
(0.0109344 0.00354527 2.25129e-22)
(0.00640888 0.0014831 4.78262e-23)
(0.312101 0.103721 -1.14676e-20)
(0.398802 0.135768 9.26278e-24)
(0.465773 0.162286 -3.9116e-21)
(0.506819 0.180606 -3.5257e-21)
(0.518068 0.188704 1.54507e-24)
(0.499095 0.185713 -1.55928e-24)
(0.453061 0.172139 -6.32632e-21)
(0.385916 0.149654 -3.32229e-21)
(0.30488 0.120628 0)
(0.21697 0.0875766 0)
(0.127879 0.0526568 -2.35272e-24)
(0.0412834 0.0174645 4.84924e-21)
(0.210232 0.0681317 1.00706e-20)
(0.131514 0.0419468 2.87214e-24)
(0.132115 0.0420757 -2.99179e-21)
(0.078479 0.0246763 -2.77835e-21)
(0.0788721 0.0247913 9.78262e-26)
(0.0380669 0.0118816 -9.70179e-22)
(0.0381232 0.011874 9.71639e-22)
(0.0382891 0.0119177 0)
(0.0382102 0.0119234 -9.89751e-22)
(0.0122967 0.00381346 6.70267e-22)
(0.0123001 0.0038177 -6.7464e-22)
(0.012361 0.0038345 -6.86742e-22)
(0.0123307 0.00383075 -6.81151e-22)
(0.308791 0.102624 -1.10205e-23)
(0.394635 0.13434 0)
(0.460988 0.160611 3.75589e-21)
(0.501715 0.178779 -3.38728e-21)
(0.512954 0.186826 -1.54647e-24)
(0.494284 0.183909 2.99243e-21)
(0.448827 0.170511 3.0245e-21)
(0.382415 0.148274 1.51826e-24)
(0.302197 0.119547 0)
(0.215123 0.0868209 0)
(0.126792 0.0522034 -4.71382e-21)
(0.0409522 0.0173188 -1.1355e-23)
(0.208067 0.0674308 -3.28984e-21)
(0.130171 0.041529 -2.85573e-21)
(0.130753 0.0416525 -2.89246e-21)
(0.0776842 0.0244358 2.62765e-24)
(0.0780805 0.0245551 2.71379e-24)
(0.0377015 0.0117715 0)
(0.0377797 0.0117724 -9.56013e-22)
(0.037942 0.0118255 0)
(0.0378787 0.0118246 3.71818e-24)
(0.0121823 0.00378319 8.02399e-25)
(0.0122111 0.0037852 6.55767e-22)
(0.0122575 0.00379789 -6.65033e-22)
(0.0122257 0.00379572 6.57104e-22)
(0.305581 0.101556 5.41341e-21)
(0.390584 0.132961 2.06479e-24)
(0.456326 0.15898 3.60692e-21)
(0.496702 0.17698 0)
(0.507935 0.184985 0)
(0.489585 0.182141 0)
(0.444701 0.168919 2.82587e-24)
(0.379027 0.146935 3.03473e-21)
(0.299619 0.118506 0)
(0.213327 0.0860811 -1.79684e-24)
(0.125742 0.0517603 -8.95243e-21)
(0.0406111 0.0171791 0)
(0.205942 0.0667488 -6.22953e-21)
(0.128882 0.041111 2.75509e-21)
(0.129447 0.0412369 2.78944e-21)
(0.0769071 0.0241979 -6.63666e-22)
(0.0772947 0.0243093 -2.63012e-24)
(0.0373394 0.0116611 0)
(0.0374133 0.0116634 0)
(0.0375725 0.0117115 -9.34799e-22)
(0.0375125 0.0117138 0)
(0.0120658 0.00374697 -6.3209e-22)
(0.0121016 0.00375098 1.27369e-21)
(0.0121606 0.00377362 -2.53124e-24)
(0.0121387 0.00376839 -6.40442e-22)
(0.30249 0.100533 0)
(0.386645 0.131614 -2.06821e-24)
(0.451746 0.157376 1.74641e-24)
(0.491784 0.175216 3.12068e-21)
(0.503015 0.183175 0)
(0.484994 0.180408 2.76142e-21)
(0.44069 0.167365 -2.76589e-21)
(0.375756 0.145634 0)
(0.297121 0.117491 1.50487e-24)
(0.211572 0.0853559 3.60643e-21)
(0.124725 0.0513405 2.13438e-24)
(0.0402665 0.0170357 -8.00593e-24)
(0.203915 0.0660899 1.5266e-21)
(0.12761 0.0407119 1.71255e-23)
(0.128176 0.0408342 2.70158e-21)
(0.076148 0.0239542 -2.45878e-24)
(0.0765162 0.0240658 -6.5258e-22)
(0.0369722 0.0115467 0)
(0.0370366 0.0115469 8.8437e-22)
(0.0372217 0.0116037 0)
(0.0371538 0.0115961 0)
(0.0119597 0.00371411 -6.14823e-22)
(0.011991 0.00371833 6.19448e-22)
(0.0120382 0.00373434 6.25397e-22)
(0.0120118 0.00373056 -6.22561e-22)
(0.299472 0.0995259 0)
(0.382777 0.130294 -4.04703e-21)
(0.44723 0.155794 -3.32754e-21)
(0.486938 0.173477 -4.1875e-24)
(0.498188 0.181394 3.07521e-23)
(0.480516 0.178708 0)
(0.436815 0.16585 -2.6445e-21)
(0.372591 0.144368 0)
(0.294685 0.116501 -2.93326e-24)
(0.209865 0.0846555 0)
(0.123713 0.0509215 4.02111e-21)
(0.0399462 0.0169006 7.99475e-21)
(0.20192 0.0654435 -1.47261e-21)
(0.126392 0.0403139 -2.5612e-21)
(0.126928 0.0404351 -2.6375e-21)
(0.0754137 0.0237281 -2.44116e-21)
(0.0757883 0.0238356 2.46168e-24)
(0.0366148 0.01143 0)
(0.0366829 0.0114363 3.37019e-24)
(0.0368403 0.0114855 8.69029e-22)
(0.0367643 0.0114841 -3.36737e-24)
(0.0118353 0.00367518 -5.96738e-22)
(0.0118579 0.00367763 6.01483e-22)
(0.0119305 0.00370131 -6.09263e-22)
(0.0118967 0.00369107 -6.05608e-22)
(0.296501 0.0985388 4.69263e-21)
(0.378952 0.128987 0)
(0.442779 0.154235 0)
(0.482156 0.171754 -2.81179e-21)
(0.493453 0.179638 5.21701e-24)
(0.476162 0.17704 2.49763e-21)
(0.433051 0.164369 1.25609e-24)
(0.369511 0.143134 0)
(0.292319 0.11554 1.42819e-24)
(0.208197 0.0839724 -3.24099e-21)
(0.122729 0.0505142 -3.21714e-23)
(0.039625 0.0167641 3.78135e-21)
(0.199954 0.0648065 0)
(0.125179 0.0399321 -2.72696e-23)
(0.125722 0.0400528 0)
(0.0746933 0.0234962 -1.19502e-21)
(0.0750494 0.0236 1.78761e-21)
(0.0362636 0.0113253 -8.28305e-22)
(0.0363233 0.0113236 3.22474e-24)
(0.0364761 0.0113712 0)
(0.0364171 0.0113696 0)
(0.0117194 0.0036374 -5.79451e-22)
(0.0117573 0.00364635 5.83559e-22)
(0.0118047 0.00366208 0)
(0.0117748 0.00365816 -5.8727e-22)
(0.293566 0.0975613 0)
(0.375169 0.127693 -7.03907e-24)
(0.438352 0.15268 0)
(0.477427 0.170043 0)
(0.488803 0.177896 0)
(0.471912 0.1754 1.25177e-24)
(0.429396 0.162927 -2.3956e-21)
(0.366521 0.141936 0)
(0.290001 0.114603 2.69097e-21)
(0.206562 0.0833041 -3.07635e-21)
(0.121756 0.0501073 -3.04847e-23)
(0.0392936 0.0166246 -6.79286e-24)
(0.198018 0.0641781 -1.37179e-21)
(0.123997 0.0395518 2.40441e-21)
(0.12452 0.039671 0)
(0.0739808 0.0232751 2.28439e-21)
(0.0743351 0.0233774 -9.01683e-24)
(0.0359153 0.0112131 7.92671e-22)
(0.03599 0.0112248 7.99693e-22)
(0.0361455 0.0112672 8.10614e-22)
(0.0360723 0.0112606 -3.13903e-24)
(0.0116044 0.00360433 -1.71209e-24)
(0.0116363 0.00360775 5.66282e-22)
(0.0116779 0.0036234 -5.73535e-22)
(0.0116588 0.003619 -5.6937e-22)
(0.290658 0.0965886 -8.40916e-24)
(0.371391 0.126399 7.04573e-24)
(0.433928 0.151121 -1.13669e-23)
(0.472724 0.168325 4.98912e-24)
(0.484235 0.176169 4.55705e-24)
(0.467777 0.17379 2.2659e-21)
(0.425837 0.161518 0)
(0.363596 0.140767 -5.53519e-24)
(0.287738 0.113688 0)
(0.204937 0.0826351 -2.90152e-21)
(0.120779 0.0496996 3.38571e-21)
(0.0389623 0.0164839 3.38359e-21)
(0.196101 0.0635519 -1.30968e-21)
(0.122835 0.0391806 2.2877e-21)
(0.123356 0.039302 0)
(0.073282 0.0230551 -2.19562e-21)
(0.0736446 0.0231609 0)
(0.0355807 0.0111103 -7.68641e-22)
(0.0356472 0.011115 0)
(0.0357833 0.0111536 0)
(0.035737 0.0111536 0)
(0.0114992 0.00357049 -1.05738e-24)
(0.0115302 0.00357919 -5.47343e-22)
(0.0115842 0.00359286 -5.56596e-22)
(0.0115552 0.00358529 0)
(0.287741 0.0956132 4.28911e-21)
(0.367564 0.125087 1.29786e-23)
(0.429457 0.149535 2.88885e-21)
(0.468041 0.166596 2.52569e-21)
(0.479737 0.174445 -4.54939e-24)
(0.463728 0.172209 2.04892e-24)
(0.422354 0.160145 -2.13699e-21)
(0.360731 0.139625 0)
(0.285481 0.112774 0)
(0.20331 0.0819649 -2.73937e-21)
(0.119797 0.0492882 -6.40132e-21)
(0.038639 0.016344 3.15963e-21)
(0.194193 0.0629288 -3.67152e-21)
(0.121678 0.0388085 4.41375e-21)
(0.122195 0.0389261 8.70182e-24)
(0.0726088 0.0228436 -5.30699e-22)
(0.072956 0.0229456 -8.39025e-24)
(0.0352458 0.0110044 -7.38487e-22)
(0.0353192 0.0110167 -2.8976e-24)
(0.0354711 0.0110541 0)
(0.035414 0.0110565 0)
(0.0113921 0.00353711 -3.63967e-24)
(0.0114157 0.00354154 -5.30261e-22)
(0.0114594 0.00355435 -5.37315e-22)
(0.0114416 0.00354979 5.35065e-22)
(0.284778 0.0946235 8.08772e-24)
(0.363639 0.123738 -3.2269e-21)
(0.424913 0.147903 -2.69075e-21)
(0.463341 0.164828 2.42595e-21)
(0.475297 0.172733 -1.02533e-24)
(0.459755 0.170663 -2.0456e-24)
(0.418938 0.158804 3.83144e-24)
(0.357886 0.138493 -7.95333e-24)
(0.283228 0.11186 0)
(0.201681 0.0812917 3.07771e-23)
(0.118811 0.0488709 1.13749e-23)
(0.0383018 0.0162009 3.00374e-21)
(0.192261 0.0622958 1.23284e-21)
(0.120547 0.0384449 -2.11037e-21)
(0.121063 0.0385665 -2.18093e-21)
(0.0719283 0.0226262 -2.039e-21)
(0.0722781 0.0227276 0)
(0.034924 0.0109055 0)
(0.0349916 0.0109149 7.11203e-22)
(0.0351293 0.0109482 7.33253e-22)
(0.0350812 0.0109536 2.81339e-24)
(0.0112907 0.00350417 -1.70175e-24)
(0.0113202 0.003515 -5.12831e-22)
(0.0113693 0.00352395 5.2458e-22)
(0.0113389 0.00352099 -5.1719e-22)
(0.281688 0.0935909 -1.49179e-23)
(0.359527 0.122309 -3.17825e-21)
(0.420217 0.146181 -2.58998e-21)
(0.458617 0.16303 -2.31271e-21)
(0.470908 0.171045 1.02362e-24)
(0.455854 0.169158 0)
(0.41556 0.157484 -1.10614e-23)
(0.355043 0.137359 7.95068e-24)
(0.280971 0.110942 2.14852e-21)
(0.200054 0.0806151 -9.04998e-24)
(0.117809 0.0484462 -7.66433e-25)
(0.0379604 0.0160592 -1.12699e-23)
(0.190252 0.0616379 1.17203e-21)
(0.119409 0.0380756 -3.94273e-24)
(0.119932 0.0382033 -2.05528e-21)
(0.0712782 0.0224229 5.89397e-24)
(0.0716207 0.0225225 1.9906e-21)
(0.034605 0.0108033 0)
(0.034663 0.0108059 -1.35664e-24)
(0.0348261 0.0108527 -2.73545e-24)
(0.034767 0.0108533 4.09478e-24)
(0.0111891 0.00347368 -4.93652e-22)
(0.0112095 0.00348068 0)
(0.011249 0.00348685 -5.03187e-22)
(0.011226 0.00348675 -5.00036e-22)
(0.278329 0.0924689 -9.54102e-23)
(0.3551 0.120747 0)
(0.41534 0.14435 5.03232e-21)
(0.453878 0.161227 0)
(0.466584 0.169409 7.27969e-24)
(0.452007 0.167685 0)
(0.412197 0.156168 1.4047e-23)
(0.352206 0.136224 0)
(0.278721 0.11002 -2.00954e-21)
(0.198399 0.0799234 9.05416e-24)
(0.116807 0.0480227 -2.0493e-23)
(0.0376062 0.0159115 2.58532e-21)
(0.188018 0.0609161 5.53444e-21)
(0.118247 0.037699 -1.95335e-21)
(0.118809 0.0378414 -2.00784e-21)
(0.0706258 0.0222137 3.22821e-24)
(0.0709555 0.0223133 4.92211e-22)
(0.034299 0.0107064 1.29358e-24)
(0.0343625 0.0107163 -1.2927e-24)
(0.0345085 0.0107587 0)
(0.0344478 0.0107542 0)
(0.0110758 0.00343738 4.76548e-22)
(0.0111106 0.00344601 -4.79196e-22)
(0.0111592 0.00345824 9.58834e-25)
(0.0111339 0.00345669 -4.84615e-22)
(0.274537 0.0911944 0)
(0.350224 0.11896 -5.83112e-21)
(0.410291 0.142442 1.19259e-24)
(0.449187 0.159492 7.62687e-24)
(0.46235 0.167826 -3.95462e-25)
(0.448209 0.166228 0)
(0.408852 0.154852 -1.71513e-21)
(0.349375 0.135083 1.74427e-21)
(0.276447 0.109085 7.55254e-24)
(0.196742 0.0792271 -7.8407e-24)
(0.115784 0.0475896 -2.40675e-21)
(0.037247 0.0157585 -4.45555e-24)
(0.185352 0.0600589 0)
(0.11693 0.0372763 1.90408e-21)
(0.11759 0.0374503 -1.89529e-21)
(0.0699653 0.0220056 0)
(0.0703156 0.0221071 1.38215e-21)
(0.0339926 0.0106118 -2.84396e-24)
(0.0340596 0.0106183 -6.35359e-22)
(0.0341934 0.0106597 -6.4817e-22)
(0.0341492 0.0106617 -1.25542e-24)
(0.0109905 0.00340949 4.60639e-22)
(0.0110118 0.00341725 -4.6316e-22)
(0.0110537 0.00342951 -4.71372e-22)
(0.01103 0.00342565 -4.67204e-22)
(0.269903 0.0895827 1.67775e-21)
(0.344849 0.116927 -2.84571e-21)
(0.405244 0.140624 0)
(0.444653 0.157844 -4.13434e-25)
(0.45822 0.166277 -1.3412e-23)
(0.444449 0.164777 1.60962e-21)
(0.405511 0.15353 6.41486e-24)
(0.346533 0.133933 1.63686e-21)
(0.274158 0.108136 0)
(0.195066 0.0785231 1.95282e-21)
(0.114741 0.0471451 2.22663e-21)
(0.0368946 0.0156083 1.26001e-23)
(0.181599 0.0588541 2.59553e-21)
(0.115197 0.0367352 -1.40382e-23)
(0.116156 0.0369994 1.8596e-21)
(0.0692588 0.0217816 -2.21329e-21)
(0.0696338 0.0218903 1.39168e-23)
(0.0336914 0.0105146 0)
(0.0337603 0.0105281 0)
(0.0338935 0.0105657 -1.23067e-24)
(0.0338381 0.0105614 6.19602e-22)
(0.0108811 0.00337672 4.41345e-22)
(0.0109168 0.00338518 -4.47833e-22)
(0.0109564 0.00339913 0)
(0.0109415 0.0033987 0)
(0.264064 0.0873931 3.31013e-21)
(0.339373 0.115017 -1.93111e-23)
(0.400483 0.138955 -2.12759e-21)
(0.440323 0.156259 -7.2283e-24)
(0.454184 0.164753 -1.64455e-21)
(0.440721 0.163333 -5.78697e-24)
(0.402173 0.152206 -1.48859e-21)
(0.343668 0.13277 -5.7316e-24)
(0.271863 0.107184 1.61389e-21)
(0.193376 0.0778089 -1.79125e-21)
(0.113709 0.0467023 -2.04216e-21)
(0.036525 0.015451 -8.15299e-24)
(0.174826 0.056444 1.55712e-23)
(0.111993 0.0357434 4.13336e-23)
(0.113869 0.0363577 -1.77671e-21)
(0.0683426 0.0215005 -1.16844e-23)
(0.0688773 0.0216437 -1.70092e-21)
(0.0334006 0.0104239 -5.16778e-24)
(0.0334515 0.0104305 1.16156e-24)
(0.0335844 0.0104695 0)
(0.0335353 0.0104675 -1.16155e-24)
(0.010795 0.00334778 0)
(0.0108243 0.0033589 -4.31581e-22)
(0.0108599 0.00336933 -4.37835e-22)
(0.010838 0.00336583 -4.35545e-22)
(0.257842 0.0853214 1.27958e-23)
(0.334454 0.113358 2.3814e-21)
(0.396128 0.137399 1.59386e-23)
(0.436186 0.154729 1.69603e-21)
(0.45023 0.163254 0)
(0.437026 0.161897 5.79081e-24)
(0.398843 0.15088 1.4111e-21)
(0.340814 0.131604 -1.406e-21)
(0.269558 0.106222 -5.56526e-24)
(0.191691 0.0770893 1.98191e-23)
(0.112657 0.0462449 1.8551e-21)
(0.0361428 0.0152891 0)
(0.16665 0.0539247 -5.12967e-22)
(0.103074 0.0325663 -1.37385e-23)
(0.108616 0.034645 -2.75986e-23)
(0.0664991 0.0209822 5.03075e-23)
(0.0676325 0.0213006 4.03521e-22)
(0.0330653 0.0103209 5.64023e-22)
(0.0331537 0.010336 -1.13699e-21)
(0.0333123 0.0103795 1.13937e-24)
(0.0332438 0.010367 0)
(0.0107028 0.00332064 8.27886e-22)
(0.0107272 0.0033284 -4.16921e-22)
(0.010755 0.00333675 -4.24146e-22)
(0.0107395 0.00333594 -4.20473e-22)
(0.252841 0.0836487 2.9822e-21)
(0.330272 0.111892 0)
(0.392099 0.135937 0)
(0.432207 0.153255 1.24307e-23)
(0.446356 0.161782 0)
(0.433371 0.160471 -2.70984e-21)
(0.395534 0.149554 0)
(0.337965 0.130432 1.31687e-21)
(0.267257 0.10525 1.36948e-21)
(0.189986 0.0763542 -1.49161e-21)
(0.111576 0.0457765 -1.65707e-21)
(0.0357591 0.0151285 -2.8658e-24)
(0.161827 0.0521487 -2.9778e-21)
(0.0931786 0.0298004 7.85324e-22)
(0.0967571 0.0308166 8.5362e-22)
(0.0570403 0.0176366 0)
(0.0642556 0.0202439 -2.48566e-22)
(0.0322882 0.0101123 0)
(0.0326171 0.0101824 4.28685e-24)
(0.0329288 0.0102705 -6.37722e-24)
(0.0327866 0.0102406 -4.29762e-24)
(0.0106067 0.00329147 -4.00573e-22)
(0.0106358 0.00329794 4.0157e-22)
(0.0106833 0.00331233 -4.09889e-22)
(0.0106569 0.00330514 -4.06895e-22)
(0.249148 0.0823468 -2.24706e-23)
(0.326625 0.11059 0)
(0.388331 0.134572 0)
(0.428372 0.151831 -1.24525e-23)
(0.442559 0.160333 1.35079e-21)
(0.429756 0.159052 3.38087e-25)
(0.392248 0.148226 2.74694e-23)
(0.335122 0.129251 0)
(0.264951 0.10427 1.23987e-21)
(0.188264 0.075611 2.65576e-21)
(0.1105 0.045309 0)
(0.0353605 0.0149601 4.09818e-24)
(0.159204 0.0511617 8.28753e-22)
(0.0904323 0.028593 -1.20701e-23)
(0.0913839 0.0289309 -7.56868e-22)
(0.0449347 0.0141895 -1.18674e-21)
(0.047983 0.0154939 2.43365e-22)
(0.0189368 0.00444057 0)
(0.027916 0.00829749 0)
(0.0317242 0.0100022 1.62575e-23)
(0.0305159 0.00946747 2.44195e-22)
(0.0103796 0.00322613 -3.85178e-22)
(0.0104943 0.00325184 3.89178e-22)
(0.010572 0.00327979 -2.52761e-24)
(0.0105323 0.00326937 -3.92356e-22)
(0.246192 0.081312 2.80499e-21)
(0.32333 0.109422 0)
(0.384776 0.133284 6.60804e-24)
(0.424656 0.150446 0)
(0.438837 0.158905 0)
(0.426188 0.157641 -1.15536e-21)
(0.388976 0.146895 -1.13572e-21)
(0.332291 0.128067 -1.08836e-21)
(0.262639 0.103279 -1.10959e-21)
(0.186549 0.0748617 1.17001e-21)
(0.109403 0.0448252 -1.26694e-21)
(0.0349511 0.014791 1.1478e-21)
(0.157371 0.0505801 -4.16952e-21)
(0.0892805 0.028209 -1.4855e-21)
(0.0897209 0.0283018 1.20639e-23)
(0.0437046 0.0136148 -3.57736e-22)
(0.0441251 0.0137691 0)
(0.0103373 0.00325395 3.79686e-22)
(0.0106077 0.0033497 -1.96739e-22)
(0.012698 0.0039836 -2.11503e-22)
(0.0112997 0.00375808 0)
(0.00523573 0.00117956 0)
(0.00905435 0.00290763 1.66057e-22)
(0.0101882 0.00319649 3.81332e-22)
(0.00972195 0.00311252 1.73728e-22)
(0.243643 0.0804424 0)
(0.320299 0.108355 2.08586e-21)
(0.381384 0.132052 -1.28926e-23)
(0.421053 0.149098 -1.42048e-21)
(0.435187 0.157495 -1.24452e-21)
(0.42266 0.156237 1.07095e-21)
(0.385746 0.145567 3.81768e-24)
(0.329473 0.126874 0)
(0.260342 0.102279 -9.78947e-22)
(0.18482 0.0740965 1.01975e-21)
(0.108279 0.0443312 -2.29817e-24)
(0.034531 0.0146141 0)
(0.155819 0.0501162 8.20212e-22)
(0.0884577 0.0279917 1.41546e-21)
(0.088795 0.0280475 1.14276e-23)
(0.0432546 0.0134804 0)
(0.0434512 0.0135381 3.5223e-22)
(0.0102141 0.00317476 -7.13784e-25)
(0.0102251 0.00316732 -3.69318e-22)
(0.0102969 0.00320053 3.79473e-22)
(0.0102538 0.00318755 0)
(0.241361 0.0796715 -2.45e-21)
(0.317457 0.107354 0)
(0.378132 0.130868 1.53355e-21)
(0.417547 0.147777 1.2764e-21)
(0.431605 0.156101 1.16751e-21)
(0.419189 0.154837 7.90318e-24)
(0.382539 0.144232 -3.81713e-24)
(0.326674 0.125672 9.03981e-22)
(0.258037 0.101266 8.72817e-22)
(0.183061 0.0733153 -7.55274e-25)
(0.107145 0.0438272 -8.64795e-22)
(0.0341035 0.0144326 0)
(0.154443 0.0496875 -7.98684e-22)
(0.087712 0.027781 -1.36096e-21)
(0.0880342 0.0278408 0)
(0.0429218 0.0133879 1.29778e-24)
(0.0430878 0.0134394 -3.44559e-22)
(0.0101597 0.00315592 -3.4713e-22)
(0.0101683 0.00315079 -3.50926e-22)
(0.0101986 0.00316028 -3.56381e-22)
(0.0101906 0.00316713 -3.55129e-22)
(0.239246 0.0789551 -1.87577e-23)
(0.314756 0.1064 0)
(0.374991 0.129718 -5.62353e-24)
(0.414128 0.14648 -1.19233e-21)
(0.428093 0.154719 0)
(0.41576 0.15344 -7.27066e-24)
(0.379366 0.142894 -1.69189e-21)
(0.323888 0.124461 -7.65788e-22)
(0.25573 0.100241 0)
(0.181292 0.0725198 6.95209e-22)
(0.105982 0.0433059 0)
(0.0336568 0.0142452 0)
(0.153159 0.0492744 -7.50578e-22)
(0.0870171 0.0275613 0)
(0.0873032 0.0276227 2.67529e-21)
(0.0425841 0.0132973 2.54471e-24)
(0.0427663 0.0133481 -3.83817e-24)
(0.0101002 0.00313523 -6.55502e-25)
(0.010115 0.00313297 -3.36622e-22)
(0.0101395 0.00314349 6.73819e-25)
(0.0101387 0.00314966 -6.5067e-25)
(0.237242 0.0782749 9.15675e-24)
(0.312165 0.105482 -1.79156e-21)
(0.371949 0.128597 3.09825e-25)
(0.410796 0.145202 1.1915e-21)
(0.424645 0.153345 0)
(0.412385 0.152045 8.26754e-22)
(0.376229 0.14155 0)
(0.321116 0.123238 1.41343e-24)
(0.253418 0.0991966 0)
(0.179504 0.0717055 0)
(0.104797 0.04277 -4.3805e-22)
(0.0331895 0.0140517 0)
(0.151919 0.0488739 -1.44466e-21)
(0.0863185 0.027338 1.24606e-21)
(0.086618 0.0274031 -4.94108e-24)
(0.0422502 0.0131916 4.87387e-24)
(0.0424174 0.0132453 -1.25286e-21)
(0.010025 0.00311651 -3.18907e-22)
(0.0100415 0.00311413 -3.24645e-22)
(0.0100771 0.00312344 -3.30152e-22)
(0.0100727 0.00313014 0)
(0.235334 0.0776241 -1.06741e-22)
(0.30968 0.104595 -1.713e-21)
(0.368992 0.127495 -1.27595e-21)
(0.407543 0.14394 -1.12715e-21)
(0.421266 0.151979 -1.70432e-24)
(0.409055 0.150644 -1.4323e-24)
(0.373116 0.140194 0)
(0.31835 0.121996 0)
(0.251092 0.0981303 -1.92489e-25)
(0.177685 0.0708675 3.51571e-22)
(0.103572 0.0422165 -2.12613e-22)
(0.0327085 0.0138508 -9.23861e-26)
(0.150737 0.0484842 1.94086e-21)
(0.0856629 0.027131 1.18191e-21)
(0.085944 0.0271908 2.43692e-21)
(0.0419161 0.0130832 2.98783e-22)
(0.042088 0.0131383 0)
(0.0099442 0.00309063 -3.08444e-22)
(0.00995902 0.00308783 6.0363e-25)
(0.00999772 0.0031007 -3.16962e-22)
(0.0099914 0.00310519 -3.14266e-22)
(0.233507 0.0769947 -1.05471e-22)
(0.307264 0.103725 -1.62112e-21)
(0.366129 0.126417 1.20427e-21)
(0.404366 0.142687 2.04674e-24)
(0.417949 0.150614 1.70429e-24)
(0.405776 0.149241 1.43241e-24)
(0.370032 0.138827 0)
(0.315595 0.120737 0)
(0.248746 0.0970394 1.92623e-25)
(0.175843 0.0700096 3.64912e-22)
(0.102312 0.0416421 0)
(0.0322094 0.0136451 3.25743e-22)
(0.149607 0.0481085 2.52182e-21)
(0.0850204 0.0269236 1.12597e-21)
(0.0852985 0.0269843 1.1499e-24)
(0.0416097 0.0129931 0)
(0.0417609 0.013036 -1.14254e-21)
(0.0098761 0.00306511 -2.95111e-22)
(0.00988989 0.00306499 -5.85353e-25)
(0.0099183 0.0030754 -3.04149e-22)
(0.00991098 0.00307995 -2.99927e-22)
(0.231733 0.0763818 1.90934e-21)
(0.304936 0.102879 0)
(0.363345 0.12535 -1.22001e-21)
(0.401263 0.14144 0)
(0.414694 0.149249 0)
(0.402541 0.14783 0)
(0.366972 0.137442 -5.23388e-22)
(0.31284 0.119454 3.79236e-22)
(0.246389 0.0959227 -1.62879e-22)
(0.173951 0.0691196 1.29617e-23)
(0.101018 0.0410528 -1.9998e-25)
(0.031686 0.0134337 2.28856e-25)
(0.148506 0.0477456 -6.24157e-22)
(0.0844149 0.0267222 1.07263e-21)
(0.084675 0.0267834 -2.21039e-21)
(0.0412964 0.0128948 0)
(0.0414551 0.0129412 0)
(0.00980604 0.00304692 0)
(0.00981219 0.00304323 -2.84827e-22)
(0.00984032 0.00304959 -2.90915e-22)
(0.00983579 0.00305647 -2.88868e-22)
(0.230028 0.0757882 1.91154e-21)
(0.302678 0.102044 1.37121e-21)
(0.360633 0.124289 -2.10993e-24)
(0.398228 0.140195 -1.66376e-24)
(0.411501 0.147882 0)
(0.399351 0.146407 4.94998e-22)
(0.363942 0.136038 -7.79632e-22)
(0.310076 0.118138 0)
(0.243998 0.0947724 -1.08607e-23)
(0.17202 0.068202 0)
(0.0996667 0.0404444 5.31948e-25)
(0.0311531 0.0132242 2.07459e-24)
(0.147451 0.0473977 -2.85061e-21)
(0.0838055 0.026531 1.01692e-21)
(0.0840674 0.0265876 4.07015e-24)
(0.0410091 0.0127985 0)
(0.0411621 0.0128486 1.04009e-21)
(0.00972786 0.00302319 -1.05438e-24)
(0.00973586 0.00301935 -2.72528e-22)
(0.00977324 0.00302991 -2.79309e-22)
(0.00975905 0.00303316 -2.75904e-22)
(0.22838 0.0752101 0)
(0.300497 0.10122 0)
(0.357998 0.123234 1.6122e-24)
(0.395269 0.138956 -8.673e-22)
(0.408369 0.14651 0)
(0.396208 0.144968 4.11448e-22)
(0.360923 0.134606 0)
(0.307302 0.11679 -1.73338e-26)
(0.241563 0.0935847 0)
(0.170035 0.0672553 3.80601e-22)
(0.0982594 0.0398279 -3.32365e-25)
(0.0306208 0.0130085 1.21591e-21)
(0.146427 0.0470685 5.61006e-22)
(0.0832295 0.0263465 9.71518e-22)
(0.083477 0.026401 0)
(0.040718 0.0127116 3.87696e-24)
(0.04087 0.0127562 -3.87153e-24)
(0.00966221 0.00300048 -1.01655e-24)
(0.00967471 0.00299785 -2.60576e-22)
(0.00970324 0.00300903 -2.66346e-22)
(0.00969934 0.00301308 -2.63777e-22)
(0.2268 0.0746411 -1.74041e-21)
(0.298388 0.100394 0)
(0.355432 0.122182 9.34047e-22)
(0.392381 0.137719 0)
(0.405299 0.145128 0)
(0.393103 0.143508 -4.46547e-22)
(0.357915 0.133143 -6.7735e-26)
(0.304519 0.115409 1.73407e-26)
(0.239095 0.0923608 -5.55717e-22)
(0.167975 0.0662743 -5.93244e-22)
(0.0967906 0.0392299 0)
(0.0302335 0.0127107 -1.55821e-21)
(0.145439 0.0467657 2.06219e-21)
(0.0826461 0.0261811 -9.23855e-22)
(0.0828989 0.0262249 -9.44011e-25)
(0.0404382 0.0126239 0)
(0.0405824 0.0126672 0)
(0.00959013 0.00298035 -2.46539e-22)
(0.00960405 0.00297773 -2.4929e-22)
(0.00963618 0.00298744 0)
(0.00963286 0.00299244 -2.52549e-22)
(0.225297 0.0740582 7.75028e-25)
(0.296336 0.0995688 0)
(0.35295 0.121147 -9.74575e-22)
(0.389568 0.136478 0)
(0.402292 0.143732 4.39704e-22)
(0.390036 0.142021 -1.28572e-25)
(0.354925 0.131645 6.77549e-26)
(0.30171 0.113982 1.16979e-22)
(0.236559 0.0910942 4.95829e-22)
(0.16587 0.0652848 0)
(0.0952209 0.0385767 0)
(0.0306235 0.0124495 0)
(0.144619 0.0463229 -1.01234e-24)
(0.0821062 0.0261054 3.51119e-24)
(0.0823238 0.0260906 -9.22202e-22)
(0.0401537 0.012539 0)
(0.0402973 0.0125802 0)
(0.00952745 0.0029594 -2.3577e-22)
(0.0095408 0.00295886 -2.38254e-22)
(0.00956792 0.00296701 0)
(0.00956138 0.00297085 -2.40915e-22)
(0.223812 0.0734764 -7.74377e-25)
(0.294362 0.0987689 1.09448e-21)
(0.350543 0.120112 0)
(0.386833 0.13523 0)
(0.399345 0.142315 -5.09296e-22)
(0.387005 0.140502 1.28533e-25)
(0.351934 0.130104 1.71916e-23)
(0.298859 0.11251 -1.12648e-25)
(0.234012 0.0897906 0)
(0.163443 0.0642362 0)
(0.0952632 0.0378552 0)
(0.0265027 0.010085 0)
(0.143684 0.0459981 0)
(0.0818383 0.0257106 0)
(0.0818924 0.0260753 8.70995e-22)
(0.0397896 0.0124946 0)
(0.0399927 0.0125086 8.57884e-22)
(0.00946786 0.002938 0)
(0.00947459 0.00293654 -2.27801e-22)
(0.00949847 0.00294519 -2.33177e-22)
(0.00949359 0.002949 4.52156e-25)
(0.222394 0.0729192 0)
(0.292465 0.0979806 0)
(0.348226 0.11908 0)
(0.384175 0.133969 -1.38252e-22)
(0.396456 0.140873 -3.34819e-25)
(0.384009 0.138945 6.09871e-23)
(0.348932 0.128518 0)