/*--------------------------------*- C++ -*----------------------------------*\
| =========                 |                                                 |
| \\      /  F ield         | OpenFOAM: The Open Source CFD Toolbox           |
|  \\    /   O peration     | Version:  v1912                                 |
|   \\  /    A nd           | Website:  www.openfoam.com                      |
|    \\/     M anipulation  |                                                 |
\*---------------------------------------------------------------------------*/
FoamFile
{
    version     2.0;
    format      ascii;
    class       volScalarField;
    location    "190";
    object      p;
}
// * * * * * * * * * * * * * * * * * * * * * * * * * * * * * * * * * * * * * //

dimensions      [0 2 -2 0 0 0 0];


internalField   nonuniform List<scalar> 
3675
(
0.00181909
0.00206974
0.00164404
0.00188838
0.00149207
0.00213238
0.00172671
0.00134815
0.00234516
0.00196361
0.0015772
0.00121622
0.00253404
0.00217378
0.00180635
0.00143906
0.0010973
0.00268825
0.00236353
0.00201078
0.00166721
0.00131584
0.000982873
0.00279617
0.00251859
0.00219929
0.00187016
0.00153637
0.00119601
0.00087919
0.00284296
0.00262803
0.00235748
0.00205164
0.00173042
0.00140973
0.00108746
0.000784079
0.00282165
0.00268073
0.00247279
0.00220703
0.00191075
0.00160255
0.00129848
0.000989127
0.000693671
0.00273409
0.00267138
0.0025388
0.00232868
0.00206539
0.00177939
0.00148684
0.00119389
0.000892159
0.000614949
0.00259032
0.00259242
0.00254899
0.0024044
0.00218224
0.00192883
0.00165718
0.00137716
0.00109548
0.000809586
0.000540399
0.00241069
0.00244482
0.00250042
0.00243219
0.00225902
0.00204398
0.00180229
0.00154515
0.00127632
0.00100657
0.000730905
0.000473567
0.00224839
0.00221964
0.00239843
0.00241828
0.00229191
0.00211418
0.00191018
0.00168284
0.00143643
0.00117891
0.000924982
0.000659066
0.000407133
0.00217568
0.00192216
0.00224061
0.00236921
0.00228006
0.00213573
0.00197417
0.00178483
0.00157245
0.00133858
0.00109801
0.000848537
0.000591456
0.000351991
0.00219745
0.00165038
0.00194071
0.0019894
0.00230205
0.00222931
0.00211052
0.00198904
0.00184394
0.00167402
0.00147085
0.00125018
0.00101302
0.000775986
0.000532074
0.000301854
0.00221055
0.00207945
0.0018208
0.0016608
0.00135127
0.00195499
0.00221265
0.0021455
0.00203635
0.00195258
0.00185379
0.00172786
0.00156298
0.00137312
0.00116148
0.000939335
0.000712579
0.000476587
0.00025903
0.00213844
0.00202757
0.00189907
0.00186715
0.00136581
0.00204813
0.0018104
0.0012843
0.00178453
0.00193313
0.00203986
0.00191795
0.00186974
0.00181401
0.00173237
0.00161261
0.00146266
0.00128388
0.00108495
0.000871749
0.000655059
0.000430868
0.000221586
0.00200385
0.00212693
0.00194826
0.00185909
0.00189539
0.00170588
0.000912524
0.00184398
0.00187444
0.00179188
0.00177391
0.00110456
0.0017842
0.00175917
0.00183258
0.00176946
0.0017477
0.00173063
0.001688
0.00161459
0.00150859
0.00137025
0.00120157
0.00101126
0.000811446
0.000604264
0.000389443
0.000190289
0.0019671
0.00205868
0.00188371
0.00182683
0.00177922
0.00179602
0.000266911
0.0014045
0.00179775
0.00162116
0.00160443
0.00161132
0.00162588
0.00180065
0.00172214
0.00250814
0.00199583
0.00169792
0.00177234
0.00159227
0.00160901
0.00160052
0.00156841
0.00150585
0.00141194
0.00128166
0.00112483
0.000947195
0.00075094
0.00055977
0.000354636
0.000166441
0.00193676
0.00200556
0.00166428
0.00169289
-0.00104499
0.00283735
0.00162381
0.00162348
0.00151728
0.00145839
0.00142709
0.0014353
0.0014742
0.00151353
0.00149616
0.00172724
0.00203095
0.0022372
0.00165051
0.00145761
0.00147753
0.00147773
0.00145529
0.0014066
0.00131972
0.00119992
0.00105128
0.000880828
0.000707178
0.000520961
0.000327164
0.00014728
-0.00355159
0.00156989
0.00152362
0.00143931
0.00143998
0.0013828
0.00131436
0.00129075
0.00127716
0.00132532
0.00138988
0.00139495
0.00144903
0.00147277
0.00132796
0.00135102
0.00136503
0.00135589
0.00131235
0.00123439
0.00112249
0.000983374
0.000832431
0.0006621
0.000488444
0.000304148
0.000136542
0.00140175
0.00139282
0.00132367
0.00130496
0.00123393
0.00117818
0.00115988
0.00113834
0.00117522
0.0012396
0.00126175
0.00133526
0.00136996
0.00120421
0.00124323
0.00126479
0.00126072
0.00122429
0.0011527
0.00104996
0.000926807
0.000782373
0.000628053
0.000465349
0.000291196
0.000127672
0.00128539
0.00126428
0.00118039
0.0011532
0.0010958
0.00104746
0.00103961
0.00100723
0.00103939
0.0010889
0.00111665
0.00118721
0.00123402
0.00109769
0.00114021
0.00116759
0.00117147
0.00113946
0.00107437
0.000983895
0.000871691
0.000743849
0.000598262
0.000446281
0.000280488
0.000131401
0.00113969
0.00111301
0.00103836
0.00101
0.000962355
0.000930365
0.00093339
0.000885559
0.00091101
0.000951461
0.0009781
0.0010373
0.00108484
0.000991208
0.00104523
0.00107964
0.00108302
0.00105709
0.00100086
0.000920672
0.000823399
0.000705554
0.000574841
0.000432983
0.000276831
0.000137358
0.000994403
0.000971942
0.000905179
0.000878283
0.000842158
0.000820263
0.000828903
0.000779873
0.000794113
0.000823937
0.000849922
0.000899917
0.000941586
0.000898562
0.000957083
0.0009921
0.00100364
0.000979365
0.000930368
0.000864403
0.000781578
0.000681932
0.000560624
0.000425999
0.000283223
0.000153163
0.000860471
0.000840456
0.000784338
0.000756912
0.000730824
0.000716583
0.000736443
0.000677977
0.000687193
0.000707332
0.00073571
0.000773098
0.000812866
0.000808082
0.000871104
0.000913874
0.000919741
0.000900059
0.000864755
0.000817024
0.000751072
0.000661109
0.00055094
0.000428317
0.000293989
0.000164904
0.000738299
0.000719718
0.000671961
0.000646171
0.000628832
0.000623443
0.000646219
0.000585289
0.000587199
0.000602514
0.000626619
0.000654284
0.000700358
0.000727207
0.00079154
0.000827199
0.000836208
0.000824189
0.000804729
0.000776886
0.000726798
0.000648957
0.000546081
0.000433339
0.000300473
0.000189151
0.000628464
0.000607371
0.000567056
0.000550854
0.000534911
0.000536308
0.000564856
0.000497188
0.000495991
0.000505219
0.000525104
0.000550579
0.000591242
0.000646777
0.000711364
0.000748766
0.000751853
0.000751412
0.000754219
0.000747309
0.000710703
0.000638235
0.00054754
0.000440442
0.000324598
0.000217732
0.000525747
0.000511552
0.000472445
0.000457216
0.000448131
0.000456163
0.000486692
0.000414688
0.000410428
0.000416266
0.000433972
0.000458775
0.000484996
0.000573644
0.000636317
0.000656577
0.000664857
0.000686785
0.000718263
0.000727506
0.000697403
0.000636816
0.000550091
0.000461166
0.000348076
0.000252819
0.000429981
0.0004182
0.000384028
0.000372226
0.000367327
0.000384037
0.00041562
0.000333527
0.000331371
0.000332687
0.000349615
0.000370714
0.000394323
0.000499411
0.000546393
0.000559418
0.000581937
0.000638674
0.000697785
0.000714155
0.000687434
0.000634106
0.00056525
0.000476619
0.000382228
0.000294959
0.000341493
0.000333736
0.000304388
0.000290694
0.00029177
0.00031331
0.000342167
0.000258146
0.000254138
0.000255816
0.000273069
0.000287252
0.000310535
0.000422464
0.00045124
0.000455153
0.00051502
0.000617552
0.000685045
0.000699833
0.000680385
0.000637044
0.000575878
0.000507538
0.000418192
0.000340735
0.000263131
0.000251453
0.000227692
0.000219407
0.000222471
0.000244054
0.000276004
0.000185792
0.000179567
0.000181212
0.000194768
0.000211325
0.000235058
0.000339825
0.000326978
0.000357621
0.000490043
0.000612105
0.000673035
0.000686386
0.000672911
0.000642782
0.00059709
0.000538795
0.00046237
0.000399132
0.0001843
0.000190496
0.000155934
0.000149389
0.000153447
0.000176497
0.000205238
0.000110229
0.000108565
0.000109751
0.000124849
0.000136692
0.000151449
0.000223029
0.000193532
0.000316489
0.000498099
0.000611497
0.0006523
0.000666133
0.00066875
0.000654218
0.000625659
0.000580437
0.000515725
0.000465916
0.000112659
0.000120311
9.06079e-05
7.72128e-05
8.36569e-05
0.000109954
0.000125015
3.00349e-05
3.92453e-05
3.84474e-05
5.92274e-05
6.68571e-05
8.26378e-05
7.05576e-05
9.64004e-05
0.000347781
0.00052446
0.000587694
0.000619487
0.000648637
0.000666217
0.000672944
0.000657675
0.000628878
0.000577412
0.000543101
4.96313e-05
4.66538e-05
2.15038e-05
9.47229e-06
1.32075e-05
4.79963e-05
2.13631e-05
-5.95581e-05
-4.02307e-05
-3.1943e-05
-9.25328e-06
-3.89649e-06
1.97205e-05
-0.000146671
0.000150398
0.000425424
0.000503898
0.000540136
0.000586145
0.000631945
0.000672451
0.000695483
0.00070054
0.000681498
0.000651729
0.000631068
-1.99852e-05
-1.81652e-05
-4.61661e-05
-6.28011e-05
-5.53847e-05
-1.92572e-05
-0.000290281
-0.000151461
-0.000117298
-0.000109858
-7.96147e-05
-7.16493e-05
-4.8837e-05
-0.000142207
0.000327764
0.000409688
0.000435744
0.000488973
0.000554263
0.000621568
0.000679509
0.000723531
0.000741903
0.000756816
0.000734165
0.000731462
-8.80624e-05
-8.95345e-05
-0.000114243
-0.000142891
-0.000130096
-0.000134215
-0.000512371
-0.000477898
-0.000176959
-0.000196813
-0.000154356
-0.000145435
-0.000116778
0.000234224
0.000318576
0.000316973
0.000367206
0.000441238
0.000525454
0.000611896
0.000692039
0.000756784
0.00080839
0.00082664
0.000831163
0.000845203
-0.000161674
-0.000163823
-0.000195645
-0.00023822
-0.000113332
-0.0008201
0.000107242
-0.000379267
-0.000208053
-0.000301389
-0.000226362
-0.000230105
-0.00019437
0.000230419
0.000181649
0.000228109
0.000304021
0.000394728
0.000498502
0.000607515
0.000712542
0.000804415
0.000868212
0.000923166
0.0009355
0.000966525
-0.000240353
-0.000263236
-0.000223662
-0.000301366
-0.00143559
-3.13933e-05
9.53148e-05
-4.90216e-05
-0.000483738
-2.11347e-05
-9.79242e-05
-0.000339068
-0.000286052
3.91787e-05
7.78825e-05
0.000154626
0.000244879
0.000351743
0.000473114
0.000605039
0.000737159
0.000853417
0.000953739
0.00101353
0.00105633
0.00111396
-0.00032423
-0.000362641
0.00035665
-0.00228479
-1.94495e-05
-0.000176739
-0.000101432
-0.000148797
-0.000190941
-7.48612e-05
0.000542812
-0.000158326
-0.000294654
-7.62235e-05
5.11042e-06
8.91433e-05
0.000186753
0.000305243
0.000449167
0.00060778
0.000769097
0.000916951
0.00103648
0.00113359
0.00119492
0.0012744
6.74126e-05
-0.0045044
-0.000181657
-0.000220677
-0.000269517
-0.000238614
-0.000212875
-0.000230571
-0.000264305
-0.000302281
-0.000340695
-0.000142321
-6.38809e-05
1.8164e-05
0.000124153
0.000261659
0.000428902
0.000616986
0.000809629
0.000990514
0.0011387
0.00126375
0.00134796
0.00144976
-0.000330164
-0.000311075
-0.000292828
-0.000303822
-0.000280211
-0.000308046
-0.000315317
-0.000310321
-0.000324151
-0.000209162
-0.000139856
-5.2849e-05
6.49006e-05
0.000218338
0.000409458
0.000629069
0.000857415
0.00106818
0.00125871
0.00140594
0.00151904
0.00165019
-0.000328892
-0.000333424
-0.000357054
-0.000369877
-0.000349244
-0.000380992
-0.000387427
-0.000358795
-0.000360857
-0.000283979
-0.000215805
-0.000125734
-2.4149e-07
0.000172364
0.000393134
0.000648046
0.00091201
0.00116695
0.00138656
0.00157154
0.00171529
0.00186855
-0.000387248
-0.000402714
-0.000425719
-0.000434394
-0.000417874
-0.000454345
-0.000458086
-0.000440337
-0.000429743
-0.000362779
-0.000295827
-0.000202949
-6.78339e-05
0.000127752
0.000381031
0.000672406
0.000980249
0.00128059
0.00153471
0.00176012
0.0019234
0.00210465
-0.00046084
-0.000475075
-0.000495611
-0.000501258
-0.000494452
-0.000525706
-0.000525741
-0.000509993
-0.00050062
-0.000440122
-0.000377303
-0.00028569
-0.000136619
8.44748e-05
0.000371102
0.000707614
0.00106491
0.00139953
0.00170633
0.00195153
0.00216614
0.00236436
-0.000531199
-0.000545663
-0.000560874
-0.000573827
-0.000569129
-0.000599475
-0.00059538
-0.000582202
-0.000564513
-0.000523538
-0.000471118
-0.000376595
-0.000208272
4.00411e-05
0.000367633
0.000749518
0.00114889
0.00153694
0.00188253
0.0021888
0.00243326
0.00268681
-0.000599113
-0.000613207
-0.000631276
-0.000645171
-0.000648835
-0.00067688
-0.000667622
-0.00064788
-0.00063437
-0.00061849
-0.00057431
-0.00047225
-0.00028381
-7.8206e-07
0.000367763
0.000797918
0.00125094
0.00169627
0.00209484
0.00245235
0.00275291
0.00303665
-0.00066199
-0.000681024
-0.0007037
-0.000719884
-0.0007364
-0.000751642
-0.000741227
-0.000719374
-0.000703569
-0.00072512
-0.000685755
-0.000568506
-0.000355788
-3.91796e-05
0.000373491
0.000857404
0.00137483
0.0018676
0.0023398
0.00272905
0.00328814
0.00126782
-0.000738509
-0.000753995
-0.000777228
-0.000795502
-0.000838421
-0.000832878
-0.000812982
-0.000790575
-0.000776396
-0.00085008
-0.000806155
-0.000665082
-0.000428953
-7.86917e-05
0.00038346
0.000927867
0.00150028
0.00207995
0.00255759
0.0033351
0.00147879
-0.000810357
-0.000826198
-0.000852009
-0.000879226
-0.000965278
-0.000923124
-0.000888946
-0.000861473
-0.000847981
-0.000992876
-0.000914206
-0.000765492
-0.000509284
-0.000117745
0.000401095
0.00100456
0.00166149
0.00223776
0.00312148
0.00153856
-0.00088587
-0.000903193
-0.000923509
-0.000985507
-0.0011057
-0.00112588
-0.000954361
-0.000942773
-0.000922463
-0.00110801
-0.00102422
-0.000873749
-0.000590912
-0.000151766
0.000422521
0.00110727
0.00176
0.00272207
0.0013949
-0.000962191
-0.00098298
-0.000952763
-0.00143679
-0.00124309
-0.00115066
-0.000931773
-0.00102595
-0.00100281
-0.0012092
-0.00115047
-0.00099212
-0.000673019
-0.000186038
0.000463709
0.00115441
0.0021539
0.00112501
-0.00104802
-0.00107586
-0.00373061
-0.00213326
-0.00123285
-0.00133796
-0.00131971
-0.00156966
-0.00141398
-0.00114846
0.00137579
-0.00111133
-0.00134085
-0.0012954
-0.00111577
-0.000757644
-0.000207283
0.000461526
0.00144036
0.000770264
-0.00097258
-0.00137283
-0.00134805
-0.00136848
-0.00146311
-0.00142581
-0.00136346
-0.00136127
-0.00137287
-0.00138897
-0.000698158
-0.00149896
-0.00144949
-0.00124171
-0.000836569
-0.000253075
0.000629592
0.000360074
-0.00129013
-0.00138411
-0.0013854
-0.00138514
-0.00140469
-0.00148611
-0.0016195
-0.00155911
-0.0014385
-0.00146026
-0.00138469
-0.00139029
-0.0014548
-0.00144782
-0.00167219
-0.00160999
-0.00137033
-0.000919642
-0.000205298
-6.56694e-05
-0.00142363
-0.00141534
-0.00140469
-0.0014259
-0.00149647
-0.00152551
-0.0016289
-0.00179815
-0.00171342
-0.00156228
-0.00160084
-0.00145104
-0.00147988
-0.00140304
-0.00140832
-0.00185563
-0.00177903
-0.00148338
-0.000987669
-0.000472413
-0.00141642
-0.00144176
-0.00151291
-0.00154231
-0.00162932
-0.0016727
-0.00179128
-0.00199297
-0.00188967
-0.0017096
-0.00175428
-0.00158169
-0.0016145
-0.00146017
-0.00149281
-0.00205849
-0.00191938
-0.00165562
-0.000827005
-0.00152404
-0.00155626
-0.00164493
-0.00168791
-0.00178567
-0.00183402
-0.00197358
-0.00222046
-0.00208405
-0.00187834
-0.00192332
-0.00172564
-0.00176462
-0.00159175
-0.0016257
-0.00223691
-0.00217832
-0.00110797
-0.00165756
-0.00169669
-0.00180252
-0.00184327
-0.00196248
-0.00201555
-0.00218522
-0.00245163
-0.00231807
-0.00206663
-0.00211396
-0.00188953
-0.00193131
-0.00173573
-0.00177308
-0.00257131
-0.0013126
-0.00181086
-0.00184834
-0.00197666
-0.0020227
-0.00216444
-0.00222091
-0.00241589
-0.0029031
-0.00254509
-0.00228331
-0.00233966
-0.00207018
-0.00212002
-0.00190045
-0.00193741
-0.00145253
-0.00198189
-0.0020267
-0.00217164
-0.00222481
-0.00239428
-0.00245823
-0.00272303
-0.00167625
-0.00301909
-0.00251388
-0.00257728
-0.0022817
-0.00233718
-0.00207588
-0.00211878
-0.00217073
-0.00222424
-0.00239599
-0.00245473
-0.00265045
-0.00274164
-0.00319547
-0.00159135
-0.00286971
-0.00298117
-0.0025129
-0.00257721
-0.00228022
-0.00233365
-0.00238938
-0.00244518
-0.00265487
-0.00274406
-0.00310161
-0.00335142
-0.00330362
-0.00136569
-0.00284916
-0.00295204
-0.00250325
-0.00256185
-0.00263425
-0.00272228
-0.00306757
-0.00336576
-0.00362787
-0.00133863
-0.00282161
-0.00293415
-0.00305167
-0.00334507
-0.00392872
-0.00164353
-0.0204299
-0.0196267
-0.0204346
-0.0197699
-0.0192838
-0.0202849
-0.020609
-0.0193939
-0.0188946
-0.0201057
-0.02108
-0.0193589
-0.0210582
-0.0189904
-0.0184746
-0.0217889
-0.02043
-0.0184086
-0.0219033
-0.0185293
-0.0214999
-0.01859
-0.0180677
-0.023481
-0.0221329
-0.0207567
-0.0187632
-0.0167362
-0.0176974
-0.0227777
-0.0219495
-0.0181767
-0.0176748
-0.0251857
-0.0238641
-0.023649
-0.0224628
-0.0210612
-0.0190884
-0.0171022
-0.0151037
-0.0160559
-0.0168762
-0.0173542
-0.0177738
-0.0224194
-0.0228684
-0.0172545
-0.0268063
-0.0256071
-0.02452
-0.0253964
-0.0242012
-0.0232828
-0.0237034
-0.0227659
-0.021334
-0.0193883
-0.0174328
-0.0154638
-0.0134969
-0.0144333
-0.0152456
-0.0157128
-0.0161282
-0.0165296
-0.0169382
-0.0168199
-0.027377
-0.026256
-0.0271673
-0.0281855
-0.0280667
-0.0259565
-0.0241557
-0.024606
-0.0250253
-0.0254541
-0.0245004
-0.0230391
-0.0215718
-0.0196577
-0.0177334
-0.0157958
-0.0138537
-0.0119096
-0.01283
-0.0136327
-0.0140907
-0.0145004
-0.0148978
-0.015301
-0.015609
-0.0160249
-0.0164166
-0.0291982
-0.0277451
-0.0259046
-0.0263618
-0.0280361
-0.0268053
-0.0272565
-0.0291131
-0.0292316
-0.0262573
-0.0247738
-0.0232794
-0.0217648
-0.0198901
-0.0180014
-0.0160969
-0.0141843
-0.0122665
-0.0103395
-0.0112447
-0.0120385
-0.012489
-0.0128936
-0.0132864
-0.0136844
-0.0139864
-0.0143965
-0.0147836
-0.0151814
-0.0310431
-0.0295596
-0.0280449
-0.0277097
-0.0281692
-0.0284873
-0.0287769
-0.0292044
-0.0300375
-0.0302199
-0.0265361
-0.0250151
-0.0234784
-0.0218984
-0.0200756
-0.0182307
-0.0163647
-0.0144822
-0.0125968
-0.0107008
-0.00878515
-0.00967357
-0.0104602
-0.0109049
-0.0113052
-0.0116943
-0.0120872
-0.0123845
-0.0127899
-0.0131725
-0.0135654
-0.0329303
-0.0313911
-0.0311952
-0.0298624
-0.028327
-0.0285672
-0.0290626
-0.0296682
-0.0309913
-0.030138
-0.0267842
-0.0252159
-0.0236192
-0.0219567
-0.0202017
-0.0184132
-0.0165929
-0.0147464
-0.0128913
-0.0110313
-0.00915356
-0.00725135
-0.00811123
-0.00889285
-0.00933382
-0.00973067
-0.010117
-0.0105064
-0.0107999
-0.0112011
-0.0115813
-0.0119685
-0.0348661
-0.033282
-0.0321485
-0.0331148
-0.0317132
-0.0301513
-0.0285787
-0.0289928
-0.0295518
-0.0310812
-0.0319448
-0.0306045
-0.0300283
-0.0269884
-0.0253637
-0.0236809
-0.0219214
-0.020256
-0.0185346
-0.0167702
-0.0149675
-0.0131468
-0.0113199
-0.00948315
-0.00762137
-0.00574126
-0.00655159
-0.00732981
-0.00776886
-0.00816389
-0.00854915
-0.00893631
-0.00922715
-0.00962558
-0.0100035
-0.0103881
-0.0368151
-0.0352082
-0.0340803
-0.0350597
-0.0336077
-0.0329054
-0.0320094
-0.0304085
-0.0287902
-0.0294484
-0.0315633
-0.0309785
-0.0320463
-0.0305003
-0.0299119
-0.0271384
-0.0254318
-0.0236487
-0.0217802
-0.0202147
-0.0185789
-0.0168882
-0.0151392
-0.0133571
-0.0115625
-0.00976183
-0.00794496
-0.00609023
-0.00424814
-0.00504627
-0.00577079
-0.00619958
-0.00659539
-0.00698285
-0.00736937
-0.00765895
-0.0080563
-0.00843404
-0.00881712
-0.0388118
-0.0371564
-0.036029
-0.03702
-0.0355321
-0.0338681
-0.0348482
-0.0339037
-0.0329983
-0.0325155
-0.0322712
-0.0306252
-0.028942
-0.0314591
-0.0308588
-0.0319403
-0.0303878
-0.0272083
-0.0254027
-0.0235074
-0.021532
-0.0200717
-0.0185341
-0.0169296
-0.0152508
-0.0135185
-0.0117586
-0.00998773
-0.00821016
-0.00640251
-0.0045682
-0.00275108
-0.00354999
-0.00429275
-0.0046699
-0.00501515
-0.00539398
-0.00578523
-0.00607977
-0.00648283
-0.00686345
-0.00724908
-0.0408465
-0.0391576
-0.0380105
-0.0390263
-0.0374838
-0.0358377
-0.0368468
-0.035829
-0.0334835
-0.03397
-0.0349325
-0.0344436
-0.0341669
-0.0328958
-0.0324148
-0.0324879
-0.0307798
-0.0290178
-0.0313434
-0.0318195
-0.0271818
-0.0252626
-0.0232565
-0.0211877
-0.0198277
-0.0183933
-0.0168848
-0.0152891
-0.0136175
-0.0118997
-0.0101603
-0.00841248
-0.00664912
-0.0048525
-0.00303021
-0.00128235
-0.0021333
-0.00279339
-0.00316458
-0.00352412
-0.00389565
-0.00433232
-0.00441103
-0.00482754
-0.0052405
-0.00565267
-0.0429062
-0.0412051
-0.040034
-0.0410696
-0.0394836
-0.0378281
-0.0388132
-0.0377837
-0.0354229
-0.0359202
-0.0369573
-0.0364008
-0.0360918
-0.033379
-0.0338625
-0.0348202
-0.0343379
-0.0343853
-0.0327764
-0.0323019
-0.0326464
-0.0308564
-0.0289918
-0.0270423
-0.0250084
-0.0229065
-0.020769
-0.0194933
-0.0181549
-0.0167453
-0.0152443
-0.0136501
-0.0119846
-0.0102791
-0.00855477
-0.00682133
-0.00506297
-0.00325117
-0.00142116
-0.000220044
-0.000867676
-0.00143813
-0.00178912
-0.00211094
-0.00244647
-0.00278246
-0.00301336
-0.00335497
-0.00368553
-0.00433624
-0.0450085
-0.0432785
-0.0420922
-0.0431435
-0.0415305
-0.0398226
-0.0408504
-0.0397816
-0.0374089
-0.0378896
-0.0388939
-0.0383819
-0.0380487
-0.0352996
-0.0357756
-0.0369659
-0.0362385
-0.0363116
-0.0332647
-0.0337431
-0.0347021
-0.0342273
-0.0345447
-0.0327252
-0.0308322
-0.028853
-0.0267885
-0.0246536
-0.0224785
-0.0202982
-0.0190873
-0.0178292
-0.0165117
-0.0151084
-0.013604
-0.0120074
-0.0103468
-0.00864567
-0.00692743
-0.00518852
-0.00340181
-0.00150038
-0.000278973
9.83182e-06
-0.000343736
-0.0006319
-0.000879603
-0.00115798
-0.00144223
-0.00164654
-0.00197817
-0.00230756
-0.00264918
-0.00287479
-0.00321702
-0.00354949
-0.00438821
-0.0471572
-0.0453887
-0.0441875
-0.0452547
-0.0436124
-0.0418836
-0.0429286
-0.0418251
-0.0394143
-0.0399287
-0.0409444
-0.0404304
-0.0400455
-0.0372066
-0.037713
-0.0387625
-0.0382398
-0.0382694
-0.0351833
-0.0356428
-0.0369012
-0.0360829
-0.0364719
-0.0346244
-0.0327031
-0.0306945
-0.0285983
-0.0264308
-0.0242194
-0.0219965
-0.0197997
-0.0186317
-0.0174361
-0.0161952
-0.014884
-0.0134746
-0.0119605
-0.0103573
-0.00868659
-0.00698216
-0.00524381
-0.00347396
-0.00152515
-0.000309327
7.82324e-05
-2.97274e-05
-0.000203704
-0.000396991
-0.000519777
-0.000762384
-0.00102539
-0.00131557
-0.00149132
-0.00182542
-0.00216565
-0.00250954
-0.0493608
-0.0475436
-0.046322
-0.0474067
-0.0457286
-0.0439795
-0.0450414
-0.0439099
-0.0414683
-0.0419897
-0.0430211
-0.0424985
-0.0420866
-0.0392904
-0.0398033
-0.0408199
-0.0403104
-0.0402683
-0.0384346
-0.0365548
-0.0346044
-0.0325659
-0.0304408
-0.028239
-0.025992
-0.023729
-0.0214855
-0.0193017
-0.0181497
-0.0169957
-0.0158144
-0.0145812
-0.0132614
-0.0118368
-0.0103077
-0.00868409
-0.00699595
-0.00525164
-0.00348318
-0.0014976
-0.000319583
9.05859e-05
1.66382e-06
-0.000134402
-0.000304923
-0.000378583
-0.000612289
-0.000875436
-0.00116283
-0.0516086
-0.0497454
-0.0484995
-0.0496045
-0.0478882
-0.0461114
-0.0471911
-0.0460323
-0.0435545
-0.0440864
-0.0451363
-0.0446036
-0.0441741
-0.0413453
-0.0418628
-0.0428943
-0.0423778
-0.0423095
-0.0404335
-0.0385192
-0.0365393
-0.0344717
-0.0323134
-0.0300822
-0.0277985
-0.0254966
-0.023208
-0.0209741
-0.0188321
-0.0176689
-0.0165301
-0.015389
-0.0142176
-0.0129783
-0.0116451
-0.0101977
-0.00863764
-0.00698264
-0.00523903
-0.00346031
-0.00143579
-0.00030871
0.000106146
6.97944e-05
-3.05591e-05
-0.00017706
-0.0538571
-0.0519754
-0.0507211
-0.0518541
-0.0500899
-0.0482807
-0.0493789
-0.0481952
-0.04568
-0.0462217
-0.0472907
-0.046748
-0.0462998
-0.0434299
-0.0439579
-0.0450077
-0.0444809
-0.0443966
-0.042477
-0.0405241
-0.0385073
-0.0364094
-0.0342225
-0.0319565
-0.0296409
-0.0273003
-0.0249696
-0.0226861
-0.0204908
-0.0184262
-0.0172163
-0.0160671
-0.0149401
-0.0138111
-0.0126388
-0.0113874
-0.0100296
-0.00854717
-0.00694232
-0.00521707
-0.00343337
-0.0013726
-0.000282305
-0.0561952
-0.054231
-0.0529677
-0.0541166
-0.0523187
-0.0504872
-0.0516225
-0.0503975
-0.0478458
-0.0483982
-0.0494875
-0.0489347
-0.048466
-0.0455543
-0.046092
-0.0471619
-0.046625
-0.0465248
-0.0445633
-0.0425688
-0.0405174
-0.0383841
-0.0361657
-0.0338697
-0.0315183
-0.0291422
-0.0267697
-0.024441
-0.0221922
-0.0200721
-0.0181194
-0.0168274
-0.0156324
-0.0144935
-0.0133828
-0.0122593
-0.0110784
-0.0098036
-0.00840535
-0.00687344
-0.00519163
-0.00341714
-0.00133432
-0.00025822
-0.0585597
-0.0565712
-0.0552815
-0.0564626
-0.0545826
-0.0527702
-0.0539341
-0.0526302
-0.0500514
-0.0506115
-0.0517185
-0.0511578
-0.0506684
-0.04772
-0.0482682
-0.0493598
-0.0488125
-0.0486926
-0.0466927
-0.044657
-0.0425651
-0.0403984
-0.0381463
-0.0358177
-0.0334346
-0.0310216
-0.0286105
-0.0262367
-0.023939
-0.0217636
-0.0197535
-0.017934
-0.0165333
-0.0152586
-0.0140737
-0.0129566
-0.0118594
-0.0107333
-0.00953388
-0.00822337
-0.0067748
-0.00515943
-0.00342616
-0.00134768
-0.000260002
-0.0609686
-0.058955
-0.057636
-0.0588413
-0.0569183
-0.0550551
-0.0562159
-0.0549008
-0.0522773
-0.0528402
-0.0539323
-0.0535397
-0.0529036
-0.0499277
-0.0504848
-0.0515851
-0.0510352
-0.0508947
-0.0488626
-0.0467865
-0.0446576
-0.0424522
-0.0401667
-0.0378049
-0.0353881
-0.0329411
-0.0304911
-0.0280752
-0.0257289
-0.0235021
-0.0214366
-0.01956
-0.0178763
-0.0163557
-0.0149776
-0.013715
-0.012557
-0.0114592
-0.0103686
-0.00923064
-0.00800058
-0.00664334
-0.00511253
-0.00344581
-0.00141551
-0.000303994
-0.063442
-0.0613774
-0.0600362
-0.0612576
-0.0593055
-0.0574081
-0.0586038
-0.0572327
-0.0545318
-0.0551393
-0.0563235
-0.0557258
-0.0551784
-0.0521323
-0.0526398
-0.0534128
-0.0531351
-0.0510662
-0.0489598
-0.0467892
-0.0445487
-0.0422274
-0.0398328
-0.0373823
-0.0349
-0.0324131
-0.0299555
-0.027564
-0.0252851
-0.0231675
-0.0212361
-0.0194996
-0.0179341
-0.0163022
-0.0148105
-0.0134474
-0.0122143
-0.0110841
-0.0100027
-0.00890846
-0.0077489
-0.00648031
-0.00504477
-0.00347038
-0.00152213
-0.000390138
-0.0659762
-0.0638555
-0.0624804
-0.0637491
-0.0617402
-0.0598072
-0.0610045
-0.0596183
-0.0569411
-0.0575405
-0.058711
-0.0581166
-0.057512
-0.0554138
-0.0533107
-0.0511686
-0.0489663
-0.0466872
-0.0443305
-0.0419014
-0.0394177
-0.036901
-0.0343774
-0.0318795
-0.0294434
-0.0271163
-0.0249437
-0.0229615
-0.0211721
-0.0195591
-0.0180808
-0.0163597
-0.0147622
-0.0132897
-0.0119585
-0.0107616
-0.00965624
-0.00858276
-0.0074781
-0.00629191
-0.0049536
-0.00348691
-0.00164523
-0.000514452
-0.0685934
-0.066401
-0.0650071
-0.0662833
-0.0642272
-0.0621473
-0.0630635
-0.0638069
-0.0620598
-0.0593346
-0.0599422
-0.061132
-0.0605274
-0.0598981
-0.0577492
-0.0555988
-0.053417
-0.0511801
-0.0488692
-0.0464777
-0.0440136
-0.041496
-0.0389446
-0.036384
-0.033847
-0.0313665
-0.0289919
-0.0267698
-0.0247331
-0.0228949
-0.021233
-0.019711
-0.0182827
-0.0165024
-0.0148214
-0.0132484
-0.0118093
-0.0105208
-0.00935758
-0.00827092
-0.00720112
-0.00608403
-0.00483673
-0.00348236
-0.00175662
-0.000663122
-0.0712067
-0.0689983
-0.0675779
-0.0688978
-0.0667739
-0.0644826
-0.0651509
-0.0657795
-0.066419
-0.0645556
-0.061754
-0.0630391
-0.062406
-0.0636853
-0.0623435
-0.0601395
-0.0579372
-0.0557121
-0.0534385
-0.0510914
-0.0486667
-0.0461695
-0.0436179
-0.0410318
-0.0384351
-0.0358581
-0.0333354
-0.0309122
-0.0286398
-0.0265521
-0.0246629
-0.0229556
-0.0213909
-0.0199206
-0.0185033
-0.0166964
-0.0149624
-0.013311
-0.0117719
-0.0103789
-0.00913189
-0.00800188
-0.0069341
-0.00586573
-0.00469916
-0.00345639
-0.0018415
-0.000827842
-0.0739208
-0.0716093
-0.0702011
-0.071523
-0.069366
-0.0670755
-0.0677349
-0.0683794
-0.0690287
-0.0671054
-0.0643651
-0.0650293
-0.065649
-0.0662857
-0.0648447
-0.0630258
-0.0635861
-0.0625868
-0.0603314
-0.0580587
-0.0557418
-0.0533611
-0.0509008
-0.0483698
-0.0457841
-0.0431641
-0.0405311
-0.0379155
-0.0353483
-0.0328787
-0.0305549
-0.0284162
-0.0264758
-0.0247212
-0.0231143
-0.021607
-0.0201548
-0.018719
-0.0169064
-0.0151544
-0.0134526
-0.0118337
-0.0103417
-0.00899661
-0.00779537
-0.00669912
-0.00565234
-0.00454725
-0.00341036
-0.00189181
-0.00100913
-0.0766981
-0.0743291
-0.0728779
-0.0742572
-0.0719928
-0.0696885
-0.0703507
-0.0709847
-0.0716677
-0.0696977
-0.0669608
-0.0676196
-0.0682424
-0.0688858
-0.0673969
-0.0642404
-0.0648897
-0.0655229
-0.0661482
-0.0650918
-0.0627833
-0.0604576
-0.0580968
-0.0556745
-0.0531815
-0.0506168
-0.0479974
-0.0453422
-0.0426732
-0.0400184
-0.0374094
-0.0348917
-0.0325175
-0.0303251
-0.0283347
-0.0265317
-0.0248801
-0.0233333
-0.0218461
-0.0203851
-0.0189216
-0.0171077
-0.0153639
-0.0136412
-0.0119715
-0.0103992
-0.00895817
-0.00766873
-0.0065146
-0.00545973
-0.0043962
-0.00334901
-0.00190905
-0.00121002
-0.0795183
-0.0771298
-0.0756357
-0.0770509
-0.0747092
-0.0723476
-0.0730265
-0.073692
-0.0743872
-0.0723375
-0.0695625
-0.0702254
-0.0708522
-0.0716256
-0.0699922
-0.0668256
-0.0674775
-0.0681158
-0.068746
-0.0676466
-0.0652888
-0.0629134
-0.060505
-0.0580411
-0.0555089
-0.0529098
-0.0502575
-0.0475681
-0.0448627
-0.0421694
-0.0395175
-0.036953
-0.0345268
-0.0322812
-0.0302372
-0.0283845
-0.0266884
-0.0250997
-0.0235744
-0.0220755
-0.0205853
-0.0194462
-0.0172959
-0.0186024
-0.0155664
-0.0138469
-0.0121547
-0.0105299
-0.00900897
-0.00762821
-0.0063976
-0.00530414
-0.00425703
-0.00327821
-0.00190534
-0.00142917
-0.0824187
-0.0799698
-0.0784555
-0.0798967
-0.0775094
-0.0751019
-0.0758195
-0.0764975
-0.0771933
-0.0750519
-0.072217
-0.0728627
-0.0735226
-0.0742095
-0.0726381
-0.0694214
-0.0700569
-0.0706538
-0.0713758
-0.0702448
-0.0678456
-0.0654258
-0.0629674
-0.0604606
-0.0578889
-0.0552534
-0.0525658
-0.0498425
-0.0471009
-0.0443686
-0.0416739
-0.039063
-0.0365853
-0.0342859
-0.0321868
-0.0302836
-0.0285386
-0.0269071
-0.025341
-0.0238021
-0.0222671
-0.0211152
-0.0202631
-0.019503
-0.0177876
-0.0157508
-0.0169958
-0.0186857
-0.0140446
-0.0123556
-0.0107065
-0.00913084
-0.00766939
-0.00635546
-0.00519966
-0.00414239
-0.00320281
-0.00189499
-0.00164977
-0.0854175
-0.0828845
-0.081339
-0.0828071
-0.0803641
-0.0779152
-0.0786439
-0.0793365
-0.0800457
-0.0778456
-0.0749737
-0.0756904
-0.0763438
-0.0770212
-0.0753552
-0.0728998
-0.0704513
-0.0679877
-0.065487
-0.0629336
-0.0603211
-0.0576483
-0.0549254
-0.0521663
-0.0493891
-0.0466181
-0.0438807
-0.0412212
-0.038693
-0.0363383
-0.0341867
-0.0322279
-0.0304356
-0.0287581
-0.02715
-0.0255711
-0.0239953
-0.0228176
-0.021947
-0.021164
-0.0203213
-0.0197384
-0.0193167
-0.0178626
-0.0162252
-0.014214
-0.0154564
-0.0170645
-0.0185125
-0.0189125
-0.0125487
-0.0109027
-0.00929948
-0.007778
-0.00638458
-0.00515264
-0.00406027
-0.00312908
-0.00189312
-0.00183534
-0.0884786
-0.0858814
-0.0842956
-0.0857955
-0.0832896
-0.0807882
-0.0815332
-0.0822403
-0.0829645
-0.0807096
-0.0777881
-0.0785152
-0.0791804
-0.0798704
-0.0781465
-0.0756196
-0.0731144
-0.0706027
-0.0680575
-0.0654632
-0.0628095
-0.0600966
-0.0573372
-0.0545425
-0.0517283
-0.0489189
-0.0461389
-0.0434331
-0.0408512
-0.038442
-0.0362316
-0.0342228
-0.0323775
-0.0306546
-0.0290029
-0.0273834
-0.0257692
-0.0245616
-0.0236734
-0.0228749
-0.0220111
-0.0214183
-0.0209931
-0.0201575
-0.0205813
-0.0197511
-0.0193212
-0.0181057
-0.0176659
-0.0162785
-0.0146854
-0.0127134
-0.0139368
-0.0155005
-0.0168979
-0.0172865
-0.0184988
-0.0188904
-0.0110926
-0.0094893
-0.00793307
-0.00647476
-0.00516347