/*--------------------------------*- C++ -*----------------------------------*\
| =========                 |                                                 |
| \\      /  F ield         | OpenFOAM: The Open Source CFD Toolbox           |
|  \\    /   O peration     | Version:  v1912                                 |
|   \\  /    A nd           | Website:  www.openfoam.com                      |
|    \\/     M anipulation  |                                                 |
\*---------------------------------------------------------------------------*/
FoamFile
{
    version     2.0;
    format      ascii;
    class       volVectorField;
    location    "170";
    object      U;
}
// * * * * * * * * * * * * * * * * * * * * * * * * * * * * * * * * * * * * * //

dimensions      [0 1 -1 0 0 0 0];


internalField   nonuniform List<vector> 
3754
(
(0.0486057 -0.0205868 0)
(0.14974 -0.0616623 -2.57956e-23)
(0.0481044 -0.0203822 1.19717e-23)
(0.252573 -0.101971 0)
(0.148233 -0.061053 1.26938e-23)
(0.0476259 -0.0201801 -1.20435e-23)
(0.352785 -0.139629 9.13401e-21)
(0.250081 -0.100973 9.96658e-24)
(0.146781 -0.0604582 1.22911e-20)
(0.0471624 -0.0199826 0)
(0.443909 -0.172222 -8.02343e-21)
(0.349326 -0.138259 8.78767e-21)
(0.247637 -0.0999895 -1.00599e-20)
(0.145344 -0.0598691 -1.13849e-23)
(0.0466968 -0.0197868 0)
(0.518094 -0.196976 7.00053e-24)
(0.439525 -0.170505 -7.73075e-21)
(0.345917 -0.136912 0)
(0.245237 -0.0990298 3.61014e-25)
(0.143923 -0.059285 1.14125e-23)
(0.0462465 -0.0195964 0)
(0.56747 -0.211346 -2.61735e-25)
(0.512876 -0.194961 -7.04982e-21)
(0.435203 -0.168829 -7.12916e-24)
(0.342572 -0.135597 8.15742e-21)
(0.242855 -0.098069 9.27764e-24)
(0.142537 -0.0587146 0)
(0.045794 -0.0194055 0)
(0.585843 -0.213634 6.53963e-24)
(0.561536 -0.209084 6.63717e-21)
(0.507747 -0.193003 0)
(0.430969 -0.167189 -7.16823e-21)
(0.339253 -0.134283 7.84234e-24)
(0.240506 -0.0971201 0)
(0.141161 -0.0581487 0)
(0.0453412 -0.019214 0)
(0.570319 -0.203519 0)
(0.579338 -0.211187 -6.60517e-21)
(0.555715 -0.206896 0)
(0.502713 -0.191083 -1.24888e-23)
(0.426765 -0.165558 2.01008e-23)
(0.33596 -0.132981 0)
(0.238182 -0.0961841 0)
(0.139788 -0.0575822 0)
(0.0449002 -0.0190257 -9.45403e-24)
(0.522134 -0.18222 -7.53654e-24)
(0.563378 -0.200941 6.71694e-21)
(0.572957 -0.208831 0)
(0.550001 -0.204758 -6.17932e-21)
(0.497721 -0.189182 1.25008e-23)
(0.422596 -0.163939 -5.09077e-25)
(0.332707 -0.131695 0)
(0.235878 -0.0952519 0)
(0.138427 -0.0570216 0)
(0.0444725 -0.0188463 9.49972e-24)
(0.446399 -0.152265 0)
(0.514867 -0.17955 0)
(0.556583 -0.198487 -6.4912e-21)
(0.566735 -0.206551 6.05474e-21)
(0.544375 -0.202652 -5.96153e-21)
(0.492781 -0.187297 0)
(0.418474 -0.162337 -1.27431e-23)
(0.329476 -0.130413 0)
(0.233599 -0.0943338 0)
(0.137106 -0.0564754 9.48753e-21)
(0.044042 -0.0186669 0)
(0.350794 -0.116899 4.9966e-21)
(0.438814 -0.149503 -3.10989e-23)
(0.507791 -0.177067 6.90741e-21)
(0.550052 -0.196148 -2.4871e-23)
(0.560666 -0.204319 5.82105e-21)
(0.538825 -0.200573 0)
(0.487895 -0.185432 0)
(0.414378 -0.160746 0)
(0.326293 -0.129153 0)
(0.231351 -0.0934197 -7.70801e-21)
(0.135787 -0.0559342 -9.12912e-21)
(0.0436195 -0.0184879 0)
(0.244144 -0.0794712 -7.09665e-21)
(0.342695 -0.114003 4.79649e-24)
(0.43153 -0.147032 1.38101e-24)
(0.501167 -0.174753 0)
(0.543779 -0.193882 0)
(0.554727 -0.202136 2.25205e-23)
(0.533352 -0.198522 -5.53723e-21)
(0.48305 -0.183586 0)
(0.410336 -0.159173 5.9242e-21)
(0.323125 -0.127895 0)
(0.229128 -0.0925256 7.40861e-21)
(0.134501 -0.0554036 -4.20089e-24)
(0.0432017 -0.0183095 0)
(0.163169 -0.0523497 2.46749e-21)
(0.234398 -0.0761598 2.80422e-21)
(0.159009 -0.0509715 -2.43465e-21)
(0.335145 -0.111516 0)
(0.425067 -0.144825 -7.57141e-21)
(0.494981 -0.17256 6.56696e-21)
(0.537733 -0.191702 0)
(0.548909 -0.199998 5.42418e-21)
(0.527954 -0.196504 -1.01767e-23)
(0.478272 -0.181764 -1.07998e-20)
(0.406333 -0.15762 0)
(0.320024 -0.126668 -6.24086e-21)
(0.226951 -0.0916424 1.45769e-25)
(0.133226 -0.0548767 4.208e-24)
(0.0427913 -0.0181342 0)
(0.108077 -0.0342672 1.68562e-24)
(0.152711 -0.0484909 -2.42588e-21)
(0.226132 -0.0734493 -1.25816e-21)
(0.146105 -0.046971 -2.39179e-21)
(0.104391 -0.0331716 1.62463e-21)
(0.329121 -0.10946 8.84167e-21)
(0.419314 -0.142823 -7.31166e-21)
(0.48916 -0.1705 2.41756e-23)
(0.531881 -0.189594 0)
(0.543215 -0.19791 1.04694e-23)
(0.522642 -0.194518 5.11346e-21)
(0.473567 -0.179972 5.16864e-24)
(0.402402 -0.156091 5.4709e-21)
(0.316967 -0.125452 -2.86858e-24)
(0.224815 -0.0907779 3.405e-24)
(0.131974 -0.0543567 0)
(0.0424097 -0.0179721 0)
(0.0664912 -0.0209425 7.58571e-22)
(0.0968021 -0.0301676 0)
(0.141489 -0.0452413 0)
(0.221081 -0.0716009 -2.81796e-21)
(0.138905 -0.0443794 4.65649e-21)
(0.0876052 -0.0279764 5.50945e-22)
(0.0628866 -0.0198397 2.13297e-24)
(0.0651399 -0.0206335 0)
(0.324232 -0.107779 -3.44508e-23)
(0.414103 -0.141013 1.00508e-24)
(0.483629 -0.16855 -8.89264e-25)
(0.52621 -0.187556 0)
(0.537636 -0.195865 0)
(0.517418 -0.192567 0)
(0.468934 -0.178205 0)
(0.398531 -0.154583 2.62089e-24)
(0.313981 -0.124267 2.87079e-24)
(0.222725 -0.0899271 3.12758e-24)
(0.130786 -0.0538616 -7.74552e-21)
(0.0420184 -0.017808 0)
(0.0388435 -0.012155 0)
(0.0590168 -0.0184953 0)
(0.0522499 -0.0154897 -4.24568e-22)
(0.0832587 -0.0263264 5.41844e-22)
(0.137093 -0.043575 9.05116e-21)
(0.217651 -0.0704468 2.63461e-21)
(0.135969 -0.0432834 -4.50307e-21)
(0.0815457 -0.0256403 -2.6292e-21)
(0.0418859 -0.0134451 -7.09659e-22)
(0.0452794 -0.0143687 -2.42233e-23)
(0.0363404 -0.0114686 6.42939e-22)
(0.0380352 -0.0119673 -6.95849e-22)
(0.320016 -0.106357 0)
(0.40927 -0.139349 6.99244e-21)
(0.478346 -0.166691 -2.34317e-23)
(0.520693 -0.185576 0)
(0.532171 -0.193865 -4.66736e-24)
(0.51229 -0.19065 -4.75177e-21)
(0.464371 -0.176466 4.79916e-21)
(0.394747 -0.15311 -5.04565e-21)
(0.31106 -0.123102 -5.51771e-21)
(0.2207 -0.0890997 6.27457e-21)
(0.129609 -0.0533742 -7.4226e-21)
(0.041647 -0.0176515 0)
(0.0125167 -0.00389418 0)
(0.0336636 -0.0101802 6.66754e-22)
(0.0229761 -0.00550277 3.12112e-22)
(0.0400816 -0.0125949 -7.78e-22)
(0.0392593 -0.0123239 1.14748e-23)
(0.0805904 -0.0252976 -5.17749e-21)
(0.134921 -0.0428749 -4.43387e-21)
(0.214876 -0.0695866 -2.47971e-21)
(0.134157 -0.0427439 -4.32759e-21)
(0.079986 -0.0251046 4.05786e-21)
(0.0387246 -0.012083 -5.52883e-24)
(0.0389424 -0.0121359 2.1653e-21)
(0.0138346 -0.00450984 4.91746e-22)
(0.0153515 -0.00504922 0)
(0.0116217 -0.00372848 -4.80702e-22)
(0.0122813 -0.00383329 4.92627e-22)
(0.316228 -0.105092 -8.08999e-21)
(0.404707 -0.137782 -6.72113e-21)
(0.473246 -0.164905 -1.08778e-23)
(0.515323 -0.183653 -5.0908e-21)
(0.526817 -0.191905 4.67422e-21)
(0.507242 -0.188768 -4.53977e-21)
(0.459916 -0.174765 4.59222e-21)
(0.391052 -0.151667 -3.11901e-24)
(0.308221 -0.121966 0)
(0.218733 -0.0882984 6.01189e-21)
(0.128479 -0.0529032 0)
(0.0412837 -0.0174994 0)
(0.0108911 -0.00353253 -3.13616e-22)
(0.00638433 -0.0014766 -6.27967e-23)
(0.0128655 -0.00405038 5.23157e-22)
(0.0125293 -0.00391318 9.61467e-22)
(0.0385407 -0.0119963 1.40428e-21)
(0.0384366 -0.0119962 5.41386e-24)
(0.0794992 -0.0249537 3.98955e-21)
(0.133292 -0.0424107 0)
(0.212423 -0.0688199 -2.43522e-21)
(0.132665 -0.0423065 -3.04659e-23)
(0.079061 -0.0248404 1.00195e-21)
(0.0382773 -0.0119356 -5.3664e-24)
(0.0383224 -0.0119294 -5.18261e-26)
(0.0123577 -0.00383487 9.43238e-22)
(0.0124237 -0.00385858 1.94167e-24)
(0.312695 -0.103919 1.57962e-20)
(0.400367 -0.136303 -1.28071e-23)
(0.468315 -0.163177 5.4378e-21)
(0.510071 -0.181773 4.90169e-21)
(0.521564 -0.189988 -2.15666e-24)
(0.502308 -0.186921 2.17615e-24)
(0.455554 -0.173097 8.82344e-21)
(0.387454 -0.150256 4.63553e-21)
(0.305467 -0.120861 0)
(0.216825 -0.0875142 0)
(0.127382 -0.0524492 3.23748e-24)
(0.0409182 -0.0173443 -6.64826e-21)
(0.0123068 -0.00381829 9.31876e-22)
(0.0122766 -0.00381563 9.24686e-22)
(0.0381514 -0.0118704 0)
(0.0380713 -0.0118818 1.34645e-21)
(0.0786385 -0.0247142 -1.51555e-23)
(0.131881 -0.04199 4.09571e-21)
(0.210137 -0.0680989 -1.38349e-20)
(0.131274 -0.0418786 -3.92922e-24)
(0.0782438 -0.0246021 3.8109e-21)
(0.0379274 -0.011841 1.32038e-21)
(0.0379862 -0.0118274 -1.32315e-21)
(0.0122421 -0.00379844 -9.10842e-22)
(0.0122465 -0.00380159 9.16441e-22)
(0.309377 -0.10282 1.5189e-23)
(0.396182 -0.134871 0)
(0.463503 -0.161496 -5.22563e-21)
(0.504936 -0.17994 4.71403e-21)
(0.516419 -0.188104 2.15858e-24)
(0.497473 -0.185112 -8.3839e-21)
(0.451307 -0.171467 -4.21519e-21)
(0.383949 -0.148877 -2.11624e-24)
(0.302787 -0.119782 0)
(0.214984 -0.0867614 0)
(0.126302 -0.051998 -6.32714e-24)
(0.040589 -0.0171996 -4.88969e-24)
(0.0122031 -0.00378164 9.03563e-22)
(0.0121714 -0.00378058 -8.93842e-22)
(0.0378044 -0.0117783 0)
(0.0377396 -0.011783 5.06218e-24)
(0.0778459 -0.0244776 -3.70291e-24)
(0.130518 -0.0415666 3.96151e-21)
(0.207969 -0.0673972 4.50774e-21)
(0.12993 -0.0414602 3.91266e-21)
(0.0774484 -0.0243614 -3.5861e-24)
(0.0375614 -0.0117307 0)
(0.0376422 -0.0117257 1.29054e-21)
(0.0121278 -0.00376822 -1.486e-24)
(0.0121573 -0.00376913 -8.9138e-22)
(0.306156 -0.10175 -7.44774e-21)
(0.392113 -0.133489 -2.86165e-24)
(0.458815 -0.15986 -5.02349e-21)
(0.499891 -0.178134 0)
(0.511369 -0.186255 4.13619e-21)
(0.49275 -0.183339 0)
(0.447168 -0.169872 -3.94795e-24)
(0.380558 -0.147538 -4.23936e-21)
(0.300214 -0.118743 0)
(0.213196 -0.0860242 5.22245e-21)
(0.125257 -0.0515571 1.23308e-20)
(0.0402496 -0.0170607 0)
(0.0121061 -0.00375739 3.44292e-24)
(0.0120843 -0.00375323 8.71103e-22)
(0.0374342 -0.0116641 1.27231e-21)
(0.0373729 -0.011672 0)
(0.0770595 -0.0242316 3.58948e-24)
(0.129211 -0.0411508 -3.8225e-21)
(0.205839 -0.0667146 8.58109e-21)
(0.128639 -0.0410418 -3.77697e-21)
(0.0766702 -0.0241231 9.04792e-22)
(0.0371992 -0.0116202 0)
(0.0372754 -0.0116167 0)
(0.012011 -0.00373191 8.60027e-22)
(0.0120476 -0.00373487 -1.73225e-21)
(0.303055 -0.100726 0)
(0.388155 -0.132138 2.86641e-24)
(0.454207 -0.15825 -2.42953e-24)
(0.49494 -0.176362 -4.34998e-21)
(0.506419 -0.184439 4.0141e-21)
(0.488137 -0.1816 -3.86442e-21)
(0.443146 -0.168315 3.85938e-21)
(0.377287 -0.146237 0)
(0.297721 -0.11773 -4.40042e-21)
(0.211447 -0.0853014 -4.97881e-21)
(0.124246 -0.0511392 -2.93986e-24)
(0.0399065 -0.016918 1.09582e-23)
(0.0119835 -0.00371804 -8.51119e-22)
(0.0119572 -0.00371534 8.47094e-22)
(0.0370832 -0.0115563 0)
(0.0370138 -0.0115541 0)
(0.0762799 -0.0239879 8.89744e-22)
(0.127937 -0.0407481 -3.67512e-21)
(0.203808 -0.0660549 -2.09449e-21)
(0.127365 -0.0406422 -4.34143e-23)
(0.0759105 -0.0238792 3.35856e-24)
(0.0368312 -0.0115054 0)
(0.0368982 -0.0115 -1.20546e-21)
(0.0119049 -0.00369905 8.36498e-22)
(0.0119369 -0.00370221 -8.4254e-22)
(0.300026 -0.0997164 0)
(0.384267 -0.130814 5.6007e-21)
(0.449663 -0.156661 4.64189e-21)
(0.490062 -0.174614 -4.10369e-21)
(0.501562 -0.18265 -4.10441e-23)
(0.483639 -0.179894 0)
(0.439261 -0.166797 3.70343e-21)
(0.374122 -0.144971 0)
(0.295291 -0.116741 4.08431e-24)
(0.209747 -0.0846032 0)
(0.123238 -0.050722 -5.56421e-21)
(0.0395876 -0.0167833 -5.49054e-21)
(0.0118758 -0.00368503 8.29028e-22)
(0.011842 -0.0036758 8.23843e-22)
(0.0367011 -0.011438 -1.18464e-21)
(0.0366239 -0.0114419 -4.58901e-24)
(0.0755514 -0.0237576 -3.36252e-24)
(0.126687 -0.0403488 3.60899e-21)
(0.201808 -0.0654075 2.02113e-21)
(0.126145 -0.0402436 3.51494e-21)
(0.0751749 -0.0236528 3.3394e-21)
(0.0364738 -0.0113887 0)
(0.0365441 -0.0113894 4.59286e-24)
(0.0117802 -0.00365999 8.12244e-22)
(0.0118036 -0.00366144 -8.18347e-22)
(0.297043 -0.0987267 -6.50327e-21)
(0.38042 -0.129501 0)
(0.445183 -0.155094 0)
(0.485248 -0.172883 3.93307e-21)
(0.496799 -0.180885 -7.30195e-24)
(0.479265 -0.17822 -3.4952e-21)
(0.435489 -0.165314 -1.75792e-24)
(0.371043 -0.143737 0)
(0.292929 -0.115781 -1.98963e-24)
(0.208084 -0.0839221 4.47955e-21)
(0.122258 -0.0503161 1.05438e-20)
(0.0392677 -0.0166472 0)
(0.0117497 -0.00364572 0)
(0.0117199 -0.00364281 7.99422e-22)
(0.0363369 -0.0113238 0)
(0.0362764 -0.0113273 0)
(0.0748109 -0.0235218 -2.44826e-21)
(0.125479 -0.0399661 0)
(0.199835 -0.0647691 0)
(0.124928 -0.0398609 2.86648e-23)
(0.0744532 -0.0234207 1.63144e-21)
(0.0361217 -0.0112837 1.12892e-21)
(0.0361839 -0.0112766 -4.39667e-24)
(0.0116643 -0.00362223 7.88783e-22)
(0.0117028 -0.00363015 -7.94295e-22)
(0.294095 -0.0977462 0)
(0.376615 -0.128202 9.78397e-24)
(0.440726 -0.153531 0)
(0.480486 -0.171162 0)
(0.492121 -0.179134 0)
(0.474997 -0.176573 -1.75255e-24)
(0.431827 -0.163868 3.36016e-21)
(0.368054 -0.142537 0)
(0.290617 -0.114846 -3.76613e-21)
(0.206455 -0.0832555 -4.23927e-21)
(0.121289 -0.0499105 -4.98796e-21)
(0.0389376 -0.016508 -4.90964e-21)
(0.0116229 -0.00360709 7.80922e-22)
(0.0116039 -0.00360364 7.75311e-22)
(0.0360053 -0.0112197 -1.10603e-21)
(0.0359309 -0.0112181 -4.28164e-24)
(0.0740952 -0.0232989 -1.23304e-23)
(0.124272 -0.0395836 0)
(0.197892 -0.0641389 1.88453e-21)
(0.123743 -0.0394794 -3.29392e-21)
(0.0737387 -0.023199 -3.10336e-21)
(0.035773 -0.0111713 -1.08184e-21)
(0.0358501 -0.0111778 -1.08306e-21)
(0.011549 -0.00358905 1.9373e-24)
(0.0115817 -0.0035915 -7.70891e-22)
(0.291171 -0.0967699 1.16436e-23)
(0.372813 -0.126902 -9.79334e-24)
(0.43627 -0.151963 1.58535e-23)
(0.47575 -0.169434 -6.9733e-24)
(0.487525 -0.177398 -6.38304e-24)
(0.470845 -0.174956 -3.17595e-21)
(0.428262 -0.162455 0)
(0.365129 -0.141368 -9.1525e-24)
(0.288357 -0.113931 0)
(0.204834 -0.0825878 4.01748e-21)
(0.120313 -0.0495037 1.02687e-23)
(0.0386078 -0.0163674 -1.81198e-23)
(0.0115289 -0.00357645 7.58092e-22)
(0.0114999 -0.00356985 0)
(0.0356426 -0.011106 0)
(0.0355948 -0.0111109 0)
(0.0734023 -0.0230817 0)
(0.123105 -0.0392137 0)
(0.195967 -0.0635106 1.80017e-21)
(0.122576 -0.0391069 -3.14368e-21)
(0.0730378 -0.0229784 3.00786e-21)
(0.0354373 -0.0110681 1.04833e-21)
(0.0355061 -0.0110677 0)
(0.0114437 -0.00355519 1.44066e-24)
(0.0114753 -0.0035629 7.45937e-22)
(0.288239 -0.0957904 -5.92331e-21)
(0.368961 -0.125583 -1.8047e-23)
(0.431766 -0.150367 -4.03518e-21)
(0.471032 -0.167693 -3.52278e-21)
(0.483 -0.175663 6.3722e-24)
(0.46678 -0.173368 -2.88133e-24)
(0.424773 -0.161078 2.99845e-21)
(0.362265 -0.140225 0)
(0.286104 -0.113017 0)
(0.20321 -0.0819183 3.79741e-21)
(0.119334 -0.0490928 4.42415e-21)
(0.0382863 -0.0162276 -4.3391e-21)
(0.011404 -0.00353795 7.32216e-22)
(0.0113862 -0.00353429 -7.29102e-22)
(0.035329 -0.0110062 0)
(0.0352706 -0.0110134 0)
(0.0727114 -0.0228658 -1.14838e-23)
(0.121938 -0.0388368 1.19472e-23)
(0.19405 -0.0628853 5.08714e-21)
(0.121415 -0.0387335 -6.08421e-21)
(0.0723618 -0.0227659 7.48339e-22)
(0.0351015 -0.0109619 1.0074e-21)
(0.0351771 -0.0109692 3.95558e-24)
(0.0113362 -0.00352165 4.60604e-24)
(0.0113605 -0.00352517 7.22681e-22)
(0.285259 -0.0947959 -1.1204e-23)
(0.365008 -0.124225 4.4957e-21)
(0.427186 -0.148723 3.77131e-21)
(0.466297 -0.165913 -3.37995e-21)
(0.478533 -0.173941 1.44021e-24)
(0.462791 -0.171814 2.8766e-24)
(0.42135 -0.159733 -5.40272e-24)
(0.359419 -0.13909 1.11914e-23)
(0.283853 -0.112103 0)
(0.201584 -0.0812454 -1.21669e-23)
(0.11835 -0.0486758 -1.57726e-23)
(0.0379512 -0.0160845 4.06587e-21)
(0.0113133 -0.0035074 -7.14901e-22)
(0.011283 -0.00350533 7.05189e-22)
(0.0349863 -0.0109001 -1.00046e-21)
(0.0349366 -0.0109101 3.84234e-24)
(0.0720308 -0.0226471 0)
(0.120802 -0.0384761 2.98005e-21)
(0.192109 -0.0622498 -1.69578e-21)
(0.120279 -0.0383684 2.91388e-21)
(0.0716791 -0.0225479 2.79582e-21)
(0.0347782 -0.0108625 0)
(0.0348481 -0.010867 -9.7952e-22)
(0.0112345 -0.00348863 1.92428e-24)
(0.0112646 -0.00349853 6.99442e-22)
(0.282151 -0.0937578 2.0663e-23)
(0.360861 -0.122786 4.40425e-21)
(0.422451 -0.14699 3.61142e-21)
(0.461537 -0.164101 0)
(0.474118 -0.172242 -1.43778e-24)
(0.458874 -0.170301 0)
(0.417965 -0.158408 1.56136e-23)
(0.356574 -0.137954 -2.17394e-23)
(0.281596 -0.111184 -3.00389e-21)
(0.199958 -0.0805687 1.26579e-23)
(0.117351 -0.0482511 1.03272e-24)
(0.0376118 -0.0159429 -3.8157e-21)
(0.0111928 -0.00347025 6.86485e-22)
(0.0111698 -0.00347096 6.8219e-22)
(0.0346816 -0.0108042 3.73632e-24)
(0.0346211 -0.0108094 -1.88849e-24)
(0.071371 -0.0224413 -2.75176e-21)
(0.119666 -0.0381117 2.82782e-21)
(0.190091 -0.0615891 -1.61133e-21)
(0.119136 -0.0379977 0)
(0.0710262 -0.0223436 1.33127e-23)
(0.0344583 -0.01076 0)
(0.0345184 -0.0107578 -1.85316e-24)
(0.0111324 -0.00345793 6.73316e-22)
(0.0111536 -0.00346406 0)
(0.278765 -0.0926286 1.06842e-22)
(0.35641 -0.121218 -4.23523e-21)
(0.417534 -0.145144 -3.55108e-21)
(0.456763 -0.162285 0)
(0.469768 -0.170594 -1.02861e-23)
(0.455012 -0.168819 0)
(0.414594 -0.157085 -1.02117e-23)
(0.353734 -0.136815 1.05494e-23)
(0.279345 -0.11026 2.83667e-21)
(0.198304 -0.0798763 -1.26638e-23)
(0.11635 -0.0478275 2.851e-23)
(0.0372595 -0.0157954 0)
(0.0111025 -0.00344147 -1.30763e-24)
(0.0110772 -0.00344075 6.58692e-22)
(0.0343631 -0.0107099 0)
(0.0343009 -0.0107099 0)
(0.070703 -0.0222314 -6.68759e-22)
(0.118539 -0.0377485 2.76073e-21)
(0.187843 -0.0608647 -7.64492e-21)
(0.117969 -0.0376194 2.68619e-21)
(0.0703712 -0.022134 6.54982e-22)
(0.0341508 -0.0106626 -1.76768e-24)
(0.0342166 -0.0106678 1.76648e-24)
(0.0110189 -0.00342158 -6.5017e-22)
(0.0110542 -0.00342931 6.56306e-22)
(0.27496 -0.0913493 4.97632e-21)
(0.351487 -0.119415 3.97048e-21)
(0.412441 -0.143221 -1.66034e-24)
(0.452037 -0.160535 2.86882e-21)
(0.46551 -0.168998 5.41177e-25)
(0.451198 -0.167353 0)
(0.411238 -0.155762 2.4218e-21)
(0.350897 -0.135669 -2.45871e-21)
(0.277069 -0.109322 -1.06368e-23)
(0.196646 -0.0791789 1.10282e-23)
(0.115329 -0.0473944 3.37607e-21)
(0.0369018 -0.0156428 6.18715e-24)
(0.0109968 -0.00341267 6.43338e-22)
(0.010973 -0.0034096 6.37633e-22)
(0.0340465 -0.0106106 0)
(0.034001 -0.010617 8.79326e-22)
(0.0700603 -0.0220244 -1.8986e-21)
(0.117313 -0.0373561 2.60791e-21)
(0.185165 -0.0600019 0)
(0.116646 -0.0371955 -2.60912e-21)
(0.0697078 -0.0219249 0)
(0.0338434 -0.0105677 6.09131e-24)
(0.0339125 -0.0105696 -1.68404e-24)
(0.010933 -0.00339351 -6.28455e-22)
(0.010955 -0.00340042 6.32241e-22)
(0.270285 -0.0897276 2.40491e-21)
(0.346062 -0.117367 3.91143e-21)
(0.407353 -0.141387 -3.0682e-21)
(0.44747 -0.158872 -1.02023e-23)
(0.461356 -0.167437 9.74732e-24)
(0.447421 -0.165892 -2.2803e-21)
(0.407886 -0.154434 -9.09281e-24)
(0.348048 -0.134515 -2.3251e-21)
(0.274776 -0.108371 0)
(0.19497 -0.0784737 -2.736e-21)
(0.114288 -0.0469501 -3.13631e-21)
(0.036551 -0.0154931 -1.75538e-23)
(0.0108989 -0.00338217 0)
(0.010884 -0.00338252 0)
(0.0337456 -0.0105165 1.68201e-24)
(0.0336887 -0.0105164 -8.47444e-22)
(0.0693757 -0.021807 -6.02686e-22)
(0.115873 -0.0369029 -2.54987e-21)
(0.181392 -0.0587954 -3.56628e-21)
(0.114907 -0.0366513 1.9247e-23)
(0.0689982 -0.0217005 2.9929e-21)
(0.0335408 -0.01047 0)
(0.0336118 -0.010479 0)
(0.0108234 -0.0033607 -1.21177e-21)
(0.0108596 -0.0033683 6.11109e-22)
(0.264397 -0.0875259 -4.55653e-21)
(0.34054 -0.11544 -3.60769e-21)
(0.402554 -0.139701 2.99448e-21)
(0.44311 -0.157273 1.0218e-23)
(0.457296 -0.165899 2.33608e-21)
(0.443675 -0.164437 -2.19296e-21)
(0.404536 -0.153101 2.11207e-21)
(0.345175 -0.133346 8.16198e-24)
(0.272477 -0.107416 -2.2986e-21)
(0.193279 -0.0777584 2.51998e-21)
(0.113256 -0.0465079 2.88199e-21)
(0.0361832 -0.0153365 1.13786e-23)
(0.0108022 -0.00335231 6.00033e-22)
(0.0107801 -0.00334956 5.94502e-22)
(0.033435 -0.0104198 8.19509e-22)
(0.0333845 -0.0104221 -1.58668e-24)
(0.068616 -0.0215595 2.36894e-21)
(0.113578 -0.03626 2.39791e-21)
(0.174588 -0.056381 -2.12606e-23)
(0.111695 -0.0356592 -1.8548e-23)
(0.0680796 -0.0214181 5.66538e-22)
(0.0332485 -0.0103791 9.03195e-24)
(0.0333017 -0.0103813 -1.55709e-24)
(0.0107367 -0.0033316 0)
(0.0107666 -0.00334188 5.89193e-22)
(0.258132 -0.0854392 4.2384e-21)
(0.335583 -0.113765 -3.35589e-21)
(0.398166 -0.13813 -2.24729e-23)
(0.438945 -0.155728 -2.40064e-21)
(0.453319 -0.164388 2.16062e-21)
(0.439962 -0.162991 0)
(0.401192 -0.151767 -2.00419e-21)
(0.342312 -0.132174 1.99958e-21)
(0.270166 -0.10645 -2.12418e-21)
(0.191592 -0.077038 -2.32351e-21)
(0.112206 -0.0460513 -2.63398e-21)
(0.035803 -0.0151753 0)
(0.0106967 -0.00331962 5.7879e-22)
(0.0106812 -0.00331956 5.73796e-22)
(0.0331613 -0.0103296 -1.55555e-24)
(0.0330913 -0.0103211 0)
(0.0673695 -0.0212159 -5.54545e-22)
(0.108313 -0.0345482 1.23143e-21)
(0.16638 -0.0538482 7.02205e-22)
(0.102761 -0.0324848 1.85713e-23)
(0.0662351 -0.0209003 -6.88378e-23)
(0.0329118 -0.0102755 -7.69528e-22)
(0.0330022 -0.0102861 7.79051e-22)
(0.0106441 -0.00330439 -1.12892e-21)
(0.0106691 -0.00331133 5.68764e-22)
(0.253099 -0.083752 -4.1665e-21)
(0.331372 -0.112285 0)
(0.394109 -0.136654 0)
(0.434941 -0.15424 -1.75734e-23)
(0.449423 -0.162904 -2.0974e-21)
(0.436287 -0.161554 3.85841e-21)
(0.397868 -0.150431 -7.52362e-24)
(0.339452 -0.130997 -1.92834e-23)
(0.267859 -0.105475 -1.97337e-21)
(0.189885 -0.0763025 2.12405e-21)
(0.111127 -0.0455842 2.38412e-21)
(0.0354216 -0.0150157 4.11844e-24)
(0.0106245 -0.00329508 5.58862e-22)
(0.010598 -0.00328862 5.54453e-22)
(0.0327766 -0.0102202 7.40015e-24)
(0.0326333 -0.0101945 -5.85747e-24)
(0.0639922 -0.0201614 -7.56759e-22)
(0.0964453 -0.0307177 -1.16854e-21)
(0.161535 -0.0520601 4.17384e-21)
(0.0928625 -0.0297093 -1.08433e-21)
(0.0567846 -0.0175632 0)
(0.032135 -0.010067 -3.71709e-22)
(0.032465 -0.0101325 5.84278e-24)
(0.0105474 -0.003275 5.4541e-22)
(0.010577 -0.00328068 -5.47586e-22)
(0.249382 -0.0824385 3.14595e-23)
(0.3277 -0.11097 0)
(0.390317 -0.135276 0)
(0.431082 -0.152804 2.17601e-21)
(0.445604 -0.161442 -1.92198e-21)
(0.432653 -0.160124 -4.68486e-25)
(0.394566 -0.149096 -3.9962e-23)
(0.336598 -0.12981 1.70927e-21)
(0.265547 -0.104493 6.65726e-24)
(0.188162 -0.0755594 -3.83812e-21)
(0.110052 -0.0451183 0)
(0.0350256 -0.0148484 -4.12803e-24)
(0.0105128 -0.00326241 3.01819e-24)
(0.0104731 -0.00325277 5.33651e-22)
(0.0315731 -0.0099518 -2.2271e-23)
(0.0303672 -0.00942282 -3.34503e-22)
(0.0477455 -0.0154186 -2.00442e-22)
(0.0910677 -0.0288248 1.04694e-21)
(0.1589 -0.0510662 -1.14566e-21)
(0.0901097 -0.0284979 1.66457e-23)
(0.0447039 -0.0141161 1.50062e-21)
(0.0188305 -0.00441368 0)
(0.0277752 -0.00825259 0)
(0.0103207 -0.00320973 7.82023e-22)
(0.0104354 -0.00323457 -5.29244e-22)
(0.24641 -0.0813949 -3.89049e-21)
(0.324386 -0.109793 0)
(0.386741 -0.133977 -9.28865e-24)
(0.427344 -0.151407 0)
(0.44186 -0.160002 0)
(0.429065 -0.158702 1.65462e-21)
(0.391277 -0.147756 1.63216e-21)
(0.333754 -0.12862 0)
(0.263228 -0.103499 1.61028e-21)
(0.186445 -0.0748109 -1.72334e-21)
(0.108958 -0.0446366 1.88122e-21)
(0.034619 -0.0146805 0)
(0.01013 -0.00317912 -5.16949e-22)
(0.00966617 -0.00309623 -2.37557e-22)
(0.0126207 -0.00395654 2.93223e-22)
(0.0112302 -0.00373772 0)
(0.0438948 -0.0136943 0)
(0.0893993 -0.0281938 -1.66372e-23)
(0.157057 -0.0504806 5.78335e-21)
(0.0889532 -0.0281122 2.05446e-21)
(0.0434732 -0.0135417 4.90464e-22)
(0.0102719 -0.00323661 -5.21092e-22)
(0.0105421 -0.00332886 2.69307e-22)
(0.00520635 -0.00117252 0)
(0.00900272 -0.0028918 -2.29213e-22)
(0.243848 -0.0805186 0)
(0.32134 -0.108717 -2.90433e-21)
(0.38333 -0.132735 1.81158e-23)
(0.423721 -0.150048 0)
(0.438188 -0.158581 1.76445e-21)
(0.425516 -0.157287 -1.53803e-21)
(0.38803 -0.14642 -5.53916e-24)
(0.330924 -0.127422 0)
(0.260925 -0.102499 1.43965e-21)
(0.184715 -0.0740472 -1.50958e-21)
(0.107838 -0.0441452 0)
(0.0342025 -0.0145051 0)
(0.0102322 -0.00318033 -5.18254e-22)
(0.0101885 -0.00317009 0)
(0.0432198 -0.0134631 1.55759e-23)
(0.0884691 -0.027938 -1.73037e-25)
(0.155499 -0.0500135 -1.13006e-21)
(0.0881262 -0.0278932 -1.96896e-21)
(0.0430219 -0.0134069 0)
(0.0101483 -0.00315752 6.94125e-25)
(0.0101605 -0.00314733 5.0495e-22)
(0.241557 -0.0797423 3.41671e-21)
(0.318484 -0.107709 2.76671e-21)
(0.380062 -0.131542 -8.82386e-24)
(0.420195 -0.148717 -1.8104e-21)
(0.434584 -0.157176 -1.65505e-21)
(0.422024 -0.155878 -1.49406e-21)
(0.384805 -0.145078 1.39374e-21)
(0.328112 -0.126217 -1.33105e-21)
(0.258613 -0.101485 -1.3099e-21)
(0.182957 -0.0732682 1.17712e-24)
(0.106708 -0.0436447 1.36639e-21)
(0.0337795 -0.0143254 0)
(0.0101334 -0.00314006 -9.54291e-25)
(0.0101248 -0.00314951 4.86584e-22)
(0.0428546 -0.0133639 4.7235e-22)
(0.0877048 -0.02773 0)
(0.154119 -0.0495822 0)
(0.0873776 -0.027681 1.87509e-21)
(0.0426871 -0.0133138 -1.78024e-24)
(0.0100935 -0.0031385 4.75791e-22)
(0.0101033 -0.00313071 4.80758e-22)
(0.239435 -0.0790215 -3.24114e-21)
(0.315772 -0.106749 0)
(0.376905 -0.130383 7.87864e-24)
(0.416757 -0.14741 1.69097e-21)
(0.431052 -0.155784 1.46794e-21)
(0.418574 -0.154473 -1.3079e-21)
(0.381614 -0.143734 2.47688e-21)
(0.325314 -0.125004 1.14757e-21)
(0.2563 -0.10046 0)
(0.181188 -0.072476 -1.09709e-21)
(0.105551 -0.0431276 0)
(0.0333386 -0.0141402 0)
(0.0100739 -0.00312311 -9.23356e-25)
(0.0100724 -0.00313183 6.17142e-25)
(0.0425314 -0.0132721 -1.70161e-24)
(0.0869712 -0.0275106 -1.85621e-21)
(0.152831 -0.0491669 2.07992e-21)
(0.0866804 -0.02746 0)
(0.0423481 -0.0132226 3.48793e-24)
(0.0100334 -0.00311763 8.96993e-25)
(0.0100494 -0.00311269 4.6064e-22)
(0.237425 -0.0783375 -1.26915e-23)
(0.313172 -0.105825 -9.27111e-24)
(0.37385 -0.129255 -4.49877e-25)
(0.413407 -0.146122 -1.67083e-21)
(0.427582 -0.154401 0)
(0.415178 -0.153069 -1.2042e-21)
(0.378459 -0.142385 0)
(0.32253 -0.123779 -2.13685e-24)
(0.253983 -0.0994186 0)
(0.179402 -0.0716664 0)
(0.104373 -0.042597 8.3423e-22)
(0.0328785 -0.0139494 -5.41619e-22)
(0.010011 -0.00310293 4.51662e-22)
(0.0100059 -0.00311217 0)
(0.0421811 -0.0131686 1.70459e-21)
(0.0862842 -0.0272901 -1.74094e-21)
(0.151589 -0.0487647 1.98055e-21)
(0.0859807 -0.0272357 -1.69759e-21)
(0.0420128 -0.0131163 -4.20819e-22)
(0.00995789 -0.00309876 4.35812e-22)
(0.00997544 -0.00309376 4.43707e-22)
(0.235513 -0.0776835 -5.70953e-24)
(0.310679 -0.104933 2.3682e-21)
(0.37088 -0.128146 1.791e-21)
(0.410136 -0.144853 1.57686e-21)
(0.424182 -0.153026 2.42947e-24)
(0.411826 -0.151662 2.08911e-24)
(0.375327 -0.141026 1.03257e-21)
(0.319751 -0.122537 0)
(0.251653 -0.0983558 3.39991e-25)
(0.177588 -0.0708344 -6.68734e-22)
(0.103158 -0.0420501 5.58224e-22)
(0.0324064 -0.0137519 -3.32485e-26)
(0.00993132 -0.00308008 4.32946e-22)
(0.00992424 -0.00308706 4.29073e-22)
(0.0418508 -0.0130613 0)
(0.0856091 -0.0270771 -3.33589e-21)
(0.150405 -0.0483735 9.40551e-22)
(0.085324 -0.0270279 -1.6199e-21)
(0.0416783 -0.0130076 -1.5554e-24)
(0.00987677 -0.00307274 4.20781e-22)
(0.00989265 -0.00306734 4.20999e-22)
(0.233682 -0.0770513 -2.77746e-21)
(0.308256 -0.104059 2.23346e-21)
(0.368005 -0.127061 -1.68629e-21)
(0.406941 -0.143592 -2.87739e-24)
(0.420843 -0.151654 -2.42942e-24)
(0.408525 -0.150254 -9.78568e-22)
(0.372226 -0.139656 0)
(0.316985 -0.121279 0)
(0.249304 -0.0972702 -3.40232e-25)
(0.175751 -0.0699844 -9.33598e-22)
(0.101911 -0.041484 0)
(0.0319181 -0.0135503 -9.28662e-23)
(0.00985163 -0.00305474 4.14671e-22)
(0.00984366 -0.00306177 4.10235e-22)
(0.0415232 -0.0129587 1.56115e-21)
(0.0849631 -0.0268703 -1.57186e-24)
(0.149275 -0.0479968 -2.98038e-23)
(0.0846817 -0.02682 -1.53968e-21)
(0.0413713 -0.0129171 0)
(0.00980857 -0.00304716 7.7975e-25)
(0.00982339 -0.00304448 -7.97354e-25)
(0.231906 -0.0764359 -2.63468e-21)
(0.305922 -0.103208 0)
(0.365209 -0.125988 1.67973e-21)
(0.403821 -0.142339 0)
(0.417567 -0.150284 0)
(0.405269 -0.148839 0)
(0.369147 -0.138271 7.98086e-22)
(0.314219 -0.12 -6.41067e-22)
(0.246946 -0.0961609 4.06937e-22)
(0.173869 -0.0691043 -2.65034e-22)
(0.100633 -0.0409049 9.39402e-26)
(0.0314081 -0.0133445 -1.26602e-25)
(0.00977356 -0.00302888 3.95869e-22)
(0.0097683 -0.00303817 3.91337e-22)
(0.0412172 -0.0128638 0)
(0.0843397 -0.026669 3.01156e-21)
(0.148175 -0.0476328 8.48368e-22)
(0.0840764 -0.0266182 -1.46268e-21)
(0.0410583 -0.0128189 1.4119e-24)
(0.00973831 -0.00302884 0)
(0.00974549 -0.00302263 3.88657e-22)
(0.2302 -0.0758395 -2.6056e-21)
(0.303658 -0.102369 -1.89047e-21)
(0.362485 -0.124923 2.8948e-24)
(0.400767 -0.141089 2.3098e-24)
(0.414351 -0.148912 0)
(0.402056 -0.147414 -7.54278e-22)
(0.366099 -0.136869 5.81607e-22)
(0.311446 -0.11869 0)
(0.244557 -0.0950203 2.21735e-22)
(0.171949 -0.0681991 0)
(0.0993011 -0.0403094 -3.41261e-25)
(0.0308919 -0.0131423 -1.84281e-24)
(0.00970635 -0.00300919 3.79143e-22)
(0.00969161 -0.00301486 3.74366e-22)
(0.0409244 -0.0127711 -1.41586e-21)
(0.0837328 -0.0264732 5.52439e-24)
(0.14712 -0.0472839 3.88445e-21)
(0.0834684 -0.0264267 -1.39315e-21)
(0.0407709 -0.0127224 0)
(0.00966031 -0.00300509 7.09841e-25)
(0.00966929 -0.0029988 3.70251e-22)
(0.228551 -0.0752584 0)
(0.30147 -0.10154 0)
(0.359837 -0.123863 -2.21736e-24)
(0.397789 -0.139846 1.1866e-21)
(0.411197 -0.147538 0)
(0.398891 -0.145975 0)
(0.363062 -0.135441 0)
(0.308663 -0.117351 1.06315e-25)
(0.242125 -0.093845 0)
(0.16998 -0.067268 0)
(0.0979174 -0.0397097 2.47712e-25)
(0.0303814 -0.012937 -1.11864e-21)
(0.00963644 -0.00298829 3.60712e-22)
(0.00963186 -0.00299469 3.57004e-22)
(0.0406327 -0.0126788 3.35732e-22)
(0.0831439 -0.0262864 0)
(0.1461 -0.0469525 -7.55916e-22)
(0.0828942 -0.0262418 -1.31531e-21)
(0.0404809 -0.0126357 5.24231e-24)
(0.00959462 -0.00298234 0)
(0.00960805 -0.00297725 3.53569e-22)
(0.226968 -0.0746855 2.34143e-21)
(0.299354 -0.100711 0)
(0.357256 -0.12281 -1.27915e-21)
(0.394881 -0.138607 0)
(0.408104 -0.146156 0)
(0.395764 -0.144517 6.57019e-22)
(0.360038 -0.133984 1.51305e-25)
(0.305874 -0.11598 -1.06359e-25)
(0.239664 -0.0926368 8.1032e-23)
(0.167939 -0.0663062 4.52947e-22)
(0.0964771 -0.0391351 0)
(0.0300246 -0.0126538 1.50016e-21)
(0.00956943 -0.00296676 0)
(0.00956555 -0.00297409 7.79351e-26)
(0.0403461 -0.0125898 0)
(0.0825686 -0.02611 1.27374e-24)
(0.145113 -0.046645 -2.77809e-21)
(0.0823152 -0.0260752 1.24477e-21)
(0.040202 -0.012548 0)
(0.00952291 -0.00296222 3.3203e-22)
(0.00953768 -0.00295723 3.37228e-22)
(0.225461 -0.0740993 -1.03013e-24)
(0.297292 -0.0998853 0)
(0.35476 -0.121774 0)
(0.392048 -0.137366 0)
(0.405072 -0.144761 -6.46873e-22)
(0.392674 -0.143036 2.09955e-25)
(0.357032 -0.132495 -1.51353e-25)
(0.303062 -0.114567 -1.22836e-22)
(0.237136 -0.091389 -3.78061e-22)
(0.165858 -0.0653433 0)
(0.0949425 -0.0385142 0)
(0.030462 -0.0124139 0)
(0.00950146 -0.00294636 0)
(0.00949432 -0.00295248 3.23804e-22)
(0.0400629 -0.0125031 0)
(0.0819993 -0.0259731 1.22543e-21)
(0.144294 -0.0461967 1.35264e-24)
(0.081783 -0.0259947 4.69933e-24)
(0.0399208 -0.0124633 0)