/*--------------------------------*- C++ -*----------------------------------*\
| =========                 |                                                 |
| \\      /  F ield         | OpenFOAM: The Open Source CFD Toolbox           |
|  \\    /   O peration     | Version:  v1912                                 |
|   \\  /    A nd           | Website:  www.openfoam.com                      |
|    \\/     M anipulation  |                                                 |
\*---------------------------------------------------------------------------*/
FoamFile
{
    version     2.0;
    format      ascii;
    class       surfaceScalarField;
    location    "290";
    object      phi;
}
// * * * * * * * * * * * * * * * * * * * * * * * * * * * * * * * * * * * * * //

dimensions      [0 3 -1 0 0 0 0];
oriented        oriented;


internalField   nonuniform List<scalar> 
7351
(
-3.56738e-06
0.00134661
-1.32728e-05
0.00413164
-2.80848e-06
0.00134942
-3.39315e-05
0.0069499
-1.35543e-05
0.00414239
-3.83772e-06
0.00135327
-6.14722e-05
0.00968816
-3.36191e-05
0.00696997
-1.42313e-05
0.0041528
-2.78332e-06
0.00135607
-9.49753e-05
0.0121666
-6.04656e-05
0.00971501
-3.20717e-05
0.00698782
-1.15591e-05
0.00416159
-2.82053e-06
0.00135891
-0.000143521
0.014183
-9.4807e-05
0.0122009
-5.59661e-05
0.00973892
-3.0402e-05
0.00700668
-1.15006e-05
0.00417028
-2.81087e-06
0.00136173
-0.00018492
0.0155139
-0.000136951
0.0142251
-9.18555e-05
0.0122368
-5.55531e-05
0.00976408
-2.59391e-05
0.00702113
-1.134e-05
0.00417882
-1.81764e-06
0.00136355
-0.000236724
0.0160093
-0.000186077
0.0155631
-0.000132889
0.0142662
-8.61191e-05
0.0122674
-4.57919e-05
0.00978394
-2.27545e-05
0.00703255
-9.35327e-06
0.00418636
-1.7673e-06
0.00136532
-0.000276808
0.0155698
-0.000230413
0.0160537
-0.000177361
0.0156076
-0.00012064
0.0143007
-7.1318e-05
0.0122929
-4.15236e-05
0.00980271
-1.97514e-05
0.00704295
-7.29872e-06
0.00419189
-1.66542e-06
0.00136698
-0.000311125
0.0142472
-0.000279228
0.0156186
-0.000218831
0.0160952
-0.000150748
0.0156377
-9.96195e-05
0.014329
-6.40168e-05
0.0123154
-3.72212e-05
0.00982018
-1.82423e-05
0.00705389
-6.42585e-06
0.00419665
-1.71847e-06
0.0013687
-0.00033554
0.0121657
-0.000322824
0.0142908
-0.000258859
0.0156586
-0.000186253
0.0161307
-0.000130026
0.0156681
-8.27194e-05
0.0143477
-5.22694e-05
0.0123305
-2.77463e-05
0.00982968
-1.52816e-05
0.00706274
-6.93557e-06
0.00420187
-1.73298e-06
0.00137044
-0.000343373
0.00952586
-0.000352057
0.012195
-0.000277234
0.0143092
-0.000206227
0.0156786
-0.000148258
0.0161489
-0.000104196
0.0156896
-6.92494e-05
0.0143647
-4.25786e-05
0.0123453
-2.72764e-05
0.00984168
-1.19293e-05
0.00706774
-4.33348e-06
0.00420447
-1.33276e-06
0.00137178
0.00654716
-0.000193745
-0.000114256
-0.000372601
0.0095464
-0.000286866
0.0122046
-0.000211614
0.0143146
-0.000159295
0.0156896
-0.000112703
0.0161574
-7.88247e-05
0.0156991
-5.11762e-05
0.0143733
-3.56037e-05
0.0123536
-1.81103e-05
0.00984786
-1.19954e-05
0.0070754
-6.05075e-06
0.0042092
-7.07926e-07
0.00137249
0.00655259
-0.000177173
-0.000200859
-0.00215246
0.00211074
-0.000152015
-8.41587e-05
-0.000259747
0.00951929
-0.000190821
0.0121838
-0.000150858
0.0143062
-0.000110098
0.015687
-8.715e-05
0.0161657
-6.48154e-05
0.0157128
-4.52324e-05
0.0143829
-3.07109e-05
0.0123662
-2.27287e-05
0.00985859
-1.15154e-05
0.00708088
-4.82009e-06
0.00421331
-1.44553e-06
0.00137394
0.00648267
-5.96961e-05
-0.000130134
-0.0020931
0.00206931
-0.000153387
-0.000183218
-0.00137928
0.00132139
-6.22983e-05
-3.18244e-05
-2.48934e-05
-0.000141141
0.0094696
-0.000119166
0.0121521
-9.51693e-05
0.0142912
-7.90756e-05
0.0156789
-6.23055e-05
0.0161632
-4.57854e-05
0.0157133
-3.94179e-05
0.0143916
-2.55928e-05
0.0123691
-1.72236e-05
0.00986431
-1.23796e-05
0.00708844
-5.60143e-06
0.00421747
-2.22696e-06
0.00137617
0.00639808
-1.08123e-05
-4.57334e-05
-0.002021
0.00199763
-3.63323e-05
-8.18207e-05
-0.00130371
0.00125947
-3.89391e-05
-7.0218e-05
-8.31209e-05
-8.24144e-05
-0.000417586
0.000390542
-3.52526e-05
-0.000431477
-1.79328e-05
-9.68765e-06
-6.78162e-05
0.00941826
-6.50467e-05
0.012122
-6.19532e-05
0.0142741
-5.07067e-05
0.0156673
-4.32792e-05
0.0161607
-3.76601e-05
0.0157116
-3.18389e-05
0.0143979
-2.50498e-05
0.0123769
-2.16978e-05
0.00987363
-1.34835e-05
0.00709632
-7.66409e-06
0.0042229
-1.21038e-06
0.00137738
0.00634723
-4.69552e-07
-1.65023e-05
-0.00196909
0.00196447
-6.19499e-06
-1.71885e-05
-0.00120663
0.0011763
-8.00437e-07
-5.20323e-06
-2.19433e-05
-7.03104e-06
-0.000320938
0.000301973
-1.99744e-05
-0.000344198
-4.69593e-05
0.000365352
-5.79312e-05
-6.12607e-05
-0.000238831
0.000213339
-9.76031e-06
-0.000252863
-3.90011e-06
-1.63057e-06
-3.50023e-05
0.00938821
-3.85571e-05
0.0120986
-3.70136e-05
0.0142604
-3.79218e-05
0.015662
-3.19325e-05
0.016155
-3.3477e-05
0.0157132
-2.63336e-05
0.0143992
-2.86772e-05
0.0123839
-2.10758e-05
0.00988122
-1.55063e-05
0.00710416
-7.43528e-06
0.00422913
-2.88453e-06
0.00138026
0.00631507
4.02169e-06
-6.86134e-06
-0.00195142
0.00195199
-1.03703e-06
-3.4519e-06
-0.00116057
0.00115438
1.04768e-06
-1.04686e-06
-1.78944e-06
3.29674e-07
-0.000277095
0.000276698
-4.03988e-07
-0.000281797
-5.00184e-07
0.000286715
-6.68497e-06
-2.11227e-06
-0.000108161
8.81869e-05
-0.000155121
0.000176081
-2.06729e-05
-4.03011e-05
-7.07342e-05
6.09741e-05
-7.46342e-05
-1.4596e-05
0.00936425
-2.3499e-05
0.0120851
-2.47059e-05
0.0142472
-2.23948e-05
0.0156525
-2.91814e-05
0.0161507
-2.58405e-05
0.0157127
-3.69289e-05
0.0144074
-3.36978e-05
0.0123965
-2.71904e-05
0.0098929
-1.8585e-05
0.00711531
-1.03508e-05
0.0042366
-1.95653e-06
0.00138223
0.00630101
3.67452e-06
-4.20837e-06
-0.00194583
0.00194896
8.84054e-07
-7.00979e-07
-0.00115094
0.00114963
2.57932e-07
2.50124e-08
-4.99527e-07
4.80953e-07
-0.000274219
0.000275063
2.02546e-07
-0.000275412
1.45948e-07
0.000274949
-4.06634e-08
-1.33111e-07
-7.88898e-05
7.84859e-05
-7.93898e-05
8.15021e-05
4.03011e-05
-6.17003e-06
0.00934692
-6.72446e-06
0.0120671
-1.24744e-05
0.0142373
-2.0006e-05
0.0156433
-2.53418e-05
0.0161502
-3.69807e-05
0.0157128
-3.42057e-05
0.0144079
-3.68111e-05
0.0124062
-3.09171e-05
0.00990523
-2.029e-05
0.00712525
-1.07654e-05
0.00424541
-2.65713e-06
0.00138489
0.00629384
1.89953e-06
-9.00002e-07
-0.00194482
0.0019479
6.03063e-07
-6.82382e-08
-0.00114861
0.00114938
-1.60903e-07
2.71811e-07
-8.6813e-08
4.01578e-07
-0.000274969
0.000275163
6.50777e-08
-0.000275081
1.37148e-07
0.000274789
-2.24831e-07
1.89867e-07
-7.84579e-05
7.86604e-05
-7.8312e-05
7.84451e-05
-1.3934e-07
0.00934034
-6.36414e-06
0.012061
-1.07943e-05
0.0142281
-1.47572e-05
0.0156327
-2.77337e-05
0.016141
-4.11039e-05
0.0157197
-5.07783e-05
0.0144219
-4.38361e-05
0.0124191
-3.6643e-05
0.00992159
-2.57202e-05
0.00714021
-1.12238e-05
0.00425399
-3.42495e-06
0.00138832
0.00629108
1.98948e-06
6.30034e-07
-0.00194713
0.00194765
1.37098e-06
-1.3221e-07
-0.00114877
0.00114938
1.39739e-07
-1.47297e-07
2.1344e-07
3.32994e-07
-0.000275702
0.000275506
3.39066e-08
-0.000275387
-4.34355e-08
0.000275064
1.13667e-08
7.82693e-08
-7.87629e-05
7.8828e-05
-7.86256e-05
7.84357e-05
-3.13207e-07
0.00933428
4.47984e-07
0.0120498
-6.1963e-06
0.0142195
-2.53707e-05
0.0156303
-3.88178e-05
0.0161387
-4.98719e-05
0.0157188
-5.85879e-05
0.0144366
-5.77628e-05
0.0124402
-4.66443e-05
0.00994252
-2.72111e-05
0.00715621
-1.12818e-05
0.00426185
-2.36467e-06
0.00139069
0.00628837
1.91278e-06
4.90564e-07
-0.00194803
0.00194857
1.45135e-06
2.51874e-07
-0.00114852
0.00114995
2.52491e-07
-3.18225e-07
3.3397e-07
3.91599e-07
-0.000275671
0.000275854
-4.2954e-08
-0.000275978
1.59813e-07
0.000275768
-4.78259e-08
1.23269e-07
-7.8874e-05
7.89078e-05
-7.89176e-05
7.88393e-05
5.53595e-06
0.0093292
6.99931e-07
0.0120429
-1.00891e-05
0.0142042
-2.46664e-05
0.0156162
-4.95036e-05
0.0161383
-6.68209e-05
0.015727
-7.22787e-05
0.0144512
-6.79231e-05
0.0124615
-4.96366e-05
0.00996495
-2.96644e-05
0.00717459
-1.4298e-05
0.00427379
-3.07903e-06
0.00139377
0.00628939
2.49181e-06
2.0235e-06
-0.00194814
0.00194976
2.95804e-07
9.22733e-07
-0.00115024
0.00115117
1.95768e-07
3.30336e-07
-3.08382e-07
2.72893e-07
-0.00027624
0.000276453
3.96254e-08
-0.000276703
1.4318e-07
0.000276173
1.41751e-08
-1.3848e-07
-7.91432e-05
7.91002e-05
-7.89834e-05
7.88601e-05
2.29247e-06
0.0093276
-2.6517e-06
0.0120354
-1.93796e-05
0.0141989
-4.26692e-05
0.0156093
-6.95617e-05
0.016141
-9.10427e-05
0.0157458
-9.60932e-05
0.0144793
-7.91853e-05
0.012491
-5.44814e-05
0.00998977
-3.01288e-05
0.00719043
-1.22467e-05
0.00428296
-3.39489e-06
0.00139717
0.00628929
3.884e-07
1.99563e-06
-0.00195048
0.00195182
1.1535e-06
1.30008e-06
-0.00115192
0.00115178
2.59843e-07
1.80411e-07
-1.54859e-07
3.24406e-07
-0.000276558
0.000276999
-2.44938e-07
-0.000276387
1.60442e-07
0.000276214
-6.92874e-08
9.97212e-08
-7.91189e-05
7.91584e-05
-7.89758e-05
7.91143e-05
2.15725e-06
0.0093228
-5.88592e-06
0.0120219
-2.29893e-05
0.0141793
-5.861e-05
0.0155984
-9.06048e-05
0.0161406
-0.000111031
0.0157607
-0.000106592
0.0145067
-8.61759e-05
0.0125227
-5.93827e-05
0.010019
-3.28216e-05
0.007211
-1.35589e-05
0.00429312
-2.85493e-06
0.00140002
0.00628752
1.97597e-06
1.95673e-06
-0.0019536
0.00195263
1.35425e-06
2.15921e-07
-0.00115302
0.00115418
-2.85448e-07
2.75959e-07
-2.74065e-07
3.31026e-07
-0.000277107
0.000277338
2.89519e-08
-0.000277021
9.39576e-08
0.000276842
1.3919e-09
1.45094e-07
-7.93494e-05
7.91045e-05
-7.91889e-05
7.90892e-05
-1.70734e-07
0.00931708
-1.3306e-05
0.0120122
-4.54339e-05
0.0141661
-8.76936e-05
0.0155955
-0.000128104
0.0161577
-0.000138044
0.0157921
-0.000128974
0.0145495
-9.53609e-05
0.0125587
-5.90158e-05
0.0100452
-3.19666e-05
0.00722941
-1.14441e-05
0.0043017
-1.93589e-06
0.00140195
0.00628498
4.94026e-07
1.87551e-06
-0.00195372
0.00195529
4.03356e-07
8.70587e-07
-0.00115372
0.00115509
-1.76007e-07
1.60325e-07
3.25964e-07
3.54251e-07
-0.000277451
0.00027743
-2.64327e-07
-0.000277278
1.04033e-07
0.000277056
8.46792e-09
1.08828e-07
-7.93449e-05
7.93738e-05
-7.9251e-05
7.91059e-05
-2.41852e-06
0.0093062
-2.39395e-05
0.0119908
-6.98287e-05
0.0141482
-0.000126234
0.0155936
-0.000162825
0.0161825
-0.000170233
0.0158334
-0.000135742
0.0145899
-9.83237e-05
0.012598
-6.07349e-05
0.010074
-2.84982e-05
0.00724646
-1.09747e-05
0.00431074
-1.78611e-06
0.00140373
0.00628004
5.66449e-07
1.95241e-06
-0.00195601
0.00195612
3.86824e-07
1.15161e-06
-0.00115544
0.00115588
1.60799e-07
-2.0483e-07
3.45486e-07
1.75226e-07
-0.000278005
0.000277798
3.13433e-08
-0.000277906
6.07092e-08
0.000277727
2.81032e-08
1.75287e-07
-7.95953e-05
7.9331e-05
-7.94912e-05
7.93824e-05
-8.51288e-06
0.00929077
-4.52006e-05
0.0119661
-0.000109428
0.0141314
-0.000170471
0.0156013
-0.000205131
0.0162174
-0.000182862
0.0158805
-0.00014266
0.0146343
-9.59444e-05
0.0126332
-5.14944e-05
0.010097
-2.41043e-05
0.00725959
-8.7587e-06
0.00431771
-1.43522e-06
0.00140516
0.0062704
-8.00796e-07
1.93153e-06
-0.00195708
0.00195726
3.89456e-07
9.92329e-07
-0.00115639
0.00115685
2.65173e-07
-3.36564e-07
3.34509e-07
3.06716e-07
-0.000277906
0.000278309
-2.42152e-07
-0.000278197
8.67641e-08
0.00027808
6.37709e-08
5.75513e-08
-7.9595e-05
7.96262e-05
-7.95344e-05
7.93591e-05
-1.7771e-05
0.00926334
-7.66933e-05
0.0119334
-0.0001616
0.0141226
-0.000228658
0.0156248
-0.000230314
0.0162648
-0.000196626
0.0159345
-0.000142184
0.0146805
-8.60421e-05
0.0126678
-4.67659e-05
0.0101196
-2.06512e-05
0.00727148
-5.80934e-06
0.00432208
-3.79002e-07
0.00140554
0.00625311
-2.5124e-06
2.02758e-06
-0.00195792
0.00195701
1.05329e-07
1.27039e-06
-0.00115777
0.00115767
1.54179e-07
3.35205e-07
3.48568e-07
-2.76152e-07
-0.000278355
0.000278646
-2.57957e-08
-0.000278777
8.51058e-08
0.000278584
5.89578e-08
1.13e-07
-7.98344e-05
7.95922e-05
-7.97476e-05
7.96901e-05
-3.84823e-05
0.00922513
-0.000130446
0.0119022
-0.000234518
0.0141284
-0.000275529
0.01567
-0.00024876
0.0163169
-0.00018785
0.0159802
-0.000126282
0.0147207
-7.32004e-05
0.0126942
-3.87722e-05
0.0101378
-1.70594e-05
0.00728272
-3.44843e-06
0.00432514
-2.2108e-07
0.00140576
0.00622098
-8.37372e-06
2.02597e-06
-0.00195871
0.00195601
1.90326e-07
3.25767e-07
-0.00115876
0.00115888
-1.47765e-07
1.31561e-07
3.08853e-07
-1.27241e-07
-0.000279007
0.000279093
6.86577e-08
-0.000278528
-1.43778e-07
0.000278924
7.00534e-08
1.20587e-07
-7.98491e-05
7.98232e-05
-7.97641e-05
7.96511e-05
-7.69544e-05
0.00917164
-0.000208176
0.0118759
-0.000299218
0.0141521
-0.000296205
0.0157174
-0.000234497
0.0163636
-0.000168983
0.0160229
-0.000107334
0.0147549
-6.33104e-05
0.0127187
-3.24535e-05
0.0101531
-9.89819e-06
0.00728917
-2.64192e-06
0.00432756
7.85315e-07
0.00140497
0.00616372
-1.88532e-05
-8.42279e-07
-0.00195757
0.00195089
-1.69584e-06
4.67059e-07
-0.00115873
0.00115888
-2.90731e-07
3.30893e-07
3.13687e-07
1.63891e-07
-0.000279234
0.000279078
7.71185e-09
-0.000279219
1.16762e-07
0.000279392
9.72792e-09
4.51916e-08
-7.98702e-05
7.99389e-05
-8.00139e-05
7.98933e-05
-0.000146564
0.00911002
-0.000309879
0.0118866
-0.000341582
0.0141975
-0.000284428
0.0157674
-0.000209241
0.0164038
-0.000141248
0.0160568
-8.72515e-05
0.0147788
-4.79709e-05
0.0127342
-1.98956e-05
0.0101631
-5.98549e-06
0.00729251
1.34419e-06
0.004327
1.17297e-06
0.00140379
0.0060741
-4.62826e-05
-1.06619e-05
-0.00195162
0.00193693
-4.15754e-06
-1.57266e-06
-0.00115913
0.00115739
-1.05956e-07
1.44092e-07
3.19102e-07
-9.60655e-08
-0.000279902
0.000279552
5.95901e-08
-0.000279438
-1.32108e-07
0.00027938
1.27022e-08
1.05254e-07
-8.01105e-05
8.01182e-05
-7.99938e-05
7.99486e-05
-0.000277854
0.009078
-0.000369832
0.0119148
-0.000318432
0.0142315
-0.000237746
0.0157959
-0.00016907
0.0164317
-0.000107467
0.016077
-6.40768e-05
0.0147949
-3.41183e-05
0.0127485
-1.1499e-05
0.0101687
-1.19584e-06
0.00729505
2.93834e-06
0.00432523
1.52012e-06
0.00140227
0.00597247
-0.000122067
-5.41599e-05
-0.00193356
0.00190352
-1.62454e-05
-7.29321e-06
-0.00115576
0.00115152
-2.34284e-07
3.12705e-07
3.09752e-07
-2.46818e-07
-0.000279729
0.000279815
-1.93147e-07
-0.000279704
1.19266e-07
0.000279854
1.6955e-08
5.37434e-08
-8.01042e-05
8.01639e-05
-8.02363e-05
8.0131e-05
-0.000386398
0.00909456
-0.00033717
0.0119335
-0.000252674
0.0142464
-0.000183142
0.0158099
-0.00012344
0.0164476
-8.01116e-05
0.016093
-4.26506e-05
0.0148034
-1.7419e-05
0.0127544
-4.9435e-06
0.0101724
2.9041e-06
0.00729508
3.47294e-06
0.00432328
2.82185e-06
0.00139945
0.00596715
-0.000209821
-0.000171256
-0.00187916
0.00182066
-6.35717e-05
-2.97979e-05
-0.00114442
0.00112962
-1.55711e-06
1.17082e-07
3.69579e-07
-5.65614e-07
-0.000280007
0.000279702
6.98133e-08
-0.000279759
6.50508e-08
0.000280111
1.43778e-08
1.05219e-07
-8.03538e-05
8.01606e-05
-8.02346e-05
8.01808e-05
-0.000334078
0.00909147
-0.000238957
0.0119198
-0.00017494
0.0142382
-0.000128857
0.0158154
-8.85473e-05
0.0164561
-5.5847e-05
0.0161062
-2.97106e-05
0.0148157
-1.08061e-05
0.0127602
3.68131e-06
0.0101716
6.4266e-06
0.00729213
7.07896e-06
0.00431902
3.37962e-06
0.00139606
0.00591152
-9.79647e-05
-0.000180489
-0.00178331
0.00175136
-0.000177869
-0.000133906
-0.0011039
0.00105319
-1.0898e-05
-1.96845e-06
-4.34027e-07
-3.6451e-06
-0.000279511
0.000278201
-2.47326e-07
-0.000279565
1.70399e-07
0.000280019
5.28526e-08
-1.12417e-07
-8.03453e-05
8.0415e-05
-8.02802e-05
8.0175e-05
-0.000182886
0.00903539
-0.000146799
0.0118917
-0.000116439
0.0142258
-8.39484e-05
0.0158108
-5.73142e-05
0.0164575
-3.1707e-05
0.0161082
-1.3908e-05
0.0148188
-3.05696e-07
0.0127642
7.82399e-06
0.0101702
1.28929e-05
0.00728631
9.99576e-06
0.0043124
3.79432e-06
0.00139227
0.00580871
-1.78576e-05
-6.22155e-05
-0.0017067
0.0016665
-5.77676e-05
-0.000135828
-0.000971956
0.000924506
-6.65093e-05
-6.39111e-05
-1.45744e-05
-3.80955e-05
-0.000273175
0.000264089
-1.81202e-06
-0.000274553
-5.90714e-07
0.000277977
-2.09192e-07
-2.21218e-07
-8.05256e-05
8.02782e-05
-8.03553e-05
8.04678e-05
-8.52684e-05
0.00897387
-8.1184e-05
0.0118564
-6.90373e-05
0.0142109
-5.21076e-05
0.0158056
-3.35347e-05
0.0164594
-1.52125e-05
0.0161095
-5.42187e-07
0.0148191
1.19673e-05
0.0127601
1.58121e-05
0.0101673
1.44776e-05
0.00728183
9.50881e-06
0.00430668
4.81383e-06
0.00138745
0.00574163
1.48267e-07
-1.83414e-05
-0.00162731
0.00161663
-7.18315e-06
-2.30325e-05
-0.000857435
0.000807764
-1.35315e-06
-6.74497e-06
-4.90363e-05
-1.97207e-05
-0.000184313
0.000158442
-4.06392e-05
-0.000225695
-2.25291e-05
0.000253583
-4.06842e-06
-1.02082e-05
-7.92572e-05
7.74451e-05
-7.98479e-05
8.00691e-05
-4.0367e-05
0.00893304
-4.28368e-05
0.0118302
-3.8109e-05
0.0141969
-2.89708e-05
0.015801
-1.57978e-05
0.0164599
-2.87449e-06
0.0161118
1.2955e-05
0.0148181
1.58537e-05
0.01276
2.06589e-05
0.0101611
1.75295e-05
0.00727381
1.35861e-05
0.00429791
5.06222e-06
0.00138239
0.00570522
3.29551e-06
-7.2573e-06
-0.00160195
0.00160245
-3.58764e-07
-3.65427e-06
-0.000785435
0.000778242
2.82968e-07
-2.74845e-07
-7.31031e-07
2.64562e-08
-8.29405e-05
8.15872e-05
-8.96855e-05
0.000109406
-4.06392e-05
-6.31684e-05
7.33766e-05
-1.7969e-05
0.00890818
-2.16846e-05
0.0118138
-1.83637e-05
0.0141863
-7.34052e-06
0.0157925
5.20445e-07
0.0164566
1.2758e-05
0.016112
1.58837e-05
0.014818
2.52978e-05
0.0127554
2.48792e-05
0.0101538
2.31728e-05
0.00726422
1.5656e-05
0.00428732
5.8723e-06
0.00137652
0.00568772
3.88666e-06
-4.35795e-06
-0.0015962
0.00159837
1.12249e-06
-1.00717e-06
-0.000774511
0.000774091
1.15302e-07
-5.5992e-08
-4.34759e-08
1.20032e-07
-8.06075e-05
8.08902e-05
-8.08825e-05
8.0856e-05
-4.51816e-06
0.008891
-8.25563e-06
0.0118037
-3.47257e-06
0.0141824
3.49772e-06
0.0157895
1.42059e-05
0.0164551
1.99416e-05
0.016108
3.18055e-05
0.0148115
3.25721e-05
0.0127477
3.24515e-05
0.0101445
2.77406e-05
0.00725213
1.73953e-05
0.00427579
6.79792e-06
0.00136972
0.00568182
3.471e-06
-2.09305e-06
-0.00159392
0.00159772
8.02548e-08
9.29559e-08
-0.000772819
0.00077386
1.9164e-07
-1.13336e-07
1.01231e-07
1.62042e-07
-8.09106e-05
8.10255e-05
-8.09667e-05
8.08466e-05
-2.21412e-07
0.00888297
2.26282e-06
0.011798
5.53569e-06
0.0141804
1.18686e-05
0.0157919
2.39939e-05
0.016451
3.06742e-05
0.0161091
3.19399e-05
0.0148122
3.61759e-05
0.012744
3.48887e-05
0.0101373
3.11208e-05
0.00723841
2.0673e-05
0.00426192
7.78436e-06
0.00136193
0.00567981
2.75296e-06
-9.65136e-07
-0.00159526
0.00159786
8.74098e-07
3.59626e-07
-0.000773791
0.000773982
3.26841e-08
-1.45505e-07
8.72441e-08
7.4368e-08
-8.11748e-05
8.1366e-05
-8.12885e-05
8.11264e-05
2.72414e-06
0.0088825
8.91342e-06
0.0117946
1.57742e-05
0.0141764
2.32051e-05
0.0157927
2.71024e-05
0.0164546
4.05527e-05
0.0161005
4.62778e-05
0.0148021
4.83835e-05
0.0127305
4.27268e-05
0.0101257
3.5913e-05
0.00722317
2.3112e-05
0.00424659
8.75217e-06
0.00135318
0.00567968
2.7892e-06
6.32026e-08
-0.00159706
0.00159891
8.9834e-07
-1.70091e-07
-0.000774222
0.000775166
4.6742e-08
-1.19179e-07
5.86786e-08
5.92292e-08
-8.13818e-05
8.1414e-05
-8.15275e-05
8.14531e-05
7.19328e-06
0.00888423
1.39876e-05
0.0117964
1.83482e-05
0.0141813
3.22358e-05
0.0157875
4.21827e-05
0.016453
4.70224e-05
0.0160997
4.95806e-05
0.0148009
5.36126e-05
0.0127196
5.06528e-05
0.010111
4.1312e-05
0.00720497
2.69017e-05
0.00422844
9.62894e-06
0.00134355
0.00568383
2.88412e-06
1.54678e-07
-0.00159832
0.0016005
6.07813e-07
6.60478e-07
-0.000774863
0.000775733
-5.85309e-08
8.61806e-08
6.39754e-08
6.91833e-08
-8.1412e-05
8.14583e-05
-8.15315e-05
8.14723e-05
8.49586e-06
0.00888971
1.54276e-05
0.0117993
2.79106e-05
0.0141856
3.54123e-05
0.0157943
4.41718e-05
0.0164558
5.4423e-05
0.0160949
6.17057e-05
0.0147928
6.06665e-05
0.0127096
5.82385e-05
0.0100941
4.51751e-05
0.00718669
2.99824e-05
0.00420809
1.09641e-05
0.00133259
0.00568792
3.05897e-06
1.34641e-06
-0.00159996
0.0016022
6.43891e-07
6.95026e-07
-0.000776251
0.000776748
5.11235e-08
6.00339e-08
6.64924e-08
7.51191e-08
-8.16777e-05
8.16189e-05
-8.15915e-05
8.15223e-05
1.04766e-05
0.00889467
1.98992e-05
0.0118073
2.90689e-05
0.014192
4.19743e-05
0.0157965
5.52579e-05
0.016455
6.27959e-05
0.0160938
7.09997e-05
0.0147824
7.0133e-05
0.0126977
6.58349e-05
0.0100734
5.39424e-05
0.00716273
3.24764e-05
0.00418657
1.18667e-05
0.00132072
0.00569494
3.05929e-06
3.96634e-07
-0.00160281
0.00160507
7.99371e-07
7.31495e-07
-0.000777507
0.000778038
5.55447e-08
5.78043e-08
-1.17071e-07
5.28275e-08
-8.18202e-05
8.18711e-05
-8.17604e-05
8.16852e-05
1.17426e-05
0.00890281
2.18932e-05
0.0118145
3.53498e-05
0.0141986
4.67786e-05
0.015805
6.17015e-05
0.0164561
7.22816e-05
0.0160925
7.77519e-05
0.0147748
8.42133e-05
0.0126793
7.54148e-05
0.0100519
6.04432e-05
0.00713477
3.77817e-05
0.00416066
1.21551e-05
0.00130857
0.00570208
3.11222e-06
1.48946e-06
-0.0016047
0.00160701
7.43915e-07
7.66321e-07
-0.000778572
0.000779359
9.30836e-08
-8.19068e-08
6.87143e-08
1.27357e-07
-8.18648e-05
8.19201e-05
-8.18069e-05
8.17541e-05
1.18099e-05
0.00891291
2.45045e-05
0.0118253
4.14699e-05
0.0142039
5.88289e-05
0.0158079
7.2057e-05
0.0164563
8.56718e-05
0.0160846
9.34434e-05
0.0147656
9.28085e-05
0.0126619
8.60093e-05
0.0100264
6.62421e-05
0.00710631
4.02403e-05
0.00413257
1.05655e-05
0.001298
0.00571079
2.75521e-06
3.39084e-07
-0.00160772
0.00161007
7.5732e-07
7.78472e-07
-0.000779979
0.000780786
4.86558e-08
-1.12919e-07
7.31008e-08
7.34298e-08
-8.20338e-05
8.21266e-05
-8.2116e-05
8.19886e-05
1.31594e-05
0.00892424
2.85022e-05
0.0118383
4.60515e-05
0.0142167
6.52028e-05
0.0158147
8.08321e-05
0.0164612
9.39152e-05
0.0160841
0.000105525
0.0147529
0.00010165
0.0126463
9.51404e-05
0.00999747
7.53984e-05
0.00707115
4.29926e-05
0.00410015
1.31389e-05
0.00128486
0.0057219
1.16262e-06
8.92471e-07
-0.00160973
0.00161202
4.65632e-07
6.76975e-07
-0.000781424
0.000782235
-1.12768e-07
5.8068e-08
6.89588e-08
7.03134e-08
-8.21601e-05
8.22084e-05
-8.22731e-05
8.21996e-05
1.63135e-05
0.00893645
3.29701e-05
0.0118514
5.53203e-05
0.0142266
7.1589e-05
0.015824
9.24203e-05
0.0164627
0.000107839
0.0160818
0.000117049
0.0147375
0.000119984
0.0126214
0.000106767
0.0099661
8.13563e-05
0.00703279
4.35171e-05
0.00406977
3.16149e-05
0.00125325
0.00573349
2.62909e-06
2.10072e-06
-0.00161304
0.00161599
-1.79005e-06
-1.23675e-07
-0.000782768
0.000783034
1.1214e-07
8.72951e-08
6.43866e-08
7.94126e-08
-8.24052e-05
8.22921e-05
-8.23474e-05
8.22771e-05
2.00045e-05
0.0089494
3.97023e-05
0.011867
5.89311e-05
0.0142392
8.40767e-05
0.0158323
0.000105713
0.0164648
0.00012365
0.0160752
0.00013274
0.0147247
0.000128676
0.0125995
0.000118744
0.00992872
8.66281e-05
0.00698967
7.41135e-05
0.00402727
7.37897e-05
0.00574382
5.48108e-06
4.19534e-06
-0.00162157
0.00161914
-1.46624e-06
6.5281e-06
-3.47862e-06
-0.000783003
0.000781209
1.0644e-08
-6.74144e-09
3.5176e-08
-1.28191e-07
-8.25232e-05
8.26351e-05
-8.24359e-05
8.23565e-05
2.44275e-05
0.00896469
4.17403e-05
0.0118842
6.68314e-05
0.0142565
9.07839e-05
0.0158472
0.000115535
0.0164729
0.000134835
0.0160731
0.000146707
0.0147067
0.000147848
0.0125704
0.000127129
0.00988821
0.000114714
0.00694907
0.000135627
0.00575753
5.47555e-06
5.24272e-06
-0.00162188
0.00162362
2.32762e-06
1.41042e-06
2.00901e-06
-5.47952e-07
-0.000486248
0.000491642
-6.86007e-06
-0.000461004
-1.87148e-05
0.000316985
-8.62275e-09
-2.47543e-07
-8.25349e-05
8.25454e-05
-8.25418e-05
8.267e-05
2.40775e-05
0.00898233
4.87788e-05
0.0119022
7.49478e-05
0.0142723
0.000107765
0.015855
0.000135384
0.0164724
0.0001548
0.016065
0.000165121
0.0146894
0.000161973
0.0125356
0.000154893
0.00984804
0.000178968
0.00577293
4.29865e-06
4.38915e-06
-0.00162575
0.00162903
1.41467e-06
7.7586e-07
1.85661e-06
1.25955e-06
-0.000497025
0.000498137
1.21465e-06
-0.000496178
5.63857e-07
-0.000493469
-7.00341e-07
-2.37511e-06
-0.000295201
0.000289707
-1.36405e-06
3.06886e-06
8.25372e-05
8.22901e-05
2.74138e-05
0.00900371
5.34088e-05
0.0119238
8.56573e-05
0.0142944
0.0001171
0.0158733
0.000145735
0.0164814
0.000171428
0.0160587
0.000177726
0.0146737
0.000186979
0.0125035
0.000210602
0.00578998
4.75013e-06
5.60203e-06
-0.00163146
0.00163407
1.04329e-06
6.49254e-07
1.34142e-06
6.17292e-07
-0.000500341
0.000500958
7.96829e-07
-0.000499793
2.28197e-07
-0.000498738
8.00658e-07
6.58732e-07
-0.000288569
0.000289689
9.44204e-08
-0.000288062
5.60911e-08
-0.000288393
-3.68671e-07
-1.06184e-06
-8.53589e-05
8.39953e-05
3.01784e-05
0.00902693
6.1726e-05
0.0119477
9.7176e-05
0.0143143
0.000134631
0.0158844
0.000165721
0.0164871
0.000183061
0.0160534
0.000207905
0.0146527
0.000228965
0.00580886
5.21715e-06
6.08835e-06
-0.00163778
0.00164064
1.15631e-06
7.3569e-07
1.14494e-06
7.51112e-07
-0.000502286
0.000502793
5.35967e-07
-0.000502044
4.07683e-07
-0.00050092
2.17466e-07
6.55264e-07
-0.000290671
0.000291306
1.62447e-07
-0.000290632
1.88882e-07
-0.000290082
2.50614e-07
2.65431e-07
-8.26209e-05
8.27152e-05
-8.25649e-05
-8.29335e-05
3.62113e-05
0.00905245
6.82238e-05
0.0119766
0.000109608
0.0143394
0.000147861
0.0159023
0.00017615
0.016494
0.000211474
0.0160498
0.000234557
0.00583343
5.91632e-06
5.72448e-06
-0.00164466
0.00164787
1.19314e-06
8.14755e-07
1.23405e-06
8.34091e-07
-0.000504182
0.000505128
2.10074e-07
-0.000503912
4.65722e-07
-0.000503221
4.53467e-07
3.23132e-07
-0.000292354
0.000292775
1.15144e-07
-0.000292064
1.17856e-07
-0.000291803
-4.4379e-08
1.58658e-07
-8.342e-05
8.35824e-05
-8.32312e-05
-8.29806e-05
3.89345e-05
0.00908173
8.0674e-05
0.0120056
0.000124645
0.0143626
0.000161211
0.0159172
0.00020003
0.0165055
0.000223635
0.0058583
6.5283e-06
7.54057e-06
-0.00165116
0.00165502
1.32429e-06
7.31017e-07
1.52198e-06
9.15518e-07
-0.00050665
0.000507241
6.02528e-07
-0.000505916
8.07114e-08
-0.000505185
5.02788e-07
7.77321e-07
-0.000293806
0.00029388
1.3661e-07
-0.000293301
-3.97065e-08
-0.000292977
1.29669e-07
1.21912e-07
-8.38146e-05
8.39298e-05
-8.36967e-05
-8.37411e-05
4.66743e-05
0.00911574
9.12833e-05
0.012039
0.000134475
0.0143893
0.000175417
0.0159418
0.00019884
0.00588824
7.74715e-06
8.98327e-06
-0.00165979
0.00166387
1.5262e-06
9.30102e-07
1.67597e-06
1.09184e-06
-0.000508986
0.000509637
6.73016e-07
-0.000508759
5.04603e-07
-0.000507381
1.43708e-07
7.75608e-07
-0.000294781
0.000295446
-6.16498e-08
-0.000294824
1.23435e-07
-0.000294471
1.49711e-07
1.86247e-07
-8.41418e-05
8.42784e-05
-8.41815e-05
-8.40517e-05
5.55489e-05
0.00915146
0.000106803
0.0120666
0.000146469
0.0144183
0.000160184
0.00592384
9.88017e-06
1.0072e-05
-0.00166965
0.00167451
1.72202e-06
1.1632e-06
1.90034e-06
1.30276e-06
-0.000511652
0.00051267
5.07675e-07
-0.000511331
6.10208e-07
-0.000510265
6.09328e-07
4.64031e-07
-0.000296406
0.000297108
-2.76872e-08
-0.000296097
1.95287e-07
-0.000296082
1.28337e-07
1.40434e-07
-8.47379e-05
8.46764e-05
-8.46145e-05
-8.44647e-05
7.01013e-05
0.00918818
0.000111833
0.0121013
0.000117512
0.00596563
1.46056e-05
1.37043e-05
-0.00168089
0.00168745
1.39084e-06
1.92761e-06
1.57857e-06
2.10853e-06
-0.000515135
0.000515894
9.62383e-07
-0.000514288
3.15473e-07
-0.000513118
7.30528e-07
8.54039e-07
-0.000298298
0.000298628
1.77825e-07
-0.000297862
1.74247e-07
-0.000297418
1.65288e-07
1.53555e-07
-8.51406e-05
8.5113e-05
-8.49453e-05
-8.48168e-05
8.191e-05
0.00921809
7.37711e-05
0.0060051
2.35681e-05
1.88675e-05
-0.00169616
0.00170443
3.4433e-06
2.88168e-06
2.48543e-06
2.51566e-06
-0.000519345
0.000519699
1.03589e-06
-0.000518225
8.06656e-07
-0.000517058
4.10708e-07
9.4447e-07
-0.000300093
0.000300867
1.88216e-07
-0.000299959
1.81317e-07
-0.000299257
2.8401e-08
2.25094e-07
-8.56062e-05
8.5784e-05
-8.5432e-05
-8.52666e-05
4.42301e-05
1.55991e-05
4.24597e-05
-0.00171508
0.00172625
7.46475e-06
4.92539e-06
4.13331e-06
4.08712e-06
-0.000524636
0.000526139
1.9393e-06
-0.000522982
1.22721e-06
-0.000521131
6.3338e-07
1.08383e-06
-0.000302587
0.000303425
1.96402e-07
-0.00030181
2.91884e-08
-0.000301604
2.04853e-07
2.06969e-07
-8.62188e-05
8.64068e-05
-8.60375e-05
-8.60091e-05
-0.0017439
8.83786e-06
2.14206e-05
1.48063e-05
1.00014e-05
-0.000532821
0.000536554
3.72968e-06
-0.000530367
2.47029e-06
-0.000528501
2.26611e-06
1.72506e-06
-0.000305598
0.000307153
3.83152e-07
-0.000304673
3.01559e-07
-0.000304282
2.4165e-07
2.26616e-07
-8.68476e-05
8.70435e-05
-8.68185e-05
-8.66137e-05
-0.000550288
1.33301e-05
-0.000544107
1.52383e-05
-0.000539636
1.03337e-05
6.91812e-06
-0.000311981
0.000314723
9.86951e-07
-0.000310114
6.01957e-07
-0.000308451
6.0254e-07
4.27293e-07
-8.78128e-05
8.81955e-05
-8.75115e-05
-8.72701e-05
-0.000330424
2.05669e-05
-0.000325191
1.00044e-05
-0.0003196
4.74214e-06
2.04018e-06
-8.98269e-05
9.08133e-05
-8.92252e-05
-8.86228e-05
-0.000107599
-9.75953e-05
-9.28534e-05
-1.41847e-05
1.4183e-05
7.36311e-06
-2.15419e-05
-6.08614e-05
5.43059e-05
2.07364e-05
2.01845e-05
-7.36745e-05
3.65802e-06
-2.5193e-05
1.68429e-05
3.74576e-05
-0.000121296
0.000114164
2.78652e-05
3.10206e-05
-0.000132123
1.2397e-05
-8.24017e-05
1.6309e-06
-2.6815e-05
2.38247e-05
0.000107177
7.11361e-06
3.03397e-05
-0.000419759
6.68824e-05
0.000404576
-1.95651e-05
7.13339e-05
-0.000440476
-0.000139286
7.34149e-06
-8.80988e-05
8.57832e-07
-2.76657e-05
1.53152e-05
9.89729e-05
2.49401e-06
2.7846e-05
-4.40949e-05
-0.00146221
0.00140883
0.00016434
-7.16963e-06
0.000382968
-4.57359e-05
0.000175742
-0.00152079
-1.52631e-05
-0.000462845
-8.07791e-06
-0.000147204
4.27281e-06
-9.15054e-05
3.66239e-07
-2.80297e-05
9.42989e-05
1.09417e-06
2.67566e-05
-2.63425e-05
0.000118716
-0.0020436
0.00198095
0.000226985
-4.58227e-06
-2.03351e-06
0.000241466
-0.00210927
-3.43929e-05
0.000147041
-0.00161202
-2.12912e-05
-0.000486134
-7.10349e-06
-3.98409e-06
-0.000151009
2.57086e-06
-9.37074e-05
3.87695e-07
-2.84154e-05
9.08128e-05
5.19954e-07
2.62412e-05
0.000198416
-0.00236766
0.00230058
0.000294056
8.93004e-05
0.00030995
-0.00243609
0.000236712
-0.00219885
0.000132216
-2.09038e-05
-0.00170537
-1.78567e-05
-0.00050017
-4.37071e-06
-2.87132e-06
-0.00015554
-1.80356e-06
-0.000157716
-9.51222e-05
3.35093e-07
-2.87479e-05
2.5496e-07
0.000272773
-0.00242194
0.00236144
0.000354541
0.00037015
-0.0024821
0.000317822
-0.00251712
0.00023393
-0.00230048
-0.000514317
-3.33904e-06
-3.40726e-06
0.00013894
-2.09799e-05
-0.00180077
-2.24857e-05
-0.000525529
-4.85431e-06
-1.77893e-06
-0.00016037
-1.71325e-06
-0.000161818
-1.42179e-06
-9.64996e-05
3.22932e-07
-2.90698e-05
0.000336878
-0.00219081
0.0021468
0.000398541
0.000411755
-0.00223238
0.000383209
-0.0025474