/*--------------------------------*- C++ -*----------------------------------*\
| =========                 |                                                 |
| \\      /  F ield         | OpenFOAM: The Open Source CFD Toolbox           |
|  \\    /   O peration     | Version:  v1912                                 |
|   \\  /    A nd           | Website:  www.openfoam.com                      |
|    \\/     M anipulation  |                                                 |
\*---------------------------------------------------------------------------*/
FoamFile
{
    version     2.0;
    format      ascii;
    class       surfaceScalarField;
    location    "450";
    object      phi;
}
// * * * * * * * * * * * * * * * * * * * * * * * * * * * * * * * * * * * * * //

dimensions      [0 3 -1 0 0 0 0];
oriented        oriented;


internalField   nonuniform List<scalar> 
7354
(
-3.47666e-05
0.00993346
-0.000159994
0.0100949
0.00076387
0.00916976
-0.000365012
0.0102383
0.00121046
0.00964833
0.00285659
0.00313587
0.00317769
-0.000600666
0.0102814
0.0013403
0.0101085
0.00465899
0.00358568
0.00426025
0.00195411
0.000584805
0.000597601
0.00395943
0.000604919
0.000567464
-0.000865623
0.0102956
0.00133474
0.0102869
0.00536141
0.00460186
0.00480417
0.00558235
0.00122982
0.000732931
0.00639806
0.00177702
0.00166753
-0.000598069
0.00118287
-0.00175034
0.00235526
-0.00116553
0.0103131
0.00119912
0.0104312
0.00533321
0.0103151
0.00708937
0.00203477
0.00187577
0.00713891
0.00475464
-0.00308819
0.00431801
-0.00431836
0.00473636
0.00135901
0.00166719
-0.00149805
0.0103347
0.000932476
0.0105798
0.00479767
0.0109667
-0.0098097
0.016063
0.00532343
0.00587729
-0.00515804
0.00525382
0.00193899
0.00145409
-0.00425841
0.00231192
0.00214526
-0.00166719
0.0030262
-0.00185659
0.010356
0.000548912
0.0107183
0.00403453
0.0113429
0.0139571
0.0130726
0.00599139
-0.00313418
0.00418975
-0.00172353
0.006216
0.00565268
-0.00448029
0.00216087
-0.00265106
0.0018288
-0.00216087
0.00165507
-0.00223503
0.0103753
7.22193e-05
0.0108327
0.00319974
0.0115531
0.0114231
0.0138769
-0.00318977
0.00988563
0.0125927
0.00218559
0.00292054
-0.000371064
-0.000545324
-0.00112905
0.00123431
0.0046485
0.000526022
-0.00262922
0.0103925
-0.000472981
0.0109205
0.00233925
0.0116932
0.00897465
0.0140015
0.0089648
0.0147977
-0.00161474
0.0044797
0.0110256
-0.00129787
0.000861589
-0.000110811
0.00224346
-7.36989e-05
-0.000931696
0.00066863
-0.000107999
-0.000242709
0.00389535
0.000283313
-0.00303407
0.0104055
-0.00106558
0.0109851
0.00146063
0.0117992
0.00676877
0.0138991
0.00746044
0.0155058
0.00474776
0.0145297
0.00162966
0.00989341
-9.67566e-05
-0.000400655
-0.000637656
0.00323513
0.000576866
-1.90465e-05
0.00177555
-8.14874e-05
-8.82571e-05
0.000516049
-1.28818e-05
0.000175314
-0.00344825
0.0104172
-0.00169113
0.011031
0.000566614
0.0118791
0.00481636
0.0137516
0.00582178
0.0155378
0.00420191
0.0160517
0.00225844
0.0139009
0.000305464
0.00919122
0.000239544
0.00015718
-0.00299517
0.00290688
-8.4664e-06
-0.00016069
0.000156267
0.00164407
-2.28331e-05
-6.37478e-06
-0.000448011
0.000389137
-2.26133e-05
-2.02196e-05
0.000143385
-0.00387038
0.0104271
-0.0023396
0.0110656
-0.000339173
0.0119368
0.00307259
0.0136229
0.00421929
0.015354
0.0032929
0.0164468
0.0022278
0.0160823
0.000962441
0.0132439
-2.18959e-05
0.00886511
0.000114041
0.000233966
-0.00288335
0.00287117
0.00025172
0.000180708
0.00163687
4.01695e-06
-5.27667e-06
0.000368192
-1.88747e-06
0.00036285
-1.03132e-06
-0.000123166
0.000100552
-0.00429718
0.0104338
-0.00300476
0.0110923
-0.0012522
0.0119787
0.00148518
0.0135242
0.00269506
0.0151471
0.00226501
0.0163819
0.00176203
0.0169125
0.00117666
0.0158681
0.000424841
0.0127972
7.41469e-05
0.00876636
-2.71046e-05
5.17135e-05
-0.00286966
0.00288342
0.000100284
0.000235479
-0.00171853
0.00175109
0.000113419
0.000105746
2.91218e-05
6.99223e-05
-0.000357965
0.000362557
-5.74565e-07
-3.9211e-07
9.86649e-05
9.76336e-05
-0.00473082
0.0104416
-0.0036866
0.0111156
-0.00217019
0.0120103
1.00921e-05
0.0134537
0.00124432
0.0149749
0.00121551
0.0161966
0.0010911
0.0170529
0.000978482
0.0171107
0.000652248
0.0156407
0.000299081
0.0125723
9.29892e-05
-6.38298e-05
0.00873721
-0.00289361
0.00272627
0.00014023
4.15255e-05
-0.00180197
0.00185849
8.45964e-06
3.53032e-05
0.000124859
5.97374e-05
-0.000455556
0.000483348
8.56267e-05
-0.00042058
7.07687e-05
0.000380936
1.07428e-05
3.02791e-05
-9.72415e-05
9.6667e-05
-0.00516694
0.0104471
-0.00437968
0.0111347
-0.0030921
0.0120375
-0.00138721
0.0134076
-0.000149772
0.0148478
0.000171713
0.0160187
0.000346732
0.016941
0.00053984
0.0174915
0.000571741
0.0171912
0.000454209
0.0154856
0.000246603
0.0124187
-0.00205169
0.00475051
-1.05385e-05
-2.58376e-05
-6.50652e-06
0.000135861
0.00860786
-0.00189436
-1.21692e-05
-4.92545e-06
7.63515e-06
-1.98597e-06
-0.00057082
0.000575896
3.38347e-06
-0.00055071
1.51929e-05
0.000526565
8.16421e-05
3.55926e-05
-0.000208457
0.000237547
5.65375e-05
-0.000137689
0.00010741
-0.00560758
0.0104536
-0.00508779
0.0111552
-0.00402075
0.0120634
-0.00273981
0.0133901
-0.00150727
0.0147651
-0.000863573
0.0158831
-0.000419468
0.0167849
-8.88926e-06
0.0174897
0.000265476
0.0177978
0.000404974
0.0172405
0.000372362
0.0153598
0.000180718
0.0122314
0.00476498
0.000108968
1.24266e-05
-0.00087829
0.000870117
-1.46866e-06
-8.95975e-07
-0.000530621
-2.45173e-07
-1.18948e-06
-0.000372071
-3.8897e-05
0.000254115
0.00839265
-0.000575321
3.25308e-05
-0.0005801
-1.46539e-07
0.000581605
1.92614e-06
-4.80796e-07
-0.000330897
0.000334275
5.53668e-09
-0.000318079
2.37496e-06
0.00029112
2.80681e-05
8.63391e-06
5.65375e-05
-0.00605431
0.0104607
-0.00580898
0.0111748
-0.0049529
0.0120874
-0.00407772
0.0134013
-0.00284448
0.0147274
-0.00189466
0.0157961
-0.00118923
0.0166529
-0.000596225
0.0173723
-0.000155139
0.0179103
0.000171079
0.0180317
0.000350118
0.0172627
0.000323054
0.0152175
0.000175205
0.0120173
0.00466788
0.000168943
0.000182273
-0.00088257
0.000963851
2.25862e-05
5.10141e-06
1.18338e-06
-1.20961e-06
-8.93231e-05
8.78545e-05
-9.02191e-05
-9.04642e-05
-9.16537e-05
-0.00033645
-3.09001e-06
4.68258e-05
4.99148e-05
0.00829591
-0.000335877
-7.19408e-07
0.000335927
2.73673e-07
-4.30514e-07
-9.56144e-05
9.56199e-05
-9.32394e-05
8.46055e-05
-0.00650606
0.0104667
-0.00654101
0.0111927
-0.00589297
0.0121149
-0.00543712
0.0134468
-0.0041815
0.0147383
-0.00292395
0.0157567
-0.00195795
0.0165649
-0.00119463
0.0172513
-0.000622863
0.01784
-0.000176284
0.0182577
0.000162694
0.0182191
0.000328063
0.0172577
0.000317475
0.0150752
0.000190515
0.0118736
0.00468707
-1.96341e-05
5.03551e-05
-0.00101679
0.00108629
2.56493e-05
7.37978e-05
7.11473e-05
5.81839e-05
-9.29297e-05
0.000115516
-8.78282e-05
-8.66449e-05
-9.47437e-05
0.000121764
-7.17229e-05
0.00824587
-9.54631e-05
9.58936e-05
-0.00696611
0.010476
-0.00728648
0.0112122
-0.00684519
0.012145
-0.00684666
0.0135244
-0.00553475
0.0148
-0.00395694
0.0157713
-0.00272544
0.0165241
-0.00179382
0.0171641
-0.0011058
0.0177342
-0.00057073
0.0182344
-0.000133326
0.0185537
0.000179077
0.0183681
0.000329217
0.017246
0.00029962
0.0149661
0.00020489
0.0117905
0.00466213
-2.91035e-05
-1.7674e-05
-0.00112828
0.00111979
-7.55461e-06
-3.58156e-06
-1.33459e-06
9.69688e-06
-0.000248289
0.000266845
7.09333e-06
-0.00019824
2.37492e-05
-0.0001737
4.66071e-05
0.000107435
-6.36141e-05
0.00820204
-0.00743343
0.0104843
-0.00803744
0.011227
-0.00781239
0.0121794
-0.00834189
0.0136402
-0.00691997
0.0149097
-0.00499315
0.0158362
-0.00348886
0.0165347
-0.00239109
0.0171214
-0.00158983
0.0176481
-0.000980924
0.0181444
-0.000483248
0.0185844
-8.23151e-05
0.0188151
0.000197885
0.0184994
0.000305441
0.0172402
0.000272557
0.0148985
0.000173899
0.011724
0.00463365
-1.5435e-05
-1.97002e-05
-0.00110806
0.00108927
-5.93106e-06
-4.37382e-06
-3.14583e-06
-2.80598e-06
-0.000272355
0.000266886
-2.08499e-06
-0.000274345
-1.59157e-06
-0.000274926
-7.54024e-07
1.61683e-06
-7.03563e-05
7.74497e-05
-4.66071e-05
1.00471e-06
5.02618e-05
0.00815077
-0.00790806
0.0104936
-0.00878895
0.0112359
-0.00880591
0.0122205
-0.00996832
0.0138059
-0.00836237
0.0150826
-0.00604068
0.0159572
-0.00425239
0.0165998
-0.00298346
0.0171271
-0.00206881
0.0176004
-0.00139137
0.0180585
-0.000850146
0.0185113
-0.000401437
0.0189035
-4.15914e-05
0.0190546
0.000187053
0.0186178
0.000264812
0.0172479
0.000225996
0.0148464
8.69278e-05
0.0116381
0.00465733
3.2687e-05
-6.11056e-06
-0.00107379
0.00106582
-4.02461e-06
-3.43805e-06
-1.76603e-06
-2.45826e-06
-0.000258899
0.000254675
-1.70707e-06
-0.000261896
-1.37638e-06
-0.000264235
-8.07165e-07
-1.54753e-07
-7.67209e-05
7.46359e-05
-7.83125e-05
-7.90665e-05
-0.00010749
0.000217841
0.00804042
-0.00838889
0.0105008
-0.00953178
0.0112364
-0.00984222
0.0122722
-0.0117801
0.0140323
-0.00988137
0.0153249
-0.00710337
0.0161453
-0.00501645
0.0167213
-0.00357201
0.0171883
-0.00254683
0.0176051
-0.00180059
0.0180096
-0.00121854
0.0184269
-0.00074131
0.0188512
-0.000343002
0.0192049
-3.66104e-05
0.0192782
0.000150325
0.0187323
0.000213247
0.0172606
0.000151242
0.014782
9.61505e-06
0.011521
0.00462565
0.000155232
9.42848e-05
-0.00106172
0.00109099
4.60618e-06
-1.19919e-06
1.00319e-07
-2.11032e-06
-0.00024847
0.000245771
-1.32572e-06
-0.000250827
-1.08156e-06
-0.000252117
-4.76432e-07
9.97747e-08
-7.22977e-05
7.05906e-05
-7.3674e-05
-7.44812e-05
-0.000119042
0.000206571
0.00795288
-0.00886839
0.0105035
-0.0102537
0.0112228
-0.0109538
0.012348
-0.0138464
0.0143384
-0.0115004
0.0156514
-0.00818787
0.0164094
-0.00578265
0.0169115
-0.00415727
0.0173065
-0.00301982
0.0176613
-0.00220353
0.0180081
-0.00158612
0.0183772
-0.0010888
0.0187744
-0.000670773
0.019179
-0.000323167
0.0194915
-6.01201e-05
0.0194887
0.000101312
0.0188442
0.000143686
0.0172682
8.46961e-05
0.014707
-2.24466e-05
0.0114244
0.00460933
6.08911e-05
0.000162006
-0.00113039
0.00115472
7.02381e-05
6.06726e-05
3.93279e-05
1.55566e-05
-0.000243298
0.000247661
2.4256e-07
-0.000243823
-6.74432e-07
-0.000243485
-2.37694e-07
1.75374e-07
-6.91323e-05
6.78066e-05
-7.02139e-05
-7.06904e-05
-3.79163e-05
4.90587e-05
0.00794173
-0.00934189
0.0105045
-0.0109491
0.0111989
-0.012184
0.012453
-0.0162346
0.0147363
-0.013227
0.016065
-0.0092907
0.0167542
-0.00654602
0.0171728
-0.00473516
0.0174894
-0.00348691
0.0177736
-0.0026039
0.0180617
-0.00195015
0.0183721
-0.0014329
0.0187213
-0.00100432
0.019108
-0.000639166
0.019495
-0.000335857
0.0197672
-0.000101152
0.0196911
4.10304e-05
0.0189469
7.97828e-05
0.0172731
3.49188e-05
0.0146496
-4.56295e-06
0.0113911
0.00464658
-1.45652e-05
2.63618e-05
-0.00119645
0.00122947
4.36996e-06
2.35034e-05
4.11035e-05
7.91687e-05
-0.000297692
0.000313891
5.40385e-05
-0.000278455
4.14353e-05
-0.000257118
1.79909e-05
6.10008e-06
-6.70698e-05
6.73124e-05
-6.77443e-05
-6.7982e-05
1.92311e-05
-2.54554e-05
0.00794795
-0.00980343
0.0105045
-0.0116122
0.0111676
-0.0135745
0.0125893
-0.0189898
0.0152081
-0.0150178
0.0165272
-0.0103648
0.0171391
-0.00727689
0.0174851
-0.005292
0.0177296
-0.00394247
0.0179449
-0.00299998
0.0181697
-0.00231234
0.0184239
-0.00177718
0.0187164
-0.00133994
0.0190569
-0.000966859
0.0194357
-0.000643742
0.0198029
-0.000366762
0.0200328
-0.00015321
0.0198854
-2.06384e-05
0.0190473
1.99069e-05
0.0172881
1.01169e-05
0.0146349
1.33904e-05
0.0113969
0.00465003
-2.12056e-05
-7.69636e-06
-0.00125038
0.00124627
-7.25292e-06
-3.20112e-06
-9.37743e-07
6.3833e-06
-0.000372156
0.000374714
1.81129e-06
-0.00035812
9.46704e-06
-0.000341105
2.40882e-05
5.19551e-05
-0.000132839
0.000151502
3.53747e-05
-9.14034e-05
-7.34124e-05
2.14478e-05
-3.4237e-05
0.00796074
-0.0102507
0.0105073
-0.0122337
0.011126
-0.0151266
0.0127197
-0.0220645
0.0156641
-0.0167222
0.0169125
-0.0112868
0.0174491
-0.00789239
0.0177546
-0.00577577
0.0179688
-0.00436111
0.0181482
-0.0033811
0.0183261
-0.00266903
0.0185264
-0.00211993
0.0187666
-0.00167376
0.0190502
-0.00129497
0.019385
-0.000964432
0.0197563
-0.000670013
0.0201061
-0.000414643
0.0202942
-0.000212474
0.0200772
-8.71479e-05
0.0191543
-3.23747e-05
0.0173306
-9.62267e-06
0.0146579
-2.48448e-06
0.0114208
0.00464531
-1.6697e-05
-1.28216e-05
-0.0012415
0.00123104
-8.94978e-06
-1.79953e-06
-1.66691e-06
-1.26241e-06
-0.000377432
0.000373876
-3.69725e-06
-0.000378066
-2.56781e-06
-0.000378491
-5.13147e-07
2.60659e-06
-0.000211905
0.000214074
-3.5778e-07
-0.000203897
1.45888e-06
-0.000185774
5.9648e-06
1.7683e-05
3.53747e-05
-2.71079e-05
8.28278e-07
0.00798701
-0.0106881
0.0105053
-0.0127983
0.011072
-0.0167474
0.0127469
-0.0252549
0.0159101
-0.0180232
0.0169651
-0.011808
0.0174337
-0.008221
0.0177778
-0.00607904
0.0180579
-0.00467589
0.0182836
-0.0037088
0.0184759
-0.0030016
0.0186586
-0.00245309
0.0188595
-0.0020055
0.0190983
-0.00162514
0.0193803
-0.00129278
0.0197134
-0.000990024
0.0200764
-0.00071291
0.0204044
-0.000469536
0.0205513
-0.000277802
0.0202678
-0.000151917
0.0192739
-7.87314e-05
0.0173997
-4.83783e-05
0.0147038
-5.90527e-05
0.0114528
0.0046619
-3.54566e-06
-1.22261e-05
-0.00122784
0.0012203
-9.15456e-06
-9.62021e-06
-0.000368427
0.000339524
1.99529e-05
-0.000371245
1.01752e-06
-0.000372407
-5.05376e-07
2.06515e-07
-0.000214021
0.000211581
-1.25797e-06
-0.00021585
-7.3945e-07
-0.000216108
-2.55075e-07
5.72888e-07
-6.04813e-05
6.01235e-05
-5.90225e-05
-5.30577e-05
-0.000121699
9.01782e-05
0.00801853
-0.011096
0.0104499
-0.0132613
0.0109683
-0.0181823
0.0125068
-0.0281635
0.0156554
-0.0183704
0.0162573
-0.0115274
0.0166845
-0.00799156
0.0172043
-0.00601868
0.0177174
-0.00477012
0.0181521
-0.00391141
0.0184862
-0.00326984
0.0187442
-0.00275665
0.0189622
-0.00232509
0.0191791
-0.00195181
0.019425
-0.00162002
0.0197076
-0.00131592
0.0200393
-0.00103263
0.0203961
-0.000769605
0.0207044
-0.000536059
0.0208095
-0.000348708
0.0204646
-0.000213599
0.0194088
-0.000133617
0.0174849
-0.000108125
0.0147529
-0.000143947
0.011475
0.00471785
3.25174e-05
1.71179e-06
-0.00121174
0.0012132
-5.00463e-06
-3.66973e-06
-0.000563372
0.000555513
-6.92796e-07
-6.03361e-07
-0.000233842
2.21296e-07
1.52169e-07
-0.000211948
-1.94186e-06
-0.00021111
1.79611e-07
-0.000211482
-1.33564e-07
3.05331e-07
-5.97018e-05
5.84438e-05
-6.04413e-05
-6.06964e-05
-0.000230312
0.000236257
0.00801258
-0.0113962
0.0102572
-0.013612
0.0108006
-0.0191029
0.0118888
-0.0300196
0.0143629
-0.0169273
0.0142123
-0.00995759
0.0146874
-0.00689501
0.015588
-0.00538625
0.0165719
-0.00449341
0.0174407
-0.00387762
0.0181183
-0.0033941
0.0186105
-0.00297779
0.0189653
-0.00260318
0.0192403
-0.00226122
0.0194885
-0.00194215
0.0197471
-0.00164312
0.0200348
-0.00135958
0.0203662
-0.00108762
0.0207141
-0.000832944
0.0210013
-0.000605684
0.0210665
-0.000418127
0.0206692
-0.000278475
0.0195536
-0.000197728
0.0175745
-0.000184296
0.0147932
-0.000224831
0.0114695
0.00475131
0.000135966
6.68349e-05
-0.00121326
0.0012373
8.47152e-06
1.65046e-06
-0.000552022
0.000548108
-5.43681e-07
-5.47556e-07
-1.30093e-07
-4.93799e-08
-5.66232e-05
5.59304e-05
-5.72266e-05
5.70745e-05
-5.68532e-05
-5.87951e-05
-5.86155e-05
-5.87491e-05
-0.000260873
0.000279756
0.00799369
-0.0115552
0.010019
-0.0136111
0.00520852
0.00504775
-0.00878186
0.00568707
0.00534529
-0.0105527
-0.0154027
0.00629275
-0.0142785
0.00525772
-0.00849845
0.0102854
-0.00435132
-0.00678722
0.011042
-0.00479404
0.0125865
-0.00406994
0.0142717
-0.00372793
0.0158064
-0.00349635
0.0170594
-0.00328018
0.0180044
-0.00304525
0.018678
-0.00279014
0.0191523
-0.00252143
0.0195005
-0.00224298
0.0197894
-0.00196404
0.020068
-0.00168761
0.0203628
-0.00141614
0.0206947
-0.00115304
0.0210342
-0.000904377
0.0213
-0.000678825
0.0213272
-0.000486195
0.0208769
-0.000344749
0.0197006
-0.000267974
0.0176582
-0.00025035
0.0148187
-0.000253423
0.0114621
0.00475406
0.00011997
0.000157026
-0.0012639
0.00129759
0.00010227
4.02402e-05
-0.000549762
0.00055888
-1.17513e-07
-5.29309e-07
-1.20311e-07
1.16061e-07
-5.52033e-05
5.46596e-05
-5.57509e-05
5.58003e-05
-0.000193103
0.000158209
0.00802858
-0.0115942
0.00985396
-0.013183
0.00492878
0.00466221
-0.00849553
0.00492218
-0.00821411
0.00476634
-0.0157863
0.00607075
-0.0156468
0.00245591
0.00274988
-0.00989804
0.00426749
-0.00701178
0.0048061
-0.00782729
0.00219463
0.00258163
-0.00515677
-0.00301235
-0.00140995
0.00112587
0.00154237
-0.00143856
0.00593597
-0.000999212
-0.00123739
0.00258754
-0.000895368
-0.00208826
0.00833617
-0.00227523
0.0107918
-0.00253608
0.0130798
-0.0027414
0.0150514
-0.00285692
0.0166362
-0.00287713
0.0178362
-0.00281359
0.0187014
-0.00267634
0.0193072
-0.00248312
0.0197406
-0.00225452
0.0200798
-0.0020046
0.020385
-0.00174612
0.0206928
-0.00148391
0.0210256
-0.00122594
0.0213557
-0.000977437
0.0215986
-0.000747917
0.0215889
-0.00055398
0.0210861
-0.000413069
0.0198457
-0.000328134
0.017736
-0.000280435
0.0148458
-0.000222157
0.0114911
0.00482327
1.65297e-05
7.24688e-05
-0.00132009
0.00135658
8.34769e-05
0.000134531
-0.000594039
0.000647191
3.56918e-05
1.34252e-05
6.4618e-07
4.43505e-06
-5.4126e-05
5.40084e-05
-5.46553e-05
5.45393e-05
-0.000106477
5.38442e-05
0.00808121
-0.0116184
0.00988822
-0.0123169
0.00453473
0.00445305
-0.00797912
0.00469378
-0.00744046
0.00412355
-0.00961729
0.00233192
0.00215366
-0.00655162
0.00105335
0.00170887
-0.00758995
0.00733903
-0.00777827
0.00289515
0.00226162
-0.00258163
0.00176391
-0.00289515
0.000353967
0.000781637
-0.000229495
0.000573726
0.00108661
0.00157967
-0.000430688
-2.1638e-05
0.0038398
2.95447e-05
0.000929347
-0.000348884
-0.000393112
0.000584358
-0.000655744
0.00671669
-0.00125281
0.00950848
-0.00175884
0.0120973
-0.00215742
0.0143519
-0.00244406
0.0162031
-0.00261074
0.0176334
-0.00266155
0.0186866
-0.00260947
0.0194335
-0.00247625
0.0199623
-0.00228546
0.0203607
-0.00205968
0.0206986
-0.0018122
0.0210211
-0.00155488
0.0213545
-0.00129814
0.0216764
-0.00104842
0.0218991
-0.000816372
0.0218513
-0.000620151
0.0212932
-0.00046858
0.0199862
-0.000362237
0.0178178
-0.00027444
0.014898
-0.000164434
0.0115491
0.00487277
-8.78298e-06
1.31274e-05
-0.00139329
0.00140361
6.2125e-06
3.57592e-05
-0.000687214
0.000742976
5.67764e-06
2.20368e-05
5.08255e-05
4.36821e-05
-7.25148e-05
0.000108207
-5.90896e-05
5.46546e-05
-4.67057e-05
3.6925e-06
0.00812422
-0.01167
0.00999357
-0.0114395
0.0044433
0.00456758
-0.00686995
0.00396422
-0.00619546
0.00377856
-0.00922104
0.00231254
0.00198498
-0.00809767
0.00139198
0.00160819
0.00617921
-0.00589449
0.00204719
0.00178126
0.0060694
-0.00501605
-0.00672117
0.000912473
0.000124472
0.000290557
-0.000109941
0.000429824
-5.21833e-06
1.9623e-05
0.000774935
0.000132775
1.54274e-05
0.00316863
0.00068521
0.000119268
0.000160376
-5.39134e-05
-2.552e-05
-0.000364943
0.00582882
-0.000858717
0.00860835
-0.00135526
0.0112951
-0.00181262
0.0137205
-0.00218145
0.0157738
-0.00243681
0.0174087
-0.00256484
0.018642
-0.00257523
0.0195325
-0.00248937
0.0201662
-0.00232962
0.0206306
-0.00211975
0.0210061
-0.0018831
0.0213493
-0.00162975
0.0216861
-0.00137103
0.0219991
-0.00111665
0.0221994
-0.000880127
0.0221113
-0.000673943
0.0214986
-0.000507452
0.0201314
-0.000373516
0.0179169
-0.00024612
0.0149797
-0.000114572
0.011617
0.00489073
-1.19164e-05
-2.34658e-06
-0.0014139
0.00141104
-5.9171e-06
2.82946e-06
-0.000773523
0.000781799
-2.14868e-06
8.4805e-08
5.08779e-06
1.23209e-07
-0.00017522
0.000179935
9.62771e-07
-0.000158114
4.93015e-06
0.000129602
2.94296e-05
1.51706e-05
-1.67785e-05
-1.65806e-05
0.00815758
-0.0116982
0.0100062
-0.0105692
0.00912326
-0.0055372
0.00378503
-0.0048222
0.0038526
-0.00673621
0.00131781
0.00128495
-0.00541919
0.00121587
0.00124567
-0.00579786
0.00221592
-0.00546921
0.00165633
0.00486788
-0.00422925
0.000753356
0.00100686
-0.00627273
0.00159876
-0.00410357
1.45309e-05
9.31266e-06
2.89358e-05
0.000224525
2.42279e-05
4.43987e-05
-0.000316131
2.8068e-05
0.000956861
3.18444e-05
-4.99695e-05
0.00285365
2.73847e-06
2.49225e-05
-9.33007e-06
-2.35476e-05
-2.1035e-05
-5.91356e-06
-0.000300721
0.00527082
-0.000685604
0.00793869
-0.00114597
0.0106284
-0.00160966
0.0131487
-0.00201691
0.0153539
-0.002321
0.0171648
-0.00250259
0.0185693
-0.0025617
0.0196048
-0.00251243
0.0203491
-0.00238002
0.0208909
-0.00218699
0.02131
-0.00195441
0.0216739
-0.00170242
0.0220175
-0.00143989
0.0223223
-0.00117927
0.0224985
-0.000935583
0.0223729
-0.000717781
0.0217089
-0.000532112
0.02029
-0.000366553
0.0180373
-0.000213092
0.0150782
-8.55832e-05
0.0116858
0.00489388
-1.18499e-05
-7.89207e-06
-0.00141082
0.001406
-7.09709e-06
-2.12804e-06
-0.000784977
0.000782106
-1.98635e-06
-1.06058e-06
4.62295e-07
-8.10813e-07
-0.000184542
0.000183165
-7.71336e-07
-0.000184305
-1.52456e-07
0.000184192
8.29945e-07
1.01219e-08
-4.95304e-05
5.04931e-05
-4.46003e-05
2.94296e-05
-1.03878e-05
-2.09235e-05
0.00818888
-0.0117346
0.0100284
-0.00978712
0.0092241
0.00286396
-0.0049109
0.00304497
0.00330301
-0.00396696
0.00115943
0.00117338
0.00145692
0.00129268
-0.00360819
0.000696752
-0.00298982
0.000666588
0.00237577
-0.00175731
0.000597412
0.00063162
-0.00656163
0.00250482
-0.0049053
0.00389844
-0.00314508
-0.00250482
-1.03361e-05
1.10166e-05
2.38348e-05
1.02279e-05
7.21111e-05
-3.84538e-05
-1.14814e-05
2.59719e-06
3.29609e-06
1.51207e-05
0.000908196
-1.64288e-05
9.78168e-05
2.26819e-06
3.87203e-06
-7.03705e-05
0.0026233
-3.92555e-05
3.53956e-06
9.50138e-06
5.91356e-06
-2.69485e-05
-0.000271869
0.00485707
-0.000611228
0.00740394
-0.00103897
0.0100577
-0.00149412
0.0126259
-0.00191146
0.0149443
-0.00224471
0.0169069
-0.00246315
0.0184708
-0.00255855
0.0196509
-0.00254178
0.0205108
-0.00242958
0.0211335
-0.00224941
0.021605
-0.00202393
0.0219954
-0.00176809
0.0223457
-0.0015018
0.0226448
-0.00123625
0.0227992
-0.000980925
0.0226361
-0.000748714
0.0219255
-0.000539443
0.0204629
-0.000351293
0.0181755
-0.0001904
0.0151831
-7.82755e-05
0.0117536
0.00489448
-1.0498e-05
-1.1022e-05
-0.00140161
0.00139718
-7.42203e-06
-3.50189e-06
-0.000780367
0.000775996
-1.65104e-06
-1.07533e-06
1.18486e-07
-5.0781e-07
-0.00018198
0.000180719
-7.25533e-07
-0.000182799
-2.42593e-07
0.000183439
1.87804e-07
-1.70298e-07
-5.11807e-05
5.04093e-05
-5.13332e-05
5.13231e-05
-2.66504e-05
-1.02828e-05
0.00822581
-0.0117954
0.0100618
-0.00919294
0.00943424
-0.00347593
0.00778914
0.00344343
-0.000505687
-0.00155594
0.000897209
0.000765972
0.00416916
0.00257728
-0.001159
0.000561119
-0.000542649
0.000557027
6.35717e-06
0.000944874
0.000756387
-0.00244833
-0.00178174
0.00115012
-0.000552711
-1.59318e-05
-5.704e-06
-5.33131e-06
-2.61093e-06
-1.54792e-06
4.14511e-06
1.74826e-06
0.000107501
5.08482e-06
3.50175e-07
3.9994e-06
0.00085686
-2.30386e-05
0.000104667
-5.15696e-06
-8.4392e-06
4.01649e-06
8.38912e-06
-5.00397e-07
-8.08697e-05
0.00243229
-1.53417e-06
-0.000274502
0.00452033
-0.00058773
0.00695269
-0.000989451
0.00955307
-0.00142444
0.0121389
-0.00184246
0.0145421
-0.0021916
0.0166354
-0.00243674
0.018349
-0.0025631
0.0196722
-0.00257078
0.020652
-0.00247926
0.0213633
-0.00231008
0.0218912
-0.0020855
0.0223129
-0.00183003
0.022674
-0.00155666
0.0229652
-0.00128036
0.0230986
-0.00101589
0.0229033
-0.000765558
0.0221516
-0.000537887
0.0206495
-0.000339027
0.0183241
-0.000185204
0.01529
-9.37261e-05
0.0118207
0.00490331
-6.69734e-06
-1.24193e-05
-0.00139053
0.00138747
-7.43742e-06
-4.38209e-06
-0.000772968
0.000768238
-1.54929e-06
-1.14395e-06
-3.5377e-08
-4.3912e-07
-0.000179365
0.000178352
-6.37586e-07
-0.000180243
-1.97877e-07
0.000180644
1.93804e-07
-1.07025e-07
-5.01842e-05
4.94586e-05
-5.04268e-05
5.05971e-05
-6.69755e-05
2.33715e-05
0.00826941
-0.0118863
0.0100989
-0.00877696
0.00964587
-0.00291291
0.0088712
-0.00338568
0.00822794
0.0031866
0.00392944
-0.00132182
0.000710756
-0.00147673
0.00237394
-0.000710756
0.000910703
0.000654839
8.40955e-06
0.000565437
1.53417e-06
1.21526e-05
1.32088e-06
1.29814e-05
-4.79308e-07
0.00010338
5.25732e-06
2.8822e-08
-2.50331e-06
0.000804705
-2.6222e-05
0.000103999
-2.36592e-05
1.06771e-05
-2.85261e-06
8.16618e-06
-5.92879e-06
-5.00411e-07
-0.000109086
0.00226686
-0.000296104
0.0042287
-0.000590172
0.00655341
-0.000963074
0.0090917
-0.0013829
0.0116793
-0.0017963
0.0141468
-0.0021537
0.0163523
-0.00241735
0.0182032
-0.0025666
0.0196681
-0.00259796
0.0207707
-0.00252239
0.0215757
-0.00236283
0.0221685
-0.00214236
0.0226252
-0.00188306
0.0230004
-0.00160395
0.0232888
-0.00131849
0.0234012
-0.00103835
0.023176
-0.000774343
0.0223881
-0.000533677
0.0208441
-0.000334517
0.0184735
-0.000195323
0.0153916
-0.000127869
0.0118816
0.00493231
4.58167e-06
-1.02192e-05
-0.00137976
0.0013797
-6.63836e-06
-4.70653e-06
-0.000764515
0.000759799
-1.48912e-06
-1.23393e-06
-1.99515e-07
-4.60928e-07
-0.000176869
0.00017593
-6.10812e-07
-0.000177812
-2.01711e-07
0.000178146
1.70188e-07
-1.05138e-07
-4.93475e-05
4.87099e-05
-4.95454e-05
4.96524e-05
-0.000134056
9.67339e-05
0.00830673
-0.012005
0.0101316
-0.00851288
0.00983481
-0.00276875
0.00950172
0.00733924
0.0097599
0.00185875
-0.000540316
0.00227007
-0.000401911
0.0022254
0.00356279
-0.000388892
0.000759279
0.000265947
8.20438e-07
3.41138e-07
8.82297e-06
4.59877e-06
8.3675e-06
4.83873e-07
9.96597e-05
1.8313e-06
-1.5115e-05
0.000747024
-3.62985e-05
9.48179e-05
-2.13843e-05
5.29158e-07
-1.08727e-05
-3.16274e-06
-1.78647e-06
-2.51151e-06
-8.4405e-06
-0.000144913
0.00211566
-0.000326357
0.00396489
-0.000597744
0.00618808
-0.00095402
0.00866282
-0.00135591
0.0112389
-0.00176078
0.0137539
-0.00212221
0.0160572
-0.00240008
0.0180367
-0.00256735
0.0196374
-0.00261707
0.0208654
-0.00255889
0.0217717
-0.00240724
0.0224334
-0.00218937
0.0229315
-0.00192636
0.0233228
-0.00163929
0.0236096
-0.0013446
0.0237075
-0.00105259
0.0234543
-0.000775507
0.0226299
-0.000531024
0.0210406
-0.000338757
0.0186169
-0.000217173
0.0154809
-0.000175128
0.0119227
0.00498293
4.08681e-05
5.24677e-06
-0.00137314
0.00138056
-2.8421e-06
-3.65757e-06
-0.000755924
0.000752001
-1.39192e-06
-1.32417e-06
-3.627e-07
-4.69057e-07
-0.00017424
0.000173349
-5.98758e-07
-0.000175259
-2.15316e-07
0.000175597
1.33277e-07
-1.23199e-07
-4.85732e-05
4.79623e-05
-4.87749e-05
4.888e-05
-0.000201176
0.00020425
0.00830365
-0.0121513
0.0101623
-0.00836956
0.00998831
-0.00282103
0.00988708
0.00596079
0.0108802
-0.00161698
0.00479221
0.00881006
0.00103726
0.00165843
-0.000180077
-0.00024555
-0.000141161
0.000498528
0.00298308
0.000124786
-2.21198e-06
-1.63083e-06
-1.19925e-06
-6.28168e-06
-2.12465e-06
-6.37588e-07
8.78838e-05
-8.18421e-06
-2.56059e-05
0.000691241
-6.35288e-05
7.89928e-05
-2.74116e-05
-1.55512e-05
-6.63753e-06
-5.47981e-06
4.61659e-06
-7.77944e-06
2.8301e-06
-0.000181316
0.00197062
-0.000346976
0.00371412
-0.000611979
0.00584603
-0.000950426
0.00825733
-0.00133718
0.0108153
-0.0017332
0.0133649
-0.00209418
0.0157513
-0.00238149
0.0178508
-0.00256444
0.0195848
-0.00263066
0.0209371
-0.00258399
0.0219485
-0.00244085
0.0226848
-0.00222527
0.0232304
-0.00196092
0.0236444
-0.00166643
0.0239315
-0.00135984
0.0240147
-0.0010565
0.0237353
-0.000772264
0.0228711
-0.000528151
0.02123
-0.0003461
0.0187458
-0.000240555
0.0155463
-0.000206455
0.011928
0.00499979
0.000121902
6.54914e-05
-0.0013819
0.00140696
1.58129e-05
3.90333e-06
-0.000749258
0.00074888
-1.04694e-06
-1.41803e-06
-5.37581e-07
-3.77894e-07
-0.000171467
0.000170662
-5.87112e-07
-0.000172561
-2.30623e-07
0.000172888
9.83808e-08
-1.42683e-07
-4.77569e-05
4.71581e-05
-4.79723e-05
4.80955e-05
-0.000198104
0.000225171
0.00827658
-0.0123185
0.0101852
-0.00831641
0.0101092
-0.00297612
0.0101434
0.00455742
0.0112904
0.0047599
0.0109125
-0.000940508
0.00283515
0.0075152
-0.000599793
0.00046275
-5.38883e-05
0.00126579
-1.6228e-05
-0.000377764
0.000197686
-0.000124786
0.00250532
-1.63084e-06
-9.90421e-06
-7.68395e-06
-2.85858e-06
-1.99689e-05
-7.13434e-07
-3.05508e-06
6.70669e-05
-1.3682e-05
-0.000119337
0.000629261
3.93917e-05
-3.58562e-05
-2.89305e-05
-9.65331e-06
-8.79765e-06
1.06832e-05
-1.4935e-05
-2.38668e-06
-2.48136e-06
-0.000196713
0.00182035
-0.000372616
0.00347475
-0.000624181
0.00551978
-0.000949421
0.00786957
-0.00132153
0.0104036
-0.00170631
0.012977
-0.00206636
0.0154362
-0.0023574
0.0176438
-0.00255252
0.0195067
-0.00263312
0.0209863
-0.00259906
0.0221067
-0.00246545
0.022925
-0.00225229
0.0235218
-0.00198382
0.0239618
-0.00168228
0.0242539
-0.00136566
0.0243239
-0.00105326
0.0240163
-0.000765214
0.0231082
-0.00052441
0.0214083
-0.000349079
0.0188543
-0.000244626
0.0155845
-0.000185464
0.0119153
0.00498357
0.000105456
0.000135926
-0.00142491
0.00144909
9.77174e-05
4.75353e-05
-0.000753021
0.00076823
1.58799e-06
-9.84218e-07
-6.0711e-07
3.69666e-07
-0.000168667
0.000168171
-5.50999e-07
-0.000169841
-2.43912e-07
0.000170064
6.00287e-08
-1.54795e-07
-4.68831e-05
4.62959e-05
-4.71137e-05
4.72564e-05
-0.000105901
0.000107002
0.00827548
-0.0125027
0.0102022
-0.00832426
0.0101931
-0.00318375
0.0103168
0.00329478
0.011406
0.00421136
0.011839
0.00340162
0.010346
0.00161461
0.00641718
-0.000227742
-0.000288859
-0.000242296
0.00214782
0.000143798
0.00104376
-8.60782e-06
-1.16579e-05
0.00012757
-2.85861e-06
-1.58997e-05
2.50662e-07
-1.67735e-05
-2.18202e-06
-3.1992e-05
-4.39005e-06
-6.23277e-06
3.72767e-05
-1.30248e-05
-7.82637e-05
-2.59334e-05
-0.000112842
0.000545389
-3.05735e-05
1.94333e-05
-2.25452e-05
-6.54211e-06
-6.13862e-06
5.33996e-06
-7.72672e-06
-0.000222061
0.00166979
-0.000389776
0.00324034
-0.000636478
0.00520683
-0.000946884
0.00749492
-0.00130446
0.0100018
-0.00167994
0.0125906
-0.00203384
0.0151126
-0.00232953
0.0174208
-0.00253412
0.0194077
-0.00262721
0.0210144
-0.00260535
0.0222466
-0.00247824
0.023151
-0.00226648
0.0238044
-0.00199488
0.0242744
-0.00168588
0.0245741
-0.00136152
0.0246322
-0.0010435
0.0242946
-0.000752577
0.0233363
-0.000510785
0.02157
-0.000332428
0.0189421
-0.000209413
0.0156084
-0.000105061
0.0119145
0.00501024
1.31153e-05
6.7218e-05
-0.00146211
0.00148297
8.45955e-05
0.000122913
-0.000799276
0.00083136
4.25961e-05
2.30366e-05
3.59911e-06
1.28899e-05
-0.000167157
0.00016892
-1.75076e-07
-0.000167976
-1.65203e-07
0.000167519
4.39939e-08
-8.65139e-08
-4.59572e-05
4.54061e-05
-4.62011e-05
4.63559e-05
1.40701e-05
-1.41174e-05
0.00827552
-0.0126957
0.010211
-0.00836469
0.0102427
-0.00341109
0.0104204
0.00221495
0.0113966
0.00348432
0.0121331
0.00335705
0.0118835
0.00242492
0.0095357
0.00115519
0.00584016
-0.000304255