/*--------------------------------*- C++ -*----------------------------------*\
| =========                 |                                                 |
| \\      /  F ield         | OpenFOAM: The Open Source CFD Toolbox           |
|  \\    /   O peration     | Version:  v1912                                 |
|   \\  /    A nd           | Website:  www.openfoam.com                      |
|    \\/     M anipulation  |                                                 |
\*---------------------------------------------------------------------------*/
FoamFile
{
    version     2.0;
    format      ascii;
    class       volScalarField;
    location    "250";
    object      p;
}
// * * * * * * * * * * * * * * * * * * * * * * * * * * * * * * * * * * * * * //

dimensions      [0 2 -2 0 0 0 0];


internalField   nonuniform List<scalar> 
3754
(
-0.00649673
-0.00646868
-0.00625583
-0.00642369
-0.00622878
-0.00601331
-0.00638436
-0.00618273
-0.0059875
-0.00578558
-0.0063572
-0.00614276
-0.0059451
-0.00576088
-0.00556193
-0.00634872
-0.00611277
-0.00590846
-0.00571787
-0.0055379
-0.00534518
-0.00636796
-0.00610005
-0.00587767
-0.00567823
-0.00549711
-0.00532107
-0.00513799
-0.00642468
-0.00611115
-0.00585955
-0.00564716
-0.00546223
-0.00528116
-0.00511459
-0.00493504
-0.00652083
-0.00615389
-0.0058628
-0.0056301
-0.00543453
-0.00524715
-0.00507482
-0.00491249
-0.00473813
-0.00665775
-0.00623364
-0.00589306
-0.00563349
-0.00541857
-0.00521967
-0.00503999
-0.00487424
-0.0047165
-0.00454877
-0.00683121
-0.00635213
-0.00595236
-0.00566098
-0.00542241
-0.00520666
-0.00501313
-0.00484212
-0.00467891
-0.00452631
-0.00436562
-0.00702208
-0.00650976
-0.00603574
-0.00571386
-0.00545217
-0.0052144
-0.005001
-0.00481776
-0.00464538
-0.00449005
-0.00434455
-0.00418387
-0.00718657
-0.006716
-0.00614173
-0.00579283
-0.00551236
-0.00524665
-0.00501003
-0.00480562
-0.00462117
-0.00446126
-0.00430837
-0.00416342
-0.00400988
-0.00727041
-0.00694941
-0.00729184
-0.00626745
-0.00589543
-0.00560236
-0.00530783
-0.00504494
-0.00481403
-0.00461187
-0.00443777
-0.00427574
-0.00412874
-0.00399021
-0.00383803
-0.00731886
-0.00724343
-0.00642243
-0.00688226
-0.0072723
-0.00601903
-0.0057174
-0.00539789
-0.00510799
-0.00484779
-0.00462176
-0.00442607
-0.00425303
-0.00410086
-0.00395591
-0.00381945
-0.00367198
-0.00738337
-0.00747072
-0.00663279
-0.00617029
-0.00649037
-0.00697981
-0.00727407
-0.00726644
-0.00584837
-0.00551392
-0.0051989
-0.00491037
-0.00465738
-0.00443579
-0.00424547
-0.00407997
-0.00392672
-0.00378696
-0.00365265
-0.00351309
-0.00741442
-0.00718814
-0.0078212
-0.00669434
-0.00640326
-0.00599128
-0.0062588
-0.00659349
-0.00693201
-0.00702386
-0.00721499
-0.00731843
-0.00564996
-0.00531273
-0.00500129
-0.00472134
-0.00447132
-0.00425615
-0.00407181
-0.00390568
-0.00376056
-0.00362089
-0.00349534
-0.00335186
-0.00746102
-0.00676955
-0.00836501
-0.00683004
-0.00674718
-0.00648593
-0.00617664
-0.00579054
-0.00604888
-0.00635387
-0.00664497
-0.0067205
-0.00690161
-0.0065125
-0.00733079
-0.00738729
-0.00544424
-0.00511658
-0.00481113
-0.00453353
-0.00429152
-0.00408263
-0.00389766
-0.00374119
-0.00359551
-0.003463
-0.00333424
-0.00319961
-0.00685511
-0.00909644
-0.00686122
-0.00681619
-0.00658387
-0.00651161
-0.0062499
-0.00595942
-0.00558665
-0.00583879
-0.0061308
-0.00638001
-0.00645715
-0.00670058
-0.00675654
-0.00524743
-0.00492062
-0.00462233
-0.00435371
-0.00411651
-0.00390921
-0.00373461
-0.0035778
-0.0034371
-0.00330511
-0.00318207
-0.0030466
-0.0066157
-0.00655235
-0.0063403
-0.00626907
-0.00602774
-0.00575081
-0.00538648
-0.0056384
-0.00591862
-0.00615806
-0.00622287
-0.00642418
-0.00648378
-0.00504703
-0.00473505
-0.00444111
-0.00417568
-0.00394492
-0.00374689
-0.00357308
-0.00342109
-0.00328256
-0.00315138
-0.0030303
-0.00289569
-0.0063729
-0.00630362
-0.00610723
-0.00605477
-0.005817
-0.00554565
-0.00518524
-0.00543904
-0.00571614
-0.00594899
-0.00600844
-0.00619276
-0.00625861
-0.00486301
-0.00454805
-0.00426094
-0.00400642
-0.00378027
-0.00358562
-0.00341789
-0.00326688
-0.00312759
-0.00300207
-0.0028811
-0.00275372
-0.00614038
-0.00608852
-0.00589766
-0.00584435
-0.00561416
-0.00534493
-0.00499683
-0.00524034
-0.00551096
-0.00574639
-0.0058009
-0.00598161
-0.00604607
-0.00466969
-0.00436816
-0.00409043
-0.00383828
-0.00362076
-0.00343196
-0.00326531
-0.00311396
-0.00298049
-0.00285397
-0.0027371
-0.00260963
-0.00593455
-0.00587709
-0.0056914
-0.00564697
-0.00541693
-0.00514749
-0.00480178
-0.00505157
-0.00531185
-0.00553937
-0.00559741
-0.00578119
-0.00583554
-0.00449143
-0.00419467
-0.00392152
-0.00367818
-0.00346737
-0.00328238
-0.00311513
-0.00296783
-0.00283305
-0.00270849
-0.00259536
-0.00246889
-0.0057261
-0.00568262
-0.0054961
-0.0054422
-0.00521619
-0.00495383
-0.00462239
-0.00485829
-0.00512
-0.00534558
-0.00539327
-0.00557501
-0.00563078
-0.00431355
-0.00402472
-0.00375697
-0.0035245
-0.00331893
-0.00313504
-0.0029706
-0.002822
-0.00268786
-0.0025683
-0.0024542
-0.0023324
-0.00552974
-0.00547434
-0.00529361
-0.00524443
-0.00502464
-0.00476782
-0.00444006
-0.00467623
-0.00492857
-0.0051474
-0.0052014
-0.00538076
-0.00542863
-0.00414186
-0.00385713
-0.0036032
-0.00337703
-0.00317687
-0.00299338
-0.00282507
-0.00267551
-0.00254696
-0.0024276
-0.0023189
-0.00219775
-0.0053258
-0.00527758
-0.00510221
-0.00505315
-0.00483337
-0.00458361
-0.00426752
-0.00449627
-0.00474348
-0.00496273
-0.00500181
-0.00518077
-0.00523641
-0.00397305
-0.00369947
-0.00345415
-0.00323776
-0.00303768
-0.00284878
-0.00267956
-0.00253462
-0.00240672
-0.00229334
-0.00218464
-0.00206527
-0.00513309
-0.00509147
-0.00490714
-0.0048626
-0.00464892
-0.00440531
-0.00409677
-0.00432341
-0.00456357
-0.00477369
-0.00481892
-0.00499493
-0.00503066
-0.00381122
-0.00354754
-0.00331504
-0.00310239
-0.00289821
-0.0027045
-0.00253591
-0.00239439
-0.00227446
-0.00215972
-0.00205244
-0.00193486
-0.00494057
-0.0048971
-0.00472419
-0.00467715
-0.00446882
-0.00423385
-0.00393291
-0.00415187
-0.00438828
-0.00459417
-0.00463392
-0.00480433
-0.00484941
-0.00365465
-0.0034045
-0.00318367
-0.00297151
-0.00275393
-0.00255761
-0.00239509
-0.00226298
-0.00214209
-0.00202899
-0.00192311
-0.00180905
-0.00476107
-0.00470853
-0.0045437
-0.00449614
-0.00429964
-0.00406472
-0.0037728
-0.00398901
-0.00421393
-0.004415
-0.00445862
-0.00462676
-0.00466025
-0.00350562
-0.00327498
-0.0030631
-0.00283077
-0.00260326
-0.00241299
-0.00226313
-0.00213223
-0.00201262
-0.00190042
-0.00179788
-0.00168282
-0.00458026
-0.00452571
-0.00437102
-0.00432726
-0.00412851
-0.00390301
-0.00362016
-0.00383079
-0.00405004
-0.00424161
-0.00428636
-0.00444669
-0.0044851
-0.00336993
-0.00315908
-0.00293263
-0.00267578
-0.00245097
-0.00227921
-0.00213568
-0.0020046
-0.0018847
-0.00177641
-0.00167165
-0.00155996
-0.00440688
-0.00435451
-0.00419584
-0.00415795
-0.00396526
-0.00374358
-0.00347371
-0.00368226
-0.00389101
-0.00407939
-0.00411549
-0.00427514
-0.00431636
-0.00324758
-0.00305518
-0.00277598
-0.00250987
-0.00231261
-0.00215444
-0.00201023
-0.00188004
-0.00176344
-0.00165087
-0.0015498
-0.00143427
-0.00422655
-0.00418629
-0.00403298
-0.00399135
-0.00380692
-0.00359199
-0.00333381
-0.00353929
-0.00373803
-0.00391839
-0.00395756
-0.00411193
-0.00414267
-0.00316995
-0.0029071
-0.00258611
-0.00236242
-0.00219117
-0.00203395
-0.00188951
-0.00176
-0.00164044
-0.00153
-0.00142609
-0.00131035
-0.00406351
-0.00401785
-0.00387192
-0.00383646
-0.00365772
-0.00344542
-0.00323834
-0.00340415
-0.00359144
-0.00376747
-0.003797
-0.00394881
-0.00398706
-0.00307509
-0.00267817
-0.00242593
-0.00224503
-0.00207632
-0.00191681
-0.00177176
-0.00164117
-0.00151949
-0.00140851
-0.00130198
-0.00118731
-0.00390185
-0.00386372
-0.0037208
-0.00368598
-0.00351507
-0.00331287
-0.00325324
-0.00328066
-0.00345243
-0.00362021
-0.00365029
-0.00379938
-0.00382204
-0.00279237
-0.0024968
-0.00231404
-0.00213701
-0.00196272
-0.00180221
-0.00165662
-0.00152174
-0.00140114
-0.00128533
-0.00118076
-0.00106229
-0.0037496
-0.00371059
-0.00357718
-0.00355057
-0.00337584
-0.00327109
-0.00292155
-0.00338908
-0.00328514
-0.00348599
-0.0035071
-0.00364905
-0.00367659
-0.00257468
-0.00239739
-0.0022146
-0.00202662
-0.00185107
-0.00168981
-0.00154124
-0.00140681
-0.00128117
-0.00116647
-0.00105786
-0.000936236
-0.00360619
-0.00357568
-0.0034416
-0.00342205
-0.00322282
-0.00308698
-0.0026806
-0.00288888
-0.00360776
-0.00334938
-0.00336056
-0.00351043
-0.00353666
-0.00248811
-0.00230554
-0.00210581
-0.00191789
-0.00174311
-0.00158022
-0.00142944
-0.00129172
-0.00116484
-0.00104494
-0.000931845
-0.000808956
-0.00347431
-0.00344653
-0.00324542
-0.00318663
-0.00313267
-0.00285441
-0.00258929
-0.00277252
-0.00292877
-0.00396281
-0.00304284
-0.00338361
-0.00341062
-0.00240478
-0.00219668
-0.00199878
-0.0018133
-0.0016377
-0.00147277
-0.00132095
-0.00117713
-0.00104542
-0.00092039
-0.000807267
-0.000679446
-0.00332539
-0.00323071
-0.00286038
-0.0030426
-0.0029161
-0.00273094
-0.00250208
-0.00265178
-0.00284734
-0.00299754
-0.00303832
-0.00462119
-0.00308572
-0.00229578
-0.00208938
-0.00189654
-0.00171023
-0.00153455
-0.00136879
-0.00120954
-0.001064
-0.000925268
-0.000798723
-0.000678833
-0.000544517
-0.00299568
-0.00295038
-0.00278262
-0.00261215
-0.00239434
-0.00254081
-0.00271172
-0.00286583
-0.00291768
-0.00218478
-0.0019878
-0.00179486
-0.00161142
-0.00143484
-0.00126407
-0.00110368
-0.000949315
-0.000807254
-0.0006726
-0.000546573
-0.000407444
-0.00283479
-0.00279687
-0.00265645
-0.00249741
-0.00228297
-0.00243302
-0.0025961
-0.00273063
-0.00276675
-0.00208254
-0.00188629
-0.00169833
-0.0015159
-0.00133716
-0.00116484
-0.000995436
-0.000835158
-0.000684807
-0.000542933
-0.000411835
-0.000265184
-0.00270181
-0.00267317
-0.00254119
-0.00238548
-0.00217887
-0.00232476
-0.00248634
-0.00261956
-0.00265025
-0.00198131
-0.00178967
-0.00160425
-0.00142316
-0.00124402
-0.00106386
-0.000888462
-0.000719529
-0.000560008
-0.000411209
-0.000272129
-0.000119049
-0.00258891
-0.00256011
-0.00243049
-0.00227925
-0.00207524
-0.00222082
-0.00237628
-0.00250632
-0.00253568
-0.0018823
-0.00169583
-0.0015163
-0.00133449
-0.00115197
-0.000966585
-0.000781698
-0.000602099
-0.000433078
-0.000274866
-0.000128178
3.48987e-05
-0.00247803
-0.00245096
-0.00232534
-0.00217188
-0.00197536
-0.00211797
-0.00227128
-0.00239734
-0.00242727
-0.00178865
-0.00160999
-0.00142984
-0.00125068
-0.0010632
-0.000868424
-0.000673411
-0.000482839
-0.000302683
-0.00013336
2.2157e-05
0.000194116
-0.00237023
-0.00234531
-0.00221744
-0.00207069
-0.0018794
-0.00201859
-0.00216541
-0.00229803
-0.00231877
-0.00170042
-0.00152448
-0.00135251
-0.00116972
-0.00097495
-0.000771529
-0.000563828
-0.000360213
-0.000166476
1.25051e-05
0.000179394
0.00036014
-0.00226389
-0.00223817
-0.00211645
-0.00197173
-0.00178904
-0.00192261
-0.00206549
-0.00218595
-0.00221302
-0.00161525
-0.00144957
-0.00127722
-0.00109104
-0.000888519
-0.000674437
-0.000452398
-0.000234623
-2.69214e-05
0.000166462
0.000343116
0.000533167
-0.00216223
-0.00213538
-0.00201578
-0.00187813
-0.00170075
-0.00183046
-0.00196971
-0.00208625
-0.00211118
-0.00153926
-0.00137936
-0.00120576
-0.00101329
-0.000803775
-0.000576638
-0.000340835
-0.00010409
0.000119822
0.000327198
0.000516696
0.000710479
-0.00206018
-0.0020352
-0.00192023
-0.00178708
-0.00162146
-0.00174164
-0.00187568
-0.00199115
-0.00201597
-0.00147102
-0.00131401
-0.00113542
-0.000939105
-0.000721065
-0.00047959
-0.00022372
3.22897e-05
0.0002749
0.000496763
0.000700889
0.00090568
-0.0019635
-0.00193931
-0.00182931
-0.00170164
-0.00155201
-0.00165747
-0.00178588
-0.0018946
-0.00191979
-0.00141052
-0.00124826
-0.00106695
-0.000869705
-0.000639332
-0.000380327
-0.000101812
0.000174631
0.000436282
0.000682132
0.000902408
0.00108818
-0.00187093
-0.00184882
-0.00174139
-0.00162043
-0.00149043
-0.00158432
-0.00169881
-0.00180712
-0.00182669
-0.00135014
-0.00117971
-0.00100763
-0.000802488
-0.000558662
-0.000278398
2.27465e-05
0.000325017
0.000618541
0.000871372
0.00118643
0.000448588
-0.00178207
-0.00176208
-0.00165451
-0.00157331
-0.00143036
-0.00164228
-0.0015993
-0.00172361
-0.0017423
-0.00127784
-0.00112504
-0.000951836
-0.000739367
-0.000478191
-0.000173145
0.000155557
0.000494272
0.000786568
0.00120457
0.00054061
-0.00169951
-0.00168064
-0.00153617
-0.00149308
-0.00136167
-0.0014576
-0.0023369
-0.00184618
-0.0016374
-0.00165899
-0.00122188
-0.00107629
-0.00090266
-0.0006778
-0.000395298
-6.45075e-05
0.000303593
0.000640208
0.00111737
0.000570775
-0.00161484
-0.00159831
-0.000837075
-0.00164133
-0.00156315
-0.00142984
-0.00130147
-0.00139658
-0.0015276
-0.0014901
-0.00156249
-0.00117441
-0.00103624
-0.000857038
-0.000618231
-0.000312393
5.80647e-05
0.000428171
0.000944368
0.000513128
-0.00141918
-0.0016251
-0.0015859
-0.00147144
-0.00144486
-0.00136558
-0.00125193
-0.00133882
-0.0014334
-0.0014101
-0.00155109
-0.00151864
-0.00162557
-0.00113831
-0.00100126
-0.000816645
-0.000558707
-0.000218904
0.000159436
0.000689822
0.000396568
-0.00164986
-0.00161205
-0.00149028
-0.00146424
-0.00139692
-0.00138185
-0.00131149
-0.00121393
-0.00129074
-0.00136918
-0.00135453
-0.00144919
-0.00142869
-0.00157283
-0.00154196
-0.00110765
-0.000975179
-0.000777449
-0.000494621
-0.00014111
0.000367317
0.000239776
-0.00150545
-0.00148144
-0.0014121
-0.00140051
-0.00134265
-0.0013286
-0.00126717
-0.00118416
-0.00125084
-0.00131893
-0.00130803
-0.00138443
-0.00137089
-0.00146275
-0.00144498
-0.00108931
-0.000951451
-0.000738902
-0.000437581
6.91059e-06
6.10583e-05
-0.00142702
-0.00141551
-0.00135858
-0.00134453
-0.00129442
-0.00128364
-0.00123215
-0.0011654
-0.00122077
-0.00127735
-0.00126549
-0.00133516
-0.00132367
-0.00139906
-0.00138609
-0.0010754
-0.000933463
-0.000698711
-0.000351281
-0.00012007
-0.00137252
-0.00135901
-0.00131009
-0.00129891
-0.00125549
-0.00124932
-0.00120605
-0.0011548
-0.00120123
-0.00124278
-0.00123461
-0.0012907
-0.00128087
-0.00134995
-0.00133633
-0.0010736
-0.000905903
-0.00066802
-0.000284972
-0.00132708
-0.00131257
-0.00126859
-0.00126389
-0.00122854
-0.00122132
-0.00118955
-0.00116113
-0.00119088
-0.00121961
-0.00121479
-0.00125393
-0.00124875
-0.00130216
-0.00129401
-0.00106107
-0.000919739
-0.000419766
-0.00128177
-0.00127462
-0.00124078
-0.00123427
-0.00120826
-0.00120436
-0.00118693
-0.00116863
-0.0011971
-0.00120622
-0.00120107
-0.00122977
-0.00122685
-0.00126536
-0.00126154
-0.0011098
-0.000521454
-0.00125123
-0.00124548
-0.00122021
-0.00121665
-0.00119761
-0.00120224
-0.00119452
-0.00126893
-0.00120353
-0.00120246
-0.00120656
-0.00121418
-0.00121056
-0.00124027
-0.00123592
-0.000594775
-0.00123203
-0.00122673
-0.00120834
-0.00120944
-0.00120402
-0.00121133
-0.00123643
-0.000707991
-0.00131007
-0.00121023
-0.00121406
-0.00121047
-0.00121081
-0.00122137
-0.00121935
-0.00121668
-0.00121509
-0.00121168
-0.00121602
-0.00122486
-0.00124242
-0.00134719
-0.000661974
-0.00127451
-0.00129877
-0.0012169
-0.00122012
-0.00121789
-0.00121648
-0.00121719
-0.00121864
-0.00123202
-0.0012453
-0.00133305
-0.00140715
-0.00136732
-0.000563346
-0.00127173
-0.00129497
-0.00121973
-0.00122215
-0.00123081
-0.00124289
-0.00132041
-0.00142154
-0.00152367
-0.000578547
-0.0012663
-0.00129203
-0.00131968
-0.00141288
-0.00166073
-0.00072656
-0.0936467
-0.0934983
-0.0926063
-0.0926722
-0.0933306
-0.0931814
-0.092526
-0.0925457
-0.092914
-0.0934225
-0.0933885
-0.0935156
-0.0922894
-0.0926222
-0.0923381
-0.0928843
-0.093771
-0.0938361
-0.0936135
-0.0937825
-0.0920494
-0.0923925
-0.0920936
-0.0927632
-0.092331
-0.0946981
-0.0939314
-0.0943104
-0.093852
-0.0940829
-0.091773
-0.0921321
-0.0918289
-0.0929403
-0.0917298
-0.0918403
-0.0948984
-0.0948122
-0.0941049
-0.0941239
-0.0943736
-0.0943365
-0.0915451
-0.0918904
-0.0915899
-0.0931147
-0.0919313
-0.0907401
-0.0913386
-0.0916411
-0.0950937
-0.094618
-0.0942864
-0.0945625
-0.0913087
-0.0913637
-0.0932938
-0.0921187
-0.0909362
-0.0897488
-0.0904166
-0.090848
-0.0911555
-0.0914073
-0.0952813
-0.0944695
-0.0910632
-0.0911136
-0.0934768
-0.0923006
-0.0911255
-0.089942
-0.0887625
-0.0893693
-0.0898583
-0.0904433
-0.0905169
-0.0906786
-0.0909065
-0.0954645
-0.0946535
-0.090798
-0.0908514
-0.0936631
-0.0924847
-0.0913087
-0.0901322
-0.0889544
-0.0877973
-0.0883903
-0.0888742
-0.0892703
-0.0896982
-0.0897709
-0.0903889
-0.0906226
-0.0956455
-0.0948346
-0.0905821
-0.0938485
-0.0926733
-0.0914937
-0.090317
-0.089144
-0.0879815
-0.0868959
-0.0874177
-0.0878886
-0.0882974
-0.0887805
-0.089093
-0.0893334
-0.0897792
-0.0895498
-0.0899671
-0.0903518
-0.0958216
-0.0950017
-0.0940205
-0.0928624
-0.091684
-0.090503
-0.0893287
-0.0881644
-0.0870437
-0.0858802
-0.0865016
-0.0870402
-0.0872944
-0.0877817
-0.0881185
-0.0883573
-0.0888243
-0.088593
-0.095983
-0.0951329
-0.0941548
-0.0930387
-0.091876
-0.0906949
-0.0895149
-0.0883461
-0.0872031
-0.0860615
-0.084895
-0.0854919
-0.0859916
-0.0863923
-0.0870429
-0.0870755
-0.0873323
-0.0878425
-0.0876046
-0.09611
-0.0951776
-0.0941958
-0.0931746
-0.0920558
-0.0908897
-0.0897079
-0.088531
-0.0873737
-0.0862309
-0.0850815
-0.0839216
-0.0845245
-0.0850185
-0.0854024
-0.0858693
-0.0861413
-0.0863454
-0.0868181
-0.0870379
-0.0961562
-0.095044
-0.094045
-0.0932094
-0.0921922
-0.0910723
-0.0899047
-0.0887242
-0.0875537
-0.0864009
-0.0852582
-0.0841067
-0.0829428
-0.0835564
-0.08405
-0.0844429
-0.084928
-0.085225
-0.0854764
-0.0859272
-0.0856836
-0.0861298
-0.0862377
-0.0872225
-0.0960357
-0.0945846
-0.0935457
-0.093038
-0.0922199
-0.0912081
-0.0900892
-0.0889227
-0.087746
-0.0865805
-0.085432
-0.084288
-0.0831306
-0.0819482
-0.0825774
-0.0830746
-0.0834763
-0.0839633
-0.0842641
-0.0845082
-0.0849853
-0.0847409
-0.0851837
-0.0854316
-0.0858816
-0.0856541
-0.0956112
-0.093592
-0.0924787
-0.0924925
-0.0920242
-0.0912254
-0.0902229
-0.0891088
-0.0879461
-0.0867743
-0.0856146
-0.0844681
-0.0833192
-0.0821442
-0.0809436
-0.081578
-0.0820856
-0.0824972
-0.0829884
-0.0832966
-0.08354
-0.084017
-0.0837759
-0.0842204
-0.08446
-0.0849338
-0.0846995
-0.094686
-0.0918212
-0.090588
-0.0913421
-0.0914258
-0.0910001
-0.0902275
-0.0892384
-0.0881333
-0.0869773
-0.0858126
-0.0846578
-0.0835089
-0.0823461
-0.0811483
-0.0799511
-0.0805425
-0.0810718
-0.0814967
-0.082001
-0.0823153
-0.0825644
-0.0830461
-0.0828012
-0.0832516
-0.0834927
-0.0839658
-0.0837339
-0.0930255
-0.0890514
-0.0876477
-0.0893217
-0.0901831
-0.0903429
-0.0899686
-0.0892259
-0.0882572
-0.0871651
-0.08602
-0.0848635
-0.0837096
-0.0825516
-0.0813651
-0.080149
-0.0788516
-0.0795581
-0.0800599
-0.0804453
-0.0809802
-0.0813188
-0.0815685
-0.0820622
-0.0818154
-0.0822711
-0.0825172
-0.0829984
-0.0827572
-0.0904175
-0.0851745
-0.0835524
-0.0862002
-0.0880211
-0.0889988
-0.0892434
-0.088926
-0.0882238
-0.0872812
-0.0862079
-0.0850768
-0.083927
-0.0827695
-0.0815924
-0.0803751
-0.0790912
-0.0776745
-0.0783823
-0.0790081
-0.0795354
-0.0799795
-0.080258
-0.080527
-0.081054
-0.0807998
-0.0812744
-0.0815233
-0.0820145
-0.0817715
-0.086753
-0.0802602
-0.0783828
-0.0818774
-0.0847066
-0.0866828
-0.087784
-0.0881234
-0.0878762
-0.0872222
-0.0863135
-0.0852643
-0.0841483
-0.0830033
-0.081834
-0.0806268
-0.0793537
-0.0779686
-0.0764253
-0.0771883
-0.0778338
-0.0782744
-0.0788722
-0.0791985
-0.0797313
-0.0800028
-0.0797465
-0.0802016
-0.0804864
-0.0810101
-0.0807576
-0.0820907
-0.0745563
-0.0724063
-0.0764494
-0.0801474
-0.0831615
-0.0852997
-0.0865382
-0.0869854
-0.0868185
-0.086223
-0.0853565
-0.0843354
-0.0832349
-0.0820889
-0.0808981
-0.079643
-0.0782876
-0.0767713
-0.0751626
-0.0758898
-0.0765879
-0.0770862
-0.0777073
-0.0780644
-0.0783761
-0.078928
-0.0786133
-0.0789643
-0.0799206
-0.0798953
-0.0794567
-0.0766617
-0.0684123
-0.0659934
-0.0702038
-0.0744568
-0.0783556
-0.0815595
-0.0838715
-0.0852578
-0.0858265
-0.0857535
-0.0852277
-0.0844103
-0.0834211
-0.0823333
-0.0811793
-0.0799535
-0.07863
-0.0771618
-0.0755006
-0.0735648
-0.0747487
-0.0753149
-0.0757626
-0.0764487
-0.0768635
-0.0771978
-0.0777999
-0.0774792
-0.0780348
-0.0783219
-0.0788138
-0.0785736
-0.0789195
-0.0802035
-0.070795
-0.062205
-0.0595444
-0.0635324
-0.0679449
-0.0723989
-0.0764982
-0.0798969
-0.0823907
-0.08394
-0.0846458
-0.0846804
-0.0842348
-0.0834737
-0.0825173
-0.0814384
-0.0802656
-0.0789898
-0.0775733
-0.0759603
-0.0740927
-0.0729636
-0.071884
-0.073679
-0.0750832
-0.0755549
-0.0759007
-0.0765592
-0.0762101
-0.076828
-0.077146
-0.077751
-0.0774458
-0.0779941
-0.0782742
-0.0787915
-0.0785466
-0.0648446
-0.0563028
-0.0534506
-0.0568605
-0.0610265
-0.0656258
-0.0702731
-0.0745693
-0.0781669
-0.0808543
-0.082582
-0.0834387
-0.0835952
-0.0832418
-0.0825422
-0.0816183
-0.0805414
-0.0793367
-0.0779914
-0.076452
-0.0746526
-0.0725284
-0.0713322
-0.0724386
-0.0733137
-0.0700278
-0.0739354
-0.0753281
-0.0752272
-0.0754976
-0.0758498
-0.0765121
-0.0761769
-0.0767796
-0.0770857
-0.0776945
-0.077403
-0.0591554
-0.0510508
-0.0480745
-0.0506005
-0.0541527
-0.0584756
-0.0632456
-0.0680745
-0.072565
-0.076366
-0.0792579
-0.0811757
-0.0822005
-0.0824948
-0.0822418
-0.0816079
-0.0807142
-0.07963
-0.0783775
-0.0769359
-0.0752394
-0.0732165
-0.0708001
-0.0693919
-0.0706375
-0.0715822
-0.0721352
-0.0725905
-0.0730256
-0.0734584
-0.0680221
-0.0738374
-0.0742228
-0.0740705
-0.07508
-0.0754502
-0.0757957
-0.0764533
-0.076133
-0.0540535
-0.0467464
-0.0437177
-0.0451311
-0.0477548
-0.0514222
-0.0558802
-0.0608019
-0.0658007
-0.070481
-0.0744878
-0.0775919
-0.0797162
-0.0809258
-0.0813673
-0.0812246
-0.0806593
-0.0797904
-0.0786872
-0.0773646
-0.0757964
-0.0739099
-0.0716222
-0.0688979
-0.0673035
-0.0685937
-0.0696436
-0.0702687
-0.0707935
-0.0712378
-0.0716799
-0.0658998
-0.074468
-0.0750498
-0.0498296
-0.0435704
-0.0405459
-0.0407534
-0.0422253
-0.0449174
-0.0486739
-0.0532412
-0.0582942
-0.0634492
-0.0683114
-0.0725251
-0.0758506
-0.0781937
-0.0795975
-0.0802018
-0.080176
-0.0796787
-0.0788284
-0.0776893
-0.0762706
-0.0745404
-0.0724255
-0.0698405
-0.0668037
-0.0652511
-0.0663566
-0.0674476
-0.0681983
-0.0687574
-0.069259
-0.0697435
-0.0633569
-0.046674
-0.0415263
-0.0385389
-0.0376162
-0.0378609
-0.0393637
-0.0420971
-0.0459124
-0.0505614
-0.055723
-0.0610169
-0.0660529
-0.0704714
-0.0740235
-0.0765928
-0.0782052
-0.0789796
-0.0790752
-0.0786452
-0.0778018
-0.0766059
-0.0750629
-0.0731313
-0.0707478
-0.0678375
-0.0644217
-0.062417
-0.0640142
-0.0655687
-0.0657922
-0.0664353
-0.0670367
-0.0675893
-0.0605423
-0.0446149
-0.0404449
-0.037503
-0.0356705
-0.0347869
-0.0350473
-0.0365571
-0.0393011
-0.0431436
-0.0478446
-0.0530893
-0.0585033
-0.0637004
-0.0683201
-0.0720975
-0.0749004
-0.0767272
-0.0776789
-0.077899
-0.0775298
-0.0766796
-0.0754035
-0.0737024
-0.0715321
-0.0688357
-0.0655671
-0.0617542
-0.0594678
-0.0611312
-0.0625636
-0.0632943
-0.0639813
-0.0653658
-0.0651595
-0.0574596
-0.0435082
-0.0400555
-0.0371514
-0.0346955
-0.0329224
-0.0320652
-0.0323231
-0.0338139
-0.0365384
-0.0403748
-0.045096
-0.0503959
-0.0559083
-0.061251
-0.0660594
-0.0700607
-0.0730959
-0.0751425
-0.0762741
-0.0766155
-0.0762997
-0.0754236
-0.0740397
-0.072147
-0.0697002
-0.0666556
-0.0630134
-0.0587968
-0.0562779
-0.0580833
-0.0596501
-0.0605292
-0.0612847
-0.0619547
-0.0626522
-0.0631912
-0.0637387
-0.0657102
-0.0541065
-0.0430974
-0.0400781
-0.0371984
-0.0343889
-0.03202
-0.0303005
-0.0294584
-0.0296968
-0.0311443
-0.0338176
-0.0376145
-0.0423224
-0.0476478
-0.0532322
-0.0586993
-0.0636831
-0.0678961
-0.0711618
-0.0734249
-0.0747327
-0.0751915
-0.0749145
-0.0739929
-0.0724733
-0.0703545
-0.0675985
-0.0641932
-0.0601624
-0.0555523
-0.0528184
-0.0547507
-0.0564427
-0.0573898
-0.0582136
-0.0589912
-0.0597596
-0.0603657
-0.0611289
-0.061792
-0.0624582
-0.0504925
-0.0431076
-0.040287
-0.0374193
-0.0344604
-0.0317621
-0.0294791
-0.0278099
-0.0269744
-0.0271777
-0.0285574
-0.0311497
-0.034873
-0.039533
-0.0448506
-0.0504777
-0.0560436
-0.0611813
-0.0655926
-0.0690751
-0.0715461
-0.0730251
-0.0735882
-0.0733349
-0.0723446
-0.0706612
-0.0682864
-0.0652082
-0.0614354
-0.0570153
-0.0520357
-0.0491015
-0.0511469
-0.052956
-0.0539748
-0.0548611
-0.0557085
-0.0565382
-0.0571866
-0.058026
-0.0587825
-0.0595364
-0.0466314
-0.0433103
-0.0405368
-0.0376735
-0.0346896
-0.0318582
-0.0292735
-0.0270778
-0.0254558
-0.0246203
-0.0247729
-0.0260627
-0.0285454
-0.0321618
-0.0367384
-0.0420124
-0.0476487
-0.0532831
-0.058548
-0.063133
-0.0668145
-0.0694811
-0.0711139
-0.0717677
-0.0715186
-0.0704369
-0.0685645
-0.0659192
-0.0625133
-0.0583771
-0.0535847
-0.0482632
-0.0451469
-0.0472921
-0.049214
-0.0502935
-0.0512387
-0.0521544
-0.0530373
-0.0537394
-0.0546505
-0.0554686
-0.0562926
-0.0425546
-0.0435531
-0.0414614
-0.0399908
-0.0385577
-0.0349426
-0.0371507
-0.0320941
-0.029394
-0.0269253
-0.0248172
-0.023241
-0.0223975
-0.0224877
-0.0236698
-0.0260179
-0.0294941
-0.0339505
-0.0391438
-0.044752
-0.050419
-0.0557776
-0.0605075
-0.0643631
-0.0672
-0.0689695
-0.069693
-0.0694281
-0.0682338
-0.0661583
-0.0632385
-0.0595074
-0.0550256
-0.0498974
-0.0442627
-0.0409852
-0.0432134
-0.0452318
-0.0463681
-0.0473636
-0.0483443
-0.0492828
-0.0500342
-0.0509972
-0.0518906
-0.0527644
-0.0383056
-0.0444977
-0.0429671
-0.0418872
-0.0411555
-0.0404667
-0.0397223
-0.0389622
-0.0382624
-0.0357845
-0.0323439
-0.0344434
-0.0376036
-0.0368922
-0.0296351
-0.0270682
-0.0247172
-0.0226973
-0.021165
-0.0203106
-0.0203305
-0.0213892
-0.0235766
-0.0268832
-0.0311842
-0.0362574
-0.0417968
-0.0474564
-0.0528699
-0.0577084
-0.0617038
-0.0646838
-0.0665619
-0.0673335
-0.0670326
-0.0657131
-0.0634303
-0.0602365
-0.0561987
-0.0514018
-0.0459749
-0.0400765
-0.036661
-0.0389465
-0.0410463
-0.0422214
-0.0432708
-0.0442983
-0.0452911
-0.0460726
-0.0471022
-0.0480476
-0.0489839
-0.0339413
-0.0441815
-0.0434633
-0.0426872
-0.0418874
-0.0411793
-0.0405312
-0.0398051
-0.0389617
-0.0382844
-0.0361688
-0.0355015
-0.0331436
-0.0298797
-0.0318695
-0.0348733
-0.0341958
-0.0376642
-0.03697
-0.0273122
-0.0248804
-0.022648
-0.0207166
-0.0192294
-0.0183617
-0.0183041
-0.0192262
-0.0212352
-0.024344
-0.0284545
-0.0333677
-0.0387968
-0.0444042
-0.0498285
-0.0547323
-0.0588277
-0.0619142
-0.0638719
-0.0646675
-0.0643145
-0.0628629
-0.0603732
-0.0569236
-0.0526042
-0.0475289
-0.0418501
-0.0357556
-0.0322546
-0.0345237
-0.0366925
-0.0379035
-0.0389847
-0.040056
-0.0410932
-0.0419007
-0.042983
-0.043976
-0.0449723
-0.0295088
-0.0442083
-0.0435336
-0.0427765
-0.0361684
-0.0355222
-0.033508
-0.0328733
-0.0306366
-0.0275501
-0.0294299
-0.0322762
-0.0316329
-0.0349304
-0.0342687
-0.0251251
-0.0228286
-0.0207147
-0.0188738
-0.0174309
-0.0165498
-0.0164121
-0.0171899
-0.0190045
-0.0218917
-0.0257805
-0.0304943
-0.0357671
-0.0412756
-0.0466618
-0.0515821
-0.0557322
-0.0588844
-0.0608896
-0.0616859
-0.0612709
-0.0596848
-0.0570024
-0.0533193
-0.048752
-0.0434463
-0.0375693
-0.0313505
-0.0278644
-0.0299699
-0.0321983
-0.0334451
-0.0345533
-0.0356565
-0.0367294
-0.0375632
-0.0386704
-0.0397126
-0.0407459
-0.0250551
-0.0335077
-0.0328924
-0.0309809
-0.0303788
-0.0282639
-0.0253547
-0.0271246
-0.0298126
-0.029204
-0.0323294
-0.0317006
-0.0230716
-0.0209097
-0.0189152
-0.0171637
-0.0157677
-0.0148737
-0.0146561
-0.0152857
-0.0168957
-0.0195424
-0.0231799
-0.0276568
-0.0327288
-0.0380886
-0.0433843
-0.0482686
-0.0524233
-0.0555993
-0.0576192
-0.0583973
-0.0579092
-0.0561969
-0.0533411
-0.0494551
-0.0446886
-0.0391975
-0.0331939
-0.0269287
-0.0233464
-0.0256073
-0.0276531
-0.0288506
-0.029995
-0.0311352
-0.0322389
-0.0330813
-0.0342237
-0.0352906
-0.0363601
-0.0206829
-0.0309804
-0.0303962
-0.0285882
-0.0280187
-0.0260253
-0.0232917
-0.0249528
-0.0274832
-0.0269092
-0.0298615
-0.0292662
-0.0211492
-0.0191209
-0.0172437
-0.0155827
-0.014234
-0.0133314
-0.013036
-0.0135179
-0.0149184
-0.017309
-0.0206708
-0.0248756
-0.0297045
-0.0348652
-0.0400158
-0.0448094
-0.0489187
-0.0520755
-0.0540794
-0.0548174
-0.0542574
-0.0524298
-0.0494257
-0.0453815
-0.0404546
-0.0348511
-0.028797
-0.0225733
-0.0188839
-0.0209346
-0.0231667
-0.0246014
-0.0253983
-0.0264727
-0.0275893
-0.0284622
-0.0296517
-0.0307553
-0.0318623
-0.0164228
-0.0285877
-0.0280344
-0.0263295
-0.0257924
-0.0239193
-0.0213588
-0.0229127
-0.0252874
-0.0247477
-0.0275278
-0.0269659
-0.0193545
-0.0174568
-0.0156956
-0.014124
-0.0128253
-0.0119169
-0.0115501
-0.0118902
-0.0130798
-0.0152078
-0.0182724
-0.0221755
-0.0267189
-0.0316306
-0.0365829
-0.0412324
-0.0452463
-0.0483427
-0.0502987
-0.0509862
-0.0503514
-0.0484263
-0.0453118
-0.0411463
-0.0361291
-0.0304802
-0.0244542
-0.0183299
-0.0145929
-0.0165245
-0.0186278
-0.0197781
-0.0208688
-0.0219498
-0.0231507
-0.0246453
-0.0246271
-0.0259294
-0.0271618
-0.0123069
-0.0263286
-0.0258064
-0.0242035
-0.0236985
-0.0219436
-0.0195529
-0.0210017
-0.0232238
-0.0227178
-0.0253278
-0.0247991
-0.017683
-0.0159126
-0.0142643
-0.0127816
-0.0115339
-0.010626
-0.0101964
-0.0104017
-0.0113876
-0.0132485
-0.0160034
-0.0195777
-0.0237976
-0.0284157
-0.0331191
-0.0375729
-0.0414443
-0.0444397
-0.0463231
-0.0469438
-0.0462436
-0.044248
-0.0410532
-0.0368292
-0.03178
-0.0261542
-0.0202266
-0.0142266
-0.0104858
-0.0122734
-0.0143221
-0.0154065
-0.0164722
-0.0175357
-0.0186108
-0.019381
-0.0204756
-0.0214746
-0.0224576
-0.0248242
-0.00840045
-0.0242022
-0.0237106
-0.0222082
-0.0217348
-0.0200956
-0.0178694
-0.0192165
-0.0212897
-0.0208169
-0.0232599
-0.022764
-0.0161297
-0.0144821
-0.0129435
-0.0115481
-0.0103537
-0.00945194
-0.00897026
-0.00905485
-0.00984462
-0.0114403
-0.0138776
-0.0171027
-0.0209693
-0.0252528
-0.0296613
-0.0338731
-0.0375577
-0.0404168
-0.0422025
-0.0427537
-0.0419984
-0.0399539
-0.0367305
-0.0324939
-0.0274778
-0.0219487
-0.0161445
-0.0103336
-0.00659739
-0.00820356
-0.0101701
-0.0111627
-0.0121994
-0.0132294
-0.0142771
-0.015011
-0.0161018
-0.0171515
-0.0182334
-0.0190085
-0.0201049
-0.0211532
-0.0220556
-0.00475537
-0.0222063
-0.0217449
-0.0203409
-0.0198983
-0.0183712
-0.0163035
-0.0175528
-0.0194822
-0.0190414
-0.0213218
-0.020858
-0.014689
-0.0131593
-0.0117265
-0.0104161
-0.00927633
-0.00838905
-0.00786728
-0.00784431
-0.0084507
-0.00979048
-0.0119075
-0.0147706
-0.0182602
-0.0221752
-0.0262508
-0.0301788
-0.0336385
-0.0363304
-0.0380027
-0.0384808
-0.0376831
-0.0356239
-0.0324071
-0.028222
-0.0233019
-0.017899
-0.0122776
-0.00670334
-0.00298778
-0.00439337