/*--------------------------------*- C++ -*----------------------------------*\
| =========                 |                                                 |
| \\      /  F ield         | OpenFOAM: The Open Source CFD Toolbox           |
|  \\    /   O peration     | Version:  v1912                                 |
|   \\  /    A nd           | Website:  www.openfoam.com                      |
|    \\/     M anipulation  |                                                 |
\*---------------------------------------------------------------------------*/
FoamFile
{
    version     2.0;
    format      ascii;
    class       surfaceScalarField;
    location    "320";
    object      phi;
}
// * * * * * * * * * * * * * * * * * * * * * * * * * * * * * * * * * * * * * //

dimensions      [0 3 -1 0 0 0 0];
oriented        oriented;


internalField   nonuniform List<scalar> 
7191
(
-1.95652e-06
0.00132222
-9.08225e-06
0.00397014
-2.10857e-06
0.00132433
-2.41748e-05
0.00657776
-9.46676e-06
0.0039775
-2.11182e-06
0.00132644
-4.4799e-05
0.00905812
-2.40408e-05
0.00659233
-9.46925e-06
0.00398486
-1.99281e-06
0.00132843
-7.50343e-05
0.0112993
-4.80648e-05
0.00908214
-2.35612e-05
0.00660642
-9.34282e-06
0.00399221
-2.03486e-06
0.00133047
-0.000115748
0.0131645
-7.90626e-05
0.0113303
-4.53544e-05
0.00910394
-2.41755e-05
0.00662126
-9.72637e-06
0.0039999
-1.71851e-06
0.00133219
-0.00016212
0.0145259
-0.000119413
0.0132048
-7.89525e-05
0.0113639
-4.63371e-05
0.0091261
-2.17547e-05
0.00663329
-8.08404e-06
0.00400627
-1.59469e-06
0.00133378
-0.00020654
0.0152706
-0.000165039
0.0145716
-0.000117758
0.0132436
-7.32716e-05
0.0113909
-4.14107e-05
0.00914576
-1.95572e-05
0.00664476
-7.26448e-06
0.00401194
-1.49108e-06
0.00133527
-0.000249577
0.0153322
-0.000215379
0.0153209
-0.000162378
0.0146162
-0.000112461
0.0132828
-7.06704e-05
0.0114201
-3.7769e-05
0.00916397
-1.82194e-05
0.00665571
-6.6418e-06
0.00401709
-1.16522e-06
0.00133644
-0.000279953
0.0146712
-0.0002585
0.0153753
-0.000211485
0.01537
-0.000155875
0.0146596
-0.000100946
0.0133131
-6.17005e-05
0.0114441
-3.35376e-05
0.00917929
-1.55263e-05
0.0066646
-4.57124e-06
0.00402049
-1.17929e-06
0.00133762
-0.000292656
0.0133257
-0.000300846
0.0147135
-0.000258428
0.0154223
-0.000197828
0.015412
-0.000137022
0.0146957
-9.20546e-05
0.0133435
-5.42789e-05
0.0114648
-2.99218e-05
0.00919368
-1.41726e-05
0.0066742
-5.19787e-06
0.00402451
-8.46695e-07
0.00133846
-0.000285923
0.0113803
-0.000331981
0.0133568
-0.000297638
0.0147527
-0.00023738
0.0154618
-0.000174366
0.0154493
-0.000122541
0.0147262
-7.84432e-05
0.0133676
-4.75195e-05
0.0114824
-2.56497e-05
0.00920516
-1.08932e-05
0.00667989
-4.57677e-06
0.00402824
-7.52238e-07
0.00133922
-0.000246054
0.00896765
-0.000352431
0.0114008
-0.000327139
0.0133863
-0.000263814
0.0147792
-0.000201093
0.0154885
-0.000148445
0.0154752
-0.000102393
0.0147501
-6.57602e-05
0.0133859
-3.94599e-05
0.0114962
-2.14391e-05
0.0092157
-1.13745e-05
0.00668669
-4.17107e-06
0.00403166
-7.88454e-07
0.00134
0.00624019
-0.000110134
-5.03632e-05
-0.000357481
0.0089727
-0.000343809
0.0114175
-0.000277202
0.0133997
-0.000216729
0.0147948
-0.000166646
0.0155067
-0.000119592
0.0154924
-8.41783e-05
0.0147685
-5.79478e-05
0.0134044
-3.63256e-05
0.0115111
-2.06376e-05
0.00922497
-1.02426e-05
0.00669276
-4.00999e-06
0.00403488
-7.73175e-07
0.00134078
0.00622589
-0.00020113
-0.000142048
-0.0021179
0.00207141
-6.36423e-05
-3.26923e-05
-0.00213557
-0.000349652
0.00897854
-0.000269175
0.0114094
-0.000210948
0.0133939
-0.000166994
0.0147952
-0.000129514
0.0155167
-0.000101182
0.0155094
-7.35821e-05
0.0147842
-4.7763e-05
0.0134158
-3.02522e-05
0.0115207
-1.74173e-05
0.00923214
-8.68866e-06
0.00669744
-3.88753e-06
0.004038
-8.4109e-07
0.00134162
0.00621192
-0.000140019
-0.00019567
-0.00204071
0.00201352
-0.000173937
-0.00011135
-0.00139617
0.00135294
-1.55097e-05
-4.90647e-06
-9.12463e-07
-0.0014213
-6.65105e-06
-2.00968e-05
-0.000228281
0.00893765
-0.000183749
0.0113822
-0.000154067
0.013381
-0.000128685
0.0147943
-0.000105201
0.0155207
-8.06368e-05
0.0155165
-5.74497e-05
0.0147939
-4.23167e-05
0.0134279
-2.77083e-05
0.011531
-1.88015e-05
0.00924226
-1.02241e-05
0.00670378
-3.43121e-06
0.00404059
-1.08316e-06
0.0013427
0.00612577
-4.1901e-05
-0.000100223
-0.00198947
0.00195874
-0.000109282
-0.000171624
-0.00129824
0.00126422
-8.69362e-05
-5.29809e-05
-1.6985e-05
-3.96686e-05
-0.000438705
0.000428686
-5.49045e-06
-0.00044097
-2.64163e-06
0.000445864
-0.000446009
-7.68127e-07
-3.60635e-06
-6.08946e-08
-1.75696e-06
-0.000125208
0.00887911
-0.000117093
0.0113453
-0.000107507
0.0133598
-9.60174e-05
0.0147851
-8.00114e-05
0.0155201
-6.38095e-05
0.0155229
-5.20683e-05
0.0148036
-3.84008e-05
0.0134386
-2.70873e-05
0.0115393
-1.71546e-05
0.00924919
-1.07612e-05
0.00671111
-4.98796e-06
0.00404449
-1.14384e-06
0.00134385
0.00604532
-8.23451e-06
-3.6527e-05
-0.00191297
0.00189538
-2.43144e-05
-5.44556e-05
-0.00123615
0.0011843
-1.70136e-05
-4.04185e-05
-7.9992e-05
-6.35568e-05
-0.000379697
0.000352692
-5.99318e-05
-0.000399486
-3.31918e-05
0.000420889
-9.18813e-06
-1.82653e-05
-0.000257414
0.000252686
-7.61884e-07
-0.000259642
-4.13518e-07
-0.000448553
-1.06251e-06
0.000261124
-0.00026183
-6.21983e-08
-1.89614e-08
-2.75679e-07
-6.70605e-05
0.00882907
-7.46729e-05
0.0113124
-7.61349e-05
0.0133399
-7.2413e-05
0.0147775
-6.48916e-05
0.0155211
-5.79208e-05
0.0155287
-4.67468e-05
0.014812
-3.67124e-05
0.0134482
-2.91313e-05
0.0115513
-2.05396e-05
0.00925896
-1.06041e-05
0.00671673
-5.31097e-06
0.00404866
-1.2108e-06
0.00134506
0.0059942
-6.23008e-07
-1.53163e-05
-0.0018714
0.0018686
-5.43401e-06
-1.25445e-05
-0.00114282
0.00112181
-1.75408e-07
-3.13766e-06
-1.04004e-05
-2.57108e-06
-0.000289307
0.000278605
-6.31228e-06
-0.000311057
-1.86685e-05
0.000331112
-5.84112e-05
-4.35018e-05
-0.000207271
0.000168628
-2.12884e-05
-0.000230737
-9.72601e-06
0.000245222
-1.72457e-06
-3.78019e-06
-7.4936e-05
7.41741e-05
-7.53495e-05
-0.000262778
-1.13972e-07
7.56252e-05
-7.56874e-05
-4.493e-08
-3.72494e-05
0.00879165
-4.8909e-05
0.0112852
-5.42166e-05
0.0133217
-5.4576e-05
0.0147672
-5.40724e-05
0.0155173
-4.89483e-05
0.0155309
-4.31023e-05
0.0148183
-3.79577e-05
0.013457
-2.95003e-05
0.0115602
-2.03396e-05
0.0092687
-1.36185e-05
0.00672503
-6.15647e-06
0.0040536
-1.53442e-06
0.00134659
0.00596388
9.5797e-07
-7.88317e-06
-0.00185682
0.0018572
-1.00286e-06
-3.53468e-06
-0.00111025
0.00110491
5.50096e-07
-6.37958e-07
-1.20109e-06
2.17058e-07
-0.00026582
0.000265738
-9.28395e-08
-0.000268583
-3.74911e-07
0.000270483
-2.27793e-06
-6.71256e-07
-8.57014e-05
7.93891e-05
-0.00010437
0.000147872
-3.7655e-05
-5.89434e-05
3.7655e-05
-6.86694e-05
7.24496e-05
-7.58014e-05
-2.20084e-05
0.00876475
-3.34451e-05
0.0112644
-4.05478e-05
0.0133077
-4.66483e-05
0.0147598
-4.75494e-05
0.0155159
-4.66414e-05
0.0155344
-4.58314e-05
0.0148262
-4.05906e-05
0.0134681
-3.2558e-05
0.0115724
-2.50838e-05
0.00928017
-1.51082e-05
0.00673399
-6.92325e-06
0.00405899
-1.5724e-06
0.00134816
0.00594521
1.65287e-06
-4.99478e-06
-0.00185073
0.00185231
-6.24935e-07
-1.414e-06
-0.00110148
0.0011004
4.03453e-07
-3.22838e-07
-3.3408e-07
2.24651e-07
-0.000264208
0.000264698
5.94134e-08
-0.000264902
5.66006e-08
0.00026471
-1.73048e-07
2.47132e-08
-7.6065e-05
7.59722e-05
-7.64399e-05
7.71112e-05
-1.40022e-05
0.00874531
-2.48692e-05
0.0112488
-3.19494e-05
0.013293
-3.77078e-05
0.01475
-4.43477e-05
0.0155136
-4.76174e-05
0.0155362
-4.92388e-05
0.0148349
-4.52948e-05
0.0134808
-3.93276e-05
0.0115867
-2.85048e-05
0.00929356
-1.6996e-05
0.00674406
-7.76899e-06
0.00406519
-1.9352e-06
0.0013501
0.00593338
9.67346e-07
-3.14279e-06
-0.00184797
0.00184965
-2.89548e-08
-6.55098e-07
-0.00109902
0.00109829
2.63771e-07
-1.61278e-07
-1.88203e-07
1.51987e-07
-0.000264216
0.000264586
3.30831e-08
-0.000264619
8.06531e-08
0.00026445
-8.62558e-08
5.57089e-08
-7.58804e-05
7.59398e-05
-7.58238e-05
7.57991e-05
-1.01429e-05
0.00873058
-1.72181e-05
0.011234
-2.73945e-05
0.0132827
-3.54628e-05
0.0147411
-4.36978e-05
0.0155097
-5.33343e-05
0.0155403
-5.56667e-05
0.0148452
-5.41652e-05
0.0134957
-4.51688e-05
0.0116034
-3.39795e-05
0.00931055
-2.04121e-05
0.0067567
-9.3355e-06
0.00407259
-2.03546e-06
0.00135213
0.00592436
7.42028e-07
-1.85907e-06
-0.00184705
0.0018478
2.25575e-07
-5.43853e-07
-0.00109774
0.00109756
2.53066e-07
-9.5543e-08
-1.51892e-07
4.71277e-08
-0.000264359
0.000264612
1.0697e-08
-0.000264586
6.57566e-08
0.000264466
-6.84764e-08
3.27158e-08
-7.59899e-05
7.6023e-05
-7.59093e-05
7.58536e-05
-7.04878e-06
0.00872041
-1.42476e-05
0.0112209
-2.49194e-05
0.0132721
-3.62619e-05
0.0147336
-4.91215e-05
0.0155055
-5.9008e-05
0.0155437
-6.57648e-05
0.0148568
-6.3428e-05
0.0135139
-5.33296e-05
0.0116227
-3.58611e-05
0.00932599
-2.07435e-05
0.00676811
-8.8766e-06
0.00407943
-1.84728e-06
0.00135398
0.00591762
1.16398e-06
-1.47687e-06
-0.00184633
0.00184689
1.81626e-07
-3.88098e-07
-0.00109707
0.00109723
1.6441e-07
-1.07983e-07
-8.77312e-08
3.48449e-08
-0.000264403
0.000264648
8.34216e-09
-0.00026457
7.10643e-08
0.000264539
-7.94998e-08
1.68488e-08
-7.6053e-05
7.60637e-05
-7.59873e-05
7.59545e-05
-5.90612e-06
0.00871207
-1.29704e-05
0.0112089
-2.39282e-05
0.0132598
-4.20285e-05
0.0147266
-6.07989e-05
0.0155073
-7.55479e-05
0.0155534
-7.94304e-05
0.0148728
-7.30999e-05
0.0135337
-5.86405e-05
0.0116455
-4.10751e-05
0.00934633
-2.289e-05
0.00678212
-8.78255e-06
0.00408637
-1.91706e-06
0.0013559
0.00591191
9.73726e-07
-1.17405e-06
-0.00184562
0.00184656
2.26729e-07
-2.1027e-07
-0.00109691
0.00109697
1.62746e-07
-4.31369e-08
-1.99717e-08
-4.42884e-08
-0.000264485
0.000264647
2.18962e-09
-0.000264661
6.83668e-08
0.00026464
-8.03633e-08
1.40976e-08
-7.60721e-05
7.60805e-05
-7.60011e-05
7.59842e-05
-4.08967e-06
0.00870319
-1.26934e-05
0.0111977
-2.84036e-05
0.0132462
-4.72427e-05
0.014713
-7.07628e-05
0.0155025
-8.93966e-05
0.0155634
-9.73063e-05
0.014897
-8.68202e-05
0.0135619
-6.63717e-05
0.0116708
-4.33686e-05
0.0093668
-2.23887e-05
0.00679573
-9.48054e-06
0.00409393
-2.49695e-06
0.0013584
0.00590764
8.27541e-07
-6.41631e-07
-0.00184556
0.0018463
2.35556e-07
-1.82793e-07
-0.00109682
0.00109691
1.6647e-07
-3.12907e-08
-1.85015e-08
-3.8388e-08
-0.000264514
0.000264671
5.58939e-09
-0.000264654
9.71305e-08
0.000264707
-8.00263e-08
8.57239e-09
-7.60826e-05
7.60848e-05
-7.60142e-05
7.60001e-05
-4.65644e-06
0.00869515
-1.50768e-05
0.0111844
-3.4842e-05
0.0132338
-6.48837e-05
0.0147071
-9.41001e-05
0.0155072
-0.000112908
0.015579
-0.000113106
0.0149233
-9.72264e-05
0.0135927
-7.13587e-05
0.0116988
-4.45922e-05
0.00938901
-2.27301e-05
0.00680898
-7.72429e-06
0.00409916
-7.224e-07
0.00135912
0.00590287
4.44353e-07
-3.36096e-07
-0.00184565
0.00184621
2.70205e-07
1.32152e-08
-0.00109679
0.00109688
1.65148e-07
-2.21285e-08
-1.12841e-08
-4.85879e-08
-0.000264585
0.000264745
6.15723e-09
-0.000264681
6.54495e-08
0.000264736
-8.34783e-08
1.63009e-08
-7.61104e-05
7.6116e-05
-7.60133e-05
7.60047e-05
-4.70978e-06
0.00868479
-2.03087e-05
0.0111698
-4.73855e-05
0.0132163
-8.46593e-05
0.0146977
-0.000118566
0.0155128
-0.000136657
0.0156026
-0.000129976
0.0149561
-0.000106683
0.0136281
-7.49957e-05
0.0117292
-4.19923e-05
0.00940827
-2.13191e-05
0.00682257
-6.70216e-06
0.00410514
-6.52974e-07
0.00135977
0.00589872
-7.45825e-07
1.85418e-07
-0.00184581
0.00184611
1.3866e-07
6.03915e-08
-0.00109694
0.00109706
1.68901e-07
-1.629e-08
-6.60119e-09
-3.84636e-08
-0.000264656
0.000264827
-6.40717e-09
-0.000264664
-1.33748e-08
0.000264822
-8.79269e-08
1.08609e-07
-7.61143e-05
7.61204e-05
-7.60488e-05
7.60325e-05
-7.52919e-06
0.00867201
-2.77421e-05
0.0111502
-6.48539e-05
0.0131965
-0.000113645
0.0146928
-0.000151335
0.0155275
-0.000163512
0.0156361
-0.000144873
0.0149943
-0.00011096
0.013664
-7.22021e-05
0.0117594
-4.10682e-05
0.00942802
-1.7415e-05
0.00683329
-6.19545e-06
0.00411068
-4.02019e-07
0.00136017
0.00589117
-1.03821e-06
1.06175e-06
-0.0018462
0.00184531
1.46417e-07
9.93421e-08
-0.00109715
0.00109713
1.70763e-07
-1.28045e-08
3.55527e-09
-3.25396e-08
-0.000264712
0.000264886
-5.38138e-09
-0.000264717
-1.14862e-08
0.000264867
-4.64491e-08
1.11964e-07
-7.61278e-05
7.61213e-05
-7.61411e-05
7.60325e-05
-1.11786e-05
0.00865544
-4.05856e-05
0.0111259
-9.5262e-05
0.0131781
-0.000151696
0.0146931
-0.000189047
0.0155531
-0.000185743
0.015677
-0.00015495
0.0150383
-0.000110274
0.0137021
-6.81337e-05
0.0117865
-3.63602e-05
0.00944696
-1.59535e-05
0.00684304
-2.98694e-06
0.00411326
-1.80731e-07
0.00136035
0.0058806
-2.00255e-06
1.39701e-06
-0.0018462
0.00184535
-1.89333e-07
1.72634e-07
-0.00109725
0.00109725
1.65766e-07
-1.99195e-08
3.84513e-09
-2.34747e-08
-0.00026482
0.000264996
-5.28894e-09
-0.000264823
-1.00345e-08
0.000264969
-7.88708e-08
1.12759e-07
-7.61754e-05
7.617e-05
-7.61869e-05
7.60749e-05
-1.83099e-05
0.00863317
-6.46457e-05
0.0110953
-0.000135573
0.013162
-0.000199544
0.0147036
-0.000222682
0.01559
-0.000197571
0.0157196
-0.000153617
0.0150816
-0.000102518
0.0137365
-6.09606e-05
0.0118111
-3.09261e-05
0.00946194
-1.0672e-05
0.00685073
-2.7302e-06
0.00411581
1.92784e-07
0.00136016
0.00586483
-3.44828e-06
9.11615e-07
-0.00184628
0.00184469
-4.10201e-07
4.66138e-07
-0.00109745
0.00109708
1.79378e-07
2.9749e-09
-3.5532e-10
-2.97147e-08
-0.000264898
0.000265072
-8.23009e-09
-0.000264941
2.22049e-08
0.000265044
-4.35882e-08
7.98227e-08
-7.61938e-05
7.61886e-05
-7.62039e-05
7.60911e-05
-3.08572e-05
0.00859938
-0.000100923
0.0110607
-0.000191936
0.0131544
-0.000249132
0.0147301
-0.00024139
0.0156338
-0.000200078
0.0157661
-0.000142672
0.0151218
-9.26965e-05
0.0137682
-5.1786e-05
0.0118319
-2.28231e-05
0.00947409
-6.47218e-06
0.00685447
7.6652e-07
0.00411524
1.74587e-06
0.00135842
0.00583823
-5.89484e-06
1.6358e-06
-0.00184505
0.00184225
-6.41435e-07
5.44216e-07
-0.00109754
0.00109701
1.08658e-07
7.13942e-09
1.82962e-08
-1.17978e-08
-0.000265029
0.000265205
2.62388e-09
-0.000265035
9.47021e-09
0.000265156
-8.39259e-08
9.13484e-08
-7.6247e-05
7.62388e-05
-7.62248e-05
7.6145e-05
-5.54552e-05
0.00855391
-0.000161402
0.0110301
-0.000260269
0.0131655
-0.000281458
0.0147701
-0.00024501
0.0156787
-0.00018541
0.0158088
-0.000126547
0.0151556
-7.71484e-05
0.0137936
-4.12388e-05
0.0118503
-1.56583e-05
0.00948327
-3.02587e-06
0.00685826
1.66889e-06
0.00411532
2.07799e-06
0.00135634
0.00579502
-1.20614e-05
-1.86857e-07
-0.00184392
0.00183898
-9.4853e-07
-4.01765e-08
-0.00109752
0.00109675
5.04958e-08
8.09981e-08
9.38648e-08
-6.31968e-08
-0.000265188
0.000265298
-1.55164e-09
-0.000265193
1.18898e-08
0.000265301
-7.76904e-08
9.66631e-08
-7.62557e-05
7.62583e-05
-7.62462e-05
7.61548e-05
-0.000104463
0.00849697
-0.000243429
0.0110133
-0.000311075
0.0131951
-0.000288114
0.0148132
-0.000225118
0.0157184
-0.000158828
0.0158411
-0.000103726
0.0151822
-6.15185e-05
0.0138139
-2.86488e-05
0.0118633
-9.31246e-06
0.00948956
1.03282e-06
0.0068589
5.28237e-06
0.00411211
2.47601e-06
0.00135386
0.00572356
-2.77822e-05
-5.21675e-06
-0.0018396
0.00183042
-2.88038e-06
-8.07875e-07
-0.00109666
0.00109561
-1.13524e-10
9.91584e-08
1.77433e-07
-1.26147e-07
-0.000265341
0.000265385
5.66585e-09
-0.000265305
4.55669e-08
0.000265437
-4.52362e-08
6.90898e-08
-7.62891e-05
7.62876e-05
-7.62773e-05
7.61806e-05
-0.00019254
0.00844608
-0.000329558
0.0110318
-0.000322876
0.0132299
-0.000255739
0.0148439
-0.000188781
0.0157484
-0.000130735
0.0158681
-8.23066e-05
0.015203
-4.37107e-05
0.0138289
-1.83909e-05
0.0118724
-2.30492e-06
0.0094929
3.69959e-06
0.00686048
7.33176e-06
0.00410726
2.85698e-06
0.001351
0.00562821
-7.16803e-05
-2.55116e-05
-0.0018285
0.00180947
-8.7566e-06
-3.29552e-06
-0.00109478
0.00109212
-3.13122e-07
9.79472e-08
1.92666e-07
-1.70523e-07
-0.000265491
0.00026552
-2.97706e-08
-0.000265407
1.53278e-08
0.000265635
-7.26988e-08
1.02663e-07
-7.6357e-05
7.63627e-05
-7.63114e-05
7.62424e-05
-0.000323658
0.00844018
-0.000349504
0.0110584
-0.000275886
0.01325
-0.000207238
0.0148623
-0.00014742
0.0157651
-9.89496e-05
0.0158847
-5.8675e-05
0.0152179
-2.91838e-05
0.0138397
-8.4844e-06
0.0118786
4.04283e-06
0.00949256
1.0863e-05
0.00685695
7.65892e-06
0.00410245
3.332e-06
0.00134767
0.00557533
-0.000175155
-9.56235e-05
-0.00179803
0.00175742
-3.1069e-05
-1.40746e-05
-0.00108887
0.00108076
-8.06164e-07
1.58626e-07
4.46681e-07
-4.90994e-07
-0.000265538
0.000265259
-3.42762e-08
-0.000265492
5.17143e-08
0.000265741
-2.76965e-08
7.78655e-08
-7.6408e-05
7.63782e-05
-7.63926e-05
7.629e-05
-0.000363096
0.00845377
-0.000275642
0.0110581
-0.000206365
0.0132491
-0.00015418
0.0148691
-0.000108478
0.0157746
-7.02883e-05
0.0158963
-3.93225e-05
0.0152281
-1.37742e-05
0.013845
2.9159e-06
0.0118797
1.15505e-05
0.00949187
1.20031e-05
0.00685261
9.22073e-06
0.00409657
3.87028e-06
0.0013438
0.00556895
-0.000160878
-0.000195844
-0.00172125
0.00167259
-0.000126494
-5.94548e-05
-0.00106798
0.00104076
-3.59397e-06
-2.54946e-07
1.39669e-07
-1.43883e-06
-0.000265318
0.000264589
-7.6743e-08
-0.000265184
2.49557e-08
0.000265753
-4.70917e-08
7.79635e-08
-7.64801e-05
7.64458e-05
-7.64284e-05
7.63505e-05
-0.000239786
0.00841792
-0.000179193
0.011031
-0.000139376
0.0132343
-0.000103782
0.0148644
-7.41373e-05
0.0157785
-4.6784e-05
0.0159038
-2.06043e-05
0.0152349
-3.5723e-06
0.0138515
1.08961e-05
0.0118804
1.54265e-05
0.00948844
1.95367e-05
0.00684229
1.07609e-05
0.00408967
4.60039e-06
0.0013392
0.00547862
-4.27028e-05
-0.000106744
-0.00164528
0.0016115
-0.000127103
-0.000168531
-0.00099397
0.000918841
-3.70633e-05
-1.43017e-05
-2.10136e-06
-1.05618e-05
-0.000263232
0.000260162
-5.23703e-07
-0.000263417
-6.97501e-08
0.000264829
-1.01285e-07
-2.65485e-08
-7.65016e-05
7.64249e-05
-7.64767e-05
7.63987e-05
-0.000121269
0.00835999
-0.000106646
0.0109982
-8.96734e-05
0.0132202
-6.95131e-05
0.0148598
-4.85533e-05
0.0157802
-2.48187e-05
0.015908
-5.97842e-06
0.0152373
8.38647e-06
0.013854
1.81804e-05
0.0118776
2.16538e-05
0.00948633
1.75355e-05
0.00683552
1.52056e-05
0.00407907
6.31805e-06
0.00133288
0.00539438
-5.29896e-06
-3.17291e-05
-0.00155958
0.00153697
-2.00894e-05
-5.48253e-05
-0.000873384
0.000809853
-1.86466e-05
-4.49254e-05
-5.94594e-05
-6.36145e-05
-0.00023935
0.000212253
-9.96604e-06
-0.000249804
-3.84847e-06
0.000258665
-6.0453e-07
-1.70044e-06
-7.62273e-05
7.57036e-05
-7.6297e-05
7.63236e-05
-5.69672e-05
0.00831031
-5.95097e-05
0.0109681
-5.31731e-05
0.0132039
-4.10942e-05
0.0148523
-2.32554e-05
0.0157787
-7.10063e-06
0.0159091
6.0736e-06
0.0152396
2.06916e-05
0.0138515
2.5833e-05
0.0118734
2.83227e-05
0.00947554
2.55911e-05
0.00682513
1.53621e-05
0.00407003
5.77728e-06
0.00132711
0.00534668
1.7654e-06
-1.10407e-05
-0.00151372
0.00151102
-2.59598e-06
-8.47598e-06
-0.00076263
0.00074332
9.83043e-08
-8.78263e-07
-6.35879e-06
-1.24329e-06
-0.000103838
8.51912e-05
-0.000148763
0.00017486
-2.20665e-05
-3.75176e-05
-6.95501e-05
5.95841e-05
-7.33986e-05
7.50991e-05
-2.69957e-05
0.0082778
-3.24278e-05
0.0109473
-2.84075e-05
0.0131912
-1.93454e-05
0.0148484
-8.93092e-06
0.0157805
4.43003e-06
0.0159108
1.70991e-05
0.0152432
2.74368e-05
0.0138499
3.1621e-05
0.0118701
3.28385e-05
0.00946829
2.80046e-05
0.00681249
1.91327e-05
0.00405667
6.59764e-06
0.00132051
0.00532154
3.14917e-06
-5.00309e-06
-0.00150134
0.001503
1.01222e-07
-1.36397e-06
-0.000734894
0.000732236
1.46018e-07
-8.40451e-08
-1.94699e-07
1.45394e-07
-7.67109e-05
7.68092e-05
-7.75891e-05
7.88324e-05
3.75176e-05
-1.13069e-05
0.00825668
-1.38511e-05
0.0109328
-1.21789e-05
0.013184
-4.02332e-06
0.0148435
6.7687e-06
0.0157782
1.83652e-05
0.0159095
2.93228e-05
0.0152413
3.54655e-05
0.013846
3.986e-05
0.0118631
4.1273e-05
0.00945502
3.18682e-05
0.00679975
2.15258e-05
0.00404174
8.51675e-06
0.00131199
0.00531014
2.89758e-06
-2.80762e-06
-0.00149813
0.00150085
4.27683e-07
-1.33365e-07
-0.000730765
0.000730801
9.53812e-08
-3.05261e-08
-1.8485e-08
1.2549e-07
-7.66758e-05
7.68218e-05
-7.67599e-05
7.66145e-05
-3.35766e-06
0.00824619
-3.22926e-06
0.0109238
1.03478e-06
0.013179
8.71997e-06
0.0148415
1.92797e-05
0.0157772
2.85093e-05
0.0159103
3.85686e-05
0.0152382
4.41288e-05
0.0138418
4.85438e-05
0.0118558
4.36046e-05
0.00944329
3.72914e-05
0.00678399
2.15954e-05
0.00402866
8.07334e-06
0.00130392
0.00530525
2.72473e-06
-1.19237e-06
-0.00149793
0.0015003
5.26672e-07
1.13193e-07
-0.000730609
0.000730992
6.37786e-08
-1.96593e-08
-3.06109e-08
9.0028e-08
-7.68983e-05
7.69937e-05
-7.69289e-05
7.68034e-05
1.86136e-06
0.0082411
3.83602e-06
0.010921
9.48147e-06
0.0131782
1.68351e-05
0.014844
2.68456e-05
0.0157789
3.85107e-05
0.0159104
4.57242e-05
0.0152366
5.40958e-05
0.0138362
5.56153e-05
0.0118438
4.96972e-05
0.00943088
4.0833e-05
0.00676475
2.43953e-05
0.00401234
8.97642e-06
0.00129494
0.00530431
3.06914e-06
-2.63227e-07
-0.00149878
0.00150092
5.8479e-07
3.28954e-07
-0.000731027
0.000731528
5.28297e-08
-2.76791e-08
-4.21721e-09
8.26855e-08
-7.70335e-05
7.70973e-05
-7.70531e-05
7.69631e-05
4.30791e-06
0.00824062
9.10989e-06
0.0109214
1.6949e-05
0.0131781
2.63145e-05
0.0148445
3.62373e-05
0.0157812
4.70183e-05
0.0159091
5.63363e-05
0.0152344
6.08912e-05
0.0138309
5.77251e-05
0.0118358
5.51164e-05
0.0094166
4.25301e-05
0.00674661
2.99172e-05
0.0039914
9.384e-06
0.00128556
0.00530576
2.96201e-06
-1.01088e-07
-0.00150023
0.00150271
5.98063e-07
4.25488e-07
-0.000731779
0.000732253
3.31347e-08
7.761e-08
2.82907e-08
4.94909e-08
-7.7148e-05
7.72009e-05
-7.71757e-05
7.7093e-05
7.50916e-06
0.00824222
1.44001e-05
0.0109239
2.25611e-05
0.0131819
3.39255e-05
0.0148468
4.61575e-05
0.015782
5.55756e-05
0.0159099
6.36916e-05
0.0152316
6.93254e-05
0.0138193
7.21091e-05
0.0118188
6.28529e-05
0.00939628
5.28799e-05
0.00672365
3.05594e-05
0.00397022
9.96604e-06
0.00127559
0.00530994
2.50743e-06
8.18448e-07
-0.00150217
0.0015045
6.25175e-07
4.37925e-07
-0.000732593
0.000733171
2.04813e-08
-9.33932e-10
3.12992e-08
5.50574e-08
-7.73563e-05
7.73894e-05
-7.72787e-05
7.72292e-05
9.00162e-06
0.00824762
1.7083e-05
0.0109294
2.74893e-05
0.0131883
4.0885e-05
0.0148521
5.22495e-05
0.0157854
6.49685e-05
0.0159086
7.53292e-05
0.0152256
7.92432e-05
0.0138122
8.15955e-05
0.0118001
7.24654e-05
0.00937669
5.4466e-05
0.00669975
3.4343e-05
0.00394585
1.34502e-05
0.00126214
0.00531527
2.578e-06
1.09816e-06
-0.00150471
0.00150654
6.73026e-07
6.16195e-07
-0.000733559
0.00073413
2.44602e-08
2.9309e-08
7.29304e-09
4.29354e-08
-7.74748e-05
7.74953e-05
-7.74758e-05
7.74207e-05
1.04319e-05
0.00825427
2.10383e-05
0.0109359
3.35499e-05
0.0131956
4.67584e-05
0.0148576
6.10314e-05
0.0157893
7.45238e-05
0.0159094
8.3231e-05
0.0152216
8.75991e-05
0.0138062
8.47585e-05
0.0117878
8.0186e-05
0.00935097
6.14091e-05
0.00667268
3.77926e-05
0.00392151
2.7704e-05
0.00123444
0.00532211
2.32495e-06
1.26063e-06
-0.00150698
0.00150861
9.39826e-07
6.62014e-07
-0.000734655
0.000735295
2.79707e-08
5.12636e-09
3.33617e-08
5.77163e-08
-7.75749e-05
7.75993e-05
-7.75455e-05
7.75026e-05
1.15463e-05
0.00826377
2.49416e-05
0.0109445
4.1363e-05
0.013201
5.55583e-05
0.014863
7.18697e-05
0.015792
8.24274e-05
0.0159102
9.28805e-05
0.0152163
9.7896e-05
0.0137931
9.62896e-05
0.0117717
8.60535e-05
0.00932633
6.80633e-05
0.00664241
5.83055e-05
0.0038909
5.46458e-05
0.00533091
1.61186e-06
1.13752e-06
-0.00150912
0.00151089
5.50642e-07
7.54958e-07
-0.000735863
0.000736691
1.05697e-07
6.01159e-09
3.47884e-08
5.90469e-08
-7.76955e-05
7.77235e-05
-7.76904e-05
7.76327e-05
1.3057e-05
0.00827565
2.80002e-05
0.0109578
4.50875e-05
0.0132115
6.3331e-05
0.0148716
7.92066e-05
0.0157952
9.40434e-05
0.015909
0.000103082
0.0152111
0.000106638
0.0137827
0.000104019
0.0117537
9.14747e-05
0.00930291
8.78063e-05
0.00661291
9.96172e-05
0.00534206
1.14107e-06
7.63076e-07
-0.00151173
0.00151355
-2.04286e-07
3.01957e-07
-0.000737343
0.000737836
3.11067e-08
2.6635e-08
7.18405e-08
3.15527e-08
-7.78233e-05
7.7929e-05
-7.78173e-05
7.77583e-05
1.71789e-05
0.00828647
3.38772e-05
0.0109691
5.12264e-05
0.0132236
6.9574e-05
0.0148812
8.69493e-05
0.0158023
0.000102928
0.0159092
0.000112566
0.0152052
0.000119865
0.0137669
0.00011687
0.0117283
0.000114123
0.0092766
0.000129617
0.00535264
5.12653e-06
1.47844e-06
-0.00151565
0.00151873
-1.9368e-06
-1.3402e-06
-0.000738073
0.00073792
-9.30464e-10
-4.99926e-08
1.58434e-08
4.90479e-08
-7.80591e-05
7.80902e-05
-7.80324e-05
7.80009e-05
2.08055e-05
0.00829954
3.69743e-05
0.0109833
5.80051e-05
0.0132352
7.85572e-05
0.0148896
9.83201e-05
0.0158069
0.000111031
0.0159107
0.000123133
0.0152019
0.000128414
0.0137553
0.000133982
0.0117084
0.000151215
0.00536291
5.21839e-06
5.31575e-06
-0.00151674
0.00152104
1.2285e-06
-4.04534e-07
-1.73422e-06
5.20376e-06
-0.000736534
0.000435662
0.00029916
-2.20498e-07
-4.48576e-09
2.30976e-08
2.21419e-08
-7.81051e-05
7.81041e-05
-7.81551e-05
7.8106e-05
2.23619e-05
0.00831416
4.23726e-05
0.0109989
6.31971e-05
0.0132505
8.68432e-05
0.0149011
0.000104694
0.0158132
0.000121493
0.0159124
0.000130379
0.0152
0.000143245
0.0137461
0.000159905
0.00537618
4.47932e-06
4.6068e-06
-0.0015233
0.00152577
1.5049e-06
1.2376e-06
1.81931e-06
1.23799e-06
-0.000464322
0.000466475
-9.2499e-07
-0.000461659
-3.0676e-06
-0.000456584
-6.80881e-06
-1.57182e-05
0.000280602
2.83971e-06
-7.81449e-05
7.79244e-05
-7.81494e-05
7.81272e-05
2.42558e-05
0.00833227
4.66708e-05
0.0110155
7.13914e-05
0.013266
9.46375e-05
0.0149111
0.000113757
0.015821
0.000130131
0.0159126
0.000146324
0.0151969
0.000164642
0.00539107
4.52823e-06
4.83769e-06
-0.00152808
0.00153072
1.07562e-06
7.65823e-07
1.28334e-06
1.01811e-06
-0.0004693
0.000469993
8.1252e-07
-0.000468705
6.41859e-07
-0.00046741
5.24956e-07
3.02919e-07
-0.00027266
0.00027225
-5.15045e-07
-0.000274681
-1.04643e-06
-8.87725e-07
8.07641e-05
2.76663e-05
0.00835128
5.14213e-05
0.0110354
7.91591e-05
0.0132815
0.000100895
0.014924
0.000120664
0.0158304
0.000138936
0.01592
0.000158062
0.00540858
4.95861e-06
5.20183e-06
-0.00153378
0.00153643
8.20177e-07
1.05577e-06
9.99837e-07
7.78264e-07
-0.000471634
0.000472142
5.66709e-07
-0.000471279
4.11775e-07
-0.000470415
4.18546e-07
5.96052e-07
-0.000273455
0.000274121
1.46172e-07
-0.000272974
1.60907e-07
-0.000272554
1.04629e-07
-4.89541e-10
-7.883e-05
7.83149e-05
-7.98764e-05
3.04961e-05
0.0083722
5.79456e-05
0.0110567
8.43834e-05
0.013298
0.000106769
0.0149379
0.000127307
0.0158421
0.000141349
0.00542781
5.37211e-06
5.89191e-06
-0.00153978
0.00154283
7.93145e-07
1.11904e-06
8.04529e-07
1.04319e-06
-0.000473723
0.000474171
3.71744e-07
-0.000473043
3.76044e-07
-0.000472505
4.61686e-07
4.15857e-07
-0.000275131
0.000275599
9.90411e-08
-0.000274817
9.76885e-08
-0.000274532
1.34248e-07
1.84683e-07
-7.85799e-05
7.87261e-05
-7.8419e-05
-7.83144e-05
3.50305e-05
0.00839512
6.46332e-05
0.0110764
9.0226e-05
0.0133145
0.00011025
0.014955
0.000117636
0.00545001
6.19726e-06
6.63635e-06
-0.00154659
0.00154986
8.83778e-07
1.21796e-06
8.98746e-07
1.23044e-06
-0.000475843
0.000476234
4.02455e-07
-0.000475057
3.33127e-07
-0.000474635
3.81969e-07
5.79747e-07
-0.000276575
0.000276855
9.22159e-08
-0.000276256
5.63483e-08
-0.000275921
1.26617e-07
9.38404e-08
-7.91427e-05
7.92418e-05
-7.9045e-05
-7.89108e-05
4.05879e-05
0.00841916
7.14715e-05
0.0110952
9.10859e-05
0.0133337
9.15486e-05
0.00547546
7.10117e-06
8.03443e-06
-0.00155385
0.00155763
1.28657e-06
1.12694e-06
1.28472e-06
1.36458e-06
-0.000478174
0.000478444
6.13245e-07
-0.000477327
3.71125e-07
-0.000476843
4.14427e-07
6.21337e-07
-0.000277835
0.000278137
1.00664e-07
-0.000277599
9.6647e-08
-0.00027731
9.27532e-08
1.24841e-07
-7.95186e-05
7.96108e-05
-7.94622e-05
-7.93356e-05
4.93113e-05
0.00844132
7.25746e-05
0.0111137
6.48886e-05
0.00550405
1.0236e-05
1.04852e-05
-0.00156289
0.00156708
1.49296e-06
1.42217e-06
1.46909e-06
1.30759e-06
-0.000480742
0.000481347
6.81699e-07
-0.000480104
4.89162e-07
-0.000479293
4.74292e-07
5.15603e-07
-0.000279159
0.000279661
1.11548e-07
-0.00027887
8.22492e-08
-0.000278663
2.07264e-07
9.56783e-08
-7.9925e-05
8.00257e-05
-7.98284e-05
-7.97356e-05
5.40233e-05
0.00845987
4.2205e-05
0.00552771
1.58002e-05
1.45653e-05
-0.00157387
0.00157958
2.36529e-06
2.16688e-06
1.9578e-06
1.73081e-06
-0.000483882
0.000484534
8.40755e-07
-0.000482977
5.16555e-07
-0.000482068
5.60922e-07
5.85668e-07
-0.000280762
0.000281365
7.88058e-08
-0.00028039
1.17445e-07
-0.000280032
1.16211e-07
1.43711e-07
-8.04108e-05
8.05224e-05
-8.03286e-05
-8.01213e-05
2.81332e-05
1.23437e-05
3.11236e-05
-0.001588
0.00159501
4.9696e-06
3.82186e-06
3.36946e-06
2.77194e-06
-0.000487968
0.000489015
1.31801e-06
-0.000486758
9.57043e-07
-0.000485545
7.44395e-07
7.20432e-07
-0.000282603
0.0002833
1.43487e-07
-0.000282225
1.38058e-07
-0.000281798
1.34652e-07
1.52465e-07
-8.08997e-05
8.09785e-05
-8.07823e-05
-8.06661e-05
-0.00160729
7.84024e-06
1.61074e-05
1.07856e-05
8.05825e-06
-0.000494159
0.000496301
2.82703e-06
-0.000492144
1.80725e-06
-0.000490379
1.60435e-06
1.4083e-06
-0.000285143
0.000286169
2.9149e-07
-0.000284403
2.17353e-07
-0.000283834
1.75383e-07
1.86533e-07
-8.14037e-05
8.15472e-05
-8.12657e-05
-8.1131e-05
-0.000507118
1.12578e-05
-0.000502725
1.17143e-05
-0.000499437
7.49739e-06
4.92229e-06
-0.00028977
0.000291868
7.29291e-07
-0.000288446
4.83316e-07
-0.000287227
3.84584e-07
3.51002e-07
-8.21264e-05
8.24179e-05
-8.19091e-05
-8.17337e-05
-0.000303688
1.53168e-05
-0.000299425
7.45136e-06
-0.000295311
3.38404e-06
1.47886e-06
-8.36368e-05
8.43661e-05
-8.31535e-05
-8.27689e-05
-9.66803e-05
-8.9229e-05
-8.58449e-05
2.38878e-06
-2.38892e-06
8.89863e-06
2.27366e-06
-8.78405e-06
1.41103e-06
-3.80006e-06
6.56112e-06
2.33718e-06
1.19363e-05
2.28661e-06
-1.19499e-05
2.47714e-06
-9.85051e-06
7.56289e-07
-4.55652e-06
1.23526e-06
5.3257e-06
1.18272e-05
2.44585e-06
-2.36183e-06
1.56132e-05
1.9791e-06
-1.29468e-05
-1.18347e-05
1.87063e-06
-1.09652e-05
4.26017e-07
-4.98267e-06
1.72022e-06
1.13417e-05
4.75636e-07
4.84985e-06
2.81255e-06
1.69653e-05
-3.54168e-06
-0.000168093
3.05427e-06
0.000170551
-2.39846e-06
-1.22821e-05
-1.80898e-06
-1.23628e-05
1.31561e-06
-1.18551e-05
1.74652e-07
-5.15748e-06
1.12056e-06
1.06964e-05
1.45435e-07
4.70419e-06
-3.46461e-06
-0.000168473
6.6498e-06
-6.43312e-07
1.52634e-05
-0.000872199
1.42505e-05
0.000860993
-5.2381e-06
1.8067e-05
0.000163801
-6.08598e-06
-1.45633e-05
-1.61563e-06
-1.34243e-06
-1.28562e-05