/*--------------------------------*- C++ -*----------------------------------*\
| =========                 |                                                 |
| \\      /  F ield         | OpenFOAM: The Open Source CFD Toolbox           |
|  \\    /   O peration     | Version:  v1912                                 |
|   \\  /    A nd           | Website:  www.openfoam.com                      |
|    \\/     M anipulation  |                                                 |
\*---------------------------------------------------------------------------*/
FoamFile
{
    version     2.0;
    format      ascii;
    class       surfaceScalarField;
    location    "90";
    object      phi;
}
// * * * * * * * * * * * * * * * * * * * * * * * * * * * * * * * * * * * * * //

dimensions      [0 3 -1 0 0 0 0];
oriented        oriented;


internalField   nonuniform List<scalar> 
7352
(
0.00713208
0.00288022
0.0107783
0.00636695
0.00177886
0.00110165
0.0124068
0.00838337
0.00428915
0.00385789
0.0001723
0.000929041
0.0129841
0.00943692
0.00632395
0.00634845
0.00101002
0.00302063
-0.000114941
0.00104263
0.0130709
0.00992675
0.00760882
0.00815328
0.00212767
0.0052303
-0.000131201
0.00303582
-5.88066e-05
0.00110084
0.0129618
0.0101265
0.00827404
0.00926126
0.00309314
0.0071881
7.32944e-05
0.00502402
-0.000185611
0.00316248
-1.60722e-05
0.00111665
0.012785
0.0101942
0.00855007
0.00985167
0.00370902
0.00864448
0.000353025
0.00690757
-0.000282532
0.00512029
-9.19404e-05
0.00323843
-2.35655e-05
0.00114034
0.012598
0.0102065
0.00862294
0.0101208
0.00399107
0.00956973
0.000516407
0.00847941
-0.000326499
0.00695151
-0.000207731
0.00523585
-9.30986e-05
0.00330814
-1.91943e-05
0.0011595
0.0124181
0.0101971
0.0086169
0.0102138
0.00403217
0.0100782
0.000460659
0.00962497
-0.000396099
0.00854837
-0.000331096
0.00707508
-0.00020682
0.00534971
-8.0299e-05
0.00336936
-8.92274e-06
0.0011687
0.0122581
0.0101795
0.00859939
0.0102137
0.0039355
0.0103104
0.000173618
0.0103638
-0.000569373
0.00979843
-0.00047308
0.00869045
-0.000354542
0.00722283
-0.000186162
0.0054555
-5.29173e-05
0.00341375
-5.48428e-06
0.00117434
0.0121167
0.0101564
0.00861816
0.0101621
0.0037716
0.0103757
-0.000319136
0.0108031
-0.000885606
0.0106796
-0.000676571
0.0100022
-0.000535685
0.0088716
-0.000335104
0.0073718
-0.000141149
0.00554397
-3.8499e-05
0.0034472
-4.40408e-06
0.00117915
0.0120053
0.010126
0.00869671
0.0100766
0.0035957
0.0103382
-0.000993041
0.0110483
-0.00133457
0.0112525
-0.000972227
0.0109757
-0.000766097
0.0102325
-0.000523449
0.00905993
-0.00027563
0.00750653
-0.000111784
0.00561739
-3.2121e-05
0.00347549
-3.42785e-06
0.00118277
0.011918
0.0100941
0.008869
0.00995527
0.00344482
0.0102252
-0.00183351
0.0111793
-0.00189927
0.011613
-0.00136547
0.011646
-0.00106403
0.0112736
-0.000757663
0.0104667
-0.000455883
0.00924025
-0.000231024
0.00762613
-9.4867e-05
0.00568049
-2.70579e-05
0.00349964
-3.37589e-06
0.00118652
0.0118621
0.0100584
0.00915854
0.00980297
0.00335956
0.0100413
-0.00284789
0.0112389
-0.00255526
0.0118358
-0.00183593
0.0120839
-0.00143038
0.0120122
-0.00104327
0.0115591
-0.000682748
0.0106937
-0.000399173
0.0094086
-0.000201819
0.00773356
-8.30825e-05
0.00573671
-2.51648e-05
0.00352212
-3.14645e-06
0.00119008
0.0118259
0.0100268
0.00960128
0.00961742
0.00338577
0.00977442
-0.00403447
0.0112292
-0.00326883
0.0119528
-0.00235402
0.0123541
-0.00184423
0.0124977
-0.00137397
0.0123428
-0.000954412
0.0118308
-0.0006128
0.0109076
-0.000355825
0.00956283
-0.00017883
0.00782983
-7.67228e-05
0.00578868
-2.35301e-05
0.00354325
-2.49557e-06
0.00119303
0.011799
0.0100062
0.0102144
0.00941178
0.00362285
0.00938116
-0.00535753
0.0110973
-0.0039714
0.0119321
-0.00286316
0.0124623
-0.0022559
0.0127657
-0.00172091
0.0128446
-0.00125698
0.0126455
-0.000867158
0.0120853
-0.000554784
0.011107
-0.000319297
0.00970363
-0.000165653
0.00791945
-7.10995e-05
0.00583666
-2.08114e-05
0.00356217
-3.01114e-06
0.0011961
0.0117452
0.00999421
0.0110105
0.00921201
0.00428385
0.00874952
-0.00665679
0.0106821
-0.00450792
0.0116347
-0.00324721
0.0123164
-0.00258229
0.0127887
-0.00202868
0.0130733
-0.00155789
0.0131455
-0.0011433
0.0129219
-0.000786833
0.0123176
-0.000500471
0.0112887
-0.000296411
0.00983476
-0.000154239
0.0080032
-6.55262e-05
0.00588168
-2.09249e-05
0.00358042
-3.81426e-06
0.00120014
0.0117187
0.00989149
0.0118881
0.00911424
0.00581601
0.00767994
-0.00748832
0.00958091
-0.00455668
0.0107316
-0.00330165
0.0116897
-0.00268658
0.0124206
-0.00220533
0.0129653
-0.00179717
0.0133127
-0.00140425
0.0134066
-0.00103251
0.013168
-0.000711981
0.0125295
-0.000464856
0.0114578
-0.000276677
0.00995754
-0.000141776
0.00807992
-6.21679e-05
0.005923
-2.2276e-05
0.00359923
-4.67135e-06
0.00120485
0.0116705
0.00986137
0.0127672
0.0045648
0.00444899
0.00525262
0.00327542
0.00299271
0.00340906
-0.00355715
0.00384282
-0.00321077
0.00311783
-0.00213561
0.00869066
-0.00152993
-0.00276675
0.010197
-0.0023951
0.0113983
-0.00214105
0.0123561
-0.0018918
0.0130598
-0.00159009
0.0134988
-0.0012534
0.0136277
-0.000926187
0.0133827
-0.000658465
0.0127235
-0.000432926
0.0116146
-0.000253241
0.0100692
-0.000133407
0.00815139
-6.27595e-05
0.00596358
-2.4001e-05
0.00361883
-4.96422e-06
0.00120999
0.0115015
0.0100296
0.0136151
0.00446084
0.00455029
0.00597258
0.00384533
0.00662839
0.00379194
-0.0027856
0.00250343
-0.000141897
-0.00123896
0.000727993
0.000860763
0.00454055
0.0014374
0.00127596
-0.00178982
0.00349724
-0.00222764
0.000885271
0.000635082
-0.000520588
0.00223377
-0.000385047
-0.000918
0.0074417
-0.000599124
-0.000992265
0.00296006
-0.00161225
0.00941416
-0.00176529
0.0110225
-0.00176232
0.0122267
-0.00162968
0.0130996
-0.00139381
0.0136395
-0.0011067
0.0138086
-0.000851416
0.0135763
-0.000609736
0.0129005
-0.000395788
0.0117575
-0.000236608
0.0101724
-0.000130127
0.00821907
-6.41754e-05
0.00600381
-2.48985e-05
0.00363903
-5.11761e-06
0.00121512
0.0111882
0.0102685
0.0140109
0.00468009
0.00495437
0.00730139
0.00378855
0.00786482
0.00398583
0.00600255
0.00116397
0.001167
0.000910317
0.000385214
-0.000967349
0.000638799
0.00136688
-0.000638799
0.00094103
0.000719894
-0.000375852
0.000740584
0.000259231
-0.000177491
0.00165734
-0.000238011
-0.000135954
0.000491527
0.00249825
-0.000455814
-0.000297385
0.00636283
-0.000235738
0.00214367
-0.000244286
-0.00115776
0.00880648
-0.00139544
0.0106555
-0.00147437
0.0120716
-0.00140414
0.0131102
-0.00120669
0.01374
-0.00100763
0.0139651
-0.000783162
0.0137501
-0.000555587
0.0130604
-0.000367115
0.0118882
-0.0002266
0.010269
-0.000129232
0.00828432
-6.44246e-05
0.00604342
-2.49069e-05
0.00365901
-5.29261e-06
0.00122054
0.0107699
0.0104604
0.0139741
0.00507103
0.00523209
0.0083946
0.00415109
0.00860795
0.00474054
0.0073127
0.00122394
0.00125369
0.00868049
0.00132646
0.00129219
-0.00156128
0.00215819
0.000566666
0.000546742
-0.000247677
0.000123281
-0.000376904
0.000199437
0.0012722
-5.38483e-05
-1.6606e-05
-0.000123281
0.00193646
-9.00418e-05
-0.000277253
0.00578603
-0.000303788
0.00177823
-3.02775e-05
-4.72176e-05
0.00104871
-8.79126e-06
-1.18666e-05
-0.000894225
0.0083053
-0.00112311
0.0103045
-0.00125629
0.0119239
-0.001185
0.0130889
-0.00108337
0.0138163
-0.000919079
0.0141012
-0.000708604
0.0139034
-0.000511146
0.0132045
-0.000346854
0.0120087
-0.000220953
0.0103608
-0.000127555
0.0083477
-6.35264e-05
0.00608208
-2.50554e-05
0.00367899
-5.45539e-06
0.00122607
0.0103211
0.0105149
0.0135886
0.0108459
0.00887521
0.00480385
0.0091479
0.00495869
0.00978699
0.00140565
0.00163816
0.010134
0.00236322
0.00203003
0.00277615
0.000605801
0.00339141
0.000638395
-0.00401046
0.00463467
0.000702062
0.000673136
-0.000299064
0.000865393
0.000145593
0.000128991
0.000556666
-3.88725e-06
-1.16275e-06
0.000407128
0.00164291
-5.68721e-05
-8.50217e-05
-0.000279416
0.00531954
-0.000148367
0.0015585
-0.000112372
-0.000107017
0.000587169
-6.07452e-05
0.000561422
-2.14613e-05
-0.000117124
0.000108338
-0.000645396
0.00782781
-0.00098092
0.0100294
-0.00103875
0.0117783
-0.0010496
0.0130555
-0.000979807
0.0138773
-0.00082235
0.014215
-0.000646895
0.0140393
-0.000478175
0.0133359
-0.000333414
0.0121214
-0.000214557
0.0104479
-0.000124621
0.00840894
-6.30202e-05
0.00612011
-2.48956e-05
0.00369866
-5.77066e-06
0.00123198
0.00986531
0.0105157
0.013091
0.0110104
-0.0110151
0.0198379
0.0054169
0.00575353
0.0103798
0.00237411
0.00218345
0.00432335
0.00527745
0.000762794
0.00587821
0.0010374
-0.00618592
0.00625568
0.00229341
0.00172231
0.00147101
0.00210945
-0.00278259
0.00348445
0.000104452
0.000103291
0.000348364
-1.95193e-06
0.000530466
-2.58949e-05
0.000489242
-4.37984e-05
0.00144926
-0.000113687
-5.65565e-05
-8.91545e-05
0.00483593
-7.24294e-05
0.00134598
-3.08707e-05
-1.41855e-05
0.000454665
-7.78027e-05
0.00042611
-7.84612e-05
0.000330877
-3.96729e-06
-0.000634358
0.0074815
-0.000811035
0.00980215
-0.000899041
0.011628
-0.000938681
0.0130144
-0.00086825
0.0139234
-0.000745985
0.0143142
-0.000598616
0.01416
-0.000455227
0.0134578
-0.000321209
0.0122282
-0.000207179
0.0105304
-0.000120729
0.00846686
-6.19687e-05
0.00615725
-2.57339e-05
0.00371887
-5.7673e-06
0.00123782
0.00939497
0.0105115
0.012494
0.0111125
0.0188312
0.0120157
0.0164423
-0.016357
0.00281335
0.00251778
0.0160086
0.00618696
0.00652716
0.00210252
0.00689402
0.00181641
-0.007978
0.00175799
0.00108021
0.00424719
0.00528451
-0.00700682
0.00665604
0.00264416
0.000101339
0.000309679
-4.68069e-06
0.000276627
-1.07473e-05
0.000384105
-7.17049e-05
0.000354342
-2.68155e-05
0.00127295
-1.0448e-05
-5.62577e-06
-8.96523e-05
0.00446124
-0.000169789
0.00121125
-4.73529e-06
-5.88553e-06
0.000332363
-8.88835e-06
0.00032113
-2.93774e-06
0.000226764
-2.79434e-05
0.000202304
-5.40015e-05
9.7373e-05
-0.000584041
0.00725498
-0.000658955
0.00956243
-0.000791662
0.0114812
-0.000825597
0.0129718
-0.000784083
0.0139617
-0.000684282
0.0143999
-0.000564456
0.0142695
-0.000432522
0.0135692
-0.000306374
0.0123276
-0.000199801
0.0106096
-0.000118169
0.00852327
-6.22903e-05
0.00619391
-2.57531e-05
0.00373903
-5.68243e-06
0.00124359
0.00891548
0.0105103
0.0118412
0.0111624
0.0173139
0.0126294
-0.0147134
0.0310088
0.00534044
0.00638792
-0.00760146
0.00808992
0.00232468
-0.0080793
0.00299552
-0.00532011
0.00223997
0.00264344
0.00709663
0.00166183
0.000935047
-0.00632135
-0.00524111
0.00264421
9.26924e-05
8.19448e-05
0.000130597
0.000103782
0.000312439
-1.74347e-06
0.000308124
-1.28841e-06
0.00113906
-6.62202e-06
-1.07896e-05
-0.000208568
0.00426955
-0.000183486
0.00102289
-1.53422e-05
-3.81813e-05
0.000304555
-1.12672e-06
0.000299368
-6.66477e-07
9.48944e-05
9.19573e-05
5.40015e-05
-0.000374983
0.0069714
-0.00055839
0.00932913
-0.000695623
0.0113514
-0.000752155
0.0129399
-0.000712855
0.0139905
-0.000637623
0.0144732
-0.000532728
0.0143699
-0.000412138
0.013675
-0.000293047
0.0124211
-0.000192992
0.0106845
-0.000116879
0.00857807
-6.20732e-05
0.00623026
-2.5935e-05
0.00375948
-5.83787e-06
0.00124948
0.00842941
0.0105083
0.0111522
0.0111988
0.0156104
0.0128647
0.029094
0.0145439
0.00718189
-0.00308629
-0.00144315
0.00155417
0.00113389
0.00871644
0.00485296
-0.00299552
-0.00264344
0.0017971
0.00430607
9.02148e-05
8.89285e-05
0.00029398
-1.22072e-06
0.000285224
-2.01449e-06
0.000951821
-6.71404e-05
-7.02981e-05
-7.40208e-05
0.00398906
-2.00591e-05
0.000857567
-6.64525e-05
-2.26604e-05
0.000273452
-3.53744e-06
0.000244392
-9.09187e-06
8.78036e-05
8.71378e-05
-0.000256813
0.00666978
-0.000495522
0.00912911
-0.000658403
0.0112578
-0.00067653
0.0129038
-0.000656216
0.0140093
-0.000599412
0.01454
-0.000504169
0.0144622
-0.000389919
0.0137721
-0.000279523
0.0125079
-0.000187562
0.0107553
-0.000114858
0.00863099
-6.08955e-05
0.00626527
-2.47497e-05
0.00377856
-5.60923e-06
0.00125517
0.00794413
0.010505
0.0104339
0.0112251
0.0139821
0.0128267
0.0261013
0.015857
-0.00449185
0.0174392
0.0103127
0.000353948
-0.000801202
0.0012731
0.00108219
-0.000233787
0.000566479
-0.000924915
0.002559
8.59181e-05
8.39053e-05
0.000201444
-2.41748e-05
0.000178267
-4.71043e-05
0.000791617
-6.88337e-06
-1.04228e-06
-1.4502e-05
0.00210402
-4.24647e-06
0.00164683
0.000771959
-3.15365e-07
8.02643e-09
0.000111819
8.91626e-05
8.03695e-05
7.12786e-05
-0.000100376
0.00643938
-0.000164599
-0.000533631
0.00900448
-0.000590731
0.0111723
-0.000610745
0.0128585
-0.000611181
0.0140214
-0.000564293
0.0146004
-0.000475454
0.014548
-0.000368816
0.0138615
-0.000269067
0.0125896
-0.000183249
0.0108237
-0.00011215
0.00868238
-5.91589e-05
0.00629969
-2.40939e-05
0.00379723
-5.96532e-06
0.0012612
0.00746451
0.010497
0.00969348
0.0112449
0.0125256
0.0126805
0.0228109
0.0161169
0.0189615
0.0143339
-0.00147656
0.00697131
0.00582947
-0.00101295
0.000120158
-0.000408682
0.000565865
-0.000112938
0.00027066
0.00152287
-0.000440932
4.71043e-05
8.2283e-05
8.12442e-05
0.0007581
-6.54567e-07
-4.98933e-08
-0.000188308
0.00219195
0.000437298
0.000315875
1.10371e-07
5.51162e-07
-4.11274e-06
0.00147345
-1.07678e-05
8.09318e-05
8.09382e-05
-0.000182479
0.00631677
-0.000228351
-0.000112756
0.00214018
-0.000479602
0.00889358
-0.000504399
0.0110662
-0.00055831
0.0128058
-0.000577059
0.0140345
-0.000532883
0.014658
-0.000445182
0.0146247
-0.000352032
0.0139446
-0.000261166
0.0126676
-0.000176046
0.0108876
-0.000107925
0.00873127
-5.72155e-05
0.00633285
-2.31154e-05
0.00381456
-5.36866e-06
0.00126667
0.00699411
0.010487
0.00893363
0.0112554
0.0112427
0.0125273
0.0196298
0.0158614
0.0186286
0.0164496
0.010268
0.0110361
0.00212135
0.00369332
3.26876e-05
-2.00548e-05
0.00086556
-0.000356147
7.2144e-06
0.00038389
-6.04896e-06
1.74485e-05
8.02818e-05
8.0231e-05
-3.57828e-05
0.000468974
0.000279723
3.74012e-07
8.03404e-05
8.0892e-05
-2.34765e-05
0.0013998
-1.56121e-05
-6.62489e-06
0.000464832
0.00208662
-0.000128886
-0.000207015
0.00621396
-0.000169544
0.00204662
-0.000188241
-0.000353863
0.00874329
-0.000441236
0.0109495
-0.000532106
0.0127611
-0.000550828
0.0140528
-0.000496318
0.0147094
-0.000422682
0.0146956
-0.000337233
0.0140207
-0.000251059
0.0127428
-0.000171227
0.0109509
-0.000104975
0.00877915
-5.50336e-05
0.00636479
-2.28649e-05
0.00383226
-5.49561e-06
0.00127227
0.00653057
0.0104781
0.0081677
0.0112525
0.0100898
0.0124073
0.0167737
0.0153832
0.0172967
0.0171927
0.0119191
0.0147983
0.00491325
0.00824274
0.00065485
6.43866e-06
0.00302925
-0.00071162
0.000628212
0.00011552
0.000133414
0.000113075
-5.76723e-05
-2.79757e-05
1.15636e-06
1.85911e-05
0.000274422
-1.32433e-06
8.12658e-05
-0.000456407
0.000442635
-9.67831e-06
0.00132975
-2.01017e-05
-3.86678e-05
-7.17063e-06
0.00201679
-0.000177119
-0.000115897
0.00603562
-5.94001e-05
0.0019735
-0.000126151
0.00128272
-8.87981e-05
-5.23759e-05
-0.000271846
0.00857421
-0.00043079
0.0108485
-0.000527214
0.0127379
-0.00051134
0.0140682
-0.000465571
0.0147524
-0.000399218
0.0147576
-0.000321642
0.0140913
-0.000241002
0.0128126
-0.000167207
0.0110132
-0.000100718
0.00882497
-5.32712e-05
0.00639525
-2.25713e-05
0.00384955
-5.9921e-06
0.0012784
0.00607701
0.0104682
0.00740289
0.0112416
0.00902222
0.0123197
0.0142961
0.0148847
0.0155364
0.0171433
0.012228
0.016883
0.0071023
0.0126088
0.00230086
0.00659603
-0.000270989
0.000853112
2.78862e-05
2.34061e-05
0.000356556
-5.59638e-05
0.00272639
-0.000179872
5.39657e-07
2.35567e-05
2.29275e-05
4.3421e-05
1.0382e-06
-3.61719e-05
-2.26476e-05
-8.4262e-06
0.000268865
-1.59906e-06
7.99426e-05
0.000432465
-9.90297e-06
0.000261116
-1.91589e-06
0.000410633
-1.68235e-05
0.00126136
-7.79778e-05
-7.76798e-05
0.0019204
-6.27218e-05
-4.86249e-05
0.00585009
-3.74169e-05
0.00188952
-2.8417e-05
0.00119856
-1.84276e-05
-4.48492e-05
-0.000389504
0.000359379
-5.8643e-05
-3.122e-05
-0.000279747
0.00842354
-0.000462861
0.0107846
-0.000492841
0.0127197
-0.000474956
0.0140777
-0.000434402
0.0147876
-0.000379141
0.0148152
-0.00030894
0.0141592
-0.00023161
0.0128771
-0.000158227
0.0110707
-9.69777e-05
0.00886882
-5.20206e-05
0.00642475
-2.26188e-05
0.0038664
-5.54044e-06
0.00128408
0.00562804
0.0104616
0.00664579
0.0112248
0.00800351
0.0122594
0.0121589
0.0144567
0.0136819
0.0167387
0.0116951
0.0176759
0.00825566
0.0157286
0.00414881
0.0107598
0.00123876
0.00571321
0.000807625
-2.13833e-05
1.00709e-05
-4.72512e-05
7.18334e-05
2.53855e-06
3.73942e-07
-2.62928e-05
2.62402e-06
2.22349e-06
-2.68844e-06
0.000282763
-6.99391e-05
0.00251126
-2.66314e-05
7.60329e-07
-1.10725e-05
7.86492e-06
-2.37044e-05
1.03537e-05
8.53858e-06
8.4262e-06
-3.10815e-05
7.83443e-05
0.00025287
-1.63514e-06
7.64302e-05
0.000239219
-3.16305e-06
0.000341853
-6.04086e-05
0.000318659
-5.44597e-05
0.00114942
-1.06578e-05
-2.88755e-06
0.00185954
-1.8543e-05
-4.00328e-05
0.00567192
-6.12204e-05
0.00183618
-1.39329e-05
0.00112426
-3.71837e-07
-2.80946e-06
-0.000293892
0.000281829
-6.3349e-06
-2.00586e-05
-0.00021642
0.000178712
-2.09161e-05
-8.40284e-06
-0.000365781
0.00832693
-0.000453251
0.0107454
-0.000449514
0.0126944
-0.0004304
0.0140738
-0.000402979
0.0148115
-0.000360959
0.0148674
-0.000297214
0.0142248
-0.000223589
0.0129426
-0.000152222
0.011126
-9.41471e-05
0.00891109
-5.21208e-05
0.00645433
-2.19651e-05
0.00388306
-4.24957e-06
0.0012885
0.00518645
0.0104542
0.00590288
0.0112034
0.00701601
0.0122119
0.0102892
0.0141288
0.0118915
0.0162468
0.0107358
0.0176974
0.00850495
0.0174263
0.00551723
0.0143598
0.00253843
0.00945928
0.00082195
0.00517333
0.000762724
-2.68177e-05
9.12029e-07
-7.90276e-05
7.4594e-05
-1.06292e-05
-6.59822e-06
-7.33332e-07
3.41812e-06
1.23394e-06
2.97464e-06
-1.77787e-06
1.5984e-06
4.21587e-06
6.43475e-06
1.34867e-06
-3.3622e-06
0.000243455
-7.42023e-05
0.00233981
1.21961e-05
-3.06922e-06
-2.07347e-05
7.47956e-05
7.16341e-05
0.00016065
-4.2318e-05
0.000106193
0.000273259
-2.07416e-06
0.000270889
-5.03418e-07
0.00110758
-1.45951e-06
-3.34578e-07
0.00181287
-1.66148e-05
-8.23924e-05
0.00553468
-0.000145716
0.00177606
-2.42629e-05
0.00109494
-4.72468e-07
-7.42341e-07
-0.00026838
0.000268133
-9.52485e-08
-2.78492e-07
-8.61346e-05
7.98029e-05
-6.32312e-05
4.2318e-05
-0.000410792
0.00828485
-0.000398585
0.0106947
-0.000385526
0.0126495
-0.000391583
0.0140625
-0.000386503
0.014837
-0.000350411
0.0149206
-0.0002895
0.0142907
-0.000213981
0.0130045
-0.000146976
0.0111788
-9.47018e-05
0.00895383
-5.05669e-05
0.00648302
-2.12404e-05
0.00390031
-5.33144e-06
0.00129402
0.00474884
0.0104474
0.00517293
0.0111837
0.00604624
0.0121723
0.00861666
0.0138842
0.0102177
0.0158021
0.00961871
0.0173636
0.00816745
0.0180339
0.00618033
0.0167625
0.0037598
0.0131381
0.00171343
0.00856689
0.000630793
0.00478534
0.000720397
-2.82704e-05
-4.3732e-06
-7.29064e-05
7.29207e-05
-2.7211e-05
-1.54448e-06
3.92358e-06
-2.52116e-06
-6.16764e-07
-7.59128e-06
-5.65037e-06
-3.55043e-06
-5.62484e-06
-8.18623e-07
6.97855e-07
-1.78041e-06
3.06922e-06
0.000237307
-9.72973e-05
0.00219744
7.77297e-05
7.72281e-05
0.000266935
-2.39217e-07
0.000266602
2.0148e-08
0.00108006
-6.2365e-07
-1.03814e-06
0.00173726
-4.34204e-05
-0.000192686
0.00550099
-0.00018409
0.00167734
-8.56036e-05
0.00105839
-1.98413e-06
-5.04781e-07
-0.000265935
0.000265556
-5.82992e-08
-5.01226e-08
-7.69496e-05
7.68578e-05
-0.000328042
0.00821448
-0.000304177
0.0106134
-0.000333934
0.0125919
-0.000370017
0.0140462
-0.000377315
0.0148639
-0.000339983
0.0149712
-0.000275797
0.0143525
-0.000207449
0.013065
-0.000142752
0.0112269
-9.02071e-05
0.00899363
-4.99858e-05
0.00651187
-2.19318e-05
0.00391717
-4.93726e-06
0.00129918
0.00431475
0.0104417
0.00445684
0.0111624
0.00509158
0.0121379
0.00708424
0.0137045
0.00865302
0.0154485
0.00847181
0.0169483
0.00752389
0.0180068
0.00624718
0.0179668
0.00454981
0.0159718
0.00270151
0.0121497
0.00127594
0.00792087
0.000541488
0.00448039
0.000674504
-3.67199e-05
-1.56067e-05
-6.89729e-05
6.46962e-05
-2.431e-05
-6.80501e-07
3.78621e-07
-2.8726e-05
-3.67159e-06
6.7234e-06
-2.12568e-06
2.07987e-07
-1.4652e-06
3.46779e-06
5.45855e-06
-1.30617e-05
1.90488e-06
1.08256e-06
0.000252798
-0.000130577
0.00207325
7.66201e-05
7.66425e-05
0.000265144
-1.88932e-07
0.000264182
-5.14814e-08
0.0010213
-1.27969e-06
-4.9421e-06
0.00164314
-0.000158341
-0.000153361
0.00539713
-7.07301e-05
0.0016209
-0.000161692
0.00095726
-1.64433e-05
-4.98587e-06
-0.000263776
0.000262067
-2.30758e-07
-6.99469e-08
-7.65924e-05
7.65382e-05
-0.0001912
0.00810156
-0.00023735
0.0105169
-0.000313319
0.0125353
-0.000368419
0.0140373
-0.000373744
0.0148977
-0.000330539
0.015026
-0.00026233
0.0144074
-0.000197859
0.0131203
-0.000138785
0.0112755
-8.81201e-05
0.00903193
-4.8743e-05
0.00653881
-2.0846e-05
0.00393337
-4.7498e-06
0.00130416
0.00388698
0.0104336
0.00375758
0.0111405
0.00414661
0.0121066
0.00564434
0.0135775
0.00717264
0.0151844
0.00734877
0.0165711
0.00676012
0.0177112
0.00593163
0.0183217
0.0048372
0.0176792
0.00346647
0.0152061
0.00206342
0.0113618
0.00104044
0.00742099
0.000506131
0.0042264
0.000633395
-6.48258e-05
-2.53872e-05
-5.83752e-05
5.07023e-05
-2.94244e-05
-9.59562e-06
2.46057e-05
-3.51692e-05
-7.202e-06
-6.73974e-06
-3.34183e-06
-1.5987e-06
6.55536e-06
-1.02378e-05
6.91814e-06
-1.71875e-06
4.42598e-06
-2.70574e-06
0.000276754
-0.000163513
0.00195777
7.6351e-05
7.63022e-05
0.000261189
-3.62193e-07
0.00025684
-5.51484e-07
0.000890754
-2.8359e-05
-6.33802e-05
0.00156271
-9.51254e-05
-4.48071e-05
0.00526701
-1.62237e-05
0.00152684
-3.48313e-05
0.000846038
-5.52872e-05
-6.15994e-05
-0.000252888
0.000239466
-2.9669e-06
-9.94026e-07
-7.62322e-05
7.60073e-05
-0.00012559
0.00798989
-0.000217369
0.0104211
-0.000322726
0.0124896
-0.000382934
0.0140466
-0.000369937
0.0149371
-0.000310712
0.0150745
-0.000253613
0.0144632
-0.000189938
0.0131715
-0.000133984
0.0113215
-8.53782e-05
0.00906875
-4.47381e-05
0.00656285
-2.01823e-05
0.0039491
-4.56826e-06
0.00130898
0.00346473
0.0104268
0.00307014
0.0111201
0.00320744
0.0120792
0.00426019
0.0134904
0.00575563
0.014994
0.00625342
0.0162791
0.00596551
0.0173654
0.00542651
0.0182161
0.00473889
0.0184194
0.00385373
0.0172917
0.00275591
0.0145129
0.00167522
0.0107266
0.000912322
0.00701392
0.000497631
0.00400477
-0.000119212
0.000587989
-4.00999e-05
1.40997e-05
-3.91904e-05
-1.50256e-05
4.03654e-05
-4.92133e-05
-1.07521e-05
-1.00738e-05
-9.48277e-07
-3.6345e-06
1.53059e-05
-1.99936e-05
-2.58073e-06
1.14806e-05
-2.96398e-06
-1.35873e-05
-3.74362e-06
2.70574e-06
0.000291447
-0.000174721
0.00183888
7.56484e-05
7.51008e-05
0.000219648
-8.50736e-06
0.000177412
-2.11146e-05
0.000775126
-1.95752e-05
-4.60508e-06
0.00149613
-1.4094e-05
-1.83675e-05
0.00517022
-1.0353e-05
0.00148543
-5.50083e-06
0.000741906
-2.24344e-08
-1.5851e-06
-0.000157364
0.000102086
-4.15283e-05
-7.41068e-05
7.11465e-05
-0.000107089
0.00787965
-0.000243303
0.0103417
-0.000361427
0.0124681
-0.000390621
0.0140674
-0.000346899
0.0149733
-0.000296508
0.0151175
-0.000235475
0.0145088
-0.000180061
0.0132178
-0.000129776
0.0113659
-8.20767e-05
0.00910629
-4.67368e-05
0.00658957
-1.94318e-05
0.00396428
-4.40646e-06
0.00131365
0.00304995
0.0104167
0.00240085
0.0110956
0.0022763
0.0120504
0.0029021
0.0134369
0.00437549
0.0148701
0.00517861
0.0160684
0.00517168
0.0170721
0.00484577
0.0179456
0.00441079
0.018544
0.00388506
0.0183875
0.00317504
0.0168723
0.00228364
0.0139038
0.00143904
0.0101995
0.000844154
0.00666649
0.000495536
0.00379996
5.87476e-05
-0.000122484
-2.76109e-05
-1.45785e-05
-0.00010925
0.000521318
5.20666e-05
-3.27983e-05
-5.33008e-06
-6.95646e-06
2.53279e-05
-2.87055e-05
-7.47009e-06
2.23517e-05
-7.18058e-06
-2.11944e-05
1.7976e-07
-2.54356e-06
6.70936e-06
-9.2966e-06
3.74362e-06
0.000313733
-0.000198754
0.00172207
6.26413e-05
4.15283e-05
8.25129e-05
7.79083e-05
0.000728144
-4.12706e-07
8.50662e-08
0.00147192
-4.81683e-06
-1.22301e-05
0.0050803
-4.88459e-06
0.0014662
-4.59352e-06
0.000722682
1.17708e-07
-1.45647e-07
-7.63232e-05
7.63013e-05
-0.000133246
0.00776961
-0.00030673
0.0102871
-0.000394196
0.0124717
-0.000363507
0.014084
-0.000318451
0.0149953
-0.000270309
0.0151524
-0.000225187
0.014554
-0.000175991
0.0132641
-0.000127089
0.011411
-8.31213e-05
0.00914288
-4.62936e-05
0.00661661
-1.87277e-05
0.00397893
-4.45063e-06
0.00131838
0.00264521
0.0104049
0.00174867
0.011068
0.00135102
0.0120205
0.00153344
0.0134188
0.00301566
0.0147962
0.00411911
0.015929
0.00438481
0.0168549
0.00424613
0.0176715
0.00397501
0.0183808
0.00367374
0.0187551
0.0032829
0.0182791
0.00269933
0.0164564
0.00196992
0.0133723
0.00129222
0.00975099
0.000801441
0.00635976
0.000502697
0.00361041
-0.000170132
-3.76588e-05
-2.46912e-05
8.72622e-05
-9.86339e-05
-7.12958e-06
-9.32792e-06
8.52935e-05
-5.95108e-06
-6.88714e-06
-0.000130095
0.000451775
3.03486e-05
-3.96865e-06
-1.77271e-06
2.77314e-05
-2.9875e-05
-4.22506e-06
-6.52408e-06
1.8852e-05
-2.0407e-05
-5.97932e-06
1.16651e-05
-9.12149e-06
0.000328467
-0.00021128
0.00160319
7.58886e-05
7.59741e-05
0.000718067
-1.71639e-07
-8.19108e-09
0.00145766
-3.68348e-06
-8.0523e-06
0.00497477
-1.96504e-05
0.00145155
3.85106e-06
-2.60814e-06
0.000713751
-7.36713e-08
-1.90008e-07
-7.58285e-05
7.59476e-05
-0.000222118
0.00768503
-0.000389009
0.0102819
-0.000364463
0.0124726
-0.000325133
0.0140908
-0.000288929
0.015014
-0.000254665
0.015182
-0.000216082
0.0145941
-0.000172345
0.0133095
-0.000124987
0.011453
-7.98127e-05
0.00917662
-4.32865e-05
0.00664136
-1.85861e-05
0.0039934
-4.54061e-06
0.0013232
0.00225074
0.0103918
0.00112064
0.0110324
0.000431859
0.0119864
0.000123416
0.0134301
0.00165917
0.0147748
0.00306618
0.0158486
0.0036018
0.0167112
0.0036421
0.0174584
0.00350282
0.0181435
0.00333335
0.0187207
0.0031491
0.0188887
0.0028536
0.0181242
0.00236709
0.0160589
0.00176015
0.0129037
0.00119578
0.00935625
0.000778972
0.00608271
0.000509665
0.00342864
-0.000221095
-4.60993e-05
-3.36901e-05
0.000113376
-0.000123805
-1.39462e-05
-1.35397e-05
-6.89822e-06
-3.2329e-06
2.78622e-05
-3.24834e-05
-2.57194e-06
2.23761e-05
-3.89939e-06
2.21349e-05
-5.77277e-06
1.524e-05
-0.000135873
0.000375418
1.1266e-05
9.4906e-06
2.25874e-05
-1.41958e-06
-2.0868e-06
-5.98131e-06
0.000347351
-0.0002325
0.00148617
7.57768e-05
7.57695e-05
0.000414891
-5.92404e-09
1.34791e-07
0.000295046
0.00144549
-1.44439e-06
-5.6598e-07
-2.33561e-05
0.00484064
-6.46026e-05
0.00142814
-1.33056e-07
-2.17062e-06
0.000447247
-2.85201e-05
0.000449232
-4.59386e-06
-7.55795e-05
7.55071e-05
-0.000359501
0.00765553
-0.000357362
0.0102749
-0.000308092
0.0124557
-0.00027713
0.0140791
-0.0002592
0.0150186
-0.000238815
0.0152049
-0.000209799
0.0146317
-0.00017075
0.0133555
-0.000122823
0.0114962
-7.72373e-05
0.0092108
-4.26446e-05
0.00666562
-1.8539e-05
0.00400773
-4.42239e-06
0.00132791
0.00187261
0.0103746
0.000525849
0.0109857
-0.000478283
0.0119422
-0.00136175
0.0134713
0.000285289
0.0148034
0.00201964
0.0158207
0.00282218
0.0166278
0.00303817
0.0173149
0.00302104
0.0179397
0.00293973
0.018537
0.00287228
0.018997
0.00277643
0.0189657
0.00254407
0.0179467
0.00213258
0.0156862
0.00161398
0.0124848
0.00113099
0.00900386
0.000764548
0.00582708
0.000519289
0.00325601
-0.000274853
-4.47559e-05
-3.79076e-05
0.000136128
-0.000153509
-2.89513e-05
-1.01542e-05
-1.13547e-05
4.27767e-05
-4.66909e-05
-1.01193e-05
3.88957e-05
-9.72964e-06
3.53514e-05
-3.42055e-06
-4.29138e-07
9.67475e-06
-1.22546e-05
5.77277e-06
-0.000155114
0.000296904
8.06811e-06
0.000362393
-0.000248011
0.00136976
7.5501e-05
7.56345e-05
0.000265383
1.13431e-06
0.000448445
-6.69084e-07
0.000448041
-1.70031e-07
0.00141072
-1.00797e-06
-4.92903e-06
-0.000107067
0.00477894
-0.000190728
0.00136415
-4.60263e-06
-1.34155e-05
0.000447918
-1.40943e-08
0.000445855
-1.09791e-07
0.000262199
-1.41263e-06
-0.00034411
0.00764231
-0.000266511
0.0102334
-0.000241414
0.01242
-0.000237155
0.0140572
-0.000239703
0.0150196
-0.000236079
0.0152313
-0.00021524
0.0146763
-0.000172367
0.0134052
-0.000125364
0.0115444
-8.14804e-05
0.00924986
-4.21579e-05
0.00668944
-1.62789e-05
0.00401992
-4.46288e-06
0.00133265
0.00151402
0.0103553
-2.0724e-05
0.0109206
-0.00137591
0.0118826
-0.00295747
0.0135375
-0.00112239
0.0148784
0.000973703
0.0158487
0.00204062
0.0166016
0.0024328
0.0172328
0.00253624
0.0177996
0.0025324
0.0183465
0.00253032
0.0188788
0.00254432
0.0192286
0.00250475
0.0190048
0.00232102
0.0177576
0.00196039
0.0153395
0.00150829
0.0121069
0.00108408
0.00868401
0.000755632
0.00558992
0.000527062
0.00309065
-0.000336722
-5.23102e-05
-4.17988e-05
0.00016655
-0.000178087
-3.34429e-05
-2.50265e-05
5.079e-05
-0.000117886
-1.91426e-06
4.12229e-05
-1.29523e-06
5.03508e-05
-9.77995e-06
-7.75381e-06
2.58454e-05
-2.84033e-05
-7.62099e-06
1.61097e-05
1.26837e-05
-0.000167336
0.000215008
0.000379898
-0.000269538
0.00125684
7.67687e-05
0.000261763
-2.42777e-07
0.000261436
1.50036e-07
0.000445309
-4.6757e-07
0.000441878
-1.50012e-06
0.00131126
-1.67658e-05
-3.74344e-05
-0.000180055
0.00473148
-0.0001166
0.00126049
-5.32549e-05
-8.66907e-05
0.000439724
-2.44872e-06
0.000430427
-4.1184e-06
0.000261358
6.13432e-08
0.000261265
-1.98269e-08
7.5355e-05
-0.000191498
0.00756738
-0.000175943
0.010168
-0.000187402
0.0123704
-0.000214147
0.0140318
-0.000240158
0.0150237
-0.000241943
0.0152582
-0.000214949
0.0147189
-0.000169179
0.0134492
-0.00011624
0.0115793
-7.41432e-05
0.00928208
-4.19501e-05
0.00671532
-1.82125e-05
0.00403399
-3.11016e-06
0.00133603
0.00118189
0.0103339
-0.000498619
0.0108323
-0.00225638
0.0118007
-0.00470705
0.0136319
-0.00258433
0.0149988
-7.39646e-05
0.0159256
0.00126014
0.0166288
0.00182478
0.0172094
0.00204845
0.0177202
0.00212197
0.0182098
0.00216529
0.0187111
0.0022332
0.0191897
0.00230609
0.0194267
0.00230858
0.019017
0.00215214
0.0175654
0.00183167
0.0150159
0.00142935
0.011761
0.00104892
0.00839032
0.000748295
0.00536788
0.000536273
0.00293344
-0.000399416
-5.72161e-05
-4.82071e-05
0.000194347
-0.000211957
-3.50217e-05
-2.58136e-05
0.000129185
-0.000140784
-1.14755e-05
-1.05116e-05
-3.50868e-06
-1.03069e-05
1.37329e-05
-1.56545e-05
3.30626e-05
-1.66987e-06
1.24337e-05
-3.13721e-06
-7.62324e-06
-0.00019095
0.000135032
0.000392799
-0.000285316
0.00114703
7.51115e-05
7.52611e-05
0.000260761
3.17548e-08
0.000259407
-1.47206e-07
0.000421822
-8.17633e-06
0.000401568
-1.71828e-05
0.00122914
-7.7299e-05
-7.1437e-05
-5.74422e-05
0.00461046
-1.29342e-05
0.00117414
-4.28351e-05
-1.87524e-05
0.000381082
-3.27645e-05
0.000351297
-5.69054e-05
0.000257283
-3.24704e-07