/*--------------------------------*- C++ -*----------------------------------*\
| =========                 |                                                 |
| \\      /  F ield         | OpenFOAM: The Open Source CFD Toolbox           |
|  \\    /   O peration     | Version:  v1912                                 |
|   \\  /    A nd           | Website:  www.openfoam.com                      |
|    \\/     M anipulation  |                                                 |
\*---------------------------------------------------------------------------*/
FoamFile
{
    version     2.0;
    format      ascii;
    class       volVectorField;
    location    "130";
    object      U;
}
// * * * * * * * * * * * * * * * * * * * * * * * * * * * * * * * * * * * * * //

dimensions      [0 1 -1 0 0 0 0];


internalField   nonuniform List<vector> 
3753
(
(0.440825 -0.0541071 -7.76917e-21)
(0.790804 -0.0848857 5.61603e-20)
(0.123523 -0.0470381 -3.01067e-20)
(0.928169 -0.0778397 1.18814e-20)
(0.443693 -0.106362 3.35303e-20)
(0.0900784 -0.0405359 0)
(0.977322 -0.0653643 -4.25027e-20)
(0.692221 -0.142598 3.50862e-24)
(0.300684 -0.114107 -2.79261e-24)
(0.0926128 -0.0402538 0)
(0.991307 -0.056837 -1.56035e-24)
(0.844476 -0.157369 -4.75427e-20)
(0.521963 -0.173102 2.38636e-25)
(0.276193 -0.118962 0)
(0.0997255 -0.0409628 -3.70497e-20)
(0.99355 -0.0513818 -7.62931e-20)
(0.92374 -0.159899 4.52985e-20)
(0.704634 -0.213751 -5.61393e-20)
(0.462978 -0.189565 -5.78898e-20)
(0.283989 -0.119483 0)
(0.0988759 -0.0405893 -2.95697e-20)
(0.993052 -0.0472732 1.64407e-19)
(0.959362 -0.156834 0)
(0.828263 -0.237259 1.16991e-19)
(0.636202 -0.247122 5.31668e-20)
(0.458683 -0.190835 -6.17071e-24)
(0.28453 -0.117475 3.7466e-20)
(0.0968029 -0.040146 -4.82288e-20)
(0.992471 -0.0436708 -8.83235e-20)
(0.972733 -0.151554 -8.50228e-20)
(0.899402 -0.24849 -6.23525e-20)
(0.772934 -0.289205 -6.33467e-20)
(0.621202 -0.252597 0)
(0.457402 -0.187072 3.5486e-20)
(0.280706 -0.116249 3.06345e-20)
(0.0957704 -0.0396476 0)
(0.992255 -0.0401243 -1.20978e-23)
(0.976096 -0.145377 8.51545e-20)
(0.934345 -0.252452 0)
(0.865151 -0.317588 6.11029e-20)
(0.759359 -0.301857 -6.0626e-24)
(0.61521 -0.248184 -3.24579e-20)
(0.452661 -0.185049 -3.95427e-24)
(0.27778 -0.114923 2.46836e-20)
(0.0941002 -0.0389358 0)
(0.9923 -0.0363253 1.1894e-19)
(0.975275 -0.13851 -1.14111e-19)
(0.947885 -0.252598 -1.27326e-23)
(0.919278 -0.336597 8.42511e-20)
(0.863348 -0.338116 1.06428e-23)
(0.751818 -0.298708 0)
(0.608656 -0.245607 0)
(0.448581 -0.183047 9.15837e-22)
(0.274167 -0.112989 2.56323e-24)
(0.0918994 -0.0381376 0)
(0.992462 -0.0320771 8.01449e-21)
(0.972574 -0.13063 2.43394e-19)
(0.949589 -0.250729 1.30085e-19)
(0.947078 -0.350777 1.56848e-20)
(0.933584 -0.363799 0)
(0.860114 -0.337528 -4.21744e-24)
(0.743973 -0.296435 -2.83254e-24)
(0.603848 -0.243152 -4.24997e-20)
(0.443912 -0.180285 -2.3979e-24)
(0.269416 -0.110902 1.25479e-20)
(0.0897646 -0.0373424 -5.97343e-21)
(0.992679 -0.0272462 -1.28486e-19)
(0.968693 -0.121226 -1.29114e-19)
(0.944326 -0.247417 -1.31764e-19)
(0.958755 -0.363591 -2.08947e-19)
(0.978025 -0.382689 -8.26677e-24)
(0.938393 -0.365783 0)
(0.853619 -0.336471 0)
(0.738951 -0.293998 1.99874e-20)
(0.598849 -0.239872 -1.57051e-20)
(0.437918 -0.177404 7.19637e-22)
(0.264422 -0.10885 7.33531e-21)
(0.0877326 -0.036559 -3.13225e-21)
(0.992972 -0.0217489 0)
(0.963777 -0.109676 0)
(0.933942 -0.242519 -8.03487e-23)
(0.960602 -0.377208 2.40059e-19)
(1.00605 -0.398191 4.26742e-20)
(0.991517 -0.386284 8.25646e-24)
(0.93565 -0.366226 -5.35322e-24)
(0.849778 -0.334604 -4.09038e-24)
(0.734252 -0.290574 -3.31391e-22)
(0.592548 -0.236545 -1.07273e-20)
(0.431372 -0.174593 7.90727e-21)
(0.259496 -0.106815 3.8246e-21)
(0.0857888 -0.0358162 0)
(0.993428 -0.0155436 0)
(0.957829 -0.0952933 1.67308e-19)
(0.918805 -0.235516 2.05562e-19)
(0.955512 -0.392838 -1.25864e-19)
(1.02462 -0.412543 -4.15587e-20)
(1.02705 -0.40197 2.1694e-24)
(0.993015 -0.387688 5.25546e-24)
(0.934481 -0.365127 5.36401e-24)
(0.846225 -0.331437 -1.71021e-22)
(0.728351 -0.287106 -1.06922e-20)
(0.585534 -0.233341 -7.1358e-21)
(0.424696 -0.17179 -3.74973e-25)
(0.25469 -0.104869 -1.69594e-21)
(0.0839666 -0.0351096 -4.80475e-25)
(0.994168 -0.00865117 7.43885e-20)
(0.950875 -0.0773461 -7.82592e-20)
(0.898866 -0.225658 2.70816e-20)
(0.943958 -0.410955 3.42477e-23)
(1.03716 -0.426525 4.25664e-23)
(1.05104 -0.414727 2.25663e-20)
(1.03136 -0.403095 -2.42607e-20)
(0.994753 -0.386881 -1.4242e-24)
(0.932827 -0.362366 -3.99963e-23)
(0.841312 -0.328077 9.99928e-21)
(0.721664 -0.283767 -7.33845e-21)
(0.578176 -0.230139 0)
(0.418036 -0.169097 3.51567e-21)
(0.250089 -0.103003 -3.79565e-25)
(0.08223 -0.0344262 2.72489e-21)
(0.995266 -0.00120643 -1.49189e-19)
(0.943238 -0.0552151 3.30919e-21)
(0.874297 -0.211407 -2.39228e-19)
(0.923539 -0.431532 0)
(1.04294 -0.438546 4.68944e-23)
(1.06508 -0.42449 -2.21006e-20)
(1.05488 -0.413467 2.37341e-20)
(1.03432 -0.401326 -5.17002e-24)
(0.994722 -0.384119 1.29261e-20)
(0.929175 -0.359137 0)
(0.835432 -0.324739 6.85659e-21)
(0.714426 -0.280406 2.22679e-24)
(0.570632 -0.227053 -1.81666e-21)
(0.411527 -0.166476 1.86923e-25)
(0.245645 -0.101175 4.43995e-25)
(0.0805765 -0.0337729 3.84977e-21)
(0.996637 0.00633361 7.46488e-20)
(0.936381 -0.0284236 -8.94333e-20)
(0.845019 -0.189034 5.02205e-22)
(0.885973 -0.451539 0)
(1.03391 -0.443318 3.09643e-20)
(1.06338 -0.427514 1.78189e-20)
(1.06224 -0.417187 2.29342e-20)
(1.05504 -0.408512 3.61019e-24)
(1.0338 -0.397406 -2.61891e-24)
(0.991653 -0.380557 -9.32278e-21)
(0.924097 -0.355688 -6.77995e-21)
(0.828726 -0.321292 4.42123e-21)
(0.706755 -0.277156 -1.13035e-24)
(0.563097 -0.224008 1.18963e-25)
(0.405155 -0.163864 -1.72646e-21)
(0.241344 -0.0994156 1.12442e-24)
(0.0790361 -0.0331643 0)
(0.998221 0.0132941 -7.2422e-20)
(0.93436 0.0026981 3.44627e-21)
(0.808928 -0.150713 -1.08057e-21)
(0.811986 -0.453871 -1.26235e-19)
(0.986739 -0.432107 -3.14292e-20)
(1.02765 -0.413885 -2.70906e-21)
(1.04253 -0.408404 -2.30153e-20)
(1.05254 -0.40555 1.68006e-20)
(1.04965 -0.401439 -1.11285e-24)
(1.029 -0.392378 9.09438e-21)
(0.986435 -0.376452 6.5249e-21)
(0.917748 -0.351962 -4.19114e-21)
(0.821272 -0.317932 0)
(0.698896 -0.273896 5.43922e-22)
(0.55558 -0.2209 1.54071e-21)
(0.398884 -0.161318 -6.21499e-25)
(0.237238 -0.0977623 -2.48785e-24)
(0.0776089 -0.0325951 -1.3638e-24)
(0.999817 0.0190068 7.17044e-20)
(0.942834 0.0303622 -8.51185e-20)
(0.757023 -0.0802189 2.91949e-20)
(0.664891 -0.404041 1.25125e-19)
(0.853255 -0.385553 0)
(0.921284 -0.367778 -1.61742e-20)
(0.972604 -0.376106 0)
(1.01315 -0.385813 -3.33547e-20)
(1.03572 -0.392683 -1.15894e-20)
(1.03894 -0.393182 -8.58613e-21)
(1.02131 -0.386531 -1.87641e-24)
(0.979353 -0.371861 2.09907e-24)
(0.91023 -0.348292 1.18697e-24)
(0.813387 -0.314487 -1.19594e-21)
(0.690855 -0.270469 3.69934e-25)
(0.548032 -0.217824 1.18738e-24)
(0.392785 -0.158896 0)
(0.233359 -0.0962029 1.36535e-24)
(0.0762745 -0.0320599 5.88703e-21)
(1.00131 0.0231127 0)
(0.952035 0.0531674 1.6116e-19)
(0.822808 0.0344132 -4.72078e-20)
(0.82832 0.0554132 0)
(0.514375 -0.368319 2.22579e-21)
(0.390684 -0.279057 2.05872e-20)
(0.640834 -0.0417507 0)
(0.701448 -0.338096 1.0481e-22)
(0.343807 -0.249734 -3.10046e-20)
(0.51645 -0.227101 2.37839e-21)
(0.693219 -0.270463 -1.11232e-21)
(0.571217 -0.214637 0)
(0.821347 -0.307248 0)
(0.915393 -0.340459 1.71596e-20)
(0.9782 -0.365042 2.35305e-20)
(1.01392 -0.379352 8.66536e-21)
(1.02512 -0.384139 -1.81077e-24)
(1.01126 -0.380072 0)
(0.970633 -0.367348 -4.12854e-25)
(0.902007 -0.344449 6.53337e-22)
(0.805076 -0.310747 0)
(0.682572 -0.267013 -3.71844e-25)
(0.540538 -0.214861 -7.17768e-25)
(0.386923 -0.156585 -4.66474e-21)
(0.229691 -0.0947175 0)
(0.0750077 -0.0315463 6.25705e-21)
(1.00231 0.0255645 -6.40305e-20)
(0.965871 0.0699231 -4.61454e-21)
(0.838451 0.0828352 0)
(0.853221 0.109861 3.4794e-20)
(0.644381 0.0405672 0)
(0.419438 -0.145229 -1.97681e-21)
(0.170831 -0.20527 -2.65689e-20)
(0.138996 -0.192298 -6.55931e-21)
(0.208316 -0.231262 3.49048e-20)
(0.388645 -0.0906034 0)
(0.325196 -0.159914 -3.61835e-21)
(0.133868 -0.0634493 0)
(0.330878 -0.120433 0)
(0.253707 -0.084402 -4.24945e-24)
(0.444139 -0.162226 1.95251e-21)
(0.570901 -0.198114 -2.35629e-21)
(0.379846 -0.135583 1.26893e-24)
(0.74061 -0.264118 8.40149e-21)
(0.860705 -0.312811 -3.14813e-22)
(0.941795 -0.346049 -1.7137e-24)
(0.990235 -0.365966 0)
(1.00908 -0.37465 0)
(0.999288 -0.373904 0)
(0.961005 -0.362622 -4.01124e-25)
(0.893121 -0.340177 -1.10739e-26)
(0.796266 -0.306908 0)
(0.674158 -0.263644 -2.72502e-21)
(0.533202 -0.212 4.1339e-21)
(0.381299 -0.154349 -2.59174e-24)
(0.226181 -0.0932836 0)
(0.0738062 -0.0310602 0)
(1.00266 0.0264036 3.50525e-21)
(0.982474 0.0799185 -7.10748e-20)
(0.87224 0.134612 -3.34724e-20)
(0.893723 0.151475 -2.91266e-20)
(0.662166 0.107904 0)
(0.688638 0.165999 -4.59431e-20)
(0.375287 0.0263318 0)
(0.375192 -0.0313386 0)
(0.119775 -0.120929 3.17534e-21)
(0.0559323 -0.102871 0)
(0.0906502 -0.0296059 4.23492e-23)
(0.0784734 -0.0279312 -4.76452e-23)
(0.222752 -0.0746742 0)
(0.133634 -0.0414049 -8.92322e-22)
(0.339058 -0.112932 -1.30135e-24)
(0.492976 -0.164225 -1.08655e-20)
(0.319795 -0.103418 2.82022e-21)
(0.185328 -0.0620675 1.75567e-24)
(0.675463 -0.236082 -6.9742e-21)
(0.811994 -0.290463 4.39884e-25)
(0.906885 -0.328609 -5.42084e-21)
(0.965686 -0.352761 -3.2959e-21)
(0.991403 -0.36604 0)
(0.98651 -0.367631 7.1341e-22)
(0.950582 -0.357369 -6.90867e-22)
(0.883476 -0.33575 1.55978e-21)
(0.787102 -0.303126 2.52264e-21)
(0.665764 -0.260353 -3.31624e-21)
(0.526055 -0.20919 0)
(0.375865 -0.152168 -5.60162e-21)
(0.222814 -0.0919117 0)
(0.0726635 -0.030595 0)
(1.0028 0.0257629 6.15005e-20)
(0.996767 0.0834498 0)
(0.917764 0.166478 2.91321e-20)
(0.940397 0.166838 2.77278e-20)
(0.726154 0.214797 8.28456e-20)
(0.773786 0.245822 -3.70011e-20)
(0.386949 0.0858974 0)
(0.405222 0.143897 -2.02809e-20)
(0.455742 0.254643 0)
(0.428154 0.200728 1.94761e-20)
(0.0930416 -0.00772303 5.56729e-20)
(0.100969 -0.0652367 -2.72276e-20)
(0.0390705 -0.0113424 8.80435e-22)
(0.0557835 -0.0167425 4.3186e-23)
(0.05004 -0.0162757 -2.19201e-24)
(0.16475 -0.0519361 -2.55601e-21)
(0.292294 -0.0951478 -8.41058e-22)
(0.43168 -0.143628 -9.07297e-21)
(0.265743 -0.083556 4.09644e-21)
(0.197476 -0.0645927 9.60588e-22)
(0.195392 -0.0622232 -9.73659e-22)
(0.0421547 -0.0139125 0)
(0.0449183 -0.0142639 0)
(0.624474 -0.21545 1.91642e-24)
(0.769282 -0.271481 5.89642e-21)
(0.873703 -0.312189 3.47517e-21)
(0.940643 -0.341504 2.36271e-21)
(0.973624 -0.357679 -7.17061e-22)
(0.973096 -0.360833 6.80322e-22)
(0.939235 -0.351968 -3.05599e-21)
(0.873278 -0.331374 2.17283e-21)
(0.777794 -0.299405 3.06576e-21)
(0.657451 -0.25708 0)
(0.519063 -0.206411 4.94309e-21)
(0.370602 -0.150053 -5.86632e-21)
(0.219573 -0.0905948 0)
(0.0715895 -0.0301574 6.78487e-21)
(1.00265 0.024022 2.27735e-22)
(1.00929 0.0829988 2.29381e-22)
(0.951485 0.233238 -4.99353e-20)
(0.823684 0.263976 0)
(0.864695 0.290124 -3.16779e-20)
(0.488255 0.304195 -1.58838e-20)
(0.529048 0.344143 1.43459e-20)
(0.634042 0.40855 1.37305e-20)
(0.579017 0.379848 -1.13935e-20)
(0.0982252 0.0561501 -2.82323e-20)
(0.112079 0.123662 2.64322e-20)
(0.164952 0.259016 4.65728e-20)
(0.13406 0.19188 -5.0955e-20)
(0.0387136 -0.011636 1.04289e-21)
(0.0382364 -0.0121354 2.46195e-21)
(0.11586 -0.0379787 0)
(0.18586 -0.0595297 1.08232e-21)
(0.177551 -0.056543 7.21589e-24)
(0.22886 -0.074789 3.42832e-21)
(0.392202 -0.129289 2.27491e-21)
(0.212236 -0.0679053 -5.19106e-22)
(0.165815 -0.0536991 -9.29217e-22)
(0.147023 -0.0427762 -7.47404e-22)
(0.114382 -0.0360882 -8.01414e-22)
(0.581923 -0.198788 -1.97636e-24)
(0.730602 -0.253592 -1.07863e-24)
(0.84184 -0.299149 -2.50748e-21)
(0.917004 -0.331091 3.68948e-25)
(0.955862 -0.348954 0)
(0.958823 -0.354018 1.53032e-21)
(0.927247 -0.346672 -4.19012e-21)
(0.862807 -0.327075 2.66785e-21)
(0.76845 -0.295672 7.82678e-25)
(0.649212 -0.253799 -4.11967e-21)
(0.512209 -0.203681 5.16551e-21)
(0.365488 -0.148011 0)
(0.216481 -0.0893463 7.40996e-21)
(0.0705767 -0.0297374 6.83549e-21)
(1.00214 0.0215249 0)
(1.01863 0.0783939 -2.16631e-22)
(1.00551 0.224339 5.63871e-20)
(0.858035 0.549985 -2.43572e-20)
(0.96159 0.560044 1.47627e-20)
(0.690057 0.432958 -7.77747e-22)
(0.736387 0.445933 1.12961e-20)
(0.758938 0.535244 2.35918e-20)
(0.206644 0.319198 -2.16264e-20)
(0.260895 0.36594 4.6898e-22)
(0.401369 0.491232 -2.58442e-20)
(0.314817 0.395545 2.23673e-20)
(0.0374459 -0.0120662 -2.23145e-24)
(0.109372 -0.0344601 0)
(0.104088 -0.0328129 -8.28956e-22)
(0.121756 -0.0395113 -9.47554e-22)
(0.110814 -0.035353 0)
(0.200313 -0.0643347 -1.90197e-21)
(0.360437 -0.118302 0)
(0.193819 -0.0613497 -4.0588e-21)
(0.104081 -0.0330501 0)
(0.100961 -0.0317019 1.36024e-21)
(0.0959314 -0.0305395 -8.44633e-22)
(0.0669378 -0.0174822 0)
(0.0369324 -0.0115396 1.08036e-21)
(0.54208 -0.1816 0)
(0.695002 -0.240529 0)
(0.813516 -0.287619 0)
(0.894561 -0.320592 0)
(0.937641 -0.340479 0)
(0.944049 -0.347456 2.06695e-21)
(0.914972 -0.341533 -5.11672e-21)
(0.852219 -0.322759 3.10586e-21)
(0.759077 -0.291894 3.80195e-21)
(0.641033 -0.250538 -4.33749e-21)
(0.505484 -0.201024 -1.27513e-24)
(0.360552 -0.146056 -6.3405e-21)
(0.213533 -0.0881441 0)
(0.0696001 -0.0293309 0)
(1.00142 0.0185411 5.22399e-20)
(1.02499 0.0713247 0)
(1.0321 0.196055 0)
(1.13023 0.487961 -8.59153e-21)
(0.830311 0.608939 3.51656e-21)
(0.650828 0.505028 -2.75816e-21)
(0.906951 0.477758 1.24965e-22)
(0.539451 0.558869 2.37998e-22)
(0.613006 0.568471 -1.17979e-20)
(0.526467 0.445682 -1.15107e-22)
(0.468383 0.451103 3.44584e-21)
(0.153776 0.262347 -1.7861e-21)
(0.0354598 -0.0110083 0)
(0.0338249 -0.0105959 5.60183e-22)
(0.0426893 -0.0140469 0)
(0.0369858 -0.0117477 0)
(0.0978785 -0.0309478 1.21555e-21)
(0.0965775 -0.0302187 1.12021e-21)
(0.1849 -0.0593936 0)
(0.319578 -0.103258 -1.86486e-22)
(0.176088 -0.0556572 -2.07907e-22)
(0.0947563 -0.0298035 1.91035e-21)
(0.0937411 -0.0292464 0)
(0.033669 -0.010547 -1.55571e-24)
(0.0325278 -0.0100906 -1.127e-21)
(0.0311109 -0.0101416 1.15592e-21)
(0.0184829 -0.00485815 2.37908e-22)
(0.507009 -0.170043 0)
(0.665423 -0.229637 0)
(0.78786 -0.276152 0)
(0.87227 -0.310686 -2.23539e-21)
(0.919342 -0.332498 5.83146e-25)
(0.929174 -0.34123 2.51391e-21)
(0.902615 -0.336426 -5.98459e-21)
(0.841545 -0.318385 -8.66156e-25)
(0.74968 -0.288107 3.99769e-21)
(0.632923 -0.247335 1.10943e-24)
(0.498921 -0.19846 -5.68514e-27)
(0.355804 -0.144163 6.48124e-27)
(0.210704 -0.0869762 -3.67495e-24)
(0.0686542 -0.0289373 0)
(1.00071 0.0152842 -5.29674e-20)
(1.02909 0.0634468 4.9285e-20)
(1.04293 0.161514 -3.48718e-20)
(1.24887 0.44427 -1.45492e-20)
(0.785257 0.136839 -4.73057e-20)
(1.06804 0.202005 1.25719e-19)
(0.447457 0.265973 -2.77245e-21)
(0.279974 0.247439 0)
(0.591122 0.188241 -2.21379e-20)
(0.261597 0.100766 0)
(0.338627 0.438794 1.27573e-21)
(0.410082 0.446045 -3.98984e-21)
(0.0316769 -0.00983189 0)
(0.0312156 -0.00962818 0)
(0.0915215 -0.028924 7.61392e-22)
(0.0901576 -0.0282259 6.97555e-25)
(0.152492 -0.0474702 -1.54931e-22)
(0.288657 -0.093105 -3.88772e-22)
(0.125279 -0.0407146 2.11641e-22)
(0.0879139 -0.0278309 0)
(0.084366 -0.02643 2.63059e-22)
(0.0306106 -0.00950467 -3.25723e-24)
(0.0302773 -0.00935927 0)
(0.481484 -0.161807 0)
(0.639964 -0.218336 0)
(0.762668 -0.265618 2.40077e-21)
(0.850523 -0.301502 0)
(0.901369 -0.325143 9.90905e-26)
(0.914442 -0.335157 2.95455e-21)
(0.890219 -0.331291 0)
(0.830797 -0.31399 8.68827e-25)
(0.740275 -0.284362 4.01724e-21)
(0.624925 -0.244229 -4.51609e-21)
(0.492552 -0.195961 1.29303e-24)
(0.351222 -0.142306 1.5295e-24)
(0.207948 -0.0858305 6.05912e-26)
(0.0677267 -0.0285537 0)
(1.00018 0.0119272 4.99745e-20)
(1.03119 0.0552256 -2.55606e-21)
(1.04751 0.129496 3.62272e-20)
(1.2843 0.385348 1.49863e-20)
(1.17398 0.147969 -7.53459e-20)
(0.220422 0.00722776 -1.19398e-20)
(0.474071 -0.0145992 3.34145e-20)
(0.274552 -0.0262995 -2.95885e-20)
(0.632906 -0.00934027 6.15182e-20)
(0.0297299 -0.00922243 -8.66058e-22)
(0.0292325 -0.00901888 0)
(0.0768529 -0.0245877 1.70553e-22)
(0.0545645 -0.0141169 1.31631e-22)
(0.113589 -0.0357044 7.82439e-22)
(0.272968 -0.0881178 6.9253e-25)
(0.110921 -0.034604 1.84117e-22)
(0.0347922 -0.0110459 -9.07159e-24)
(0.0292329 -0.00956328 6.35368e-23)
(0.0285135 -0.00889933 -3.22016e-22)
(0.0272906 -0.0085463 1.4548e-22)
(0.460996 -0.153149 0)
(0.613906 -0.208284 8.22789e-25)
(0.738524 -0.255819 6.76332e-25)
(0.829717 -0.293315 0)
(0.883983 -0.318123 -1.48783e-24)
(0.899866 -0.329142 3.36749e-21)
(0.877788 -0.326159 0)
(0.819992 -0.309635 -7.53174e-21)
(0.73092 -0.280727 1.05944e-22)
(0.617099 -0.241185 0)
(0.48636 -0.193488 0)
(0.346758 -0.140478 0)
(0.205252 -0.0847149 3.67173e-24)
(0.0668379 -0.0281827 6.60981e-21)
(0.999866 0.00861348 -5.07444e-20)
(1.03148 0.0466344 -4.87118e-20)
(1.05126 0.102094 -1.20304e-23)
(1.27285 0.317259 1.38504e-20)
(1.37367 0.154878 0)
(0.654364 -0.0323486 0)
(0.0707947 -0.0211236 1.93498e-20)
(0.277476 -0.0122997 9.04626e-23)
(0.122447 -0.0117899 -1.03673e-22)
(0.301241 -0.0540207 -9.73311e-20)
(0.0248834 -0.00824295 2.20709e-24)
(0.0150061 -0.00389936 -1.42952e-22)
(0.0268975 -0.00837328 -2.09658e-26)
(0.0262744 -0.00820318 -1.80236e-22)
(0.107758 -0.0340658 -1.12348e-22)
(0.310552 -0.103815 -1.03845e-24)
(0.106721 -0.0332702 -4.7424e-23)
(0.21152 -0.0697131 -3.61486e-22)
(0.0260947 -0.00810565 -7.00145e-26)
(0.0260825 -0.00800359 -2.78562e-22)
(0.435985 -0.143715 -5.10662e-22)
(0.306294 -0.100458 0)
(0.588821 -0.198632 -8.40875e-25)
(0.716061 -0.247422 0)
(0.810138 -0.285685 -3.37356e-21)
(0.867099 -0.311293 -6.9804e-21)
(0.885421 -0.323191 1.7528e-24)
(0.865327 -0.321089 3.627e-21)
(0.809204 -0.30543 3.8236e-21)
(0.721715 -0.277157 0)
(0.609436 -0.238151 0)
(0.4803 -0.191039 0)
(0.342387 -0.138688 0)
(0.202623 -0.0836213 -7.42866e-21)
(0.0659657 -0.0278236 3.17374e-24)
(0.999763 0.00543689 0)
(1.03044 0.0376519 4.59148e-20)
(1.05565 0.0789414 0)
(1.24297 0.253143 -1.47885e-20)
(1.44436 0.153821 0)
(1.08278 -0.0166896 1.33179e-19)
(0.342961 -0.0704781 -8.76731e-20)
(0.199306 -0.0115509 9.25013e-20)
(0.0202864 -0.00688622 4.18639e-20)
(0.0641357 -0.0246881 8.64046e-20)
(0.0256088 -0.00801492 1.7567e-22)
(0.025576 -0.00791938 3.67424e-23)
(0.131258 -0.043096 7.89697e-23)
(0.0775039 -0.0252405 2.29524e-22)
(0.0253175 -0.00785327 -6.90177e-26)
(0.02533 -0.00776596 3.75091e-23)
(0.204427 -0.0663292 -3.36917e-24)
(0.13106 -0.0416248 2.68572e-22)
(0.294982 -0.0958124 7.99869e-22)
(0.409966 -0.134234 -5.98855e-22)
(0.283739 -0.0914879 8.48632e-22)
(0.566488 -0.190766 0)
(0.695675 -0.239818 3.66608e-21)
(0.791487 -0.278391 3.73293e-21)
(0.850607 -0.304604 -1.84786e-24)
(0.871074 -0.317345 -1.76173e-24)
(0.852913 -0.316255 -3.6091e-21)
(0.798575 -0.301313 -3.73296e-24)
(0.712668 -0.273591 4.12819e-21)
(0.601904 -0.235134 0)
(0.474358 -0.188631 5.13611e-21)
(0.338101 -0.136928 0)
(0.20006 -0.082566 0)
(0.0651073 -0.0274737 6.47015e-21)
(0.999797 0.00243701 -4.97581e-20)
(1.02869 0.0283593 -4.69507e-20)
(1.05986 0.0592557 -2.85526e-20)
(1.21133 0.197302 0)
(1.4419 0.143781 9.32199e-24)
(1.335 -0.00110123 -1.15932e-19)
(0.75805 -0.0781972 -1.25376e-22)
(0.259233 -0.0589135 0)
(0.1279 -0.0265048 7.51643e-20)
(0.118843 -0.0465358 -1.44575e-21)
(0.0477021 -0.00089603 -7.46518e-20)
(-0.00194392 -0.0101489 -1.25484e-21)
(0.00632019 0.00319908 1.52299e-21)
(0.0773853 -0.0241562 -3.57445e-22)
(0.0252446 -0.00807239 -4.9578e-23)
(0.126198 -0.0403217 1.0542e-24)
(0.196335 -0.0627395 -4.72966e-22)
(0.128773 -0.041262 0)
(0.268633 -0.0853188 2.11202e-21)
(0.389683 -0.127419 -5.8929e-22)
(0.255821 -0.0826292 -7.73399e-24)
(0.18566 -0.0593318 3.22312e-24)
(0.547502 -0.184003 -5.71296e-25)
(0.67661 -0.232688 0)
(0.773462 -0.271284 4.23824e-21)
(0.834415 -0.298051 3.70246e-24)
(0.856881 -0.311876 3.59751e-21)
(0.840739 -0.31156 -3.65986e-21)
(0.788122 -0.297204 -3.89685e-21)
(0.703745 -0.270034 2.03174e-24)
(0.594509 -0.232156 -4.59694e-21)
(0.46852 -0.186257 3.01232e-26)
(0.3339 -0.135214 5.81726e-21)
(0.197543 -0.0815416 1.68456e-24)
(0.0642982 -0.0271357 3.03565e-24)
(0.999897 -0.000389619 5.05205e-20)
(1.02674 0.0189225 4.59339e-20)
(1.06289 0.0420619 7.96006e-22)
(1.1854 0.149397 1.25897e-20)
(1.40455 0.123583 -4.51504e-20)
(1.44491 0.00859257 2.37051e-23)
(1.10512 -0.0769397 5.94578e-23)
(0.568334 -0.0905638 1.50717e-22)
(0.0713501 -0.0211755 1.02868e-22)
(0.226644 -0.0486866 0)
(0.0454141 -0.0135023 -1.44489e-20)
(0.019908 -0.0145207 4.71084e-20)
(-6.53652e-05 0.00914196 4.67366e-20)
(0.00805995 -0.000433449 -2.07532e-20)
(0.0757621 -0.0238998 0)
(0.0251848 -0.00778103 2.40609e-22)
(0.123333 -0.0390818 -1.04498e-24)
(0.0740077 -0.0234093 2.54966e-22)
(0.12049 -0.0380761 -5.16612e-22)
(0.167198 -0.0519995 -1.1408e-21)
(0.247001 -0.0794152 -9.03781e-22)
(0.375183 -0.122463 1.24802e-21)
(0.241973 -0.0774391 1.91303e-21)
(0.152867 -0.0486986 3.49909e-24)
(0.109744 -0.0347859 0)
(0.115915 -0.0368328 1.00856e-24)
(0.530125 -0.177852 5.75484e-24)
(0.658167 -0.225716 -4.62546e-21)
(0.755893 -0.26424 4.39766e-21)
(0.818539 -0.292074 -1.85393e-24)
(0.843115 -0.30663 3.65112e-21)
(0.828822 -0.3069 1.80954e-24)
(0.777813 -0.29311 -3.87725e-21)
(0.694953 -0.266508 0)
(0.587217 -0.229212 0)
(0.462778 -0.183933 -5.05552e-21)
(0.329778 -0.133551 -4.47287e-26)
(0.195114 -0.0805496 -6.72974e-21)
(0.0635292 -0.0268101 -3.06873e-24)
(1.00001 -0.00306334 0)
(1.02492 0.00950798 -7.03721e-20)
(1.06441 0.0264188 2.95203e-20)
(1.16675 0.108513 -1.33688e-20)
(1.35792 0.0988899 9.99794e-21)
(1.46566 0.0102676 1.90624e-23)
(1.32175 -0.0707937 -6.64035e-23)
(0.906931 -0.107201 -1.01236e-22)
(0.468945 -0.0850576 0)
(0.0707987 -0.0171938 4.18772e-20)
(0.0142827 -0.000298346 -1.43397e-20)
(0.00678664 -0.00884833 -6.01721e-23)
(0.2003 -0.0415238 -1.55067e-19)
(0.0155909 -0.00241807 7.10064e-23)
(0.0114849 -0.00671921 -1.55608e-22)
(-0.0102164 -0.00427328 2.14273e-20)
(0.00212545 -0.000139282 0)
(-0.00709138 0.00228754 -1.10991e-20)
(0.000355988 0.000239813 -7.95727e-22)
(0.0245678 -0.00761151 -1.37538e-24)
(0.0723168 -0.0226855 8.4465e-25)
(0.0239253 -0.00745908 -5.15077e-22)
(0.070695 -0.0221907 2.21263e-22)
(0.0965082 -0.0279499 5.65923e-24)
(0.0828447 -0.0268979 3.05724e-22)
(0.146667 -0.0463627 -4.13829e-22)
(0.237059 -0.0759119 -2.07945e-21)
(0.362463 -0.118267 -6.01469e-23)
(0.233667 -0.0747137 2.28979e-21)
(0.14356 -0.045227 -4.33677e-22)
(0.0723206 -0.0228655 6.48612e-24)
(0.0759087 -0.0240467 -2.81221e-22)
(0.0630302 -0.0198751 0)
(0.0676051 -0.0213219 2.34728e-22)
(0.512841 -0.171707 -2.39979e-24)
(0.639998 -0.218467 -4.80597e-21)
(0.73878 -0.258038 4.05895e-21)
(0.803409 -0.286429 0)
(0.829772 -0.301474 3.78903e-21)
(0.817106 -0.302281 3.76386e-21)
(0.767649 -0.289054 -9.29768e-25)
(0.686285 -0.263024 4.02023e-21)
(0.580028 -0.226319 4.3231e-21)
(0.457125 -0.181675 0)
(0.325764 -0.131941 5.66179e-21)
(0.192775 -0.079583 0)
(0.0627458 -0.0264843 0)
(1.0001 -0.00560868 -7.75023e-25)
(1.02335 0.000243642 4.78439e-20)
(1.06466 0.0116571 0)
(1.15397 0.0734923 -1.19854e-20)
(1.31563 0.0736821 7.11703e-20)
(1.44235 0.00615355 -1.93098e-23)
(1.42165 -0.0641791 -7.90933e-20)
(1.17572 -0.110963 4.76583e-23)
(0.766691 -0.112552 1.13993e-22)
(0.40674 -0.0754172 0)
(0.0636662 -0.014494 1.55077e-19)
(0.0163833 0.000232647 -6.52216e-20)
(0.0153865 -0.00767317 1.30229e-20)
(0.00235822 0.00192537 9.41756e-21)
(0.000873702 -0.00021157 1.67961e-20)
(-6.32236e-05 1.02348e-05 1.13555e-20)
(-0.00120054 -0.00237422 -1.04373e-20)
(0.00303399 -2.62916e-05 1.20157e-22)
(0.179341 -0.0363842 0)
(0.000759092 0.0011033 1.33858e-20)
(-0.00921469 0.000856328 1.24708e-20)
(-0.00282922 0.00180865 0)
(0.0233798 -0.00725979 3.18675e-22)
(0.0229643 -0.00714278 3.09742e-22)
(0.043804 -0.0111134 2.56063e-22)
(0.028594 -0.00949152 1.0897e-22)
(0.070567 -0.0220964 -2.16571e-24)
(0.0697738 -0.0218049 5.71448e-22)
(0.141109 -0.0444559 0)
(0.229484 -0.0735335 -4.71043e-21)
(0.348496 -0.113729 1.28935e-23)
(0.225889 -0.0722652 4.97328e-21)
(0.139107 -0.0438415 -1.40915e-21)
(0.0687958 -0.0214691 -6.19654e-22)
(0.0691203 -0.0215961 5.99348e-22)
(0.0232693 -0.00729661 -1.30987e-24)
(0.0251039 -0.0080122 1.89534e-22)
(0.0203239 -0.00668494 -2.55139e-23)
(0.021828 -0.0068792 -3.16731e-22)
(0.494691 -0.164514 -8.38341e-24)
(0.622296 -0.212394 -4.45861e-21)
(0.722911 -0.25229 6.02347e-24)
(0.788962 -0.280953 -3.90638e-21)
(0.816737 -0.296404 0)
(0.805593 -0.297724 0)
(0.757648 -0.285049 -3.79397e-21)
(0.677726 -0.259594 -3.9684e-21)
(0.572935 -0.223506 0)
(0.451611 -0.17949 0)
(0.321866 -0.130363 0)
(0.190461 -0.0786314 0)
(0.061991 -0.0261671 -2.81204e-24)
(1.00015 -0.00804067 0)
(1.02204 -0.008801 -2.45306e-20)
(1.06408 -0.00260815 0)
(1.14501 0.0429437 1.26023e-20)
(1.28227 0.0491287 -6.07297e-21)
(1.40459 -0.00134758 6.17703e-20)
(1.44471 -0.0599201 5.63445e-21)
(1.33857 -0.107436 4.14337e-23)
(1.04491 -0.126666 4.20616e-23)
(0.667445 -0.106811 0)
(0.36177 -0.0670187 -1.12319e-22)
(0.0578324 -0.0126712 3.45188e-20)
(0.0155775 0.000778337 0)
(0.0133635 -0.00659183 0)
(0.00251173 0.0014448 6.69812e-23)
(0.00284282 -0.000978599 1.5306e-20)
(0.00394234 -0.000419668 -1.4831e-20)
(0.00320162 -0.00222081 0)
(0.000239594 0.000321948 0)
(-0.00115468 -0.000214956 -1.34877e-21)
(0.161687 -0.0317254 0)
(-0.000262831 0.000364801 5.82884e-22)
(0.0121086 -0.00308364 -1.2792e-22)
(0.0226308 -0.00702964 -3.32448e-22)
(0.0223834 -0.00694038 3.4206e-22)
(0.0681402 -0.0212908 -6.29549e-22)
(0.0679048 -0.0211842 0)
(0.137022 -0.043193 1.95574e-21)
(0.220727 -0.0708688 0)
(0.32986 -0.106676 -1.31761e-23)
(0.214769 -0.0688325 1.35178e-21)
(0.134877 -0.0425378 -2.08288e-21)
(0.0671498 -0.0209594 -2.64395e-24)
(0.0673858 -0.0210726 -6.61613e-22)
(0.0220866 -0.0068453 7.16813e-22)
(0.0222004 -0.00688254 3.53704e-22)
(0.476813 -0.158794 5.60986e-24)
(0.606667 -0.206919 -4.49648e-24)
(0.708099 -0.246819 -4.37768e-21)
(0.774986 -0.275628 -9.7893e-25)
(0.803997 -0.291433 -3.84925e-21)
(0.794297 -0.293233 0)
(0.74778 -0.281106 0)
(0.669279 -0.25626 0)
(0.565981 -0.220779 9.84527e-25)
(0.44622 -0.177345 2.19452e-24)
(0.318055 -0.12882 0)
(0.188218 -0.0777022 1.49741e-24)
(0.0612679 -0.0258603 5.57559e-24)
(1.00017 -0.0103668 0)
(1.02093 -0.0175949 0)
(1.06304 -0.0165784 1.69596e-20)
(1.13843 0.0156149 0)
(1.25766 0.0253873 -4.0587e-20)
(1.36794 -0.0109717 -7.19375e-21)
(1.42915 -0.0585719 7.43529e-20)
(1.40968 -0.101741 0)
(1.24599 -0.12988 -3.70653e-23)
(0.93543 -0.128159 -4.55394e-23)
(0.594331 -0.098342 -9.30422e-23)
(0.326142 -0.0596514 1.16655e-22)
(0.0516586 -0.0103467 1.11395e-21)
(0.0133727 0.000895668 -5.69323e-22)
(0.0121985 -0.00589948 0)
(-0.00104953 0.00145559 -9.52954e-21)
(0.00250582 1.39328e-05 -1.31269e-23)
(0.00144068 -0.00226569 0)
(-0.00139649 0.00120388 1.04329e-20)
(-0.000437249 -1.88889e-05 -8.94313e-21)
(0.00023252 8.81613e-05 -8.16317e-21)
(-0.000112029 -0.000537083 0)
(0.145863 -0.0272033 -1.22733e-19)
(0.0219204 -0.00679485 -2.58666e-24)
(0.0218327 -0.00676303 3.79437e-22)
(0.0665313 -0.020797 -2.75535e-24)
(0.0662942 -0.0206834 5.60198e-24)
(0.132153 -0.041719 2.12685e-23)
(0.205366 -0.0660361 2.94706e-24)
(0.310659 -0.100854 -7.72754e-22)
(0.192946 -0.0604471 1.76445e-21)
(0.12818 -0.0405644 -1.68105e-21)
(0.0654658 -0.0204369 7.59455e-22)
(0.0657642 -0.0205765 -2.8383e-24)
(0.0215922 -0.00669125 4.04515e-22)
(0.02169 -0.00672751 1.8907e-25)
(0.462627 -0.153917 5.49751e-24)
(0.592636 -0.20189 4.831e-21)
(0.693939 -0.241569 0)
(0.761396 -0.270439 3.98111e-21)
(0.791555 -0.286545 -9.10364e-25)
(0.783187 -0.288809 1.72693e-24)
(0.738032 -0.27728 0)
(0.660968 -0.253033 0)
(0.559177 -0.21811 -9.87114e-25)
(0.440951 -0.175239 -2.20137e-24)
(0.314348 -0.127304 0)
(0.186041 -0.0767921 -1.50565e-24)
(0.0605529 -0.025562 -5.41815e-24)
(1.00013 -0.0125798 0)
(1.01994 -0.0261239 0)
(1.06175 -0.0303682 -1.7501e-20)
(1.13352 -0.00952243 -6.93495e-25)
(1.24003 0.00239574 1.25163e-20)
(1.33828 -0.0219956 -5.92946e-20)
(1.401 -0.0596953 0)
(1.42237 -0.0967162 -1.69454e-23)
(1.35767 -0.126854 0)
(1.15484 -0.138078 3.82838e-24)
(0.846198 -0.123303 0)
(0.537327 -0.089622 9.75648e-23)
(0.296055 -0.0528985 1.06053e-19)
(0.0452001 -0.00788169 1.20795e-19)
(0.00998629 0.00183401 9.0525e-20)
(0.00979802 -0.00422092 -4.6527e-20)
(-0.00228352 0.0019596 -4.34314e-20)
(-0.00267022 6.46867e-05 9.57301e-21)
(-0.00185849 0.001252 8.86676e-21)
(-0.000866612 0.000680134 7.57641e-23)
(-0.00148211 -6.61195e-05 -6.23345e-23)
(-0.00184148 0.00119675 -7.37092e-23)
(0.131964 -0.0230945 0)
(0.0214313 -0.00664335 -7.71369e-25)
(0.0213366 -0.00660822 -2.55686e-26)
(0.0647973 -0.0202701 0)
(0.0643513 -0.0200863 0)
(0.120856 -0.0384811 2.77169e-22)
(0.179941 -0.0573871 1.27785e-21)
(0.29958 -0.0968901 1.63287e-21)
(0.174677 -0.0557352 -1.3203e-21)
(0.102389 -0.031375 -1.86255e-21)
(0.0624193 -0.0195459 0)
(0.0635437 -0.0199287 7.72306e-22)
(0.0210768 -0.00653045 1.90541e-24)
(0.0211935 -0.00657507 0)
(0.450761 -0.149812 -8.44661e-24)
(0.579471 -0.197163 5.13423e-21)
(0.680225 -0.236481 0)
(0.748151 -0.265336 0)
(0.77935 -0.28172 9.13406e-25)
(0.772229 -0.284538 -1.73207e-24)
(0.728453 -0.273601 1.64854e-24)
(0.652832 -0.249879 0)
(0.552514 -0.215478 0)
(0.435803 -0.173164 2.05391e-24)
(0.310708 -0.125809 0)
(0.183906 -0.0759083 0)
(0.0598541 -0.0252689 2.6813e-24)
(1.00004 -0.014666 -3.69297e-24)
(1.01899 -0.0343752 -3.01623e-24)
(1.06025 -0.0440483 1.98444e-20)
(1.12994 -0.0333142 0)
(1.22779 -0.0200594 4.33318e-24)
(1.31634 -0.0339823 0)
(1.3738 -0.062691 3.21427e-20)
(1.40759 -0.0933641 1.65882e-23)
(1.39969 -0.121558 1.75357e-23)
(1.29689 -0.139324 -6.97966e-20)
(1.0711 -0.138195 7.15711e-23)
(0.773116 -0.115936 -7.98184e-20)
(0.49028 -0.0812214 -1.78476e-19)
(0.269928 -0.0467216 0)
(0.0400248 -0.00551967 -1.00648e-22)
(0.0060379 0.00331621 8.0658e-23)
(0.00635917 -0.00260703 0)
(-0.00499447 0.0027571 -3.37982e-20)
(-0.00437886 0.001177 0)
(-0.00440096 0.00235702 1.11388e-20)
(-0.00351541 0.000796959 1.70784e-22)
(-0.00257481 0.000247758 0)
(-0.00273187 0.00184413 -9.64135e-21)
(-0.000985046 0.000153818 -8.70547e-22)
(-0.000655783 0.00035729 -6.4192e-21)
(0.118732 -0.0195999 -2.51666e-23)
(0.0209052 -0.00648248 4.52167e-22)