/*--------------------------------*- C++ -*----------------------------------*\
| =========                 |                                                 |
| \\      /  F ield         | OpenFOAM: The Open Source CFD Toolbox           |
|  \\    /   O peration     | Version:  v1912                                 |
|   \\  /    A nd           | Website:  www.openfoam.com                      |
|    \\/     M anipulation  |                                                 |
\*---------------------------------------------------------------------------*/
FoamFile
{
    version     2.0;
    format      ascii;
    class       surfaceScalarField;
    location    "360";
    object      phi;
}
// * * * * * * * * * * * * * * * * * * * * * * * * * * * * * * * * * * * * * //

dimensions      [0 3 -1 0 0 0 0];
oriented        oriented;


internalField   nonuniform List<scalar> 
7196
(
0.00510596
0.00490104
0.0062292
0.00888476
0.00245856
0.00244248
0.00618524
0.010051
0.00446954
0.00687377
0.000925687
0.00151679
0.00596109
0.0102332
0.00522203
0.00929848
0.00258356
0.0052159
0.000294056
0.00122273
0.00577301
0.0101971
0.00526895
0.0101862
0.00373628
0.00814575
0.00128541
0.00422455
7.7674e-05
0.00114506
0.0056284
0.0101556
0.00510693
0.0103591
0.0041906
0.00973191
0.00232727
0.00710389
0.000563712
0.00373851
2.9671e-07
0.00114476
0.00550365
0.0101358
0.00493942
0.0103231
0.00422838
0.0103213
0.00296241
0.00909677
0.00128108
0.00638652
0.000193387
0.00354542
-2.93393e-05
0.0011741
0.00538811
0.0101275
0.00480651
0.0102687
0.00412037
0.0104311
0.00318429
0.0100994
0.00186387
0.00851399
0.000598263
0.00598164
1.23584e-05
0.00350372
-3.84526e-05
0.00121255
0.00527966
0.0101204
0.00470495
0.0102291
0.00399824
0.0103908
0.00317253
0.0104429
0.00215265
0.00981064
0.00101317
0.00809908
0.000191021
0.00580298
-6.8267e-05
0.00353353
-3.64456e-05
0.001249
0.00517538
0.0101143
0.00462437
0.010201
0.00389939
0.0103279
0.00307784
0.0104855
0.00219777
0.0103978
0.00125966
0.00956416
0.000426289
0.00786381
-2.47176e-05
0.00575943
-9.2688e-05
0.00358978
-2.98383e-05
0.00127884
0.00507781
0.0101056
0.00456458
0.0101741
0.0038307
0.0102697
0.00297532
0.0104305
0.00211554
0.0105677
0.00130527
0.0103521
0.00058018
0.00941026
7.10063e-05
0.00776809
-0.000119725
0.00578646
-9.08461e-05
0.00365078
-2.32479e-05
0.00130208
0.00498814
0.0100937
0.00452739
0.0101428
0.00379384
0.0102109
0.00289476
0.0103503
0.00199
0.010556
0.00120793
0.0106651
0.000585138
0.0103472
0.000131588
0.00934968
-0.000110998
0.00775936
-0.000147172
0.00584279
-7.84867e-05
0.00370602
-1.70178e-05
0.0013191
0.00490497
0.0100822
0.0045122
0.0101089
0.00379088
0.0101457
0.00284692
0.0102588
0.00186334
0.0104769
0.00103401
0.0107299
0.000450233
0.0108
8.64519e-05
0.0103923
-0.00011721
0.00935589
-0.000186189
0.00779838
-0.000144272
0.00590857
-6.36498e-05
0.00375265
-1.13318e-05
0.00133043
0.00482817
0.0100698
0.00452148
0.0100729
0.00383045
0.0100693
0.00284368
0.010149
0.00175601
0.0103661
0.000825289
0.0106856
0.000216951
0.0109632
-7.74294e-05
0.0109638
-0.000192661
0.0104678
-0.000231906
0.00940161
-0.000205845
0.00785995
-0.000127557
0.00597248
-4.86489e-05
0.00378997
-7.04936e-06
0.00133748
0.00475573
0.0100574
0.00455477
0.0100365
0.00391695
0.00998638
0.00289692
0.010016
0.00168605
0.0102189
0.000606164
0.0105852
-8.56752e-05
0.0109883
-0.00034546
0.0112313
-0.000363165
0.0111343
-0.00032569
0.0105616
-0.000275217
0.00947098
-0.000198049
0.00793045
-0.00010669
0.00603052
-3.50446e-05
0.00381797
-3.41865e-06
0.0013409
0.00468479
0.0100499
0.00460694
0.0100053
0.00405625
0.00989722
0.00302662
0.00985669
0.00167841
0.0100237
0.000394233
0.0104308
-0.000445153
0.0109447
-0.000701348
0.0113442
-0.00062099
0.0114891
-0.000488686
0.0112973
-0.000380971
0.0106673
-0.000280953
0.00955389
-0.000177719
0.00800147
-8.42373e-05
0.00607972
-2.40763e-05
0.00383863
-1.24497e-06
0.00134215
0.00461182
0.010046
0.00467348
0.00998339
0.00424644
0.00981508
0.00324809
0.00967574
0.00176454
0.00977056
0.000209117
0.0102088
-0.000863536
0.0108492
-0.00114552
0.0113889
-0.000954018
0.0116772
-0.000721863
0.0117223
-0.000540843
0.0114572
-0.000392628
0.010779
-0.000264119
0.00964029
-0.000151919
0.00806916
-6.55571e-05
0.0061212
-1.52939e-05
0.00385267
7.26198e-07
0.00134142
0.00453308
0.0100497
0.0047408
0.00997866
0.00447883
0.009751
0.00357846
0.00948471
0.0019884
0.00945188
8.84736e-05
0.0098912
-0.00134614
0.0106914
-0.00169262
0.0113963
-0.0013587
0.0117935
-0.00101064
0.011966
-0.000752882
0.0119343
-0.000548033
0.0116126
-0.00037867
0.0108935
-0.000238528
0.0097269
-0.000126891
0.00813049
-4.89867e-05
0.00615489
-8.54561e-06
0.00386195
1.88784e-06
0.00133953
0.00444417
0.0100609
0.00479699
0.00999355
0.00473525
0.00972224
0.00401875
0.00931071
0.00240651
0.0090666
9.6565e-05
0.00944379
-0.00190093
0.010446
-0.00237591
0.0113747
-0.00183537
0.011873
-0.00134311
0.012126
-0.00100944
0.0122225
-0.000748184
0.0121344
-0.000529698
0.0117636
-0.000350767
0.0110058
-0.000210451
0.00981046
-0.000104856
0.00818636
-3.62703e-05
0.00618262
-4.16554e-06
0.003868
2.52431e-06
0.00133701
0.00434174
0.0100784
0.00482788
0.01003
0.00498473
0.00974407
0.00454297
0.00919802
0.00307492
0.0086423
0.000354524
0.00880864
-0.00251756
0.0100604
-0.00323266
0.0113027
-0.00238754
0.0119269
-0.00171316
0.012243
-0.00129346
0.01241
-0.000978907
0.0124533
-0.000717567
0.0123223
-0.000497577
0.0119105
-0.000321577
0.0111169
-0.000184437
0.00989004
-8.65347e-05
0.00823663
-2.63195e-05
0.00620477
-2.03394e-07
0.00387073
3.25993e-06
0.00133375
0.00422388
0.0101009
0.00481869
0.0100876
0.00519662
0.00981812
0.00509692
0.00919012
0.00398649
0.00828645
0.00110993
0.0078869
-0.00309731
0.00938839
-0.00426619
0.011094
-0.00298301
0.0118982
-0.00209038
0.0123041
-0.00158151
0.0125311
-0.00122456
0.0126557
-0.000930682
0.0126664
-0.000676663
0.0125014
-0.000463161
0.012052
-0.000290667
0.0112231
-0.000160131
0.00996364
-7.0396e-05
0.0082807
-1.81188e-05
0.00622269
2.22697e-06
0.00387176
3.51956e-06
0.00133023
0.00409227
0.0101226
0.00476246
0.0101571
0.00533711
0.00994714
0.00561045
0.00930459
0.00503596
0.00814065
0.00266407
0.00673231
-0.00323076
0.00802035
-0.00533356
0.0104558
-0.00344589
0.0115568
-0.0023794
0.0121872
-0.00181971
0.0125423
-0.00144898
0.0127555
-0.00114728
0.0128723
-0.000878241
0.0128679
-0.000634732
0.012673
-0.000427131
0.0121885
-0.000261006
0.011324
-0.000139584
0.0100328
-5.72814e-05
0.00831987
-1.24295e-05
0.00623734
3.48111e-06
0.0038718
3.63255e-06
0.0013266
0.00394771
0.0101416
0.00465927
0.0102258
0.00538148
0.0101127
0.00600227
0.00955532
0.00610335
0.00823719
0.00458818
0.00317948
0.00303707
-0.000230202
0.00288652
-0.00143456
0.00227977
-0.0032598
0.00449698
-0.00236543
0.00381504
-0.0019021
0.0103074
-0.0013954
-0.00234248
0.0115199
-0.0018793
0.0122468
-0.00157961
0.0126729
-0.00132564
0.0129339
-0.00107441
0.0130685
-0.000823953
0.0130572
-0.000590905
0.0128367
-0.000392734
0.0123202
-0.000235963
0.0114204
-0.000122203
0.0100977
-4.78674e-05
0.0083553
-8.24336e-06
0.00624907
4.8268e-06
0.00387061
3.38683e-06
0.00132321
0.00379454
0.0101552
0.00451696
0.0102839
0.00532973
0.0102776
0.00620764
0.00990735
0.00697764
0.00868104
0.0067806
0.00299349
0.00305128
0.000577106
0.00237217
0.00152725
0.00208693
-0.00323188
0.0028586
-0.000719658
0.000874725
0.00078255
-0.00128168
-0.00113696
0.000571628
0.000894912
-0.00175908
0.00435396
-0.000995239
0.00127952
0.000888046
-0.000679152
-0.000648077
0.00323076
-0.000526726
-0.000922301
0.0095755
-0.000688302
-0.00099878
0.00395734
-0.00155642
0.011197
-0.00148768
0.0121549
-0.00138863
0.0127359
-0.00122567
0.0130851
-0.0010055
0.01325
-0.000766589
0.0132329
-0.000545958
0.01299
-0.000359061
0.0124433
-0.000213977
0.0115122
-0.000107298
0.0101572
-4.03716e-05
0.00838743
-5.97957e-06
0.00625987
4.81284e-06
0.00386918
3.42372e-06
0.00131979
0.003636
0.0101635
0.00434372
0.0103284
0.00519544
0.0104182
0.0062237
0.0102615
0.00745452
0.00943047
0.00863202
0.0032734
0.00355622
0.00259842
0.00192232
0.00355471
0.00105811
0.00103688
0.00043091
0.00039992
0.000536437
-0.00109997
0.000693013
-0.000868247
0.000550824
-0.000940725
0.000496777
0.0010684
-0.000496777
0.000968077
-0.000492532
0.00112398
0.000684439
-0.000288925
0.000288925
-0.000172081
0.00266972
-0.000265659
-0.000323859
0.000921109
0.00356788
-0.000532843
-0.000428399
0.00877781
-0.000330324
0.00323121
-0.000351628
-0.00106023
0.0107696
-0.00123016
0.0119964
-0.00125547
0.0127657
-0.00113604
0.0132157
-0.000930072
0.0134135
-0.000706968
0.0133939
-0.000501844
0.0131328
-0.000328332
0.0125577
-0.000193532
0.0115984
-9.63012e-05
0.0102131
-3.54415e-05
0.00841689
-4.09586e-06
0.00626878
4.92749e-06
0.00386768
2.98436e-06
0.00131681
0.00347404
0.010169
0.00414813
0.0103591
0.0050004
0.0105235
0.00609139
0.0105505
0.00754968
0.0101663
0.0095455
0.00407512
0.00444187
0.00462781
0.0022003
0.00543658
0.00274746
0.00103641
0.000270563
0.000251658
0.000794601
-0.00142085
0.00175985
0.000719103
0.000652435
0.000721711
-0.000321792
0.000389901
-0.000389901
0.00036058
-0.000771829
0.000653684
-5.39357e-05
0.00227578
-8.13665e-05
-5.75425e-05
-0.000116379
0.0030167
-0.000213886
-0.000215451
0.00811841
-0.000185385
0.00284275
-0.000156376
0.00200572
-3.80417e-05
-4.35239e-05
-0.000810339
0.0103498
-0.00109031
0.0118313
-0.00116034
0.01279
-0.00103842
0.013324
-0.000849351
0.0135559
-0.000647951
0.01354
-0.000460386
0.0132648
-0.000302804
0.012667
-0.000178186
0.0116803
-8.88896e-05
0.0102666
-3.15297e-05
0.00844433
-3.72962e-06
0.00627744
4.60725e-06
0.00386606
2.84605e-06
0.00131396
0.0033092
0.0101728
0.00393594
0.0103811
0.00476168
0.0105979
0.00585322
0.0107616
0.00736763
0.0107325
0.0096705
0.0100413
0.00604537
0.00346633
0.00646333
0.0040239
0.00492955
-0.0016124
0.000303398
0.000339603
0.00626635
0.000878429
0.000532225
-5.12293e-05
0.000200428
0.00117785
0.000269183
0.000284557
0.000244201
0.000591735
-1.94176e-05
0.000190266
0.000547337
-1.31444e-05
0.00184189
-2.68488e-05
-2.32003e-05
0.0027264
-9.91022e-05
-0.000138055
0.00759085
-0.000144724
0.00262118
-8.0168e-05
0.0017229
-1.8053e-05
-1.93336e-05
-0.000512733
0.000484162
-9.47071e-06
-8.91973e-06
-0.00072387
0.00998332
-0.00102953
0.0117005
-0.00104554
0.0127971
-0.000930975
0.0134057
-0.000766352
0.0136743
-0.000590934
0.0136705
-0.000425609
0.0133876
-0.00028192
0.0127707
-0.000166468
0.0117579
-8.27673e-05
0.0103178
-2.99199e-05
0.00847052
-3.68166e-06
0.00628573
3.95164e-06
0.00386495
2.29871e-06
0.00131166
0.00314166
0.0101755
0.00371367
0.0103951
0.00449353
0.0106493
0.00554342
0.0109077
0.00701686
0.0111124
0.00925785
0.0111452
-0.00756798
0.0140423
0.00469243
0.00533789
0.00707716
0.00126561
0.00138991
0.00189367
0.00163941
0.00105757
-0.000754168
0.00139717
-0.00192939
0.00280782
0.000469612
0.000170848
0.000157704
0.000463004
-5.69117e-06
0.000445079
-5.27499e-06
0.00164604
-1.17055e-05
-1.05408e-05
0.00254303
-5.99051e-05
-0.000121573
0.00714653
-0.000157972
0.00245789
-5.95751e-05
0.00158359
-8.77576e-06
-8.93978e-06
-0.000429891
0.00041638
-4.5418e-06
-4.14567e-06
-0.000148784
0.000139313
-0.000749495
0.00970329
-0.000934138
0.011589
-0.000914948
0.0127811
-0.000819107
0.0134584
-0.00068613
0.0137695
-0.000540184
0.0137851
-0.000395915
0.0135016
-0.000265534
0.0128698
-0.000157708
0.0118328
-7.88556e-05
0.0103667
-2.84878e-05
0.00849533
-3.92117e-06
0.0062936
3.15646e-06
0.00386409
2.12703e-06
0.00130953
0.00297426
0.0101754
0.00348558
0.0104036
0.00420498
0.0106837
0.00518952
0.0110032
0.00657278
0.0113517
0.00860813
0.0117621
0.0128371
0.0123503
0.00877189
-0.00416952
-0.00337148
0.00195774
0.0015038
0.0088295
0.00528028
0.00299854
0.0010749
0.00344554
0.000942909
-0.00391102
0.00163518
0.00117393
0.000133622
0.000128347
0.000407152
-2.47719e-06
0.000398884
-2.27297e-06
0.0015362
-6.09731e-06
-6.42141e-06
0.00239079
-5.44795e-05
-0.000162765
0.00680256
-0.00024276
0.00229967
-6.68485e-05
0.00148892
-6.51591e-06
-5.77436e-06
-0.000391786
0.000385049
-2.03909e-06
-1.84146e-06
-0.000124201
0.00011966
-0.000747474
0.00951662
-0.000786159
0.0114603
-0.000770406
0.0127324
-0.000713957
0.0134862
-0.000618987
0.0138483
-0.000501084
0.0138903
-0.000374635
0.0136107
-0.000254099
0.0129662
-0.000152077
0.011906
-7.55978e-05
0.0104138
-2.78325e-05
0.00851924
-4.42199e-06
0.00630118
2.56603e-06
0.00386365
1.7799e-06
0.00130775
0.00280665
0.0101766
0.00325281
0.0104082
0.0039054
0.0107032
0.00481112
0.0110621
0.006077
0.011499
0.00789753
0.0120623
0.0112369
0.0133624
-0.00682286
0.0159675
0.00546482
0.00657039
-0.00319174
0.00145543
-0.00295923
0.00312731
0.00178966
-0.00145543
-0.00178966
0.00182501
0.00154938
0.0010749
0.00201781
0.000117182
0.000114909
0.000380305
-1.35313e-06
0.000375017
-1.13333e-06
0.0014449
-4.6246e-06
-5.8348e-06
0.00222099
-8.40869e-05
-0.000292292
0.00662603
-0.000278658
0.00211573
-0.000137502
0.00138997
-7.24849e-06
-4.67084e-06
-0.000370487
0.000365441
-1.47002e-06
-1.24442e-06
-0.000113068
0.000111029
-0.000577031
0.0093075
-0.000614261
0.0113041
-0.000643459
0.0126619
-0.000628533
0.0134958
-0.000568592
0.0139158
-0.000473367
0.013989
-0.000359019
0.0137156
-0.000244271
0.0130583
-0.000145686
0.0119761
-7.20898e-05
0.0104581
-2.71299e-05
0.00854194
-5.45504e-06
0.0063092
1.67502e-06
0.00386376
1.63409e-06
0.00130612
0.00263925
0.0101764
0.00301961
0.0104098
0.0035988
0.0107148
0.00441728
0.0110971
0.00555703
0.011582
0.00717463
0.0122219
0.00973445
0.0135647
0.0143381
0.0149918
0.00503629
-0.00201344
-0.00136095
0.0019777
0.00182522
0.0058865
0.00572019
-0.00154938
0.00136095
0.000109676
0.000108543
0.000361872
-1.05531e-06
0.000357075
-1.03803e-06
0.00132118
-4.88197e-06
-1.0412e-05
0.00204267
-0.000219227
-0.000212496
0.00637982
-0.000118324
0.00198619
-0.000222174
0.00122041
-2.6479e-05
-1.02614e-05
-0.000353386
0.000347508
-1.36998e-06
-9.81819e-07
-0.000107298
0.000105828
-0.00038001
0.00907325
-0.000478642
0.0111393
-0.000547597
0.012581
-0.000567446
0.0134946
-0.000534954
0.0139774
-0.00045616
0.0140861
-0.00034946
0.0138208
-0.00023715
0.0131498
-0.000140787
0.0120448
-7.06587e-05
0.0105016
-2.73899e-05
0.00856388
-5.61701e-06
0.00631649
1.11275e-06
0.00386428
1.14522e-06
0.00130498
0.00247139
0.0101769
0.00278556
0.0104104
0.00329035
0.0107183
0.00401991
0.0111121
0.00503351
0.0116206
0.00645475
0.0123019
0.00846637
0.01349
0.0121267
0.0157762
-0.00412778
0.0118369
0.0131691
-0.00107945
0.0014754
0.00158174
0.00074577
-0.000982629
0.00405043
0.000104773
0.000103735
0.000343779
-1.15342e-06
0.000334971
-1.60372e-06
0.00112458
-4.07596e-05
-8.26287e-05
0.00189765
-0.000123957
-8.23393e-05
0.00612678
-4.46304e-05
0.00183434
-5.5017e-05
0.00104773
-6.54258e-05
-7.99007e-05
-0.000327008
0.000305739
-5.20983e-06
-2.29822e-06
-0.000102753
0.000101383
-0.000264045
0.00885865
-0.000389121
0.0109808
-0.000485692
0.0124992
-0.000532303
0.013492
-0.00051766
0.0140389
-0.000444448
0.0141811
-0.000337592
0.0139213
-0.00022783
0.0132369
-0.000134733
0.0121089
-6.81259e-05
0.0105424
-2.65775e-05
0.00858484
-6.76232e-06
0.00632437
2.65467e-07
0.00386516
8.71538e-07
0.0013041
0.00230528
0.0101771
0.00255378
0.0104087
0.00298381
0.010717
0.00362359
0.0111146
0.00451624
0.0116294
0.00575362
0.0123217
0.00740077
0.0133675
0.010107
0.0155097
0.0113856
0.0162275
-0.00200384
0.0070325
0.00954369
-0.00140322
-0.000427684
0.0010268
0.000318087
0.0027376
-0.000390105
-0.000300903
0.00010023
9.86259e-05
0.000277387
-1.24077e-05
0.000222341
-2.75829e-05
0.000955003
-2.45057e-05
-6.72645e-06
0.00177997
-2.79643e-05
-4.33705e-05
0.00593533
-2.92178e-05
0.00175169
-1.63537e-05
0.000903389
-6.3445e-07
-2.76905e-06
-0.000193568
0.000128142
-5.11273e-05
-9.63276e-05
9.11178e-05
-0.000204871
0.0086744
-0.000337421
0.0108325
-0.000455446
0.0124224
-0.000521808
0.0134961
-0.000511071
0.0141055
-0.000433107
0.0142766
-0.00032353
0.014017
-0.000216732
0.0133189
-0.000127476
0.0121682
-6.4716e-05
0.0105805
-2.7212e-05
0.00860529
-7.66467e-06
0.0063323
-8.42617e-07
0.00386688
8.01496e-07
0.0013033
0.00213912
0.0101772
0.00232302
0.0104079
0.00267784
0.0107146
0.00322954
0.011111
0.00400908
0.0116217
0.00508183
0.0123012
0.0064677
0.0132548
0.00847333
0.0150011
0.0100227
0.0168725
0.00846326
0.0147968
0.00349003
0.00675265
-0.000266375
-0.000432621
0.00167241
-0.000160661
-0.000177374
-0.000122806
0.0007595
0.00019528
0.000534737
-7.61408e-05
7.87102e-05
5.11273e-05
0.000103636
9.69099e-05
0.000876881
-1.03188e-06
-4.24076e-07
0.00172145
-1.31279e-05
-3.18642e-05
0.00578968
-2.73584e-05
0.00170277
-1.05428e-05
0.00086158
-3.49834e-07
-7.02292e-07
-9.41409e-05
9.35065e-05
-0.000171937
0.00850892
-0.000316803
0.0106939
-0.000454837
0.0123554
-0.000526798
0.0135119
-0.00050243
0.0141748
-0.000414741
0.0143679
-0.000305693
0.0141059
-0.00020373
0.0133951
-0.000121479
0.012225
-6.28972e-05
0.0106162
-2.74502e-05
0.00862508
-8.61882e-06
0.00634008
-1.25934e-06
0.00386894
1.81667e-07
0.00130312
0.00197511
0.010177
0.00209489
0.0104053
0.00237759
0.0107081
0.00284261
0.0111016
0.00351671
0.0116034
0.00444271
0.0122609
0.00562264
0.0131463
0.00717418
0.0145539
0.00855309
0.0164708
0.0083397
0.0169961
0.0055747
0.0127121
0.00148553
0.00515751
4.78643e-05
6.17502e-05
-0.0013001
0.00106978
-9.38721e-06
-2.66621e-05
-2.48064e-05
-3.55055e-05
-0.000396542
0.000274809
-3.89279e-05
-3.91782e-05
0.000119139
9.24746e-05
9.20505e-05
0.000849396
-5.63946e-07
-3.80511e-07
0.00168165
-1.07387e-05
-2.48846e-05
0.00566324
-2.06193e-05
0.00166597
-1.16797e-05
0.000839687
-3.44262e-07
-4.88715e-07
-9.13483e-05
9.09984e-05
-0.000160509
0.00835262
-0.000330264
0.0105693
-0.000482016
0.0123106
-0.000533177
0.0135426
-0.00048283
0.0142429
-0.000388624
0.0144508
-0.000286371
0.0141886
-0.000190611
0.0134642
-0.000115277
0.0122774
-6.22766e-05
0.010651
-2.78535e-05
0.00864431
-1.04717e-05
0.00634929
-2.62645e-06
0.00387174
1.70892e-07
0.00130295
0.00181147
0.0101766
0.00186997
0.0104019
0.0020797
0.0107032
0.00246141
0.0110893
0.00303807
0.0115802
0.00383478
0.0122113
0.00484734
0.0130362
0.00610156
0.0142189
0.00725992
0.0158471
0.00753571
0.0172748
0.00634333
0.0162274
0.00343446
0.0107632
0.000711038
0.00448437
-3.94751e-05
1.5766e-06
-0.00102048
0.000998934
2.18713e-05
4.75384e-05
6.1309e-05
4.97397e-05
-0.000195127
0.000187068
-1.32845e-06
-0.000215282
-6.50765e-06
-0.000236033
-4.05493e-06
3.27e-06
-7.99613e-05
4.10334e-05
9.04345e-05
9.0054e-05
0.000829873
-4.71753e-07
-4.53282e-07
0.00165078
-9.69109e-06
-1.77295e-05
0.00554077
-2.03037e-05
0.00163528
1.72222e-06
-6.84348e-06
0.000819175
-4.82709e-07
-4.98691e-07
-8.95653e-05
8.9221e-05
-0.000177074
0.00819943
-0.00037928
0.0104666
-0.00051791
0.0122954
-0.000515112
0.0135749
-0.000448701
0.014303
-0.000357283
0.0145217
-0.000262398
0.0142604
-0.000178066
0.013527
-0.000110828
0.0123259
-6.14875e-05
0.0106846
-3.04445e-05
0.00866428
-1.24876e-05
0.00635915
-3.25924e-06
0.00387518
-4.02336e-07
0.00130335
0.00165051
0.010175
0.00164888
0.0103977
0.00178785
0.0106938
0.00208809
0.0110765
0.00257075
0.0115566
0.00325468
0.0121603
0.00412862
0.01293
0.00517658
0.0139611
0.00616778
0.015311
0.00658897
0.0167938
0.00618401
0.0174341
0.00460954
0.0150523
0.00208138
0.00939283
0.000315672
0.00414425
3.4261e-05
-9.81284e-06
-0.000985993
0.00097738
-3.08621e-05
-1.97046e-06
1.6488e-05
-0.000243143
0.000251466
1.3548e-05
-0.000224342
2.87367e-05
-0.000203453
4.04203e-05
3.33552e-05
-3.37408e-05
3.24123e-05
-4.02485e-05
-4.43034e-05
8.87493e-05
8.8296e-05
0.000474669
-2.70907e-07
-2.46256e-07
0.000335332
0.00162427
-4.20861e-06
-2.51231e-06
-1.55669e-05
0.0054064
-2.7141e-05
0.00160859
-2.01267e-06
-2.61306e-06
0.000505229
-2.88384e-05
0.000506811
-8.42501e-06
-8.77973e-05
8.73146e-05
-0.000236652
0.00805681
-0.0004626
0.0104113
-0.000510028
0.0122903
-0.000471519
0.0135977
-0.000403375
0.0143491
-0.000322512
0.0145818
-0.000242347
0.0143246
-0.00016862
0.0135848
-0.000109064
0.0123735
-6.35372e-05
0.0107177
-3.26717e-05
0.00868447
-1.40918e-05
0.00636998
-4.19438e-06
0.00387897
-4.72728e-07
0.00130383
0.0014906
0.0101749
0.00143146
0.0103924
0.00150069
0.0106849
0.00171946
0.0110624
0.00211407
0.0115332
0.00269714
0.0121142
0.00345547
0.0128335
0.00435375
0.0137529
0.00522287
0.014906
0.00569592
0.0162041
0.00561989
0.017358
0.00490502
0.0171386
0.00325024
0.0138835
0.00123732
0.00847118
0.000105223
0.00393588
4.12293e-05
6.19174e-05
-0.000958482
0.000947059
4.56828e-05
9.08477e-06
-0.000234244
0.000355346
-1.492e-06
-0.000149498
-9.74458e-07
-0.00025485
1.86357e-05
1.3104e-05
-0.000110202
0.000120909
2.84036e-06
-8.91408e-05
7.67581e-06
-6.57675e-05
1.7047e-05
8.70437e-05
8.67975e-05
0.000304703
1.79116e-06
0.000505388
-2.78581e-06
0.00050426
-1.38388e-06
0.00159789
-1.8311e-06
-3.03376e-06
-2.26177e-05
0.00524356
-5.1195e-05
0.00157722
-2.33608e-06
-4.13345e-06
0.000503206
-9.59191e-07
0.000501186
-5.92819e-07
0.00029834
-2.06182e-06
-0.0003611
0.00795531
-0.000481891
0.0103831
-0.000456879
0.0122756
-0.000409785
0.0136041
-0.000354782
0.0143813
-0.000292334
0.0146318
-0.000225545
0.0143816
-0.000164182
0.0136399
-0.00010905
0.012419
-6.63045e-05
0.0107514
-3.54954e-05
0.00870587
-1.58466e-05
0.00638164
-5.2977e-06
0.00388379
-9.23591e-07
0.00130475
0.00133226
0.0101733
0.00122083
0.0103855
0.00122028
0.0106728
0.00135867
0.0110457
0.00166607
0.0115104
0.00215659
0.0120737
0.00281705
0.0127526
0.00360198
0.0135852
0.00438214
0.0145936
0.00488748
0.0157145
0.00496747
0.0168565
0.0046687
0.0175943
0.00379122
0.0165976
0.00224181
0.012879
0.000730079
0.00784633
3.23956e-05
0.00385383
2.32625e-05
2.63873e-05
-0.000937913
0.000944513
3.46295e-05
7.10632e-05
-0.000362695
0.000384805
1.78577e-05
5.71517e-06
-8.02835e-08
1.81601e-06
-2.97391e-05
2.82471e-05
-0.000130273
-5.89644e-07
-3.07136e-05
3.74011e-06
-2.47228e-05
2.75631e-05
-1.7047e-05
8.85886e-05
0.000296512
-9.58371e-07
0.000295414
-2.85168e-07
0.000500059
-7.03752e-07
0.000498259
-1.2345e-06
0.0015613
-2.01633e-06
-4.68258e-06
-6.48876e-05
0.00508692
-0.00013957
0.0015223
-3.66022e-06
-8.53841e-06
0.000497178
-1.25473e-06
0.000494094
-1.04915e-06
0.000294641
-1.86441e-07
0.000294115
-6.69334e-08
8.65268e-05
-0.000447371
0.00792079
-0.000406521
0.0103328
-0.000372195
0.012238
-0.000346071
0.0135954
-0.000311449
0.0144005
-0.000267354
0.0146736
-0.000216172
0.0144335
-0.000162497
0.0136934
-0.000112955
0.0124657
-7.05424e-05
0.0107864
-3.86404e-05
0.00872867
-1.75341e-05
0.00639387
-6.20139e-06
0.00388907
-8.94932e-07
0.00130565
0.00117863
0.0101691
0.00101647
0.0103777
0.000947135
0.0106587
0.00100514
0.0110263
0.00122501
0.0114867
0.00162654
0.0120405
0.00220313
0.0126876
0.00290151
0.0134531
0.0036165
0.0143509
0.00414386
0.0153372
0.00433146
0.0163505
0.00422285
0.0173023
0.00379992
0.0175856
0.00287028
0.0159692
0.00154144
0.0120676
0.000436258
0.00744246
-4.98751e-05
0.00378459
6.93313e-05
4.97877e-05
-0.000953587
0.000964384
1.24652e-05
1.73131e-05
-0.000408973
0.000433238
9.97155e-07
9.36627e-06
2.57958e-05
2.1099e-05
-3.56979e-05
5.35555e-05
-2.99828e-05
2.81668e-05
-3.13033e-05
8.55684e-05
8.52833e-05
0.000293576
-1.64518e-07
0.000292537
-1.95631e-07
0.000493117
-1.03993e-06
0.000490113
-1.67844e-06
0.00148127
-6.81208e-06
-1.70416e-05
-0.000202374
0.00504438
-0.000202459
0.00140524
-2.03966e-05
-4.31457e-05
0.000488313
-1.86042e-06
0.00048226
-2.48462e-06
0.000291519
-2.36189e-07
0.000290716
-2.46928e-07
8.50968e-05
8.50299e-05
-0.000324514
0.00783878
-0.000292619
0.0102532
-0.000293893
0.0121859
-0.000291991
0.0135759
-0.000279638
0.0144127
-0.00025257
0.01471
-0.000213628
0.0144847
-0.00016696
0.0137474
-0.000117294
0.0125124
-7.38862e-05
0.0108217
-3.98452e-05
0.00875098
-1.82732e-05
0.00640594
-6.39868e-06
0.00389457
-1.26653e-06
0.00130691
0.00102782
0.0101653
0.000820385
0.0103652
0.000685548
0.0106393
0.000659037
0.0110048
0.000788526
0.0114628
0.00110408
0.0120092
0.00160413
0.0126395
0.0022366
0.0133526
0.002907
0.0141626
0.00344859
0.0150461
0.00372443
0.0159442
0.00373405
0.0168393
0.00353361
0.0175686
0.00304555
0.0174103
0.00215677
0.0153538
0.00106194
0.011442
0.00024277
0.00714982
-7.88484e-05
0.00374651
4.58671e-05
7.1059e-05
-0.000971993
0.000977538
6.37861e-05
4.21779e-05
-0.000448865
0.000461605
7.15704e-07
-9.90903e-07
1.83252e-06
-1.45549e-07
-8.84686e-05
8.96467e-05
-1.81099e-07
-8.09195e-05
1.81711e-06
6.6181e-05
1.31702e-05
6.36054e-06
8.48654e-05
8.46698e-05
0.000289859
-1.82388e-07
0.000288495
-3.14097e-07
0.000478863
-3.4154e-06
0.000468346
-6.52475e-06
0.0013584
-5.8015e-05
-9.75195e-05
-0.000134117
0.00490844
-5.44567e-05
0.00131696
-8.7457e-05
-7.35613e-05
0.000458256
-1.03062e-05
0.000434821
-1.9711e-05
0.00028696
-3.26191e-07
0.000284879
-4.03765e-07
8.44336e-05
8.41867e-05
-0.000175193
0.00772136
-0.000205146
0.0101645
-0.000234753
0.0121286
-0.000255594
0.0135519
-0.000261059
0.0144212
-0.00024956
0.0147459
-0.000217904
0.0145356
-0.00017232
0.0138024
-0.000121578
0.0125601
-7.65335e-05
0.0108584
-4.2423e-05
0.00877513
-1.97311e-05
0.00641928
-7.01091e-06
0.00390032
-1.05228e-06
0.00130797
0.000882061
0.0101581
0.000636456
0.0103492
0.000435695
0.0106151
0.000323732
0.0109746
0.000357302
0.011436
0.000582399
0.0119845
0.00100988
0.0126034
0.00159127
0.0132848
0.00223186
0.0140277
0.00278954
0.0148216
0.00313963
0.0156309
0.00325032
0.016428
0.00317118
0.0172017
0.00291956
0.0176946
0.00241954
0.0171476
0.00161727
0.0147985
0.000731017
0.0109537
0.00013138
0.00693959
-7.08171e-05
0.00376978
1.42027e-05
3.33473e-05
-0.000985238
0.000997015
3.40899e-05
6.33588e-05
-0.0004838
0.000498667
2.63936e-05
2.25256e-05
5.93415e-06
1.40481e-05
-9.03086e-05
9.12973e-05
-2.7308e-07
-9.0979e-05
-3.206e-07
9.0881e-05
5.9816e-07
-2.43533e-07
-2.13478e-05
2.11667e-05
-1.95307e-05
1.31702e-05
8.40043e-05
8.36902e-05
0.00028201
-5.45757e-07
0.000276511
-1.02603e-06
0.000413345
-3.65385e-05
0.00037903
-6.32044e-05
0.00124781
-4.5234e-05
-1.97341e-05
-3.22975e-05
0.004774
-8.44945e-06
0.0012076
-1.10221e-05
-3.21684e-06
0.000356836
-6.5263e-05
0.000333833
-5.05588e-05
0.000268047
-1.84238e-06
0.00025233
-3.99331e-06
8.3364e-05
8.29603e-05
-0.00010127
0.00761748
-0.000152586
0.0100823
-0.00019754
0.0120706
-0.000235391
0.0135262
-0.000255803
0.0144275
-0.000253238
0.0147813
-0.000225877
0.0145892
-0.000178605
0.0138594
-0.000126568
0.0126102
-7.82697e-05
0.0108942
-4.31105e-05
0.00879851
-1.95466e-05
0.00643181
-6.68636e-06
0.00390595
-1.14785e-06
0.00130911
0.000742298
0.0101484
0.000466742
0.0103278
0.00020396
0.010581
1.80189e-06
0.010937
-6.90179e-05
0.0114009
5.95136e-05
0.0119589
0.00041361
0.0125808
0.000952271
0.0132424
0.0015798
0.0139368
0.00215993
0.0146573
0.00257088
0.0153904
0.00277232
0.0161089
0.0027865
0.0168126
0.00266284
0.0174584
0.00239598
0.0177182
0.00191618
0.0168486
0.00121559
0.0143139
0.000509432
0.0105757
6.63947e-05
0.00680238
-9.51711e-05
8.38608e-05
0.00378108
-0.00100215
0.000951851
6.45039e-05
2.82094e-05
-0.000517603
0.000538236
3.7537e-06
9.70281e-06
2.84682e-05
1.59547e-05
-0.000111739
0.000119856
1.8277e-05
-0.000103645
1.44316e-05
9.50845e-05
2.14684e-06
5.48706e-06
-2.12007e-05
2.09276e-05
-2.15213e-05
2.17649e-05
8.24145e-05
8.13885e-05
0.000226107
-1.03158e-05
0.000185485
-2.25821e-05
0.000309324
-2.07251e-05
0.000296559
-6.9685e-06
0.00117933
-3.36015e-06
-6.70018e-07
-1.23016e-05
0.00468892
-3.88804e-06
0.00117166
-9.66365e-07
1.89018e-07
0.000287946
-2.40987e-06
0.000285427
-6.97039e-07
0.000162877
-4.26549e-05
0.000112318
7.95461e-05
7.55528e-05
-6.8654e-05
0.00753355
-0.000122599
0.0100074
-0.000178963
0.0120141
-0.000229704
0.0135001
-0.000264448
0.0144387
-0.000267826
0.0148232
-0.000237621
0.0146482
-0.00018525
0.0139181
-0.000128262
0.0126601
-7.86349e-05
0.0109297
-4.18856e-05
0.00882085
-1.9311e-05
0.00644444
-6.35281e-06
0.00391116
-1.03614e-06
0.00131015
0.000609809
0.0101357
0.000315338
0.0102998
-4.89796e-06
0.0105366
-0.000301298
0.0108841
-0.000486312
0.0113543
-0.000470394
0.0119308
-0.00019576
0.0125683
0.000306185
0.0132268
0.000935591
0.0138866
0.00154663
0.0145501
0.00201675
0.0152114
0.00229922
0.0158635
0.00240041
0.016495
0.00236289
0.0171126
0.00221996
0.0176345
0.00196122
0.0176732
0.0015188
0.0165454
0.00091962
0.0139037
0.000358112
0.0102839
1.13219e-05
0.00669588
-0.000633242
0.00160267
4.75204e-05
1.87676e-05
-0.000117014
0.000122674
0.00377542
-0.000559094
-9.64476e-06
6.15329e-06
1.19786e-06
-0.000143536
0.000145628
1.66142e-06
-0.000137896
4.06321e-06
0.000130877
1.74467e-05
8.93551e-06
-4.29931e-05
5.1015e-05
1.02551e-05
-2.85615e-05
2.30744e-05
6.5237e-05
4.26549e-05
9.15928e-05
8.46243e-05
0.000282465
-3.98624e-07
0.000282031
-2.35516e-07
0.00116083
-1.10095e-06
-3.79125e-07
-8.14692e-06
0.00463219
-3.77541e-06
0.00115771
-6.3592e-07
-1.30949e-07
0.00028121
-1.45972e-07
0.000281271
1.28364e-07
8.22144e-05
8.15174e-05
-5.34282e-05
0.00746438
-0.0001081
0.0099365
-0.000174733
0.0119592
-0.000240909
0.0134766
-0.000282775
0.0144536
-0.00028377
0.0148694
-0.000246077
0.014709
-0.000186943
0.0139768
-0.000126308
0.0127078
-7.66067e-05
0.0109644
-4.13792e-05
0.00884291
-1.86858e-05
0.00645677
-6.19383e-06
0.00391632
-8.99833e-07
0.00131105
0.000485957
0.0101201
0.000186504
0.0102645
-0.000183418
0.0104783
-0.000575965
0.0108113
-0.000890896
0.0112887
-0.00100764
0.0118915
-0.000824762
0.0125598
-0.000359913
0.0132344
0.000287915
0.0138745
0.000942844
0.0144904
0.00147263
0.0150943
0.00182922
0.0156814
0.00201096
0.0162529
0.00205223
0.0168057
0.00198767
0.0173449
0.00184816
0.0177475
0.00160561
0.0175864
0.00120829
0.0162568
0.000702937
0.0135589
0.000245833
0.0100494
-2.7752e-05
0.00660662
0.00163458
3.31021e-05
5.7659e-05
-0.000235052
0.000264161
1.34685e-05
4.9425e-06
-0.000218306
1.68203e-06
3.39565e-07
-0.000104036
7.80883e-05
0.00380137
-0.000137562
-2.62408e-07
-3.05185e-07
-8.98216e-05
0.000147264
4.5178e-06
1.08995e-05
-7.35422e-05
7.50984e-05
1.05184e-07
-7.01314e-05
6.52328e-07
6.31514e-05
5.31021e-06
1.95548e-06
1.02551e-05
8.11188e-05
8.08833e-05
0.000280219
-4.91619e-08
0.000280022
-1.81652e-07
0.00115084
-8.22679e-07
-4.53504e-07
-5.94461e-06
0.00458853
-3.82661e-06
0.00114797