/*--------------------------------*- C++ -*----------------------------------*\
| =========                 |                                                 |
| \\      /  F ield         | OpenFOAM: The Open Source CFD Toolbox           |
|  \\    /   O peration     | Version:  v1912                                 |
|   \\  /    A nd           | Website:  www.openfoam.com                      |
|    \\/     M anipulation  |                                                 |
\*---------------------------------------------------------------------------*/
FoamFile
{
    version     2.0;
    format      ascii;
    class       volScalarField;
    location    "40";
    object      p;
}
// * * * * * * * * * * * * * * * * * * * * * * * * * * * * * * * * * * * * * //

dimensions      [0 2 -2 0 0 0 0];


internalField   nonuniform List<scalar> 
3673
(
-0.0170665
-0.0170693
-0.0162593
-0.0173336
-0.0162801
-0.0154833
-0.0178691
-0.0165525
-0.0155197
-0.014752
-0.0184809
-0.0170869
-0.0157968
-0.0148049
-0.0140777
-0.0189744
-0.0176977
-0.0163174
-0.0150785
-0.0141441
-0.0134738
-0.0192629
-0.0181982
-0.0169049
-0.0155715
-0.0144219
-0.0135541
-0.0129301
-0.019396
-0.0184981
-0.0173862
-0.0161217
-0.0148935
-0.0138395
-0.0130223
-0.012439
-0.0194997
-0.0186357
-0.0176785
-0.0165653
-0.0153922
-0.0142894
-0.0133168
-0.0125377
-0.0119895
-0.0196922
-0.0187254
-0.017812
-0.0168302
-0.015782
-0.014744
-0.0137609
-0.012847
-0.0120923
-0.0115599
-0.0200387
-0.0188944
-0.017895
-0.0169576
-0.0160167
-0.0150827
-0.0141889
-0.0133005
-0.0124112
-0.0116568
-0.0111429
-0.0205216
-0.0192189
-0.018046
-0.0170456
-0.016138
-0.0152778
-0.0144882
-0.0137214
-0.0128817
-0.0119831
-0.0112275
-0.0107248
-0.0210319
-0.0197118
-0.0183315
-0.0171942
-0.0162446
-0.0153956
-0.014655
-0.0140055
-0.0133222
-0.0124807
-0.0115496
-0.010793
-0.0103051
-0.0214361
-0.0203062
-0.0187587
-0.017465
-0.0164321
-0.0155346
-0.0147664
-0.0141569
-0.0136136
-0.0129511
-0.0120599
-0.0111026
-0.0103525
-0.00986863
-0.0208381
-0.0217243
-0.021997
-0.0193088
-0.0178377
-0.016748
-0.0157761
-0.0149279
-0.0142676
-0.013767
-0.0132733
-0.0125706
-0.0116245
-0.010645
-0.00990124
-0.00941766
-0.0198847
-0.0211309
-0.0211684
-0.0219304
-0.0224163
-0.0226695
-0.0182546
-0.0171754
-0.01616
-0.0152162
-0.0144463
-0.0138862
-0.0134573
-0.0129446
-0.0121683
-0.0111607
-0.0101755
-0.00944173
-0.00894891
-0.0186925
-0.0197608
-0.0205542
-0.0213421
-0.0213697
-0.0221644
-0.022291
-0.0228354
-0.0229953
-0.0226968
-0.017638
-0.016658
-0.0156474
-0.0147607
-0.0140793
-0.0135982
-0.0131707
-0.0125877
-0.0117241
-0.0106811
-0.00970095
-0.00896636
-0.0084663
-0.018101
-0.0190096
-0.0192611
-0.0199288
-0.0211861
-0.0215199
-0.0211153
-0.0216596
-0.021577
-0.0223111
-0.0225669
-0.0232382
-0.0231125
-0.0233831
-0.0228844
-0.0171869
-0.0161784
-0.0152155
-0.0144092
-0.0138046
-0.0133425
-0.012863
-0.0121883
-0.0112573
-0.0101941
-0.00921761
-0.00848043
-0.00797734
-0.0176675
-0.0184644
-0.0187391
-0.0193298
-0.0195122
-0.0199481
-0.0201677
-0.0220371
-0.0207001
-0.0201788
-0.0210505
-0.021936
-0.0215997
-0.02244
-0.0227108
-0.0234368
-0.0232769
-0.0236591
-0.0230015
-0.0167299
-0.0157585
-0.0148703
-0.0141349
-0.0135657
-0.0130754
-0.0125164
-0.0117514
-0.0107709
-0.00970755
-0.00872472
-0.00798712
-0.00749269
-0.0172128
-0.0179655
-0.0182092
-0.0187697
-0.0190627
-0.0195116
-0.0196668
-0.0198941
-0.0197583
-0.0200963
-0.0199673
-0.0234806
-0.0192961
-0.0205564
-0.021486
-0.0221236
-0.021766
-0.0235635
-0.0238204
-0.0163028
-0.0154029
-0.0145835
-0.0138955
-0.0133195
-0.0127711
-0.0121234
-0.0112904
-0.0102838
-0.00920192
-0.00822315
-0.00749702
-0.00702864
-0.016772
-0.0174937
-0.017707
-0.0182433
-0.0185059
-0.018929
-0.0190585
-0.0193605
-0.0192266
-0.0196556
-0.0197966
-0.0200521
-0.0199349
-0.0261376
-0.0159222
-0.0150903
-0.0143195
-0.0136448
-0.0130393
-0.0124202
-0.0116961
-0.0108104
-0.00977338
-0.00869272
-0.00772302
-0.00702738
-0.00659071
-0.0163654
-0.0170429
-0.0172379
-0.0177523
-0.0179973
-0.0183983
-0.0185056
-0.0187776
-0.0186674
-0.0190623
-0.0191913
-0.0195089
-0.019357
-0.0155704
-0.0147835
-0.0140461
-0.0133682
-0.0127168
-0.0120291
-0.0112393
-0.0103077
-0.00925746
-0.0081765
-0.00723696
-0.00658378
-0.00618786
-0.0159783
-0.0166204
-0.0167999
-0.0172845
-0.0175137
-0.0179004
-0.0179956
-0.0182498
-0.0181536
-0.0185233
-0.0186342
-0.0189221
-0.0187865
-0.0152229
-0.0144782
-0.0137556
-0.0130551
-0.0123549
-0.0116052
-0.0107577
-0.00979217
-0.00873041
-0.00767636
-0.00678568
-0.00617761
-0.00580383
-0.0156017
-0.0162214
-0.0163822
-0.0168471
-0.0170631
-0.0174286
-0.0175171
-0.0177554
-0.0176678
-0.0180184
-0.0181207
-0.0183889
-0.0182657
-0.0148873
-0.0141606
-0.0134361
-0.0127125
-0.0119621
-0.0111529
-0.0102575
-0.00926752
-0.00822113
-0.00721138
-0.00637545
-0.00579854
-0.00543819
-0.0152435
-0.0158369
-0.0159884
-0.0164354
-0.0166368
-0.0169885
-0.0170695
-0.0172924
-0.0172115
-0.0175421
-0.0176406
-0.0178905
-0.0177721
-0.0145461
-0.0138305
-0.0130985
-0.0123385
-0.0115415
-0.0106808
-0.00974705
-0.00875371
-0.0077394
-0.00679045
-0.00599998
-0.00543066
-0.00507043
-0.0148922
-0.0154757
-0.015617
-0.016049
-0.0162379
-0.0165783
-0.0166485
-0.0168581
-0.0167861
-0.0170991
-0.0171895
-0.017423
-0.0173122
-0.0142088
-0.0134932
-0.0127404
-0.0119522
-0.011109
-0.0102006
-0.00924402
-0.00826962
-0.00731226
-0.0064159
-0.00564066
-0.00506406
-0.00470565
-0.0145541
-0.0151301
-0.015261
-0.0156868
-0.0158629
-0.0161941
-0.0162612
-0.0164555
-0.0163898
-0.016691
-0.016765
-0.0169872
-0.016885
-0.0138719
-0.0131494
-0.0123808
-0.0115582
-0.0106718
-0.00973062
-0.00877333
-0.00783835
-0.00693474
-0.00606832
-0.00528292
-0.0046965
-0.00432467
-0.0142248
-0.0148005
-0.0149215
-0.015343
-0.0155091
-0.0158344
-0.0158996
-0.0160815
-0.0160127
-0.0163069
-0.0163778
-0.0165812
-0.016491
-0.0135395
-0.0128057
-0.0120159
-0.0111687
-0.0102481
-0.00928869
-0.00834864
-0.00745801
-0.00659319
-0.00572003
-0.00491006
-0.0043025
-0.0039381
-0.0139013
-0.0144824
-0.0145941
-0.0150154
-0.0151727
-0.0154933
-0.0155556
-0.0157278
-0.0156638
-0.0159431
-0.0160217
-0.0162055
-0.0161159
-0.0132071
-0.0124641
-0.0116703
-0.0107974
-0.00984927
-0.00888176
-0.00796897
-0.00711428
-0.00624891
-0.00535125
-0.00450437
-0.00390409
-0.00354724
-0.0135785
-0.0141734
-0.014272
-0.0146982
-0.0148497
-0.0151679
-0.0152268
-0.0153929
-0.0153301
-0.0156024
-0.015678
-0.0158539
-0.0157683
-0.0128813
-0.0121432
-0.0113437
-0.0104485
-0.0094726
-0.00850503
-0.0076174
-0.00677159
-0.00588274
-0.00493871
-0.00408847
-0.00349586
-0.00316121
-0.0132608
-0.0138627
-0.0139555
-0.0143891
-0.0145349
-0.0148517
-0.0149072
-0.0150687
-0.0150115
-0.0152775
-0.015349
-0.0155197
-0.0154349
-0.0125624
-0.0118386
-0.0110426
-0.0101105
-0.00910288
-0.00814384
-0.00726568
-0.00640083
-0.00547024
-0.00450018
-0.00364953
-0.00309733
-0.00279355
-0.0129362
-0.0135478
-0.0136388
-0.0140814
-0.0142207
-0.0145427
-0.0146004
-0.0147556
-0.0146949
-0.0149607
-0.0150286
-0.0151945
-0.0151176
-0.0122551
-0.011572
-0.0107483
-0.00974975
-0.00872589
-0.00777347
-0.00688396
-0.00598271
-0.00501137
-0.00403088
-0.00321988
-0.00271928
-0.00245793
-0.0126168
-0.0132322
-0.0133181
-0.0137685
-0.0139074
-0.0142352
-0.014291
-0.0144458
-0.0143845
-0.0146527
-0.014728
-0.0148839
-0.0147908
-0.0119843
-0.0113173
-0.0104013
-0.00935095
-0.00832685
-0.00737567
-0.00645768
-0.0055109
-0.00451954
-0.00356859
-0.00282206
-0.00237739
-0.00214244
-0.0123041
-0.012918
-0.0129921
-0.0134484
-0.0135917
-0.0139265
-0.0139774
-0.0141326
-0.0140782
-0.0143459
-0.0144193
-0.0145751
-0.0144821
-0.0117433
-0.0110119
-0.00996949
-0.00890708
-0.00790694
-0.00693672
-0.00597974
-0.00501595
-0.00403715
-0.00314031
-0.00245781
-0.00205793
-0.00184491
-0.0120013
-0.0126071
-0.0126569
-0.0131307
-0.0132699
-0.0136096
-0.0136616
-0.0138213
-0.0137644
-0.0140404
-0.0141065
-0.0142622
-0.0141806
-0.0115406
-0.0105435
-0.00945806
-0.00845957
-0.0074586
-0.00646415
-0.00549142
-0.00452292
-0.00358767
-0.00276243
-0.00213852
-0.00175256
-0.00154114
-0.0118711
-0.0122764
-0.0123091
-0.0128001
-0.0129374
-0.0132849
-0.0133333
-0.013499
-0.0134444
-0.013724
-0.0137949
-0.0139554
-0.0138678
-0.0110986
-0.00991726
-0.00898953
-0.0080206
-0.00699663
-0.00598133
-0.00500864
-0.00408174
-0.00320082
-0.0024219
-0.00180739
-0.00144358
-0.00123449
-0.0116339
-0.0121303
-0.011965
-0.0124159
-0.0125886
-0.0129548
-0.0129933
-0.0131606
-0.0131168
-0.0133925
-0.0134645
-0.0136362
-0.0135483
-0.0102651
-0.00944044
-0.00856879
-0.00756578
-0.00653153
-0.0055325
-0.00458301
-0.00368181
-0.00284261
-0.00208989
-0.00150168
-0.00112855
-0.000908607
-0.0105546
-0.0115293
-0.0121694
-0.0119425
-0.012091
-0.0125888
-0.0126057
-0.012811
-0.0127716
-0.0130491
-0.0131201
-0.0133001
-0.0132079
-0.00978653
-0.00906249
-0.00813958
-0.00713487
-0.00611217
-0.00511734
-0.00418846
-0.00332722
-0.00250902
-0.00176247
-0.00115934
-0.000803301
-0.00058146
-0.0101012
-0.0107592
-0.0108991
-0.0117079
-0.0129333
-0.0117713
-0.0119507
-0.0123402
-0.0123292
-0.0126663
-0.012737
-0.0129369
-0.0128507
-0.00948497
-0.00867402
-0.00773531
-0.0067291
-0.00571777
-0.00475286
-0.00384444
-0.00298299
-0.0021661
-0.00141604
-0.000836272
-0.00047042
-0.000223411
-0.00983697
-0.0104277
-0.0106165
-0.0109823
-0.011007
-0.0113074
-0.0107204
-0.0111834
-0.0138428
-0.011958
-0.0122162
-0.0125079
-0.0124246
-0.00913053
-0.00827899
-0.00735037
-0.00637219
-0.00537913
-0.00440704
-0.00349764
-0.00264291
-0.00181661
-0.00106226
-0.000478629
-0.000121782
0.000138138
-0.00950291
-0.0100773
-0.0102473
-0.010644
-0.0108435
-0.0111143
-0.0112154
-0.0112646
-0.0112411
-0.0115801
-0.0162361
-0.00875896
-0.00793112
-0.00702047
-0.00604044
-0.00504357
-0.0040764
-0.00315539
-0.00227458
-0.00143851
-0.000704666
-0.000135718
0.000226704
0.00051345
-0.0091652
-0.00973442
-0.00988755
-0.0102819
-0.010455
-0.0107261
-0.0107984
-0.0109981
-0.0109214
-0.00843041
-0.00760969
-0.00670157
-0.00573021
-0.00472319
-0.00372377
-0.00278023
-0.001898
-0.0010714
-0.0003377
0.000212264
0.000585021
0.000897021
-0.00885266
-0.0094257
-0.00955813
-0.00994979
-0.0101096
-0.0103698
-0.010435
-0.0105998
-0.0105438
-0.00812531
-0.00731721
-0.00640838
-0.00541018
-0.00437157
-0.00335551
-0.00239738
-0.00150484
-0.000689166
3.44374e-06
0.000551498
0.000949573
0.00128868
-0.00855709
-0.00913437
-0.00925311
-0.0096488
-0.00979238
-0.0100551
-0.0101039
-0.0102555
-0.0102107
-0.00784205
-0.00702293
-0.00609604
-0.00507882
-0.00400687
-0.00295527
-0.00199182
-0.00112309
-0.000333542
0.000343633
0.000903321
0.00131444
0.00167555
-0.00827014
-0.00884399
-0.00895798
-0.00935526
-0.00949796
-0.0097596
-0.00980444
-0.00994448
-0.00990302
-0.00755134
-0.00673044
-0.00577898
-0.00470996
-0.00360541
-0.00255651
-0.00160221
-0.000746315
4.04045e-06
0.000670315
0.00123116
0.00169479
0.00206871
-0.00798419
-0.00855472
-0.00866767
-0.00906232
-0.0092013
-0.00947073
-0.00950718
-0.0096517
-0.00961038
-0.00726523
-0.00641847
-0.00542663
-0.00432991
-0.00321156
-0.00215539
-0.00122362
-0.000416725
0.000314595
0.000989413
0.00160165
0.00208727
0.00250273
-0.00769554
-0.00826938
-0.00837593
-0.00877064
-0.00890818
-0.00917173
-0.009213
-0.00935695
-0.00931429
-0.00696915
-0.0061001
-0.00506923
-0.00393698
-0.00281354
-0.00178791
-0.000889662
-0.000100565
0.000629598
0.00132544
0.0019816
0.00251429
0.00295098
-0.00741345
-0.00798115
-0.00808675
-0.0084814
-0.00861711
-0.00887836
-0.0089176
-0.00905513
-0.00901742
-0.00667161
-0.00575534
-0.00468806
-0.00355967
-0.00245321
-0.00144561
-0.000574908
0.000196353
0.000934663
0.00169825
0.00237799
0.00315541
0.00124057
-0.00713344
-0.00770279
-0.00779968
-0.00819245
-0.0083288
-0.00858674
-0.00862702
-0.00876764
-0.00872664
-0.00635825
-0.00541039
-0.00432529
-0.00319874
-0.00211629
-0.00114518
-0.000293615
0.000486198
0.00128628
0.00204612
0.00309874
0.00142475
-0.00685431
-0.00744093
-0.00752414
-0.0079121
-0.00804418
-0.00829769
-0.0083381
-0.00847774
-0.00843767
-0.00603358
-0.00503814
-0.00397096
-0.00287967
-0.0018231
-0.000863856
-1.98518e-05
0.000796082
0.00158921
0.00273676
0.00144073
-0.00651155
-0.00729797
-0.00728055
-0.00763677
-0.00776361
-0.00802343
-0.00805445
-0.00819336
-0.00815561
-0.00565481
-0.00468895
-0.00365695
-0.00258089
-0.00154363
-0.000608919
0.000256923
0.00105906
0.0022043
0.00123812
-0.00612693
-0.00675479
-0.00731473
-0.00734373
-0.00747381
-0.00776834
-0.00778899
-0.0079155
-0.00788413
-0.00527525
-0.00435988
-0.00335777
-0.00231025
-0.00129465
-0.000346746
0.000488544
0.00158116
0.000912462
-0.00570635
-0.00637241
-0.00651282
-0.00719331
-0.00748747
-0.00825903
-0.0101064
-0.00483091
-0.00765113
-0.00761444
-0.00767271
-0.00766319
-0.00492929
-0.00406581
-0.00308677
-0.00204989
-0.00103678
-0.00013457
0.000916452
0.000529357
-0.00533378
-0.00593548
-0.00610204
-0.00655523
-0.00668017
-0.0068175
-0.00696453
-0.0073134
-0.00745333
-0.00719432
-0.00711914
-0.00461878
-0.00377926
-0.0028152
-0.00179391
-0.000818232
0.000223174
0.000133757
-0.00499542
-0.00554461
-0.00568654
-0.00610064
-0.00619344
-0.00630663
-0.00639868
-0.00671988
-0.00685811
-0.00700592
-0.00714713
-0.0074396
-0.00760665
-0.00759656
-0.00432288
-0.00351061
-0.00255615
-0.00154452
-0.000501159
-0.000241383
-0.00469293
-0.00519369
-0.00531395
-0.00571055
-0.00577994
-0.00588495
-0.00596182
-0.00625
-0.00635632
-0.00646896
-0.00658064
-0.00679532
-0.00693705
-0.00709818
-0.00725533
-0.00405038
-0.00324273
-0.00227019
-0.00125173
-0.00058584
-0.00441637
-0.00488686
-0.00498287
-0.00536147
-0.0054181
-0.0055155
-0.0055707
-0.00585262
-0.0059482
-0.00603936
-0.00613579
-0.00631859
-0.0064228
-0.00654212
-0.00665371
-0.00379186
-0.00293985
-0.0019988
-0.0008973
-0.00418302
-0.00461813
-0.00469239
-0.00505491
-0.00510561
-0.00518838
-0.00523267
-0.00550436
-0.00558525
-0.00566975
-0.00574355
-0.00592186
-0.0060173
-0.00611073
-0.00620742
-0.0035008
-0.00269177
-0.00117636
-0.00393712
-0.0044027
-0.00444842
-0.00479556
-0.00483867
-0.00490862
-0.00494218
-0.00520342
-0.00527432
-0.00534223
-0.00541144
-0.00557499
-0.00565814
-0.00573874
-0.00581933
-0.00328912
-0.00142341
-0.0038343
-0.00417386
-0.00422588
-0.00458933
-0.00461969
-0.00467401
-0.00469947
-0.0049538
-0.0050094
-0.00506952
-0.00512583
-0.00527685
-0.00535342
-0.0054123
-0.00548707
-0.00163209
-0.00194615
-0.0041018
-0.00403355
-0.00438485
-0.00441458
-0.00448121
-0.00449783
-0.00475842
-0.00480279
-0.0048469
-0.00488926
-0.00502671
-0.00508935
-0.00514417
-0.00520361
-0.0018209
-0.00381033
-0.00419669
-0.00422335
-0.00427183
-0.00428261
-0.00457297
-0.00462229
-0.00467017
-0.00470553
-0.00484437
-0.00488777
-0.00492732
-0.00496942
-0.00150623
-0.00373031
-0.00411063
-0.00402749
-0.00427426
-0.00438306
-0.00445773
-0.00450896
-0.00466379
-0.00471918
-0.00476102
-0.00479781
-0.00138974
-0.00410442
-0.00414971
-0.00411653
-0.00428204
-0.00442476
-0.00452782
-0.00459692
-0.00164476
-0.00436084
-0.00404293
-0.00407918
-0.125646
-0.127069
-0.125942
-0.129426
-0.127682
-0.126678
-0.12432
-0.130194
-0.129389
-0.127741
-0.12679
-0.124967
-0.122873
-0.130628
-0.13135
-0.130605
-0.127222
-0.125217
-0.125336
-0.123374
-0.121385
-0.131891
-0.132625
-0.132772
-0.133198
-0.128258
-0.121715
-0.122205
-0.123897
-0.121823
-0.120006
-0.133163
-0.134109
-0.138274
-0.133839
-0.135929
-0.129356
-0.122754
-0.116041
-0.119357
-0.122298
-0.120901
-0.120414
-0.118645
-0.134584
-0.135492
-0.143809
-0.13945
-0.138595
-0.134953
-0.135939
-0.130446
-0.123826
-0.117191
-0.116423
-0.110696
-0.113711
-0.119447
-0.118048
-0.119041
-0.117254
-0.13678
-0.14953
-0.145073
-0.144176
-0.14142
-0.140603
-0.138598
-0.137272
-0.13605
-0.131483
-0.1249
-0.118341
-0.111863
-0.116549
-0.115178
-0.110715
-0.105856
-0.108396
-0.113783
-0.112287
-0.11763
-0.115816
-0.138108
-0.155506
-0.150841
-0.149927
-0.147109
-0.146301
-0.144209
-0.142834
-0.141454
-0.140073
-0.141728
-0.137096
-0.132458
-0.125953
-0.119473
-0.113049
-0.106904
-0.116166
-0.114791
-0.110505
-0.108137
-0.106053
-0.101184
-0.103899
-0.107523
-0.113438
-0.111993
-0.114469
-0.139623
-0.161554
-0.156785
-0.15589
-0.152986
-0.152117
-0.149985
-0.14858
-0.147159
-0.145744
-0.147476
-0.143714
-0.142345
-0.141024
-0.14278
-0.138041
-0.133336
-0.126961
-0.120564
-0.114227
-0.108005
-0.102135
-0.11054
-0.11013
-0.105481
-0.101506
-0.0964844
-0.0992655
-0.103321
-0.106845
-0.107814
-0.113101
-0.111675
-0.167027
-0.162674
-0.162108
-0.159099
-0.158021
-0.155959
-0.154518
-0.153046
-0.151588
-0.153305
-0.149491
-0.148089
-0.146725
-0.145284
-0.148544
-0.143715
-0.13888
-0.134145
-0.127901
-0.121597
-0.115349
-0.109139
-0.103131
-0.0973731
-0.110214
-0.109153
-0.105702
-0.104719
-0.100997
-0.0968596
-0.0916728
-0.0946296
-0.0986755
-0.102479
-0.103531
-0.172728
-0.168304
-0.167697
-0.164868
-0.163847
-0.162311
-0.160727
-0.159125
-0.157628
-0.159162
-0.155471
-0.15403
-0.152622
-0.151131
-0.154365
-0.149464
-0.14452
-0.139635
-0.134917
-0.128781
-0.122556
-0.116378
-0.110245
-0.10419
-0.0983347
-0.0925878
-0.101169
-0.100085
-0.0963492
-0.0920193
-0.0870462
-0.0899701
-0.0940957
-0.0977365
-0.0988427
-0.177743
-0.174099
-0.173261
-0.170699
-0.16957
-0.167818
-0.16696
-0.164829
-0.164243
-0.164971
-0.161682
-0.160146
-0.15868
-0.157159
-0.160189
-0.15527
-0.150243
-0.145232
-0.140359
-0.135688
-0.129619
-0.123451
-0.117301
-0.111255
-0.10525
-0.0993541
-0.0935767
-0.0879233
-0.0964376
-0.0953367
-0.0914017
-0.0874632
-0.0821822
-0.085103
-0.0894892
-0.0932061
-0.0941834
-0.179715
-0.17841
-0.175902
-0.181023
-0.182831
-0.175368
-0.173424
-0.172187
-0.170912
-0.169505
-0.170759
-0.163598
-0.163556
-0.166009
-0.161086
-0.156041
-0.150931
-0.145913
-0.141094
-0.136486
-0.130438
-0.124298
-0.118135
-0.112145
-0.106231
-0.100373
-0.0945934
-0.0888973
-0.0831593
-0.0921584
-0.0903846
-0.08701
-0.0825077
-0.0774387
-0.0802412
-0.0844647
-0.0886508
-0.0899205
-0.185884
-0.181206
-0.18126
-0.178632
-0.177488
-0.17625
-0.174938
-0.185956
-0.185192
-0.176597
-0.171854
-0.166925
-0.161873
-0.156734
-0.151596
-0.14662
-0.141876
-0.137328
-0.131261
-0.125116
-0.118907
-0.112922
-0.107093
-0.101317
-0.0955904
-0.0899101
-0.0841947
-0.0784309
-0.0890859
-0.0871506
-0.0859652
-0.0820039
-0.0777873
-0.0729674
-0.0756131
-0.0796691
-0.0835007
-0.0846317
-0.0880951
-0.0894777
-0.187563
-0.182549
-0.18235
-0.183976
-0.181359
-0.180008
-0.189945
-0.185127
-0.189127
-0.17775
-0.172801
-0.167721
-0.162595
-0.157418
-0.152297
-0.147392
-0.142726
-0.13822
-0.132098
-0.125923
-0.119647
-0.113625
-0.107839
-0.102149
-0.096508
-0.0908977
-0.0852479
-0.079504
-0.0739083
-0.0868235
-0.0856181
-0.0821956
-0.081085
-0.0773355
-0.0733129
-0.0687285
-0.071227
-0.0750986
-0.0787642
-0.0798629
-0.083211
-0.0843791
-0.1889
-0.183786
-0.184938
-0.183018
-0.187366
-0.189322
-0.17874
-0.173592
-0.168433
-0.163313
-0.158145
-0.153075
-0.148248
-0.143648
-0.139157
-0.132959
-0.126728
-0.120375
-0.114292
-0.108505
-0.102871
-0.0973168
-0.0918032
-0.0862616
-0.0806061
-0.0749521
-0.0695992
-0.0819673
-0.0808157
-0.0775274
-0.0764523
-0.0728887
-0.0690705
-0.0647238
-0.0670766
-0.0707599
-0.0742368
-0.0752965
-0.0784966
-0.0796357
-0.190102
-0.184826
-0.186878
-0.184494
-0.188795
-0.179558
-0.174276
-0.169126
-0.164073
-0.158952
-0.153949
-0.149198
-0.144639
-0.140134
-0.133839
-0.127541
-0.121105
-0.114947
-0.109128
-0.103513
-0.0980173
-0.092597
-0.08718
-0.081665
-0.0760548
-0.0705728
-0.0654829
-0.0773057
-0.076199
-0.0730811
-0.0720499
-0.0686747
-0.0650788
-0.0608773
-0.0632113
-0.0666653
-0.0699563
-0.0709671
-0.0739898
-0.075078
-0.19113
-0.185698
-0.186444
-0.188324
-0.180271
-0.174936
-0.169862
-0.164908
-0.159855
-0.154929
-0.150237
-0.145692
-0.141149
-0.134736
-0.128357
-0.121842
-0.115603
-0.109736
-0.104111
-0.0986426
-0.0932872
-0.0879811
-0.0826216
-0.0771428
-0.0716404
-0.0663652
-0.0615192
-0.0728711
-0.0718215
-0.0688811
-0.0678961
-0.064722
-0.0613485
-0.057182
-0.0595573
-0.0628744
-0.0659319
-0.0668944
-0.0697381
-0.0707644
-0.192021
-0.186479
-0.180972
-0.175649
-0.170685
-0.165837
-0.160865
-0.156009
-0.151358
-0.146805
-0.142192
-0.135647
-0.129175
-0.122585
-0.116269
-0.110341
-0.10469
-0.0992258
-0.0939081
-0.0886823
-0.0834566
-0.0781359
-0.0727198
-0.0673702
-0.0623243
-0.0577453
-0.068697
-0.0676992
-0.0649377
-0.0640078
-0.0611186
-0.0576777
-0.0536462
-0.0560435
-0.0592956
-0.062195
-0.0631021
-0.0657527
-0.0667201
-0.192852
-0.187258
-0.181734
-0.176466
-0.171614
-0.166873
-0.161982
-0.157188
-0.152561
-0.14797
-0.143258
-0.13656
-0.129995
-0.12333
-0.116943
-0.110954
-0.105263
-0.0997879
-0.0944872
-0.0893133
-0.0841883
-0.0790169
-0.0737404
-0.0684186
-0.0632532
-0.0584729
-0.0541727
-0.0647747
-0.0638478
-0.0613341
-0.060492
-0.0574602
-0.0541525
-0.0501073
-0.0523267
-0.0558826
-0.0587771
-0.0596425
-0.0620437
-0.0629427
-0.193698
-0.188098
-0.182602
-0.177407
-0.172663
-0.168017
-0.163206
-0.158468
-0.153842
-0.14919
-0.144346
-0.137468
-0.130802
-0.124081
-0.117624
-0.111574
-0.105839
-0.100341
-0.0950447
-0.0899038
-0.0848489
-0.0797913
-0.0746572
-0.0694392
-0.0642614
-0.0593406
-0.0548381
-0.0506753
-0.0611701
-0.0603579
-0.0575608
-0.0571833
-0.0539526
-0.0504745
-0.046865
-0.0487591
-0.0520409
-0.0552876
-0.056216
-0.0592621
-0.0596249
-0.194605
-0.189034
-0.183589
-0.178476
-0.173829
-0.169275
-0.164544
-0.159847
-0.155207
-0.150454
-0.145433
-0.138368
-0.131593
-0.124825
-0.118317
-0.112202
-0.10642
-0.100894
-0.0955904
-0.0904698
-0.0854647
-0.0804968
-0.0754846
-0.070393
-0.0652832
-0.0603061
-0.0556371
-0.0513552
-0.0474416
-0.0572223
-0.0575211
-0.0542035
-0.0532988
-0.050234
-0.0470902
-0.0438636
-0.0454478
-0.0485332
-0.0514488
-0.0523211
-0.0551341
-0.0562651
-0.195593
-0.190071
-0.184695
-0.179668
-0.175119
-0.170659
-0.165996
-0.161333
-0.156643
-0.15174
-0.146508
-0.139251
-0.132366
-0.125562
-0.119012
-0.112847
-0.107011
-0.101452
-0.0961352
-0.0910224
-0.0860518
-0.0811473
-0.0762354
-0.0712658
-0.0662546
-0.0613011
-0.0565619
-0.0521567
-0.0481162
-0.0445367
-0.0558302
-0.0570244
-0.0541096
-0.0531695
-0.050503
-0.0496548
-0.04695
-0.0436795
-0.0415893
-0.0409355
-0.0454443
-0.0479681
-0.0487909
-0.0513462
-0.0522434
-0.0548848
-0.0558824
-0.196663
-0.191208
-0.185913
-0.180988
-0.176546
-0.172166
-0.167568
-0.162911
-0.158114
-0.153004
-0.147534
-0.140118
-0.133116
-0.126294
-0.119713
-0.1135
-0.10762
-0.10202
-0.0966836
-0.0915704
-0.0866203
-0.0817655
-0.07693
-0.0720643
-0.0671668
-0.0622983
-0.0575629
-0.0530659
-0.0488856
-0.0451475
-0.0420127
-0.0539135
-0.0529914
-0.0504368
-0.0495634
-0.0471465
-0.0463629
-0.0438883
-0.0408491
-0.0394535
-0.0438837
-0.0447251
-0.0455835
-0.0478773
-0.0487153
-0.0511905
-0.0520838
-0.197815
-0.19244
-0.18725
-0.182453
-0.178114
-0.173805
-0.169244
-0.164537
-0.159564
-0.154197
-0.148476
-0.140963
-0.133853
-0.127019
-0.120422
-0.114164
-0.108243
-0.102611
-0.0972451
-0.0921226
-0.087182
-0.0823542
-0.0775757
-0.0727972
-0.0680088
-0.0632398
-0.0585518
-0.0540289
-0.0497703
-0.0458914
-0.0425197
-0.039757
-0.0502915
-0.0494211
-0.0470672
-0.0462864
-0.0436186
-0.041816
-0.0411823
-0.0389266
-0.0402799
-0.0372673
-0.042516
-0.0447643
-0.0455262
-0.0477444
-0.0485754
-0.199044
-0.193774
-0.188727
-0.184074
-0.179836
-0.175557
-0.170973
-0.166136
-0.160908
-0.15525
-0.149298
-0.141784
-0.134589
-0.127743
-0.121136
-0.114845
-0.108882
-0.10322
-0.0978314
-0.0926874
-0.0877446
-0.0829321
-0.0781861
-0.0734697
-0.0687742
-0.0641119
-0.0595099
-0.0550249
-0.0507353
-0.0467289
-0.0431385
-0.0401188
-0.0375479
-0.0469319
-0.0461541
-0.0440877
-0.0444971
-0.0413588
-0.0409757
-0.0393086
-0.0369014
-0.0383543
-0.0405108
-0.040063
-0.0348821
-0.0424798
-0.0419153
-0.0446222
-0.0453854
-0.200363
-0.195236
-0.190357
-0.185868
-0.181696
-0.177363
-0.17267
-0.167603
-0.16206
-0.156119
-0.149963
-0.142559
-0.135329
-0.128468
-0.121857
-0.115536
-0.109541
-0.103849
-0.0984395
-0.0932796
-0.0883205
-0.0835047
-0.0787711
-0.0740935
-0.0694724
-0.0649067
-0.0604032
-0.0559862
-0.0517024
-0.0476238
-0.0438789
-0.0406205
-0.0378279
-0.0351947
-0.043866
-0.0433966
-0.0395111
-0.0390826
-0.0372358
-0.0344707
-0.036173
-0.0385571
-0.0380516
-0.0322827
-0.201794
-0.196838
-0.192158
-0.187821
-0.183625
-0.179129
-0.174219
-0.168829
-0.162958
-0.156781
-0.150458
-0.143261
-0.136064
-0.129193
-0.122581
-0.11624
-0.110216
-0.104502
-0.0990713
-0.093894
-0.0889211
-0.0840919
-0.0793591
-0.0747002
-0.0701197
-0.0656257
-0.0612154
-0.0568863
-0.0526514
-0.0485616
-0.0447155
-0.0412325
-0.0381863
-0.0354697
-0.0327337
-0.0373967
-0.0369035
-0.0349021
-0.0317547
-0.0335561
-0.0363143
-0.0357372
-0.0297104
-0.203353
-0.198595
-0.19411
-0.189856
-0.185506
-0.180728
-0.175497
-0.169739
-0.163588
-0.157275
-0.150871
-0.143836
-0.136735
-0.129886
-0.12329
-0.116947
-0.110906
-0.105172
-0.0997266
-0.094532
-0.0895433
-0.0846989
-0.0799511
-0.0752899
-0.0707242
-0.0662776
-0.06195
-0.0577105
-0.0535458
-0.0494761
-0.0455641
-0.0419181
-0.0386607
-0.0357853
-0.0330455
-0.0301388
-0.0349885
-0.0344387
-0.0317561
-0.0291755
-0.0310035
-0.0337672
-0.033468
-0.0267041
-0.205049
-0.200484
-0.196135
-0.191832
-0.187182
-0.182031
-0.176414
-0.17032
-0.163994
-0.157684
-0.144318
-0.149648
-0.1527
-0.137292
-0.130516
-0.123969
-0.11765
-0.111606
-0.105858
-0.100398
-0.0951904
-0.0901868
-0.0853292
-0.0805685
-0.075894
-0.0713348
-0.0669149
-0.062631
-0.0584585
-0.0543676
-0.0503442
-0.0464169
-0.0426747
-0.0392341
-0.0361436
-0.0332951
-0.0304687
-0.027303
-0.0314912
-0.0319328
-0.0293172
-0.0260112
-0.0278352
-0.0310035
-0.0302531
-0.023628
-0.206856
-0.202424
-0.198089
-0.193562
-0.188504
-0.182946
-0.176954
-0.17062
-0.164222
-0.156267
-0.159415
-0.13767
-0.142826
-0.146158
-0.149839
-0.1527
-0.13099
-0.124561
-0.118314
-0.112298
-0.10655
-0.101079
-0.0958589
-0.0908451
-0.0859728
-0.0811987
-0.0765158
-0.071947
-0.0675252
-0.0632589
-0.0591379
-0.0551194
-0.0511522
-0.0472372
-0.0434352
-0.0398447
-0.0365494
-0.033557
-0.0307205
-0.0277181
-0.0242866
-0.0300475
-0.0313709
-0.0292747
-0.0285792
-0.0260436
-0.0228457
-0.0246072
-0.0276978
-0.0269518
-0.0306189
-0.0298508
-0.0205751
-0.208691
-0.204277
-0.199786
-0.194883
-0.189393
-0.183471
-0.177198
-0.170739
-0.16264
-0.165874
-0.15642
-0.159441
-0.131325
-0.136215
-0.139368
-0.142795
-0.146282
-0.149179
-0.151126
-0.154302
-0.151985
-0.125049
-0.118924
-0.112968
-0.107239
-0.101764
-0.0965297
-0.0915053
-0.086628
-0.0818465
-0.0771544
-0.0725767
-0.0681465
-0.0638926
-0.0598043
-0.0558248
-0.0519001
-0.0480106
-0.0441828
-0.0404914
-0.037034
-0.0338614
-0.0309019
-0.0279532
-0.0247742
-0.0212885
-0.0290308
-0.0282765
-0.0259756
-0.0252436
-0.0228545
-0.0197918
-0.0214138
-0.0243941
-0.0236492
-0.0274462
-0.0266164
-0.01764
-0.210422
-0.205869
-0.201057
-0.195723
-0.189874
-0.183689
-0.177277
-0.169148
-0.17241
-0.162619
-0.165863
-0.155734
-0.157092
-0.160161
-0.158569
-0.125358
-0.129965
-0.132959
-0.136216
-0.139438
-0.142003
-0.143633
-0.147124
-0.145426
-0.148881
-0.150876
-0.150761
-0.119387
-0.113552
-0.107887
-0.102431
-0.0971936
-0.0921593
-0.0872766
-0.0824958
-0.0778027
-0.0732208
-0.0687847
-0.0645242
-0.0604388
-0.0564785
-0.0525926
-0.0487388
-0.0449066
-0.0411488
-0.0375537
-0.034189
-0.0310589
-0.0280825
-0.025062
-0.0218008
-0.018324
-0.0257102
-0.024897
-0.0227052
-0.0219796
-0.0197256
-0.0168147
-0.0183155
-0.021143
-0.020401
-0.0240684
-0.0232454
-0.0147596
-0.211887
-0.20705
-0.201848
-0.196158
-0.19008
-0.183768
-0.175699
-0.178948
-0.169141
-0.172409
-0.161852
-0.163447
-0.166647
-0.165051
-0.119706
-0.124056
-0.126906
-0.129975
-0.133039
-0.135439
-0.137006
-0.140237
-0.138657
-0.141983
-0.143645
-0.14707
-0.145372
-0.114034
-0.108476
-0.103066
-0.097839
-0.0927981
-0.0879126
-0.0831396
-0.0784581
-0.0738784
-0.0694377
-0.0651713
-0.0610823
-0.0571392
-0.0532805
-0.0494405
-0.0456029
-0.0418039
-0.0381078
-0.0345825
-0.0312755
-0.0281752
-0.0251577
-0.0220616
-0.0188238
-0.0154627
-0.0223639
-0.0215697
-0.0194922
-0.0187836
-0.0166905
-0.0139489
-0.0152976
-0.0179828
-0.01727
-0.0207596
-0.0199517
-0.0120558
-0.212958
-0.207769
-0.202234
-0.196327
-0.19016
-0.182215
-0.185436
-0.175694
-0.178948
-0.168373
-0.169978
-0.173195
-0.17159
-0.114326
-0.11845
-0.12116
-0.124064
-0.126974
-0.129221
-0.130706
-0.133773
-0.132266
-0.135414
-0.137008
-0.140252
-0.138635
-0.108911
-0.103608
-0.0984346
-0.0934092
-0.08853
-0.0837743
-0.0791139
-0.0745463
-0.0701054
-0.0658332
-0.0617399
-0.0577945
-0.0539373
-0.0501015
-0.0462697
-0.0424544
-0.0386887
-0.0350344
-0.0315512
-0.0282643
-0.025144
-0.0221192
-0.0190846
-0.0159421
-0.0126982
-0.0190991
-0.0183316
-0.0164121
-0.0157172
-0.01376
-0.0112498
-0.0124436
-0.0149361
-0.0142326
-0.017558
-0.0167898
-0.00947122
-0.213599
-0.208111
-0.202399
-0.196416
-0.18865
-0.191815
-0.182215
-0.185439
-0.174924
-0.176531
-0.179736
-0.178133
-0.109202
-0.113127
-0.115708
-0.118455
-0.121217
-0.123341
-0.124759
-0.127663
-0.126234
-0.129191
-0.130696
-0.133772
-0.132237
-0.104042
-0.0989594
-0.0939773
-0.0891179
-0.0843789
-0.0797419
-0.0752021
-0.0707831
-0.0665123
-0.0624114
-0.0584616
-0.054602
-0.0507763
-0.0469494
-0.0431094
-0.0392869
-0.0355351
-0.0319031
-0.0284331
-0.0251572
-0.02207
-0.0190975
-0.0161431
-0.0131459
-0.0100928
-0.0159815
-0.0152331
-0.0134218
-0.0127594
-0.0110311
-0.00876015
-0.0097822
-0.0120459
-0.0113964
-0.0144848
-0.0137357
-0.00703025
-0.21389
-0.208247
-0.202503
-0.194954
-0.198054
-0.188663
-0.191829
-0.181452
-0.183056
-0.18623
-0.184635
-0.104299
-0.108047
-0.110511
-0.113131
-0.11576
-0.117767
-0.119105
-0.12186
-0.120503
-0.12331
-0.124745
-0.127654
-0.126202
-0.0993438
-0.0944578
-0.0896535
-0.0849554
-0.0803654
-0.0758691
-0.0714713
-0.0672033
-0.0630963
-0.0591396
-0.0552773
-0.0514457
-0.0476053
-0.0437428
-0.0398893
-0.036077
-0.0323309
-0.0286978
-0.0252356
-0.0219883
-0.0189606
-0.0161147
-0.013343
-0.0105203
-0.00761781
-0.0129652
-0.0122657
-0.0106743
-0.0100611
-0.00852256
-0.00636155
-0.00739914
-0.00940482
-0.00879663
-0.0115852
-0.0109076
-0.00476412
-0.213996
-0.208361
-0.201095
-0.204087
-0.194988
-0.198084
-0.187919
-0.189508