/*--------------------------------*- C++ -*----------------------------------*\
| =========                 |                                                 |
| \\      /  F ield         | OpenFOAM: The Open Source CFD Toolbox           |
|  \\    /   O peration     | Version:  v1912                                 |
|   \\  /    A nd           | Website:  www.openfoam.com                      |
|    \\/     M anipulation  |                                                 |
\*---------------------------------------------------------------------------*/
FoamFile
{
    version     2.0;
    format      ascii;
    class       volVectorField;
    location    "100";
    object      U;
}
// * * * * * * * * * * * * * * * * * * * * * * * * * * * * * * * * * * * * * //

dimensions      [0 1 -1 0 0 0 0];


internalField   nonuniform List<vector> 
3673
(
(0.0778945 0.0263165 -2.57515e-21)
(0.232805 0.0772299 2.50131e-24)
(0.0773945 0.0261489 0)
(0.384257 0.125025 0)
(0.231393 0.0767668 -2.50223e-24)
(0.0769209 0.025988 0)
(0.527269 0.168347 0)
(0.382011 0.1243 0)
(0.230012 0.0763083 0)
(0.0764478 0.0258306 -2.25777e-21)
(0.65544 0.205441 0)
(0.524306 0.1674 0)
(0.379795 0.123581 0)
(0.228644 0.0758594 0)
(0.0759859 0.0256754 2.21597e-21)
(0.761581 0.234377 0)
(0.651807 0.204284 1.64683e-24)
(0.521348 0.166456 0)
(0.377618 0.12288 0)
(0.227313 0.0754183 -2.13581e-21)
(0.0755253 0.0255206 0)
(0.838754 0.25343 0)
(0.757352 0.233028 8.13328e-22)
(0.648218 0.203147 -1.64527e-24)
(0.518435 0.165527 0)
(0.375448 0.122174 0)
(0.225971 0.0749707 0)
(0.0750617 0.0253667 0)
(0.881147 0.261317 -7.85744e-22)
(0.833943 0.251888 -7.63803e-22)
(0.753167 0.231702 0)
(0.644635 0.202013 8.00912e-22)
(0.515529 0.164598 0)
(0.37329 0.121471 -1.70832e-24)
(0.224627 0.0745269 0)
(0.0746047 0.0252146 -3.82972e-21)
(0.884828 0.257399 2.83119e-24)
(0.875707 0.259567 1.44526e-24)
(0.829165 0.250373 0)
(0.748999 0.230391 1.85678e-23)
(0.641077 0.200889 0)
(0.512612 0.163667 0)
(0.371125 0.120769 1.70802e-24)
(0.223294 0.0740854 1.86013e-21)
(0.0741434 0.0250605 0)
(0.848382 0.241864 8.02077e-22)
(0.87869 0.255428 7.51928e-22)
(0.8703 0.257854 -7.28199e-22)
(0.824416 0.248884 -7.0243e-22)
(0.74482 0.229081 -1.3567e-24)
(0.637492 0.199758 0)
(0.50969 0.162733 0)
(0.368958 0.120063 -1.56279e-24)
(0.221939 0.0736373 0)
(0.0736859 0.0249072 0)
(0.773395 0.215831 1.67143e-24)
(0.841487 0.239663 -7.6863e-22)
(0.872574 0.253501 7.25836e-22)
(0.864928 0.256178 6.97468e-22)
(0.819661 0.247402 0)
(0.740642 0.227772 1.35586e-24)
(0.633889 0.19862 0)
(0.506759 0.161795 0)
(0.36679 0.119359 4.55149e-24)
(0.220605 0.0731949 0)
(0.0732319 0.0247529 0)
(0.664501 0.181305 -1.06653e-23)
(0.765725 0.213406 -7.91346e-22)
(0.834586 0.237518 -7.3761e-22)
(0.866524 0.251638 -4.89149e-24)
(0.859591 0.254529 2.66965e-24)
(0.814909 0.245922 -6.58068e-22)
(0.736432 0.226453 0)
(0.630275 0.197476 0)
(0.503826 0.160853 0)
(0.364597 0.118643 -4.41755e-24)
(0.219277 0.0727535 0)
(0.072779 0.024598 0)
(0.5289 0.140928 8.13364e-24)
(0.656069 0.178677 3.26443e-23)
(0.757952 0.21104 7.86862e-22)
(0.827821 0.235484 -1.44355e-21)
(0.860591 0.24983 5.37268e-24)
(0.85429 0.252889 6.37098e-22)
(0.810146 0.244439 0)
(0.732195 0.225123 0)
(0.626634 0.196323 -1.29336e-21)
(0.50087 0.159904 0)
(0.362438 0.117939 1.46521e-21)
(0.217958 0.0723113 1.63241e-21)
(0.0723355 0.0244518 0)
(0.375522 0.097544 0)
(0.519666 0.138157 9.60732e-22)
(0.647291 0.176066 8.246e-22)
(0.75046 0.20887 7.73421e-22)
(0.821317 0.233543 -7.00176e-22)
(0.854775 0.248051 -4.93846e-24)
(0.849013 0.251259 0)
(0.805363 0.242952 -2.29665e-24)
(0.727953 0.223795 1.1806e-21)
(0.623001 0.195173 0)
(0.497935 0.158961 -1.24551e-21)
(0.360295 0.117234 -1.33022e-21)
(0.216648 0.0718741 0)
(0.071885 0.0243032 0)
(0.365324 0.0947642 -2.48871e-22)
(0.250656 0.0639843 -7.23039e-24)
(0.253888 0.0648949 -4.6256e-22)
(0.509434 0.135216 -9.66233e-22)
(0.639063 0.173796 6.59394e-24)
(0.743523 0.206858 7.34331e-22)
(0.815102 0.231672 -5.08886e-24)
(0.849067 0.246305 4.94428e-24)
(0.84376 0.249639 4.5153e-24)
(0.800586 0.241468 4.49794e-24)
(0.723696 0.22246 -3.3855e-24)
(0.619359 0.194015 0)
(0.495005 0.158013 0)
(0.358152 0.116529 1.33684e-21)
(0.215352 0.0714409 0)
(0.0714432 0.0241545 0)
(0.351753 0.0911571 2.42034e-22)
(0.238335 0.0606946 4.12213e-22)
(0.245687 0.0628645 0)
(0.167422 0.042232 1.10771e-23)
(0.169658 0.0427284 3.27686e-22)
(0.256249 0.0653612 0)
(0.50043 0.13281 2.20945e-25)
(0.63192 0.171787 1.23043e-23)
(0.737111 0.204961 7.05459e-22)
(0.809108 0.229865 9.97476e-24)
(0.843447 0.244591 5.88109e-22)
(0.838538 0.24803 -5.72142e-22)
(0.795807 0.239983 -3.2578e-24)
(0.719451 0.221125 1.09674e-24)
(0.615735 0.192861 1.13648e-21)
(0.492114 0.157079 -1.13827e-21)
(0.356047 0.115836 -1.27747e-21)
(0.214054 0.0710073 -1.41946e-21)
(0.0710109 0.0240097 0)
(0.34172 0.0883922 1.6473e-23)
(0.220121 0.0562254 -8.689e-22)
(0.228338 0.0579071 3.92294e-22)
(0.155708 0.0392497 0)
(0.163674 0.0413332 8.7768e-23)
(0.103806 0.0259634 -1.3836e-22)
(0.104624 0.0261516 2.79943e-22)
(0.105589 0.0263508 1.12503e-24)
(0.171085 0.043059 0)
(0.10519 0.0262368 1.41975e-22)
(0.493505 0.130868 9.12141e-22)
(0.6257 0.169979 -7.87507e-22)
(0.731122 0.203188 6.63935e-22)
(0.803318 0.228128 -6.17143e-22)
(0.837918 0.24291 6.23133e-24)
(0.833349 0.246436 0)
(0.791049 0.238504 1.05529e-24)
(0.715219 0.219796 -1.03564e-21)
(0.612135 0.191713 1.08804e-21)
(0.489229 0.156144 1.08776e-21)
(0.353969 0.115151 1.1547e-21)
(0.212798 0.0705851 -1.35532e-21)
(0.0705862 0.0238672 -2.52032e-21)
(0.335913 0.0865932 -1.0501e-21)
(0.212185 0.0537898 6.62572e-24)
(0.214986 0.0546879 0)
(0.131375 0.0331719 3.98163e-22)
(0.1415 0.0352978 -3.14053e-22)
(0.0912046 0.0225198 1.15447e-23)
(0.0971971 0.024554 -8.03929e-24)
(0.102611 0.0257793 0)
(0.100614 0.0252524 -1.50368e-25)
(0.0608498 0.0151129 1.97179e-24)
(0.0613089 0.0151989 -1.29953e-22)
(0.105961 0.0264238 -1.12531e-24)
(0.0618034 0.0153061 1.28822e-22)
(0.106256 0.0265083 -1.46843e-22)
(0.0615769 0.0152551 0)
(0.488013 0.129293 -8.467e-22)
(0.620105 0.168357 -7.36429e-22)
(0.725453 0.201523 0)
(0.797695 0.226445 1.17534e-21)
(0.832474 0.241258 -2.1795e-24)
(0.828201 0.244854 0)
(0.786317 0.237033 5.11359e-22)
(0.711017 0.218472 -9.91624e-22)
(0.608586 0.190577 -9.78032e-25)
(0.486413 0.155226 1.08734e-21)
(0.351904 0.114463 1.1046e-21)
(0.211563 0.0701689 -8.2958e-23)
(0.0701647 0.0237263 0)
(0.332023 0.0855172 9.99428e-22)
(0.208922 0.0527913 -6.33589e-24)
(0.210196 0.0531655 -6.63469e-24)
(0.125742 0.0313798 6.04585e-24)
(0.127398 0.0319238 -1.00141e-22)
(0.0623584 0.0157316 1.28123e-22)
(0.064999 0.0164436 -1.34617e-22)
(0.0801339 0.0188674 -6.30396e-23)
(0.070424 0.0179701 3.70961e-24)
(0.051856 0.0121541 1.333e-23)
(0.0564481 0.0141267 0)
(0.0601526 0.0149877 0)
(0.0588955 0.0147445 -1.23714e-22)
(0.0196614 0.00483686 -7.60621e-25)
(0.0197812 0.00486056 7.61008e-25)
(0.0619932 0.0153567 -1.30183e-22)
(0.0199235 0.0048944 -3.99272e-25)
(0.0621596 0.015392 1.34434e-22)
(0.0198742 0.00488694 -9.95648e-23)
(0.483332 0.127982 -8.21439e-22)
(0.614963 0.166884 6.97642e-22)
(0.720051 0.199941 -1.23873e-21)
(0.792228 0.224814 -5.63181e-22)
(0.827106 0.23963 -5.21768e-22)
(0.823095 0.243286 -9.94829e-22)
(0.781617 0.23557 -9.68982e-25)
(0.706859 0.217158 0)
(0.605076 0.189447 -9.57864e-22)
(0.483623 0.154309 0)
(0.349901 0.113796 1.05324e-21)
(0.210349 0.0697585 0)
(0.0697532 0.0235883 1.12728e-21)
(0.328886 0.0847403 1.16342e-21)
(0.206915 0.0523393 6.18329e-24)
(0.207747 0.052545 3.96069e-22)
(0.124047 0.0309181 9.32928e-23)
(0.124717 0.0311023 8.84864e-23)
(0.0602101 0.0148958 -1.25018e-22)
(0.0604029 0.0149642 -1.99314e-24)
(0.0612454 0.0152432 1.33182e-22)
(0.0606761 0.0150544 -1.26388e-22)
(0.020187 0.00509163 -1.02965e-22)
(0.0215938 0.0056427 1.37832e-22)
(0.0348074 0.00600881 -1.1272e-23)
(0.0238962 0.00629754 -2.97323e-23)
(0.0169744 0.0043537 -6.93413e-23)
(0.0181864 0.00465488 -9.47382e-23)
(0.0194724 0.00480307 -9.37536e-23)
(0.019096 0.00474505 -9.30094e-23)
(0.0199735 0.00491028 1.54176e-25)
(0.0200206 0.00491855 1.03493e-22)
(0.479162 0.126838 -8.0025e-22)
(0.610153 0.165515 6.76743e-22)
(0.714854 0.198423 1.18621e-21)
(0.786867 0.223217 4.86561e-24)
(0.821803 0.238025 5.00422e-22)
(0.818039 0.241732 0)
(0.776971 0.23412 0)
(0.702761 0.215856 0)
(0.60162 0.18833 9.50948e-22)
(0.480897 0.153412 9.93915e-22)
(0.347939 0.113138 0)
(0.209162 0.069355 0)
(0.0693476 0.0234528 0)
(0.326131 0.0840592 2.32901e-22)
(0.205229 0.0519591 -3.70476e-22)
(0.205953 0.0521497 -3.79784e-24)
(0.123002 0.0306904 0)
(0.12348 0.0308029 -3.67757e-22)
(0.0597328 0.0147662 1.19807e-22)
(0.0597983 0.0147998 -1.2147e-22)
(0.0600227 0.0148526 1.22892e-22)
(0.0599078 0.0148239 -1.23213e-22)
(0.0193372 0.00475208 1.77922e-22)
(0.0193962 0.00477438 -8.96652e-23)
(0.0196878 0.00487386 0)
(0.019481 0.00479807 1.82274e-22)
(0.00965784 0.00153947 -1.45694e-23)
(0.475333 0.125794 -6.10072e-24)
(0.605573 0.164217 -1.28653e-21)
(0.709809 0.196957 5.72523e-22)
(0.78161 0.221656 0)
(0.816568 0.236441 0)
(0.813036 0.240193 0)
(0.77238 0.232682 4.47124e-22)
(0.698717 0.214567 -4.2075e-22)
(0.598238 0.187229 -8.76223e-22)
(0.478232 0.152527 -9.49918e-22)
(0.346016 0.112491 1.01966e-21)
(0.207995 0.0689606 0)
(0.0689541 0.0233228 -1.02949e-21)
(0.323589 0.0834141 -2.22214e-22)
(0.203676 0.0515828 -3.58233e-22)
(0.20434 0.0517716 -3.63082e-22)
(0.122085 0.0304874 4.28866e-22)
(0.122535 0.0305957 -3.51695e-22)
(0.0593508 0.0146809 0)
(0.0594158 0.0147146 -1.15552e-22)
(0.0596019 0.0147491 1.1786e-22)
(0.0595187 0.0147286 1.16855e-22)
(0.019205 0.00471598 3.3395e-25)
(0.0192197 0.00472745 -8.63897e-23)
(0.0192913 0.00473891 -2.2018e-25)
(0.0192419 0.00473074 8.70305e-23)
(0.471705 0.12481 7.39096e-22)
(0.601172 0.162979 -6.16312e-22)
(0.70488 0.195527 -5.40255e-22)
(0.776434 0.22012 4.90449e-22)
(0.811395 0.234876 4.58097e-22)
(0.80809 0.238666 3.49143e-24)
(0.767852 0.231258 -4.19466e-22)
(0.694754 0.213292 0)
(0.59493 0.186144 8.37298e-22)
(0.475642 0.151663 -8.66246e-22)
(0.344152 0.11186 -9.08325e-25)
(0.206869 0.0685777 0)
(0.0685642 0.0231963 9.83912e-22)
(0.321174 0.0827953 3.41402e-24)
(0.202194 0.0512146 6.61823e-24)
(0.202836 0.0514006 3.4446e-22)
(0.12119 0.0302709 8.10548e-23)
(0.121624 0.0303829 4.17196e-22)
(0.0589503 0.0145897 -1.09679e-22)
(0.0590205 0.0146248 -1.10003e-22)
(0.0592133 0.0146627 5.74656e-25)
(0.0591286 0.0146402 -9.61143e-25)
(0.0190929 0.00468898 8.16334e-23)
(0.0191114 0.00470113 1.52832e-25)
(0.0191727 0.00470886 -8.51361e-23)
(0.0191307 0.00470246 -2.30255e-25)
(0.468228 0.123869 7.04663e-22)
(0.596893 0.161773 5.98386e-22)
(0.700049 0.194126 -5.24074e-22)
(0.771327 0.218605 -4.74266e-22)
(0.806276 0.233324 -1.02317e-24)
(0.803202 0.237152 4.17668e-22)
(0.763396 0.229845 0)
(0.690877 0.212034 0)
(0.591716 0.185078 -8.31692e-22)
(0.4731 0.150805 0)
(0.342314 0.111234 9.07743e-25)
(0.205748 0.0681972 -1.03624e-21)
(0.0681654 0.0230609 -9.4308e-22)
(0.318844 0.082189 1.94585e-22)
(0.20075 0.0508511 -3.19661e-22)
(0.20137 0.0510324 3.26923e-22)
(0.12032 0.0300581 3.12949e-22)
(0.120752 0.030169 -2.41083e-22)
(0.0585385 0.0144889 0)
(0.0586087 0.0145232 -2.09805e-22)
(0.0588066 0.0145667 0)
(0.0587175 0.0145421 -9.72734e-25)
(0.0189665 0.00465901 6.03841e-25)
(0.0189896 0.00467182 7.91741e-23)
(0.0190577 0.00468166 1.61256e-22)
(0.0190136 0.00467437 -2.27477e-25)
(0.464862 0.122953 1.27019e-24)
(0.592706 0.160595 -5.58379e-22)
(0.6953 0.192751 4.93016e-22)
(0.76627 0.217102 -4.53075e-22)
(0.801201 0.23178 -4.18687e-22)
(0.798379 0.235648 -3.98162e-22)
(0.759026 0.228446 7.38345e-25)
(0.687084 0.21079 7.58582e-22)
(0.588569 0.184026 0)
(0.470634 0.14997 0)
(0.34053 0.110626 8.41819e-22)
(0.20463 0.0678153 0)
(0.067778 0.0229299 -9.03679e-25)
(0.316577 0.0815959 -1.79635e-22)
(0.199338 0.0504885 -3.04374e-22)
(0.19995 0.0506704 -3.15437e-22)
(0.119468 0.029848 2.24578e-22)
(0.119893 0.0299558 -4.54285e-22)
(0.0581255 0.0143887 0)
(0.0582001 0.0144231 -9.95055e-23)
(0.0583972 0.0144663 -1.01688e-22)
(0.0583097 0.0144422 -1.01586e-22)
(0.0188334 0.00462601 7.42166e-23)
(0.018859 0.00463879 2.16363e-25)
(0.0189276 0.00465065 7.61725e-23)
(0.0188829 0.00464323 -1.52287e-22)
(0.461587 0.122062 1.76746e-23)
(0.588592 0.159435 -5.47249e-22)
(0.690588 0.191386 -9.08193e-25)
(0.761256 0.215612 0)
(0.796179 0.230245 3.97764e-22)
(0.793621 0.23415 0)
(0.754743 0.22706 3.69431e-22)
(0.68339 0.209568 -7.34471e-25)
(0.585501 0.182993 0)
(0.468206 0.149144 0)
(0.338742 0.110017 0)
(0.203531 0.0674398 -9.55302e-22)
(0.0674155 0.0228035 0)
(0.314363 0.0810132 5.47573e-22)
(0.19796 0.0501373 2.95908e-22)
(0.198566 0.0503152 0)
(0.118636 0.0296373 2.14153e-22)
(0.119051 0.0297447 -7.15876e-23)
(0.0577239 0.0142894 0)
(0.0577921 0.0143238 9.52831e-23)
(0.0579863 0.0143651 1.42367e-24)
(0.0578979 0.0143412 1.91597e-22)
(0.0186998 0.00459359 7.07499e-23)
(0.0187265 0.00460628 2.20993e-25)
(0.0187951 0.00461822 1.46697e-22)
(0.0187504 0.00461088 0)
(0.45836 0.12118 0)
(0.58453 0.158291 0)
(0.685906 0.190028 4.33898e-26)
(0.756249 0.214115 7.80916e-25)
(0.791185 0.228705 1.52143e-24)
(0.788931 0.232657 -3.59526e-22)
(0.750547 0.225686 0)
(0.679776 0.208359 0)
(0.582497 0.181975 3.65426e-22)
(0.465822 0.148331 0)
(0.336977 0.10941 7.75476e-22)
(0.202434 0.067055 8.46629e-25)
(0.0670184 0.0226675 -8.74293e-22)
(0.312203 0.0804424 0)
(0.196618 0.0497916 6.33891e-24)
(0.197209 0.0499666 0)
(0.11782 0.0294328 -6.55803e-23)
(0.118229 0.0295383 -1.36836e-22)
(0.0573233 0.0141898 0)
(0.0573927 0.0142229 5.65284e-25)
(0.0575851 0.0142657 9.26878e-23)
(0.0574992 0.0142411 9.09813e-23)
(0.0185724 0.00456204 0)
(0.018596 0.00457533 0)
(0.0186618 0.00458559 1.39914e-22)
(0.0186156 0.00457849 -1.38472e-22)
(0.455184 0.120312 -5.67125e-22)
(0.58047 0.157145 0)
(0.681216 0.188664 4.27527e-22)
(0.751247 0.212613 -7.80639e-25)
(0.786225 0.227158 0)
(0.784307 0.231164 0)
(0.746435 0.224322 0)
(0.676244 0.207169 -3.32701e-22)
(0.579555 0.180973 0)
(0.463436 0.147512 0)
(0.335225 0.108801 0)
(0.201319 0.0666665 8.12075e-22)
(0.0666014 0.0225301 -1.65238e-21)
(0.310053 0.0798729 6.54092e-22)
(0.195297 0.0494522 2.60511e-22)
(0.195885 0.0496248 1.04439e-24)
(0.117023 0.0292316 1.94219e-22)
(0.117423 0.0293344 -6.43608e-23)
(0.0569287 0.0140936 0)
(0.0569999 0.0141236 8.61028e-23)
(0.0571854 0.0141667 6.47947e-25)
(0.0571162 0.0141466 9.3328e-25)
(0.0184413 0.00452995 0)
(0.0184664 0.00454268 2.10424e-25)
(0.0185333 0.00455436 0)
(0.01849 0.00454673 -2.21245e-25)
(0.452006 0.119443 -3.19991e-24)
(0.576392 0.155997 -4.73877e-22)
(0.676482 0.187286 0)
(0.74621 0.211084 0)
(0.781279 0.225593 1.29841e-24)
(0.779745 0.22967 0)
(0.742399 0.222972 0)
(0.672769 0.205991 6.20816e-25)
(0.576626 0.179972 -3.35717e-22)
(0.461074 0.146696 0)
(0.333429 0.108178 7.66077e-22)
(0.200184 0.0662748 7.83954e-22)
(0.0661829 0.0223872 7.81844e-22)
(0.307938 0.079312 -1.5124e-22)
(0.193997 0.0491186 2.48174e-22)
(0.19458 0.0492892 -2.54764e-22)
(0.116241 0.0290348 -2.44996e-22)
(0.116637 0.0291352 -1.22891e-22)
(0.0565492 0.0139993 0)
(0.0566183 0.0140282 8.18492e-23)
(0.0567979 0.0140697 0)
(0.0567326 0.0140504 9.28098e-25)
(0.0183112 0.00449946 0)
(0.0183496 0.00451298 -6.21374e-23)
(0.0184025 0.00452281 2.52692e-25)
(0.0183626 0.00451555 6.31179e-23)
(0.448806 0.118568 2.09901e-24)
(0.572252 0.154828 0)
(0.671645 0.185864 2.93112e-24)
(0.741115 0.209513 0)
(0.776335 0.224001 -3.20043e-22)
(0.775235 0.228175 3.0867e-22)
(0.738427 0.221636 -5.91071e-25)
(0.669334 0.204824 3.06049e-22)
(0.573702 0.178967 -1.27211e-24)
(0.458689 0.145869 -6.4952e-22)
(0.331631 0.107549 0)
(0.199005 0.0658596 0)
(0.0657582 0.0222436 -1.54798e-21)
(0.305817 0.0787463 -1.43675e-22)
(0.192712 0.0487828 -9.41448e-25)
(0.193288 0.0489541 4.8888e-22)
(0.115471 0.028843 -2.90919e-22)
(0.115861 0.0289396 1.22828e-22)
(0.0561729 0.0139062 0)
(0.0562415 0.0139343 0)
(0.056419 0.0139746 6.79825e-25)
(0.0563528 0.0139557 9.08933e-25)
(0.0181911 0.00446999 5.84037e-23)
(0.018228 0.00448302 4.65508e-25)
(0.0182792 0.00449212 6.04547e-23)
(0.0182405 0.00448495 1.19577e-22)
(0.445535 0.117671 0)
(0.567953 0.153613 0)
(0.666651 0.184379 -3.61289e-22)
(0.735919 0.207879 6.51365e-22)
(0.77138 0.222382 -3.09639e-22)
(0.770769 0.22669 -2.95447e-22)
(0.734498 0.220314 -5.44028e-25)
(0.665903 0.203655 3.00557e-22)
(0.570767 0.177954 -3.10091e-22)
(0.456276 0.145023 0)
(0.329783 0.106895 0)
(0.197818 0.0654404 7.32982e-22)
(0.0653291 0.0220954 7.34086e-22)
(0.303645 0.0781669 0)
(0.191449 0.0484508 -2.21225e-22)
(0.19203 0.048626 2.32561e-22)
(0.114722 0.0286515 -5.42392e-23)
(0.115105 0.0287486 -2.82547e-22)
(0.0558088 0.0138172 0)
(0.055873 0.0138438 7.37868e-23)
(0.0560488 0.0138827 7.56146e-23)
(0.0559834 0.0138634 7.50923e-23)
(0.0180686 0.00444004 5.55615e-23)
(0.0181058 0.00445287 0)
(0.0181573 0.00446186 1.15346e-22)
(0.0181169 0.00445459 5.72748e-23)
(0.442117 0.116742 -4.61026e-22)
(0.563404 0.15232 3.98659e-22)
(0.661415 0.182785 -3.44357e-22)
(0.73058 0.206167 0)
(0.766421 0.220755 2.9692e-22)
(0.766342 0.225221 0)
(0.730588 0.219 -5.67138e-22)
(0.662473 0.202481 2.81016e-22)
(0.567804 0.176921 -3.00225e-22)
(0.453815 0.144154 0)
(0.327896 0.106223 0)
(0.196601 0.0650052 7.7498e-22)
(0.064867 0.0219398 3.54756e-23)
(0.3014 0.0775702 4.02508e-22)
(0.190173 0.0481179 2.09575e-22)
(0.190772 0.0482966 0)
(0.113983 0.0284626 1.0654e-22)
(0.114354 0.028556 -1.05104e-22)
(0.0554472 0.0137255 0)
(0.0555149 0.0137511 6.98409e-23)
(0.0556825 0.013793 7.22522e-23)
(0.0556194 0.0137755 -7.10166e-23)
(0.017954 0.00441193 5.32348e-23)
(0.017987 0.0044242 4.2148e-25)
(0.0180389 0.00443295 5.47762e-23)
(0.0179983 0.00442503 5.38053e-23)
(0.438398 0.115734 6.64963e-24)
(0.558423 0.150874 -3.5847e-22)
(0.655813 0.181036 0)
(0.725122 0.204405 2.84875e-22)
(0.761477 0.219144 -5.6107e-25)
(0.761955 0.223775 5.47827e-22)
(0.72669 0.217686 2.1719e-24)
(0.659012 0.201287 5.5008e-22)
(0.5648 0.175866 0)
(0.451297 0.143258 -1.1587e-24)
(0.325962 0.105529 -6.27141e-22)
(0.195341 0.0645556 6.2113e-23)
(0.0643778 0.0217749 7.35936e-22)
(0.298934 0.076919 3.88926e-24)
(0.188887 0.0477773 0)
(0.189489 0.0479588 4.13387e-22)
(0.113255 0.0282767 -1.96575e-22)
(0.113621 0.0283681 4.94642e-23)
(0.055095 0.0136389 6.5464e-23)
(0.0551649 0.0136637 6.60366e-23)
(0.0553258 0.0137023 1.231e-24)
(0.0552661 0.0136859 6.69363e-23)
(0.0178344 0.00438078 5.01062e-23)
(0.0178707 0.00439261 0)
(0.0179167 0.00440459 5.15814e-23)
(0.0178873 0.00440096 1.52956e-25)
(0.434122 0.114572 4.08335e-22)
(0.552811 0.149198 -2.49722e-24)
(0.649862 0.179145 -3.05733e-22)
(0.719609 0.202648 2.75432e-22)
(0.756594 0.217579 -5.39009e-22)
(0.757614 0.222344 0)
(0.722786 0.216359 -2.57317e-22)
(0.655521 0.200071 0)
(0.561732 0.174777 0)
(0.448735 0.142337 1.15849e-24)
(0.323987 0.104815 -1.26849e-21)
(0.194026 0.0640845 -6.81371e-22)
(0.063878 0.0216047 -6.93324e-22)
(0.29598 0.0761683 0)
(0.187463 0.0474054 1.90334e-22)
(0.188177 0.0476141 -1.96545e-22)
(0.112514 0.028086 -9.07619e-23)
(0.112897 0.0281821 -1.45476e-22)
(0.0547604 0.0135539 6.16852e-23)
(0.0548243 0.013579 -6.23296e-23)
(0.0549809 0.013617 0)
(0.0549235 0.0135986 -6.36779e-23)
(0.0177195 0.00435345 4.70841e-23)
(0.0177571 0.00436462 0)
(0.0177996 0.00437535 9.88987e-23)
(0.0177722 0.00437225 -4.90883e-23)
(0.428899 0.113116 0)
(0.546352 0.147185 2.49012e-24)
(0.643683 0.177221 -2.97887e-22)
(0.714203 0.20098 2.77733e-22)
(0.751831 0.216057 -4.03063e-24)
(0.753316 0.220914 0)
(0.718873 0.215015 -3.87396e-24)
(0.651981 0.198826 1.94036e-24)
(0.558618 0.173661 0)
(0.446122 0.141388 1.12873e-21)
(0.321971 0.104079 1.22976e-24)
(0.192658 0.0635887 1.38026e-24)
(0.0633645 0.0214326 3.27333e-23)
(0.291993 0.0751392 -1.01176e-22)
(0.185658 0.0469684 6.967e-25)
(0.186637 0.0472301 -6.96211e-25)
(0.111733 0.0278855 4.20758e-23)
(0.112163 0.0279893 4.89552e-25)
(0.0544263 0.0134697 8.76808e-25)
(0.0544949 0.0134957 5.31401e-25)
(0.0546454 0.013532 -6.04709e-23)
(0.0545908 0.0135152 0)
(0.0176163 0.00432703 0)
(0.017648 0.00433831 4.5512e-23)
(0.0176904 0.00434928 -4.63949e-23)
(0.0176632 0.00434461 -4.6374e-23)
(0.421991 0.111068 -3.13265e-22)
(0.53927 0.145013 0)
(0.637677 0.17546 2.24277e-24)
(0.70905 0.199397 0)
(0.747204 0.214558 3.80731e-24)
(0.749056 0.21948 0)
(0.714939 0.213651 1.89107e-24)
(0.648404 0.197554 -1.94018e-24)
(0.55546 0.172515 7.25666e-24)
(0.443476 0.140413 1.09611e-24)
(0.319874 0.103307 0)
(0.191278 0.0630926 -6.66779e-22)
(0.0628356 0.0212524 3.15421e-23)
(0.285014 0.0732955 3.63219e-22)
(0.182575 0.0462467 1.66135e-22)
(0.184402 0.0467297 -2.58817e-24)
(0.110788 0.0276578 3.98199e-23)
(0.111336 0.0277785 -4.01464e-23)
(0.0540971 0.0133883 0)
(0.0541667 0.0134138 -5.48154e-23)
(0.0543165 0.0134478 -5.71998e-23)
(0.0542632 0.0134301 5.66315e-23)
(0.0175085 0.00430079 8.42036e-23)
(0.0175441 0.00431263 8.59912e-23)
(0.0175826 0.0043221 4.411e-23)
(0.0175573 0.00431891 -4.37909e-23)
(0.41341 0.10851 2.81723e-22)
(0.532501 0.143153 0)
(0.632195 0.173856 4.09168e-24)
(0.704189 0.197872 -2.38775e-22)
(0.742699 0.21308 -1.84631e-24)
(0.744828 0.218042 0)
(0.710995 0.212267 0)
(0.644788 0.196252 -6.98941e-22)
(0.552252 0.171336 -4.96686e-22)
(0.440753 0.139403 1.05249e-24)
(0.317753 0.102521 0)
(0.189867 0.0625736 -6.66671e-22)
(0.0622886 0.0210665 7.33334e-22)
(0.272893 0.0699826 -2.61027e-22)
(0.174873 0.0441861 -3.63606e-24)
(0.179747 0.045711 -1.59269e-22)
(0.109098 0.0273003 0)
(0.110146 0.0275061 3.84813e-23)
(0.0537411 0.0133003 -4.91749e-23)
(0.0538276 0.0133292 -5.09856e-23)
(0.0539792 0.0133614 0)
(0.0539305 0.0133434 7.88914e-25)
(0.0174086 0.00427637 3.9422e-23)
(0.0174414 0.00428744 4.02403e-23)
(0.0174786 0.00429577 4.18026e-23)
(0.017453 0.00429201 0)
(0.405539 0.106467 -5.34076e-24)
(0.526816 0.141571 -2.923e-22)
(0.627284 0.172361 8.0342e-24)
(0.6996 0.196407 -3.40799e-24)
(0.738308 0.211621 0)
(0.740635 0.216598 0)
(0.707041 0.210862 2.17371e-22)
(0.64115 0.194924 4.52277e-22)
(0.549002 0.170129 9.37644e-25)
(0.438005 0.138366 -1.0523e-24)
(0.315563 0.101698 -6.14444e-22)
(0.188427 0.0620437 -6.75253e-22)
(0.0617238 0.0208696 7.46268e-22)
(0.263079 0.067467 1.19717e-23)
(0.156457 0.0398014 6.43333e-23)
(0.165883 0.0415212 -1.467e-22)
(0.103967 0.0260819 2.79181e-23)
(0.107473 0.0269759 1.40834e-22)
(0.0531475 0.013173 0)
(0.0533668 0.0132226 4.65414e-23)
(0.0536073 0.0132738 -7.21432e-25)
(0.053506 0.0132401 4.72912e-23)
(0.0173011 0.00425031 7.29375e-23)
(0.0173413 0.00426189 3.74546e-23)
(0.0173781 0.00427035 0)
(0.0173521 0.00426639 9.51639e-26)
(0.399885 0.104892 1.81425e-23)
(0.522116 0.140168 2.70597e-22)
(0.622809 0.170968 0)
(0.69522 0.194991 3.41304e-24)
(0.734014 0.210178 -1.94205e-22)
(0.736477 0.215148 -1.50237e-24)
(0.703085 0.209437 7.80105e-25)
(0.637481 0.193567 0)
(0.545718 0.168887 -9.37298e-25)
(0.435191 0.137295 1.04945e-21)
(0.313377 0.100866 5.91522e-25)
(0.186929 0.0614787 -6.84665e-22)
(0.0611158 0.0206696 0)
(0.258265 0.0658784 2.88018e-22)
(0.148168 0.0372943 1.40433e-22)
(0.150684 0.0381331 4.73266e-24)
(0.0781662 0.020219 -6.2132e-23)
(0.0924773 0.0226916 2.99587e-23)
(0.0494632 0.0120681 2.0918e-23)
(0.0514822 0.0129416 3.02537e-24)
(0.0528723 0.0131365 -3.51592e-25)
(0.0523704 0.0130412 -4.31661e-23)
(0.0171421 0.00421073 0)
(0.0172153 0.00422787 -3.94121e-25)
(0.0172767 0.0042468 -3.59656e-23)
(0.0172321 0.00423439 -1.269e-25)
(0.395841 0.103682 -2.86487e-22)
(0.518078 0.138938 2.37734e-22)
(0.618683 0.169676 -3.15765e-24)
(0.691025 0.193623 1.45416e-23)
(0.729821 0.20875 2.90095e-24)
(0.732359 0.213689 1.50313e-24)
(0.699137 0.20799 -1.5227e-24)
(0.633791 0.192177 0)
(0.542407 0.167617 -4.65703e-22)
(0.432349 0.136192 5.17263e-25)
(0.311099 0.0999892 -6.18211e-22)
(0.185359 0.0608979 0)
(0.0604811 0.0204566 -1.5629e-21)
(0.255599 0.0650873 2.58352e-22)
(0.145895 0.0364782 1.41858e-22)
(0.146716 0.0367346 -1.34439e-22)
(0.0720645 0.0178519 -1.41156e-22)
(0.073193 0.0184071 4.37425e-24)
(0.0185333 0.00497983 -2.45437e-23)
(0.0207398 0.00512612 2.30222e-23)
(0.0450898 0.010301 1.13926e-23)
(0.0303864 0.00510092 0)
(0.0158758 0.00404567 -7.27988e-23)
(0.0165977 0.0041496 -5.01379e-25)
(0.0170625 0.00419656 -3.29858e-23)
(0.0168983 0.00417065 8.90599e-25)
(0.39258 0.102726 -2.69783e-22)
(0.514461 0.137844 -2.12795e-22)
(0.614823 0.168457 1.87085e-23)
(0.686992 0.192287 0)
(0.725712 0.207327 -1.39574e-24)
(0.728281 0.212219 0)
(0.695195 0.206518 1.77447e-22)
(0.630093 0.190759 0)
(0.539065 0.166309 0)
(0.429464 0.135059 -2.4377e-24)
(0.308779 0.0990889 0)
(0.183747 0.0602943 1.50134e-21)
(0.0598433 0.0202366 -8.05941e-22)
(0.253648 0.0646216 -7.35624e-23)
(0.144807 0.0362629 -9.72004e-25)
(0.145236 0.0363563 1.29049e-22)
(0.0711597 0.0175719 -4.61492e-25)
(0.0715024 0.0176701 1.26537e-22)
(0.0168392 0.00413836 -3.16969e-23)
(0.0169091 0.00417618 -3.15316e-23)
(0.0173939 0.00439314 3.77671e-23)
(0.0169707 0.00423987 3.40527e-23)
(0.0147846 0.00372381 4.32875e-24)
(0.00836703 0.00129468 -3.57226e-23)
(0.389813 0.101935 2.43444e-22)
(0.511194 0.136852 1.78736e-23)
(0.611174 0.167289 0)
(0.683097 0.190977 0)
(0.721687 0.205908 -1.48048e-22)
(0.724244 0.210735 -1.71944e-22)
(0.691261 0.20502 6.77647e-25)
(0.626383 0.189307 0)
(0.535691 0.164965 4.62272e-22)
(0.426511 0.133881 -5.28832e-22)
(0.306393 0.098152 -6.25565e-22)
(0.182083 0.0596612 0)
(0.0591493 0.020004 -8.51156e-22)
(0.251986 0.0642251 6.6334e-23)
(0.14397 0.0361035 0)
(0.144315 0.0361902 1.1517e-22)
(0.0707597 0.0175023 0)
(0.0709355 0.0175407 2.9186e-23)
(0.0167781 0.0041176 2.93335e-23)
(0.0167842 0.00412264 3.00156e-23)
(0.0168178 0.00413554 0)
(0.0168056 0.00412875 -3.0396e-23)
(0.387354 0.101231 2.2454e-22)
(0.508164 0.135923 -2.77373e-24)
(0.607706 0.166162 1.46771e-22)
(0.679321 0.189682 1.86911e-23)
(0.717739 0.204486 -1.33052e-22)
(0.720249 0.209232 -5.7409e-25)
(0.687344 0.203493 -1.58248e-22)
(0.62267 0.187819 0)
(0.532263 0.163576 2.37805e-23)
(0.423514 0.132664 0)
(0.303925 0.097172 0)
(0.180355 0.0590059 0)
(0.058438 0.0197678 -9.08645e-22)
(0.250532 0.0638558 0)
(0.143206 0.0359253 0)
(0.143526 0.0360206 -1.03266e-22)
(0.0704154 0.0174319 2.45047e-23)
(0.0705891 0.0174782 0)
(0.0167322 0.00410992 0)
(0.0167322 0.00411389 2.7482e-23)
(0.0167577 0.00411988 -5.79997e-23)
(0.0167583 0.00411598 2.23369e-25)
(0.38513 0.100589 1.58068e-24)
(0.505308 0.135034 -1.63267e-22)
(0.604374 0.165059 1.87269e-23)
(0.675648 0.188394 1.40068e-22)
(0.713863 0.203055 0)
(0.716297 0.207708 2.82317e-22)
(0.683445 0.201936 -1.48939e-22)
(0.618932 0.18629 5.79454e-22)
(0.528808 0.162145 4.49228e-25)
(0.420471 0.13141 -5.48421e-22)
(0.301406 0.0961602 0)
(0.178579 0.058328 0)
(0.0577034 0.0195215 9.95578e-22)
(0.249203 0.0635045 -7.34142e-25)
(0.142482 0.0357438 0)
(0.142779 0.0358369 0)
(0.0700686 0.0173503 2.17171e-23)
(0.0702427 0.017399 -3.75471e-25)
(0.0166591 0.00409027 -2.88084e-25)
(0.0166689 0.00409839 0)
(0.0167024 0.0041094 -2.619e-23)
(0.0166978 0.0041023 -2.54773e-23)
(0.383037 0.0999764 -1.17124e-24)
(0.502593 0.134177 1.42439e-22)
(0.601172 0.163976 0)
(0.672082 0.187112 -9.30004e-25)
(0.710057 0.201612 -1.29689e-22)
(0.712388 0.206159 1.44888e-22)
(0.679555 0.200342 -3.0939e-22)
(0.615179 0.18472 -1.75714e-22)
(0.525338 0.160676 4.81711e-22)
(0.417362 0.130106 0)
(0.298856 0.0951132 0)
(0.176711 0.0576041 -9.11727e-22)
(0.0569177 0.0192696 1.05024e-21)
(0.247948 0.0631642 4.2629e-25)
(0.1418 0.035567 -2.9719e-25)
(0.142078 0.0356595 2.97296e-25)
(0.069741 0.0172708 0)
(0.0699004 0.0173139 0)
(0.0165818 0.00407223 0)
(0.0165922 0.0040801 -2.19058e-23)
(0.0166269 0.0040896 -2.32984e-23)
(0.0166232 0.00408401 -2.261e-23)
(0.381068 0.099392 1.17059e-24)
(0.500015 0.133345 0)
(0.598079 0.162901 -8.62733e-23)
(0.668607 0.185824 -8.15412e-23)
(0.706325 0.200152 2.39565e-25)
(0.708521 0.204581 1.36992e-22)
(0.67568 0.198711 1.65274e-22)
(0.611431 0.183104 0)
(0.521818 0.15915 0)
(0.414215 0.128748 -5.85968e-22)
(0.296164 0.0939986 0)
(0.174755 0.0568671 0)
(0.0560768 0.0189652 1.16066e-21)
(0.246757 0.0628337 5.95408e-26)
(0.141139 0.0353955 2.49912e-25)
(0.141419 0.0354896 -2.50004e-25)
(0.0694142 0.0171904 0)
(0.0695793 0.0172343 0)
(0.016516 0.00405533 0)
(0.0165161 0.00406179 1.91002e-23)
(0.016552 0.00407062 2.04703e-23)
(0.0165455 0.00406502 -1.97811e-23)
(0.379197 0.0988263 1.02387e-22)
(0.49754 0.132525 1.74262e-22)
(0.595099 0.161829 8.80261e-23)
(0.665225 0.184525 0)
(0.702658 0.19867 1.87221e-25)
(0.704695 0.20297 0)
(0.671817 0.197033 0)
(0.607657 0.181435 0)
(0.518237 0.157561 5.14862e-22)
(0.41096 0.12733 0)
(0.293384 0.0928388 0)
(0.172687 0.0560978 -1.06336e-21)
(0.0553769 0.0185025 1.27657e-21)
(0.245627 0.0625194 -1.19936e-22)
(0.14052 0.0352292 2.26097e-25)
(0.140778 0.0353187 -4.0541e-25)
(0.0690983 0.0171114 0)
(0.0692567 0.0171571 0)
(0.0164364 0.00403775 -1.56306e-23)
(0.0164489 0.00404512 1.61698e-23)
(0.0164834 0.00405343 1.7567e-23)
(0.0164782 0.00404775 -1.67589e-23)
(0.377431 0.098282 -9.09886e-23)
(0.495183 0.131715 2.86295e-25)
(0.592222 0.160752 0)
(0.661928 0.183212 0)
(0.699056 0.197163 5.82987e-23)
(0.700909 0.201323 -8.38271e-23)
(0.667967 0.19531 -1.21543e-22)
(0.603849 0.17971 0)
(0.514621 0.15592 -4.93611e-25)
(0.407609 0.125841 0)
(0.290535 0.0916307 0)
(0.17045 0.0551562 -1.16943e-21)
(0.0557745 0.0181047 1.44987e-21)
(0.244558 0.0622301 -1.86283e-25)
(0.139923 0.035075 -3.11116e-25)
(0.140159 0.035155 4.90279e-25)
(0.0687978 0.0170338 0)
(0.0689531 0.0170762 1.15359e-23)
(0.0163667 0.00401929 -1.28047e-23)
(0.0163749 0.00402734 1.35079e-23)
(0.016411 0.0040386 0)
(0.0164025 0.00403073 0)
(0.375755 0.0977516 -4.45886e-23)
(0.492938 0.130904 -2.52547e-23)
(0.589456 0.159668 0)
(0.658719 0.181885 -6.0707e-23)
(0.695526 0.195632 8.43068e-23)
(0.697164 0.199635 4.44425e-23)
(0.664126 0.193536 0)
(0.600036 0.177926 0)
(0.510918 0.154201 4.94114e-22)
(0.404247 0.124285 0)
(0.287264 0.0902757 0)
(0.170377 0.0539553 6.71646e-23)
(0.049615 0.0152062 -6.08851e-23)
(0.243557 0.0619728 5.24833e-23)
(0.139342 0.0349427 0)
(0.139581 0.0350119 -2.90577e-23)
(0.0685133 0.016963 0)