/*--------------------------------*- C++ -*----------------------------------*\
| =========                 |                                                 |
| \\      /  F ield         | OpenFOAM: The Open Source CFD Toolbox           |
|  \\    /   O peration     | Version:  v1912                                 |
|   \\  /    A nd           | Website:  www.openfoam.com                      |
|    \\/     M anipulation  |                                                 |
\*---------------------------------------------------------------------------*/
FoamFile
{
    version     2.0;
    format      ascii;
    class       volVectorField;
    location    "130";
    object      U;
}
// * * * * * * * * * * * * * * * * * * * * * * * * * * * * * * * * * * * * * //

dimensions      [0 1 -1 0 0 0 0];


internalField   nonuniform List<vector> 
3673
(
(0.64822 -0.0255755 -1.6329e-21)
(0.974706 -0.0152757 -5.30819e-20)
(0.29827 -0.0525166 -3.81031e-24)
(1.01656 -0.0103784 2.47627e-20)
(0.765982 -0.0574369 -2.34514e-24)
(0.175359 -0.0543092 2.00954e-20)
(1.00676 -0.0138252 -1.92989e-37)
(0.961581 -0.0539736 1.55099e-24)
(0.568814 -0.0965696 -1.83788e-20)
(0.124632 -0.0461914 2.46807e-20)
(0.99952 -0.0164083 -2.6594e-41)
(1.00907 -0.052136 0)
(0.843853 -0.103788 -2.39391e-20)
(0.436187 -0.110426 -2.44148e-20)
(0.108124 -0.039976 2.87858e-20)
(0.997601 -0.0169876 -4.11031e-24)
(1.00892 -0.0519233 -7.05119e-24)
(0.969426 -0.100391 4.85861e-20)
(0.720355 -0.13812 2.55721e-20)
(0.364944 -0.110815 0)
(0.10479 -0.0374315 -3.1621e-20)
(0.99752 -0.0166049 -3.76819e-51)
(1.00222 -0.0520045 1.81124e-20)
(1.00427 -0.0965048 -2.60406e-20)
(0.898571 -0.144669 -2.24665e-20)
(0.625865 -0.15642 2.8648e-20)
(0.332621 -0.109199 3.43936e-20)
(0.105484 -0.0367629 0)
(0.99772 -0.0157494 0)
(0.998101 -0.0513497 1.77817e-21)
(1.00466 -0.0939123 0)
(0.976513 -0.143228 7.0865e-24)
(0.824644 -0.177722 3.77628e-21)
(0.566986 -0.165488 0)
(0.320025 -0.108419 0)
(0.107553 -0.0368287 0)
(0.997873 -0.014559 2.28926e-20)
(0.996094 -0.0496048 -2.01845e-20)
(0.998272 -0.0916331 0)
(0.996928 -0.139982 1.74964e-20)
(0.936169 -0.184382 -2.64177e-20)
(0.766042 -0.200072 0)
(0.535185 -0.169951 -7.49298e-24)
(0.316742 -0.108353 0)
(0.109762 -0.0370974 0)
(0.997985 -0.0130606 -2.30142e-20)
(0.994804 -0.04681 0)
(0.992845 -0.0887308 2.03693e-23)
(0.99529 -0.136676 -1.75392e-20)
(0.980583 -0.184526 0)
(0.896893 -0.216999 1.36649e-23)
(0.726942 -0.214065 6.82083e-24)
(0.520122 -0.171931 -3.14113e-20)
(0.317378 -0.108453 3.46569e-20)
(0.111452 -0.0373441 -6.97502e-24)
(0.998096 -0.0112386 0)
(0.993578 -0.0430102 0)
(0.988645 -0.0847343 -2.26752e-23)
(0.988573 -0.133182 -4.16844e-23)
(0.989678 -0.182689 -3.63216e-23)
(0.96193 -0.223536 0)
(0.866398 -0.240508 -1.43126e-23)
(0.703933 -0.221735 2.7686e-20)
(0.514116 -0.172403 5.4561e-22)
(0.319049 -0.10845 -3.28796e-20)
(0.112476 -0.0374947 1.35488e-23)
(0.998228 -0.00907923 -2.53825e-23)
(0.992267 -0.0381663 0)
(0.984731 -0.0793508 0)
(0.98152 -0.1289 2.3612e-23)
(0.985384 -0.180436 2.13911e-23)
(0.984125 -0.225683 1.83614e-23)
(0.946484 -0.254394 0)
(0.846148 -0.255334 0)
(0.691588 -0.224901 7.97886e-22)
(0.512207 -0.172023 -4.12226e-22)
(0.320461 -0.108293 0)
(0.112908 -0.0375236 -6.57335e-24)
(0.998392 -0.00659072 0)
(0.990907 -0.0322143 -2.79534e-20)
(0.980583 -0.0722997 0)
(0.974268 -0.123194 0)
(0.977098 -0.177741 0)
(0.985591 -0.226726 -2.22963e-20)
(0.981531 -0.26187 0)
(0.936445 -0.275658 1.30756e-23)
(0.833888 -0.26294 1.12435e-21)
(0.685197 -0.225403 2.50632e-20)
(0.511736 -0.171251 -2.66072e-20)
(0.321179 -0.107947 0)
(0.112818 -0.0374287 0)
(0.998596 -0.00381344 2.76495e-20)
(0.989596 -0.0251247 2.80321e-20)
(0.976118 -0.0632974 2.00309e-24)
(0.966192 -0.115427 0)
(0.966981 -0.173966 2.92757e-20)
(0.978711 -0.227724 2.25598e-20)
(0.991117 -0.267445 3.98156e-23)
(0.982865 -0.288151 -1.38261e-23)
(0.930744 -0.287777 -3.77778e-20)
(0.826508 -0.265798 0)
(0.681755 -0.224651 4.72926e-20)
(0.511464 -0.170243 0)
(0.321074 -0.107392 0)
(0.112308 -0.0372315 1.03906e-23)
(0.998846 -0.000828118 -5.56013e-20)
(0.988473 -0.0169514 -2.85231e-23)
(0.971512 -0.0521026 3.15405e-20)
(0.956985 -0.104927 3.31241e-20)
(0.954708 -0.168235 -2.96106e-20)
(0.96766 -0.228528 0)
(0.988804 -0.273445 0)
(1.00179 -0.297844 1.73567e-20)
(0.98633 -0.303792 1.26126e-20)
(0.92724 -0.29345 1.16345e-20)
(0.821889 -0.266177 -2.17023e-20)
(0.679639 -0.223304 5.16218e-24)
(0.510819 -0.169041 -2.29081e-20)
(0.32017 -0.106659 -2.45379e-20)
(0.111474 -0.0369566 -8.87343e-25)
(0.999143 0.00224243 2.79716e-20)
(0.98771 -0.00787041 3.00423e-20)
(0.967131 -0.0385846 -3.1436e-20)
(0.946771 -0.0909847 -6.85963e-20)
(0.939651 -0.159466 -6.71539e-23)
(0.952592 -0.228422 5.86663e-23)
(0.980381 -0.280691 0)
(1.00693 -0.308012 -1.7034e-20)
(1.0141 -0.315829 1.39067e-20)
(0.989398 -0.311699 -1.11681e-20)
(0.92484 -0.295579 0)
(0.818884 -0.265289 -2.03418e-20)
(0.67793 -0.22162 2.01874e-20)
(0.509526 -0.167694 2.08133e-20)
(0.318575 -0.105805 1.04642e-23)
(0.110428 -0.0366253 -9.63164e-24)
(0.999482 0.0052386 5.49344e-23)
(0.987495 0.00178913 -2.98823e-20)
(0.963508 -0.0228268 1.34754e-22)
(0.936089 -0.0729208 -2.0509e-21)
(0.921517 -0.146302 0)
(0.932386 -0.226302 -3.88688e-20)
(0.96667 -0.289313 -5.76776e-23)
(1.00543 -0.320399 3.36299e-23)
(1.02725 -0.32743 -1.36625e-20)
(1.02394 -0.324889 0)
(0.991517 -0.31538 0)
(0.923289 -0.295761 9.39608e-21)
(0.816672 -0.263685 -1.87169e-20)
(0.676059 -0.219778 1.35436e-23)
(0.50755 -0.166282 0)
(0.316448 -0.104858 -1.04955e-23)
(0.109234 -0.0362545 0)
(0.999847 0.00798099 0)
(0.987983 0.0115425 -5.69805e-23)
(0.961319 -0.00524708 -3.31375e-20)
(0.925977 -0.0502329 7.55327e-20)
(0.900516 -0.127006 -9.40228e-24)
(0.905696 -0.220572 3.98026e-20)
(0.946249 -0.299206 0)
(0.999415 -0.336083 0)
(1.03393 -0.340578 -3.26953e-23)
(1.04308 -0.336481 0)
(1.03089 -0.32938 -9.40323e-24)
(0.993288 -0.316656 9.1888e-21)
(0.922215 -0.29477 1.74817e-20)
(0.814632 -0.26175 8.73984e-24)
(0.673792 -0.217912 -8.78004e-24)
(0.504967 -0.164828 0)
(0.313921 -0.103848 -8.80923e-24)
(0.107943 -0.0358578 -1.61277e-20)
(1.00022 0.0102973 0)
(0.989238 0.0207881 -1.18242e-22)
(0.961256 0.0132997 3.29825e-20)
(0.9181 -0.0229285 -7.64516e-20)
(0.877592 -0.0993901 -4.71305e-20)
(0.871289 -0.208813 1.86449e-22)
(0.916643 -0.310203 0)
(0.988528 -0.356151 -2.41028e-20)
(1.03762 -0.356312 2.59766e-23)
(1.05521 -0.348462 0)
(1.05404 -0.340861 0)
(1.03638 -0.331271 9.08225e-25)
(0.994825 -0.316398 8.6013e-24)
(0.92117 -0.293177 -8.04121e-21)
(0.812447 -0.259738 -7.3881e-24)
(0.671075 -0.216075 0)
(0.501876 -0.163353 -7.60452e-24)
(0.311114 -0.102799 1.70667e-20)
(0.106607 -0.0354461 6.82795e-24)
(1.00056 0.0120524 2.46271e-20)
(0.991196 0.0288902 -2.74225e-20)
(0.963802 0.0315621 1.18859e-22)
(0.914613 0.00801516 7.56979e-20)
(0.855152 -0.0613173 4.56733e-20)
(0.828504 -0.186599 0)
(0.874105 -0.322177 0)
(0.971157 -0.381972 2.34846e-20)
(1.03911 -0.375081 2.56005e-23)
(1.06421 -0.361651 -4.69745e-24)
(1.06912 -0.351743 0)
(1.06255 -0.342642 0)
(1.0409 -0.331427 7.7726e-25)
(0.995895 -0.315303 1.46609e-23)
(0.919936 -0.291372 0)
(0.810002 -0.257763 1.45202e-20)
(0.667932 -0.214283 -6.78589e-24)
(0.498404 -0.16187 1.459e-23)
(0.308123 -0.101724 -7.4067e-24)
(0.105243 -0.0350263 -1.3144e-23)
(1.00084 0.0131737 -4.8195e-20)
(0.993657 0.0352983 1.30798e-21)
(0.968998 0.0480713 2.92659e-20)
(0.917301 0.0403523 -3.70391e-20)
(0.838584 -0.0126595 -8.30492e-22)
(0.778618 -0.145014 -6.5361e-20)
(0.811153 -0.333142 5.2542e-20)
(0.942404 -0.414598 -7.93419e-23)
(1.03631 -0.395971 -4.89437e-23)
(1.07001 -0.37551 -1.08491e-20)
(1.07963 -0.362476 -2.07488e-23)
(1.07943 -0.352505 0)
(1.06939 -0.34261 -7.91873e-21)
(1.04435 -0.330614 7.41471e-21)
(0.996451 -0.313856 -7.15709e-24)
(0.918447 -0.289537 -1.35061e-20)
(0.807249 -0.255858 6.21604e-24)
(0.664411 -0.212533 6.7905e-24)
(0.494634 -0.160381 -6.98514e-24)
(0.305007 -0.100639 7.43093e-24)
(0.103875 -0.0346051 -1.25279e-20)
(1.00105 0.0136604 2.35785e-20)
(0.996328 0.0396628 2.61428e-20)
(0.976325 0.061447 -2.90867e-20)
(0.926861 0.0707904 1.26232e-22)
(0.835816 0.0428734 4.49614e-20)
(0.729676 -0.073443 6.67522e-20)
(0.711903 -0.327478 -5.49427e-20)
(0.884437 -0.448491 -3.19011e-20)
(1.01668 -0.413611 7.88479e-23)
(1.06525 -0.38589 1.08048e-20)
(1.08313 -0.371186 -2.01682e-23)
(1.08951 -0.360725 0)
(1.08711 -0.351408 7.77188e-21)
(1.07449 -0.341555 6.60752e-25)
(1.04683 -0.329353 6.70797e-21)
(0.996539 -0.312286 0)
(0.916653 -0.287746 0)
(0.804181 -0.25403 1.22007e-20)
(0.660563 -0.210818 0)
(0.490649 -0.1589 0)
(0.301833 -0.0995585 1.31437e-20)
(0.102519 -0.0341864 5.80241e-24)
(1.00118 0.0135749 0)
(0.998901 0.0419059 -2.30733e-20)
(0.984774 0.0707276 -4.99167e-23)
(0.942587 0.095877 -2.97639e-20)
(0.849825 0.0985626 -8.33455e-20)
(0.701237 0.0265105 -6.26022e-20)
(0.560128 -0.263474 -4.2208e-20)
(0.749956 -0.452832 3.87688e-20)
(0.93806 -0.405601 0)
(1.02239 -0.3803 3.55568e-23)
(1.06541 -0.370327 8.9153e-21)
(1.0873 -0.36394 0)
(1.09512 -0.357021 7.41908e-21)
(1.09209 -0.349244 -6.4927e-24)
(1.07806 -0.339985 -6.55408e-21)
(1.04851 -0.327887 0)
(0.996169 -0.310709 5.88083e-21)
(0.914542 -0.286024 -5.6485e-21)
(0.800814 -0.252266 5.69455e-24)
(0.656462 -0.209138 -1.12453e-20)
(0.486528 -0.157431 -5.37537e-24)
(0.298633 -0.0984876 -5.29766e-25)
(0.101195 -0.0337771 -4.88458e-24)
(1.00123 0.0130161 0)
(1.00114 0.0421994 2.32771e-20)
(0.993168 0.0756117 -9.27982e-23)
(0.962113 0.113 2.91341e-20)
(0.880416 0.146151 7.15372e-20)
(0.708671 0.133957 5.7345e-20)
(0.530291 -0.0861966 3.71603e-20)
(0.497298 -0.00212303 9.34377e-22)
(0.53669 -0.463444 0)
(0.355078 -0.205704 7.42844e-20)
(0.382528 -0.381457 -3.69425e-22)
(0.807023 -0.384157 0)
(0.502341 -0.311396 -1.25674e-20)
(0.635342 -0.294236 0)
(0.875036 -0.327766 0)
(0.735183 -0.288878 0)
(0.988833 -0.342432 -9.37941e-21)
(1.053 -0.352531 7.93267e-21)
(1.08485 -0.354849 -7.43041e-21)
(1.09658 -0.352228 3.15191e-24)
(1.09478 -0.346471 6.26376e-21)
(1.08037 -0.338127 1.72821e-23)
(1.04944 -0.326361 -5.6616e-21)
(0.995357 -0.30916 -5.39823e-21)
(0.91212 -0.284361 -5.21402e-21)
(0.797177 -0.250554 1.01531e-20)
(0.652162 -0.20749 0)
(0.482325 -0.155987 4.51516e-25)
(0.295458 -0.0974373 -5.74292e-24)
(0.0999036 -0.0333774 -9.7708e-21)
(1.00123 0.0120941 -3.81148e-23)
(1.00292 0.0408676 0)
(1.00061 0.0764613 0)
(0.982104 0.121463 -1.97326e-22)
(0.920984 0.177921 -3.26954e-20)
(0.761969 0.229652 -3.9799e-22)
(0.490183 0.104188 0)
(0.515531 0.203927 -2.45111e-20)
(0.278334 -0.0750833 -3.72974e-20)
(0.28774 -0.319085 3.23301e-22)
(0.201211 -0.251333 -1.15673e-20)
(0.197039 -0.234737 8.70069e-21)
(0.167928 -0.154511 4.16931e-21)
(0.300923 -0.249661 -1.99186e-22)
(0.459088 -0.21473 3.72322e-23)
(0.256289 -0.107023 0)
(0.164966 -0.11391 -5.67639e-22)
(0.508132 -0.187726 -6.60709e-22)
(0.359079 -0.145875 -1.06858e-21)
(0.65368 -0.232357 0)
(0.791135 -0.261678 0)
(0.587029 -0.193713 -1.29527e-23)
(0.947128 -0.309336 -8.50582e-21)
(1.03339 -0.334749 0)
(1.0769 -0.345095 0)
(1.09476 -0.346779 -1.50898e-22)
(1.09557 -0.343308 0)
(1.08154 -0.336163 -1.11595e-23)
(1.0497 -0.324813 -1.05805e-23)
(0.994116 -0.307627 9.88893e-21)
(0.909386 -0.28274 4.78016e-21)
(0.793305 -0.248888 0)
(0.647726 -0.20588 0)
(0.47809 -0.154567 4.94445e-24)
(0.29232 -0.0964131 1.01661e-20)
(0.0986551 -0.0329896 9.01535e-21)
(1.00119 0.0109102 -3.59834e-23)
(1.00425 0.0382799 3.85136e-23)
(1.00666 0.0740567 0)
(0.99969 0.122312 0)
(0.961828 0.191461 1.88607e-22)
(0.849565 0.287545 7.05253e-22)
(0.558956 0.298721 2.34055e-20)
(0.622734 0.373526 -7.26422e-23)
(0.236905 0.0651054 0)
(0.345025 0.257698 8.2471e-23)
(0.318329 0.189675 0)
(0.0644135 -0.0933721 6.72715e-22)
(0.106358 -0.165249 7.87444e-21)
(0.115616 -0.156823 -3.82285e-21)
(0.0774496 -0.0975495 0)
(0.147884 -0.0587005 8.58927e-22)
(0.0847489 -0.0374204 -2.63312e-21)
(0.243806 -0.0760619 7.25754e-22)
(0.420783 -0.130882 0)
(0.288046 -0.0992747 1.00718e-21)
(0.540385 -0.166561 3.40419e-21)
(0.725038 -0.219365 -2.00331e-21)
(0.506456 -0.148945 0)
(0.367118 -0.108431 -1.15351e-23)
(0.905351 -0.28315 7.45659e-21)
(1.00942 -0.318252 -1.24332e-23)
(1.06528 -0.335115 -6.15376e-21)
(1.09042 -0.340934 4.86323e-24)
(1.09474 -0.340045 0)
(1.08174 -0.334133 9.42793e-24)
(1.04933 -0.32322 -4.7649e-21)
(0.992449 -0.306103 -4.53046e-21)
(0.906358 -0.28116 4.38526e-21)
(0.789246 -0.247267 4.02697e-24)
(0.643192 -0.204304 8.69914e-21)
(0.473861 -0.153185 0)
(0.289245 -0.0954173 -9.35187e-21)
(0.0974507 -0.0326151 -3.83026e-24)
(1.00111 0.00954799 0)
(1.00518 0.0347819 -1.8107e-20)
(1.01122 0.069272 0)
(1.01349 0.117409 -1.83627e-20)
(0.997858 0.189594 -1.89436e-20)
(0.938972 0.304776 2.08656e-20)
(0.70006 0.434653 0)
(0.783972 0.462948 -7.13552e-22)
(0.318887 0.355601 2.2094e-20)
(0.425777 0.468524 -2.01154e-20)
(0.0415452 -0.0431769 0)
(0.0311049 0.0113198 0)
(0.17108 0.157139 -1.1679e-20)
(0.193434 0.242904 1.14785e-20)
(0.0389292 -0.0777504 -1.46894e-20)
(0.105095 -0.0313972 5.76325e-22)
(0.21472 -0.0602927 1.45962e-23)
(0.0816159 -0.0223394 -3.97842e-23)
(0.199482 -0.0544607 9.35748e-22)
(0.332238 -0.0929421 -3.86969e-21)
(0.480183 -0.135874 -3.50582e-21)
(0.674659 -0.194865 -8.26522e-21)
(0.46065 -0.127205 2.03381e-22)
(0.307708 -0.0843371 0)
(0.175131 -0.047257 7.72946e-24)
(0.184965 -0.0498296 -1.54255e-23)
(0.865347 -0.262372 -6.99803e-21)
(0.983544 -0.303035 1.33232e-23)
(1.05127 -0.325148 -1.05871e-23)
(1.08416 -0.335218 -8.06606e-25)
(1.09267 -0.33673 9.20942e-24)
(1.08107 -0.332002 -1.80625e-23)
(1.04835 -0.321584 4.34488e-21)
(0.990374 -0.304588 -4.15658e-21)
(0.903072 -0.279613 7.86406e-24)
(0.78503 -0.245684 -1.57731e-20)
(0.638605 -0.202768 7.99566e-21)
(0.469666 -0.151838 0)
(0.286243 -0.0944545 -4.10606e-24)
(0.0962979 -0.0322547 3.85079e-24)
(1.00103 0.00807327 0)
(1.00578 0.0306633 1.10022e-21)
(1.01446 0.0628577 0)
(1.02352 0.108661 1.86284e-20)
(1.02533 0.177806 3.49816e-20)
(1.00786 0.291962 -4.81066e-21)
(0.90031 0.548051 -5.31766e-21)
(0.562171 0.558796 0)
(0.695534 0.613141 1.00923e-20)
(0.0648364 0.194833 2.66476e-21)
(0.10116 0.252271 0)
(0.208679 0.351892 -1.24512e-21)
(0.150235 0.305213 -8.80648e-22)
(0.031014 0.0725389 -3.71479e-22)
(0.0414956 0.133491 0)
(0.0696672 -0.0176526 0)
(0.0645989 -0.0161852 -6.02263e-22)
(0.165023 -0.0433177 1.0494e-21)
(0.158962 -0.0415959 -7.98834e-24)
(0.290567 -0.0770216 3.95181e-21)
(0.443096 -0.120863 -3.44388e-24)
(0.633317 -0.178767 5.84196e-21)
(0.428978 -0.115824 -3.39482e-21)
(0.277959 -0.0729257 2.37566e-21)
(0.147428 -0.0383789 0)
(0.152081 -0.0395363 -1.01882e-21)
(0.0566609 -0.0142467 -2.91775e-25)
(0.0601321 -0.014981 2.91011e-25)
(0.827458 -0.244907 6.53481e-21)
(0.95696 -0.288723 -7.3246e-25)
(1.03586 -0.316101 -9.15175e-24)
(1.07674 -0.329671 -4.82666e-21)
(1.08958 -0.333317 -1.76862e-23)
(1.07959 -0.329784 -4.24453e-21)
(1.04679 -0.319915 4.08175e-24)
(0.987925 -0.303079 3.89293e-24)
(0.899554 -0.278096 1.10287e-20)
(0.780696 -0.244141 1.17476e-22)
(0.633998 -0.201273 2.98379e-25)
(0.465525 -0.150532 3.5363e-24)
(0.283332 -0.0935243 3.30804e-25)
(0.0951932 -0.0319081 0)
(1.00093 0.00653531 0)
(1.00615 0.026152 2.56313e-20)
(1.01661 0.0553882 0)
(1.03044 0.097609 0)
(1.04398 0.160949 -2.47445e-21)
(1.05348 0.262154 -1.53469e-20)
(1.05259 0.495521 6.89798e-21)
(0.77208 0.695902 -1.54387e-22)
(0.965367 0.748992 2.85556e-21)
(0.279903 0.475699 -3.57183e-21)
(0.436135 0.587947 7.23949e-21)
(0.658923 0.687414 0)
(0.552905 0.63808 -2.86188e-21)
(0.0533194 -0.0132408 0)
(0.0513262 -0.0127701 6.20668e-25)
(0.142451 -0.0363486 -2.31319e-23)
(0.139665 -0.0355474 -1.05514e-21)
(0.267888 -0.0694471 -7.85807e-22)
(0.414893 -0.111679 4.93412e-23)
(0.595584 -0.165617 -7.27306e-21)
(0.402408 -0.107502 0)
(0.259259 -0.0671105 3.06827e-21)
(0.133977 -0.0339976 1.06597e-21)
(0.136239 -0.0346103 4.1531e-24)
(0.0474835 -0.0118558 2.54733e-24)
(0.0491918 -0.0122103 6.494e-22)
(0.790467 -0.228614 -1.26452e-23)
(0.930862 -0.276799 -2.07466e-23)
(1.02041 -0.307836 4.99116e-21)
(1.06861 -0.324213 0)
(1.08561 -0.329849 8.47927e-24)
(1.07737 -0.32751 3.65683e-24)
(1.04471 -0.318219 0)
(0.985134 -0.301576 -3.49671e-21)
(0.895835 -0.276607 -3.33236e-21)
(0.776266 -0.242636 -6.71813e-21)
(0.629393 -0.19982 2.71339e-25)
(0.461459 -0.149265 -6.80399e-24)
(0.280511 -0.0926264 7.57989e-21)
(0.0941326 -0.0315738 -3.02532e-24)
(1.00083 0.00497066 0)
(1.00632 0.0214188 -8.33441e-21)
(1.01793 0.0472886 0)
(1.03493 0.0853031 1.38516e-20)
(1.05579 0.14185 -1.40153e-20)
(1.08176 0.228133 0)
(1.12428 0.408231 -1.15075e-20)
(1.18197 0.632597 -1.63671e-21)
(0.461518 0.475537 0)
(0.600223 0.479369 -5.91675e-21)
(0.382911 0.326226 4.57307e-21)
(0.810615 0.499317 -3.419e-23)
(0.100529 0.202527 0)
(0.255192 0.350053 0)
(0.346946 0.373633 0)
(0.0458634 -0.0113358 -1.334e-21)
(0.0449762 -0.0111169 5.31538e-24)
(0.131143 -0.0330906 1.06036e-21)
(0.129549 -0.0325798 1.06719e-21)
(0.251392 -0.064754 2.24626e-21)
(0.388553 -0.103927 0)
(0.553851 -0.151001 1.61075e-21)
(0.373908 -0.0991169 0)
(0.243807 -0.0627873 -6.87134e-22)
(0.125665 -0.0316356 -1.04168e-21)
(0.127236 -0.0321352 2.0944e-21)
(0.0431788 -0.0106743 0)
(0.0439726 -0.0108638 -3.27142e-25)
(0.756357 -0.216018 -4.60503e-23)
(0.907308 -0.266592 2.10953e-23)
(1.0054 -0.30013 0)
(1.05991 -0.318909 -3.89877e-24)
(1.08087 -0.326379 -3.81005e-21)
(1.07449 -0.325199 -3.65041e-24)
(1.04215 -0.316499 3.3756e-21)
(0.982032 -0.300076 -3.21684e-21)
(0.891933 -0.275146 6.19633e-21)
(0.77176 -0.241169 -3.12851e-24)
(0.624805 -0.198405 3.15141e-24)
(0.457478 -0.148036 -6.3099e-21)
(0.277782 -0.0917557 3.22956e-24)
(0.0931104 -0.031251 6.08539e-21)
(1.00073 0.00340526 0)
(1.00637 0.0165867 1.48034e-23)
(1.01863 0.0388689 -1.22651e-23)
(1.03756 0.0724075 -1.40661e-20)
(1.0628 0.121953 0)
(1.09846 0.195528 0)
(1.15244 0.325419 6.94186e-21)
(1.32253 0.543959 3.07873e-24)
(0.826672 0.264071 0)
(1.17152 0.39571 6.6025e-23)
(0.187861 0.215099 2.2033e-22)
(0.209677 0.139784 0)
(0.612887 0.281215 5.59505e-23)
(0.237533 0.12103 5.7089e-21)
(0.0423217 -0.010433 -6.75828e-22)
(0.0418253 -0.0102893 0)
(0.123487 -0.0310911 -1.0072e-24)
(0.122186 -0.0306182 1.06243e-23)
(0.235859 -0.0606313 -1.38727e-21)
(0.353948 -0.0938296 -2.92896e-21)
(0.515489 -0.139718 0)
(0.328826 -0.084909 -2.84229e-21)
(0.226205 -0.0582272 1.04211e-23)
(0.118884 -0.0298228 5.34198e-24)
(0.12027 -0.0303201 3.85913e-24)
(0.0406095 -0.010003 0)
(0.0411755 -0.0101567 -6.66383e-22)
(0.728734 -0.205855 4.71671e-23)
(0.886329 -0.257604 1.82491e-23)
(0.990827 -0.293008 4.00005e-24)
(1.05081 -0.313803 3.87748e-21)
(1.07552 -0.322935 0)
(1.07104 -0.322862 -3.30787e-21)
(1.03916 -0.314761 0)
(0.978642 -0.298586 3.02335e-24)
(0.887865 -0.273715 2.92607e-24)
(0.767204 -0.23974 5.71907e-21)
(0.620267 -0.197026 -2.68025e-24)
(0.453587 -0.146834 0)
(0.275136 -0.0909124 -6.24398e-21)
(0.0921315 -0.0309401 5.53018e-21)
(1.00064 0.00185755 0)
(1.00632 0.011743 0)
(1.01889 0.030344 -1.44717e-23)
(1.03884 0.0593438 2.63693e-23)
(1.06651 0.102125 4.9201e-21)
(1.107 0.164802 0)
(1.16417 0.260163 -2.65406e-21)
(1.33808 0.43305 0)
(1.35237 0.35081 -5.14353e-20)
(0.19712 0.0520791 4.88318e-21)
(0.66015 0.167579 0)
(0.313271 0.078131 0)
(0.902323 0.167148 3.51603e-20)
(0.039966 -0.00984427 -6.51075e-22)
(0.0395362 -0.00971061 6.44987e-22)
(0.116926 -0.0294271 4.62876e-24)
(0.115424 -0.0288932 1.90013e-21)
(0.210772 -0.0543336 2.23522e-21)
(0.305691 -0.0799155 0)
(0.490944 -0.131515 0)
(0.294167 -0.0765782 0)
(0.176283 -0.0438098 0)
(0.110506 -0.0277875 1.82381e-21)
(0.11326 -0.0286148 -3.64101e-24)
(0.0385118 -0.00946662 6.26351e-22)
(0.0390004 -0.00961215 -6.14068e-25)
(0.706168 -0.19756 2.05078e-23)
(0.867278 -0.249689 -1.85042e-23)
(0.976672 -0.286417 -4.032e-24)
(1.0414 -0.308899 3.53712e-21)
(1.06963 -0.319524 0)
(1.06709 -0.320503 -2.86143e-24)
(1.03577 -0.313014 0)
(0.974984 -0.297115 -5.15668e-24)
(0.883661 -0.272314 -5.25957e-21)
(0.762624 -0.238335 -2.0384e-25)
(0.61577 -0.195667 2.06151e-25)
(0.449786 -0.145663 5.55111e-21)
(0.272576 -0.0900949 0)
(0.0911969 -0.0306424 -2.40424e-24)
(1.00055 0.00034086 0)
(1.0062 0.00694781 -7.54968e-21)
(1.01885 0.0218568 0)
(1.0392 0.046379 1.04087e-23)
(1.06797 0.0828753 -5.00919e-21)
(1.10998 0.135813 -2.85735e-21)
(1.16882 0.20921 -6.38829e-22)
(1.31002 0.333832 -3.09528e-23)
(1.48766 0.341661 3.66721e-20)
(1.03931 0.0997187 2.72534e-20)
(0.461515 0.0517122 4.70908e-22)
(0.179354 0.0101961 -1.07515e-20)
(0.605996 0.0141298 2.60334e-20)
(0.0379494 -0.00934344 3.38231e-24)
(0.037462 -0.00919622 -1.21075e-21)
(0.105379 -0.0270103 -8.8402e-22)
(0.0969936 -0.023259 4.41382e-22)
(0.151633 -0.0386708 6.31549e-22)
(0.286047 -0.0740718 0)
(0.473345 -0.125962 -1.54289e-21)
(0.280636 -0.0720871 0)
(0.144948 -0.0364844 -5.84801e-22)
(0.0431309 -0.0116896 -1.89258e-22)
(0.0651517 -0.0121039 -2.8191e-22)
(0.035988 -0.00886928 -5.8317e-22)
(0.0368491 -0.00909905 -5.95916e-22)
(0.686783 -0.190629 -5.11487e-21)
(0.849724 -0.242615 0)
(0.962858 -0.280286 -3.71808e-21)
(1.03173 -0.304175 0)
(1.06328 -0.316136 0)
(1.06267 -0.318135 2.85586e-24)
(1.03201 -0.311279 0)
(0.971089 -0.29567 9.91115e-24)
(0.87934 -0.270927 0)
(0.758019 -0.236942 -2.45411e-24)
(0.611333 -0.194331 -4.80204e-21)
(0.446078 -0.144519 2.57454e-24)
(0.270113 -0.0893053 0)
(0.0902896 -0.0303533 2.41509e-24)
(1.00047 -0.00113421 0)
(1.00604 0.00224347 1.52276e-20)
(1.0186 0.0134963 -6.82819e-21)
(1.03895 0.0336667 0)
(1.06796 0.0644122 -1.69502e-23)
(1.10964 0.108741 2.92103e-21)
(1.16844 0.16741 6.69464e-22)
(1.279 0.255698 6.66899e-21)
(1.47627 0.291526 3.3388e-23)
(1.41989 0.164348 -9.49957e-20)
(0.674544 -0.0332291 -9.427e-20)
(0.370096 -0.0176977 3.98326e-20)
(0.31763 -0.0142962 0)
(0.0973325 -0.0164044 1.01105e-20)
(0.231606 -0.0239648 1.46328e-20)
(0.0340272 -0.00867913 9.83714e-24)
(0.0315225 -0.00826341 0)
(0.037588 -0.00957051 -5.16919e-22)
(0.0350286 -0.00888989 -6.40915e-22)
(0.141301 -0.0353977 -6.372e-22)
(0.275136 -0.0709495 2.64014e-21)
(0.458837 -0.121725 5.79157e-21)
(0.27121 -0.0695834 0)
(0.138511 -0.0346121 5.90675e-22)
(0.0339394 -0.00831524 0)
(0.0342974 -0.00854791 6.08646e-22)
(0.018147 -0.00320563 1.0395e-22)
(0.669679 -0.184541 0)
(0.833214 -0.236192 -7.49049e-24)
(0.94925 -0.274529 0)
(1.02182 -0.299571 0)
(1.05651 -0.312772 0)
(1.05782 -0.315796 2.59944e-21)
(1.02793 -0.309581 2.46274e-21)
(0.966987 -0.294232 -4.75642e-24)
(0.874916 -0.269538 0)
(0.753403 -0.235552 2.09666e-24)
(0.606957 -0.193013 4.56706e-21)
(0.442469 -0.143401 0)
(0.267718 -0.0885388 -2.3688e-24)
(0.0894235 -0.0300764 2.06959e-24)
(1.00039 -0.00255785 7.89264e-21)
(1.00585 -0.00233902 -7.68242e-21)
(1.01821 0.00531746 6.94081e-21)
(1.03831 0.021284 -5.71523e-21)
(1.06703 0.0467695 0)
(1.10751 0.0836473 6.6211e-24)
(1.16437 0.131546 0)
(1.25531 0.195954 -1.02313e-20)
(1.41926 0.234272 -1.25592e-23)
(1.53347 0.174333 8.03563e-21)
(1.20416 0.031571 5.48463e-20)
(0.481249 -0.0736584 -8.02848e-20)
(0.192822 -0.0281335 5.04211e-20)
(0.234114 -0.0472984 -2.06116e-20)
(0.117297 -0.00981499 0)
(0.158722 -0.0224689 1.47742e-23)
(0.0612357 -0.0134294 3.95768e-23)
(0.033511 -0.00828375 5.80601e-22)
(0.0333247 -0.00815564 -5.71358e-22)
(0.136069 -0.0340542 5.68119e-22)
(0.266588 -0.0687702 -2.44327e-21)
(0.446684 -0.1176 1.2961e-21)
(0.263118 -0.0676867 -1.78684e-23)
(0.133996 -0.0334935 5.66541e-22)
(0.0328023 -0.00801838 -5.53319e-22)
(0.032927 -0.00812843 -2.17648e-24)
(0.653916 -0.179132 -4.47244e-21)
(0.817299 -0.230261 7.55069e-24)
(0.935683 -0.26899 -2.99066e-24)
(1.01164 -0.295032 0)
(1.04935 -0.309483 -2.6011e-21)
(1.05262 -0.313541 -2.41864e-21)
(1.02358 -0.307902 -4.28319e-24)
(0.962704 -0.292778 -4.07029e-24)
(0.870399 -0.268133 1.96695e-24)
(0.748795 -0.234167 -4.07471e-21)
(0.602647 -0.191711 -4.22694e-21)
(0.438951 -0.142313 2.04114e-24)
(0.265412 -0.0877991 1.77452e-25)
(0.0885922 -0.0298089 -4.00026e-24)
(1.00032 -0.00391958 -7.9576e-21)
(1.00561 -0.00677213 0)
(1.0177 -0.00264483 7.91026e-25)
(1.03742 0.00926097 3.66664e-23)
(1.06558 0.0298982 3.23319e-24)
(1.10452 0.0603726 0)
(1.15828 0.0998598 1.55636e-24)
(1.23704 0.149036 3.08309e-22)
(1.36453 0.182693 7.4517e-21)
(1.5135 0.15659 5.8974e-20)
(1.46878 0.0672624 0)
(0.99751 -0.0435489 5.80083e-20)
(0.39975 -0.0723514 -2.07219e-20)
(0.182098 -0.0367946 -2.71985e-22)
(0.170018 -0.0456222 4.79381e-21)
(0.0625616 -0.00895491 -1.9915e-22)
(0.0665792 -0.0145407 -1.24601e-20)
(0.0773935 -0.0152228 1.30879e-20)
(0.0819801 -0.0232705 1.33634e-20)
(0.0226897 -0.00478841 0)
(0.0370431 -0.00978211 -9.51927e-21)
(0.032412 -0.0080049 -5.42731e-22)
(0.0322964 -0.00790301 -5.33922e-22)
(0.131877 -0.0330478 1.6171e-21)
(0.259526 -0.0672767 -2.31802e-21)
(0.435213 -0.114191 6.32579e-21)
(0.257496 -0.0656637 -1.97013e-21)
(0.129752 -0.0325837 0)
(0.0318347 -0.00778245 2.03536e-24)
(0.0319399 -0.00788753 -1.05119e-21)
(0.638808 -0.174146 -4.23037e-21)
(0.801556 -0.224575 -3.44135e-21)
(0.92195 -0.263494 2.99896e-24)
(1.00121 -0.290617 -5.01313e-24)
(1.04192 -0.306387 -3.2666e-25)
(1.04718 -0.311353 2.24823e-21)
(1.019 -0.306204 4.27775e-24)
(0.958251 -0.291293 4.06509e-24)
(0.86581 -0.266715 1.95004e-21)
(0.744195 -0.232785 3.76817e-21)
(0.598417 -0.190433 0)
(0.43554 -0.141253 -2.04331e-24)
(0.263181 -0.087082 2.20024e-24)
(0.0877937 -0.0295528 -3.88313e-21)
(1.00026 -0.00520583 0)
(1.00533 -0.011027 2.01728e-24)
(1.01708 -0.0103634 0)
(1.03637 -0.00240301 5.87708e-21)
(1.06386 0.0137149 4.27576e-21)
(1.10122 0.0386413 -4.25926e-24)
(1.15155 0.0713476 0)
(1.22148 0.110386 3.15641e-21)
(1.32339 0.139337 -1.45015e-20)
(1.45489 0.12878 -2.75534e-20)
(1.53277 0.0744615 6.55306e-23)
(1.3512 -0.0108749 0)
(0.845878 -0.0815652 -1.22253e-22)
(0.355199 -0.0663722 -8.16065e-20)
(0.169543 -0.0308487 -5.67125e-22)
(0.174403 -0.0400906 3.27533e-20)
(0.0908073 -0.0191338 -1.57728e-22)
(0.086632 -0.0208124 0)
(0.0749256 -0.0174914 -5.72944e-21)
(0.0613966 -0.0203839 0)
(0.010968 -0.00223287 8.18014e-21)
(0.0133834 -0.00389942 0)
(0.0168231 -0.00429444 -6.48313e-23)
(0.0144124 -0.00635899 -8.32148e-21)
(0.0314676 -0.00777666 5.04962e-22)
(0.0313535 -0.00767529 -4.98572e-22)
(0.127846 -0.0323303 2.44367e-21)
(0.252848 -0.0644329 -4.79401e-22)
(0.424416 -0.111126 5.90182e-21)
(0.250202 -0.0635112 -2.35153e-21)
(0.157821 -0.0419575 0)
(0.158013 -0.04082 6.02566e-22)
(0.0308354 -0.00756977 -1.87335e-24)
(0.0309758 -0.00765777 -4.88281e-22)
(0.623629 -0.169294 3.95891e-21)
(0.785352 -0.218786 0)
(0.908022 -0.258053 0)
(0.990705 -0.286582 5.02494e-24)
(1.03442 -0.303458 -2.26961e-21)
(1.04155 -0.30917 2.09189e-21)
(1.01421 -0.304474 0)
(0.953646 -0.289781 -1.83662e-21)
(0.861165 -0.265287 0)
(0.73963 -0.231411 0)
(0.594279 -0.189177 0)
(0.432226 -0.140222 -3.79695e-21)
(0.261027 -0.0863897 3.9294e-21)
(0.0870246 -0.0293068 -3.45189e-24)
(1.00019 -0.00639974 0)
(1.005 -0.0150678 -3.99458e-24)
(1.01635 -0.0178081 3.40529e-24)
(1.03517 -0.0137189 0)
(1.06202 -0.00188673 -8.8186e-21)
(1.09794 0.0181502 2.39826e-21)
(1.14507 0.0452972 1.08818e-24)
(1.20778 0.0772063 0)
(1.29303 0.102631 6.96032e-21)
(1.40009 0.100243 -1.17319e-23)
(1.50326 0.0660295 0)
(1.49978 0.0065923 -1.37675e-22)
(1.22938 -0.0645732 -4.32593e-20)
(0.74234 -0.0967712 6.21589e-20)
(0.334289 -0.064147 -9.67419e-20)
(0.156459 -0.0293622 3.40145e-20)
(0.157273 -0.0351465 -1.33042e-22)
(0.0617116 -0.0131814 -6.9667e-21)
(0.0895084 -0.0206203 -1.03436e-20)
(0.0893906 -0.0226165 1.01698e-20)
(0.043284 -0.0100949 -1.36364e-22)
(0.0411468 -0.00925973 0)
(0.0249376 -0.00335064 3.92089e-21)
(0.0119099 -0.00406317 -8.66326e-21)
(0.0305133 -0.00754534 -4.78234e-22)
(0.0302905 -0.00756446 -4.67968e-22)
(0.0936214 -0.0252172 -6.44654e-22)
(0.156884 -0.0397692 6.10926e-22)
(0.156359 -0.039254 0)
(0.247081 -0.0630418 3.5892e-24)
(0.413311 -0.108001 -1.0518e-21)
(0.244527 -0.0621497 -1.75776e-21)
(0.155519 -0.0390337 5.93916e-22)
(0.154858 -0.038773 5.8958e-22)
(0.093773 -0.024126 -1.08085e-21)
(0.607127 -0.164127 0)
(0.76847 -0.212578 0)
(0.89428 -0.253269 0)
(0.980527 -0.282872 8.80277e-24)
(1.02694 -0.300599 -2.10277e-21)
(1.03575 -0.306979 0)
(1.00923 -0.302718 0)
(0.948924 -0.288248 0)
(0.856491 -0.263848 0)
(0.735116 -0.230047 0)
(0.590229 -0.187945 6.64204e-21)
(0.429002 -0.139219 -1.63158e-24)
(0.258944 -0.0857237 -3.81368e-21)
(0.0862888 -0.0290697 3.36496e-21)
(1.00013 -0.00747864 4.44299e-24)
(1.0046 -0.0188462 8.43151e-24)
(1.01546 -0.0249376 3.99436e-24)
(1.03381 -0.0246927 -3.3806e-24)
(1.0601 -0.0170127 9.27149e-21)
(1.09485 -0.00140317 -5.03474e-21)
(1.13926 0.0211049 0)
(1.19603 0.0478158 0)
(1.26945 0.0705767 -5.57878e-21)
(1.35813 0.073642 0)
(1.45157 0.0514914 -1.24106e-20)
(1.51598 0.0104642 0)
(1.4411 -0.046588 3.85055e-20)
(1.12218 -0.0971772 -8.78232e-23)
(0.673834 -0.101429 6.19071e-20)
(0.319541 -0.06275 -3.71569e-20)
(0.160932 -0.0317844 -7.23941e-22)
(0.157028 -0.0349702 6.35287e-20)
(0.05806 -0.0132648 -2.94734e-20)
(0.0566251 -0.013508 7.19556e-21)
(0.0111758 -0.00238221 6.55518e-21)
(0.0447897 -0.0112837 -1.64616e-22)
(0.0113149 -0.00351856 0)
(0.0445278 -0.0115445 -8.5953e-21)
(0.0105841 -0.00301131 -6.13864e-21)
(0.0107057 -0.00304521 -6.07081e-21)
(0.00637568 -0.000856669 4.67482e-21)
(0.0305728 -0.0079416 4.51434e-22)
(0.0921288 -0.0231657 2.10067e-24)
(0.0915531 -0.022781 -5.37315e-22)
(0.153923 -0.0386966 5.75945e-22)
(0.153259 -0.0384818 5.65017e-22)
(0.241366 -0.061573 0)
(0.399809 -0.104348 -1.10136e-21)
(0.238299 -0.0604928 1.63567e-21)
(0.152339 -0.0383239 5.37878e-25)
(0.151601 -0.0380315 -5.38686e-25)
(0.0911126 -0.0226325 -1.05443e-21)
(0.090726 -0.0225092 -5.26101e-22)
(0.0305423 -0.00767801 4.0083e-22)
(0.587769 -0.157455 0)
(0.75194 -0.20743 0)
(0.881554 -0.249018 9.36399e-24)
(0.97079 -0.279332 2.16184e-21)
(1.01946 -0.297796 0)
(1.02978 -0.304792 3.37917e-24)
(1.00409 -0.300942 0)
(0.944111 -0.286693 1.60185e-21)
(0.851812 -0.262405 -1.55659e-21)
(0.730662 -0.228699 -3.0029e-21)
(0.586275 -0.186742 3.13823e-21)
(0.425873 -0.138246 3.15124e-21)
(0.256936 -0.0850796 -3.38355e-21)
(0.0855763 -0.0288397 -2.86962e-24)
(1.00007 -0.00841291 0)