/*--------------------------------*- C++ -*----------------------------------*\
| =========                 |                                                 |
| \\      /  F ield         | OpenFOAM: The Open Source CFD Toolbox           |
|  \\    /   O peration     | Version:  v1912                                 |
|   \\  /    A nd           | Website:  www.openfoam.com                      |
|    \\/     M anipulation  |                                                 |
\*---------------------------------------------------------------------------*/
FoamFile
{
    version     2.0;
    format      ascii;
    class       volVectorField;
    location    "310";
    object      U;
}
// * * * * * * * * * * * * * * * * * * * * * * * * * * * * * * * * * * * * * //

dimensions      [0 1 -1 0 0 0 0];


internalField   nonuniform List<vector> 
3754
(
(0.995633 0.00295692 9.20865e-23)
(0.996037 0.00861435 0)
(0.950793 0.011822 1.44169e-22)
(0.996665 0.0135872 0)
(0.955789 0.0334243 0)
(0.812846 0.0379782 -1.90307e-21)
(0.997173 0.0174481 0)
(0.965263 0.0511697 -1.11335e-20)
(0.842213 0.0991334 1.26317e-22)
(0.515376 0.0518896 1.04444e-21)
(0.531994 0.14699 8.99738e-22)
(0.997537 0.0199974 -1.50644e-22)
(0.977292 0.0634081 1.10757e-20)
(0.89306 0.145274 0)
(0.578819 0.23785 8.13077e-22)
(0.646647 0.306596 -3.4247e-21)
(0.117808 0.102301 -2.12488e-22)
(0.111638 0.0344717 2.1791e-22)
(0.15863 0.22654 0)
(0.132328 0.167279 0)
(0.997872 0.0213445 0)
(0.988768 0.0707982 4.65145e-22)
(0.93526 0.16693 0)
(0.719235 0.356802 2.57088e-21)
(0.802312 0.380845 -3.76796e-21)
(0.250688 0.31363 -1.09027e-22)
(0.198161 0.277177 2.19207e-21)
(0.479258 0.477574 -6.48864e-22)
(0.345733 0.411255 0)
(0.998253 0.0217418 0)
(0.997895 0.0742136 0)
(0.964794 0.167209 -1.49586e-22)
(0.95554 0.447596 -9.51382e-21)
(0.663112 0.551216 8.37743e-22)
(0.576446 0.518653 -7.73697e-22)
(0.78018 0.506325 0)
(0.296366 0.331726 -2.50471e-21)
(0.132986 0.20405 5.49335e-21)
(0.998673 0.0214397 0)
(1.00444 0.074422 -6.197e-23)
(0.987863 0.157958 0)
(1.06421 0.423554 1.20472e-20)
(0.891218 0.319161 -1.1815e-21)
(1.06411 0.388559 3.643e-21)
(0.557566 0.401536 1.00717e-21)
(0.399268 0.343438 -9.14336e-22)
(0.757642 0.378776 -1.98883e-21)
(0.534432 0.272083 1.70275e-21)
(0.999085 0.020623 -1.33296e-23)
(1.00893 0.0721004 0)
(1.00691 0.146275 5.5337e-23)
(1.10771 0.371792 0)
(1.19026 0.30963 -2.22857e-21)
(0.631064 0.0926006 -7.07663e-21)
(0.545555 0.14602 2.12037e-21)
(0.922418 0.143592 7.65526e-21)
(0.240974 0.150321 0)
(0.250419 0.0825042 0)
(0.999445 0.0194089 2.50312e-20)
(1.01203 0.0678654 1.44663e-23)
(1.02259 0.134156 1.76942e-23)
(1.12062 0.314983 -5.8929e-21)
(1.28806 0.299674 0)
(1.01825 0.142166 1.53066e-20)
(0.424662 0.0225087 -4.311e-22)
(0.272107 0.0193296 1.74855e-22)
(0.37589 0.0484149 -1.38403e-22)
(0.72669 0.07025 0)
(0.133689 0.00951481 -2.97384e-23)
(0.999736 0.0178791 -2.46547e-20)
(1.01427 0.0622628 0)
(1.03472 0.121776 0)
(1.12351 0.265574 1.08252e-20)
(1.30486 0.275504 8.80382e-24)
(1.27011 0.177943 -1.44603e-20)
(0.828088 0.0511937 -1.542e-20)
(0.581254 0.053386 4.01912e-21)
(0.202072 0.00143903 1.68081e-22)
(0.324057 0.020656 -3.59901e-21)
(0.187027 0.00516161 3.35215e-22)
(0.0827285 0.00206377 7.02822e-23)
(0.999959 0.0161004 0)
(1.01598 0.0557143 -2.23115e-20)
(1.04353 0.109021 0)
(1.12448 0.223695 -4.84263e-21)
(1.29067 0.246149 0)
(1.3596 0.18642 -2.28067e-20)
(1.15931 0.103422 4.06282e-20)
(0.738101 0.0233049 -3.06511e-20)
(0.465677 0.0147561 0)
(0.49552 0.0169006 1.62178e-23)
(0.0584864 -0.000852762 -1.56289e-22)
(0.268449 0.00405122 -2.02376e-22)
(0.139559 0.00727418 6.6176e-22)
(0.159394 0.00394292 -1.69188e-22)
(0.0578444 0.000227264 -9.71944e-23)
(1.00012 0.0141233 2.35254e-24)
(1.01733 0.0485002 4.18891e-20)
(1.04976 0.0958846 1.47896e-20)
(1.1253 0.187532 0)
(1.2701 0.215155 -3.67597e-24)
(1.37068 0.180007 2.07351e-21)
(1.32162 0.129889 -2.4817e-20)
(1.06872 0.067832 2.77073e-20)
(0.701799 0.020136 -3.83019e-21)
(0.452098 0.00911655 4.35244e-22)
(0.447604 0.00336676 -4.38137e-22)
(0.254103 0.00303331 -4.10843e-22)
(0.121415 -0.00125107 -6.0907e-22)
(0.119401 0.00210232 1.04843e-21)
(0.0413653 0.000821044 1.50337e-24)
(0.0497173 0.000176641 -1.48917e-24)
(1.00022 0.0119854 0)
(1.01847 0.0407928 -1.96527e-20)
(1.05418 0.0824755 -1.45531e-20)
(1.12598 0.155824 2.25988e-21)
(1.25203 0.185513 0)
(1.35466 0.165822 2.17908e-20)
(1.37429 0.137205 0)
(1.26827 0.0985766 -5.91923e-24)
(1.00683 0.0522442 2.80035e-20)
(0.672576 0.0212343 3.84295e-21)
(0.454708 0.00970824 6.63305e-21)
(0.456024 0.00644665 0)
(0.270627 0.00285695 -5.72168e-21)
(0.251802 -0.000598765 -3.12327e-24)
(0.114368 0.00192365 2.85901e-22)
(0.115679 -0.000755531 5.80181e-22)
(0.03552 -0.000506928 8.6874e-23)
(0.0361684 0.000261585 -1.68443e-22)
(1.00027 0.00971308 0)
(1.01949 0.0326978 1.63914e-24)
(1.05738 0.0688738 0)
(1.12658 0.127438 -2.39279e-21)
(1.2382 0.157987 4.43413e-24)
(1.33427 0.149608 0)
(1.37709 0.13402 -5.49016e-24)
(1.35471 0.113579 0)
(1.2196 0.0815402 -2.50278e-20)
(0.957811 0.0467375 0)
(0.641346 0.0211464 1.63885e-20)
(0.43874 0.00830913 -4.21789e-22)
(0.445144 0.00826008 -6.17431e-21)
(0.296131 0.00362474 -1.02972e-21)
(0.293003 0.00179738 -3.36615e-22)
(0.151495 0.00413521 1.66466e-20)
(0.131729 -0.00161115 0)
(0.113404 -0.0016038 0)
(0.120418 0.000344823 -2.21722e-21)
(0.0346363 0.000271462 -1.6112e-22)
(0.0352589 -0.000243284 0)
(1.00027 0.00732022 0)
(1.0205 0.0242751 0)
(1.05981 0.0551161 -9.04134e-21)
(1.12731 0.101413 0)
(1.22835 0.132232 0)
(1.31682 0.133389 -3.8968e-20)
(1.36435 0.126763 0)
(1.3768 0.117692 2.26485e-20)
(1.32922 0.100164 0)
(1.17419 0.0733028 2.47292e-20)
(0.915635 0.0438321 0)
(0.346425 0.00540985 -2.00035e-20)
(0.613631 0.020723 -1.60355e-20)
(0.285586 0.00203896 -1.049e-21)
(0.29225 0.00359149 -3.44076e-22)
(0.181211 0.00176556 0)
(0.180802 0.000945742 3.11657e-21)
(0.172211 -0.000316697 1.89625e-24)
(0.179153 0.0010305 -1.22589e-22)
(0.0674456 0.00386218 -1.60338e-20)
(0.0446882 -0.000525924 1.56207e-21)
(0.0347201 -0.00037812 0)
(0.0386789 -7.46027e-05 7.03737e-24)
(1.00023 0.00481182 4.65461e-25)
(1.02156 0.015553 0)
(1.06179 0.0412332 8.74182e-21)
(1.12849 0.0769511 0)
(1.22212 0.107836 2.12954e-20)
(1.30379 0.117476 3.93809e-20)
(1.35018 0.11827 -4.45692e-20)
(1.37281 0.116308 -6.8746e-20)
(1.36819 0.108758 0)
(1.29957 0.0932191 -2.3302e-20)
(1.1322 0.0688889 0)
(0.879016 0.0424631 2.6878e-20)
(0.32837 0.00516223 1.82114e-20)
(0.127439 0.00189324 3.09259e-21)
(0.12993 -0.000680395 -9.12913e-22)
(0.595322 0.0223763 -3.09527e-20)
(0.17206 0.000450205 1.03894e-21)
(0.173936 0.00115512 5.09116e-22)
(0.178874 0.00112443 -1.25519e-22)
(0.17785 0.00171229 1.13758e-21)
(0.104664 0.000514893 0)
(0.104835 0.000315992 -8.57702e-22)
(0.0979626 -0.000300434 3.26951e-21)
(0.103122 0.000266813 -8.38754e-22)
(0.0187141 0.00102434 4.33722e-21)
(1.00016 0.00218007 0)
(1.02275 0.00654081 -1.42754e-20)
(1.06349 0.0272273 -6.82613e-21)
(1.13039 0.0533166 -2.83766e-24)
(1.2194 0.0844346 -2.03304e-20)
(1.29529 0.101948 -9.86175e-24)
(1.33886 0.109526 4.40992e-20)
(1.36226 0.112752 1.30433e-22)
(1.37278 0.111245 0)
(1.35295 0.10441 0)
(1.2682 0.0894173 0)
(1.09402 0.0664557 -2.37402e-20)
(0.848385 0.0428282 2.62778e-20)
(0.332805 0.00672614 -1.69684e-23)
(0.123089 0.00168665 0)
(0.121588 -0.000520961 -1.02887e-22)
(0.0291435 0.000421782 1.58728e-22)
(0.0293587 3.23322e-05 0)
(0.0299142 8.25731e-05 7.9914e-23)
(0.0299912 -0.000503616 0)
(0.0990078 -0.000408661 0)
(0.578281 0.0212846 -1.54374e-20)
(0.101002 0.000635973 -4.35379e-22)
(0.103323 0.000366279 2.15432e-22)
(0.10259 0.000526326 0)
(0.0332218 2.3798e-05 0)
(0.0334305 9.10648e-06 0)
(0.0315331 -0.000574473 -2.22056e-21)
(0.0328239 -8.41101e-05 5.63244e-22)
(1.00008 -0.000591833 3.11957e-20)
(1.02415 -0.00274883 2.78778e-20)
(1.06502 0.0130629 6.61171e-21)
(1.13326 0.029764 -2.901e-24)
(1.22022 0.0616702 9.55643e-24)
(1.29128 0.0868475 -1.63168e-23)
(1.33137 0.100948 4.29637e-20)
(1.35254 0.108584 4.49903e-20)
(1.36572 0.111001 -4.59289e-20)
(1.36602 0.109378 0)
(1.33354 0.102335 2.65076e-24)
(1.23721 0.0870537 2.64274e-24)
(1.0599 0.0653469 0)
(0.820842 0.040865 3.20796e-24)
(0.331405 0.00746662 1.27299e-20)
(0.159373 0.000893695 -3.69498e-22)
(0.137882 0.00103341 6.71813e-21)
(0.0296256 0.000430625 -1.38805e-21)
(0.0276336 -0.00013204 8.11959e-23)
(0.0279511 2.28005e-05 -7.86113e-23)
(0.0279218 -0.000391542 7.8807e-23)
(0.0311522 -0.000283087 -1.8272e-23)
(0.556346 0.0202372 -1.50634e-20)
(0.0320612 6.80973e-05 1.81021e-23)
(0.0328 8.70565e-06 -1.53238e-22)
(0.0325798 3.70315e-05 9.06803e-24)
(1.00001 -0.0035281 -3.0721e-20)
(1.02581 -0.0122896 -4.13496e-20)
(1.06631 -0.00134129 0)
(1.13733 0.0055627 0)
(1.22474 0.0392068 -3.96061e-24)
(1.29186 0.0722129 3.55676e-20)
(1.32793 0.092731 -4.19201e-20)
(1.3458 0.104444 0)
(1.35718 0.109881 4.53531e-20)
(1.36276 0.11125 2.72317e-24)
(1.35466 0.109072 0)
(1.31241 0.101057 -2.13756e-20)
(1.20775 0.0854624 -2.66255e-24)
(1.02883 0.0627858 2.26905e-20)
(0.792778 0.0388753 0)
(0.316397 0.00701898 1.88911e-20)
(0.157279 0.00301133 0)
(0.160295 0.00114064 6.77144e-21)
(0.0774045 0.000254415 0)
(0.0723302 0.000122207 5.48947e-23)
(0.0496265 0.00291597 -5.63679e-21)
(0.0335639 -0.000601002 1.60922e-21)
(0.534264 0.0191521 0)
(1.00001 -0.00665066 0)
(1.02772 -0.0220148 2.70756e-20)
(1.06719 -0.0161144 0)
(1.14283 -0.0200409 0)
(1.23326 0.0167487 -6.81765e-24)
(1.29718 0.0581047 -7.01038e-20)
(1.32873 0.0850085 4.22262e-20)
(1.34262 0.100616 -1.08341e-23)
(1.35067 0.108682 0)
(1.35552 0.112017 5.50349e-24)
(1.35533 0.112374 -2.71761e-24)
(1.34103 0.109068 2.11786e-20)
(1.29103 0.0999814 0)
(1.17993 0.082854 -2.0886e-20)
(0.9988 0.0600422 -2.20869e-20)
(0.765848 0.0370683 0)
(0.300578 0.00625344 -7.90966e-24)
(0.147068 0.00277876 -2.8283e-21)
(0.150804 0.00070665 -3.74888e-22)
(0.0738691 0.00102886 1.17406e-22)
(0.0751958 0.000423632 2.35461e-22)
(0.0770421 0.000620073 -2.33168e-22)
(0.0773142 0.00013957 -9.2575e-22)
(0.0244701 -4.41753e-05 0)
(0.0232311 -0.000502367 0)
(0.0137514 0.000831957 0)
(0.515378 0.0179402 0)
(1.00015 -0.00996198 -3.27758e-20)
(1.02976 -0.0318054 -2.88134e-20)
(1.0673 -0.0314788 1.09673e-20)
(1.15013 -0.0479042 -5.90914e-21)
(1.24633 -0.00598996 2.22096e-20)
(1.30757 0.0446025 3.45328e-20)
(1.33399 0.0779209 -4.11568e-20)
(1.3433 0.0972792 1.04464e-23)
(1.34733 0.107756 1.08342e-23)
(1.34926 0.112622 0)
(1.34955 0.114291 -2.61144e-24)
(1.34571 0.113377 -4.2277e-20)
(1.32653 0.108831 4.07836e-20)
(1.26989 0.0979665 1.99313e-20)
(1.15284 0.0798878 4.04707e-20)
(0.970302 0.0575236 0)
(0.741897 0.0352402 2.39117e-20)
(0.287857 0.00569353 4.04484e-21)
(0.138424 0.00247774 0)
(0.141296 0.000375121 1.86079e-22)
(0.068357 0.000945517 0)
(0.0694404 0.000258557 1.1523e-22)
(0.0709104 0.00055362 0)
(0.0716499 -6.44204e-05 -2.32292e-22)
(0.0230767 0.000114978 -6.79443e-23)
(0.0237631 -5.91614e-06 -1.01938e-22)
(0.0244674 7.47639e-05 1.02081e-22)
(0.0246559 -4.49883e-06 0)
(0.502648 0.0179017 -2.75204e-20)
(1.00051 -0.0134237 3.22728e-20)
(1.0316 -0.041505 2.8155e-20)
(1.06621 -0.0478439 9.01024e-22)
(1.15999 -0.0790623 5.61646e-21)
(1.26494 -0.029269 -6.84395e-20)
(1.32367 0.0317942 0)
(1.34413 0.0716171 9.4012e-25)
(1.34815 0.0945985 0)
(1.34764 0.107305 4.48352e-20)
(1.34575 0.113479 4.45471e-20)
(1.34361 0.11591 0)
(1.34153 0.116019 4.18913e-20)
(1.33522 0.11383 -8.10799e-20)
(1.31163 0.107637 -1.96199e-20)
(1.24871 0.0953806 -1.92707e-20)
(1.1268 0.0770332 0)
(0.944279 0.0550819 -2.08666e-20)
(0.721898 0.0342559 2.32262e-20)
(0.285055 0.00602364 0)
(0.132165 0.00239468 -5.87753e-21)
(0.133725 0.00026936 0)
(0.0640802 0.000851639 0)
(0.0648992 0.000180461 -1.13839e-22)
(0.0660297 0.000472298 -1.14179e-22)
(0.0665631 -0.000167946 0)
(0.0212337 0.0001048 0)
(0.0217941 -3.09691e-05 6.69259e-23)
(0.0223125 7.78623e-05 0)
(0.0224391 -4.09825e-05 1.34613e-22)
(0.493781 0.0171094 2.67964e-20)
(1.00108 -0.0169419 -3.59506e-20)
(1.03272 -0.0509662 -3.16789e-20)
(1.06375 -0.0659014 -1.11683e-20)
(1.17388 -0.114773 3.44541e-21)
(1.29069 -0.0532841 -6.23395e-21)
(1.34651 0.0198044 -7.87016e-20)
(1.35985 0.066268 -4.34346e-20)
(1.35769 0.0927421 -1.05227e-23)
(1.35203 0.107492 -4.40368e-20)
(1.34574 0.114794 -4.39487e-20)
(1.34001 0.117725 1.03078e-23)
(1.33601 0.118193 -4.17292e-20)
(1.3328 0.116928 -4.71674e-23)
(1.3243 0.113304 -2.42022e-24)
(1.29628 0.105711 0)
(1.2278 0.0926887 0)
(1.10243 0.0742259 0)
(0.92106 0.0531434 0)
(0.704992 0.0327325 2.25491e-20)
(0.289631 0.00598159 -2.94061e-20)
(0.140316 0.00308958 3.50842e-22)
(0.132031 -0.000184763 2.52934e-21)
(0.0608859 0.000801419 -4.45349e-22)
(0.0612061 0.000160236 0)
(0.0621668 0.000452747 0)
(0.0625611 -0.000167987 -1.1151e-22)
(0.0198678 9.52884e-05 0)
(0.0203158 -3.68574e-05 0)
(0.02071 7.33698e-05 3.30182e-23)
(0.0207499 -5.20523e-05 -3.28151e-23)
(0.482668 0.0164252 2.6123e-20)
(1.00182 -0.0203788 3.53783e-20)
(1.03253 -0.0601264 -2.76119e-21)
(1.06027 -0.0866049 2.91241e-24)
(1.19381 -0.156405 -3.24324e-21)
(1.32521 -0.0780703 4.86645e-20)
(1.37705 0.00885862 -7.37632e-21)
(1.38183 0.0620884 4.2129e-20)
(1.37253 0.0919071 3.20263e-23)
(1.36102 0.108483 -4.4749e-20)
(1.34977 0.11671 4.41345e-20)
(1.3398 0.119964 4.29299e-20)
(1.33239 0.120481 8.27413e-20)
(1.32782 0.119391 3.98689e-20)
(1.3238 0.116814 3.84302e-20)
(1.31297 0.111965 -4.43596e-24)
(1.28076 0.103473 0)
(1.20772 0.0899194 0)
(1.07995 0.0716688 0)
(0.900332 0.0508933 -3.92921e-20)
(0.688381 0.0311325 -2.20116e-20)
(0.284893 0.00622319 -6.95259e-24)
(0.155646 0.00279112 0)
(0.152272 0.000672258 -2.60036e-21)
(0.0773986 0.00265737 -6.85736e-21)
(0.0680079 -0.000272493 0)
(0.0632698 0.000196521 -7.15355e-21)
(0.0606507 -0.000472802 0)
(0.0187723 8.3433e-05 2.57423e-22)
(0.0191028 -3.69341e-05 0)
(0.0194533 7.39386e-05 -3.23547e-23)
(0.0194688 -4.70868e-05 9.67069e-23)
(0.469718 0.0157325 -6.07554e-24)
(1.00256 -0.0235665 0)
(1.03058 -0.0690282 3.32083e-20)
(1.05682 -0.11093 3.82841e-24)
(1.22106 -0.205096 -2.42407e-24)
(1.36855 -0.10342 6.39879e-20)
(1.41438 -0.000580499 7.98931e-20)
(1.40942 0.0593991 0)
(1.39251 0.0923435 2.15775e-23)
(1.37484 0.110468 8.85846e-20)
(1.35822 0.11937 -4.3399e-20)
(1.34357 0.122762 -4.23777e-20)
(1.33207 0.123147 -4.09707e-20)
(1.32429 0.121881 -3.9562e-20)
(1.31953 0.119492 -3.80946e-20)
(1.31459 0.115842 0)
(1.30143 0.110173 4.4187e-24)
(1.26552 0.101017 0)
(1.18873 0.087193 0)
(1.0593 0.0689248 7.72484e-23)
(0.88083 0.0485506 0)
(0.671743 0.0297148 0)
(0.275849 0.00604923 7.07864e-24)
(0.151683 0.00308806 9.14654e-24)
(0.153832 0.00116296 -1.29601e-21)
(0.0934953 0.0012921 0)
(0.0932091 0.000623161 1.03034e-22)
(0.091769 0.00053522 -1.00855e-22)
(0.0880794 -0.000176323 3.20768e-21)
(0.0338113 0.00233068 4.40071e-21)
(0.022869 -0.000220964 0)
(0.020443 -8.12572e-05 2.0956e-21)
(0.0188326 -0.000127537 1.2953e-22)
(0.456957 0.0149681 -1.23221e-20)
(1.00309 -0.0263007 -1.66429e-22)
(1.02671 -0.0776986 0)
(1.05411 -0.139645 2.09535e-20)
(1.25383 -0.261689 -4.89397e-22)
(1.41586 -0.128109 -6.08881e-20)
(1.45244 -0.00777105 -1.9592e-23)
(1.43765 0.0586802 9.37837e-20)
(1.41457 0.0943511 -2.15601e-23)
(1.39201 0.113659 -1.33622e-19)
(1.37066 0.122925 4.37774e-20)
(1.35145 0.126241 -2.10165e-23)
(1.33564 0.126336 3.96903e-23)
(1.32392 0.124706 3.91186e-20)
(1.3162 0.12208 -3.76699e-20)
(1.31124 0.118694 0)
(1.30533 0.114334 0)
(1.29001 0.108067 -3.36647e-20)
(1.25083 0.0984434 0)
(1.17089 0.0843028 1.65625e-20)
(1.03994 0.0661049 1.70688e-20)
(0.862198 0.0464298 0)
(0.655975 0.0283917 0)
(0.266671 0.00558878 1.20738e-20)
(0.145907 0.00272775 0)
(0.147778 0.00102915 -3.25952e-22)
(0.0898996 0.00139086 4.07813e-22)
(0.0909353 0.000774662 4.0973e-22)
(0.0921028 0.000907439 4.09547e-22)
(0.0925855 0.00030594 8.18481e-22)
(0.0531269 0.000371049 -8.56353e-23)
(0.0533421 0.000200229 2.64971e-22)
(0.0521984 0.000150278 0)
(0.0494585 -4.14378e-05 2.10251e-23)
(0.009335 0.000622802 -4.63124e-22)
(0.445546 0.0142534 0)
(1.00327 -0.028314 -4.65748e-20)
(1.02067 -0.0856461 1.57399e-22)
(1.05048 -0.17305 -2.01701e-20)
(1.28436 -0.326423 4.64581e-22)
(1.45336 -0.148124 -1.61931e-23)
(1.47561 -0.011454 -2.33841e-23)
(1.45302 0.0605045 5.80916e-21)
(1.42912 0.0981687 2.18681e-23)
(1.40664 0.118194 8.82685e-20)
(1.38399 0.127488 -1.3037e-19)
(1.36215 0.130506 0)
(1.34287 0.130154 4.0276e-20)
(1.3273 0.128023 -9.34152e-25)
(1.31585 0.124942 7.44831e-20)
(1.30825 0.121332 8.95421e-24)
(1.30308 0.117303 8.22263e-24)
(1.29624 0.112454 3.32534e-20)
(1.2789 0.105739 -3.84614e-24)
(1.23677 0.0956788 -3.15188e-20)
(1.15398 0.0813266 -1.59276e-20)
(1.02162 0.0634834 0)
(0.844823 0.0444996 0)
(0.64177 0.0271793 0)
(0.258503 0.00519846 6.7375e-24)
(0.139928 0.00275684 0)
(0.142363 0.000743127 2.84886e-21)
(0.0856746 0.000358867 0)
(0.0867045 0.000439273 0)
(0.087668 0.000798046 0)
(0.0884343 0.000255473 8.06212e-22)
(0.0507618 0.000401944 0)
(0.0516872 0.000276949 -2.63601e-22)
(0.0524252 0.000278111 0)
(0.052643 0.000140824 1.73772e-22)
(0.0165572 2.28664e-05 1.20523e-22)
(0.0167882 1.82207e-06 -2.09657e-22)
(0.0163754 -6.11274e-05 -2.9322e-23)
(0.0157592 -0.000337805 9.17316e-22)
(0.436321 0.0136299 1.15244e-20)
(1.00319 -0.0292527 9.59615e-20)
(1.01166 -0.0911677 -1.71849e-22)
(1.04019 -0.208971 0)
(1.29578 -0.39499 1.88696e-21)
(1.45531 -0.157839 0)
(1.45426 -0.00928267 -2.86535e-23)
(1.42962 0.0652283 -9.83941e-20)
(1.41628 0.10366 0)
(1.40491 0.123853 -2.26633e-23)
(1.38951 0.132944 8.64044e-20)
(1.37079 0.135544 -3.94438e-23)
(1.35141 0.13465 -3.97349e-20)
(1.33366 0.131918 0)
(1.31896 0.128254 -7.70365e-23)
(1.30798 0.124174 -8.84119e-24)
(1.30057 0.119945 3.39115e-20)
(1.2952 0.115507 -8.17469e-24)
(1.28745 0.110304 3.14861e-20)
(1.26818 0.103194 3.07688e-20)
(1.22328 0.0927995 0)
(1.13791 0.0784908 0)
(1.00454 0.0610879 0)
(0.829008 0.0427556 0)
(0.629594 0.0261388 0)
(0.252203 0.00492381 -1.30942e-20)
(0.134915 0.00256352 0)
(0.136734 0.000721801 1.39714e-21)
(0.0638451 0.00051656 2.17116e-22)
(0.0652826 3.20067e-05 -2.0963e-22)
(0.048527 -0.000470595 -8.83581e-23)
(0.0495112 3.59229e-05 -1.25743e-25)
(0.049692 0.000213855 8.64232e-23)
(0.0500068 0.000123796 -4.33461e-22)
(0.0156994 2.92655e-05 -2.98828e-23)
(0.0161033 1.54672e-05 -3.00046e-23)
(0.0163661 1.65829e-05 0)
(0.0163765 -4.06013e-06 -1.20088e-22)
(0.430444 0.0133184 0)
(1.00291 -0.0287031 -4.88212e-20)
(0.999296 -0.0925476 0)
(1.01335 -0.238691 4.26792e-20)
(1.25961 -0.454409 -1.83255e-21)
(1.38339 -0.158399 2.95362e-23)
(1.34327 0.000855869 -1.35398e-19)
(1.32937 0.0721898 8.14967e-23)
(1.34538 0.109721 -5.18125e-23)
(1.36328 0.129577 0)
(1.37031 0.138559 8.91967e-20)
(1.3662 0.140958 -3.94611e-23)
(1.35461 0.139663 -7.91019e-20)
(1.33953 0.136371 3.77381e-20)
(1.32418 0.132084 -7.27631e-23)
(1.31075 0.127417 0)
(1.30041 0.122726 -3.35613e-20)
(1.29326 0.11813 3.62614e-25)
(1.2877 0.11342 -3.11722e-20)
(1.27901 0.107928 3.75042e-24)
(1.25781 0.100512 2.92006e-20)
(1.21033 0.0899944 0)
(1.12278 0.0758657 0)
(0.988786 0.0589166 0)
(0.814926 0.0412537 -1.63791e-20)
(0.619807 0.0254526 -1.83155e-20)
(0.250482 0.00472296 3.16325e-21)
(0.131499 0.00245819 3.034e-21)
(0.132347 0.000619742 -3.37849e-22)
(0.0612511 0.000464122 0)
(0.0623693 0.000142252 -1.19876e-21)
(0.0143944 0.00019974 -3.16266e-23)
(0.0145419 -0.000120993 6.29565e-23)
(0.0146542 -0.000250059 -6.42307e-23)
(0.0147684 0.000151971 -4.88956e-26)
(0.0149902 -0.00021605 5.82763e-23)
(0.0154161 -2.94618e-05 2.92952e-23)
(0.0154232 1.38456e-05 -5.87036e-23)
(0.0154575 -5.90044e-06 5.89534e-23)
(0.427627 0.0134342 2.11889e-20)
(1.00196 -0.0264941 0)
(0.984699 -0.0898599 -5.84196e-20)
(0.958099 -0.249183 -6.71738e-20)
(1.13958 -0.498463 -5.40079e-21)
(1.18154 -0.150725 5.03637e-21)
(1.08918 0.0167341 1.55692e-19)
(1.112 0.0784487 -7.09815e-23)
(1.18294 0.113397 -5.90113e-23)
(1.25269 0.132903 4.80897e-23)
(1.30219 0.142488 -9.20477e-20)
(1.32977 0.145547 -4.01834e-23)
(1.33939 0.144517 7.92743e-20)
(1.33662 0.14106 3.74661e-20)
(1.32686 0.136331 -3.57622e-20)
(1.31453 0.131105 0)
(1.30271 0.125857 1.57055e-23)
(1.29319 0.120826 0)
(1.28636 0.116014 3.05263e-20)
(1.28056 0.111114 0)
(1.27086 0.105413 -2.87328e-20)
(1.24779 0.0978537 -3.48282e-24)
(1.19801 0.0873559 0)
(1.10866 0.0734608 0)
(0.974412 0.0570115 1.46267e-20)
(0.802621 0.0400878 1.57961e-20)
(0.612023 0.0250889 1.76614e-20)
(0.255499 0.00516443 -2.96379e-20)
(0.133897 0.00229757 1.03206e-20)
(0.131041 0.000366509 -5.27309e-21)
(0.0593541 0.000433533 -2.19467e-21)
(0.060055 0.000127974 -6.92716e-23)
(0.013752 0.000189921 -3.08824e-23)
(0.0138773 -0.000126823 3.07782e-23)
(0.014098 -0.000176109 6.23894e-23)
(0.0141064 0.000151206 0)
(0.424206 0.0131922 0)
(1.00045 -0.0225506 0)
(0.967381 -0.080572 -5.07355e-21)
(0.944376 -0.182421 2.11705e-20)
(0.921098 -0.182637 2.41762e-20)
(0.970851 -0.574494 9.36963e-21)
(0.866099 -0.563396 1.91652e-20)
(0.870841 -0.30819 2.58727e-20)
(1.07457 -0.205142 1.43069e-19)
(0.912604 -0.483139 5.37795e-23)
(0.789795 -0.13874 -8.90085e-20)
(0.657586 0.0325235 0)
(0.635952 0.00912349 -6.8986e-20)
(0.763078 0.0795214 1.53468e-22)
(0.91392 0.109467 1.27517e-22)
(1.05279 0.129755 -5.43665e-23)
(1.16208 0.141515 -3.92403e-24)
(1.23915 0.146951 4.21624e-23)
(1.2868 0.147636 -8.13541e-20)
(1.31059 0.14505 -6.73558e-23)
(1.3173 0.140513 0)
(1.31353 0.135053 3.37667e-20)
(1.30472 0.129352 0)
(1.29486 0.123819 -1.56179e-23)
(1.28634 0.118619 -3.01819e-20)
(1.27984 0.113689 2.89793e-20)
(1.27374 0.108679 -6.72773e-24)
(1.263 0.102893 2.71928e-20)
(1.23818 0.0953162 0)
(1.18636 0.0849083 0)
(1.09554 0.0713114 0)
(0.961381 0.0554174 -1.39899e-20)
(0.791818 0.039187 -1.52208e-20)
(0.604574 0.0244731 0)
(0.256993 0.00538796 0)
(0.147437 0.00225747 0)
(0.141013 0.00156949 9.67445e-21)
(0.0621168 5.55739e-05 -1.31686e-20)
(0.0591135 -5.24995e-06 0)
(0.0132152 0.000177545 -3.02449e-23)
(0.0133011 -0.000125038 -2.86181e-25)
(0.0134889 -0.000171194 6.09595e-23)
(0.0135108 0.000147602 3.02012e-23)
(0.418354 0.0130385 0)
(0.998779 -0.0169119 -5.13857e-22)
(0.952808 -0.0641913 6.51663e-20)
(0.896457 -0.168119 -2.4165e-20)
(0.874247 -0.151565 -2.92467e-20)
(0.828715 -0.283414 4.65483e-22)
(0.765468 -0.54844 -2.91459e-20)
(0.654503 -0.511282 -8.79684e-22)
(0.835216 -0.616428 1.12059e-21)
(0.594277 -0.189858 2.49744e-20)
(0.263207 -0.101687 -2.03261e-21)
(0.449782 -0.268052 3.47442e-21)
(0.221464 -0.00735117 -4.10725e-21)
(0.27575 0.0264646 -3.28673e-20)
(0.476285 0.014653 3.70708e-20)
(0.301854 0.0545406 1.11379e-19)
(0.344832 0.0714215 5.10099e-20)
(0.199623 0.0113149 -1.07468e-19)
(0.27851 0.0120601 -1.0429e-22)
(0.573502 0.0923206 -1.84444e-22)
(0.774597 0.115384 -1.43523e-22)
(0.944323 0.131643 5.88292e-23)
(1.07911 0.141819 -9.59812e-23)
(1.17791 0.146413 8.60139e-20)
(1.24321 0.146505 -7.78179e-20)
(1.28051 0.14348 0)
(1.29691 0.13863 -3.38241e-20)
(1.29959 0.13294 -8.14866e-25)
(1.29477 0.127088 0)
(1.28718 0.121463 0)
(1.27979 0.116212 -2.86901e-20)
(1.27363 0.111251 0)
(1.2672 0.106232 -2.68627e-20)
(1.25544 0.100466 3.24199e-24)
(1.22901 0.0929388 0)
(1.1754 0.082689 3.0301e-24)
(1.08339 0.0694465 -1.27713e-20)
(0.949525 0.0540752 0)
(0.78173 0.0382163 0)
(0.596232 0.0239819 0)
(0.253283 0.00542404 0)
(0.148484 0.00296502 2.35851e-21)
(0.14878 0.00120921 0)
(0.0823763 0.000572052 1.99759e-21)
(0.0740884 0.000674795 6.19529e-23)
(0.0158651 0.000514341 4.69618e-21)
(0.0140117 -0.000329965 -6.55033e-23)
(0.0129836 -0.000199319 -2.99223e-23)
(0.0132728 0.000117631 9.10198e-23)
(0.41114 0.0128625 0)
(0.997108 -0.00994105 6.26382e-20)
(0.942956 -0.0412826 5.27697e-22)
(0.85442 -0.127009 2.95953e-20)
(0.838645 -0.100058 6.12127e-22)
(0.777327 -0.265701 -3.48655e-20)
(0.727959 -0.234771 7.31264e-20)
(0.694479 -0.447802 4.19833e-23)
(0.741986 -0.461331 9.25073e-21)
(0.470773 -0.456914 -1.41803e-21)
(0.529098 -0.451268 5.95055e-23)
(0.617352 -0.579012 9.68423e-21)
(0.281685 -0.249391 0)
(0.07095 0.0212779 -2.14171e-20)
(0.122667 0.0115816 9.2203e-23)
(0.0633857 0.0247634 -9.74686e-20)
(0.118869 0.0472065 9.62793e-20)
(0.26152 0.0599267 0)
(0.128658 0.026704 -9.12759e-20)
(0.0472508 0.000617964 8.55145e-20)
(0.47505 0.0872953 0)
(0.67638 0.110013 0)
(0.856077 0.127013 0)
(1.00537 0.137787 1.37844e-22)
(1.11985 0.142809 -3.92121e-23)
(1.19986 0.143256 0)
(1.24962 0.140519 0)
(1.27562 0.135852 3.21463e-23)
(1.28507 0.130271 -1.52326e-23)
(1.28461 0.124484 -2.90157e-20)
(1.27957 0.118906 0)
(1.27346 0.113701 0)
(1.26769 0.108803 -6.29343e-24)
(1.26094 0.103864 -6.10684e-24)
(1.24822 0.0981771 0)
(1.22031 0.0907604 0)
(1.1651 0.0807233 2.42881e-20)
(1.07213 0.0678278 0)
(0.938457 0.0527981 0)
(0.771616 0.0373898 0)
(0.587243 0.0236132 -1.60202e-20)
(0.247821 0.00524492 1.36447e-21)
(0.145286 0.00289585 2.29905e-21)
(0.14679 0.00137745 0)
(0.0826506 0.000909233 -2.21132e-21)
(0.0832821 0.000483123 -2.79322e-22)
(0.039085 0.000328621 0)
(0.0381525 -1.31611e-05 -1.32136e-21)
(0.0243398 0.00167544 -1.58901e-20)
(0.0357723 0.000140912 0)
(0.403497 0.012689 9.3464e-21)
(0.995673 -0.0023267 -1.25639e-19)
(0.934026 -0.013085 -3.05459e-21)
(0.827346 -0.0726969 0)
(0.820283 -0.0515972 -4.32312e-20)
(0.688773 -0.186273 -4.02494e-20)
(0.660571 -0.12838 -6.41825e-22)
(0.637455 -0.42331 -1.19811e-20)
(0.581412 -0.394329 1.06458e-20)
(0.488894 -0.318707 1.41745e-20)
(0.530533 -0.358464 -1.28053e-20)
(0.543328 -0.570077 -2.46916e-22)
(0.412549 -0.452276 1.64169e-21)
(0.0201145 0.00682604 -4.67024e-20)
(-0.0023156 0.0102117 1.4362e-21)
(0.00607483 -0.00330802 -1.74304e-21)
(0.019424 0.0147046 -5.64014e-20)
(0.0718234 0.0214862 -1.25873e-22)
(0.23018 0.0500887 0)
(0.0457066 0.0135912 1.75249e-20)
(-0.000424774 -0.00937583 -5.46665e-20)
(0.0078475 0.000342642 2.40426e-20)
(0.413859 0.0779771 0)
(0.604195 0.101797 1.25969e-22)
(0.783798 0.119754 1.03074e-22)
(0.939953 0.131433 -4.96465e-23)
(1.06516 0.137388 4.02876e-23)
(1.15717 0.138712 -7.11617e-20)
(1.2182 0.136657 0)
(1.25355 0.132483 2.90404e-23)
(1.26996 0.127234 5.77768e-20)
(1.27419 0.121668 0)
(1.27195 0.116249 0)
(1.26727 0.111187 0)
(1.26197 0.106433 6.24351e-24)
(1.25495 0.101627 2.32813e-25)
(1.24134 0.0960677 0)
(1.21205 0.0888077 0)
(1.15544 0.0789947 0)
(1.06157 0.0663567 0)
(0.927754 0.0517015 0)
(0.761428 0.0367675 3.26959e-23)
(0.57809 0.0233195 -7.74582e-21)
(0.242041 0.00512009 1.32299e-21)
(0.141389 0.0027274 -2.24035e-21)
(0.143051 0.00124472 0)
(0.0803158 0.000843416 -2.16596e-21)
(0.081525 0.00052912 0)
(0.0382609 0.000441916 0)
(0.0385936 -5.84468e-06 3.33081e-22)
(0.0389269 -0.000112268 6.68826e-22)
(0.0390044 0.000348323 -3.34286e-22)
(0.0120759 4.75471e-05 -2.50713e-23)
(0.0118636 -6.8008e-05 -7.94932e-22)
(0.00667791 0.000466213 6.25182e-21)
(0.011395 -0.000262812 0)
(0.395869 0.0125803 0)
(0.994524 0.00522817 6.28776e-20)
(0.935687 0.0186438 -7.87672e-20)
(0.75237 0.0620846 3.54756e-20)
(0.641143 -0.060812 0)
(0.636623 0.0221417 0)
(0.455559 -0.269583 0)
(0.427125 -0.216075 1.84077e-20)
(0.384412 -0.102075 0)
(0.403442 -0.159704 -1.85439e-20)
(0.404584 -0.501942 2.2484e-20)
(0.317094 -0.405093 -1.94672e-20)
(0.208127 -0.329241 -1.85075e-20)
(0.26272 -0.375593 -4.16266e-22)
(0.341186 -0.445319 1.24083e-21)
(-0.010667 0.00433948 -2.55995e-20)
(0.00194764 0.000109837 0)
(0.00671956 0.00900426 7.38611e-23)
(0.072366 0.0178261 -5.37478e-20)
(0.014527 0.000345946 1.80446e-20)
(0.204891 0.0432028 2.02751e-19)
(0.0158193 0.00241641 -8.71684e-23)
(0.0115642 0.00682883 1.59701e-22)
(-0.00729466 -0.00233981 1.30134e-20)
(0.000321887 -0.000251765 9.26697e-22)
(0.369851 0.0698534 0)
(0.547964 0.0932449 -1.31976e-22)
(0.722958 0.111472 1.05824e-19)
(0.881343 0.123974 -2.78893e-24)
(1.01367 0.131029 7.72019e-20)
(1.11533 0.133395 1.85442e-24)
(1.18646 0.132228 0)
(1.2308 0.128732 -2.92022e-20)
(1.25425 0.123968 0)
(1.26341 0.118745 0)
(1.26423 0.113588 -2.53033e-20)
(1.26117 0.108749 0)
(1.25644 0.104192 5.72244e-24)
(1.24922 0.0995608 5.78187e-24)
(1.23477 0.0941667 0)
(1.20424 0.0870823 -2.22429e-20)
(1.14632 0.0774578 0)
(1.05147 0.0650994 0)
(0.917301 0.0508585 2.96642e-23)
(0.75136 0.0363077 0)
(0.569065 0.0231263 0)
(0.236293 0.00507718 0)
(0.137481 0.00266013 -2.17655e-21)
(0.139141 0.00119312 0)
(0.0778635 0.0007686 -3.5373e-22)
(0.0790329 0.000459719 2.34826e-22)
(0.0368704 0.000418941 0)
(0.0372132 -2.4429e-05 4.06882e-22)
(0.0377645 -0.000103772 -8.19238e-23)
(0.0376356 0.000341253 7.75804e-25)
(0.0117453 5.79008e-05 0)
(0.0119242 -2.50136e-05 0)
(0.0120227 -3.97162e-05 2.53422e-23)
(0.0120573 4.85081e-05 0)
(0.388589 0.0125488 0)
(0.993744 0.012261 0)
(0.942235 0.0459809 3.46906e-21)
(0.803683 0.134366 9.51842e-22)
(0.384527 0.261443 -1.99065e-20)
(0.507649 0.349678 -2.12702e-21)
(0.372105 -0.0428856 0)
(0.371317 0.0143443 0)
(0.414187 0.126722 1.89728e-21)
(0.384136 0.0728839 0)
(0.166107 -0.269552 -1.59173e-21)
(0.134885 -0.202807 -1.60925e-21)
(0.0983118 -0.0675399 -2.64722e-20)
(0.112578 -0.134914 2.52448e-20)
(0.155624 -0.267216 -1.37306e-21)
(-0.00944546 -0.000869222 -1.49194e-20)
(-0.00293315 -0.00185993 0)
(0.00313007 2.40175e-05 -1.4631e-22)
(-0.00125177 0.00242541 1.29047e-20)
(-6.76921e-05 5.77666e-08 -1.41449e-20)
(0.0160553 0.00800464 -1.56008e-20)
(0.0660367 0.0153493 -2.02859e-19)
(0.0172719 -1.40019e-05 8.27893e-20)
(0.000913824 0.000227705 -1.27079e-20)
(0.0024964 -0.00193818 -1.98778e-20)
(0.184909 0.0383845 0)
(0.000773029 -0.00112884 -1.62205e-20)
(0.335061 0.0627119 0)
(0.50151 0.0848915 -2.50755e-19)
(0.67023 0.103009 4.87012e-23)
(0.828181 0.116194 8.61775e-20)
(0.965021 0.124218 0)
(1.07443 0.127653 3.30995e-23)
(1.15454 0.127457 0)
(1.20741 0.12475 -5.44084e-23)
(1.23792 0.120585 0)
(1.25222 0.115809 2.23395e-22)
(1.25635 0.110998 0)
(1.2551 0.106439 1.12533e-23)
(1.25107 0.102119 -2.27362e-20)
(1.24372 0.0976954 -5.32279e-24)
(1.22852 0.0924863 2.17488e-20)
(1.19682 0.0855692 0)
(1.13759 0.0761551 -2.13597e-20)
(1.04171 0.0641229 2.19209e-20)
(0.907148 0.0502477 0)
(0.741564 0.0360112 0)
(0.560447 0.0230558 0)
(0.230769 0.0050789 0)
(0.133629 0.00263437 0)
(0.135259 0.0011977 -1.06962e-21)
(0.0754895 0.000746759 1.14497e-22)
(0.0766323 0.000442558 1.15066e-22)