/*--------------------------------*- C++ -*----------------------------------*\
| =========                 |                                                 |
| \\      /  F ield         | OpenFOAM: The Open Source CFD Toolbox           |
|  \\    /   O peration     | Version:  v1912                                 |
|   \\  /    A nd           | Website:  www.openfoam.com                      |
|    \\/     M anipulation  |                                                 |
\*---------------------------------------------------------------------------*/
FoamFile
{
    version     2.0;
    format      ascii;
    class       volVectorField;
    location    "60";
    object      U;
}
// * * * * * * * * * * * * * * * * * * * * * * * * * * * * * * * * * * * * * //

dimensions      [0 1 -1 0 0 0 0];


internalField   nonuniform List<vector> 
3754
(
(0.995654 0.00292044 6.43743e-23)
(0.996059 0.00852885 0)
(0.951133 0.0116181 1.16179e-22)
(0.996687 0.013453 0)
(0.956143 0.0330868 0)
(0.813843 0.0376931 -1.57619e-21)
(0.997194 0.0172619 0)
(0.965643 0.0506795 -7.6273e-21)
(0.843305 0.0986946 9.97306e-23)
(0.516693 0.0519102 8.81866e-22)
(0.533382 0.147148 7.56328e-22)
(0.997559 0.0197564 -9.66558e-23)
(0.977717 0.0627538 7.58943e-21)
(0.894291 0.144607 0)
(0.580377 0.238118 6.81696e-22)
(0.648386 0.306834 -2.8052e-21)
(0.118298 0.102797 -1.88071e-22)
(0.112101 0.0347671 1.92888e-22)
(0.159273 0.227407 0)
(0.132873 0.16797 0)
(0.997896 0.0210447 0)
(0.989239 0.0699738 3.01849e-22)
(0.936538 0.165953 0)
(0.721145 0.356919 2.09179e-21)
(0.804423 0.380815 -2.75801e-21)
(0.251689 0.314722 -1.09456e-22)
(0.198957 0.278196 1.88001e-21)
(0.48111 0.479 -4.87707e-22)
(0.347134 0.412638 0)
(0.998281 0.0213811 0)
(0.998403 0.0732034 0)
(0.966141 0.165901 -1.02513e-22)
(0.9587 0.447691 -5.7061e-21)
(0.665568 0.55265 6.75675e-22)
(0.578633 0.520108 -6.24104e-22)
(0.783336 0.507546 0)
(0.297676 0.333108 -1.98301e-21)
(0.133601 0.204938 3.96872e-21)
(0.998706 0.0210149 0)
(1.00498 0.0732055 -3.44361e-23)
(0.989329 0.156326 0)
(1.06752 0.422953 7.50928e-21)
(0.896144 0.320215 -1.41726e-21)
(1.06952 0.389515 4.68476e-21)
(0.560148 0.403152 3.87975e-22)
(0.401054 0.344845 -3.52394e-22)
(0.761694 0.380382 -2.7629e-21)
(0.537476 0.273436 2.36616e-21)
(0.999121 0.0201305 -6.9772e-24)
(1.0095 0.0706545 0)
(1.00853 0.144325 3.07644e-23)
(1.11098 0.370439 0)
(1.19664 0.309448 -2.86658e-21)
(0.636575 0.0929457 -8.2723e-21)
(0.549228 0.146692 2.54489e-21)
(0.929456 0.143631 8.94506e-21)
(0.242381 0.15114 0)
(0.252245 0.0830346 0)
(0.999483 0.0188414 1.22975e-20)
(1.01265 0.0661684 7.57397e-24)
(1.02437 0.131873 4.85766e-24)
(1.12392 0.312966 -7.95593e-22)
(1.29402 0.298568 0)
(1.02744 0.14253 1.858e-20)
(0.429849 0.0226436 -5.16561e-22)
(0.27493 0.0193542 2.0283e-22)
(0.379171 0.0487176 -1.60475e-22)
(0.734296 0.0705151 0)
(0.134921 0.00959641 -3.44537e-23)
(0.999776 0.0172297 -1.21117e-20)
(1.01495 0.0602917 0)
(1.03667 0.119129 0)
(1.12698 0.262991 -5.14695e-23)
(1.31043 0.273661 1.14892e-23)
(1.27904 0.177494 -1.75688e-20)
(0.837808 0.0519569 -1.92719e-20)
(0.58846 0.0536061 4.82492e-21)
(0.204677 0.00147882 1.99309e-22)
(0.328755 0.0207659 -4.3287e-21)
(0.189562 0.00516924 4.00843e-22)
(0.0836704 0.00206634 8.19865e-23)
(0.999999 0.0153604 0)
(1.01672 0.0534424 -8.90646e-21)
(1.04566 0.10597 0)
(1.12825 0.220564 9.65452e-22)
(1.2962 0.243701 0)
(1.36765 0.18527 -2.88987e-20)
(1.16987 0.10403 5.11034e-20)
(0.746623 0.0244125 -3.90026e-20)
(0.471977 0.0150729 0)
(0.502329 0.0173217 1.96904e-23)
(0.0593299 -0.000849147 -1.84419e-22)
(0.272714 0.00422538 -2.50726e-22)
(0.141885 0.0072843 7.97386e-22)
(0.161804 0.00398998 -2.02548e-22)
(0.0586754 0.00022588 -1.1615e-22)
(1.00016 0.0132845 8.82804e-25)
(1.01816 0.0458929 1.58293e-20)
(1.0521 0.0923899 8.31282e-22)
(1.12942 0.183821 0)
(1.27594 0.212158 -9.37319e-24)
(1.3783 0.17832 2.05486e-21)
(1.33146 0.130123 -3.13454e-20)
(1.07909 0.0695087 3.52e-20)
(0.707839 0.02176 -4.90636e-21)
(0.457209 0.00966957 5.52799e-22)
(0.453334 0.00379446 -5.56226e-22)
(0.257915 0.00313842 -5.10473e-22)
(0.123583 -0.00119047 -7.4699e-22)
(0.12142 0.00213985 1.29243e-21)
(0.0421381 0.000818413 1.80626e-24)
(0.0505164 0.000182723 -1.78919e-24)
(1.00025 0.0110363 0)
(1.01939 0.037812 -6.97423e-21)
(1.05675 0.0784868 -8.1158e-22)
(1.13053 0.15148 -1.08474e-20)
(1.25841 0.181961 0)
(1.36249 0.163692 2.82471e-20)
(1.38348 0.137049 0)
(1.27867 0.100429 -7.58701e-24)
(1.01529 0.0549964 3.58464e-20)
(0.674802 0.0234448 4.94082e-21)
(0.457649 0.0106132 8.5219e-21)
(0.460187 0.00711953 0)
(0.273693 0.00306223 -7.31643e-21)
(0.255211 -0.000433728 -3.91924e-24)
(0.116172 0.00194096 3.57506e-22)
(0.117541 -0.000728695 7.21702e-22)
(0.0362361 -0.000499117 1.06411e-22)
(0.0368181 0.000264475 -2.07917e-22)
(1.0003 0.00864134 0)
(1.02054 0.0292996 1.24542e-25)
(1.06022 0.0643344 0)
(1.13162 0.122401 1.13622e-20)
(1.24528 0.153829 1.08112e-23)
(1.34275 0.147076 0)
(1.38633 0.133532 -7.13512e-24)
(1.36471 0.115364 0)
(1.22911 0.0850685 -3.19913e-20)
(0.962734 0.0505524 0)
(0.638602 0.0238318 2.11974e-20)
(0.438184 0.00957431 -5.44965e-22)
(0.446435 0.00920593 -7.97439e-21)
(0.297693 0.00400106 -1.32255e-21)
(0.295517 0.00211898 -4.31406e-22)
(0.15311 0.00424426 2.13152e-20)
(0.133271 -0.00158497 0)
(0.115069 -0.00156415 0)
(0.122014 0.000392966 -2.81045e-21)
(0.0352187 0.000270339 -2.01555e-22)
(0.0358554 -0.000241437 0)
(1.0003 0.00610999 0)
(1.02168 0.020411 0)
(1.06296 0.0499662 3.63047e-21)
(1.13294 0.0956069 0)
(1.23628 0.127398 0)
(1.32623 0.130437 -5.32328e-20)
(1.37427 0.126009 0)
(1.38685 0.119342 2.94477e-20)
(1.33908 0.104093 0)
(1.18125 0.0785108 3.17992e-20)
(0.915524 0.0486569 0)
(0.342694 0.00627952 -2.59794e-20)
(0.604826 0.0239225 -2.10009e-20)
(0.284435 0.00257085 -1.35534e-21)
(0.292561 0.00406371 -4.43876e-22)
(0.181813 0.00193873 0)
(0.181721 0.00106918 4.00023e-21)
(0.173746 -0.000204525 2.42544e-24)
(0.180435 0.00118605 -1.57167e-22)
(0.0681727 0.00391486 -2.05673e-20)
(0.0452118 -0.000524985 1.98282e-21)
(0.035258 -0.00037463 0)
(0.0391962 -7.19478e-05 7.0953e-24)
(1.00026 0.00344584 1.30127e-25)
(1.02292 0.011166 0)
(1.0653 0.0354086 -3.50799e-21)
(1.1348 0.0702729 0)
(1.23108 0.102249 3.49145e-20)
(1.31436 0.11406 5.34627e-20)
(1.36119 0.117265 -5.87762e-20)
(1.38354 0.117843 -8.96679e-20)
(1.37845 0.112851 0)
(1.30812 0.0993921 -2.99257e-20)
(1.1352 0.0757363 0)
(0.872456 0.0482854 3.49327e-20)
(0.320311 0.00619968 2.39946e-20)
(0.124995 0.00215251 4.01894e-21)
(0.128166 -0.000688734 -1.18368e-21)
(0.579327 0.0260137 -4.0998e-20)
(0.170787 0.000705231 1.34257e-21)
(0.173098 0.0013246 6.56933e-22)
(0.179008 0.00129226 -1.61775e-22)
(0.177555 0.00194297 1.46641e-21)
(0.104916 0.000568315 0)
(0.105284 0.000361097 -1.10072e-21)
(0.0988166 -0.000261555 4.17135e-21)
(0.103794 0.000315765 -1.07452e-21)
(0.0189113 0.00103663 5.5665e-21)
(1.00018 0.000634687 0)
(1.02432 0.00157089 -3.24714e-21)
(1.06741 0.020651 4.92297e-21)
(1.1375 0.0456292 -5.92572e-24)
(1.22958 0.0780041 -3.32889e-20)
(1.30723 0.0980128 -1.32165e-23)
(1.35125 0.108261 5.79506e-20)
(1.37417 0.1142 -4.43796e-23)
(1.38385 0.115422 0)
(1.36265 0.111152 0)
(1.27409 0.0978582 0)
(1.09143 0.0749171 -3.06973e-20)
(0.834034 0.0495639 3.43543e-20)
(0.319361 0.00800721 -2.25194e-23)
(0.118636 0.00202761 0)
(0.118031 -0.000542494 -1.34198e-22)
(0.0284403 0.000476603 2.06228e-22)
(0.0287251 3.13823e-05 0)
(0.0294011 9.64078e-05 1.03551e-22)
(0.0295344 -0.000538351 0)
(0.0980809 -0.000316445 0)
(0.554016 0.0254291 -2.03893e-20)
(0.100354 0.000701297 -5.61811e-22)
(0.103296 0.000427443 2.77436e-22)
(0.102275 0.000598627 0)
(0.0332709 2.62911e-05 0)
(0.0335449 1.31219e-05 0)
(0.0318008 -0.000574579 -2.83341e-21)
(0.0330153 -8.29341e-05 7.21626e-22)
(1.0001 -0.00234441 1.04613e-20)
(1.02596 -0.0083695 6.47321e-21)
(1.06938 0.0056472 -4.76347e-21)
(1.14132 0.0208989 -5.85584e-24)
(1.23187 0.0542924 1.56532e-23)
(1.30487 0.0823331 -2.27301e-23)
(1.34539 0.0994012 5.67631e-20)
(1.36598 0.109957 5.89731e-20)
(1.37803 0.115258 -6.03146e-20)
(1.37691 0.11646 0)
(1.34174 0.111845 3.43032e-24)
(1.23903 0.0977712 3.42197e-24)
(1.05019 0.0753541 0)
(0.797341 0.0485229 4.20383e-24)
(0.311818 0.00895231 1.68948e-20)
(0.150653 0.00149867 -4.86445e-22)
(0.131455 0.00102095 8.85997e-21)
(0.0283482 0.000521796 -1.81174e-21)
(0.0265341 -0.000119942 1.05771e-22)
(0.0269893 4.31555e-05 -1.02399e-22)
(0.0270322 -0.000441299 1.02558e-22)
(0.030801 -0.000274367 -2.35821e-23)
(0.522857 0.0247766 -2.00189e-20)
(0.0318012 7.47588e-05 2.33624e-23)
(0.0327563 1.37869e-05 -1.97335e-22)
(0.0324326 4.12631e-05 1.16834e-23)
(1.00004 -0.0055227 -1.02989e-20)
(1.02792 -0.0186265 -1.045e-20)
(1.07116 -0.00970413 0)
(1.14651 -0.00468151 0)
(1.23814 0.0307657 -4.12612e-24)
(1.3074 0.0670578 4.85134e-20)
(1.34388 0.0908746 -5.53088e-20)
(1.36107 0.105744 0)
(1.37113 0.114239 5.95041e-20)
(1.37502 0.118588 3.58843e-24)
(1.36474 0.119256 0)
(1.31807 0.11342 -2.76989e-20)
(1.20406 0.0984255 -3.44449e-24)
(1.0105 0.0743083 2.96156e-20)
(0.758832 0.0473627 0)
(0.290311 0.00858733 2.51795e-20)
(0.145012 0.00360703 0)
(0.149548 0.00128347 8.90591e-21)
(0.0724883 0.000466047 0)
(0.0680887 0.000178592 7.19797e-23)
(0.0469465 0.00290232 -7.40496e-21)
(0.0318692 -0.000588633 2.10119e-21)
(0.490788 0.0239694 0)
(1.00006 -0.0089237 0)
(1.03017 -0.0291391 7.04598e-21)
(1.07255 -0.0255552 0)
(1.15334 -0.0319107 0)
(1.24876 0.00711494 -9.72219e-24)
(1.31503 0.0522483 -9.51594e-20)
(1.34694 0.0828077 5.55756e-20)
(1.36004 0.101834 -1.42192e-23)
(1.3666 0.113155 0)
(1.36954 0.119617 7.26651e-24)
(1.36712 0.123022 -3.5766e-24)
(1.34962 0.122512 2.74441e-20)
(1.293 0.115237 0)
(1.16923 0.0980372 -2.70468e-20)
(0.970332 0.072996 -2.89611e-20)
(0.720285 0.0462475 0)
(0.26773 0.00787437 -1.06473e-23)
(0.131483 0.00340916 -3.73766e-21)
(0.136687 0.000816831 -4.9464e-22)
(0.0672121 0.00122784 1.53812e-22)
(0.0689041 0.000465807 3.08297e-22)
(0.0711794 0.000745536 -3.05172e-22)
(0.0718072 0.000128867 -1.21182e-21)
(0.0227546 -1.9437e-05 0)
(0.021761 -0.000485874 0)
(0.0129662 0.00081787 0)
(0.461258 0.0230457 0)
(1.00026 -0.012555 -1.39025e-20)
(1.03257 -0.0397852 -9.82407e-21)
(1.07315 -0.0421805 -9.27518e-21)
(1.16229 -0.0617043 -2.61112e-20)
(1.26442 -0.0169661 3.34748e-20)
(1.32823 0.0379776 4.66432e-20)
(1.35491 0.0753437 -5.40726e-20)
(1.36326 0.0984061 1.37531e-23)
(1.3656 0.112353 1.42717e-23)
(1.36537 0.120503 0)
(1.36322 0.12535 -3.4943e-24)
(1.35657 0.127537 -5.58354e-20)
(1.33284 0.125654 5.3043e-20)
(1.26691 0.116138 2.58899e-20)
(1.13362 0.0972306 5.26588e-20)
(0.930258 0.0717679 0)
(0.683668 0.0450369 3.21456e-20)
(0.24791 0.00740621 5.52016e-21)
(0.119379 0.00313138 0)
(0.123803 0.000467222 2.46644e-22)
(0.0600918 0.00115676 0)
(0.061563 0.000309925 1.51368e-22)
(0.0634624 0.000671799 0)
(0.064481 -9.48183e-05 -3.04628e-22)
(0.0207763 0.000136471 -8.88421e-23)
(0.0216125 -1.50773e-05 -1.33238e-22)
(0.0224622 9.45968e-05 1.33386e-22)
(0.0227424 -9.19165e-06 0)
(0.437081 0.0231778 -3.84406e-20)
(1.00068 -0.0163748 1.3684e-20)
(1.03475 -0.0504243 9.59062e-21)
(1.07262 -0.0600701 1.04154e-21)
(1.17433 -0.0951855 2.47535e-20)
(1.28636 -0.0417631 -1.00919e-19)
(1.34783 0.0243299 0)
(1.36836 0.0686323 1.01288e-24)
(1.37117 0.0956316 0)
(1.36868 0.112037 5.90131e-20)
(1.36435 0.121661 5.90899e-20)
(1.35949 0.12739 0)
(1.3545 0.130741 5.6123e-20)
(1.34468 0.131676 -1.06584e-19)
(1.31481 0.127932 -2.53808e-20)
(1.23947 0.116457 -2.4919e-20)
(1.09752 0.0964151 0)
(0.891302 0.0704898 -2.76335e-20)
(0.650079 0.0445206 3.16407e-20)
(0.236807 0.00784677 0)
(0.109392 0.00308542 -7.86735e-21)
(0.112686 0.000347811 0)
(0.0541276 0.00106963 0)
(0.0553661 0.000231959 -1.49912e-22)
(0.0569479 0.000581998 -1.50224e-22)
(0.0577622 -0.000213263 0)
(0.0184085 0.000128993 0)
(0.0191328 -3.86105e-05 8.76704e-23)
(0.0197977 9.54806e-05 0)
(0.0199845 -5.09947e-05 1.76155e-22)
(0.415984 0.0226676 3.77738e-20)
(1.00135 -0.0202903 -1.84506e-20)
(1.03617 -0.0609379 -1.41724e-20)
(1.07088 -0.0800352 7.67203e-21)
(1.19121 -0.13371 2.1619e-20)
(1.31642 -0.0674933 -6.80832e-21)
(1.37511 0.0114212 -1.02228e-19)
(1.38823 0.0628547 -5.61027e-20)
(1.38448 0.0936865 -1.3746e-23)
(1.37643 0.112379 -5.78566e-20)
(1.36731 0.123302 -5.82075e-20)
(1.3585 0.129654 1.38593e-23)
(1.35132 0.13346 -5.65755e-20)
(1.34475 0.135509 -3.22215e-22)
(1.33181 0.134988 -3.1715e-24)
(1.29537 0.12954 0)
(1.21094 0.116599 0)
(1.06159 0.0955091 0)
(0.853901 0.0695392 0)
(0.618711 0.0434517 3.11122e-20)
(0.231709 0.0080803 -4.1342e-20)
(0.111332 0.00381002 4.74316e-22)
(0.106596 5.46104e-05 3.40256e-21)
(0.0491226 0.00103271 -5.8873e-22)
(0.0499501 0.000215268 0)
(0.0513699 0.000555614 0)
(0.0520609 -0.000229736 -1.47071e-22)
(0.0164919 0.000120256 0)
(0.0171184 -4.59963e-05 0)
(0.0176663 8.73659e-05 4.33255e-23)
(0.0177623 -6.7458e-05 -4.30585e-23)
(0.392387 0.0220676 3.69103e-20)
(1.00217 -0.024169 1.81476e-20)
(1.03626 -0.0713208 -3.14696e-21)
(1.06853 -0.103135 -6.2767e-24)
(1.21513 -0.178715 -2.02859e-20)
(1.3563 -0.0941921 6.85601e-20)
(1.41103 -0.000511681 -8.01664e-21)
(1.41529 0.058237 5.42652e-20)
(1.40395 0.0927905 4.16447e-23)
(1.38954 0.11356 -5.87085e-20)
(1.37492 0.125582 5.85709e-20)
(1.36141 0.132377 5.76778e-20)
(1.35042 0.136317 1.12265e-19)
(1.34227 0.13863 5.43819e-20)
(1.33439 0.139439 5.17831e-20)
(1.31792 0.137613 -5.83988e-24)
(1.27471 0.130839 0)
(1.18181 0.116559 0)
(1.02611 0.094672 0)
(0.817838 0.0681621 -5.30225e-20)
(0.586939 0.0421329 -3.05937e-20)
(0.218036 0.00826003 -9.77501e-24)
(0.118073 0.00378852 0)
(0.118072 0.00110175 -3.51246e-21)
(0.0596992 0.00259275 -9.16243e-21)
(0.0529657 -1.50098e-05 0)
(0.049792 0.000405378 -9.48336e-21)
(0.0481384 -0.000458336 0)
(0.0148189 0.000111337 3.38773e-22)
(0.0153496 -4.63495e-05 0)
(0.0158547 8.53619e-05 -4.25357e-23)
(0.0159254 -6.80033e-05 1.27114e-22)
(0.366875 0.021233 -8.71915e-24)
(1.00301 -0.0278589 0)
(1.03466 -0.0816557 1.66884e-20)
(1.06672 -0.130409 -5.07449e-24)
(1.24716 -0.231337 5.16515e-24)
(1.40556 -0.121597 8.41983e-20)
(1.45419 -0.0109674 1.01702e-19)
(1.44854 0.0551286 0)
(1.42932 0.0932158 2.78343e-23)
(1.40828 0.115795 1.15924e-19)
(1.38771 0.128659 -5.74676e-20)
(1.36893 0.135712 -5.68318e-20)
(1.35332 0.1396 -5.56143e-20)
(1.34154 0.141794 -5.45222e-20)
(1.33285 0.142889 -5.22218e-20)
(1.32345 0.142678 0)
(1.30313 0.139867 5.80699e-24)
(1.25321 0.131883 0)
(1.15235 0.116409 0)
(0.991074 0.0934753 -2.7836e-23)
(0.78196 0.0664942 0)
(0.554589 0.0407521 0)
(0.200652 0.00786199 1.00431e-23)
(0.108853 0.00398235 1.20702e-23)
(0.113276 0.00146456 -1.75842e-21)
(0.0684773 0.00171485 0)
(0.0692488 0.000883778 1.37136e-22)
(0.0691395 0.000861101 -1.34138e-22)
(0.0670463 1.71352e-06 4.2604e-21)
(0.0255126 0.00197059 5.84238e-21)
(0.0174275 -8.4025e-05 0)
(0.0157792 -4.39101e-06 2.762e-21)
(0.0146161 -0.000127968 1.70609e-22)
(0.341592 0.0202431 -1.80174e-20)
(1.00366 -0.0311609 -1.0612e-22)
(1.03126 -0.0919843 0)
(1.066 -0.162624 4.71192e-21)
(1.28476 -0.292361 1.52004e-20)
(1.45823 -0.148276 -7.99393e-20)
(1.4972 -0.0191124 -2.43078e-23)
(1.48184 0.0540432 1.17891e-19)
(1.45676 0.0952734 -2.78298e-23)
(1.43085 0.119306 -1.74369e-19)
(1.40523 0.132707 5.80177e-20)
(1.38132 0.139799 -2.81131e-23)
(1.36077 0.143473 5.40833e-23)
(1.34448 0.145345 5.383e-20)
(1.33241 0.146237 -5.26268e-20)
(1.32316 0.14643 0)
(1.31204 0.145519 0)
(1.2877 0.141848 -4.46136e-20)
(1.23107 0.132722 0)
(1.12261 0.115922 2.16682e-20)
(0.956002 0.0919782 2.29182e-20)
(0.746015 0.0647833 0)
(0.522697 0.0393022 0)
(0.183632 0.00726319 1.74514e-20)
(0.09845 0.00356844 0)
(0.102499 0.00125947 -4.44592e-22)
(0.0617887 0.00177461 5.45011e-22)
(0.0635348 0.000997152 5.47033e-22)
(0.0654572 0.00112626 5.46146e-22)
(0.0665953 0.000341229 1.0915e-21)
(0.0379228 0.000495802 -1.13459e-22)
(0.0388342 0.000291165 3.50772e-22)
(0.0386036 0.000249136 0)
(0.0369225 4.34239e-05 2.78306e-23)
(0.00694739 0.000506619 -6.11343e-22)
(0.31774 0.0193319 0)
(1.00399 -0.0337974 -3.22862e-20)
(1.02572 -0.101782 9.89806e-23)
(1.06415 -0.2001 -4.53315e-21)
(1.3192 -0.361787 -1.41503e-20)
(1.49894 -0.169711 -2.42765e-23)
(1.52234 -0.0235051 -2.87848e-23)
(1.49959 0.0555903 6.50526e-21)
(1.47497 0.0991679 2.81356e-23)
(1.45026 0.124191 1.14912e-19)
(1.42383 0.137819 -1.72527e-19)
(1.39717 0.144748 0)
(1.37263 0.148056 5.51129e-20)
(1.35182 0.149468 -1.04936e-24)
(1.33541 0.149918 1.04207e-19)
(1.32317 0.149909 1.25374e-23)
(1.31333 0.149543 1.13648e-23)
(1.30035 0.148094 4.4633e-20)
(1.27175 0.143605 -5.09506e-24)
(1.20834 0.133247 -4.15735e-20)
(1.09242 0.115129 -2.09949e-20)
(0.920734 0.0903969 0)
(0.710503 0.0630404 0)
(0.49211 0.0379018 0)
(0.167875 0.00679332 9.89162e-24)
(0.0886959 0.00350754 0)
(0.0927716 0.000938604 3.94282e-21)
(0.0549878 0.00107693 0)
(0.0566155 0.000712642 0)
(0.0582825 0.00098853 0)
(0.0595369 0.000262633 1.07891e-21)
(0.0337815 0.000518197 0)
(0.0351974 0.00035146 -3.49916e-22)
(0.0363825 0.000334796 0)
(0.0369056 0.000142738 2.30393e-22)
(0.0114671 3.32906e-05 1.58929e-22)
(0.0119416 6.26781e-06 -2.76337e-22)
(0.0118622 -4.45319e-05 -3.86418e-23)
(0.0115206 -0.000282222 1.21158e-21)
(0.296124 0.0185586 1.78186e-20)
(1.00409 -0.035389 6.83783e-20)
(1.01698 -0.109289 -1.16092e-22)
(1.05484 -0.240554 0)
(1.33279 -0.434499 -1.30257e-20)
(1.50057 -0.179699 0)
(1.49764 -0.0215011 -3.49928e-23)
(1.47325 0.0601684 -1.22854e-19)
(1.4616 0.104661 0)
(1.4507 0.130095 -2.92922e-23)
(1.43355 0.143775 1.14165e-19)
(1.41099 0.150488 -5.34159e-23)
(1.38642 0.153383 -5.4234e-20)
(1.36294 0.154258 0)
(1.34257 0.154138 2.04258e-22)
(1.32629 0.153645 -1.24948e-23)
(1.31397 0.15311 4.81764e-20)
(1.30351 0.152397 -1.12655e-23)
(1.28846 0.150472 4.27182e-20)
(1.25531 0.145102 4.06707e-20)
(1.18492 0.133486 0)
(1.06167 0.114202 0)
(0.885537 0.0887702 0)
(0.67591 0.0613258 0)
(0.463446 0.0366295 0)
(0.154011 0.0064888 -1.97826e-20)
(0.0797644 0.00326018 0)
(0.0833198 0.000886443 1.95125e-21)
(0.0376896 0.000635901 2.93526e-22)
(0.0397925 7.66178e-05 -2.83145e-22)
(0.0300177 -4.04238e-05 -1.17796e-22)
(0.0313591 0.00016843 -3.41845e-25)
(0.0320936 0.000270027 1.15017e-22)
(0.0326064 0.000116719 -5.7641e-22)
(0.0100567 4.00375e-05 -3.94767e-23)
(0.0106469 1.73221e-05 -3.96164e-23)
(0.0110565 1.38996e-05 0)
(0.0111333 -1.85374e-05 -1.58433e-22)
(0.277584 0.0180816 0)
(1.00401 -0.0354934 -3.56402e-20)
(1.00449 -0.112739 0)
(1.02794 -0.274704 2.79658e-20)
(1.29695 -0.496852 1.26349e-20)
(1.42412 -0.179293 3.50347e-23)
(1.37612 -0.0106618 -1.61461e-19)
(1.36255 0.067129 1.01532e-22)
(1.38352 0.110496 -6.54901e-23)
(1.4062 0.135705 0)
(1.41547 0.149594 1.1815e-19)
(1.41034 0.156442 -5.35362e-23)
(1.39493 0.159191 -1.08636e-19)
(1.3743 0.159652 5.2652e-20)
(1.35273 0.158968 2.18851e-22)
(1.3332 0.157881 0)
(1.31724 0.156852 -4.8086e-20)
(1.30493 0.156042 4.55086e-25)
(1.29377 0.155082 -4.29459e-20)
(1.27635 0.152663 5.06993e-24)
(1.23827 0.146372 3.91636e-20)
(1.16075 0.133569 0)
(1.03052 0.113193 0)
(0.850666 0.0871261 0)
(0.642617 0.0596988 -2.4347e-20)
(0.437088 0.0356152 -2.89026e-20)
(0.14377 0.00637088 4.94702e-21)
(0.0722081 0.00314276 4.3261e-21)
(0.0750404 0.000824394 -4.77749e-22)
(0.0333419 0.000570518 0)
(0.0352208 0.000138227 -1.62704e-21)
(0.00798588 0.000242676 -4.20716e-23)
(0.00822636 -0.000149558 8.3759e-23)
(0.00848586 -0.000281841 -8.52261e-23)
(0.00854863 0.000178872 -5.41195e-26)
(0.00888604 -0.000129758 7.72288e-23)
(0.00943758 -1.5237e-05 3.88311e-23)
(0.00963912 1.20977e-05 -7.76814e-23)
(0.00969646 -1.94042e-05 7.79578e-23)
(0.261656 0.0179165 3.49987e-20)
(1.00321 -0.0339008 0)
(0.989426 -0.112114 -4.59889e-20)
(0.971792 -0.289227 -4.64467e-20)
(1.17646 -0.543983 -1.64661e-21)
(1.21332 -0.168808 4.77007e-21)
(1.10413 0.00712244 1.87015e-19)
(1.12723 0.0735478 -8.7108e-23)
(1.20642 0.113556 -7.46913e-23)
(1.28595 0.138264 6.32351e-23)
(1.34324 0.153066 -1.2204e-19)
(1.3747 0.161074 -5.46709e-23)
(1.38389 0.164551 1.08603e-19)
(1.37718 0.165181 5.2704e-20)
(1.36137 0.16424 -5.04326e-20)
(1.34224 0.162658 0)
(1.32384 0.161053 2.28083e-23)
(1.30839 0.159769 0)
(1.29612 0.158822 4.36082e-20)
(1.28409 0.157646 0)
(1.26395 0.154708 -3.88247e-20)
(1.22058 0.147514 -4.6676e-24)
(1.1359 0.133552 0)
(0.999105 0.112111 0)
(0.816342 0.0854947 2.10235e-20)
(0.610812 0.0582211 2.41224e-20)
(0.412651 0.0347839 2.86931e-20)
(0.1381 0.00676558 -4.7439e-20)
(0.0683966 0.00312998 1.50956e-20)
(0.0689966 0.000755575 -7.62142e-21)
(0.0295834 0.000546085 -3.01471e-21)
(0.0311688 0.000136541 -9.4657e-23)
(0.00696632 0.000224447 -4.12568e-23)
(0.00718205 -0.000152388 4.11153e-23)
(0.00754799 -0.000228328 8.31236e-23)
(0.00751497 0.000171345 0)
(0.245506 0.0174623 0)
(1.00177 -0.0304606 0)
(0.971346 -0.104846 -5.91408e-21)
(0.954742 -0.221564 1.54932e-20)
(0.931013 -0.22365 1.92643e-20)
(1.00121 -0.637806 2.77182e-21)
(0.896931 -0.626751 1.28863e-20)
(0.887353 -0.35696 1.96645e-20)
(1.11062 -0.22106 1.69177e-19)
(0.955346 -0.516369 2.90911e-22)
(0.817232 -0.149589 -1.05908e-19)
(0.650856 0.0262277 0)
(0.640821 0.000952375 -8.11214e-20)
(0.757011 0.0750755 1.95057e-22)
(0.918019 0.10858 1.65947e-22)
(1.07027 0.133509 -7.19666e-23)
(1.19276 0.150637 -4.07359e-24)
(1.27987 0.161589 5.76048e-23)
(1.33255 0.167479 -1.12261e-19)
(1.35613 0.169593 5.03252e-22)
(1.35851 0.169277 0)
(1.34797 0.167697 4.87432e-20)
(1.33164 0.165716 0)
(1.31461 0.163902 -2.28371e-23)
(1.29979 0.162533 -4.38922e-20)
(1.28752 0.161524 4.15353e-20)
(1.2744 0.160142 -9.38182e-24)
(1.25118 0.15669 3.73229e-20)
(1.20222 0.148577 0)
(1.11041 0.133429 0)
(0.967538 0.110963 0)
(0.782681 0.0838935 -2.07367e-20)
(0.580289 0.0568086 -2.39121e-20)
(0.388734 0.0337027 0)
(0.130041 0.00686928 0)
(0.0703668 0.00328252 0)
(0.0695068 0.00158173 1.42714e-20)
(0.0284158 0.000423336 -1.84188e-20)
(0.0280158 0.00010371 0)
(0.00605579 0.000210375 -4.06292e-23)
(0.00624335 -0.000142816 -3.25238e-25)
(0.00657608 -0.000212936 8.16126e-23)
(0.00654937 0.000164775 4.05079e-23)
(0.227953 0.0168564 0)
(1.00008 -0.0251369 -4.3733e-22)
(0.955724 -0.0899418 5.31234e-20)
(0.905797 -0.21063 -1.92235e-20)
(0.882565 -0.195524 -2.45231e-20)
(0.844246 -0.335271 3.64357e-22)
(0.796092 -0.615491 -2.0076e-20)
(0.695489 -0.552795 1.81866e-21)
(0.880269 -0.665432 -2.30688e-21)
(0.620376 -0.19964 2.99576e-20)
(0.277969 -0.107718 -2.5049e-21)
(0.478054 -0.286668 4.75719e-21)
(0.227312 -0.00823667 -4.78557e-21)
(0.275804 0.024041 -3.85051e-20)
(0.480764 0.0103279 4.32945e-20)
(0.2847 0.0504539 1.33659e-19)
(0.323912 0.0676272 6.50817e-20)
(0.18213 0.00550797 -1.31263e-19)
(0.2705 0.00492548 -2.00095e-22)
(0.560864 0.0900869 -2.36855e-22)
(0.774621 0.116809 -1.88006e-22)
(0.959988 0.138216 7.82332e-23)
(1.11001 0.154324 -1.30671e-22)
(1.22026 0.164909 1.18647e-19)
(1.2912 0.170591 -1.08809e-19)
(1.32814 0.172556 0)
(1.33945 0.172127 -4.85929e-20)
(1.33436 0.170451 -9.65124e-25)
(1.32105 0.168413 0)
(1.30558 0.166585 0)
(1.29144 0.165238 -4.18438e-20)
(1.2791 0.164212 0)
(1.26463 0.162641 -3.73007e-20)
(1.23798 0.158646 4.43838e-24)
(1.18319 0.149548 0)
(1.08432 0.133193 4.20292e-24)
(0.93589 0.109741 -1.85397e-20)
(0.749606 0.0822508 0)
(0.550401 0.0551961 0)
(0.364477 0.0325237 0)
(0.118855 0.00660803 0)
(0.0652971 0.00357883 3.51195e-21)
(0.0679852 0.00165811 0)
(0.0353788 0.000898738 2.81492e-21)
(0.0329381 0.000569326 8.71374e-23)
(0.00648889 0.000540517 6.37263e-21)
(0.00592125 -0.000196527 -8.85474e-23)
(0.00570636 -0.000210713 -4.03248e-23)
(0.0057831 0.000159921 1.22845e-22)
(0.210061 0.0160732 0)
(0.998317 -0.0182902 5.38466e-20)
(0.94457 -0.0677447 4.40203e-22)
(0.861481 -0.172143 2.47845e-20)
(0.844066 -0.14605 5.33613e-22)
(0.791611 -0.321452 -2.88834e-20)
(0.740204 -0.293327 6.12789e-20)
(0.717765 -0.518524 2.06072e-23)
(0.766059 -0.529601 6.75586e-21)
(0.506128 -0.499452 1.98114e-21)
(0.565323 -0.491062 -2.36667e-23)
(0.65145 -0.651078 6.91281e-21)
(0.303367 -0.269771 0)
(0.0685175 0.0210795 -2.49661e-20)
(0.114011 0.00737261 8.09542e-23)
(0.0472888 0.0212073 -1.17273e-19)
(0.0992019 0.0439078 1.21175e-19)
(0.243267 0.0562728 0)
(0.111756 0.0224132 -1.1654e-19)
(0.0336407 -0.00337993 1.0444e-19)
(0.462951 0.0861405 0)
(0.67709 0.113304 0)
(0.873426 0.136189 0)
(1.03909 0.153521 1.91807e-22)
(1.16585 0.165095 -5.55469e-23)
(1.25172 0.1716 0)
(1.30059 0.174209 0)
(1.32042 0.174211 4.68058e-23)
(1.32077 0.172799 -2.24695e-23)
(1.31059 0.170922 -4.36831e-20)
(1.29676 0.16921 0)
(1.28332 0.167958 0)
(1.27078 0.166952 -9.05731e-24)
(1.25473 0.165178 -8.58791e-24)
(1.22433 0.160567 0)
(1.16347 0.150412 0)
(1.05765 0.132819 3.39886e-20)
(0.90414 0.108385 0)
(0.716847 0.0804098 0)
(0.520644 0.0534731 0)
(0.340268 0.0312239 -2.82265e-20)
(0.10721 0.00617434 2.30262e-21)
(0.0581902 0.0033747 3.48499e-21)
(0.061323 0.00160366 0)
(0.0320469 0.00105469 -3.15593e-21)
(0.0339686 0.000620987 -3.9572e-22)
(0.0152233 0.000454395 0)
(0.015283 1.98905e-06 -1.81343e-21)
(0.00994462 0.000774351 -2.18999e-20)
(0.0146116 0.000329497 0)
(0.192654 0.0152172 1.71076e-20)
(0.99676 -0.0106796 -1.09083e-19)
(0.934305 -0.0395679 -2.7533e-21)
(0.830996 -0.119572 0)
(0.821433 -0.0983385 -3.83908e-20)
(0.698213 -0.246375 -3.4043e-20)
(0.666912 -0.18947 -5.5192e-22)
(0.659705 -0.496577 -9.74584e-21)
(0.602146 -0.469912 8.72117e-21)
(0.504573 -0.397054 1.19167e-20)
(0.548914 -0.435423 -1.07868e-20)
(0.575535 -0.646621 -2.9768e-22)
(0.446177 -0.497801 -2.29191e-21)
(0.0157181 0.00554181 -5.47837e-20)
(-0.0075968 0.00952973 1.71939e-21)
(0.00106612 -0.00520966 -2.08775e-21)
(0.00481809 0.0114021 -7.07535e-20)
(0.0578904 0.0178908 -1.62469e-22)
(0.214856 0.0470637 0)
(0.0335497 0.0104394 2.22691e-20)
(-0.00815279 -0.0121136 -6.65703e-20)
(0.0020788 -0.00116273 2.91111e-20)
(0.404811 0.0780608 0)
(0.608433 0.10702 1.75405e-22)
(0.805373 0.131499 1.45042e-22)
(0.978727 0.15038 -6.85379e-23)
(1.1168 0.163495 5.7093e-23)
(1.21463 0.171398 -1.03212e-19)
(1.27397 0.175093 0)
(1.30172 0.175857 4.33369e-23)
(1.30735 0.174933 8.685e-20)
(1.30032 0.173361 0)
(1.28815 0.171856 0)
(1.2754 0.170756 0)
(1.26255 0.169781 8.97407e-24)
(1.24465 0.167748 2.85092e-25)
(1.21015 0.162428 0)
(1.143 0.151129 0)
(1.03038 0.13225 0)
(0.872198 0.106796 0)
(0.684166 0.0784152 0)
(0.491147 0.0516465 1.82124e-23)
(0.316655 0.0298259 -1.41379e-20)
(0.0960572 0.00576492 2.3004e-21)
(0.0511778 0.00312525 -3.45829e-21)
(0.0541684 0.00142703 0)
(0.027756 0.000965031 -3.13589e-21)
(0.0297721 0.00057713 0)
(0.0131587 0.000493657 0)
(0.0137305 9.75222e-06 4.62008e-22)
(0.0146276 -0.000100528 9.23291e-22)
(0.0143923 0.000398879 -4.62077e-22)
(0.00428735 6.12675e-05 -3.41619e-23)
(0.00440835 -4.40436e-05 -1.07945e-21)
(0.00261572 0.000211485 8.55201e-21)
(0.00435979 -7.45961e-05 0)
(0.176135 0.0143614 0)
(0.995508 -0.00303586 5.51326e-20)
(0.934898 -0.00736445 -7.07049e-20)
(0.750326 0.00944237 3.09686e-20)
(0.644394 -0.121887 0)
(0.638315 -0.0388016 0)
(0.468268 -0.349152 0)
(0.436732 -0.296564 1.61468e-20)
(0.388349 -0.183501 0)
(0.410158 -0.240889 -1.62529e-20)
(0.432556 -0.575927 1.73254e-20)
(0.339818 -0.473187 -1.5033e-20)
(0.223929 -0.402415 -1.55424e-20)
(0.282392 -0.447081 -3.38817e-22)
(0.371028 -0.495057 2.6144e-22)
(-0.0187949 0.00233799 -3.17837e-20)
(-0.00577653 -0.00211141 0)
(0.000617664 0.00742469 9.46551e-23)
(0.0599077 0.0146255 -7.21188e-20)
(0.00782285 -0.00175252 2.36731e-20)
(0.192401 0.0411903 2.7717e-19)
(0.00801944 4.01253e-05 -1.11626e-22)
(0.00410625 0.00504366 1.71581e-22)
(-0.0101131 -0.00326565 1.58927e-20)
(-0.00132639 -0.00068511 1.12617e-21)
(0.36503 0.0714425 0)
(0.557381 0.100474 -1.83522e-22)
(0.750639 0.125836 1.50021e-19)
(0.927101 0.146202 -3.0814e-24)
(1.07283 0.161054 1.11331e-19)
(1.18016 0.170561 2.11452e-24)
(1.24857 0.175569 0)
(1.28358 0.177281 -4.36934e-20)
(1.29424 0.176984 0)
(1.29028 0.175815 0)
(1.27977 0.174588 -3.86542e-20)
(1.26765 0.173672 0)
(1.25435 0.172697 8.30424e-24)
(1.23432 0.170326 8.1732e-24)
(1.19538 0.164189 0)
(1.12175 0.151645 -3.16207e-20)
(1.00246 0.131417 0)
(0.839962 0.10499 0)
(0.651623 0.0762821 -1.58226e-23)
(0.462251 0.0497083 0)
(0.29402 0.0283916 0)
(0.0856299 0.00538343 0)
(0.0446495 0.00292348 -3.42466e-21)
(0.047413 0.0012932 0)
(0.0237344 0.000880232 -5.18933e-22)
(0.0255748 0.000499055 3.43503e-22)
(0.0110542 0.000457918 0)
(0.0115857 -2.48462e-06 5.70432e-22)
(0.012454 -0.000104858 -1.1435e-22)
(0.0121912 0.000366064 7.92909e-25)
(0.00359545 6.53554e-05 0)
(0.00385114 -2.57666e-05 0)
(0.00410254 -4.01206e-05 3.45351e-23)
(0.00406498 5.57129e-05 0)
(0.160732 0.0135164 0)
(0.994633 0.00420541 0)
(0.940331 0.0207244 2.03935e-21)
(0.794733 0.0839911 8.45502e-22)
(0.370237 0.184595 -2.11009e-20)
(0.493607 0.269828 -2.27121e-21)
(0.373639 -0.124144 0)
(0.370519 -0.06636 0)
(0.406741 0.0472755 1.82727e-21)
(0.381032 -0.00773742 0)
(0.178165 -0.344278 -1.87998e-21)
(0.143333 -0.278211 -1.87455e-21)
(0.0993941 -0.141139 -2.42175e-20)
(0.117511 -0.209753 2.22457e-20)
(0.171923 -0.303721 -6.56777e-22)
(-0.0124092 -0.00171214 -1.85702e-20)
(-0.00576252 -0.0027805 0)
(-0.0015632 -0.00144392 -1.85529e-22)
(-0.00275148 0.00204259 1.6596e-20)
(-0.00168512 -0.000511691 -1.83081e-20)
(0.00904194 0.00620749 -2.0664e-20)
(0.0548767 0.0127608 -2.76514e-19)
(0.010093 -0.00229904 1.10375e-19)
(-0.000891506 -0.0003473 -1.65132e-20)
(-0.000171168 -0.00272652 -2.59705e-20)
(0.175759 0.0374892 0)
(-0.00286473 -0.0020748 -2.0469e-20)
(0.335142 0.0658523 0)
(0.517248 0.094209 -3.56594e-19)
(0.705501 0.120091 7.03151e-23)
(0.882593 0.141811 1.24803e-19)
(1.03346 0.158307 0)
(1.14836 0.169468 4.86805e-23)
(1.2246 0.175873 0)
(1.26618 0.178629 -8.27648e-23)
(1.28154 0.179048 0)
(1.28051 0.178351 -1.61686e-22)
(1.27161 0.177449 0)
(1.26006 0.17671 1.67945e-23)
(1.24613 0.175682 -3.3274e-20)
(1.22367 0.172872 -7.61048e-24)
(1.17992 0.165793 3.05947e-20)
(1.09965 0.151899 0)
(0.973834 0.130311 -3.18927e-20)
(0.807483 0.102977 3.46183e-20)
(0.619453 0.073997 0)
(0.434275 0.0476915 0)
(0.272657 0.0269455 0)
(0.0760003 0.00501069 0)
(0.0386464 0.00273589 0)
(0.0411731 0.00118212 -1.70132e-21)
(0.0200656 0.000823383 1.70649e-22)