/*--------------------------------*- C++ -*----------------------------------*\
| =========                 |                                                 |
| \\      /  F ield         | OpenFOAM: The Open Source CFD Toolbox           |
|  \\    /   O peration     | Version:  v1912                                 |
|   \\  /    A nd           | Website:  www.openfoam.com                      |
|    \\/     M anipulation  |                                                 |
\*---------------------------------------------------------------------------*/
FoamFile
{
    version     2.0;
    format      ascii;
    class       volScalarField;
    location    "180";
    object      p;
}
// * * * * * * * * * * * * * * * * * * * * * * * * * * * * * * * * * * * * * //

dimensions      [0 2 -2 0 0 0 0];


internalField   nonuniform List<scalar> 
3673
(
0.00162109
0.00186517
0.00146979
0.00210898
0.00170418
0.00132654
0.00232158
0.00194088
0.00155534
0.00119528
0.0025103
0.00215088
0.00178429
0.00141787
0.00107703
0.00266438
0.00234046
0.00198855
0.00164583
0.00129532
0.000963252
0.00277223
0.00249537
0.00217691
0.00184861
0.00151565
0.00117614
0.000860213
0.00281895
0.00260467
0.00233496
0.00202994
0.00170953
0.00138966
0.00106823
0.000765733
0.00279727
0.00265732
0.00245013
0.00218521
0.00188971
0.00158231
0.00127906
0.000970534
0.000675945
0.00270998
0.00264778
0.00251601
0.00230675
0.00204424
0.001759
0.00146724
0.0011751
0.000874187
0.000597833
0.00256724
0.00256849
0.00252615
0.00238234
0.00216099
0.00190831
0.00163742
0.0013582
0.00107732
0.000792226
0.000523883
0.00238859
0.00241967
0.00247701
0.00241033
0.00223764
0.0020234
0.00178238
0.00152603
0.00125798
0.000989018
0.000714148
0.000457644
0.00222553
0.00219285
0.00237573
0.00239612
0.00227081
0.00209346
0.00189017
0.00166357
0.00141794
0.00116118
0.000908034
0.000642901
0.000391792
0.00215182
0.0018973
0.00221888
0.00234612
0.00225958
0.00211465
0.00195408
0.00176543
0.00155381
0.0013207
0.00108088
0.000832183
0.000575876
0.000337225
0.00162843
0.00191732
0.0021726
0.00196592
0.00227893
0.00220904
0.00208924
0.00196862
0.00182448
0.00165526
0.00145283
0.00123289
0.000996491
0.000760218
0.00051707
0.000287653
0.00163461
0.00133171
0.00179394
0.00193266
0.00205328
0.00218442
0.00219018
0.00212431
0.0020149
0.00193201
0.00183424
0.00170902
0.00154483
0.0013557
0.00114479
0.000923395
0.000697388
0.00046215
0.000245387
0.00202574
0.00178593
0.00134034
0.00126176
0.00184078
0.00176129
0.00190882
0.00200216
0.00211327
0.0018736
0.0020175
0.00189673
0.00184902
0.0017944
0.00171346
0.00159435
0.00144511
0.00126705
0.00106885
0.000856387
0.000640437
0.00041699
0.000208491
0.00185248
0.00176848
0.00182178
0.00174991
0.000888407
0.00108098
0.00175995
0.00186935
0.00168269
0.00173525
0.00180778
0.00197869
0.00192307
0.00210146
0.00183385
0.00174852
0.00172704
0.00171088
0.00166901
0.00159622
0.00149093
0.0013533
0.00118533
0.00099574
0.000796654
0.000590201
0.000376115
0.000177735
0.00158329
0.00158942
0.00159906
0.00160295
0.00177454
0.00177681
0.0016983
0.000243195
0.00138083
0.00248443
0.00197166
0.00175473
0.00177181
0.0016738
0.00174749
0.00194178
0.00185842
0.00203307
0.00180157
0.00157165
0.00158908
0.0015814
0.00154995
0.00148808
0.00139488
0.00126529
0.00110917
0.000932242
0.000736709
0.00054626
0.00034185
0.000154418
0.00140629
0.00141396
0.00143673
0.00145216
0.00149491
0.00149068
0.0014731
0.00160022
0.00160014
0.00170332
0.00200707
-0.00106859
0.00281359
0.00221352
0.00162642
0.00164006
0.00166839
0.00191133
0.0019799
0.0014375
0.00145825
0.00145916
0.00143741
0.00138943
0.00130323
0.00118413
0.00103618
0.000866438
0.0006935
0.000507994
0.000314912
0.000135781
0.0012705
0.0012564
0.00129331
0.00130389
0.00136105
0.00136786
0.00137275
0.0014167
0.00141759
0.00142609
0.00144962
0.00154622
0.00150021
-0.00357506
0.0013085
0.00133232
0.00134703
0.00133862
0.00129575
0.00121848
0.00110727
0.000968842
0.000818595
0.000648966
0.000476012
0.000292421
0.000125558
0.00114028
0.00111819
0.00115771
0.0011544
0.00121281
0.00121821
0.00124021
0.0013018
0.00128326
0.00131321
0.00134773
0.00137907
0.00137038
0.00118537
0.00122511
0.00124739
0.00124402
0.00120826
0.00113736
0.0010353
0.000912831
0.000769082
0.000615455
0.000453444
0.000279987
0.000117196
0.00102062
0.000987685
0.0010276
0.00101916
0.00107528
0.00106811
0.00109571
0.00115916
0.00113212
0.00116579
0.00121245
0.0012635
0.00124255
0.00107943
0.0011227
0.00115079
0.00115533
0.00112399
0.00105959
0.000969796
0.000858259
0.000731094
0.000586192
0.000434894
0.000269787
0.000121423
0.000914973
0.000866611
0.000911108
0.000891387
0.00094243
0.000931258
0.000957743
0.00101771
0.00098951
0.00101647
0.00106386
0.00111842
0.00109189
0.000973558
0.0010283
0.00106336
0.00106742
0.0010422
0.000986656
0.000907113
0.000810502
0.00069333
0.000563291
0.000422106
0.000266631
0.00012787
0.000811103
0.000761505
0.000801597
0.00077509
0.000822833
0.000804335
0.000830164
0.000885123
0.000858383
0.000879674
0.000921194
0.000973722
0.000951408
0.000881309
0.000940784
0.000976496
0.000988513
0.00096508
0.000916696
0.000851372
0.000769214
0.000670231
0.000549583
0.000415625
0.000273514
0.000144159
0.000718922
0.000660242
0.000698515
0.000668756
0.000712095
0.000688329
0.000716552
0.000764883
0.000737613
0.000753454
0.000793072
0.000840379
0.000820514
0.000792367
0.000855256
0.000897952
0.000905565
0.000886265
0.000851591
0.000804531
0.000739238
0.000649916
0.000540401
0.000418433
0.000284766
0.000156376
0.000630328
0.000567978
0.000605912
0.000569377
0.000610689
0.000584101
0.000608051
0.000653103
0.000627467
0.000635241
0.000681164
0.000718808
0.000700377
0.000710336
0.000775674
0.00081354
0.000822254
0.000810877
0.000792111
0.000764926
0.000715463
0.000638269
0.000536029
0.000423945
0.000291728
0.000181093
0.000548097
0.000480768
0.000519473
0.000478668
0.000517366
0.000487407
0.000507138
0.000548786
0.000532737
0.000532124
0.000572639
0.00060957
0.000588626
0.00063142
0.000697384
0.000734621
0.000738359
0.000738714
0.000742099
0.000735848
0.000700029
0.000627976
0.000537988
0.000431528
0.000316324
0.000210138
0.000471232
0.000398511
0.000439795
0.000393824
0.000431126
0.000398981
0.000416546
0.000454768
0.000439685
0.000440922
0.000466993
0.000507441
0.000493395
0.000559028
0.000621984
0.000642866
0.000652145
0.000674224
0.00070682
0.000716639
0.00068665
0.00062717
0.000541014
0.000452723
0.000340269
0.000245682
0.000400698
0.000318008
0.000368199
0.000315218
0.000350983
0.000316098
0.000332855
0.000366908
0.000355267
0.000353385
0.00037686
0.000412266
0.000400623
0.000485064
0.000532585
0.000546461
0.000569398
0.000627386
0.000686776
0.000703145
0.000677991
0.000624837
0.000556643
0.000468645
0.00037488
0.000288273
0.000327687
0.000243175
0.000298065
0.000238519
0.000275859
0.000239684
0.000256815
0.000287921
0.000274364
0.000270634
0.000293744
0.000324337
0.000316745
0.000408621
0.00043811
0.000442725
0.00050347
0.000606312
0.000674442
0.000690312
0.00067088
0.000628253
0.000567747
0.000500027
0.000411296
0.000334493
0.000262042
0.000171351
0.000229338
0.000164523
0.000207143
0.000165606
0.000179017
0.000211674
0.00020352
0.000195153
0.000218777
0.00024664
0.000235088
0.000326524
0.000314614
0.000345642
0.000478589
0.000601629
0.000662818
0.000676869
0.000663881
0.000634509
0.000589421
0.000531736
0.00045592
0.00039333
0.000191716
9.63289e-05
0.00016231
9.40591e-05
0.000138671
9.47243e-05
0.000109676
0.000140475
0.000134077
0.000121041
0.000135657
0.000168244
0.000174564
0.000210567
0.000180592
0.000305444
0.000487319
0.000600863
0.000642708
0.00065696
0.000660326
0.000646405
0.000618442
0.000573828
0.000509716
0.000460547
0.0001122
1.66074e-05
9.62788e-05
2.52746e-05
6.94109e-05
2.39624e-05
4.46018e-05
7.57142e-05
6.24597e-05
5.1791e-05
6.74288e-05
9.71598e-05
0.000104956
5.74757e-05
8.66023e-05
0.000336424
0.000514421
0.0005778
0.000610258
0.000640064
0.000658268
0.000665574
0.000650909
0.000622711
0.000571839
0.000538158
8.48932e-06
-7.16616e-05
3.46649e-05
-5.36838e-05
-5.11423e-07
-4.58959e-05
-2.33466e-05
7.14553e-06
-4.74967e-06
-1.84187e-05
5.06253e-06
3.47041e-05
3.18624e-05
-0.000156809
0.000138433
0.000415358
0.000493476
0.000530893
0.00057749
0.000623824
0.000664942
0.000688563
0.000694221
0.000675767
0.000646583
0.000626544
-0.00030135
-0.000166688
-3.12072e-05
-0.000130231
-6.86502e-05
-0.000123284
-9.31862e-05
-5.99973e-05
-7.65001e-05
-8.56409e-05
-6.2964e-05
-3.43758e-05
-3.24254e-05
-0.000153929
0.000317188
0.000399267
0.000426413
0.000480236
0.000545908
0.000613918
0.00067245
0.00071706
0.000736021
0.000751514
0.000729439
0.000727351
-0.000523619
-0.0004917
-0.000142964
-0.000190597
-0.000142611
-0.000209835
-0.000167473
-0.000127554
-0.000156099
-0.000158905
-0.000130388
-0.000101927
-0.000103275
0.000223637
0.000308463
0.000307497
0.000358333
0.000432868
0.000517582
0.000604812
0.000685401
0.000750753
0.000802938
0.00082176
0.000826852
0.0008415
9.70746e-05
-0.000390255
-0.000830584
-0.000221985
-0.000122923
-0.000314571
-0.000239035
-0.000208435
-0.000250658
-0.000243113
-0.00020747
-0.000175019
-0.000177057
0.000220234
0.00017198
0.000219015
0.000295514
0.000386837
0.000491171
0.000600631
0.00070638
0.000798817
0.000863178
0.000918701
0.000931596
0.000963224
8.50196e-05
-5.9907e-05
-4.20753e-05
-0.000493966
-0.00144627
-3.30116e-05
-0.000111061
-0.000234844
-0.000312453
-0.000352118
-0.000298633
-0.000253192
-0.000275756
2.87898e-05
6.81121e-05
0.000146149
0.000236757
0.000344282
0.00046596
0.000598904
0.000731395
0.000848239
0.000949125
0.00100947
0.00105284
0.00111105
-0.000112123
-0.000159127
-0.000187305
-0.000201779
-3.06642e-05
-8.57087e-05
0.000532038
0.000346226
-0.00229701
-0.000169676
-0.000308207
-0.000337043
-0.000372292
-8.54958e-05
-2.96852e-06
8.08309e-05
0.000179094
0.000298175
0.000442982
0.00060182
0.000763773
0.000912193
0.00103227
0.00112994
0.00119182
0.00127189
-0.000222027
-0.000240733
-0.000248894
-0.000274688
-0.000280089
-0.000313011
-0.000351524
-0.000192755
-0.000231706
5.60938e-05
-0.00451608
-0.00015085
-7.24212e-05
1.03164e-05
0.000116976
0.000255138
0.000422938
0.000611478
0.000804747
0.000986167
0.0011349
0.0012605
0.00134525
0.00144764
-0.00028934
-0.000317545
-0.000313614
-0.000325452
-0.000303071
-0.000320706
-0.00033462
-0.000340806
-0.000321628
-0.000217897
-0.000147914
-6.01416e-05
5.81962e-05
0.000212223
0.000403849
0.000624054
0.000852948
0.00106424
0.00125531
0.00140308
0.00151672
0.00164846
-0.000357946
-0.00039009
-0.000379188
-0.000397058
-0.000366966
-0.000368954
-0.000371093
-0.000339228
-0.000343686
-0.000292118
-0.000223226
-0.000132562
-6.49298e-06
0.000166657
0.000387997
0.000643465
0.000907944
0.0011634
0.00138356
0.00156907
0.00171336
0.0018672
-0.000426057
-0.000462958
-0.00044325
-0.000467216
-0.000435081
-0.00044996
-0.000439507
-0.000397286
-0.000412627
-0.000370331
-0.000302789
-0.00020934
-7.36425e-05
0.000122504
0.000376343
0.000668236
0.000976585
0.00127744
0.00153209
0.00175804
0.00192186
0.00210369
-0.000502157
-0.000533862
-0.000509649
-0.000534417
-0.000504515
-0.000519111
-0.000509858
-0.000470323
-0.000484424
-0.00044723
-0.000383838
-0.000291628
-0.000141974
7.96829e-05
0.000366839
0.000703848
0.00106164
0.00139677
0.0017041
0.00194984
0.00216499
0.00236377
-0.000576384
-0.00060717
-0.000581756
-0.000603599
-0.000569323
-0.000590869
-0.000573298
-0.000540208
-0.000554554
-0.000530211
-0.000477197
-0.000382071
-0.000213165
3.56954e-05
0.000363769
0.000746239
0.001146
0.00153457
0.00188069
0.00218749
0.00243249
0.00268659
-0.000655643
-0.000684118
-0.00065264
-0.000675377
-0.000639263
-0.00065609
-0.000642699
-0.000607669
-0.000621645
-0.000624708
-0.000579918
-0.000477254
-0.000288244
-4.69961e-06
0.000364354
0.000794823
0.00124846
0.00169427
0.00209337
0.00245143
0.00275253
0.00303681
-0.000742756
-0.000758427
-0.000726899
-0.000748523
-0.000711225
-0.00072712
-0.000711434
-0.000670086
-0.000688999
-0.000730871
-0.000690888
-0.000573038
-0.000359767
-4.26432e-05
0.000370239
0.000854988
0.00137269
0.00186597
0.00233872
0.00272852
0.00328819
0.00126798
-0.000844323
-0.000839217
-0.000802066
-0.000819824
-0.000784296
-0.00079786
-0.000783798
-0.00074614
-0.000761507
-0.000855353
-0.000810799
-0.00066914
-0.000432476
-8.17766e-05
0.00038108
0.000925583
0.0014985
0.00207869
0.00255688
0.00333502
0.00147895
-0.000970707
-0.000929018
-0.000885343
-0.000895339
-0.000858625
-0.000868304
-0.000854928
-0.00081753
-0.000833253
-0.000997647
-0.000918364
-0.000769081
-0.00051237
-0.000120334
0.000398885
0.00100264
0.00166009
0.00223686
0.0031212
0.00153868
-0.00111062
-0.00113131
-0.000991174
-0.000960313
-0.000929679
-0.000949152
-0.000928958
-0.000892588
-0.000909794
-0.00111228
-0.00102789
-0.00087688
-0.000593546
-0.000153995
0.000420599
0.00110576
0.00175895
0.00272153
0.00139494
-0.00124749
-0.00115557
-0.00144194
-0.000937323
-0.000958507
-0.00103188
-0.00100886
-0.000968458
-0.000989132
-0.00121297
-0.00115368
-0.000994764
-0.000675225
-0.000187912
0.00046215
0.00115324
0.00215313
0.00112494
-0.00134186
-0.00132409
-0.0012375
-0.00141885
-0.00157464
-0.00213832
-0.00373565
0.00137015
-0.00115394
-0.00111693
-0.00105384
-0.00108156
-0.00134414
-0.0012981
-0.00111808
-0.000759394
-0.000208812
0.000460314
0.00143943
0.000770051
-0.00146651
-0.00142969
-0.00137262
-0.00136563
-0.00136795
-0.00135266
-0.00137758
-0.00139386
-0.0013779
-0.0009778
-0.000703565
-0.00150174
-0.0014519
-0.00124295
-0.000838203
-0.000254204
0.00062862
0.000359731
-0.0016224
-0.00156249
-0.00148974
-0.00146411
-0.00144248
-0.0014088
-0.00138937
-0.00139467
-0.0013892
-0.00139003
-0.00138887
-0.00145273
-0.00145984
-0.00129533
-0.00167452
-0.0016113
-0.00137244
-0.000920246
-0.000206299
-6.60966e-05
-0.00180058
-0.0017163
-0.00163204
-0.0016042
-0.00156576
-0.00152912
-0.0015002
-0.00148376
-0.00145505
-0.00143003
-0.00140894
-0.00141273
-0.00140757
-0.00141999
-0.00142841
-0.00185739
-0.00178078
-0.00148394
-0.000988822
-0.000472866
-0.00199488
-0.00189207
-0.00179393
-0.00175714
-0.00171259
-0.00167581
-0.00163256
-0.00161789
-0.0015852
-0.00154594
-0.00151666
-0.00149672
-0.0014642
-0.00144592
-0.0014207
-0.00205986
-0.00192015
-0.00165639
-0.000827437
-0.00222186
-0.00208594
-0.00197573
-0.00192569
-0.00188084
-0.00183664
-0.00178841
-0.00176751
-0.00172866
-0.00169105
-0.00164819
-0.00162911
-0.00159529
-0.00155992
-0.00152782
-0.00223778
-0.00217872
-0.00110824
-0.00245255
-0.00231946
-0.00218687
-0.00211583
-0.00206863
-0.00201767
-0.00196474
-0.00193371
-0.00189206
-0.00184592
-0.00180528
-0.001776
-0.00173878
-0.00169985
-0.00166085
-0.00257169
-0.00131281
-0.00290349
-0.00254597
-0.00241704
-0.00234104
-0.00228482
-0.00222253
-0.0021662
-0.00212192
-0.00207221
-0.00202486
-0.00197894
-0.00193985
-0.00190301
-0.00185102
-0.00181366
-0.00145267
-0.00167634
-0.00301941
-0.00272365
-0.00257815
-0.00251488
-0.00245935
-0.00239553
-0.00233859
-0.00228323
-0.00222646
-0.00217342
-0.00212072
-0.00207794
-0.00202889
-0.0019842
-0.00159132
-0.00319553
-0.00298148
-0.00287017
-0.00274224
-0.00265119
-0.00257811
-0.00251393
-0.00245588
-0.00239727
-0.00233509
-0.00228179
-0.00222594
-0.00217254
-0.00136563
-0.0033035
-0.00335143
-0.00310179
-0.0029524
-0.00284967
-0.0027447
-0.00265564
-0.00256279
-0.00250432
-0.00244638
-0.0023907
-0.00133861
-0.00362776
-0.00336581
-0.00306779
-0.00293456
-0.00282216
-0.00272296
-0.00263507
-0.00164352
-0.00392864
-0.00334518
-0.00305194
-0.0714695
-0.0717224
-0.0707516
-0.0723185
-0.0717659
-0.0709506
-0.0701535
-0.0729642
-0.0724478
-0.0716217
-0.0710827
-0.0703226
-0.0695167
-0.0731283
-0.0736249
-0.0729792
-0.0713051
-0.0702975
-0.0704477
-0.0696584
-0.0688403
-0.0737946
-0.0743125
-0.0740239
-0.0743606
-0.0717092
-0.0686885
-0.0689929
-0.0697847
-0.0689805
-0.068209
-0.0744906
-0.0750778
-0.0768051
-0.0744333
-0.0757409
-0.0720934
-0.0690943
-0.0660678
-0.0676711
-0.0691237
-0.0684736
-0.0683362
-0.0675698
-0.0752063
-0.0757954
-0.0796284
-0.0772378
-0.0771579
-0.0748143
-0.0759248
-0.0724382
-0.0694621
-0.0664934
-0.0663748
-0.0635305
-0.0650968
-0.067828
-0.0671677
-0.0677123
-0.0669171
-0.0764497
-0.0825319
-0.080081
-0.0800069
-0.078564
-0.0776188
-0.0773003
-0.0766036
-0.0751572
-0.0727376
-0.0697932
-0.0668666
-0.063945
-0.0665103
-0.0658698
-0.0638367
-0.0610546
-0.0625673
-0.0652404
-0.0645709
-0.0670526
-0.0662387
-0.0771279
-0.0855338
-0.0829987
-0.0829204
-0.0814508
-0.0804759
-0.080156
-0.0794459
-0.0787525
-0.078023
-0.0779555
-0.0754602
-0.0729971
-0.0700858
-0.0671974
-0.0643173
-0.0614643
-0.0663765
-0.065739
-0.0638937
-0.0631472
-0.0613434
-0.0586433
-0.0601207
-0.0622337
-0.0651184
-0.0644534
-0.0656124
-0.0778957
-0.0885974
-0.0859985
-0.0859118
-0.0844105
-0.0834049
-0.083078
-0.082353
-0.0816451
-0.0808994
-0.0808222
-0.0799805
-0.0792896
-0.0786235
-0.0782561
-0.0757229
-0.0732076
-0.0703349
-0.0674868
-0.0646454
-0.0618277
-0.0590395
-0.0637732
-0.0631294
-0.0610896
-0.0589246
-0.0562763
-0.057718
-0.0598911
-0.0618395
-0.0624922
-0.0649784
-0.0643283
-0.0916074
-0.0890278
-0.0889872
-0.0874348
-0.086402
-0.0860761
-0.0853365
-0.0846094
-0.0838455
-0.0837573
-0.0829006
-0.0821952
-0.0815154
-0.0807699
-0.0811274
-0.078523
-0.0759413
-0.0733618
-0.0705363
-0.0677327
-0.0649331
-0.0621474
-0.0593905
-0.0566531
-0.0636733
-0.0631133
-0.0612169
-0.0606117
-0.0586865
-0.0565436
-0.0539355
-0.0553612
-0.0574896
-0.0594177
-0.0600259
-0.0948312
-0.0920836
-0.092022
-0.090463
-0.0894311
-0.0891527
-0.0883834
-0.0876271
-0.0868563
-0.0867526
-0.0859005
-0.085179
-0.0844812
-0.0837162
-0.0840684
-0.0813948
-0.078748
-0.076107
-0.0734502
-0.0706817
-0.0679263
-0.0651774
-0.0624303
-0.0597034
-0.0570009
-0.0543107
-0.0587935
-0.0581984
-0.0562964
-0.0541946
-0.0516851
-0.053045
-0.0551345
-0.0570217
-0.0576218
-0.0979002
-0.0953399
-0.0952814
-0.0936662
-0.0925187
-0.0921292
-0.0914181
-0.0906843
-0.0899412
-0.0897907
-0.0889464
-0.0882091
-0.0875023
-0.0867305
-0.0870623
-0.0843389
-0.081622
-0.078922
-0.0762095
-0.0734624
-0.0707575
-0.0680619
-0.06537
-0.0626715
-0.0599826
-0.0573155
-0.054663
-0.0520525
-0.0564036
-0.0558053
-0.0540108
-0.0519305
-0.049435
-0.0507963
-0.0528471
-0.0546108
-0.0552186
-0.0986148
-0.0985947
-0.0968739
-0.0999199
-0.100792
-0.0957573
-0.0954344
-0.0946521
-0.0939032
-0.0930362
-0.0928972
-0.0903705
-0.0897462
-0.0901094
-0.0873365
-0.0845694
-0.0818038
-0.0790349
-0.0762369
-0.0733949
-0.0707531
-0.0681248
-0.0655012
-0.0628644
-0.0602222
-0.0575943
-0.0549814
-0.0523965
-0.0498205
-0.0540112
-0.0536148
-0.0516985
-0.0496783
-0.0472283
-0.048572
-0.0505617
-0.0523544
-0.0529181
-0.101971
-0.0990809
-0.100361
-0.0987789
-0.0979573
-0.0971495
-0.0962871
-0.102261
-0.102131
-0.0961187
-0.0932301
-0.0903925
-0.0875749
-0.0847561
-0.0819277
-0.0790762
-0.0761867
-0.0732537
-0.0706677
-0.0681067
-0.0655558
-0.0629895
-0.060411
-0.0578298
-0.0552585
-0.0527084
-0.0501657
-0.0476158
-0.0534845
-0.0517943
-0.0512329
-0.0494521
-0.0474778
-0.0450772
-0.0463918
-0.0483525
-0.0501251
-0.0506857
-0.0522085
-0.0527172
-0.102498
-0.0994372
-0.101215
-0.101562
-0.100533
-0.0996509
-0.104144
-0.102274
-0.1039
-0.096454
-0.0935276
-0.0906458
-0.0877712
-0.0848904
-0.0819839
-0.079044
-0.0760639
-0.0730502
-0.0705072
-0.0680056
-0.065525
-0.0630372
-0.0605325
-0.0580149
-0.0554925
-0.0529812
-0.0504739
-0.0479613
-0.0454585
-0.0516605
-0.0511099
-0.0495605
-0.049007
-0.0472615
-0.0453232
-0.0429723
-0.0442547
-0.0461805
-0.0479168
-0.0484699
-0.050001
-0.0505587
-0.102858
-0.0997794
-0.102211
-0.101373
-0.103242
-0.104138
-0.0967629
-0.0937949
-0.0908595
-0.0879208
-0.0849622
-0.0819704
-0.0789413
-0.0758813
-0.072796
-0.0702842
-0.0678265
-0.0654065
-0.0629965
-0.060574
-0.0581319
-0.0556746
-0.0532112
-0.050745
-0.0482685
-0.0457994
-0.0433456
-0.0494324
-0.0488845
-0.0473611
-0.0468177
-0.0451093
-0.0432094
-0.0409098
-0.0421567
-0.044046
-0.0457483
-0.0462907
-0.0477907
-0.0483395
-0.103204
-0.100092
-0.103097
-0.10206
-0.103983
-0.0970387
-0.0940274
-0.0910268
-0.0880119
-0.0849681
-0.0818897
-0.0787802
-0.0756476
-0.0724994
-0.07001
-0.0675837
-0.0652082
-0.0628651
-0.0605227
-0.0581642
-0.0557836
-0.0533842
-0.0509703
-0.0485384
-0.0461031
-0.0436799
-0.0412696
-0.0472319
-0.0466943
-0.045204
-0.0446706
-0.0429938
-0.0411329
-0.0388724
-0.0400958
-0.0419475
-0.0436202
-0.0441527
-0.0456224
-0.0461606
-0.103522
-0.100377
-0.102937
-0.103808
-0.0972828
-0.0942143
-0.0911382
-0.0880382
-0.0849088
-0.0817508
-0.0785685
-0.0753716
-0.0721748
-0.0696949
-0.0672891
-0.0649449
-0.062649
-0.0603759
-0.0581015
-0.0558077
-0.0534865
-0.0511387
-0.048763
-0.0463702
-0.0439779
-0.0415961
-0.0392191
-0.045075
-0.0445476
-0.0430862
-0.0425628
-0.0409128
-0.0390869
-0.0368725
-0.0380695
-0.0398838
-0.0415313
-0.0420534
-0.0434953
-0.044024
-0.103812
-0.100633
-0.0974878
-0.0943468
-0.0911885
-0.0880025
-0.0847938
-0.0815615
-0.0783135
-0.0750647
-0.0718297
-0.0693525
-0.0669541
-0.0646294
-0.0623658
-0.0601439
-0.057942
-0.0557343
-0.0535023
-0.0512362
-0.0489308
-0.0465943
-0.0442422
-0.0418914
-0.0395458
-0.0372147
-0.0429589
-0.0424417
-0.0410067
-0.040492
-0.0388733
-0.0370771
-0.0349208
-0.0360853
-0.0378864
-0.0394745
-0.0399898
-0.0414079
-0.0419261
-0.104075
-0.100852
-0.0976411
-0.09442
-0.0911777
-0.0879128
-0.084629
-0.0813288
-0.0780263
-0.0747352
-0.0714883
-0.0689924
-0.0665936
-0.0642743
-0.06203
-0.059843
-0.057694
-0.0555615
-0.0534177
-0.0512422
-0.0490244
-0.0467597
-0.0444636
-0.0421523
-0.0398438
-0.0375432
-0.0352639
-0.0408818
-0.0403717
-0.0389537
-0.0384411
-0.0369031
-0.0351142
-0.0329816
-0.0341332
-0.0358936
-0.0374665
-0.0379482
-0.0393503
-0.0398639
-0.104309
-0.101024
-0.0977377
-0.0944338
-0.0911128
-0.0877733
-0.0844201
-0.081063
-0.077714
-0.0744052
-0.0711819
-0.0686404
-0.0662189
-0.0638951
-0.0616549
-0.059488
-0.0573753
-0.0552977
-0.0532306
-0.0511469
-0.0490257
-0.04685
-0.0446275
-0.0423737
-0.0401076
-0.0378436
-0.0355887
-0.0333344
-0.0388218
-0.0382987
-0.0370125
-0.0364577
-0.0349023
-0.0331659
-0.031091
-0.0321975
-0.0339202
-0.0354781
-0.0359761
-0.0372665
-0.0377719
-0.104501
-0.101143
-0.0977766
-0.0943944
-0.0909982
-0.0875891
-0.084177
-0.0807701
-0.0773989
-0.0741076
-0.0709496
-0.0683288
-0.0658551
-0.0635037
-0.0612568
-0.0590939
-0.0570022
-0.0549619
-0.052952
-0.050949
-0.0489225
-0.0468475
-0.0447161
-0.0425387
-0.0403295
-0.0381086
-0.0358861
-0.0336611
-0.0314401
-0.0370193
-0.0362969
-0.0349863
-0.0344966
-0.0329557
-0.0312425
-0.0292423
-0.0302647
-0.0319932
-0.0335345
-0.034022
-0.0353544
-0.0358318
-0.104643
-0.101207
-0.0977629
-0.0943055
-0.0908386
-0.0873694
-0.0839049
-0.0804713
-0.0771124
-0.0738786
-0.0708273
-0.0680936
-0.0655366
-0.0631266
-0.0608489
-0.0586778
-0.0565899
-0.0545714
-0.0526005
-0.0506573
-0.0487129
-0.0467382
-0.0447111
-0.0426275
-0.0404923
-0.038328
-0.0361486
-0.0339581
-0.0317628
-0.0296056
-0.0369494
-0.0361399
-0.0348737
-0.0343904
-0.0330484
-0.0325648
-0.0310379
-0.0292738
-0.0274196
-0.0281037
-0.0300824
-0.0316107
-0.0320945
-0.0334296
-0.0339141
-0.0352374
-0.035698
-0.104732
-0.10122
-0.0976996
-0.0941709
-0.0906424
-0.0871193
-0.0836244
-0.0801985
-0.0768914
-0.0737559
-0.0708354
-0.0679723
-0.0653006
-0.0627985
-0.0604576
-0.0582539
-0.0561568
-0.054142
-0.0521934
-0.0502904
-0.0484082
-0.0465216
-0.0445969
-0.0426185
-0.0405784
-0.0384908
-0.0363674
-0.0342218
-0.0320595
-0.0299094
-0.0277887
-0.034755
-0.0342793
-0.0329455
-0.0324636
-0.0311276
-0.0306499
-0.0291563
-0.0268479
-0.0256481
-0.0282333
-0.0297113
-0.0301824
-0.031506
-0.0319882
-0.033315
-0.0337942
-0.104771
-0.101183
-0.0975901
-0.0939983
-0.0904134
-0.0868586
-0.0833664
-0.0799882
-0.076776
-0.0737639
-0.0709706
-0.0679849
-0.0651802
-0.0625551
-0.0601185
-0.0578502
-0.0557183
-0.0536932
-0.0517479
-0.0498677
-0.0480283
-0.0462061
-0.0443719
-0.0424986
-0.0405666
-0.0385718
-0.0365255
-0.0344388
-0.0323214
-0.0301993
-0.0280893
-0.0259981
-0.0328257
-0.0323504
-0.0310245
-0.0305454
-0.0292454
-0.0288133
-0.0272086
-0.0252259
-0.0262967
-0.0239036
-0.0280792
-0.0295952
-0.0300724
-0.03139
-0.031867
-0.10476
-0.101099
-0.0974411
-0.0937913
-0.0901708
-0.0866175
-0.0831683
-0.0798819
-0.0767917
-0.0739034
-0.0712079
-0.0681274
-0.065194
-0.0624311
-0.059868
-0.0575022
-0.0553032
-0.0532406
-0.0512838
-0.049407
-0.0475916
-0.0458136
-0.0440475
-0.0422667
-0.0404421
-0.0385549
-0.0366052
-0.0345958
-0.0325384
-0.0304569
-0.0283725
-0.0262996
-0.0242409
-0.0309044
-0.0304325
-0.0291057
-0.0285354
-0.0272976
-0.0268463
-0.0254365
-0.02352
-0.0245596
-0.0264026
-0.0259451
-0.0221707
-0.028211
-0.027751
-0.0294913
-0.0299556
-0.104701
-0.100974
-0.0972554
-0.093568
-0.0899443
-0.0864321
-0.0830716
-0.079907
-0.0769423
-0.074151
-0.0715033
-0.0683732
-0.0653373
-0.0624421
-0.0597396
-0.0572463
-0.054947
-0.052814
-0.0508191
-0.0489295
-0.0471172
-0.0453639
-0.0436443
-0.0419336
-0.0402039
-0.0384257
-0.0365848
-0.0346723
-0.0326959
-0.030673
-0.028625
-0.0265794
-0.0245409
-0.0225012
-0.0290351
-0.0286104
-0.0254943
-0.0250652
-0.0236882
-0.0218266
-0.0228163
-0.0246457
-0.0241951
-0.0204667
-0.104599
-0.100811
-0.0970502
-0.0933563
-0.0897694
-0.0863433
-0.0831048
-0.0800681
-0.077208
-0.0744698
-0.071802
-0.0686812
-0.0655821
-0.0625794
-0.0597457
-0.0571126
-0.0546856
-0.0524507
-0.0503845
-0.0484534
-0.0466273
-0.0448773
-0.0431839
-0.0415208
-0.0398628
-0.0381812
-0.0364491
-0.034648
-0.0327715
-0.0308262
-0.028837
-0.0268287
-0.0248156
-0.0228053
-0.0207942
-0.0237425
-0.0233215
-0.0219418
-0.0201418
-0.0211173
-0.0229069
-0.0224575
-0.0187992
-0.104457
-0.100624
-0.0968527
-0.0931921
-0.0896886
-0.0863813
-0.0832744
-0.0803461
-0.0775515
-0.0748261
-0.0720936
-0.0690128
-0.0658854
-0.062813
-0.0598759
-0.0571153
-0.0545517
-0.0521875
-0.0500168
-0.0480101
-0.0461413
-0.0443762
-0.042686
-0.0410497
-0.0394407
-0.0378327
-0.0361987
-0.0345092
-0.0327452
-0.0309011
-0.0289884
-0.0270342
-0.0250587
-0.0230804
-0.0211003
-0.0191256
-0.0219877
-0.0215379
-0.0203204
-0.0184445
-0.0193966
-0.0210967
-0.0206491
-0.0171362
-0.104288
-0.100441
-0.0966967
-0.0931157
-0.0897321
-0.0865533
-0.0835578
-0.0806997
-0.0779292
-0.0751975
-0.0693438
-0.0715996
-0.0729921
-0.0662049
-0.0631017
-0.0601028
-0.0572457
-0.0545565
-0.0520533
-0.0497523
-0.0476379
-0.0456917
-0.0438821
-0.0421757
-0.0405422
-0.0389606
-0.0374032
-0.0358441
-0.0342535
-0.0326033
-0.0308733
-0.0290624
-0.0271849
-0.0252617
-0.0233238
-0.0213761
-0.0194278
-0.0174678
-0.0204689
-0.0198099
-0.0185662
-0.0167696
-0.0177328
-0.0194327
-0.0190284
-0.0154945
-0.104119
-0.100295
-0.0966254
-0.0931583
-0.0899059
-0.086838
-0.0839121
-0.081073
-0.0782839
-0.0746282
-0.0762002
-0.0664979
-0.0688086
-0.0702395
-0.0717712
-0.0730213
-0.063403
-0.0603877
-0.0574724
-0.0546868
-0.0520583
-0.04962
-0.0473725
-0.0453174
-0.0434284
-0.0416739
-0.0400231
-0.0384445
-0.036915
-0.0354074
-0.0338934
-0.0323447
-0.0307298
-0.0290334
-0.0272541
-0.0254113
-0.0235268
-0.0216184
-0.0197011
-0.0177707
-0.0158276
-0.0204589
-0.0196658
-0.018627
-0.0182132
-0.0169101
-0.015134
-0.0160885
-0.0178094
-0.0173892
-0.0193222
-0.0189321
-0.0138816
-0.103982
-0.100225
-0.0966718
-0.0933329
-0.0901917
-0.0871937
-0.0842837
-0.0814121
-0.0776962
-0.0792895
-0.0748285
-0.0763147
-0.0636831
-0.0659697
-0.0673643
-0.0688937
-0.070365
-0.0715765
-0.0723605
-0.0737808
-0.072621
-0.0606882
-0.0577563
-0.0549132
-0.052191
-0.0496276
-0.0472418
-0.0450544
-0.0430533
-0.0412159
-0.0395163
-0.0379185
-0.0363914
-0.0349121
-0.0334513
-0.0319803
-0.030469
-0.0288897
-0.0272251
-0.02548
-0.0236719
-0.021817
-0.0199397
-0.018043
-0.0161305
-0.0142128
-0.0185114
-0.0181039
-0.0169724
-0.0165632
-0.0152767
-0.0135246
-0.0144631
-0.0161611
-0.0157451
-0.0177103
-0.0172894
-0.0122912
-0.103918
-0.10027
-0.0968467
-0.0936225
-0.0905509
-0.0875693
-0.0846276
-0.0808287
-0.0824517
-0.0778299
-0.079396
-0.0745546
-0.0752876
-0.0767596
-0.0759774
-0.060969
-0.0631983
-0.0645596
-0.0660686
-0.0674658
-0.0686316
-0.0693339
-0.0707873
-0.070068
-0.0715176
-0.0722844
-0.072054
-0.058055
-0.0551948
-0.0524176
-0.0497606
-0.0472535
-0.0449276
-0.0427913
-0.040841
-0.0390566
-0.0374069
-0.0358594
-0.0343826
-0.0329507
-0.0315336
-0.0301034
-0.0286283
-0.0270811
-0.0254496
-0.0237359
-0.0219558
-0.0201335
-0.018279
-0.0164013
-0.0145118
-0.0126219
-0.0168542
-0.0164501
-0.0153325
-0.0149287
-0.0136611
-0.0119341
-0.0128569
-0.0145306
-0.0141202
-0.0160579
-0.0156413
-0.0107225
-0.103962
-0.100444
-0.0971369
-0.0939879
-0.0909341
-0.0879236
-0.0840393
-0.0856933
-0.0809722
-0.0825731
-0.0775403
-0.0783266
-0.0798622
-0.0790744
-0.0583331
-0.0605011
-0.0618334
-0.063307
-0.0646746
-0.0658109
-0.0665076
-0.067898
-0.0671988
-0.0686779
-0.0693792
-0.0708057
-0.0700966
-0.0554891
-0.0526967
-0.0499862
-0.0473896
-0.0449415
-0.0426685
-0.0405829
-0.0386824
-0.0369456
-0.0353443
-0.0338465
-0.0324163
-0.0310294
-0.0296547
-0.0282607
-0.0268203
-0.0253049
-0.0237024
-0.022018
-0.0202683
-0.0184704
-0.0166344
-0.0147783
-0.0129173
-0.0110532
-0.015213
-0.0148145
-0.0137132
-0.0133144
-0.0120639
-0.0103611
-0.0112687
-0.0129209
-0.0125156
-0.0144268
-0.0140159
-0.00917211
-0.104134
-0.100736
-0.0975073
-0.0943806
-0.0913001
-0.0873251
-0.0890143
-0.0841874
-0.0858225
-0.0806742
-0.0814749
-0.0830467
-0.0822428
-0.0557628
-0.0578728
-0.0591756
-0.0606097
-0.0619466
-0.0630499
-0.0637342
-0.0650967
-0.0644072
-0.0658583
-0.0665509
-0.0679466
-0.0672475
-0.0529871
-0.0502624
-0.0476149
-0.0450784
-0.0426864
-0.0404642
-0.0384279
-0.0365741
-0.0348832
-0.0333295
-0.0318764
-0.0304916
-0.0291478
-0.0278112
-0.0264535
-0.0250431
-0.0235565
-0.0219839
-0.0203292
-0.0186015
-0.0168183
-0.0150028
-0.0131746
-0.0113424
-0.00950167
-0.0135943
-0.0132006
-0.0121131
-0.0117193
-0.0104827
-0.00880381
-0.00969458
-0.0113296
-0.0109287
-0.0128173
-0.0124112
-0.00763697
-0.104427
-0.101111
-0.0979089
-0.0947588
-0.0906899
-0.0924171
-0.087477
-0.0891496
-0.0838813
-0.0846993
-0.086307
-0.085485
-0.053256
-0.0553105
-0.0565833
-0.0579789
-0.059284
-0.060356
-0.0610247
-0.0623554
-0.0616803
-0.0630943