/*--------------------------------*- C++ -*----------------------------------*\
| =========                 |                                                 |
| \\      /  F ield         | OpenFOAM: The Open Source CFD Toolbox           |
|  \\    /   O peration     | Version:  v1912                                 |
|   \\  /    A nd           | Website:  www.openfoam.com                      |
|    \\/     M anipulation  |                                                 |
\*---------------------------------------------------------------------------*/
FoamFile
{
    version     2.0;
    format      ascii;
    class       surfaceScalarField;
    location    "380";
    object      phi;
}
// * * * * * * * * * * * * * * * * * * * * * * * * * * * * * * * * * * * * * //

dimensions      [0 3 -1 0 0 0 0];
oriented        oriented;


internalField   nonuniform List<scalar> 
7354
(
-3.56176e-06
0.00134708
-1.32687e-05
0.00413227
-2.80592e-06
0.00134989
-3.3924e-05
0.00695024
-1.35488e-05
0.00414301
-3.84331e-06
0.00135373
-6.14623e-05
0.00968798
-3.36135e-05
0.0069703
-1.42346e-05
0.0041534
-2.79199e-06
0.00135652
-9.49582e-05
0.0121658
-6.04594e-05
0.00971483
-3.20745e-05
0.00698814
-1.15695e-05
0.00416218
-2.82858e-06
0.00135935
-0.000143492
0.0141817
-9.4796e-05
0.0122002
-5.59703e-05
0.00973872
-3.04141e-05
0.00700698
-1.1514e-05
0.00417086
-2.81392e-06
0.00136216
-0.000184874
0.0155124
-0.000136931
0.0142239
-9.18595e-05
0.0122361
-5.55672e-05
0.00976387
-2.59565e-05
0.00702142
-1.13517e-05
0.0041794
-1.81813e-06
0.00136398
-0.000236654
0.0160076
-0.000186044
0.0155615
-0.000132889
0.0142649
-8.61341e-05
0.0122666
-4.58124e-05
0.00978373
-2.27738e-05
0.00703285
-9.36248e-06
0.00418694
-1.76594e-06
0.00136574
-0.000276671
0.0155682
-0.000230369
0.016052
-0.000177354
0.0156059
-0.000120652
0.0142994
-7.1341e-05
0.0122921
-4.1548e-05
0.0098025
-1.97703e-05
0.00704325
-7.3055e-06
0.00419248
-1.66515e-06
0.00136741
-0.000314315
0.0142477
-0.000279193
0.015617
-0.000218819
0.0160934
-0.000150753
0.015636
-9.96402e-05
0.0143277
-6.4045e-05
0.0123146
-3.72467e-05
0.00981998
-1.826e-05
0.00705421
-6.43237e-06
0.00419725
-1.72037e-06
0.00136913
-0.000339564
0.0121634
-0.000321159
0.0142896
-0.000258839
0.015657
-0.000186246
0.0161289
-0.00013004
0.0156664
-8.27474e-05
0.0143464
-5.23003e-05
0.0123297
-2.77718e-05
0.00982949
-1.52982e-05
0.00706307
-6.94326e-06
0.00420247
-1.7384e-06
0.00137087
-0.000343439
0.00952573
-0.000352023
0.0121943
-0.0002772
0.014308
-0.000206211
0.015677
-0.000148263
0.0161471
-0.00010422
0.0156879
-6.92816e-05
0.0143634
-4.26099e-05
0.0123445
-2.73009e-05
0.00984149
-1.19461e-05
0.00706807
-4.34393e-06
0.00420508
-1.34023e-06
0.0013722
-0.000114265
0.00654737
-0.000193746
-0.000372586
0.00954629
-0.000286825
0.0122039
-0.000211584
0.0143134
-0.00015929
0.015688
-0.000112721
0.0161556
-7.88548e-05
0.0156975
-5.12102e-05
0.014372
-3.56345e-05
0.0123529
-1.8135e-05
0.00984768
-1.20131e-05
0.00707574
-6.06356e-06
0.0042098
-7.15773e-07
0.00137292
0.00215256
-8.41594e-05
-0.000200863
0.00655282
-0.000177174
0.00211086
-0.000152042
-0.000259703
0.00951916
-0.000190803
0.0121831
-0.000150852
0.0143049
-0.00011011
0.0156854
-8.71752e-05
0.016164
-6.48486e-05
0.0157111
-4.52665e-05
0.0143816
-3.07411e-05
0.0123655
-2.27529e-05
0.00985842
-1.15339e-05
0.00708121
-4.83282e-06
0.00421392
-1.45008e-06
0.00137437
0.00137938
-2.49727e-05
0.00209318
-0.000183186
-0.000130138
0.00648293
-5.96805e-05
0.00206941
-0.000153402
0.0013213
-6.22269e-05
-3.17369e-05
-0.00014112
0.00946948
-0.000119155
0.0121514
-9.51712e-05
0.01429
-7.90931e-05
0.0156773
-6.23351e-05
0.0161614
-4.58203e-05
0.0157117
-3.94513e-05
0.0143903
-2.56221e-05
0.0123683
-1.72468e-05
0.00986413
-1.23964e-05
0.00708877
-5.61103e-06
0.00421808
-2.22879e-06
0.0013766
0.000431515
-9.7055e-06
0.00130408
-8.34107e-05
-8.25581e-05
0.0020211
-8.18291e-05
-4.57344e-05
0.00639835
-1.08016e-05
0.00199775
-3.63275e-05
0.00125958
-3.89234e-05
-6.99746e-05
-0.000417694
0.000390714
-3.52471e-05
-1.79163e-05
-6.78137e-05
0.00941814
-6.50522e-05
0.0121213
-6.19689e-05
0.0142729
-5.07334e-05
0.0156657
-4.33128e-05
0.0161589
-3.76953e-05
0.0157099
-3.18708e-05
0.0143966
-2.50761e-05
0.0123762
-2.17173e-05
0.00987345
-1.34969e-05
0.00709666
-7.67023e-06
0.00422352
-1.21075e-06
0.00137781
0.000252799
-1.55747e-06
0.000365249
-5.7945e-05
0.000343964
-6.12732e-05
0.00120673
-2.19445e-05
-7.02967e-06
0.0019692
-1.71885e-05
-1.6506e-05
0.00634751
-4.63963e-07
0.00196459
-6.19052e-06
0.0011764
-7.98561e-07
-5.20371e-06
-0.000320948
0.000301999
-1.9974e-05
-4.69592e-05
-0.000238848
0.000213364
-9.76381e-06
-3.96507e-06
-3.50031e-05
0.00938809
-3.85627e-05
0.0120979
-3.70312e-05
0.0142592
-3.79499e-05
0.0156603
-3.19662e-05
0.0161532
-3.35092e-05
0.0157115
-2.63616e-05
0.0143979
-2.86985e-05
0.0123832
-2.10909e-05
0.00988105
-1.55156e-05
0.00710451
-7.43886e-06
0.00422975
-2.88674e-06
0.00138069
7.47134e-05
0.000176097
-2.06777e-05
0.00015513
-4.03067e-05
0.00028674
-6.68572e-06
0.000281822
-2.11229e-06
0.00116067
-1.79062e-06
3.30386e-07
0.00195154
-3.45301e-06
-6.86702e-06
0.00631534
4.02524e-06
0.00195211
-1.03503e-06
0.00115448
1.04979e-06
-1.04742e-06
-0.000277119
0.000276724
-4.03505e-07
-5.00482e-07
-0.000108171
8.81972e-05
-7.07483e-05
6.09845e-05
-1.46032e-05
0.00936413
-2.35168e-05
0.0120844
-2.47324e-05
0.014246
-2.24263e-05
0.0156508
-2.92125e-05
0.0161489
-2.58687e-05
0.0157111
-3.69501e-05
0.0144061
-3.37133e-05
0.0123958
-2.72008e-05
0.00989273
-1.85918e-05
0.00711566
-1.0355e-05
0.00423721
-1.96024e-06
0.00138265
4.03067e-05
8.15115e-05
7.93992e-05
0.000274974
-4.09418e-08
0.000275437
-1.32957e-07
0.00115104
-5.00499e-07
4.81758e-07
0.00194594
-7.03184e-07
-4.21383e-06
0.00630128
3.67705e-06
0.00194908
8.8542e-07
0.00114972
2.59432e-07
2.47844e-08
-0.000274244
0.00027509
2.03289e-07
1.45918e-07
-7.88987e-05
7.84951e-05
-6.17877e-06
0.00934679
-6.74014e-06
0.0120664
-1.24975e-05
0.014236
-2.00325e-05
0.0156416
-2.53673e-05
0.0161484
-3.70009e-05
0.0157111
-3.42212e-05
0.0144066
-3.68219e-05
0.0124054
-3.09249e-05
0.00990506
-2.02958e-05
0.0071256
-1.07707e-05
0.00424602
-2.66241e-06
0.00138531
7.84542e-05
7.83212e-05
0.000274815
-2.25215e-07
0.000275107
1.89884e-07
0.00114871
-8.79565e-08
4.01655e-07
0.00194494
-7.0479e-08
-9.07321e-07
0.0062941
1.90105e-06
0.00194801
6.03749e-07
0.00114948
-1.5974e-07
2.71031e-07
-0.000274995
0.000275188
6.55415e-08
1.36945e-07
-7.84671e-05
7.86704e-05
-1.52472e-07
0.0093402
-6.38531e-06
0.0120603
-1.08185e-05
0.0142268
-1.47807e-05
0.015631
-2.77532e-05
0.0161392
-4.11183e-05
0.015718
-5.07878e-05
0.0144206
-4.38434e-05
0.0124183
-3.66492e-05
0.00992142
-2.57264e-05
0.00714055
-1.123e-05
0.00425459
-3.42891e-06
0.00138874
7.84452e-05
7.8635e-05
0.000275089
1.10732e-08
0.000275413
7.83015e-08
0.00114887
2.12341e-07
3.33336e-07
0.00194724
-1.35196e-07
6.22946e-07
0.00629134
1.99132e-06
0.00194777
1.3713e-06
0.00114948
1.4079e-07
-1.47807e-07
-0.000275727
0.000275533
3.44291e-08
-4.35698e-08
-7.8772e-05
7.88375e-05
-3.23355e-07
0.00933414
4.34669e-07
0.012049
-6.21224e-06
0.0142182
-2.53859e-05
0.0156287
-3.88303e-05
0.0161369
-4.98806e-05
0.0157171
-5.85936e-05
0.0144353
-5.77676e-05
0.0124394
-4.66495e-05
0.00994234
-2.7217e-05
0.00715654
-1.12876e-05
0.00426245
-2.36813e-06
0.00139111
7.88485e-05
7.89268e-05
0.000275793
-4.81912e-08
0.000276003
1.23229e-07
0.00114862
3.32645e-07
3.91563e-07
0.00194814
2.48917e-07
4.83779e-07
0.00628861
1.91497e-06
0.00194868
1.45163e-06
0.00115005
2.53567e-07
-3.19367e-07
-0.000275696
0.000275879
-4.25675e-08
1.59605e-07
-7.88833e-05
7.89177e-05
5.52606e-06
0.00932905
6.84937e-07
0.0120421
-1.01045e-05
0.014203
-2.46791e-05
0.0156145
-4.95115e-05
0.0161365
-6.68251e-05
0.0157253
-7.22811e-05
0.0144499
-6.79256e-05
0.0124607
-4.96407e-05
0.00996476
-2.96701e-05
0.00717492
-1.43038e-05
0.00427438
-3.08199e-06
0.00139419
7.88695e-05
7.89927e-05
0.000276198
1.38778e-08
0.000276728
-1.3847e-07
0.00115034
-3.09692e-07
2.73305e-07
0.00194825
9.20118e-07
2.01897e-06
0.00628963
2.49423e-06
0.00194987
2.96479e-07
0.00115126
1.96941e-07
3.29761e-07
-0.000276266
0.000276479
4.00921e-08
1.43011e-07
-7.91523e-05
7.91097e-05
2.28697e-06
0.00932745
-2.65871e-06
0.0120347
-1.93874e-05
0.0141977
-4.26752e-05
0.0156077
-6.95639e-05
0.0161392
-9.10413e-05
0.0157441
-9.60913e-05
0.014478
-7.91857e-05
0.0124902
-5.44845e-05
0.00998958
-3.01342e-05
0.00719075
-1.22526e-05
0.00428355
-3.39927e-06
0.00139759
7.91236e-05
7.89851e-05
0.000276239
-6.96793e-08
0.000276413
9.96837e-08
0.00115202
-1.55994e-07
3.24533e-07
0.00195059
1.29838e-06
1.9916e-06
0.00628953
3.90225e-07
0.00195193
1.1544e-06
0.00115187
2.60963e-07
1.79675e-07
-0.000276582
0.000277023
-2.4461e-07
1.60195e-07
-7.91281e-05
7.91682e-05
2.15072e-06
0.00932264
-5.89594e-06
0.0120212
-2.29977e-05
0.014178
-5.86128e-05
0.0155967
-9.06018e-05
0.0161388
-0.000111026
0.015759
-0.000106587
0.0145054
-8.61744e-05
0.0125219
-5.9385e-05
0.0100188
-3.28278e-05
0.00721132
-1.35658e-05
0.00429372
-2.85962e-06
0.00140045
7.90985e-05
7.91982e-05
0.000276866
1.10892e-09
0.000277046
1.45123e-07
0.00115311
-2.74922e-07
3.31431e-07
0.0019537
2.14401e-07
1.95357e-06
0.00628775
1.97733e-06
0.00195274
1.35508e-06
0.00115428
-2.84464e-07
2.75743e-07
-0.000277132
0.000277363
2.93789e-08
9.38251e-08
-7.93584e-05
7.91137e-05
-1.7463e-07
0.00931691
-1.33095e-05
0.0120115
-4.54345e-05
0.0141648
-8.76878e-05
0.0155938
-0.000128094
0.0161559
-0.000138032
0.0157905
-0.000128966
0.0145482
-9.53576e-05
0.0125579
-5.90186e-05
0.010045
-3.19737e-05
0.00722973
-1.14515e-05
0.00430231
-1.94145e-06
0.00140239
7.91148e-05
7.92599e-05
0.00027708
8.18107e-09
0.000277302
1.08802e-07
0.00115381
3.25246e-07
3.54275e-07
0.00195382
8.69279e-07
1.87169e-06
0.00628521
4.95103e-07
0.0019554
4.03764e-07
0.00115518
-1.75232e-07
1.59793e-07
-0.000277474
0.000277454
-2.64028e-07
1.03872e-07
-7.93538e-05
7.93831e-05
-2.42374e-06
0.00930603
-2.39444e-05
0.01199
-6.98251e-05
0.0141469
-0.000126224
0.0155919
-0.000162807
0.0161806
-0.000170218
0.0158317
-0.00013573
0.0145886
-9.83199e-05
0.0125972
-6.07385e-05
0.0100738
-2.8506e-05
0.00724679
-1.09827e-05
0.00431135
-1.79239e-06
0.00140419
7.93913e-05
7.95001e-05
0.000277751
2.7914e-08
0.00027793
1.75314e-07
0.00115553
3.44807e-07
1.75397e-07
0.00195612
1.15005e-06
1.94945e-06
0.00628027
5.67815e-07
0.00195622
3.87135e-07
0.00115598
1.61485e-07
-2.05159e-07
-0.000278029
0.000277822
3.17108e-08
6.06219e-08
-7.96039e-05
7.93399e-05
-8.51427e-06
0.0092906
-4.51978e-05
0.0119654
-0.000109416
0.0141301
-0.000170446
0.0155996
-0.000205113
0.0162155
-0.000182839
0.0158788
-0.000142646
0.0146329
-9.59419e-05
0.0126324
-5.14993e-05
0.0100968
-2.41123e-05
0.00725992
-8.76698e-06
0.00431833
-1.44197e-06
0.00140563
7.93678e-05
7.95431e-05
0.000278103
6.35465e-08
0.000278221
5.751e-08
0.00115649
3.33704e-07
3.06628e-07
0.00195718
9.91027e-07
1.92962e-06
0.00627062
-7.99083e-07
0.00195736
3.89846e-07
0.00115695
2.65893e-07
-3.37297e-07
-0.000277929
0.000278333
-2.41904e-07
8.66156e-08
-7.96037e-05
7.96355e-05
-1.77754e-05
0.00926317
-7.6683e-05
0.0119327
-0.00016156
0.0141213
-0.000228648
0.0156231
-0.000230279
0.016263
-0.000196601
0.0159328
-0.000142173
0.0146791
-8.60414e-05
0.012667
-4.67712e-05
0.0101194
-2.06593e-05
0.00727181
-5.8176e-06
0.00432271
-3.85455e-07
0.00140602
7.9699e-05
7.97565e-05
0.000278608
5.87836e-08
0.000278801
1.13015e-07
0.00115786
3.47873e-07
-2.75939e-07
0.00195802
1.26957e-06
2.02672e-06
0.00625333
-2.5123e-06
0.00195712
1.06336e-07
0.00115776
1.54967e-07
3.3497e-07
-0.000278379
0.00027867
-2.54736e-08
8.49927e-08
-7.98431e-05
7.96012e-05
-3.84731e-05
0.00922496
-0.000130428
0.0119015
-0.000234565
0.0141272
-0.000275478
0.0156683
-0.000248721
0.0163151
-0.000187829
0.0159784
-0.000126274
0.0147194
-7.3201e-05
0.0126934
-3.87779e-05
0.0101376
-1.7067e-05
0.00728306
-3.45612e-06
0.00432578
-2.2664e-07
0.00140625
7.966e-05
7.9773e-05
0.000278948
6.98281e-08
0.000278552
1.20558e-07
0.00115885
3.08367e-07
-1.27243e-07
0.00195882
3.25315e-07
2.0294e-06
0.0062212
-8.37083e-06
0.00195611
1.90161e-07
0.00115897
-1.47023e-07
1.31334e-07
-0.000279031
0.000279117
6.89162e-08
-1.43951e-07
-7.9858e-05
7.98325e-05
-7.69954e-05
0.00917153
-0.000205013
0.011872
-0.000299116
0.0141508
-0.000296155
0.0157158
-0.000234468
0.0163617
-0.000168966
0.0160211
-0.000107328
0.0147535
-6.33118e-05
0.0127179
-3.24589e-05
0.0101529
-9.90488e-06
0.00728951
-2.64847e-06
0.0043282
7.81056e-07
0.00140547
7.99023e-05
8.00228e-05
0.000279415
9.58264e-09
0.000279243
4.51897e-08
0.00115882
3.13494e-07
1.64033e-07
0.00195768
4.67788e-07
-8.48405e-07
0.00616392
-1.88651e-05
0.001951
-1.69254e-06
0.00115897
-2.90393e-07
3.30928e-07
-0.000279258
0.000279103
8.02992e-09
1.1672e-07
-7.98789e-05
7.99478e-05
-0.000146463
0.00911298
-0.000312975
0.0118858
-0.000341536
0.0141962
-0.000284391
0.0157657
-0.000209215
0.016402
-0.000141234
0.016055
-8.72477e-05
0.0147774
-4.7973e-05
0.0127334
-1.99004e-05
0.0101629
-5.9908e-06
0.00729286
1.33926e-06
0.00432765
1.17008e-06
0.0014043
7.99574e-05
8.00026e-05
0.000279403
1.25684e-08
0.000279462
1.05217e-07
0.00115922
3.19085e-07
-9.62511e-08
0.00195172
-1.57482e-06
-1.06512e-05
0.00607437
-4.6268e-05
0.00193702
-4.16531e-06
0.00115748
-1.05101e-07
1.44714e-07
-0.000279925
0.000279575
5.97382e-08
-1.32234e-07
-8.01193e-05
8.01273e-05
-0.00027788
0.00907789
-0.000369815
0.0119141
-0.000318399
0.0142302
-0.000237715
0.0157942
-0.00016905
0.0164298
-0.000107459
0.0160752
-6.40754e-05
0.0147935
-3.41204e-05
0.0127477
-1.15024e-05
0.0101685
-1.19942e-06
0.0072954
2.93511e-06
0.00432588
1.51849e-06
0.00140278
8.01398e-05
8.0245e-05
0.000279877
1.68826e-08
0.000279727
5.36799e-08
0.00115585
3.09855e-07
-2.4728e-07
0.00193366
-7.29229e-06
-5.41527e-05
0.00597272
-0.00012207
0.00190363
-1.62362e-05
0.00115161
-2.35715e-07
3.11697e-07
-0.000279753
0.00027984
-1.92736e-07
1.1941e-07
-8.01128e-05
8.01725e-05
-0.000386386
0.00909446
-0.00033713
0.0119328
-0.000252637
0.0142451
-0.000183117
0.0158082
-0.000123428
0.0164458
-8.01065e-05
0.0160913
-4.26503e-05
0.0148021
-1.74209e-05
0.0127536
-4.94568e-06
0.0101722
2.90208e-06
0.00729543
3.47128e-06
0.00432393
2.82145e-06
0.00139996
8.01894e-05
8.02431e-05
0.000280136
1.43571e-08
0.000279783
1.05171e-07
0.00114451
3.69128e-07
-5.66237e-07
0.00187927
-2.97937e-05
-0.000171263
0.00596742
-0.000209828
0.00182078
-6.35741e-05
0.00112971
-1.5555e-06
1.18357e-07
-0.00028003
0.000279725
6.94702e-08
6.47041e-08
-8.03625e-05
8.01697e-05
-0.000334048
0.00909137
-0.000238928
0.0119191
-0.000174918
0.0142369
-0.000128843
0.0158137
-8.85405e-05
0.0164542
-5.58449e-05
0.0161045
-2.97109e-05
0.0148144
-1.08071e-05
0.0127594
3.6806e-06
0.0101714
6.42651e-06
0.00729248
7.07925e-06
0.00431967
3.38034e-06
0.00139658
8.01841e-05
8.02892e-05
0.000280041
5.26626e-08
0.000279588
-1.12622e-07
0.00110399
-4.32879e-07
-3.64458e-06
0.00178343
-0.000133914
-0.000180491
0.00591183
-9.79627e-05
0.00175148
-0.000177878
0.00105329
-1.08988e-05
-1.96803e-06
-0.000279536
0.000278227
-2.46699e-07
1.70721e-07
-8.03539e-05
8.04234e-05
-0.000182863
0.00903531
-0.000146776
0.011891
-0.000116423
0.0142245
-8.39403e-05
0.0158091
-5.73113e-05
0.0164557
-3.17068e-05
0.0161065
-1.39083e-05
0.0148175
-3.0572e-07
0.0127634
7.82494e-06
0.01017
1.28947e-05
0.00728666
9.99793e-06
0.00431306
3.79586e-06
0.00139278
8.04761e-05
8.03635e-05
0.000278003
-2.08962e-07
0.000274579
-2.21026e-07
0.000972049
-1.45757e-05
-3.80995e-05
0.00170682
-0.000135834
-6.22172e-05
0.00580904
-1.78531e-05
0.00166663
-5.77693e-05
0.000924604
-6.65153e-05
-6.39171e-05
-0.000273202
0.000264115
-1.81209e-06
-5.90754e-07
-8.05342e-05
8.02875e-05
-8.52609e-05
0.00897379
-8.11785e-05
0.0118557
-6.90338e-05
0.0142096
-5.21063e-05
0.0158039
-3.35352e-05
0.0164575
-1.52137e-05
0.0161078
-5.42653e-07
0.0148177
1.19684e-05
0.0127593
1.58152e-05
0.0101671
1.44818e-05
0.00728218
9.51281e-06
0.00430734
4.81628e-06
0.00138797
8.00786e-05
7.98575e-05
0.000253609
-4.06895e-06
0.000225719
-1.02096e-05
0.000857534
-4.90419e-05
-1.97227e-05
0.00162745
-2.30335e-05
-1.83436e-05
0.00574197
1.50666e-07
0.00161678
-7.18179e-06
0.000807864
-1.35285e-06
-6.74602e-06
-0.000184334
0.000158463
-4.06443e-05
-2.2532e-05
-7.92668e-05
7.74547e-05
-4.03617e-05
0.00893298
-4.28301e-05
0.0118295
-3.8106e-05
0.0141956
-2.89715e-05
0.0157993
-1.57996e-05
0.0164581
-2.87531e-06
0.0161101
1.29556e-05
0.0148167
1.5857e-05
0.0127592
2.06643e-05
0.0101609
1.75362e-05
0.00727415
1.35921e-05
0.00429856
5.06528e-06
0.0013829
7.33858e-05
6.31762e-05
0.000109421
8.96983e-05
0.000785535
-7.31414e-07
2.67239e-08
0.00160209
-3.65482e-06
-7.26248e-06
0.00570558
3.29631e-06
0.0016026
-3.58276e-07
0.000778345
2.83355e-07
-2.7505e-07
-8.29523e-05
8.15995e-05
-4.06442e-05
-1.79729e-05
0.00890812
-2.16911e-05
0.0118131
-1.83698e-05
0.014185
-7.34537e-06
0.0157908
5.17457e-07
0.0164547
1.2757e-05
0.0161103
1.58862e-05
0.0148167
2.53034e-05
0.0127546
2.48878e-05
0.0101536
2.31825e-05
0.00726456
1.56643e-05
0.00428797
5.87649e-06
0.00137703
8.08681e-05
8.08949e-05
0.000774614
-4.37623e-08
1.2017e-07
0.00159634
-1.00875e-06
-4.36418e-06
0.00568808
3.88734e-06
0.00159852
1.12249e-06
0.000774197
1.15453e-07
-5.62188e-08
-8.06198e-05
8.09032e-05
-4.52006e-06
0.00889095
-8.25646e-06
0.011803
-3.47526e-06
0.0141811
3.494e-06
0.0157879
1.42034e-05
0.0164533
1.99426e-05
0.0161062
3.18099e-05
0.0148102
3.25809e-05
0.0127469
3.24636e-05
0.0101443
2.77537e-05
0.00725247
1.7406e-05
0.00427644
6.80316e-06
0.00137023
8.08594e-05
8.09796e-05
0.000772925
1.00733e-07
1.62167e-07
0.00159406
9.1009e-08
-2.10188e-06
0.00568219
3.47207e-06
0.00159787
7.982e-08
0.00077397
1.91922e-07
-1.13833e-07
-8.09234e-05
8.10389e-05
-2.30263e-07
0.00888292
2.25184e-06
0.0117973
5.52723e-06
0.0141791
1.18637e-05
0.0157902
2.3992e-05
0.0164492
3.06766e-05
0.0161074
3.19481e-05
0.0148108
3.61891e-05
0.0127432
3.49055e-05
0.0101371
3.1138e-05
0.00723874
2.06868e-05
0.00426255
7.79104e-06
0.00136243
8.11396e-05
8.13018e-05
0.0007739
8.66552e-08
7.45905e-08
0.00159541
3.57037e-07
-9.73687e-07
0.00568018
2.75565e-06
0.00159801
8.73854e-07
0.000774093
3.29504e-08
-1.46061e-07
-8.1188e-05
8.138e-05
2.72087e-06
0.00888245
8.91157e-06
0.0117939
1.57712e-05
0.0141752
2.32022e-05
0.015791
2.7103e-05
0.0164528
4.05582e-05
0.0160988
4.62898e-05
0.0148007
4.84015e-05
0.0127297
4.27488e-05
0.0101255
3.5935e-05
0.00722349
2.31291e-05
0.00424722
8.76016e-06
0.00135367
8.14666e-05
8.15412e-05
0.000774333
5.78196e-08
5.95565e-08
0.00159721
-1.72666e-07
5.3975e-08
0.00568005
2.79262e-06
0.00159907
8.98421e-07
0.000775279
4.72899e-08
-1.20031e-07
-8.13951e-05
8.14281e-05
7.18484e-06
0.00888418
1.39766e-05
0.0117957
1.834e-05
0.01418
3.22318e-05
0.0157859
4.21845e-05
0.0164511
4.7032e-05
0.016098
4.95986e-05
0.0147995
5.3637e-05
0.0127188
5.0681e-05
0.0101108
4.13395e-05
0.00720528
2.69228e-05
0.00422905
9.63871e-06
0.00134404
8.14859e-05
8.15455e-05
0.000774974
6.31115e-08
6.9671e-08
0.00159846
6.58019e-07
1.46929e-07
0.0056842
2.88836e-06
0.00160065
6.08274e-07
0.000775845
-5.79494e-08
8.54643e-08
-8.14255e-05
8.14728e-05
8.49375e-06
0.00888966
1.54259e-05
0.0117986
2.79076e-05
0.0141844
3.54117e-05
0.0157926
4.41784e-05
0.016454
5.44385e-05
0.0160932
6.17301e-05
0.0147914
6.06984e-05
0.0127088
5.82739e-05
0.0100938
4.52089e-05
0.007187
3.00079e-05
0.00420868
1.0976e-05
0.00133306
8.15359e-05
8.16056e-05
0.000776362
6.55486e-08
7.56182e-08
0.0016001
6.93051e-07
1.3377e-06
0.00568829
3.06271e-06
0.00160235
6.44491e-07
0.000776859
5.18422e-08
5.91983e-08
-8.1691e-05
8.16331e-05
1.04675e-05
0.00889462
1.98863e-05
0.0118066
2.906e-05
0.0141907
4.19743e-05
0.0157948
5.52688e-05
0.0164532
6.28182e-05
0.0160921
7.10321e-05
0.0147811
7.01734e-05
0.0126969
6.58787e-05
0.0100732
5.39834e-05
0.00716302
3.25077e-05
0.00418715
1.18817e-05
0.00132118
8.16987e-05
8.17744e-05
0.000777617
-1.1794e-07
5.33924e-08
0.00160295
7.29354e-07
3.88137e-07
0.00569531
3.06326e-06
0.00160522
7.99924e-07
0.000778148
5.61886e-08
5.71255e-08
-8.18336e-05
8.18855e-05
1.17377e-05
0.00890277
2.18874e-05
0.0118138
3.53469e-05
0.0141973
4.67852e-05
0.0158033
6.17201e-05
0.0164543
7.23128e-05
0.0160908
7.77938e-05
0.0147735
8.4263e-05
0.0126785
7.54676e-05
0.0100517
6.04934e-05
0.00713504
3.78201e-05
0.00416121
1.21745e-05
0.001309
8.17675e-05
8.18209e-05
0.000778683
6.77625e-08
1.27897e-07
0.00160484
7.64216e-07
1.47864e-06
0.00570245
3.11544e-06
0.00160716
7.44302e-07
0.000779471
9.37981e-08
-8.27949e-08
-8.1878e-05
8.19342e-05
1.17939e-05
0.00891286
2.44867e-05
0.0118247
4.1465e-05
0.0142027
5.88408e-05
0.0158062
7.20838e-05
0.0164545
8.5711e-05
0.0160829
9.34958e-05
0.0147642
9.28691e-05
0.0126611
8.60721e-05
0.0100261
6.63038e-05
0.00710655
4.02876e-05
0.0041331
1.05893e-05
0.00129841
8.2002e-05
8.21299e-05
0.000780089
7.21512e-08
7.40594e-08
0.00160786
7.75753e-07
3.26859e-07
0.00571116
2.75708e-06
0.00161022
7.57392e-07
0.000780898
4.93414e-08
-1.13771e-07
-8.20472e-05
8.2141e-05
1.31424e-05
0.00892421
2.84945e-05
0.0118376
4.60596e-05
0.0142154
6.52242e-05
0.0158131
8.08645e-05
0.0164593
9.39691e-05
0.0160824
0.000105589
0.0147515
0.000101721
0.0126454
9.52192e-05
0.0099972
7.54822e-05
0.00707136
4.30419e-05
0.00410065
1.31834e-05
0.00128523
8.22131e-05
8.22872e-05
0.000781536
6.78023e-08
7.09639e-08
0.00160987
6.73644e-07
8.73658e-07
0.00572227
1.15711e-06
0.00161217
4.64418e-07
0.000782348
-1.11948e-07
5.6973e-08
-8.21734e-05
8.22228e-05
1.62854e-05
0.00893641
3.29609e-05
0.0118507
5.53311e-05
0.0142253
7.16219e-05
0.0158223
9.24811e-05
0.0164608
0.000107901
0.0160801
0.000117123
0.0147361
0.000120076
0.0126206
0.000106843
0.00996584
8.13948e-05
0.00703301
4.36087e-05
0.00407022
3.16778e-05
0.00125355
8.22906e-05
8.23616e-05
0.000782878
6.32139e-08
8.01798e-08
0.00161317
-1.30526e-07
2.07289e-06
0.00573387
2.61973e-06
0.00161613
-1.79774e-06
0.000783143
1.12981e-07
8.62317e-08
-8.24186e-05
8.23067e-05
1.99941e-05
0.00894938
3.97124e-05
0.0118663
5.89602e-05
0.014238
8.28447e-05
0.0158319
0.000105762
0.016463
0.000123724
0.0160735
0.000132835
0.0147234
0.000128758
0.0125987
0.000116209
0.00993103
8.67843e-05
0.00698983
7.42354e-05
0.00402767
7.38705e-05
8.23698e-05
8.245e-05
0.000783107
3.37171e-08
-1.27595e-07
0.0016217
-3.49758e-06
4.17552e-06
0.0057442
5.48092e-06
0.00161927
6.51978e-06
-1.47063e-06
0.000781306
1.1389e-08
-8.21939e-09
-8.25362e-05
8.26492e-05
2.4423e-05
0.00896467
4.17524e-05
0.0118835
6.68555e-05
0.014254
9.209e-05
0.0158456
0.000115603
0.0164711
0.000134928
0.0160714
0.00014681
0.0147053
0.000148017
0.0125669
0.000129917
0.00988789
0.000114865
0.0069492
0.000135771
8.2683e-05
8.25554e-05
0.000461046
-9.64889e-09
-2.46823e-07
0.000317018
0.00162199
-5.54381e-07
2.00521e-06
5.23195e-06
0.00575791
5.48153e-06
0.00162374
1.40671e-06
2.3269e-06
0.000486284
-1.87192e-05
0.000491676
-6.86266e-06
-8.25471e-05
8.25585e-05
2.40903e-05
0.00898233
4.88046e-05
0.0119016
7.49999e-05
0.0142711
0.000107837
0.0158534
0.000135472
0.0164705
0.000154909
0.0160633
0.000165257
0.0146881
0.000162095
0.0125347
0.00015506
0.0098477
0.000179145
8.25488e-05
8.23019e-05
0.00029523
3.06897e-06
0.0004935
-2.37817e-06
0.000496208
-7.02773e-07
0.00162586
1.25632e-06
1.85598e-06
4.38191e-06
0.00577331
4.30788e-06
0.00162915
7.74299e-07
1.41606e-06
0.000497053
5.61958e-07
0.000498165
1.21421e-06
0.000289732
-1.36435e-06
2.74249e-05
0.00900371
5.34348e-05
0.0119232
8.57047e-05
0.0142932
0.00011718
0.0158717
0.000145839
0.0164796
0.00017156
0.016057
0.000177883
0.0146723
0.000187142
0.0125026
0.0002108
8.53708e-05
0.000288416
-1.06257e-06
0.000288083
-3.69297e-07
0.000498764
6.57531e-07
0.00049982
7.99966e-07
0.00163157
6.1531e-07
1.34205e-06
5.59724e-06
0.00579038
4.76096e-06
0.00163419
6.48542e-07
1.04551e-06
0.000500367
2.27543e-07
0.000500985
7.97516e-07
0.000288589
5.56279e-08
0.000289709
9.41694e-08
8.40064e-05
3.02015e-05
0.00902694
6.17707e-05
0.0119471
9.72394e-05
0.0143132
0.000134725
0.0158828
0.000165845
0.0164853
0.000183216
0.0160517
0.00020807
0.0146513
0.000229168
8.29438e-05
8.25745e-05
0.000290101
2.65122e-07
0.000290651
2.50439e-07
0.000500946
6.54892e-07
0.00050207
2.17466e-07
0.00163789
7.49784e-07
1.1461e-06
6.08372e-06
0.00580927
5.22872e-06
0.00164076
7.35389e-07
1.15872e-06
0.000502311
4.0758e-07
0.00050282
5.37045e-07
0.00029069
1.88783e-07
0.000291325
1.62486e-07
8.26301e-05
8.27243e-05
3.62335e-05
0.00905248
6.82657e-05
0.0119761
0.000109683
0.0143382
0.000147974
0.0159007
0.000176297
0.0164922
0.000211643
0.0160481
0.000234754
8.29894e-05
8.32399e-05
0.000291821
1.58565e-07
0.000292083
-4.43799e-08
0.000503246
3.23047e-07
0.000503939
4.53695e-07
0.00164477
8.32801e-07
1.23522e-06
5.72131e-06
0.00583385
5.92897e-06
0.00164799
8.14441e-07
1.19571e-06
0.000504208
4.65777e-07
0.000505156
2.11213e-07
0.000292372
1.17904e-07
0.000292794
1.15286e-07
8.34286e-05
8.35911e-05
3.89667e-05
0.00908178
8.07338e-05
0.012005
0.000124741
0.0143614
0.000161344
0.0159156
0.000200193
0.0165037
0.000223829
8.37496e-05
8.37053e-05
0.000292995
1.21894e-07
0.000293319
1.29733e-07
0.000505211
7.77333e-07
0.000505943
5.03088e-07
0.00165127
9.14523e-07
1.52352e-06
7.537e-06
0.00585874
6.54064e-06
0.00165514
7.31065e-07
1.32704e-06
0.000506677
8.08164e-08
0.000507269
6.03736e-07
0.000293824
-3.96297e-08
0.000293899
1.3679e-07
8.38231e-05
8.39384e-05
4.67038e-05
0.0091158
9.13462e-05
0.0120384
0.000134584
0.0143882
0.000175567
0.0159402
0.000199029
8.40603e-05
8.419e-05
0.00029449
1.86279e-07
0.000294843
1.49818e-07
0.000507408
7.75701e-07
0.000508787
1.44081e-07
0.00165991
1.09083e-06
1.67737e-06
8.97921e-06
0.0058887
7.75928e-06
0.00166399
9.29859e-07
1.52867e-06
0.000509013
5.04835e-07
0.000509666
6.74284e-07
0.0002948
1.23554e-07
0.000295465
-6.14821e-08
8.41503e-05
8.42871e-05
5.55922e-05
0.00915156
0.000106892
0.0120661
0.000146603
0.0144171
0.000160366
8.44734e-05
8.46232e-05
0.000296101
1.40453e-07
0.000296116
1.28437e-07
0.000510293
4.64132e-07
0.00051136
6.09688e-07
0.00166977
1.30141e-06
1.90142e-06
1.00665e-05
0.00592434
9.89305e-06
0.00167464
1.16247e-06
1.72416e-06
0.00051168
6.10364e-07
0.0005127
5.08747e-07
0.000296425
1.95416e-07
0.000297127
-2.75008e-08
8.47467e-05
8.46852e-05
7.01599e-05
0.00918829
0.000111941
0.0121008
0.00011768
8.48256e-05
8.4954e-05
0.000297438
1.53593e-07
0.000297882
1.65393e-07
0.000513147
8.53956e-07
0.000514318
7.30667e-07
0.00168102
2.1066e-06
1.57939e-06
1.36985e-05
0.00596618
1.46194e-05
0.0016876
1.92645e-06
1.39298e-06
0.000515165
3.15335e-07
0.000515926
9.63203e-07
0.000298318
1.7436e-07
0.000298649
1.78002e-07
8.51494e-05
8.51219e-05
8.19943e-05
0.00921824
7.392e-05
8.52755e-05
8.54408e-05
0.000299277
2.25112e-07
0.00029998
2.84574e-08
0.000517089
9.44124e-07
0.000518257
4.10597e-07
0.0016963
2.51355e-06
2.48666e-06
1.91744e-05
0.00600569
2.33064e-05
0.00170459
2.88035e-06
3.44602e-06
0.000519377
8.06411e-07
0.000519734
1.03649e-06
0.000300114
1.8138e-07
0.000300888
1.8834e-07
8.56152e-05
8.57932e-05
4.43506e-05
8.60183e-05
8.60468e-05
0.000301626
2.06903e-07
0.000301832
2.04863e-07
0.000521164
1.08342e-06
0.000523018
6.33361e-07
0.00171554
4.0869e-06
4.13736e-06
4.24744e-05
1.56653e-05
0.00172646
4.92383e-06
7.46841e-06
0.000524671
1.22689e-06
0.000526178
1.93953e-06
0.000302609
2.92003e-08
0.000303449
1.96569e-07
8.62282e-05
8.64165e-05
8.66234e-05
8.68283e-05
0.000304306
2.26604e-07
0.000304697
2.41708e-07
0.00052854
1.72483e-06
0.00053041
2.26751e-06
0.00174411
1.00059e-05
1.48199e-05
2.14361e-05
8.86245e-06
0.000532862
2.47109e-06
0.0005366
3.73107e-06
0.000305623
3.01527e-07
0.000307179
3.83073e-07
8.68575e-05
8.70541e-05
8.72807e-05
8.75224e-05
0.000308477
4.27151e-07
0.000310141
6.02954e-07
0.000539686
6.92061e-06
0.000544166
1.03401e-05
0.000550353
1.52491e-05
1.33469e-05
0.00031201
6.02339e-07
0.000314754
9.87224e-07
8.78239e-05
8.8207e-05
8.86341e-05
8.92371e-05
0.000319634
2.04079e-06
0.00032523
4.74409e-06
0.00033047
1.00091e-05
2.05786e-05
8.98394e-05
9.08267e-05
9.28676e-05
9.76117e-05
0.000107621
1.38706e-05
-1.38706e-05
-5.9504e-05
2.02316e-05
5.31429e-05
7.15912e-06
-2.10309e-05
-7.19234e-05
1.95773e-05
-0.000118664
2.71137e-05
0.00011178
1.6448e-05
3.6695e-05
3.54521e-06
-2.45753e-05
1.19831e-05
-8.03649e-05
-0.000129076
2.99855e-05
-2.31678e-05
-0.000411609
6.44921e-05
0.000397391
0.000105061
6.9392e-06
2.97569e-05
1.56868e-06
-2.61461e-05
1.88524e-05
-0.000135948
7.05824e-06
-8.58561e-05
6.8095e-05
-0.000430868
-4.20531e-05
-0.00143852
0.00139106
0.000154004
-1.48854e-05
0.000377077
-6.8568e-06
9.71145e-05
2.39891e-06
2.73565e-05
8.18329e-07
-2.69658e-05
1.46355e-05
-0.000143528
4.08649e-06
-8.91252e-05
-4.35218e-05
0.00016371
-0.00149062
-7.70991e-06
-0.000452042
-2.5156e-05
0.00011082
-1.19936e-05
-0.00201549
0.0019599
0.000209583
0.000358234
-4.42728e-06
-1.89047e-06
9.2655e-05
1.05793e-06
2.62952e-05
3.11027e-07
-2.72769e-05
-0.00014715
2.34315e-06
-9.11539e-05
0.000221704
-0.00207348
-3.17391e-05
0.000134835
-0.00157409
-1.96125e-05
-6.5597e-06
-0.000473591
-3.62583e-06
0.000183996
-1.47299e-06
-0.00234349
0.00228344
0.000269634
8.92843e-05
-4.89183e-07
8.78805e-05
2.58058e-05
3.4939e-07
-2.76227e-05
-0.000151366
1.63633e-06
-9.24391e-05
0.000283022
-0.00240482
0.000215864
-0.00215451
0.000120149
-0.00165938
-1.6405e-05
-1.84537e-05
-0.000486604
-2.62533e-06
-3.97178e-06
-0.000153355
0.000252286
-2.22299e-07
-0.00241157
0.00235604
0.00032516
3.02763e-07
-2.79255e-05
1.55902e-06
-9.3695e-05
0.000337928
-0.00246648
0.00028958
-0.00247854
0.000213158
-0.00224752
0.000127328
-0.00174695
-2.10279e-05
-1.87297e-05
0.000499147
-0.000509508
-1.63101e-06
-4.40591e-06
-3.05179e-06
-2.85328e-06
0.000155768
-1.30118e-06
-0.00015709
0.000311442
-0.00220315
0.00216167
0.000366636
2.96403e-07
-2.82204e-05
-9.46989e-05
0.000376868
-0.00224209
0.000349394
-0.00252629
0.00029702
-0.00256241
0.000224845
-0.00234505
0.000151423
-0.00184443
-3.2309e-05
-2.16472e-05
0.000521254
-0.000534202
-8.0724e-06
-6.97918e-06
0.000160782
-0.000152416
-9.99482e-06
0.000160142
-3.76419e-06
0.000158824