/*--------------------------------*- C++ -*----------------------------------*\
| =========                 |                                                 |
| \\      /  F ield         | OpenFOAM: The Open Source CFD Toolbox           |
|  \\    /   O peration     | Version:  v1912                                 |
|   \\  /    A nd           | Website:  www.openfoam.com                      |
|    \\/     M anipulation  |                                                 |
\*---------------------------------------------------------------------------*/
FoamFile
{
    version     2.0;
    format      ascii;
    class       volVectorField;
    location    "380";
    object      U;
}
// * * * * * * * * * * * * * * * * * * * * * * * * * * * * * * * * * * * * * //

dimensions      [0 1 -1 0 0 0 0];


internalField   nonuniform List<vector> 
3754
(
(0.0489844 -0.0207148 0)
(0.150257 -0.0618882 -1.90591e-23)
(0.0484848 -0.0205106 8.86935e-24)
(0.252711 -0.102049 0)
(0.148756 -0.0612798 9.37448e-24)
(0.0480069 -0.0203087 -8.92239e-24)
(0.352124 -0.139397 6.69886e-21)
(0.250226 -0.101053 7.32854e-24)
(0.147307 -0.0606856 9.04375e-21)
(0.0475437 -0.0201113 0)
(0.442208 -0.171596 -5.89194e-21)
(0.348677 -0.138029 6.43708e-21)
(0.247792 -0.100071 -7.40884e-21)
(0.145873 -0.0600971 -8.38423e-24)
(0.0470788 -0.0199154 0)
(0.515353 -0.19597 5.12197e-24)
(0.437841 -0.169884 -5.67025e-21)
(0.345282 -0.136686 0)
(0.245398 -0.0991132 2.71899e-25)
(0.144454 -0.0595135 8.4044e-24)
(0.0466297 -0.0197249 0)
(0.56395 -0.210068 -2.00916e-25)
(0.510156 -0.19396 -5.15001e-21)
(0.433537 -0.168212 -5.20994e-24)
(0.341948 -0.135374 5.96035e-21)
(0.243021 -0.0981538 6.8078e-24)
(0.14307 -0.0589432 0)
(0.0461783 -0.0195338 0)
(0.582018 -0.212267 4.78389e-24)
(0.558041 -0.207813 4.85215e-21)
(0.505049 -0.192008 0)
(0.42932 -0.166577 -5.24452e-21)
(0.33864 -0.134063 5.73826e-24)
(0.240677 -0.0972059 0)
(0.141696 -0.0583771 0)
(0.0457261 -0.0193422 0)
(0.566756 -0.202268 0)
(0.575544 -0.209829 -4.82942e-21)
(0.552247 -0.205633 0)
(0.500037 -0.190094 -9.09858e-24)
(0.425132 -0.164949 1.46626e-23)
(0.335357 -0.132762 0)
(0.238357 -0.09627 0)
(0.140324 -0.0578102 0)
(0.0452849 -0.0191538 -6.97431e-24)
(0.519328 -0.181253 -5.54952e-24)
(0.559851 -0.1997 4.91011e-21)
(0.569195 -0.207482 0)
(0.54656 -0.203503 -4.49646e-21)
(0.495068 -0.188199 9.10749e-24)
(0.420979 -0.163334 -3.8183e-25)
(0.332113 -0.131477 0)
(0.236057 -0.0953374 0)
(0.138964 -0.0572488 0)
(0.0448562 -0.0189741 7.00795e-24)
(0.444633 -0.15167 0)
(0.512102 -0.178595 0)
(0.553092 -0.197257 -4.73695e-21)
(0.563004 -0.205212 4.40706e-21)
(0.540962 -0.201404 -4.33411e-21)
(0.490149 -0.18632 0)
(0.416873 -0.161735 -9.28171e-24)
(0.32889 -0.130197 0)
(0.23378 -0.0944183 0)
(0.137641 -0.0567016 6.94422e-21)
(0.0444239 -0.0187945 0)
(0.350061 -0.116661 3.71501e-21)
(0.437091 -0.148918 -2.28121e-23)
(0.505065 -0.176125 5.03715e-21)
(0.546596 -0.19493 -1.81167e-23)
(0.556967 -0.20299 4.23319e-21)
(0.535439 -0.199333 0)
(0.485286 -0.184459 0)
(0.412791 -0.160146 0)
(0.325714 -0.128936 0)
(0.231533 -0.0935029 -5.64739e-21)
(0.13632 -0.0561592 -6.6796e-21)
(0.0439993 -0.0186149 0)
(0.24415 -0.0794772 -5.2718e-21)
(0.342003 -0.11377 3.55315e-24)
(0.429846 -0.14646 1.11048e-24)
(0.498477 -0.173822 0)
(0.540356 -0.192674 0)
(0.551059 -0.200815 1.63647e-23)
(0.529995 -0.197289 -4.01789e-21)
(0.480463 -0.182618 0)
(0.408763 -0.158575 4.29817e-21)
(0.322551 -0.127678 0)
(0.22931 -0.0926073 5.42622e-21)
(0.135031 -0.0556271 -3.08024e-24)
(0.0435795 -0.0184357 0)
(0.163364 -0.0524278 1.83491e-21)
(0.234437 -0.0761681 2.09042e-21)
(0.159216 -0.0510261 -1.81805e-21)
(0.334488 -0.111294 0)
(0.423416 -0.144265 -5.53281e-21)
(0.492323 -0.17164 4.7917e-21)
(0.534344 -0.190504 0)
(0.545274 -0.198686 3.93696e-21)
(0.524626 -0.195277 -7.37544e-24)
(0.475707 -0.180799 -7.83453e-21)
(0.404773 -0.157023 0)
(0.319454 -0.12645 -4.53145e-21)
(0.227129 -0.0917224 1.07761e-25)
(0.133751 -0.0550985 3.08544e-24)
(0.0431675 -0.0182594 0)
(0.108312 -0.0343472 8.74772e-25)
(0.152924 -0.0485628 -1.81305e-21)
(0.226197 -0.0734691 -9.2707e-22)
(0.14633 -0.0470277 -1.77682e-21)
(0.104626 -0.033245 1.21331e-21)
(0.328488 -0.109248 6.45259e-21)
(0.41769 -0.142272 -5.32921e-21)
(0.486532 -0.169589 1.7594e-23)
(0.528523 -0.188405 0)
(0.539612 -0.196605 7.59373e-24)
(0.519342 -0.193297 3.70759e-21)
(0.471022 -0.17901 3.7468e-24)
(0.400853 -0.155494 3.97786e-21)
(0.316399 -0.125233 -2.08563e-24)
(0.22499 -0.0908558 2.48498e-24)
(0.132495 -0.0545764 0)
(0.0427843 -0.0180964 0)
(0.0666716 -0.0209986 5.65514e-22)
(0.0970394 -0.0302394 0)
(0.141715 -0.0453224 0)
(0.221162 -0.0716289 -2.07509e-21)
(0.13914 -0.0444453 3.4338e-21)
(0.0878421 -0.0280484 4.09731e-22)
(0.0630634 -0.0198922 2.249e-24)
(0.0653169 -0.0206948 0)
(0.323617 -0.107575 -2.51999e-23)
(0.412501 -0.140469 7.43957e-25)
(0.481029 -0.167647 -6.59277e-25)
(0.522884 -0.186375 0)
(0.534065 -0.194567 0)
(0.514146 -0.191351 0)
(0.466409 -0.177246 0)
(0.396991 -0.153987 1.90097e-24)
(0.313413 -0.124046 2.08727e-24)
(0.222896 -0.0900026 2.28045e-24)
(0.131302 -0.0540788 -5.65751e-21)
(0.0423909 -0.0179314 0)
(0.03897 -0.0121956 0)
(0.0591889 -0.0185525 0)
(0.0524127 -0.0155328 -3.26508e-22)
(0.0834944 -0.0264039 4.01596e-22)
(0.137326 -0.0436611 6.67495e-21)
(0.217741 -0.0704786 1.93842e-21)
(0.136209 -0.0433519 -3.32162e-21)
(0.0817825 -0.0257152 -1.94287e-21)
(0.0420308 -0.0134881 -5.27872e-22)
(0.0454287 -0.0144179 -1.80214e-23)
(0.0364614 -0.0115071 4.79618e-22)
(0.038159 -0.0120084 -5.19424e-22)
(0.319415 -0.106157 0)
(0.407687 -0.138811 5.11047e-21)
(0.475772 -0.165795 -1.70407e-23)
(0.517399 -0.184402 0)
(0.528633 -0.192574 -3.37574e-24)
(0.509044 -0.189438 -3.43498e-21)
(0.461864 -0.17551 3.4682e-21)
(0.393215 -0.152514 -3.6488e-21)
(0.310492 -0.12288 -3.99918e-21)
(0.220867 -0.0891724 4.58793e-21)
(0.13012 -0.0535888 -5.42148e-21)
(0.0420169 -0.017774 0)
(0.0125681 -0.00390901 0)
(0.0337788 -0.0102177 4.90373e-22)
(0.0230642 -0.00552803 2.40045e-22)
(0.0402223 -0.0126437 -5.7677e-22)
(0.0393998 -0.0123662 8.51178e-24)
(0.0808266 -0.0253759 -3.82629e-21)
(0.135157 -0.0429621 -3.27197e-21)
(0.214972 -0.0696202 -1.82409e-21)
(0.134399 -0.0428131 -3.18332e-21)
(0.0802236 -0.0251799 2.99321e-21)
(0.0388655 -0.0121242 -4.09868e-24)
(0.039081 -0.0121832 1.60674e-21)
(0.013894 -0.00452799 3.6499e-22)
(0.0154161 -0.0050718 0)
(0.0116697 -0.00374263 -3.59222e-22)
(0.0123313 -0.00384802 3.67769e-22)
(0.315637 -0.104896 -5.90474e-21)
(0.403143 -0.137249 -4.90982e-21)
(0.470698 -0.164015 -7.89851e-24)
(0.51206 -0.182486 -3.69245e-21)
(0.52331 -0.190621 3.37983e-21)
(0.504023 -0.187562 -3.28323e-21)
(0.457426 -0.173812 3.32472e-21)
(0.389527 -0.151071 1.23108e-23)
(0.307651 -0.121741 0)
(0.218894 -0.088368 4.39577e-21)
(0.128985 -0.0531154 0)
(0.0416508 -0.017621 0)
(0.0109358 -0.00354581 -2.26791e-22)
(0.00640924 -0.00148323 -4.81105e-23)
(0.0129217 -0.00406779 3.88554e-22)
(0.0125842 -0.00392875 7.14349e-22)
(0.0386798 -0.0120441 1.04017e-21)
(0.0385771 -0.0120383 4.00978e-24)
(0.079736 -0.0250321 2.94407e-21)
(0.13353 -0.0424981 0)
(0.212523 -0.0688548 -1.79178e-21)
(0.132909 -0.0423763 -2.93246e-23)
(0.0792988 -0.0249156 7.40665e-22)
(0.0384188 -0.011977 -3.97239e-24)
(0.0384613 -0.0119768 -4.06226e-26)
(0.0124126 -0.00385004 7.00544e-22)
(0.0124778 -0.00387489 1.75342e-24)
(0.312115 -0.103726 1.15502e-20)
(0.39882 -0.135774 -9.33093e-24)
(0.465793 -0.162293 3.94121e-21)
(0.506839 -0.180613 3.55251e-21)
(0.518088 -0.188711 -1.55707e-24)
(0.499114 -0.18572 1.5714e-24)
(0.453079 -0.172146 6.37557e-21)
(0.385933 -0.149661 3.34818e-21)
(0.304894 -0.120634 0)
(0.21698 -0.0875809 0)
(0.127883 -0.0526591 2.37033e-24)
(0.0412827 -0.0174651 -4.89797e-21)
(0.0123616 -0.0038347 6.91359e-22)
(0.0123312 -0.00383097 6.85743e-22)
(0.038291 -0.0119183 0)
(0.0382121 -0.0119241 9.96485e-22)
(0.0788757 -0.0247926 -1.1187e-23)
(0.132121 -0.0420777 3.01266e-21)
(0.210241 -0.0681347 -1.01421e-20)
(0.13152 -0.0419491 -2.89215e-24)
(0.0784826 -0.0246776 2.80875e-21)
(0.0380689 -0.0118824 9.768e-22)
(0.0381252 -0.0118746 -9.78277e-22)
(0.0122972 -0.00381369 -6.74808e-22)
(0.0123007 -0.0038179 6.79199e-22)
(0.308805 -0.102628 1.11001e-23)
(0.394653 -0.134346 0)
(0.461007 -0.160618 -3.78445e-21)
(0.501735 -0.178786 3.41318e-21)
(0.512974 -0.186833 1.55848e-24)
(0.494303 -0.183916 -6.04973e-21)
(0.448846 -0.170518 -3.04808e-21)
(0.382432 -0.148281 -1.53011e-24)
(0.302211 -0.119553 0)
(0.215133 -0.0868253 0)
(0.126796 -0.0522057 -4.63141e-24)
(0.0409515 -0.0173194 1.11817e-23)
(0.0122581 -0.00379809 6.69532e-22)
(0.0122262 -0.00379595 -6.61576e-22)
(0.037944 -0.0118261 0)
(0.0378806 -0.0118253 3.74361e-24)
(0.0780841 -0.0245563 -2.7325e-24)
(0.13076 -0.0416545 2.9127e-21)
(0.208076 -0.0674339 3.31292e-21)
(0.130177 -0.0415313 2.87579e-21)
(0.0776878 -0.0244372 -2.64579e-24)
(0.0377034 -0.0117723 0)
(0.0377817 -0.011773 9.55036e-22)
(0.0121829 -0.00378343 -8.17841e-25)
(0.0122117 -0.00378541 -6.60215e-22)
(0.305594 -0.10156 -5.45227e-21)
(0.390602 -0.132967 -2.08017e-24)
(0.456346 -0.158987 -3.6345e-21)
(0.496722 -0.176987 0)
(0.507954 -0.184992 2.9834e-21)
(0.489603 -0.182148 0)
(0.444719 -0.168926 -2.8481e-24)
(0.379043 -0.146942 -3.05859e-21)
(0.299634 -0.118512 0)
(0.213337 -0.0860855 3.78947e-21)
(0.125746 -0.0517626 9.02017e-21)
(0.0406104 -0.0171797 0)
(0.0121611 -0.00377383 2.54848e-24)
(0.0121392 -0.00376862 6.44807e-22)
(0.0375744 -0.0117121 9.4118e-22)
(0.0375144 -0.0117145 0)
(0.0772984 -0.0243105 2.64828e-24)
(0.129454 -0.0412389 -2.80899e-21)
(0.20595 -0.0667519 6.27424e-21)
(0.128888 -0.0411134 -2.77449e-21)
(0.0769108 -0.0241992 6.68229e-22)
(0.0373414 -0.0116619 0)
(0.0374152 -0.0116641 0)
(0.0120663 -0.00374721 6.36407e-22)
(0.0121021 -0.00375119 -1.28236e-21)
(0.302503 -0.100538 0)
(0.386663 -0.13162 2.08361e-24)
(0.451765 -0.157383 -1.7597e-24)
(0.491803 -0.175223 -3.14475e-21)
(0.503034 -0.183182 2.89453e-21)
(0.485013 -0.180415 -2.78323e-21)
(0.440708 -0.167372 2.78764e-21)
(0.375773 -0.145641 0)
(0.297135 -0.117497 -3.1976e-21)
(0.211581 -0.0853603 -3.63394e-21)
(0.124729 -0.0513428 -2.15055e-24)
(0.0402658 -0.0170363 8.0665e-24)
(0.0120387 -0.00373454 -6.29667e-22)
(0.0120124 -0.00373079 6.26812e-22)
(0.0372237 -0.0116043 0)
(0.0371557 -0.0115968 0)
(0.0765199 -0.0240671 6.57065e-22)
(0.128182 -0.0408363 -2.69939e-21)
(0.203924 -0.066093 -1.53739e-21)
(0.127617 -0.0407142 -3.82631e-23)
(0.0761517 -0.0239555 2.47583e-24)
(0.0369741 -0.0115474 0)
(0.0370386 -0.0115475 -8.90456e-22)
(0.0119603 -0.00371435 6.19023e-22)
(0.0119916 -0.00371854 -6.23671e-22)
(0.299486 -0.0995307 0)
(0.382795 -0.1303 4.07703e-21)
(0.447249 -0.155801 3.3532e-21)
(0.486957 -0.173484 -2.95831e-21)
(0.498207 -0.181401 -3.08898e-23)
(0.480534 -0.178716 0)
(0.436832 -0.165857 2.66555e-21)
(0.372607 -0.144375 0)
(0.2947 -0.116507 2.9563e-24)
(0.209875 -0.0846598 0)
(0.123718 -0.0509238 -4.05222e-21)
(0.0399455 -0.0169012 -4.02618e-21)
(0.0119311 -0.00370152 6.13425e-22)
(0.0118972 -0.0036913 6.09745e-22)
(0.0368422 -0.0114861 -8.75005e-22)
(0.0367662 -0.0114848 -3.39051e-24)
(0.0757922 -0.0238369 -2.47875e-24)
(0.126934 -0.0404372 2.65589e-21)
(0.20193 -0.0654467 1.48304e-21)
(0.126399 -0.0403164 2.57934e-21)
(0.0754175 -0.0237295 2.45822e-21)
(0.0366169 -0.0114308 0)
(0.0366849 -0.011437 3.39335e-24)
(0.0118358 -0.00367542 6.00825e-22)
(0.0118584 -0.00367784 -6.05593e-22)
(0.296515 -0.0985436 -4.72742e-21)
(0.378969 -0.128993 0)
(0.442798 -0.154242 0)
(0.482175 -0.171761 2.83389e-21)
(0.493472 -0.179645 -5.25824e-24)
(0.47618 -0.177047 -2.51752e-21)
(0.433068 -0.164377 -1.2661e-24)
(0.369528 -0.143141 0)
(0.292333 -0.115546 -1.43945e-24)
(0.208207 -0.0839767 3.26603e-21)
(0.122733 -0.0505164 7.70081e-21)
(0.0396243 -0.0167647 0)
(0.0118052 -0.00366229 0)
(0.0117754 -0.00365839 5.91291e-22)
(0.0364782 -0.0113719 0)
(0.0364192 -0.0113704 0)
(0.0750533 -0.0236013 -1.80014e-21)
(0.125729 -0.0400549 0)
(0.199963 -0.0648097 0)
(0.125185 -0.0399345 2.72754e-23)
(0.0746972 -0.0234976 1.2033e-21)
(0.0362656 -0.0113261 8.34012e-22)
(0.0363253 -0.0113242 -3.24698e-24)
(0.01172 -0.00363765 5.83421e-22)
(0.0117579 -0.00364658 -5.87551e-22)
(0.29358 -0.0975661 0)
(0.375187 -0.127699 7.09232e-24)
(0.438371 -0.152687 0)
(0.477446 -0.17005 0)
(0.488822 -0.177903 0)
(0.47193 -0.175407 -1.26172e-24)
(0.429413 -0.162934 2.41489e-21)
(0.366538 -0.141942 0)
(0.290016 -0.114609 -2.71261e-21)
(0.206572 -0.0833084 -3.08794e-21)
(0.12176 -0.0501096 -3.62647e-21)
(0.0392928 -0.0166252 -3.59577e-21)
(0.0116785 -0.00362362 5.77466e-22)
(0.0116594 -0.00361925 5.73277e-22)
(0.0361476 -0.0112679 -8.16215e-22)
(0.0360744 -0.0112613 -3.16071e-24)
(0.0743391 -0.0233787 -9.07978e-24)
(0.124526 -0.0396731 0)
(0.198027 -0.0641814 1.38157e-21)
(0.124004 -0.0395542 -2.42133e-21)
(0.0739848 -0.0232765 -2.28224e-21)
(0.0359174 -0.0112139 -7.98169e-22)
(0.0359921 -0.0112255 -7.98905e-22)
(0.011605 -0.00360458 1.71372e-24)
(0.0116369 -0.00360797 -5.70163e-22)
(0.290672 -0.0965935 8.47141e-24)
(0.371408 -0.126405 -7.09903e-24)
(0.433947 -0.151127 1.14549e-23)
(0.472743 -0.168332 -5.02835e-24)
(0.484253 -0.176176 -4.59344e-24)
(0.467795 -0.173797 -2.28416e-21)
(0.425855 -0.161525 0)
(0.363612 -0.140774 5.32782e-24)
(0.287752 -0.113694 0)
(0.204947 -0.0826395 2.92427e-21)
(0.120783 -0.0497019 3.58923e-23)
(0.0389615 -0.0164844 -1.33117e-23)
(0.0115848 -0.00359308 5.60417e-22)
(0.0115558 -0.00358554 0)
(0.0357855 -0.0111543 0)
(0.0357391 -0.0111544 0)
(0.0736486 -0.0231622 0)
(0.123363 -0.0393042 0)
(0.19611 -0.0635552 1.31904e-21)
(0.122842 -0.0391831 -2.30403e-21)
(0.073286 -0.0230565 2.2111e-21)
(0.0355828 -0.011111 7.73962e-22)
(0.0356493 -0.0111157 0)
(0.0114998 -0.00357074 1.06466e-24)
(0.0115308 -0.00357942 5.51111e-22)
(0.287755 -0.0956181 -4.32052e-21)
(0.367581 -0.125093 -1.30772e-23)
(0.429475 -0.149542 -2.92199e-21)
(0.468059 -0.166603 -2.54539e-21)
(0.479755 -0.174452 4.58571e-24)
(0.463746 -0.172216 -2.06567e-24)
(0.422372 -0.160152 2.15441e-21)
(0.360747 -0.139632 0)
(0.285495 -0.11278 0)
(0.203319 -0.0819692 2.76102e-21)
(0.119801 -0.0492905 3.2086e-21)
(0.0386382 -0.0163445 -3.18429e-21)
(0.01146 -0.00355457 5.41016e-22)
(0.0114423 -0.00355004 -5.38753e-22)
(0.0354732 -0.0110548 0)
(0.0354161 -0.0110573 0)
(0.07296 -0.0229469 -8.44912e-24)
(0.122201 -0.0389283 8.76363e-24)
(0.194202 -0.0629321 3.69864e-21)
(0.121684 -0.038811 -4.46271e-21)
(0.0726127 -0.022845 5.51339e-22)
(0.0352479 -0.0110052 7.43606e-22)
(0.0353213 -0.0110174 2.91773e-24)
(0.0113927 -0.00353736 3.65537e-24)
(0.0114163 -0.00354177 5.33918e-22)
(0.284792 -0.0946284 -8.14782e-24)
(0.363656 -0.123744 3.25163e-21)
(0.424931 -0.147909 2.72274e-21)
(0.463359 -0.164835 -2.44474e-21)
(0.475315 -0.17274 1.03366e-24)
(0.459773 -0.17067 2.06232e-24)
(0.418955 -0.158811 -3.86328e-24)
(0.357902 -0.1385 8.01921e-24)
(0.283242 -0.111866 0)
(0.201691 -0.081296 -3.05135e-23)
(0.118815 -0.0488731 -1.14656e-23)
(0.0383011 -0.0162014 2.98044e-21)
(0.0113699 -0.00352417 -5.28197e-22)
(0.0113395 -0.00352123 5.20765e-22)
(0.0351314 -0.0109488 -7.38334e-22)
(0.0350833 -0.0109544 2.83298e-24)
(0.072282 -0.0227289 0)
(0.12107 -0.0385687 2.18793e-21)
(0.19227 -0.0622991 -1.24168e-21)
(0.120554 -0.0384474 2.13395e-21)
(0.0719323 -0.0226277 2.05344e-21)
(0.034926 -0.0109063 0)
(0.0349937 -0.0109156 -7.21837e-22)
(0.0112913 -0.00350442 1.70343e-24)
(0.0113209 -0.00351523 5.16379e-22)
(0.281703 -0.0935958 1.50301e-23)
(0.35954 -0.122314 3.20257e-21)
(0.420234 -0.146189 2.61e-21)
(0.458635 -0.163036 0)
(0.470925 -0.171052 -1.03193e-24)
(0.455871 -0.169165 0)
(0.415577 -0.157491 1.11538e-23)
(0.355059 -0.137366 -1.55642e-23)
(0.280985 -0.110948 -2.16606e-21)
(0.200063 -0.0806194 9.12418e-24)
(0.117813 -0.0484484 7.7164e-25)
(0.0379596 -0.0160597 -2.79178e-21)
(0.0112496 -0.00348708 5.06675e-22)
(0.0112266 -0.003487 5.03505e-22)
(0.0348282 -0.0108534 2.75451e-24)
(0.0347691 -0.0108541 -1.39233e-24)
(0.0716247 -0.0225238 -2.02039e-21)
(0.119938 -0.0382055 2.07003e-21)
(0.190262 -0.0616411 -1.18043e-21)
(0.119415 -0.0380781 0)
(0.0712822 -0.0224243 9.78803e-24)
(0.0346071 -0.0108041 0)
(0.0346651 -0.0108066 -1.3661e-24)
(0.0111897 -0.00347393 4.97075e-22)
(0.0112102 -0.00348091 0)
(0.278339 -0.0924732 9.54288e-23)
(0.355125 -0.120757 -3.08585e-21)
(0.415358 -0.144356 -2.58359e-21)
(0.453895 -0.161234 0)
(0.466601 -0.169416 -7.3402e-24)
(0.452024 -0.167691 0)
(0.412214 -0.156175 -7.29118e-24)
(0.352222 -0.136231 7.54596e-24)
(0.278734 -0.110026 2.02647e-21)
(0.198409 -0.0799276 -9.12839e-24)
(0.116811 -0.0480248 2.06592e-23)
(0.0376054 -0.015912 0)
(0.0111598 -0.00345846 -9.65477e-25)
(0.0111345 -0.00345694 4.86086e-22)
(0.0345106 -0.0107594 0)
(0.0344499 -0.010755 0)
(0.0709595 -0.0223147 -4.92223e-22)
(0.118816 -0.0378435 2.02608e-21)
(0.188025 -0.0609199 -5.5755e-21)
(0.118254 -0.0377014 1.96738e-21)
(0.0706297 -0.0222152 4.82245e-22)
(0.0343011 -0.0107072 -1.30263e-24)
(0.0343646 -0.010717 1.30175e-24)
(0.0110764 -0.00343763 -4.79858e-22)
(0.0111112 -0.00344624 4.84417e-22)
(0.274561 -0.0912017 3.62074e-21)
(0.350243 -0.118967 2.88516e-21)
(0.410308 -0.142448 -1.20195e-24)
(0.449204 -0.159498 2.05803e-21)
(0.462367 -0.167833 3.98156e-25)
(0.448226 -0.166234 0)
(0.408868 -0.154858 1.72285e-21)
(0.34939 -0.135089 -1.75897e-21)
(0.276461 -0.10909 -7.61594e-24)
(0.196751 -0.0792312 7.90664e-24)
(0.115788 -0.0475917 2.42684e-21)
(0.0372462 -0.015759 4.49232e-24)
(0.0110543 -0.00342973 4.7465e-22)
(0.0110306 -0.0034259 4.70455e-22)
(0.0341955 -0.0106604 0)
(0.0341513 -0.0106625 6.47357e-22)
(0.0703195 -0.0221083 -1.39201e-21)
(0.117596 -0.0374526 1.90898e-21)
(0.185361 -0.0600607 0)
(0.116936 -0.0372791 -1.91764e-21)
(0.0699693 -0.0220069 0)
(0.0339946 -0.0106126 5.34371e-24)
(0.0340617 -0.010619 -1.24127e-24)
(0.0109911 -0.00340974 -4.63843e-22)
(0.0110124 -0.00341748 4.66384e-22)
(0.269921 -0.0895893 1.7651e-21)
(0.344864 -0.116933 2.86633e-21)
(0.405261 -0.140631 -2.19914e-21)
(0.44467 -0.15785 -7.27724e-24)
(0.458237 -0.166283 6.94379e-24)
(0.444465 -0.164783 -1.62332e-21)
(0.405527 -0.153537 -6.46963e-24)
(0.346548 -0.13394 -1.65098e-21)
(0.274171 -0.108142 0)
(0.195076 -0.0785272 -1.9691e-21)
(0.114745 -0.0471472 -2.24552e-21)
(0.0368937 -0.0156089 -1.27054e-23)
(0.010957 -0.00339935 0)
(0.0109422 -0.00339894 0)
(0.0338956 -0.0105664 1.2393e-24)
(0.0338402 -0.0105622 -6.23965e-22)
(0.0696377 -0.0218917 -4.43753e-22)
(0.116162 -0.0370011 -1.87282e-21)
(0.181607 -0.0588578 -2.61474e-21)
(0.115203 -0.0367368 1.4138e-23)
(0.0692623 -0.0217832 2.20096e-21)
(0.0336935 -0.0105153 0)
(0.0337624 -0.0105287 0)
(0.0108817 -0.00337697 -8.93962e-22)
(0.0109174 -0.00338541 4.50951e-22)
(0.264077 -0.0873984 -3.33413e-21)
(0.339387 -0.115022 -2.61267e-21)
(0.4005 -0.138961 2.14483e-21)
(0.44034 -0.156265 7.28843e-24)
(0.4542 -0.164759 1.66495e-21)
(0.440738 -0.163339 -1.55826e-21)
(0.402189 -0.152213 1.50144e-21)
(0.343683 -0.132776 5.7818e-24)
(0.271876 -0.10719 -1.62802e-21)
(0.193385 -0.0778129 1.80642e-21)
(0.113713 -0.0467044 2.05215e-21)
(0.0365241 -0.0154516 8.22162e-24)
(0.0108606 -0.00336955 4.4263e-22)
(0.0108386 -0.00336606 4.38587e-22)
(0.0335866 -0.0104701 6.03525e-22)
(0.0335374 -0.0104682 -1.1697e-24)
(0.0688807 -0.0216448 1.74003e-21)
(0.113875 -0.0363597 1.76155e-21)
(0.174834 -0.0564474 -1.56809e-23)
(0.112 -0.035746 -1.37565e-23)
(0.0683462 -0.0215015 4.18071e-22)
(0.0334024 -0.0104247 7.49819e-24)
(0.0334536 -0.0104312 -1.14874e-24)
(0.0107956 -0.00334802 0)
(0.0108249 -0.00335912 4.34595e-22)
(0.257853 -0.0853257 3.06453e-21)
(0.334469 -0.113363 -2.40069e-21)
(0.396145 -0.137405 -1.60691e-23)
(0.436202 -0.154735 -1.71028e-21)
(0.450246 -0.16326 1.53552e-21)
(0.437042 -0.161903 0)
(0.398858 -0.150887 -1.41813e-21)
(0.34083 -0.13161 1.41831e-21)
(0.269571 -0.106227 -1.49854e-21)
(0.1917 -0.0770932 -1.65643e-21)
(0.112661 -0.046247 -1.86382e-21)
(0.0361418 -0.0152896 0)
(0.0107556 -0.00333697 4.27106e-22)
(0.0107401 -0.00333618 4.23413e-22)
(0.0333141 -0.0103801 -1.14737e-24)
(0.0332455 -0.0103676 0)
(0.0676364 -0.0213017 -4.06419e-22)
(0.108622 -0.0346473 9.09169e-22)
(0.166658 -0.0539273 5.16602e-22)
(0.103079 -0.0325686 1.38316e-23)
(0.0665029 -0.0209836 -5.06635e-23)
(0.0330672 -0.0103215 -5.67964e-22)
(0.0331556 -0.0103365 5.75223e-22)
(0.0107034 -0.00332088 -8.33678e-22)
(0.0107278 -0.00332863 4.19836e-22)
(0.252853 -0.0836528 -3.00528e-21)
(0.330287 -0.111897 0)
(0.392115 -0.135942 0)
(0.432224 -0.15326 -1.25347e-23)
(0.446372 -0.161788 -1.49328e-21)
(0.433387 -0.160477 2.73343e-21)
(0.39555 -0.14956 -5.31755e-24)
(0.33798 -0.130438 -7.97071e-24)
(0.26727 -0.105255 -1.38474e-21)
(0.189995 -0.0763581 1.5048e-21)
(0.11158 -0.0457786 1.67218e-21)
(0.0357581 -0.015129 2.89254e-24)
(0.0106838 -0.00331253 4.12749e-22)
(0.0106574 -0.00330535 4.09728e-22)
(0.0329308 -0.0102711 6.39225e-24)
(0.0327886 -0.0102412 -4.32753e-24)
(0.0642592 -0.0202453 -5.59839e-22)
(0.0967619 -0.0308183 -8.59675e-22)
(0.161834 -0.0521511 3.00105e-21)
(0.0931831 -0.029802 -7.91081e-22)
(0.0570431 -0.0176377 0)
(0.0322903 -0.0101131 -2.75175e-22)
(0.0326192 -0.0101831 4.31668e-24)
(0.0106072 -0.00329168 4.03347e-22)
(0.0106362 -0.00329812 -4.04366e-22)
(0.249159 -0.0823508 2.26467e-23)
(0.32664 -0.110595 0)
(0.388347 -0.134577 0)
(0.428388 -0.151836 1.54863e-21)
(0.442575 -0.160338 -1.36249e-21)
(0.429771 -0.159058 -3.4072e-25)
(0.392264 -0.148232 -2.76615e-23)
(0.335137 -0.129257 1.20115e-21)
(0.264964 -0.104275 4.6326e-24)
(0.188273 -0.0756148 -2.6803e-21)
(0.110503 -0.045311 0)
(0.0353596 -0.0149606 -2.89927e-24)
(0.0105726 -0.00327999 2.53619e-24)
(0.010533 -0.0032696 3.95062e-22)
(0.0317263 -0.0100028 -1.6373e-23)
(0.0305177 -0.00946816 -2.45933e-22)
(0.047985 -0.0154947 -1.45016e-22)
(0.0913884 -0.0289322 7.62465e-22)
(0.159211 -0.051164 -8.34901e-22)
(0.0904367 -0.0285945 1.21586e-23)
(0.0449365 -0.0141902 1.09668e-21)
(0.0189377 -0.00444077 0)
(0.0279176 -0.008298 0)
(0.0103802 -0.00322638 5.79318e-22)
(0.010495 -0.00325207 -3.91863e-22)
(0.246203 -0.0813159 -2.82623e-21)
(0.323344 -0.109427 0)
(0.384791 -0.133289 -6.66183e-24)
(0.424672 -0.150451 0)
(0.438853 -0.158911 0)
(0.426203 -0.157646 1.16567e-21)
(0.388992 -0.146901 1.14595e-21)
(0.332305 -0.128072 0)
(0.262651 -0.103284 1.11999e-21)
(0.186557 -0.0748655 -1.18143e-21)
(0.109406 -0.0448272 1.28193e-21)
(0.0349501 -0.0147915 0)
(0.0101888 -0.00319671 -3.82485e-22)
(0.00972251 -0.00311276 -1.74955e-22)
(0.0126985 -0.00398373 2.13072e-22)
(0.0113001 -0.0037583 0)
(0.0441269 -0.0137697 0)
(0.0897253 -0.0283031 -1.21524e-23)
(0.157377 -0.0505823 4.20095e-21)
(0.0892847 -0.0282106 1.49655e-21)
(0.0437064 -0.0136154 3.603e-22)
(0.0103377 -0.00325415 -3.82413e-22)
(0.0106081 -0.00334986 1.98134e-22)
(0.00523604 -0.00117963 0)
(0.00905486 -0.00290783 -1.67269e-22)
(0.243654 -0.0804461 0)
(0.320313 -0.10836 -2.10205e-21)
(0.381399 -0.132057 1.29974e-23)
(0.421069 -0.149104 0)
(0.435202 -0.1575 1.25512e-21)
(0.422675 -0.156242 -1.08059e-21)
(0.385761 -0.145572 -3.85317e-24)
(0.329488 -0.126879 0)
(0.260355 -0.102284 9.885e-22)
(0.184828 -0.0741003 -1.02993e-21)
(0.108282 -0.0443332 0)
(0.0345301 -0.0146146 0)
(0.0102973 -0.00320068 -3.82144e-22)
(0.0102542 -0.00318773 0)
(0.0434531 -0.0135387 1.14274e-23)
(0.0887993 -0.0280488 -1.22354e-25)
(0.155825 -0.0501184 -8.26231e-22)
(0.0884619 -0.0279932 -1.43733e-21)
(0.0432564 -0.013481 0)
(0.0102145 -0.00317496 7.12859e-25)
(0.0102256 -0.00316747 3.71934e-22)
(0.241372 -0.0796752 2.46902e-21)
(0.317471 -0.107358 2.00538e-21)
(0.378147 -0.130873 -6.3333e-24)
(0.417563 -0.147783 -1.28726e-21)
(0.43162 -0.156106 -1.17744e-21)
(0.419203 -0.154843 -1.05284e-21)
(0.382553 -0.144238 9.70753e-22)
(0.326688 -0.125678 -9.12741e-22)
(0.258049 -0.101271 -8.81775e-22)
(0.18307 -0.0733191 7.63977e-25)
(0.107148 -0.0438293 8.75174e-22)
(0.0341026 -0.0144331 0)
(0.010199 -0.00316043 -7.01653e-25)
(0.010191 -0.00316732 3.57675e-22)
(0.0430896 -0.01344 3.47034e-22)
(0.0880384 -0.0278421 0)
(0.15445 -0.0496897 0)
(0.0877161 -0.0277824 1.37096e-21)
(0.0429235 -0.0133885 -1.30714e-24)
(0.0101601 -0.00315611 3.49626e-22)
(0.0101687 -0.00315095 3.53435e-22)
(0.239257 -0.0789587 -2.34553e-21)
(0.31477 -0.106404 0)
(0.375006 -0.129723 5.66873e-24)
(0.414144 -0.146486 1.20247e-21)
(0.428108 -0.154724 1.03458e-21)
(0.415774 -0.153446 -9.11578e-22)
(0.379381 -0.1429 1.708e-21)
(0.323902 -0.124467 7.73649e-22)
(0.255742 -0.100246 0)
(0.181301 -0.0725235 -7.03546e-22)
(0.105986 -0.0433079 0)
(0.033656 -0.0142458 0)
(0.0101399 -0.00314364 -6.78654e-25)
(0.0101391 -0.00314984 6.49726e-25)
(0.0427681 -0.0133487 -1.25141e-24)
(0.0873074 -0.027624 -1.36319e-21)
(0.153165 -0.0492765 1.52545e-21)
(0.0870211 -0.0275628 0)
(0.0425858 -0.0132979 2.563e-24)
(0.0101006 -0.00313542 6.60188e-25)
(0.0101154 -0.00313313 3.39024e-22)
(0.237253 -0.0782785 -9.226e-24)
(0.312179 -0.105487 -6.72011e-24)
(0.371964 -0.128602 -3.12678e-25)
(0.410811 -0.145207 -1.20116e-21)
(0.42466 -0.153351 0)
(0.4124 -0.15205 -8.34494e-22)
(0.376243 -0.141555 0)
(0.32113 -0.123243 -1.42823e-24)
(0.25343 -0.0992016 0)
(0.179512 -0.0717093 0)
(0.1048 -0.042772 4.46249e-22)
(0.0331887 -0.0140523 -2.15297e-22)
(0.0100775 -0.00312358 3.32505e-22)
(0.0100731 -0.00313032 0)
(0.0424191 -0.0132459 1.25208e-21)
(0.0866221 -0.0274043 -1.27684e-21)
(0.151926 -0.048876 1.45502e-21)
(0.0863225 -0.0273395 -1.24513e-21)
(0.0422518 -0.0131922 -3.10311e-22)
(0.0100254 -0.0031167 3.21179e-22)
(0.0100419 -0.00311429 3.26951e-22)
(0.235345 -0.0776277 -4.16659e-24)
(0.309694 -0.1046 1.72592e-21)
(0.369007 -0.1275 1.28629e-21)
(0.407558 -0.143945 1.1362e-21)
(0.42128 -0.151984 1.71903e-24)
(0.409069 -0.15065 1.44565e-24)
(0.37313 -0.1402 7.03957e-22)
(0.318364 -0.122001 0)
(0.251103 -0.0981352 1.95497e-25)
(0.177693 -0.0708712 -3.58148e-22)
(0.103575 -0.0422185 2.19772e-22)
(0.0327077 -0.0138514 8.96211e-26)
(0.00999811 -0.00310085 3.19207e-22)
(0.00999178 -0.00310537 3.16494e-22)
(0.0420896 -0.0131389 0)
(0.0859481 -0.0271921 -2.45429e-21)
(0.150743 -0.0484863 6.92672e-22)
(0.0856669 -0.0271325 -1.19041e-21)
(0.0419178 -0.0130838 -1.14776e-24)
(0.00994457 -0.00309082 3.10626e-22)
(0.00995942 -0.00308798 3.10551e-22)
(0.233518 -0.0769983 -2.02105e-21)
(0.307277 -0.10373 1.63318e-21)
(0.366144 -0.126422 -1.21393e-21)
(0.40438 -0.142692 -2.06349e-24)
(0.417963 -0.150619 -1.719e-24)
(0.40579 -0.149246 -6.67622e-22)
(0.370046 -0.138832 0)
(0.315608 -0.120742 0)
(0.248758 -0.0970443 -1.95634e-25)
(0.175851 -0.0700134 -3.76616e-22)
(0.102315 -0.0416442 0)
(0.0322087 -0.0136456 -3.20585e-22)
(0.00991868 -0.00307554 3.06285e-22)
(0.00991136 -0.00308013 3.03213e-22)
(0.0417626 -0.0130366 1.15063e-21)
(0.0853026 -0.0269856 -1.15806e-24)
(0.149613 -0.0481107 -2.14212e-23)
(0.0850245 -0.0269252 -1.13399e-21)
(0.0416114 -0.0129937 0)
(0.00987648 -0.00306531 5.77093e-25)
(0.00989029 -0.00306515 -5.89456e-25)
(0.231743 -0.0763854 -1.92355e-21)
(0.304949 -0.102883 0)
(0.36336 -0.125355 1.22915e-21)
(0.401277 -0.141445 0)
(0.414708 -0.149254 0)
(0.402555 -0.147835 0)
(0.366986 -0.137448 5.28926e-22)
(0.312853 -0.119459 -3.84512e-22)
(0.246401 -0.0959276 1.67876e-22)
(0.173959 -0.0691233 -1.81067e-23)
(0.101021 -0.0410549 1.97743e-25)
(0.0316854 -0.0134343 -2.26574e-25)
(0.00984071 -0.00304974 2.92941e-22)
(0.00983617 -0.00305666 2.89754e-22)
(0.0414568 -0.0129418 0)
(0.0846793 -0.0267847 2.22585e-21)
(0.148512 -0.0477477 6.2849e-22)
(0.0844191 -0.0267238 -1.08018e-21)
(0.0412981 -0.0128955 1.04651e-24)
(0.00980642 -0.00304711 0)
(0.00981259 -0.00304339 2.87931e-22)
(0.230039 -0.0757918 -1.92504e-21)
(0.302691 -0.102049 -1.38147e-21)
(0.360647 -0.124294 2.12553e-24)
(0.398242 -0.1402 1.6767e-24)
(0.411514 -0.147887 0)
(0.399365 -0.146412 -5.00237e-22)
(0.363956 -0.136044 3.49251e-22)
(0.310089 -0.118143 0)
(0.24401 -0.0947773 1.51717e-23)
(0.172028 -0.0682057 0)
(0.09967 -0.0404465 -5.27911e-25)
(0.0311526 -0.0132248 -2.06916e-24)
(0.00977363 -0.00303007 2.81235e-22)
(0.00975944 -0.00303335 2.77809e-22)
(0.0411639 -0.0128492 -1.04837e-21)
(0.0840716 -0.0265889 4.09823e-24)
(0.147457 -0.0473999 2.87062e-21)
(0.0838097 -0.0265325 -1.03219e-21)
(0.0410108 -0.0127991 0)
(0.00972825 -0.00302339 5.27558e-25)
(0.00973627 -0.00301951 2.74933e-22)
(0.228391 -0.0752137 0)
(0.30051 -0.101224 0)
(0.358012 -0.123238 -1.62423e-24)
(0.395283 -0.138961 8.73676e-22)
(0.408383 -0.146515 0)
(0.396222 -0.144973 0)
(0.360936 -0.134612 0)
(0.307315 -0.116796 1.91212e-26)
(0.241574 -0.0935895 0)
(0.170043 -0.067259 0)
(0.0982628 -0.0398299 3.30565e-25)
(0.0306205 -0.0130091 -1.21358e-21)
(0.00970364 -0.00300919 2.68166e-22)
(0.00969975 -0.00301327 2.65581e-22)
(0.0408718 -0.0127569 2.50214e-22)
(0.0834813 -0.0264023 0)
(0.146434 -0.0470706 -5.64765e-22)
(0.0832338 -0.026348 -9.78169e-22)
(0.0407198 -0.0127123 3.90333e-24)
(0.00966261 -0.00300068 0)
(0.00967513 -0.00299801 2.63366e-22)
(0.22681 -0.0746447 1.75207e-21)
(0.298401 -0.100398 0)
(0.355446 -0.122187 -9.40912e-22)
(0.392395 -0.137724 0)
(0.405313 -0.145133 0)
(0.393117 -0.143513 4.50795e-22)
(0.357929 -0.133148 6.94059e-26)
(0.304531 -0.115414 -1.91289e-26)
(0.239106 -0.0923657 2.34054e-22)
(0.167983 -0.0662777 5.90216e-22)
(0.0967941 -0.0392323 0)
(0.0302333 -0.0127113 1.55668e-21)
(0.00963659 -0.0029876 0)
(0.00963327 -0.00299264 2.66334e-25)
(0.0405842 -0.0126678 0)
(0.0829032 -0.0262262 9.50371e-25)
(0.145445 -0.0467678 -2.07602e-21)
(0.0826504 -0.0261826 9.30057e-22)
(0.04044 -0.0126246 0)
(0.00959054 -0.00298055 2.48194e-22)
(0.00960447 -0.00297789 2.51948e-22)
(0.225307 -0.0740618 -7.79989e-25)
(0.296349 -0.0995733 0)
(0.352964 -0.121152 0)
(0.389582 -0.136483 0)
(0.402305 -0.143736 -4.43889e-22)
(0.39005 -0.142026 1.30199e-25)
(0.354938 -0.13165 -6.94262e-26)
(0.301723 -0.113987 -1.17067e-22)
(0.236569 -0.0910985 -4.93299e-22)
(0.165878 -0.0652894 0)
(0.0952247 -0.0385787 0)
(0.0306235 -0.0124501 0)
(0.00956834 -0.00296717 0)
(0.0095618 -0.00297104 2.42519e-22)
(0.0402992 -0.0125808 0)
(0.0823283 -0.0260919 9.21148e-22)
(0.144626 -0.0463249 1.01889e-24)
(0.0821107 -0.0261069 3.5341e-24)