/*--------------------------------*- C++ -*----------------------------------*\
| =========                 |                                                 |
| \\      /  F ield         | OpenFOAM: The Open Source CFD Toolbox           |
|  \\    /   O peration     | Version:  v1912                                 |
|   \\  /    A nd           | Website:  www.openfoam.com                      |
|    \\/     M anipulation  |                                                 |
\*---------------------------------------------------------------------------*/
FoamFile
{
    version     2.0;
    format      ascii;
    class       surfaceScalarField;
    location    "250";
    object      phi;
}
// * * * * * * * * * * * * * * * * * * * * * * * * * * * * * * * * * * * * * //

dimensions      [0 3 -1 0 0 0 0];
oriented        oriented;


internalField   nonuniform List<scalar> 
7196
(
0.0051064
0.0049006
0.00623012
0.00888428
0.00245913
0.00244146
0.00618642
0.0100507
0.00447119
0.00687223
0.000926156
0.00151531
0.00596238
0.010233
0.00522462
0.00929727
0.00258527
0.00521312
0.000294459
0.00122085
0.00577439
0.010197
0.00527216
0.0101855
0.00373946
0.00814308
0.00128696
0.00422061
7.80325e-05
0.00114281
0.00562989
0.0101555
0.00511053
0.0103586
0.00419499
0.00972996
0.00233047
0.00709956
0.000565049
0.0037336
5.87245e-07
0.00114223
0.00550527
0.0101356
0.00494335
0.0103227
0.00423363
0.01032
0.00296726
0.00909317
0.00128397
0.00638064
0.000194477
0.00353971
-2.91419e-05
0.00117137
0.00538987
0.0101274
0.00481081
0.0102682
0.00412625
0.01043
0.00319047
0.0100968
0.00186855
0.00850859
0.000600661
0.00597445
1.31635e-05
0.0034974
-3.83537e-05
0.00120972
0.00528157
0.0101203
0.00470966
0.0102286
0.00400472
0.0103897
0.00317972
0.0104408
0.002159
0.00980633
0.00101726
0.00809199
0.000192857
0.00579476
-6.77641e-05
0.00352681
-3.64343e-05
0.00124615
0.00517743
0.0101141
0.00462951
0.0102004
0.00390653
0.0103267
0.00308592
0.0104835
0.00220549
0.0103943
0.00126551
0.00955808
0.000429553
0.00785529
-2.347e-05
0.00575047
-9.2469e-05
0.00358285
-2.98918e-05
0.00127605
0.00508001
0.0101054
0.00457018
0.0101735
0.00383858
0.0102684
0.00298431
0.0104283
0.00212444
0.0105645
0.00131271
0.0103471
0.000585083
0.00940255
7.33594e-05
0.00775846
-0.000119025
0.00577702
-9.08519e-05
0.00364381
-2.33422e-05
0.00129939
0.00499046
0.0100935
0.00453344
0.0101422
0.00380251
0.0102095
0.00290478
0.0103479
0.00200007
0.0105527
0.00121678
0.0106605
0.000591651
0.0103405
0.000135314
0.00934059
-0.000109508
0.00774895
-0.000146921
0.00583309
-7.86531e-05
0.00369912
-1.71358e-05
0.00131652
0.0049074
0.0100821
0.00451869
0.0101083
0.00380037
0.0101443
0.00285809
0.0102562
0.00187472
0.0104733
0.00104423
0.0107253
0.00045824
0.0107939
9.1625e-05
0.0103842
-0.000114662
0.00934575
-0.000185416
0.00778744
-0.000144353
0.00589879
-6.39214e-05
0.0037459
-1.14611e-05
0.00132799
0.00483069
0.0100697
0.00452835
0.0100724
0.00384076
0.0100679
0.00285609
0.0101463
0.00176887
0.0103621
0.000837
0.0106805
0.000226425
0.0109571
-7.08711e-05
0.0109564
-0.000188928
0.0104585
-0.000230356
0.00939069
-0.000205617
0.00784871
-0.000127874
0.00596274
-4.89827e-05
0.00378343
-7.17951e-06
0.00133517
0.00475829
0.0100574
0.00456197
0.0100361
0.00392805
0.0099851
0.00291064
0.0100134
0.00170059
0.0102146
0.0006196
0.0105795
-7.46241e-05
0.0109816
-0.000337568
0.0112238
-0.000358258
0.0111257
-0.000323205
0.0105513
-0.000274441
0.00945951
-0.000198218
0.00791905
-0.000107159
0.00602092
-3.54069e-05
0.00381165
-3.54427e-06
0.00133871
0.00468737
0.0100499
0.00461438
0.010005
0.00406806
0.00989609
0.00304166
0.00985407
0.00169481
0.0100191
0.000409676
0.0104245
-0.00043228
0.0109371
-0.000692081
0.0113361
-0.000614983
0.0114805
-0.000485241
0.0112878
-0.000379473
0.0106564
-0.000280755
0.00954205
-0.000178162
0.00799005
-8.4795e-05
0.00607031
-2.4443e-05
0.00383255
-1.36161e-06
0.00134007
0.00461437
0.010046
0.00468107
0.00998324
0.00425883
0.0098142
0.00326443
0.00967333
0.00178295
0.00976593
0.000226895
0.0102019
-0.000848457
0.0108407
-0.00113473
0.0113798
-0.000946955
0.011668
-0.000717523
0.0117128
-0.000538567
0.0114468
-0.000391888
0.0107675
-0.000264336
0.00962822
-0.000152536
0.0080578
-6.61528e-05
0.00611202
-1.56495e-05
0.00384684
6.19297e-07
0.00133945
0.00453556
0.0100498
0.0047484
0.00997867
0.00449164
0.00975044
0.00359595
0.00948268
0.00200892
0.00944737
0.000108955
0.00988387
-0.00132833
0.0106818
-0.00168006
0.011386
-0.00135057
0.0117834
-0.00100548
0.011956
-0.000749873
0.0119241
-0.000546672
0.0116016
-0.000378488
0.0108816
-0.000239025
0.00971471
-0.000127606
0.00811925
-4.95881e-05
0.00614596
-8.88087e-06
0.00385634
1.79169e-06
0.00133766
0.00444655
0.010061
0.00480448
0.00999373
0.00474825
0.00972205
0.00403715
0.00930924
0.0024291
0.00906249
0.000120159
0.00943616
-0.00187967
0.0104352
-0.00236127
0.011363
-0.00182612
0.0118616
-0.00133719
0.0121151
-0.00100578
0.0122119
-0.00074622
0.0121236
-0.000529023
0.0117522
-0.000350976
0.0109936
-0.000211122
0.00979823
-0.000105612
0.00817527
-3.68537e-05
0.00617393
-4.47434e-06
0.00386261
2.43886e-06
0.00133522
0.00434398
0.0100786
0.00483513
0.0100304
0.00499769
0.00974429
0.00456196
0.00919725
0.00309937
0.00863897
0.000381656
0.00880099
-0.00249198
0.0100485
-0.00321559
0.0112895
-0.00237712
0.011914
-0.00170653
0.0122309
-0.00128923
0.0123986
-0.000976414
0.0124421
-0.000716397
0.012311
-0.000497395
0.0118986
-0.000322042
0.0111045
-0.000185204
0.00987782
-8.72944e-05
0.00822572
-2.68709e-05
0.00619633
-4.84822e-07
0.00386553
3.18396e-06
0.00133204
0.00422596
0.010101
0.00482558
0.0100881
0.00520927
0.00981878
0.00511609
0.00919016
0.00401234
0.00828428
0.00114079
0.00787984
-0.00306663
0.00937564
-0.00424659
0.0110795
-0.00297162
0.011884
-0.00208319
0.0122907
-0.00157682
0.0125185
-0.00122163
0.0126438
-0.000929073
0.0126548
-0.000676067
0.0124897
-0.000463315
0.0120399
-0.000291293
0.0112106
-0.00016094
0.00995147
-7.1134e-05
0.00826998
-1.8631e-05
0.00621447
1.97359e-06
0.00386674
3.45263e-06
0.00132859
0.00409417
0.0101228
0.0047689
0.0101577
0.00534921
0.00994818
0.00562934
0.00930553
0.00506253
0.00813998
0.00269836
0.00672672
-0.00319483
0.00800804
-0.00531216
0.0104412
-0.00343435
0.0115422
-0.00237212
0.012173
-0.00181484
0.0125287
-0.00144577
0.0127426
-0.00114533
0.01286
-0.000877269
0.012856
-0.000634535
0.0126609
-0.000427506
0.0121761
-0.000261722
0.0113114
-0.000140395
0.0100207
-5.7981e-05
0.00830933
-1.28982e-05
0.00622935
3.25495e-06
0.00386694
3.57369e-06
0.00132501
0.00394944
0.0101417
0.0046652
0.0102265
0.00539282
0.0101141
0.00602041
0.00955711
0.0061298
0.00823825
0.00462445
0.00317786
0.00303602
-0.000209623
0.00288088
-0.00141406
0.00227468
-0.00324587
0.00449024
-0.00235783
0.00380934
-0.00189642
0.0102947
-0.0013914
-0.00233624
0.0115063
-0.00187485
0.012233
-0.00157644
0.0126594
-0.00132351
0.0129208
-0.00107315
0.0130559
-0.00082343
0.0130449
-0.000590981
0.0128244
-0.000393246
0.0123076
-0.000236715
0.0114077
-0.000122989
0.0100857
-4.85177e-05
0.00834495
-8.66802e-06
0.00624127
4.62514e-06
0.00386589
3.33543e-06
0.00132168
0.00379609
0.0101554
0.00452236
0.0102846
0.00534018
0.0102791
0.00622463
0.00990986
0.00700316
0.00868376
0.00681709
0.00299366
0.00305195
0.000599137
0.0023691
0.00155012
0.00208504
-0.0032175
0.00285251
-0.000697476
0.000872425
0.000780096
-0.00127386
-0.00113176
0.000570163
0.000892645
-0.00175436
0.00434819
-0.000992135
0.00127748
0.000886622
-0.000677284
-0.000646478
0.00322694
-0.000525489
-0.000920202
0.00956557
-0.000686916
-0.00099637
0.00395315
-0.00155338
0.0111848
-0.00148512
0.0121416
-0.00138662
0.0127225
-0.00122428
0.0130719
-0.00100472
0.0132372
-0.000766379
0.0132203
-0.000546213
0.0129773
-0.000359647
0.0124305
-0.000214728
0.0114995
-0.000108042
0.0101453
-4.09684e-05
0.00837725
-6.36068e-06
0.00625225
4.63469e-06
0.00386459
3.37845e-06
0.0013183
0.00363739
0.0101637
0.00434859
0.0103291
0.00520494
0.0104198
0.00623929
0.0102645
0.00747831
0.00943471
0.00866722
0.00327497
0.00355866
0.00262163
0.00192215
0.00357787
0.00105853
0.00103718
0.00045481
0.000398402
0.000534354
-0.00109213
0.000690691
-0.000860641
0.000548608
-0.000936114
0.000495042
0.0010652
-0.000495042
0.000965715
-0.00049147
0.00112247
0.000683583
-0.000288431
0.000288431
-0.000171774
0.00266752
-0.000265178
-0.000323264
0.000920246
0.00356477
-0.000531823
-0.00042783
0.00876999
-0.000329971
0.00322892
-0.000351057
-0.00105891
0.0107586
-0.00122873
0.0119838
-0.00125421
0.0127524
-0.00113515
0.0132024
-0.000929636
0.0134005
-0.000706969
0.013381
-0.000502205
0.0131199
-0.000328946
0.0125447
-0.000194257
0.0115857
-9.69925e-05
0.0102013
-3.59829e-05
0.00840687
-4.43651e-06
0.00626133
4.77e-06
0.0038632
2.9449e-06
0.00131535
0.00347528
0.0101691
0.00415248
0.0103598
0.00500894
0.0105251
0.00610548
0.0105536
0.00757128
0.0101715
0.00957785
0.00407847
0.00444561
0.00465122
0.00220162
0.00545936
0.00275052
0.00104889
0.000270077
0.000251684
0.000806309
-0.00143355
0.00177254
0.000719544
0.000652523
0.000713793
-0.000315392
0.000387506
-0.000387506
0.000360319
-0.000771288
0.000653372
-5.38579e-05
0.00227446
-8.12793e-05
-5.74837e-05
-0.00011622
0.00301477
-0.000213681
-0.000215382
0.00811183
-0.000185364
0.00284107
-0.000156276
0.00200488
-3.79933e-05
-4.3479e-05
-0.000809806
0.0103397
-0.0010895
0.011819
-0.00115954
0.0127768
-0.00103788
0.0133106
-0.000849151
0.0135426
-0.000648085
0.0135269
-0.000460802
0.0132518
-0.000303412
0.0126539
-0.000178868
0.0116675
-8.95215e-05
0.0102548
-3.20172e-05
0.00843445
-4.03198e-06
0.00627013
4.46842e-06
0.00386168
2.81129e-06
0.00131254
0.0033103
0.010173
0.00393981
0.0103818
0.00476929
0.0105995
0.0058658
0.0107648
0.00738689
0.010738
0.0096992
0.0100501
0.00606719
0.00347064
0.00648413
0.00402867
0.00495492
-0.00162433
0.000303615
0.000339943
0.00629161
0.000880607
0.000533231
-4.53149e-05
0.000206369
0.00118951
0.000269321
0.000284727
0.000244098
0.000591504
-1.9411e-05
0.00019024
0.000547159
-1.31384e-05
0.00184122
-2.6835e-05
-2.31897e-05
0.00272482
-9.91311e-05
-0.000138116
0.00758492
-0.000144779
0.00261967
-8.02121e-05
0.00172232
-1.80474e-05
-1.93293e-05
-0.000512597
0.000484063
-9.45917e-06
-8.91665e-06
-0.000723659
0.00997387
-0.00102903
0.0116885
-0.00104506
0.012784
-0.000930681
0.0133921
-0.000766308
0.0136609
-0.000591145
0.0136573
-0.000426039
0.0133744
-0.000282499
0.0127575
-0.000167097
0.0117451
-8.33391e-05
0.0103061
-3.03547e-05
0.00846078
-3.94934e-06
0.00627855
3.82954e-06
0.00386066
2.26846e-06
0.00131027
0.00314262
0.0101757
0.00371711
0.0103957
0.00450028
0.0106508
0.00555455
0.0109107
0.00703385
0.0111178
0.00928288
0.0111543
-0.00759071
0.0140805
0.00469939
0.00534509
0.00710116
0.00126846
0.00139264
0.00189683
0.00164228
0.00106403
-0.000760418
0.00140398
-0.00193721
0.00281781
0.00047569
0.000170829
0.000157691
0.00046292
-5.69219e-06
0.000445004
-5.27403e-06
0.00164546
-1.17172e-05
-1.05533e-05
0.00254154
-5.99814e-05
-0.000121649
0.00714093
-0.000158017
0.0024564
-5.96383e-05
0.00158299
-8.78583e-06
-8.95189e-06
-0.000429822
0.000416315
-4.54001e-06
-4.14716e-06
-0.000148774
0.000139315
-0.000749343
0.00969418
-0.000933833
0.0115773
-0.00091469
0.012768
-0.000818981
0.0134448
-0.000686182
0.0137559
-0.000540428
0.0137716
-0.000396331
0.0134882
-0.000266068
0.0128565
-0.000158277
0.0118201
-7.93672e-05
0.0103552
-2.88743e-05
0.0084857
-4.15762e-06
0.00628653
3.04918e-06
0.00385988
2.10029e-06
0.00130817
0.00297512
0.0101755
0.00348862
0.0104042
0.00421093
0.010685
0.00519931
0.011006
0.00658766
0.0113569
0.00862967
0.0117711
0.01287
0.0123648
0.00879136
-0.00418016
-0.00337928
0.00196104
0.00150643
0.0088484
0.00528805
0.00300811
0.00107816
0.0034557
0.000945046
-0.00392166
0.00163833
0.00117632
0.000133623
0.000128349
0.00040708
-2.48221e-06
0.000398803
-2.27699e-06
0.00153555
-6.11313e-06
-6.43643e-06
0.00238929
-5.45462e-05
-0.000162797
0.00679711
-0.000242725
0.00229817
-6.68959e-05
0.00148823
-6.5266e-06
-5.78703e-06
-0.000391697
0.000384953
-2.04151e-06
-1.84581e-06
-0.000124202
0.000119662
-0.000747307
0.00950765
-0.000786023
0.0114486
-0.000770313
0.0127193
-0.000713938
0.0134726
-0.000619086
0.0138346
-0.000501326
0.0138766
-0.000375016
0.0135972
-0.000254579
0.0129528
-0.000152584
0.0118933
-7.60523e-05
0.0104023
-2.81743e-05
0.00850972
-4.63049e-06
0.00629421
2.47151e-06
0.00385951
1.75638e-06
0.00130642
0.00280741
0.0101767
0.00325548
0.0104086
0.00391064
0.0107045
0.00481969
0.0110646
0.00608994
0.0115037
0.00791599
0.0120706
0.0112645
0.0133766
-0.00683501
0.0159989
0.00547129
0.00657801
-0.00319953
0.00145858
-0.00296501
0.00313318
0.00179287
-0.00145858
-0.00179287
0.00182745
0.00155163
0.00107816
0.00202321
0.00011718
0.000114903
0.000380198
-1.3582e-06
0.000374899
-1.13764e-06
0.00144417
-4.63775e-06
-5.8467e-06
0.00221949
-8.41182e-05
-0.000292196
0.00662055
-0.000278554
0.00211425
-0.000137487
0.00138921
-7.25659e-06
-4.68136e-06
-0.000370361
0.000365307
-1.47261e-06
-1.24828e-06
-0.000113057
0.000111015
-0.000576977
0.00929861
-0.000614265
0.0112926
-0.000643467
0.0126488
-0.000628565
0.0134821
-0.000568695
0.0139019
-0.00047358
0.0139752
-0.000359351
0.0137019
-0.000244692
0.0130449
-0.000146133
0.0119634
-7.2492e-05
0.0104467
-2.74316e-05
0.00853252
-5.63819e-06
0.00630232
1.59199e-06
0.00385967
1.61312e-06
0.00130481
0.00263992
0.0101765
0.00302196
0.0104102
0.00360339
0.0107159
0.00442476
0.0110994
0.00556824
0.0115864
0.00719046
0.0122293
0.00975722
0.0135778
0.0143672
0.0150083
0.00504379
-0.00201633
-0.00136276
0.00197958
0.00182701
0.00589582
0.00572597
-0.00155163
0.00136276
0.000109657
0.000108519
0.000361728
-1.05921e-06
0.000356923
-1.04136e-06
0.0013204
-4.89187e-06
-1.04184e-05
0.0020412
-0.000219141
-0.000212428
0.00637433
-0.000118323
0.00198471
-0.000222064
0.00121966
-2.64736e-05
-1.02665e-05
-0.000353226
0.000347342
-1.37208e-06
-9.84865e-07
-0.000107271
0.000105799
-0.00038008
0.00906442
-0.000478725
0.0111279
-0.000547648
0.0125679
-0.000567484
0.0134808
-0.000535031
0.0139634
-0.000456325
0.0140722
-0.000349734
0.013807
-0.00023751
0.0131363
-0.000141177
0.012032
-7.10109e-05
0.0104902
-2.76547e-05
0.00855454
-5.77868e-06
0.00630969
1.0394e-06
0.00386024
1.12684e-06
0.00130368
0.00247198
0.0101769
0.00278763
0.0104108
0.00329438
0.0107192
0.00402642
0.0111142
0.00504319
0.0116244
0.00646832
0.0123085
0.0084851
0.0135014
0.0121517
0.0157934
-0.00413383
0.0118568
0.0131812
-0.00108068
0.00147727
0.00158299
0.000746331
-0.000983898
0.00405331
0.000104739
0.000103698
0.000343606
-1.15626e-06
0.000334794
-1.60593e-06
0.00112385
-4.07441e-05
-8.25859e-05
0.00189619
-0.00012391
-8.23561e-05
0.00612128
-4.46751e-05
0.00183288
-5.50151e-05
0.00104702
-6.53873e-05
-7.98533e-05
-0.000326827
0.000305563
-5.20946e-06
-2.29991e-06
-0.000102713
0.000101341
-0.000264166
0.00884987
-0.000389228
0.0109694
-0.00048574
0.0124862
-0.00053231
0.0134781
-0.000517687
0.0140247
-0.000444557
0.014167
-0.00033781
0.0139073
-0.000228135
0.0132233
-0.000135071
0.0120961
-6.8434e-05
0.010531
-2.68105e-05
0.00857557
-6.90408e-06
0.00631764
2.00867e-07
0.00386117
8.55195e-07
0.00130282
0.0023058
0.0101772
0.0025556
0.010409
0.00298733
0.0107179
0.00362926
0.0111164
0.00452458
0.0116328
0.00576522
0.0123275
0.00741631
0.0133773
0.0101276
0.0155255
0.0114058
0.0162444
-0.00200646
0.00704292
0.00954972
-0.00140498
-0.000428183
0.00102727
0.000318148
0.00273858
-0.000390516
-0.000301205
0.000100185
9.8579e-05
0.000277222
-1.24031e-05
0.000222206
-2.7569e-05
0.00095433
-2.44925e-05
-6.72452e-06
0.0017785
-2.79774e-05
-4.34045e-05
0.00592978
-2.92606e-05
0.0017502
-1.63735e-05
0.00090272
-6.36014e-07
-2.76919e-06
-0.00019345
0.000128062
-5.10974e-05
-9.6279e-05
9.10696e-05
-0.000204989
0.00866563
-0.000337509
0.0108212
-0.000455452
0.0124093
-0.000521754
0.0134822
-0.000511034
0.0140912
-0.00043316
0.0142624
-0.000323696
0.0140028
-0.000216988
0.0133052
-0.000127768
0.0121554
-6.49854e-05
0.0105692
-2.74152e-05
0.00859608
-7.78911e-06
0.00632563
-8.99257e-07
0.00386292
7.86724e-07
0.00130204
0.00213958
0.0101772
0.00232462
0.0104082
0.00268092
0.0107154
0.00323447
0.0111126
0.00401626
0.0116247
0.00509173
0.0123063
0.00648072
0.0132631
0.00849012
0.0150148
0.0100409
0.0168903
0.00847664
0.0148106
0.00349413
0.00675494
-0.00026651
-0.000432838
0.00167197
-0.000160826
-0.000177555
-0.000122904
0.000759658
0.000195244
0.000534657
-7.62039e-05
7.86665e-05
5.10974e-05
0.00010357
9.68454e-05
0.000876201
-1.033e-06
-4.25568e-07
0.00171994
-1.31459e-05
-3.18942e-05
0.00578407
-2.73892e-05
0.00170124
-1.05607e-05
0.000860883
-3.51214e-07
-7.03462e-07
-9.40762e-05
9.34402e-05
-0.000172033
0.00850015
-0.000316844
0.0106826
-0.000454771
0.0123423
-0.000526668
0.0134978
-0.000502333
0.0141604
-0.000414746
0.0143534
-0.000305816
0.0140917
-0.000203942
0.0133813
-0.000121729
0.0122122
-6.31305e-05
0.0106049
-2.76275e-05
0.00861592
-8.72794e-06
0.00633346
-1.30962e-06
0.00386502
1.68852e-07
0.00130187
0.00197552
0.0101771
0.00209631
0.0104055
0.00238029
0.0107088
0.00284689
0.011103
0.0035229
0.011606
0.00445115
0.0122653
0.00563358
0.0131535
0.00718791
0.0145654
0.00856845
0.0164872
0.00835324
0.0170137
0.00558204
0.0127227
0.0014862
0.00515867
4.80776e-05
6.2002e-05
-0.0012994
0.00106899
-9.42608e-06
-2.66757e-05
-2.47852e-05
-3.54782e-05
-0.000396313
0.000274455
-3.89679e-05
-3.92114e-05
0.00011904
9.24072e-05
9.19817e-05
0.000848684
-5.65067e-07
-3.81716e-07
0.0016801
-1.07523e-05
-2.49088e-05
0.00565759
-2.06452e-05
0.0016644
-1.16904e-05
0.000838958
-3.45336e-07
-4.89711e-07
-9.12782e-05
9.0927e-05
-0.000160568
0.00834388
-0.000330227
0.0105581
-0.000481851
0.0122975
-0.00053297
0.0135285
-0.000482687
0.0142283
-0.000388593
0.0144362
-0.000286455
0.0141742
-0.000190783
0.0134504
-0.000115489
0.0122645
-6.24766e-05
0.0106398
-2.80077e-05
0.0086352
-1.05664e-05
0.00634271
-2.67014e-06
0.00386786
1.5923e-07
0.00130171
0.00181184
0.0101767
0.00187122
0.0104021
0.00208207
0.0107037
0.00246514
0.0110905
0.0030434
0.0115825
0.00384197
0.0122152
0.00485656
0.0130423
0.00611289
0.0142285
0.00727258
0.0158612
0.00754782
0.0172926
0.00635198
0.0162438
0.00343732
0.0107716
0.000710238
0.00448588
-3.92667e-05
1.81698e-06
-0.0010199
0.000998526
2.18951e-05
4.75518e-05
6.1338e-05
4.9759e-05
-0.000194781
0.000186713
-1.35898e-06
-0.000214939
-6.51732e-06
-0.000235679
-4.04556e-06
3.29826e-06
-7.98285e-05
4.08606e-05
9.0362e-05
8.99802e-05
0.000829132
-4.72596e-07
-4.54081e-07
0.0016492
-9.70111e-06
-1.77524e-05
0.0055351
-2.03214e-05
0.00163368
1.71201e-06
-6.84544e-06
0.000818425
-4.83354e-07
-4.99386e-07
-8.94905e-05
8.91452e-05
-0.000177073
0.00819072
-0.000379131
0.0104553
-0.000517641
0.0122822
-0.000514859
0.0135606
-0.000448532
0.0142883
-0.000357226
0.0145069
-0.000262452
0.0142459
-0.000178204
0.0135131
-0.000111004
0.0123131
-6.1658e-05
0.0106734
-3.05759e-05
0.00865521
-1.25692e-05
0.00635261
-3.29778e-06
0.00387132
-4.12441e-07
0.00130212
0.00165084
0.010175
0.00165
0.0103979
0.00178994
0.0106943
0.00209134
0.0110775
0.00257535
0.0115586
0.00326081
0.0121636
0.00413639
0.0129353
0.00518597
0.0139693
0.0061782
0.0153229
0.00659917
0.0168099
0.00619234
0.0174523
0.00461381
0.0150673
0.0020813
0.00940053
0.000313994
0.00414682
3.45915e-05
-9.53136e-06
-0.000985735
0.000977274
-3.08061e-05
-1.92429e-06
1.65328e-05
-0.000242903
0.000251251
1.35472e-05
-0.000224072
2.87206e-05
-0.00020314
4.04065e-05
3.3332e-05
-3.3596e-05
3.2237e-05
-4.01133e-05
-4.41589e-05
8.86726e-05
8.82185e-05
0.000474222
-2.71595e-07
-2.46875e-07
0.00033502
0.00162266
-4.2124e-06
-2.51757e-06
-1.55841e-05
0.00540075
-2.71443e-05
0.00160698
-2.01802e-06
-2.61758e-06
0.000504749
-2.88147e-05
0.000506324
-8.4203e-06
-8.77192e-05
8.72358e-05
-0.00023655
0.00804814
-0.000462306
0.0104
-0.000509707
0.012277
-0.000471254
0.0135834
-0.000403197
0.0143342
-0.000322437
0.0145669
-0.000242373
0.01431
-0.000168725
0.0135708
-0.000109207
0.0123606
-6.36786e-05
0.0107065
-3.2783e-05
0.00867542
-1.41621e-05
0.00636348
-4.22804e-06
0.00387513
-4.81883e-07
0.0013026
0.0014909
0.0101749
0.00143247
0.0103925
0.00150255
0.0106853
0.00172232
0.0110633
0.00211805
0.0115348
0.00270238
0.012117
0.00346202
0.012838
0.00436156
0.0137598
0.00523145
0.014916
0.00570432
0.0162177
0.00562706
0.0173751
0.00490952
0.0171566
0.00325095
0.0138977
0.00123524
0.00847928
0.00010284
0.00393987
4.17243e-05
6.23875e-05
-0.000958556
0.000947343
4.58043e-05
9.18611e-06
-0.000234082
0.000355089
-1.48864e-06
-0.000149355
-9.70013e-07
-0.000254657
1.86509e-05
1.31265e-05
-0.000110032
0.000120743
2.83678e-06
-8.89724e-05
7.66052e-06
-6.55689e-05
1.7003e-05
8.69642e-05
8.67173e-05
0.000304417
1.78863e-06
0.000504898
-2.78672e-06
0.000503767
-1.38614e-06
0.00159626
-1.83569e-06
-3.03689e-06
-2.2621e-05
0.00523799
-5.11666e-05
0.00157559
-2.33958e-06
-4.13494e-06
0.000502711
-9.61661e-07
0.000500688
-5.95381e-07
0.000298057
-2.06044e-06
-0.000360829
0.00794666
-0.000481524
0.0103718
-0.000456564
0.0122624
-0.000409532
0.0135897
-0.000354603
0.0143664
-0.000292243
0.0146168
-0.000225545
0.0143668
-0.000164253
0.0136259
-0.000109161
0.0124061
-6.64191e-05
0.0107401
-3.55882e-05
0.00869685
-1.59067e-05
0.00637516
-5.32679e-06
0.00387998
-9.31524e-07
0.00130354
0.00133253
0.0101734
0.00122174
0.0103857
0.00122194
0.0106731
0.00136118
0.0110464
0.00166953
0.0115118
0.00216108
0.0120761
0.00282258
0.0127565
0.00360847
0.0135911
0.0043892
0.014602
0.00489435
0.015726
0.00497331
0.0168715
0.00467263
0.017612
0.00379218
0.0166153
0.00223972
0.0128932
0.000726539
0.00785558
2.94308e-05
0.0038596
2.38747e-05
2.6963e-05
-0.000938452
0.000945321
3.48541e-05
7.12785e-05
-0.00036253
0.000384766
1.78527e-05
5.71533e-06
-7.42599e-08
1.81944e-06
-2.96954e-05
2.82068e-05
-0.000130121
-5.82849e-07
-3.06655e-05
3.74803e-06
-2.46635e-05
2.75003e-05
-1.7003e-05
8.8506e-05
0.000296228
-9.58217e-07
0.000295128
-2.85762e-07
0.000499559
-7.05912e-07
0.000497758
-1.23607e-06
0.00155968
-2.01943e-06
-4.68274e-06
-6.48402e-05
0.00508144
-0.000139441
0.0015207
-3.66119e-06
-8.53416e-06
0.000496674
-1.25613e-06
0.00049359
-1.05057e-06
0.000294353
-1.87102e-07
0.000293826
-6.76094e-08
8.64455e-05
-0.000446968
0.00791211
-0.000406196
0.0103214
-0.000371925
0.0122247
-0.000345839
0.0135809
-0.000311271
0.0143854
-0.000267246
0.0146585
-0.000216143
0.0144187
-0.000162535
0.0136793
-0.000113033
0.0124527
-7.06315e-05
0.0107752
-3.87162e-05
0.00871966
-1.7585e-05
0.00638741
-6.22652e-06
0.00388527
-9.02199e-07
0.00130444
0.00117889
0.0101691
0.0010173
0.0103778
0.000948624
0.010659
0.00100736
0.011027
0.00122804
0.0114879
0.0016304
0.0120425
0.00220781
0.0126909
0.0029069
0.013458
0.0036223
0.014358
0.00414944
0.0153469
0.0043361
0.0163632
0.00422589
0.0173182
0.00380061
0.0176036
0.00286811
0.0159869
0.00153713
0.0120826
0.000431555
0.00745346
-5.3482e-05
0.00379235
7.01839e-05
5.05428e-05
-0.000954708
0.000965838
1.27447e-05
1.75759e-05
-0.000409106
0.000433545
1.02183e-06
9.39304e-06
2.58159e-05
2.11223e-05
-3.56672e-05
5.35199e-05
-2.99519e-05
2.81325e-05
-3.12483e-05
8.54873e-05
8.52016e-05
0.000293285
-1.65029e-07
0.000292245
-1.96097e-07
0.000492612
-1.04113e-06
0.000489608
-1.67897e-06
0.0014797
-6.80913e-06
-1.70277e-05
-0.00020217
0.00503889
-0.000202249
0.00140374
-2.03789e-05
-4.31036e-05
0.000487808
-1.86067e-06
0.000481757
-2.48407e-06
0.000291225
-2.36592e-07
0.000290422
-2.47254e-07
8.50145e-05
8.49469e-05
-0.00032422
0.00783013
-0.000292383
0.0102419
-0.000293667
0.0121726
-0.000291777
0.0135614
-0.000279453
0.0143976
-0.00025244
0.0146948
-0.000213567
0.0144698
-0.000166963
0.0137332
-0.000117343
0.0124994
-7.3953e-05
0.0108104
-3.99075e-05
0.00874198
-1.83167e-05
0.0063995
-6.42087e-06
0.00389079
-1.2728e-06
0.00130571
0.00102806
0.0101653
0.000821151
0.0103653
0.000686901
0.0106395
0.000661028
0.0110053
0.000791188
0.0114638
0.00110742
0.0120109
0.00160811
0.0126422
0.00224108
0.0133567
0.00291174
0.0141686
0.00345308
0.0150543
0.00372804
0.015955
0.00373621
0.0168529
0.00353375
0.0175851
0.00304314
0.0174286
0.00215191
0.0153722
0.00105582
0.0114583
0.00023702
0.00716296
-8.3054e-05
0.0037565
4.68622e-05
7.20495e-05
-0.00097382
0.000979733
6.42705e-05
4.25608e-05
-0.000449371
0.000462329
7.48525e-07
-9.61426e-07
1.8649e-06
-1.15216e-07
-8.85001e-05
8.96982e-05
-1.76394e-07
-8.09294e-05
1.82231e-06
6.61703e-05
1.31655e-05
6.36311e-06
8.47818e-05
8.45857e-05
0.000289564
-1.82726e-07
0.000288199
-3.14304e-07
0.000478362
-3.41369e-06
0.000467854
-6.51974e-06
0.00135695
-5.7956e-05
-9.74178e-05
-0.00013398
0.00490306
-5.44057e-05
0.00131554
-8.73642e-05
-7.34834e-05
0.000457772
-1.02971e-05
0.000434361
-1.96918e-05
0.000286665
-3.26379e-07
0.000284584
-4.03822e-07
8.43491e-05
8.41019e-05
-0.000175044
0.00771279
-0.000204978
0.0101532
-0.000234559
0.0121154
-0.000255384
0.0135374
-0.000260859
0.0144061
-0.0002494
0.0147306
-0.000217808
0.0145206
-0.00017229
0.0137881
-0.000121599
0.0125471
-7.6581e-05
0.0108471
-4.24719e-05
0.00876613
-1.97672e-05
0.00641285
-7.03004e-06
0.00389655
-1.05818e-06
0.00130677
0.000882288
0.0101581
0.00063717
0.0103493
0.00043694
0.0106153
0.000325535
0.010975
0.00035967
0.0114368
0.000585308
0.0119859
0.00101327
0.0126057
0.00159502
0.0132883
0.00223572
0.0140327
0.00279311
0.0148286
0.00314237
0.01564
0.00325171
0.0164395
0.00317072
0.0172159
0.00291679
0.0177114
0.00241425
0.0171662
0.00161007
0.0148179
0.000723319
0.010972
0.000124663
0.00695524
-7.55768e-05
0.00378234
1.53051e-05
3.44236e-05
-0.000987848
0.00100006
3.46482e-05
6.39342e-05
-0.000484792
0.000499924
2.65131e-05
2.2626e-05
5.98188e-06
1.41148e-05
-9.0431e-05
9.14459e-05
-2.66495e-07
-9.10784e-05
-3.14053e-07
9.09569e-05
6.06115e-07
-2.3677e-07
-2.13509e-05
2.11745e-05
-1.95286e-05
1.31655e-05
8.39192e-05
8.36049e-05
0.000281716
-5.45619e-07
0.000276222
-1.02539e-06
0.000412906
-3.6501e-05
0.000378626
-6.3138e-05
0.00124647
-4.51864e-05
-1.97141e-05
-3.22697e-05
0.00476873
-8.4474e-06
0.00120629
-1.10115e-05
-3.2146e-06
0.000356455
-6.51934e-05
0.000333477
-5.05053e-05
0.000267766
-1.84088e-06
0.000252063
-3.98952e-06
8.32785e-05
8.28747e-05
-0.000101187
0.007609
-0.000152453
0.0100711
-0.000197359
0.0120573
-0.000235173
0.0135117
-0.00025558
0.0144122
-0.000253046
0.0147659
-0.000225745
0.0145741
-0.000178544
0.0138451
-0.000126565
0.0125971
-7.83006e-05
0.0108829
-4.31491e-05
0.00878952
-1.95776e-05
0.0064254
-6.70358e-06
0.0039022
-1.15312e-06
0.00130792
0.000742516
0.0101484
0.000467418
0.0103278
0.000205122
0.0105811
3.45801e-06
0.0109373
-6.68849e-05
0.0114016
6.20795e-05
0.0119601
0.000416528
0.0125827
0.000955406
0.0132453
0.00158293
0.0139411
0.00216272
0.0146631
0.00257288
0.0153981
0.00277304
0.0161187
0.00278549
0.0168247
0.00265969
0.017473
0.00239037
0.0177353
0.00190825
0.0168681
0.00120631
0.0143349
0.000500299
0.0105964
5.87438e-05
0.00682092
-0.000100607
8.65543e-05
0.00379639
-0.00100568
0.000955682
6.52995e-05
2.8809e-05
-0.000519163
0.000540139
3.85349e-06
9.81853e-06
2.86185e-05
1.60766e-05
-0.000112019
0.000120186
1.83455e-05
-0.000103875
1.44816e-05
9.52684e-05
2.15941e-06
5.50867e-06
-2.12298e-05
2.09633e-05
-2.15439e-05
2.17806e-05
8.23291e-05
8.13037e-05
0.000225868
-1.03052e-05
0.000185288
-2.25584e-05
0.000308994
-2.07032e-05
0.000296241
-6.96143e-06
0.00117804
-3.35754e-06
-6.70246e-07
-1.2293e-05
0.00468373
-3.88772e-06
0.00117038
-9.66284e-07
1.87883e-07
0.000287637
-2.40763e-06
0.000285119
-6.96595e-07
0.000162704
-4.26097e-05
0.000112199
7.94628e-05
7.54733e-05
-6.85938e-05
0.00752515
-0.000122479
0.00999623
-0.000178778
0.0120009
-0.000229467
0.0134856
-0.000264189
0.0144234
-0.000267593
0.0148077
-0.000237453
0.014633
-0.000185162
0.0139037
-0.00012824
0.012647
-7.86523e-05
0.0109184
-4.19169e-05
0.00881186
-1.93376e-05
0.00643803
-6.36833e-06
0.00390741
-1.04104e-06
0.00130896
0.00061002
0.0101357
0.000315986
0.0102998
-3.79845e-06
0.0105367
-0.000299753
0.0108843
-0.000484359
0.0113548
-0.000468097
0.0119317
-0.000193219
0.0125698
0.000308829
0.0132292
0.000938132
0.0138901
0.00154877
0.014555
0.00201811
0.0152179
0.00229937
0.0158717
0.00239893
0.0165052
0.0023594
0.017125
0.00221412
0.0176493
0.00195288
0.0176907
0.00150842
0.0165659
0.00090843
0.0139268
0.000347621
0.0103075
2.67405e-06
0.00671764
-0.000636165
0.00161134
4.80042e-05
1.90525e-05
-0.000123147
0.000125865
0.00379367
-0.000561387
-9.47954e-06
6.26614e-06
1.29498e-06
-0.00014406
0.000146207
1.70657e-06
-0.000138356
4.11456e-06
0.000131277
1.75281e-05
8.9973e-06
-4.3113e-05
5.11695e-05
1.02889e-05
-2.86314e-05
2.31227e-05
6.51681e-05
4.26097e-05
9.14958e-05
8.45344e-05
0.00028216
-3.98458e-07
0.000281726
-2.35499e-07
0.00115956
-1.10045e-06
-3.79329e-07
-8.14e-06
0.00462704
-3.7726e-06
0.00115644
-6.35727e-07
-1.31256e-07
0.000280905
-1.46045e-07
0.000280965
1.27997e-07
8.21267e-05
8.14301e-05
-5.33739e-05
0.00745604
-0.00010798
0.00992543
-0.000174533
0.011946
-0.000240638
0.013462
-0.000282475
0.0144383
-0.000283499
0.0148538
-0.00024588
0.0146937
-0.000186834
0.0139623
-0.000126272
0.0126946
-7.66145e-05
0.0109531
-4.14032e-05
0.00883392
-1.87087e-05
0.00645037
-6.2077e-06
0.00391258
-9.0446e-07
0.00130987
0.000486162
0.0101201
0.00018713
0.0102646
-0.000182364
0.0104784
-0.0005745
0.0108115
-0.000889075
0.0112891
-0.00100555
0.0118923
-0.000822512
0.012561
-0.000357657
0.0132363
0.000289981
0.0138774
0.000944461
0.0144945
0.00147347
0.0150997
0.00182889
0.0156884
0.00200909
0.0162616
0.00204844
0.0168162
0.00198165
0.0173575
0.00183964
0.0177625
0.00159465
0.0176044
0.00119562
0.0162788
0.000689951
0.0135845
0.000233997
0.0100762
-3.74013e-05
0.00663189
0.00164524
3.36565e-05
5.83122e-05
-0.000236562
0.000265991
1.35846e-05
4.99087e-06
-0.000219563
1.70263e-06
3.5071e-07
-0.000110789
8.14773e-05
0.00382299
-0.000138203
-2.55804e-07
-2.99736e-07
-9.02837e-05
0.000147898
4.57485e-06
1.09896e-05
-7.38403e-05
7.54321e-05
1.14781e-07
-7.03893e-05
6.63425e-07
6.33626e-05
5.33494e-06
1.9706e-06
1.02889e-05
8.10317e-05
8.07962e-05
0.000279914
-4.92853e-08
0.000279716
-1.81615e-07
0.00114958
-8.22055e-07
-4.53205e-07
-5.93833e-06