/*--------------------------------*- C++ -*----------------------------------*\
| =========                 |                                                 |
| \\      /  F ield         | OpenFOAM: The Open Source CFD Toolbox           |
|  \\    /   O peration     | Version:  v1912                                 |
|   \\  /    A nd           | Website:  www.openfoam.com                      |
|    \\/     M anipulation  |                                                 |
\*---------------------------------------------------------------------------*/
FoamFile
{
    version     2.0;
    format      ascii;
    class       volVectorField;
    location    "250";
    object      U;
}
// * * * * * * * * * * * * * * * * * * * * * * * * * * * * * * * * * * * * * //

dimensions      [0 1 -1 0 0 0 0];


internalField   nonuniform List<vector> 
3673
(
(0.648232 -0.025586 -1.63085e-21)
(0.974707 -0.0153041 -5.24332e-20)
(0.298326 -0.0525396 -3.7538e-24)
(1.01655 -0.0104193 2.44547e-20)
(0.766052 -0.0575036 -2.29489e-24)
(0.175454 -0.054343 1.95427e-20)
(1.00676 -0.0138721 -1.90926e-37)
(0.961622 -0.054077 1.53008e-24)
(0.568985 -0.0966655 -1.78732e-20)
(0.124758 -0.0462347 2.40776e-20)
(0.999515 -0.0164583 -2.63471e-41)
(1.00909 -0.0522648 0)
(0.844001 -0.103939 -2.35394e-20)
(0.436455 -0.110548 -2.38168e-20)
(0.108275 -0.0400264 2.81548e-20)
(0.997598 -0.0170413 -4.07491e-24)
(1.00894 -0.0520683 -6.97228e-24)
(0.969519 -0.100585 4.78664e-20)
(0.720637 -0.138308 2.51051e-20)
(0.365291 -0.110958 0)
(0.104962 -0.0374872 -3.09714e-20)
(0.997517 -0.0166634 -3.74097e-51)
(1.00224 -0.0521631 1.79596e-20)
(1.00433 -0.0967316 -2.56949e-20)
(0.898787 -0.144914 -2.20586e-20)
(0.626281 -0.156635 2.81163e-20)
(0.333031 -0.109356 3.36808e-20)
(0.105667 -0.0368216 0)
(0.997715 -0.0158134 0)
(0.998123 -0.0515231 1.78362e-21)
(1.00471 -0.0941648 0)
(0.97666 -0.143518 6.99656e-24)
(0.82501 -0.178 3.77953e-21)
(0.567513 -0.165722 0)
(0.32048 -0.108582 0)
(0.10774 -0.036888 0)
(0.997868 -0.0146288 2.27685e-20)
(0.996118 -0.0497949 -2.00354e-20)
(0.998333 -0.0919114 0)
(0.997043 -0.14031 1.73181e-20)
(0.936444 -0.184712 -2.60014e-20)
(0.766555 -0.200368 0)
(0.535798 -0.170193 -7.34016e-24)
(0.317224 -0.108516 0)
(0.109944 -0.0371551 0)
(0.99798 -0.0131363 -2.28896e-20)
(0.994829 -0.0470186 0)
(0.992915 -0.0890379 2.02111e-23)
(0.995407 -0.137042 -1.73612e-20)
(0.980796 -0.184904 0)
(0.897314 -0.217348 1.34406e-23)
(0.727581 -0.214366 6.68823e-24)
(0.520794 -0.172171 -3.07656e-20)
(0.317867 -0.108609 3.38965e-20)
(0.111622 -0.0373985 -6.80599e-24)
(0.998091 -0.0113201 0)
(0.993603 -0.0432379 0)
(0.988721 -0.0850736 -2.25222e-23)
(0.988706 -0.13359 -4.13478e-23)
(0.989878 -0.183116 -3.59441e-23)
(0.962268 -0.223936 0)
(0.866963 -0.240856 -1.40758e-23)
(0.704667 -0.222029 2.71194e-20)
(0.51482 -0.172634 5.44212e-22)
(0.319529 -0.108597 -3.21156e-20)
(0.112631 -0.0375446 1.32089e-23)
(0.998222 -0.00916593 -2.52745e-23)
(0.992291 -0.0384133 0)
(0.98481 -0.0797248 0)
(0.981669 -0.129355 2.34542e-23)
(0.985602 -0.180918 2.12107e-23)
(0.984432 -0.226138 1.8159e-23)
(0.946958 -0.254789 0)
(0.846836 -0.255668 0)
(0.692387 -0.225181 7.94768e-22)
(0.512921 -0.172241 -4.10946e-22)
(0.32092 -0.10843 0)
(0.113046 -0.0375684 -6.40249e-24)
(0.998386 -0.00668193 0)
(0.990929 -0.0324798 -2.78411e-20)
(0.980663 -0.0727099 0)
(0.974429 -0.123701 0)
(0.977345 -0.178285 0)
(0.985915 -0.227245 -2.20854e-20)
(0.981959 -0.26232 0)
(0.937047 -0.27603 1.28336e-23)
(0.834668 -0.263252 1.11934e-21)
(0.686033 -0.225667 2.44843e-20)
(0.512441 -0.171455 -2.5952e-20)
(0.321609 -0.108071 0)
(0.112937 -0.0374679 0)
(0.998589 -0.00390816 2.75636e-20)
(0.989616 -0.025407 2.79199e-20)
(0.976195 -0.0637436 1.9828e-24)
(0.966358 -0.11599 0)
(0.967256 -0.174581 2.90968e-20)
(0.979077 -0.228317 2.23475e-20)
(0.991559 -0.267964 3.93749e-23)
(0.983413 -0.288571 -1.35834e-23)
(0.931451 -0.288117 -3.7016e-20)
(0.827353 -0.266088 0)
(0.682606 -0.224898 4.61319e-20)
(0.512148 -0.170432 0)
(0.32147 -0.107504 0)
(0.112409 -0.0372653 1.00504e-23)
(0.998838 -0.00092504 -5.54381e-20)
(0.988488 -0.0172476 -2.84312e-23)
(0.971582 -0.0525831 3.14302e-20)
(0.957151 -0.105549 3.29884e-20)
(0.955002 -0.16893 -2.94317e-20)
(0.968073 -0.229207 0)
(0.9893 -0.274046 0)
(1.00235 -0.298327 1.71006e-20)
(0.986983 -0.304169 1.23651e-20)
(0.928028 -0.293759 1.13799e-20)
(0.822775 -0.266447 -2.11726e-20)
(0.680489 -0.223534 5.02134e-24)
(0.511472 -0.169214 -2.22579e-20)
(0.320528 -0.106758 -2.37811e-20)
(0.111556 -0.0369849 -8.84109e-25)
(0.999135 0.00214484 2.78943e-20)
(0.987719 -0.00817675 2.99599e-20)
(0.967189 -0.0390955 -3.13272e-20)
(0.946928 -0.091666 -6.83406e-20)
(0.939956 -0.160247 -6.68487e-23)
(0.953047 -0.2292 5.8237e-23)
(0.980948 -0.281388 0)
(1.00756 -0.308573 -1.67811e-20)
(1.01476 -0.316259 1.36554e-20)
(0.990135 -0.312036 -1.09238e-20)
(0.925689 -0.295863 0)
(0.819794 -0.26554 -1.98111e-20)
(0.678766 -0.221834 1.96131e-20)
(0.51014 -0.167852 2.01686e-20)
(0.318894 -0.105891 1.00994e-23)
(0.110493 -0.0366483 -9.29052e-24)
(0.999473 0.00514196 5.48047e-23)
(0.987498 0.00147744 -2.98006e-20)
(0.96355 -0.0233617 1.34384e-22)
(0.936226 -0.0736581 -2.06392e-21)
(0.921821 -0.147175 0)
(0.932873 -0.227192 -3.86695e-20)
(0.96731 -0.290125 -5.71708e-23)
(1.00615 -0.321052 3.31194e-23)
(1.02798 -0.327926 -1.34146e-20)
(1.02468 -0.32527 0)
(0.992321 -0.315684 0)
(0.924182 -0.296023 9.15039e-21)
(0.817591 -0.26392 -1.81898e-20)
(0.676871 -0.219977 1.31263e-23)
(0.508123 -0.166424 0)
(0.316729 -0.104931 -1.013e-23)
(0.109283 -0.0362726 0)
(0.999839 0.00788696 0)
(0.987978 0.0112308 -5.6857e-23)
(0.961341 -0.00579765 -3.30664e-20)
(0.926084 -0.0510191 7.53415e-20)
(0.900803 -0.127973 -9.30629e-24)
(0.9062 -0.221587 3.96039e-20)
(0.94696 -0.300156 0)
(1.00025 -0.336843 0)
(1.03476 -0.341152 -3.2201e-23)
(1.04388 -0.336918 0)
(1.03169 -0.32972 -9.17017e-24)
(0.994147 -0.316935 8.95009e-21)
(0.923139 -0.295016 1.69897e-20)
(0.815549 -0.261972 8.48454e-24)
(0.674574 -0.218097 -8.50265e-24)
(0.505495 -0.164955 0)
(0.314164 -0.103909 -8.45117e-24)
(0.107977 -0.0358712 -1.54404e-20)
(1.00021 0.0102074 0)
(0.989227 0.0204822 -1.18019e-22)
(0.961254 0.0127437 3.29122e-20)
(0.918166 -0.0237512 -7.62977e-20)
(0.877841 -0.100449 -4.70308e-20)
(0.871791 -0.20997 1.85823e-22)
(0.917419 -0.311319 0)
(0.989485 -0.357038 -2.38221e-20)
(1.03858 -0.356974 2.54752e-23)
(1.05611 -0.348967 0)
(1.0549 -0.341252 0)
(1.03724 -0.33158 9.06014e-25)
(0.995728 -0.316657 8.36879e-24)
(0.922113 -0.29341 -7.79644e-21)
(0.813354 -0.259948 -7.13786e-24)
(0.671821 -0.216247 0)
(0.502361 -0.163467 -7.30063e-24)
(0.311322 -0.10285 1.63368e-20)
(0.106628 -0.035455 6.49771e-24)
(1.00055 0.0119679 2.45927e-20)
(0.991179 0.0285954 -2.73805e-20)
(0.963777 0.0310118 1.18662e-22)
(0.91463 0.00717277 7.55802e-20)
(0.855333 -0.0624529 4.55819e-20)
(0.82898 -0.187913 0)
(0.874933 -0.323498 0)
(0.972254 -0.383009 2.32075e-20)
(1.04022 -0.375841 2.5089e-23)
(1.06524 -0.362231 -4.68705e-24)
(1.07009 -0.352194 0)
(1.06347 -0.342996 0)
(1.04181 -0.331712 7.74627e-25)
(0.996831 -0.315549 1.61209e-23)
(0.920891 -0.291595 0)
(0.810893 -0.257962 1.40098e-20)
(0.668641 -0.214442 -6.51781e-24)
(0.498844 -0.16197 1.39856e-23)
(0.308296 -0.101763 -7.05657e-24)
(0.105251 -0.035031 -1.24845e-23)
(1.00084 0.0130956 -4.81332e-20)
(0.993635 0.0350194 1.29932e-21)
(0.968951 0.0475379 2.9231e-20)
(0.917264 0.03951 -3.69896e-20)
(0.838672 -0.0138477 -8.29568e-22)
(0.779033 -0.146488 -6.52795e-20)
(0.812001 -0.334722 5.22156e-20)
(0.943647 -0.415797 -7.81788e-23)
(1.03758 -0.396833 -4.78922e-23)
(1.07119 -0.376166 -1.05901e-20)
(1.08072 -0.362992 -2.02711e-23)
(1.08044 -0.352913 0)
(1.07035 -0.342935 -7.68733e-21)
(1.0453 -0.330884 7.18711e-21)
(0.997414 -0.314093 -6.93067e-24)
(0.919406 -0.289753 -1.30312e-20)
(0.80812 -0.256049 5.97223e-24)
(0.665081 -0.21268 6.52239e-24)
(0.495031 -0.160469 -6.68456e-24)
(0.305148 -0.100669 7.07955e-24)
(0.10387 -0.034606 -1.18578e-20)
(1.00104 0.0135891 2.35511e-20)
(0.996303 0.0394034 2.61089e-20)
(0.97626 0.0609407 -2.90515e-20)
(0.926773 0.0699688 1.26116e-22)
(0.835793 0.0416674 4.49455e-20)
(0.729959 -0.0750543 6.66851e-20)
(0.71269 -0.329359 -5.45834e-20)
(0.885782 -0.449841 -3.15599e-20)
(1.01806 -0.414548 7.77096e-23)
(1.06655 -0.386605 1.05461e-20)
(1.08435 -0.371761 -1.96812e-23)
(1.09065 -0.36119 0)
(1.08816 -0.351785 7.54425e-21)
(1.07548 -0.341863 6.57455e-25)
(1.04781 -0.329613 6.48312e-21)
(0.997523 -0.312517 0)
(0.917613 -0.287956 0)
(0.805029 -0.254211 1.17048e-20)
(0.661194 -0.210954 0)
(0.491003 -0.158975 0)
(0.301943 -0.0995783 1.24388e-20)
(0.102502 -0.0341836 5.47632e-24)
(1.00117 0.0135104 0)
(0.998874 0.0416683 -2.30543e-20)
(0.984697 0.0702561 -4.98721e-23)
(0.942454 0.0950956 -2.97524e-20)
(0.849692 0.097378 -8.33326e-20)
(0.701306 0.0248217 -6.263e-20)
(0.560783 -0.265598 -4.20022e-20)
(0.751273 -0.454316 3.83367e-20)
(0.939375 -0.406499 0)
(1.02367 -0.381003 3.44991e-23)
(1.06669 -0.370923 8.65831e-21)
(1.08854 -0.364448 0)
(1.09629 -0.357448 7.18677e-21)
(1.09318 -0.349599 -6.2757e-24)
(1.07909 -0.340282 -6.33411e-21)
(1.04952 -0.328142 0)
(0.997171 -0.310937 5.65683e-21)
(0.915498 -0.28623 -5.41858e-21)
(0.801637 -0.25244 5.4544e-24)
(0.657053 -0.209262 -1.07143e-20)
(0.486842 -0.157495 -5.08684e-24)
(0.298714 -0.0984983 -5.24385e-25)
(0.101168 -0.0337708 -4.56701e-24)
(1.00123 0.0129584 0)
(1.00111 0.0419844 2.32574e-20)
(0.993083 0.0751803 -9.2735e-23)
(0.961948 0.112274 2.91217e-20)
(0.880187 0.145024 7.15501e-20)
(0.708521 0.13228 5.73712e-20)
(0.530601 -0.0884281 3.70752e-20)
(0.497398 -0.0044452 9.34814e-22)
(0.537985 -0.465391 0)
(0.355748 -0.208116 7.39433e-20)
(0.383704 -0.383273 -3.67401e-22)
(0.808269 -0.385013 0)
(0.503414 -0.31234 -1.24011e-20)
(0.636304 -0.294878 0)
(0.876017 -0.328295 0)
(0.736051 -0.289424 0)
(0.989973 -0.342949 -9.10969e-21)
(1.05423 -0.353029 7.68049e-21)
(1.08608 -0.355303 -7.1974e-21)
(1.09777 -0.352626 3.04299e-24)
(1.0959 -0.346811 6.04294e-21)
(1.08143 -0.338417 1.66487e-23)
(1.05048 -0.326614 -5.44585e-21)
(0.996372 -0.309387 -5.17875e-21)
(0.91307 -0.284563 -4.98657e-21)
(0.797974 -0.25072 9.67279e-21)
(0.652715 -0.207603 0)
(0.4826 -0.156039 4.46974e-25)
(0.295511 -0.0974393 -5.4046e-24)
(0.0998666 -0.0333678 -9.12142e-21)
(1.00123 0.0120429 -3.81007e-23)
(1.00289 0.040675 0)
(1.00052 0.0760719 0)
(0.981921 0.120803 -1.97365e-22)
(0.920685 0.176878 -3.27057e-20)
(0.76163 0.228067 -3.98555e-22)
(0.490105 0.101865 0)
(0.515275 0.2016 -2.4548e-20)
(0.278792 -0.0776423 -3.72253e-20)
(0.288735 -0.321245 3.21612e-22)
(0.20201 -0.253356 -1.1522e-20)
(0.197856 -0.2359 8.65336e-21)
(0.168473 -0.155071 4.13036e-21)
(0.301779 -0.250475 -1.99803e-22)
(0.459816 -0.215178 3.6503e-23)
(0.256675 -0.107194 0)
(0.165334 -0.114234 -5.68567e-22)
(0.508594 -0.187985 -6.24674e-22)
(0.359469 -0.146135 -1.0108e-21)
(0.654278 -0.232664 0)
(0.791849 -0.261968 0)
(0.587442 -0.193914 -1.24084e-23)
(0.948136 -0.309724 -8.23638e-21)
(1.03456 -0.335171 0)
(1.07813 -0.345508 0)
(1.09596 -0.347156 -1.53118e-22)
(1.09672 -0.34364 0)
(1.08264 -0.336451 -1.07406e-23)
(1.05077 -0.325066 -1.01616e-23)
(0.995143 -0.307854 9.45653e-21)
(0.910328 -0.28294 4.55644e-21)
(0.794075 -0.249046 0)
(0.64824 -0.205983 0)
(0.478328 -0.154608 4.65963e-24)
(0.292347 -0.0964069 9.48957e-21)
(0.0986086 -0.032977 8.37295e-21)
(1.00118 0.0108649 -3.59785e-23)
(1.00422 0.0381087 3.85041e-23)
(1.00657 0.0737092 0)
(0.9995 0.121722 0)
(0.961492 0.190521 1.88699e-22)
(0.84908 0.286112 7.06467e-22)
(0.558532 0.296448 2.34399e-20)
(0.622158 0.371329 -7.28257e-23)
(0.237059 0.0624398 0)
(0.344757 0.254908 8.25969e-23)
(0.318243 0.186894 0)
(0.0648688 -0.094851 6.70783e-22)
(0.10692 -0.166979 7.84281e-21)
(0.116179 -0.157772 -3.80275e-21)
(0.0777387 -0.0979717 0)
(0.148003 -0.0587671 8.12617e-22)
(0.0848887 -0.0374884 -2.54333e-21)
(0.243907 -0.0761182 6.71008e-22)
(0.421013 -0.130973 0)
(0.28824 -0.0993646 9.5256e-22)
(0.540695 -0.166668 3.26117e-21)
(0.725591 -0.219537 -1.92698e-21)
(0.506703 -0.149028 0)
(0.367243 -0.108482 -1.10172e-23)
(0.906247 -0.283451 7.18308e-21)
(1.01053 -0.318618 -1.19655e-23)
(1.06649 -0.335496 -5.92867e-21)
(1.09164 -0.341297 4.65725e-24)
(1.09592 -0.340373 0)
(1.08287 -0.334422 9.02279e-24)
(1.05042 -0.323476 -4.55605e-21)
(0.993485 -0.306331 -4.31827e-21)
(0.90729 -0.281356 4.16533e-21)
(0.789989 -0.247418 3.8015e-24)
(0.64367 -0.204396 8.19199e-21)
(0.474063 -0.153215 0)
(0.289247 -0.0954032 -8.68483e-21)
(0.0973952 -0.0325996 -3.52349e-24)
(1.00111 0.00950817 0)
(1.00515 0.0346307 -1.81083e-20)
(1.01114 0.0689645 0)
(1.0133 0.116886 -1.83714e-20)
(0.99751 0.188762 -1.89648e-20)
(0.938409 0.303521 2.09119e-20)
(0.699383 0.432573 0)
(0.783245 0.461011 -7.15893e-22)
(0.318436 0.352933 2.21555e-20)
(0.425031 0.465942 -2.01716e-20)
(0.0418479 -0.0447177 0)
(0.0312499 0.00976655 0)
(0.171063 0.154537 -1.16946e-20)
(0.193269 0.240298 1.14935e-20)
(0.0391474 -0.0783857 -1.46456e-20)
(0.105129 -0.0314102 5.35826e-22)
(0.214774 -0.0603 1.37693e-23)
(0.0816175 -0.0223442 -4.0074e-23)
(0.199518 -0.0544747 8.84249e-22)
(0.332307 -0.0929631 -3.70462e-21)
(0.480395 -0.135921 -3.36567e-21)
(0.675116 -0.194987 -7.9643e-21)
(0.46084 -0.127255 2.03068e-22)
(0.307751 -0.0843488 0)
(0.175136 -0.0472661 7.33939e-24)
(0.184985 -0.0498308 -1.46397e-23)
(0.866156 -0.262617 -6.72787e-21)
(0.984604 -0.303359 1.28207e-23)
(1.05246 -0.325505 -1.01558e-23)
(1.08539 -0.335571 -7.99075e-25)
(1.09386 -0.337056 8.8065e-24)
(1.08223 -0.332294 -1.72601e-23)
(1.04946 -0.321843 4.13922e-21)
(0.991417 -0.304817 -3.94791e-21)
(0.903994 -0.279807 7.44208e-24)
(0.785746 -0.245829 -1.48572e-20)
(0.639047 -0.202851 7.49686e-21)
(0.469834 -0.151859 0)
(0.286221 -0.0944328 -3.78703e-24)
(0.0962338 -0.0322364 3.54241e-24)
(1.00102 0.00803837 0)
(1.00576 0.0305305 1.09607e-21)
(1.01438 0.0625873 0)
(1.02334 0.108202 1.86362e-20)
(1.02499 0.17708 3.50231e-20)
(1.00727 0.290875 -4.81054e-21)
(0.899378 0.546223 -5.34012e-21)
(0.561206 0.556331 0)
(0.694462 0.61085 1.01387e-20)
(0.0645774 0.1932 2.66873e-21)
(0.100744 0.25063 0)
(0.20795 0.350281 -1.25125e-21)
(0.149652 0.303576 -8.83322e-22)
(0.0310288 0.0709371 -3.71604e-22)
(0.0413789 0.131867 0)
(0.0696565 -0.0176493 0)
(0.0645897 -0.0161839 -5.69119e-22)
(0.165017 -0.0433121 1.00097e-21)
(0.158951 -0.0415968 -7.61329e-24)
(0.290601 -0.0770246 3.79244e-21)
(0.443272 -0.120896 -3.30958e-24)
(0.633716 -0.178865 5.62008e-21)
(0.429145 -0.115865 -3.25966e-21)
(0.277992 -0.0729294 2.28187e-21)
(0.147411 -0.0383775 0)
(0.152068 -0.0395285 -9.7195e-22)
(0.0566479 -0.0142453 -2.76091e-25)
(0.0601222 -0.0149784 2.75368e-25)
(0.828201 -0.245116 6.26762e-21)
(0.957976 -0.289018 -7.03154e-25)
(1.03704 -0.316442 -8.73369e-24)
(1.07797 -0.330017 -4.61527e-21)
(1.0908 -0.333644 -1.68867e-23)
(1.08077 -0.330079 -4.04341e-21)
(1.04792 -0.320178 3.88307e-24)
(0.988975 -0.303311 3.69112e-24)
(0.900465 -0.278288 1.03926e-20)
(0.781384 -0.244279 1.16121e-22)
(0.634404 -0.201346 2.9433e-25)
(0.465659 -0.150543 3.26873e-24)
(0.283287 -0.0934955 3.25254e-25)
(0.0951207 -0.0318871 0)
(1.00093 0.00650479 0)
(1.00613 0.0260358 2.56406e-20)
(1.01654 0.0551516 0)
(1.03028 0.097209 0)
(1.04365 0.16032 -2.47275e-21)
(1.05291 0.261224 -1.53864e-20)
(1.05162 0.493985 6.95924e-21)
(0.770642 0.693993 -1.57524e-22)
(0.963853 0.747013 2.80394e-21)
(0.279054 0.473764 -3.59397e-21)
(0.435056 0.585762 7.29276e-21)
(0.657552 0.685181 0)
(0.55164 0.635882 -2.88685e-21)
(0.0533035 -0.013237 0)
(0.0513103 -0.0127675 5.91235e-25)
(0.142435 -0.0363397 -2.33453e-23)
(0.13965 -0.0355444 -1.01024e-21)
(0.267923 -0.0694497 -7.54127e-22)
(0.415054 -0.111708 4.95994e-23)
(0.595946 -0.165703 -6.97744e-21)
(0.402565 -0.107539 0)
(0.259297 -0.0671156 2.94629e-21)
(0.133966 -0.0339956 1.02223e-21)
(0.136227 -0.034603 3.98089e-24)
(0.0474674 -0.011853 2.43308e-24)
(0.049176 -0.0122065 6.19524e-22)
(0.791158 -0.228799 -1.21195e-23)
(0.931843 -0.277073 -1.98341e-23)
(1.02157 -0.308164 4.77261e-21)
(1.06985 -0.324555 0)
(1.08685 -0.330177 8.08256e-24)
(1.07857 -0.32781 3.46475e-24)
(1.04585 -0.318487 0)
(0.986189 -0.301809 -3.29574e-21)
(0.896734 -0.276797 -3.12473e-21)
(0.776928 -0.242768 -6.27574e-21)
(0.629766 -0.199884 2.6729e-25)
(0.461561 -0.149266 -6.27271e-24)
(0.280444 -0.0925906 6.93902e-21)
(0.0940522 -0.0315501 -2.73013e-24)
(1.00083 0.00494409 0)
(1.00631 0.0213175 -8.33865e-21)
(1.01786 0.0470824 0)
(1.03478 0.0849559 1.38677e-20)
(1.05549 0.141308 -1.40372e-20)
(1.08122 0.227343 0)
(1.12336 0.406963 -1.16234e-20)
(1.18045 0.631092 -1.60743e-21)
(0.460378 0.474226 0)
(0.598987 0.478267 -5.85349e-21)
(0.382042 0.325413 4.5226e-21)
(0.809282 0.498278 -3.40294e-23)
(0.100189 0.201713 0)
(0.254436 0.348858 0)
(0.346 0.372496 0)
(0.0458479 -0.011332 -1.27587e-21)
(0.0449623 -0.0111143 5.33656e-24)
(0.131135 -0.0330845 1.01692e-21)
(0.129543 -0.0325785 1.02417e-21)
(0.251434 -0.0647596 2.15745e-21)
(0.388707 -0.103956 0)
(0.554178 -0.151078 1.53632e-21)
(0.374057 -0.0991521 0)
(0.243853 -0.0627952 -6.58554e-22)
(0.125664 -0.0316356 -9.99432e-22)
(0.127234 -0.032131 2.00923e-21)
(0.0431673 -0.0106723 0)
(0.0439603 -0.0108608 -3.13217e-25)
(0.757008 -0.216188 -4.39915e-23)
(0.90826 -0.266852 2.01677e-23)
(1.00656 -0.30045 0)
(1.06116 -0.31925 -3.7003e-24)
(1.08214 -0.32671 -3.61153e-21)
(1.07572 -0.325505 -3.4586e-24)
(1.04331 -0.316773 3.18089e-21)
(0.983093 -0.300312 -3.01943e-21)
(0.892821 -0.275334 5.78763e-21)
(0.772397 -0.241295 -2.91463e-24)
(0.625145 -0.19846 2.91793e-24)
(0.457551 -0.148028 -5.77572e-21)
(0.277694 -0.0917131 2.92482e-24)
(0.0930225 -0.0312248 5.48222e-21)
(1.00073 0.00338216 0)
(1.00635 0.0164986 1.48173e-23)
(1.01857 0.0386899 -1.22841e-23)
(1.03743 0.0721072 -1.40819e-20)
(1.06253 0.121488 0)
(1.09798 0.194856 0)
(1.1516 0.324395 7.04541e-21)
(1.32101 0.542597 3.06685e-24)
(0.825682 0.263632 0)
(1.17014 0.394944 6.57499e-23)
(0.187375 0.2145 1.64442e-22)
(0.20924 0.139474 0)
(0.611963 0.280757 5.56558e-23)
(0.237125 0.120817 5.67777e-21)
(0.0423116 -0.0104305 -6.48141e-22)
(0.0418166 -0.0102878 0)
(0.123488 -0.0310883 -9.66137e-25)
(0.12219 -0.0306191 1.06094e-23)
(0.235909 -0.0606397 -1.32892e-21)
(0.354089 -0.0938577 -2.79995e-21)
(0.51579 -0.139788 0)
(0.328955 -0.0849415 -2.71143e-21)
(0.226257 -0.0582372 1.02783e-23)
(0.118891 -0.0298247 5.49609e-24)
(0.120276 -0.0303187 3.69876e-24)
(0.0406031 -0.0100019 0)
(0.0411683 -0.0101549 -6.39165e-22)
(0.729358 -0.206015 4.50589e-23)
(0.88726 -0.257855 1.73417e-23)
(0.991976 -0.293321 3.79237e-24)
(1.05206 -0.314143 3.67535e-21)
(1.0768 -0.323271 0)
(1.07229 -0.323175 -3.11689e-21)
(1.04034 -0.31504 0)
(0.979707 -0.298825 2.83253e-24)
(0.888742 -0.273901 2.72824e-24)
(0.767816 -0.239859 5.29179e-21)
(0.620576 -0.197072 -2.45479e-24)
(0.45363 -0.146817 0)
(0.275028 -0.0908632 -5.62514e-21)
(0.0920362 -0.0309115 4.93628e-21)
(1.00063 0.00183755 0)
(1.0063 0.0116667 0)
(1.01884 0.0301891 -1.44864e-23)
(1.03872 0.0590847 2.64023e-23)
(1.06627 0.101728 4.93272e-21)
(1.10656 0.164229 0)
(1.16343 0.25934 -2.70435e-21)
(1.33668 0.431872 0)
(1.35091 0.349971 -5.12801e-20)
(0.196844 0.0520096 4.86437e-21)
(0.659618 0.167314 0)
(0.313043 0.0780467 0)
(0.901606 0.166764 3.50557e-20)
(0.0399607 -0.00984298 -6.24317e-22)
(0.0395321 -0.00971006 6.18439e-22)
(0.116936 -0.0294269 4.71414e-24)
(0.115435 -0.028896 1.81949e-21)
(0.210822 -0.0543437 2.13671e-21)
(0.30581 -0.0799392 0)
(0.491234 -0.131582 0)
(0.294283 -0.0766065 0)
(0.176322 -0.0438189 0)
(0.110519 -0.027791 1.74467e-21)
(0.113273 -0.0286156 -3.72665e-24)
(0.0385095 -0.00946647 6.00091e-22)
(0.0389974 -0.0096114 -5.88375e-25)
(0.706775 -0.197715 1.94726e-23)
(0.868193 -0.249932 -1.75842e-23)
(0.977814 -0.286727 -3.82264e-24)
(1.04266 -0.30924 3.33736e-21)
(1.07093 -0.319865 0)
(1.06836 -0.320823 -2.6797e-24)
(1.03697 -0.313299 0)
(0.976053 -0.297357 -4.78868e-24)
(0.884526 -0.272498 -4.86594e-21)
(0.763211 -0.238448 -2.00206e-25)
(0.616048 -0.195705 2.02129e-25)
(0.4498 -0.145637 5.03292e-21)
(0.272449 -0.0900393 0)
(0.0910946 -0.0306114 -2.12116e-24)
(1.00055 0.00032359 0)
(1.00619 0.00688196 -7.55932e-21)
(1.01881 0.0217232 0)
(1.03909 0.0461561 1.0432e-23)
(1.06776 0.0825361 -5.02174e-21)
(1.10959 0.135326 -2.87397e-21)
(1.16817 0.208538 -6.82137e-22)
(1.30882 0.332868 -3.08137e-23)
(1.48599 0.340737 3.65614e-20)
(1.03871 0.0993256 2.71755e-20)
(0.461335 0.0515576 4.7095e-22)
(0.179327 0.0101646 -1.07181e-20)
(0.605897 0.0139864 2.59581e-20)
(0.0379479 -0.0093431 3.33865e-24)
(0.0374613 -0.00919645 -1.15902e-21)
(0.105393 -0.0270118 -8.4514e-22)
(0.0970073 -0.0232621 4.22246e-22)
(0.151664 -0.0386771 6.03479e-22)
(0.286163 -0.0740948 0)
(0.47363 -0.126029 -1.46639e-21)
(0.280753 -0.0721157 0)
(0.14498 -0.0364911 -5.58038e-22)
(0.0431345 -0.011691 -1.8084e-22)
(0.065159 -0.012103 -2.65756e-22)
(0.0359889 -0.00886978 -5.57741e-22)
(0.0368493 -0.00909907 -5.70305e-22)
(0.687377 -0.19078 -4.84646e-21)
(0.850626 -0.242854 0)
(0.963996 -0.280593 -3.50823e-21)
(1.033 -0.304518 0)
(1.0646 -0.316483 0)
(1.06396 -0.318462 2.67442e-24)
(1.03323 -0.311571 0)
(0.972162 -0.295914 9.18286e-24)
(0.880194 -0.27111 0)
(0.758583 -0.237049 -2.25154e-24)
(0.611582 -0.19436 -4.35307e-21)
(0.446065 -0.144485 2.32382e-24)
(0.269967 -0.0892435 0)
(0.0901804 -0.03032 2.13075e-24)
(1.00046 -0.00114905 0)
(1.00603 0.00218683 1.52479e-20)
(1.01857 0.0133815 -6.83894e-21)
(1.03885 0.0334754 0)
(1.06777 0.0641232 -1.70035e-23)
(1.1093 0.108329 2.93783e-21)
(1.16787 0.166852 7.14229e-22)
(1.27801 0.25493 6.61776e-21)
(1.47467 0.290674 3.32451e-23)
(1.41852 0.163728 -9.47743e-20)
(0.67471 -0.0333823 -9.39831e-20)
(0.370362 -0.0178416 3.97131e-20)
(0.317679 -0.0143447 0)
(0.0973979 -0.0164126 1.00808e-20)
(0.231747 -0.0240289 1.45895e-20)
(0.0340286 -0.00867943 9.65319e-24)
(0.0315245 -0.00826423 0)
(0.0375912 -0.00957033 -4.94116e-22)
(0.0350318 -0.00889154 -6.1243e-22)
(0.141335 -0.0354048 -6.07091e-22)
(0.275255 -0.0709741 2.50963e-21)
(0.45912 -0.121792 5.48879e-21)
(0.271329 -0.0696133 0)
(0.138547 -0.0346201 5.61815e-22)
(0.0339434 -0.00831699 0)
(0.0343015 -0.00854831 5.80831e-22)
(0.0181485 -0.00320543 9.7994e-23)
(0.670264 -0.184689 0)
(0.834104 -0.236427 -7.04503e-24)
(0.950383 -0.274835 0)
(1.0231 -0.299916 0)
(1.05785 -0.313125 0)
(1.05914 -0.31613 2.41844e-21)
(1.02916 -0.309879 2.28243e-21)
(0.968064 -0.294479 -4.39603e-24)
(0.875759 -0.269718 0)
(0.753944 -0.235652 1.9014e-24)
(0.607178 -0.193034 4.12452e-21)
(0.44243 -0.143358 0)
(0.267553 -0.088471 -2.0836e-24)
(0.0893076 -0.0300408 1.79478e-24)
(1.00039 -0.00257055 7.90421e-21)
(1.00584 -0.00238747 -7.69312e-21)
(1.01817 0.00521912 6.95162e-21)
(1.03822 0.0211205 -5.72776e-21)
(1.06687 0.0465236 0)
(1.10721 0.083299 6.65041e-24)
(1.16388 0.13108 0)
(1.2545 0.195338 -1.01517e-20)
(1.41789 0.233553 -1.25007e-23)
(1.53177 0.173662 8.02192e-21)
(1.20338 0.0311973 5.47102e-20)
(0.481734 -0.0737679 -7.99879e-20)
(0.193251 -0.0282399 5.02504e-20)
(0.234545 -0.047367 -2.05445e-20)
(0.117563 -0.00990573 0)
(0.158948 -0.0225348 1.47306e-23)
(0.061321 -0.0134493 3.94621e-23)
(0.0335157 -0.00828442 5.53162e-22)
(0.0333295 -0.00815759 -5.44024e-22)
(0.136107 -0.0340625 5.39837e-22)
(0.266709 -0.0687961 -2.31492e-21)
(0.446966 -0.117666 1.22058e-21)
(0.26324 -0.0677171 -1.69217e-23)
(0.134035 -0.0335025 5.37527e-22)
(0.0328077 -0.00802042 -5.26295e-22)
(0.0329325 -0.00812929 -2.07036e-24)
(0.65449 -0.179278 -4.2091e-21)
(0.818178 -0.230495 7.10162e-24)
(0.936811 -0.269296 -2.79234e-24)
(1.01293 -0.295381 0)
(1.0507 -0.309841 -2.41988e-21)
(1.05396 -0.313883 -2.24139e-21)
(1.02482 -0.308206 -3.94113e-24)
(0.963785 -0.293027 -3.72303e-24)
(0.871232 -0.268311 1.78681e-24)
(0.749314 -0.234262 -3.67912e-21)
(0.60284 -0.191723 -3.79262e-21)
(0.438887 -0.142262 1.8036e-24)
(0.265229 -0.0877254 1.72031e-25)
(0.0884697 -0.0297712 -3.45366e-24)
(1.00032 -0.00393036 -7.96925e-21)
(1.0056 -0.00681335 0)
(1.01767 -0.0027286 7.92594e-25)
(1.03735 0.00912169 3.60078e-23)
(1.06544 0.0296894 3.24875e-24)
(1.10426 0.0600788 0)
(1.15785 0.0994697 1.53417e-24)
(1.23635 0.148533 3.05899e-22)
(1.36341 0.182107 7.4228e-21)
(1.51186 0.155983 5.88244e-20)
(1.46727 0.0667731 0)
(0.997227 -0.0437627 5.78326e-20)
(0.400322 -0.0724781 -2.06394e-20)
(0.182567 -0.0369134 -2.70984e-22)
(0.17048 -0.0457036 4.77628e-21)
(0.0628443 -0.0090276 -1.98506e-22)
(0.0668576 -0.0146035 -1.24201e-20)
(0.0776761 -0.0152893 1.30465e-20)
(0.0822778 -0.0233239 1.33216e-20)
(0.0228095 -0.00481828 0)
(0.037149 -0.00980544 -9.49163e-21)
(0.032418 -0.00800594 -5.15718e-22)
(0.0323024 -0.00790521 -5.06993e-22)
(0.131918 -0.0330569 1.53234e-21)
(0.25965 -0.0673024 -2.19005e-21)
(0.435492 -0.114258 5.95281e-21)
(0.257621 -0.0656932 -1.85565e-21)
(0.129794 -0.0325934 0)
(0.0318412 -0.00778471 1.93052e-24)
(0.0319465 -0.0078887 -9.97362e-22)
(0.639373 -0.174292 -3.96715e-21)
(0.802423 -0.224808 -3.21579e-21)
(0.923072 -0.263801 2.80005e-24)
(1.0025 -0.29097 -4.65031e-24)
(1.04329 -0.306752 -3.20542e-25)
(1.04853 -0.311701 2.07406e-21)
(1.02026 -0.306514 3.93606e-24)
(0.959336 -0.291545 3.71824e-24)
(0.866632 -0.266891 1.76734e-21)
(0.744692 -0.232874 3.38026e-21)
(0.598583 -0.190437 0)
(0.435451 -0.141194 -1.80557e-24)
(0.262981 -0.0870026 1.91945e-24)
(0.0876648 -0.0295129 -3.33131e-21)
(1.00025 -0.00521492 0)
(1.00533 -0.0110618 2.02039e-24)
(1.01706 -0.0104343 0)
(1.0363 -0.00252103 5.89043e-21)
(1.06373 0.0135383 4.29091e-21)
(1.101 0.0383942 -4.29292e-24)
(1.15118 0.0710214 0)
(1.22089 0.109972 3.13155e-21)
(1.32247 0.138858 -1.44427e-20)
(1.45349 0.128274 -2.74789e-20)
(1.53103 0.0739787 6.53765e-23)
(1.35 -0.0111934 0)
(0.84593 -0.0816956 -1.21836e-22)
(0.355807 -0.0665034 -8.12561e-20)
(0.170032 -0.0309703 -5.64896e-22)
(0.174894 -0.0402005 3.26263e-20)
(0.091158 -0.0192218 -1.57158e-22)
(0.0869726 -0.0208929 0)
(0.0752419 -0.0175566 -5.70954e-21)
(0.0616903 -0.0204456 0)
(0.0110814 -0.00226235 8.15417e-21)
(0.0134902 -0.0039246 0)
(0.0169304 -0.00432065 -6.46343e-23)
(0.0145343 -0.00638358 -8.29637e-21)
(0.0314745 -0.00777795 4.78383e-22)
(0.0313604 -0.00767767 -4.71962e-22)
(0.12789 -0.0323398 2.30888e-21)
(0.252973 -0.0644593 -4.50939e-22)
(0.424691 -0.111194 5.53398e-21)
(0.250327 -0.0635425 -2.21009e-21)
(0.157883 -0.0419721 0)
(0.158078 -0.0408361 5.6609e-22)
(0.0308427 -0.00757219 -1.77016e-24)
(0.0309832 -0.00765918 -4.6182e-22)
(0.624183 -0.169438 3.70007e-21)
(0.786205 -0.219017 0)
(0.909139 -0.258359 0)
(0.992005 -0.286938 4.66118e-24)
(1.0358 -0.303829 -2.09369e-21)
(1.04292 -0.309525 1.92011e-21)
(1.01549 -0.304789 0)
(0.954734 -0.290035 -1.66429e-21)
(0.861977 -0.265461 0)
(0.740106 -0.231494 0)
(0.594419 -0.189173 0)
(0.432112 -0.140156 -3.32267e-21)
(0.26081 -0.0863048 3.37145e-21)
(0.0868894 -0.0292648 -2.92234e-24)
(1.00019 -0.0064073 0)
(1.005 -0.0150968 -4.00131e-24)
(1.01633 -0.0178676 3.41224e-24)
(1.03512 -0.0138183 0)
(1.06191 -0.0020354 -8.8496e-21)
(1.09775 0.0179428 2.41552e-21)
(1.14475 0.0450249 1.106e-24)
(1.20728 0.0768643 0)
(1.29226 0.102236 6.93088e-21)
(1.39895 0.0998298 -1.16995e-23)
(1.50165 0.0656143 0)
(1.49807 0.00624737 -1.37339e-22)
(1.22851 -0.0647563 -4.31311e-20)
(0.742585 -0.0968648 6.19211e-20)
(0.3349 -0.0642725 -9.63049e-20)
(0.156957 -0.0294846 3.38705e-20)
(0.157771 -0.035254 -1.32492e-22)
(0.0620085 -0.013254 -6.9401e-21)
(0.0898714 -0.0207107 -1.03052e-20)
(0.0897494 -0.0227009 1.01326e-20)
(0.043511 -0.0101508 -1.35879e-22)
(0.0413631 -0.0093114 0)
(0.0250982 -0.003379 3.90738e-21)
(0.0120286 -0.00409428 -8.63487e-21)
(0.0305209 -0.00754681 -4.51832e-22)
(0.0302978 -0.00756702 -4.41727e-22)
(0.0936521 -0.025225 -6.10631e-22)
(0.15695 -0.0397833 5.74689e-22)
(0.156426 -0.0392696 0)
(0.247208 -0.06307 3.36935e-24)
(0.413581 -0.108068 -9.80817e-22)
(0.244653 -0.0621821 -1.64625e-21)
(0.155586 -0.0390489 5.57865e-22)
(0.154927 -0.03879 5.53651e-22)
(0.093805 -0.0241339 -1.01575e-21)
(0.607665 -0.16427 0)
(0.769307 -0.212807 0)
(0.895392 -0.253576 0)
(0.981833 -0.283231 8.09786e-24)
(1.02834 -0.300976 -1.93001e-21)
(1.03714 -0.307341 0)
(1.01052 -0.303038 0)
(0.950016 -0.288504 0)
(0.857294 -0.26402 0)
(0.735572 -0.230125 0)
(0.590344 -0.187934 5.82295e-21)
(0.428865 -0.139145 -1.40691e-24)
(0.258711 -0.0856333 -3.26343e-21)
(0.0861476 -0.0290258 2.82984e-21)
(1.00013 -0.00748484 4.44966e-24)
(1.00459 -0.0188701 8.44553e-24)
(1.01544 -0.024987 4.00121e-24)
(1.03376 -0.0247756 -3.38764e-24)
(1.06 -0.0171371 9.3035e-21)
(1.09468 -0.00157638 -5.06989e-21)
(1.13899 0.0208782 0)
(1.1956 0.0475339 0)
(1.2688 0.0702514 -5.55351e-21)
(1.35719 0.0733037 0)
(1.45022 0.0511548 -1.23791e-20)
(1.51424 0.010154 0)
(1.43952 -0.0467973 3.84035e-20)
(1.12157 -0.0972651 -8.75285e-23)
(0.674169 -0.101502 6.16508e-20)
(0.320128 -0.0628633 -3.69817e-20)
(0.161452 -0.0319065 -7.20771e-22)
(0.157543 -0.0350801 6.32534e-20)
(0.0583619 -0.0133414 -2.93546e-20)
(0.05692 -0.0135777 7.16732e-21)
(0.0112543 -0.00240198 6.53121e-21)
(0.0450239 -0.0113445 -1.6422e-22)
(0.0113935 -0.00353643 0)
(0.0447627 -0.0116015 -8.5644e-21)
(0.010663 -0.00303097 -6.11738e-21)
(0.0107807 -0.00306517 -6.05034e-21)
(0.00642273 -0.000864948 4.65891e-21)
(0.0305807 -0.00794398 4.27622e-22)
(0.0921612 -0.0231731 1.97443e-24)
(0.0915864 -0.0227886 -5.04884e-22)
(0.153992 -0.0387122 5.40191e-22)
(0.153328 -0.0384986 5.29391e-22)
(0.241492 -0.0616019 0)
(0.400069 -0.104415 -1.02412e-21)
(0.238423 -0.0605254 1.52572e-21)
(0.152409 -0.0383401 5.03277e-25)
(0.151671 -0.0380492 -5.04033e-25)
(0.0911468 -0.0226404 -9.90303e-22)
(0.0907607 -0.0225174 -4.93736e-22)
(0.0305502 -0.00768021 3.7681e-22)
(0.588287 -0.157595 0)
(0.752763 -0.207656 0)
(0.88266 -0.249325 8.61039e-24)
(0.972104 -0.279694 1.98272e-21)
(1.02087 -0.298178 0)
(1.0312 -0.305161 3.05949e-24)
(1.0054 -0.301267 0)
(0.945207 -0.286951 1.43569e-21)
(0.852606 -0.262575 -1.3841e-21)
(0.731098 -0.228771 -2.63711e-21)
(0.586366 -0.186723 2.73561e-21)
(0.425713 -0.138165 2.69627e-21)
(0.256687 -0.084984 -2.84593e-21)
(0.0854291 -0.0287938 -2.36258e-24)
(1.00007 -0.00841785 0)