/*--------------------------------*- C++ -*----------------------------------*\
| =========                 |                                                 |
| \\      /  F ield         | OpenFOAM: The Open Source CFD Toolbox           |
|  \\    /   O peration     | Version:  v1912                                 |
|   \\  /    A nd           | Website:  www.openfoam.com                      |
|    \\/     M anipulation  |                                                 |
\*---------------------------------------------------------------------------*/
FoamFile
{
    version     2.0;
    format      ascii;
    class       surfaceScalarField;
    location    "410";
    object      phi;
}
// * * * * * * * * * * * * * * * * * * * * * * * * * * * * * * * * * * * * * //

dimensions      [0 3 -1 0 0 0 0];
oriented        oriented;


internalField   nonuniform List<scalar> 
7354
(
-3.48654e-05
0.00993345
-0.000160104
0.0100949
0.000763477
0.00916974
-0.000365101
0.0102383
0.00121008
0.00964829
0.00285582
0.00313585
0.00317767
-0.000600757
0.0102814
0.00133998
0.0101084
0.00465827
0.00358563
0.00426019
0.00195358
0.000584804
0.000597597
0.00395887
0.000604914
0.000567462
-0.000865694
0.0102955
0.00133446
0.0102869
0.00536081
0.00460178
0.00480411
0.00558182
0.00122978
0.000732917
0.00639755
0.00177697
0.00166748
-0.000597917
0.00118272
-0.00175018
0.0023551
-0.0011656
0.0103131
0.0011989
0.0104311
0.00533269
0.010315
0.00708889
0.00203473
0.00187572
0.00713846
0.00475453
-0.00308801
0.0043178
-0.00431816
0.00473615
0.00135897
0.00166712
-0.0014981
0.0103347
0.000932291
0.0105797
0.00479729
0.0109665
-0.00980934
0.0160624
0.00532328
0.00587714
-0.00515782
0.00525361
0.00193894
0.00145405
-0.00425827
0.00231186
0.0021452
-0.00166712
0.00302609
-0.00185664
0.010356
0.000548783
0.0107182
0.00403425
0.0113427
0.0139566
0.0130723
0.00599126
-0.00313411
0.00418962
-0.00172348
0.0062159
0.0056525
-0.00448014
0.00216081
-0.00265099
0.00182874
-0.00216081
0.00165502
-0.00223507
0.0103753
7.21298e-05
0.0108327
0.00319958
0.0115529
0.0114228
0.0138766
-0.00318972
0.00988556
0.0125923
0.00218555
0.00292044
-0.000371047
-0.000545317
-0.00112901
0.00123427
0.00464833
0.000526006
-0.00262925
0.0103925
-0.000473021
0.0109205
0.00233918
0.0116931
0.00897449
0.0140012
0.00896484
0.0147973
-0.0016148
0.00447987
0.0110251
-0.00129785
0.000861616
-0.000110823
0.00224334
-7.36973e-05
-0.000931661
0.000668608
-0.000107993
-0.000242704
0.00389515
0.000283302
-0.0030341
0.0104055
-0.00106558
0.010985
0.00146065
0.011799
0.00676876
0.0138988
0.00746061
0.0155054
0.00474808
0.0145291
0.00162991
0.00989271
-9.67857e-05
-0.00040073
-0.000637644
0.00323495
0.000576835
-1.90502e-05
0.00177544
-8.14796e-05
-8.82607e-05
0.00051602
-1.28817e-05
0.000175309
-0.00344827
0.0104172
-0.00169109
0.011031
0.00056672
0.011879
0.00481649
0.0137513
0.00582205
0.0155374
0.00420235
0.0160511
0.00225888
0.0139001
0.000305823
0.00919036
0.000239471
0.000157059
-0.00299494
0.00290663
-8.48323e-06
-0.000160724
0.000156259
0.00164393
-2.2842e-05
-6.37386e-06
-0.00044798
0.000389111
-2.2611e-05
-2.02204e-05
0.000143377
-0.0038704
0.0104271
-0.00233951
0.0110656
-0.000338979
0.0119367
0.00307284
0.0136226
0.00421968
0.0153537
0.00329343
0.0164463
0.0022284
0.0160816
0.000962994
0.013243
-2.14684e-05
0.00886406
0.000113961
0.000233813
-0.00288305
0.00287086
0.000251666
0.000180643
0.00163671
4.01914e-06
-5.28206e-06
0.000368159
-1.89026e-06
0.000362816
-1.03144e-06
-0.000123157
0.000100546
-0.00429719
0.0104338
-0.00300463
0.0110922
-0.00125193
0.0119786
0.00148555
0.013524
0.00269555
0.0151467
0.00226563
0.0163815
0.00176275
0.016912
0.00117739
0.0158672
0.000425488
0.012796
7.46092e-05
0.00876506
-2.71776e-05
5.15657e-05
-0.00286929
0.00288302
0.000100232
0.000235386
-0.00171833
0.00175087
0.000113404
0.000105724
2.91087e-05
6.9913e-05
-0.000357927
0.00036252
-5.7387e-07
-3.9358e-07
9.86555e-05
9.7624e-05
-0.00473084
0.0104416
-0.00368642
0.0111156
-0.00216983
0.0120102
1.05883e-05
0.0134535
0.00124492
0.0149746
0.00121622
0.0161962
0.0010919
0.0170523
0.000979356
0.01711
0.000653109
0.0156396
0.000299817
0.0125708
9.35239e-05
-6.40679e-05
0.0087356
-0.00289313
0.00272579
0.000140166
4.14473e-05
-0.00180171
0.0018582
8.45545e-06
3.5285e-05
0.000124825
5.97233e-05
-0.000455495
0.000483284
8.56147e-05
-0.000420527
7.07571e-05
0.000380889
1.07392e-05
3.02752e-05
-9.72304e-05
9.66565e-05
-0.00516694
0.0104471
-0.00437946
0.0111347
-0.00309166
0.0120374
-0.00138659
0.0134073
-0.000149062
0.0148475
0.000172506
0.0160183
0.000347612
0.0169404
0.000540811
0.0174909
0.00057277
0.0171903
0.000455204
0.0154842
0.000247461
0.0124169
-0.0020513
0.00474943
-1.05462e-05
-2.58628e-05
-5.83948e-06
0.000135507
0.00860592
-0.00189402
-1.21683e-05
-4.9386e-06
7.61532e-06
-1.99295e-06
-0.000570725
0.000575798
3.38173e-06
-0.000550624
1.51851e-05
0.000526486
8.16239e-05
3.55845e-05
-0.000208428
0.000237513
5.65295e-05
-0.000137671
0.000107396
-0.00560759
0.0104536
-0.00508751
0.0111552
-0.00402022
0.0120633
-0.00273908
0.0133899
-0.00150644
0.0147647
-0.000862692
0.0158827
-0.000418513
0.0167844
-7.84402e-06
0.0174891
0.00026662
0.017797
0.000406177
0.0172394
0.000373523
0.0153582
0.000181742
0.0122293
0.00476364
0.000108917
1.2379e-05
-0.000878074
0.000869893
-1.4678e-06
-8.97127e-07
-0.000530509
-2.45613e-07
-1.19196e-06
-0.00037199
-3.81052e-05
0.000253658
0.00839037
-0.000575201
3.25233e-05
-0.000579987
-1.52285e-07
0.000581496
1.91773e-06
-4.84404e-07
-0.000330839
0.000334216
5.41642e-09
-0.000318028
2.37343e-06
0.000291075
2.80625e-05
8.63186e-06
5.65295e-05
-0.0060543
0.0104607
-0.00580867
0.0111748
-0.00495226
0.0120872
-0.00407685
0.013401
-0.00284354
0.014727
-0.00189368
0.0157957
-0.0011882
0.0166524
-0.000595111
0.0173717
-0.000153915
0.0179096
0.000172424
0.0180308
0.000351532
0.0172613
0.000324425
0.0152155
0.000176403
0.0120148
0.0046663
0.000168845
0.000182152
-0.000882302
0.000963542
2.25791e-05
5.09788e-06
1.18224e-06
-1.2129e-06
-8.92983e-05
8.78305e-05
-9.01954e-05
-9.0441e-05
-9.1633e-05
-0.000336377
-3.08952e-06
4.77238e-05
4.94464e-05
0.0082932
-0.000335809
-7.20442e-07
0.000335862
2.7167e-07
-4.31407e-07
-9.55973e-05
9.56027e-05
-9.32238e-05
8.4592e-05
-0.00650606
0.0104667
-0.00654063
0.0111927
-0.00589222
0.0121148
-0.00543611
0.0134465
-0.00418043
0.0147379
-0.00292288
0.0157562
-0.00195685
0.0165644
-0.00119346
0.0172507
-0.000621573
0.0178394
-0.000174841
0.0182569
0.000164286
0.018218
0.000329734
0.017256
0.00031908
0.0150728
0.000191902
0.0118706
0.00468516
-1.96764e-05
5.0262e-05
-0.00101642
0.00108587
2.56356e-05
7.37626e-05
7.11173e-05
5.81561e-05
-9.28977e-05
0.000115477
-8.77998e-05
-8.66176e-05
-9.47225e-05
0.000122777
-7.22178e-05
0.00824264
-9.5443e-05
9.58744e-05
-0.00696608
0.010476
-0.00728606
0.0112122
-0.00684431
0.0121448
-0.00684549
0.0135241
-0.00553355
0.0147996
-0.00395577
0.0157708
-0.00272426
0.0165236
-0.00179258
0.0171635
-0.00110445
0.0177336
-0.000569217
0.0182337
-0.000131615
0.0185528
0.000180965
0.0183668
0.000331178
0.0172439
0.000301487
0.0149632
0.000206482
0.0117869
0.00465984
-2.91489e-05
-1.77465e-05
-0.00112779
0.00111926
-7.55644e-06
-3.58867e-06
-1.34057e-06
9.68122e-06
-0.000248187
0.000266733
7.0894e-06
-0.000198162
2.37379e-05
-0.000173633
4.65879e-05
0.000108594
-6.4183e-05
0.00819822
-0.00743342
0.0104843
-0.00803695
0.0112269
-0.00781137
0.0121792
-0.00834054
0.0136398
-0.00691863
0.0149092
-0.00499187
0.0158357
-0.00348761
0.0165341
-0.0023898
0.0171208
-0.00158842
0.0176475
-0.00097935
0.0181437
-0.000481454
0.0185836
-8.02795e-05
0.018814
0.000200112
0.0184978
0.000307729
0.0172377
0.000274712
0.014895
0.000175718
0.0117198
0.00463093
-1.54968e-05
-1.97785e-05
-0.00110748
0.00108864
-5.93468e-06
-4.38102e-06
-3.15102e-06
-2.81641e-06
-0.000272219
0.000266748
-2.08543e-06
-0.000274215
-1.59299e-06
-0.0002748
-7.55357e-07
1.61354e-06
-7.03258e-05
7.74151e-05
-4.65879e-05
2.36236e-06
4.95498e-05
0.00814631
-0.00790801
0.0104936
-0.00878841
0.0112358
-0.00880471
0.0122203
-0.00996677
0.0138055
-0.00836088
0.0150821
-0.00603931
0.0159566
-0.00425108
0.0165992
-0.00298212
0.0171265
-0.00206736
0.0175998
-0.00138974
0.0180578
-0.000848285
0.0185106
-0.000399303
0.0189026
-3.91834e-05
0.0190533
0.000189661
0.0186159
0.00026746
0.0172449
0.00022846
0.0148422
8.90069e-05
0.0116331
0.0046541
3.25787e-05
-6.20536e-06
-0.00107311
0.00106509
-4.0306e-06
-3.44684e-06
-1.77294e-06
-2.46931e-06
-0.000258743
0.000254516
-1.70794e-06
-0.000261746
-1.37799e-06
-0.000264089
-8.0839e-07
-1.57058e-07
-7.66803e-05
7.45949e-05
-7.82733e-05
-7.90287e-05
-0.000105906
0.000216917
0.00803529
-0.00838885
0.0105008
-0.00953114
0.0112363
-0.00984082
0.0122719
-0.0117784
0.0140319
-0.00987972
0.0153243
-0.0071019
0.0161447
-0.00501508
0.0167206
-0.00357062
0.0171877
-0.00254534
0.0176045
-0.00179891
0.0180089
-0.00121663
0.0184262
-0.000739101
0.0188504
-0.000340474
0.0192039
-3.37821e-05
0.0192768
0.000153352
0.01873
0.00021628
0.0172571
0.00015404
0.0147772
1.19745e-05
0.0115152
0.00462194
0.000154989
9.40922e-05
-0.00106091
0.00109011
4.59174e-06
-1.21063e-06
9.11873e-08
-2.12206e-06
-0.000248291
0.000245588
-1.32704e-06
-0.000250655
-1.08346e-06
-0.00025195
-4.77909e-07
9.73795e-08
-7.22514e-05
7.05435e-05
-7.36294e-05
-7.44378e-05
-0.00011726
0.000205526
0.00794703
-0.00886832
0.0105035
-0.010253
0.0112227
-0.0109521
0.0123477
-0.0138443
0.0143379
-0.0114986
0.0156507
-0.00818632
0.0164087
-0.00578123
0.0169108
-0.00415585
0.0173059
-0.0030183
0.0176606
-0.00220182
0.0180074
-0.00158416
0.0183765
-0.00108653
0.0187736
-0.000668156
0.0191781
-0.000320193
0.0194903
-5.6829e-05
0.019487
0.00010479
0.0188415
0.00014713
0.017264
8.78467e-05
0.0147013
-1.98046e-05
0.0114178
0.00460507
6.06887e-05
0.000161708
-0.00112939
0.00115363
7.01513e-05
6.05968e-05
3.92795e-05
1.55275e-05
-0.00024309
0.000247442
2.39391e-07
-0.000243624
-6.7696e-07
-0.000243293
-2.39577e-07
1.72797e-07
-6.90795e-05
6.77525e-05
-7.0163e-05
-7.06409e-05
-3.59996e-05
4.80217e-05
0.00793501
-0.00934181
0.0105045
-0.0109483
0.0111987
-0.012182
0.0124526
-0.0162323
0.0147357
-0.0132251
0.0160643
-0.0092891
0.0167535
-0.00654458
0.0171721
-0.00473374
0.0174887
-0.00348538
0.017773
-0.00260217
0.018061
-0.00194816
0.0183714
-0.00143058
0.0187205
-0.00100164
0.0191071
-0.000636087
0.019494
-0.000332389
0.0197658
-9.73611e-05
0.0196891
4.49828e-05
0.0189437
8.36569e-05
0.0172682
3.84364e-05
0.0146431
-1.66179e-06
0.0113835
0.00464164
-1.47167e-05
2.61675e-05
-0.00119524
0.00122815
4.33657e-06
2.3449e-05
4.1037e-05
7.90621e-05
-0.000297397
0.000313572
5.39757e-05
-0.000278187
4.13873e-05
-0.000256878
1.79701e-05
6.09141e-06
-6.70087e-05
6.72481e-05
-6.76857e-05
-6.79253e-05
2.12859e-05
-2.6521e-05
0.00794025
-0.0098033
0.0105045
-0.0116112
0.0111674
-0.0135721
0.0125889
-0.0189872
0.0152074
-0.0150158
0.0165264
-0.0103632
0.0171384
-0.00727548
0.0174844
-0.0052906
0.0177289
-0.00394096
0.0179443
-0.00299825
0.018169
-0.00231033
0.0184232
-0.00177482
0.0187156
-0.0013372
0.0190561
-0.000963698
0.0194347
-0.00064015
0.0198017
-0.000362761
0.0200312
-0.000148889
0.019883
-1.61869e-05
0.0190435
2.4232e-05
0.0172824
1.40127e-05
0.0146274
1.65566e-05
0.0113882
0.00464435
-2.13632e-05
-7.86675e-06
-0.00124893
0.00124472
-7.27804e-06
-3.23096e-06
-9.64772e-07
6.34624e-06
-0.000371736
0.000374277
1.79528e-06
-0.00035773
9.44281e-06
-0.000340744
2.40514e-05
5.18902e-05
-0.000132697
0.000151338
3.53345e-05
-9.13096e-05
-7.33395e-05
2.36856e-05
-3.53862e-05
0.00795194
-0.0102506
0.0105073
-0.0122325
0.0111258
-0.0151239
0.0127191
-0.0220617
0.0156634
-0.0167202
0.0169118
-0.0112852
0.0174485
-0.00789105
0.017754
-0.00577444
0.0179682
-0.00435964
0.0181476
-0.00337939
0.0183254
-0.00266701
0.0185257
-0.00211754
0.0187659
-0.00167097
0.0190494
-0.00129174
0.0193841
-0.000960742
0.0197553
-0.000665865
0.0201048
-0.000410074
0.0202924
-0.000207593
0.0200744
-8.21675e-05
0.0191499
-2.75777e-05
0.017324
-5.33733e-06
0.0146493
9.83105e-07
0.0114109
0.00463883
-1.68731e-05
-1.29929e-05
-0.00123985
0.00122929
-8.97682e-06
-1.83441e-06
-1.69539e-06
-1.29186e-06
-0.00037694
0.000373372
-3.70903e-06
-0.000377591
-2.58034e-06
-0.000378031
-5.24918e-07
2.59223e-06
-0.000211652
0.000213808
-3.61015e-07
-0.000203663
1.45386e-06
-0.000185567
5.95533e-06
1.7661e-05
3.53345e-05
-2.46212e-05
-4.70178e-07
0.00797703
-0.0106878
0.0105053
-0.0127969
0.0110717
-0.0167443
0.0127463
-0.0252519
0.0159094
-0.0180213
0.0169645
-0.0118066
0.0174332
-0.00821981
0.0177772
-0.00607783
0.0180574
-0.00467452
0.0182831
-0.00370716
0.0184754
-0.00299961
0.018658
-0.0024507
0.0188589
-0.00200266
0.0190976
-0.00162184
0.0193795
-0.00128901
0.0197124
-0.000985761
0.0200752
-0.000708167
0.0204029
-0.000464365
0.0205492
-0.000272334
0.0202646
-0.000146383
0.0192687
-7.34424e-05
0.0173921
-4.36817e-05
0.014694
-5.52359e-05
0.0114415
0.00465453
-3.7566e-06
-1.24135e-05
-0.00122598
0.00121832
-9.21808e-06
-9.67618e-06
-0.000367875
0.000338994
1.99037e-05
-0.000370708
9.98944e-07
-0.000371885
-5.17956e-07
1.94832e-07
-0.000213725
0.000211276
-1.26063e-06
-0.000215563
-7.42209e-07
-0.00021583
-2.57696e-07
5.70231e-07
-6.04047e-05
6.00437e-05
-5.89509e-05
-5.29955e-05
-0.000118886
8.86341e-05
0.00800728
-0.0110957
0.0104498
-0.0132597
0.010968
-0.0181788
0.0125063
-0.0281605
0.0156548
-0.0183687
0.0162568
-0.0115263
0.0166842
-0.00799059
0.017204
-0.00601766
0.0177171
-0.00476891
0.0181518
-0.00390989
0.0184858
-0.00326792
0.0187437
-0.00275428
0.0189616
-0.00232225
0.0191785
-0.00194847
0.0194242
-0.00161617
0.0197066
-0.00131156
0.0200382
-0.00102776
0.0203948
-0.000764232
0.0207028
-0.000530256
0.0208071
-0.000342622
0.0204608
-0.000207486
0.0194027
-0.000127811
0.0174763
-0.00010298
0.0147417
-0.000139729
0.0114623
0.00470946
3.22179e-05
1.48396e-06
-0.00120964
0.00121096
-5.07962e-06
-3.73526e-06
-0.000562407
0.000554491
-6.95969e-07
-6.06653e-07
-0.000233458
2.19e-07
1.49989e-07
-0.00021161
-1.94347e-06
-0.000210787
1.75688e-07
-0.000211168
-1.36389e-07
3.03142e-07
-5.9614e-05
5.83534e-05
-6.03562e-05
-6.06139e-05
-0.000227115
0.000234328
0.00800007
-0.0113958
0.0102572
-0.0136103
0.0108004
-0.0190991
0.0118883
-0.0300166
0.0143624
-0.0169259
0.0142121
-0.00995676
0.0146873
-0.00689432
0.0155879
-0.00538547
0.0165718
-0.00449241
0.0174406
-0.00387628
0.0181182
-0.00339233
0.0186103
-0.00297551
0.0189649
-0.00260036
0.0192398
-0.00225786
0.0194879
-0.00193824
0.0197463
-0.00163867
0.0200338
-0.00135459
0.020365
-0.0010821
0.0207127
-0.000826906
0.0209994
-0.000599215
0.0210637
-0.000411395
0.0206647
-0.000271755
0.0195467
-0.000191372
0.0175647
-0.000178661
0.0147806
-0.000220182
0.0114554
0.00474193
0.000135409
6.64468e-05
-0.00121088
0.00123474
8.36036e-06
1.56905e-06
-0.00055094
0.000546958
-5.47261e-07
-5.51222e-07
-1.33244e-07
-5.194e-08
-5.65147e-05
5.58187e-05
-5.71214e-05
5.69714e-05
-5.67524e-05
-5.86958e-05
-5.85201e-05
-5.86565e-05
-0.000257355
0.000277549
0.00797988
-0.0115548
0.010019
-0.0136092
0.00520841
0.00504765
-0.00878005
0.0056868
0.00534502
-0.0105505
-0.0154008
0.00629255
-0.0142776
0.00525755
-0.00849801
0.0102854
-0.00435098
-0.00678676
0.0110421
-0.00479364
0.0125866
-0.00406942
0.0142718
-0.00372719
0.0158065
-0.00349527
0.0170596
-0.00327863
0.0180045
-0.00304315
0.0186779
-0.00278743
0.019152
-0.00251811
0.0195
-0.00223905
0.0197887
-0.00195952
0.0200671
-0.00168252
0.0203617
-0.00141048
0.0206934
-0.00114682
0.0210326
-0.00089764
0.0212979
-0.000671659
0.021324
-0.000478785
0.0208718
-0.000337391
0.0196927
-0.000261034
0.017647
-0.0002442
0.0148047
-0.000248365
0.0114464
0.00474374
0.000119365
0.000156377
-0.00126112
0.00129462
0.000101917
4.00593e-05
-0.000548538
0.000557554
-1.2231e-07
-5.33149e-07
-1.23529e-07
1.12962e-07
-5.50822e-05
5.45349e-05
-5.56335e-05
5.56855e-05
-0.000189385
0.000156013
0.00801325
-0.0115937
0.00985392
-0.013181
0.00492867
0.00466214
-0.00849364
0.00492201
-0.00821219
0.00476618
-0.0157845
0.00607043
-0.015645
0.00245578
0.00274974
-0.00989576
0.00426729
-0.00701147
0.00480601
-0.00782675
0.00219457
0.00258154
-0.00515652
-0.00301224
-0.00140989
0.00112586
0.00154235
-0.00143853
0.00593632
-0.000999112
-0.00123735
0.00258765
-0.000895275
-0.00208812
0.00833655
-0.00227494
0.0107921
-0.0025356
0.0130802
-0.0027406
0.0150519
-0.00285567
0.0166366
-0.00287531
0.0178366
-0.0028111
0.0187016
-0.00267316
0.0193071
-0.00247926
0.0197402
-0.00224999
0.0200791
-0.00199944
0.020384
-0.00174035
0.0206916
-0.00147754
0.0210241
-0.001219
0.0213539
-0.000969965
0.0215962
-0.000740019
0.0215852
-0.000545859
0.0210802
-0.000405038
0.0198367
-0.000320582
0.0177234
-0.000273768
0.0148301
-0.00021673
0.0114738
0.00481171
1.61152e-05
7.1931e-05
-0.00131691
0.00135317
8.31097e-05
0.000134081
-0.000592553
0.000645505
3.55847e-05
1.33809e-05
6.40571e-07
4.42004e-06
-5.39912e-05
5.38689e-05
-5.45244e-05
5.44114e-05
-0.000102608
5.1687e-05
0.00806418
-0.011618
0.0098882
-0.0123148
0.00453468
0.00445305
-0.00797711
0.0046936
-0.00743846
0.00412348
-0.00961492
0.00233179
0.00215357
-0.00655063
0.00105331
0.00170878
-0.00758914
0.00733853
-0.00777775
0.002895
0.00226152
-0.00258154
0.00176387
-0.002895
0.000353975
0.000781612
-0.000229494
0.000573741
0.00108662
0.0015798
-0.000430677
-2.1677e-05
0.00384029
2.96023e-05
0.00092952
-0.000348836
-0.000393062
0.000584407
-0.000655593
0.0067172
-0.00125254
0.00950906
-0.00175832
0.012098
-0.00215651
0.0143527
-0.0024426
0.0162039
-0.0026086
0.0176341
-0.00265865
0.0186871
-0.0026058
0.0194336
-0.00247181
0.019962
-0.00228031
0.02036
-0.00205384
0.0206975
-0.00180572
0.0210197
-0.00154777
0.0213529
-0.00129044
0.0216744
-0.00104018
0.0218963
-0.000807708
0.0218471
-0.000611284
0.0212865
-0.000459846
0.019976
-0.000354055
0.0178037
-0.000267253
0.0148806
-0.000158663
0.0115298
0.00485986
-9.15864e-06
1.27028e-05
-0.0013896
0.0013997
6.01413e-06
3.55019e-05
-0.00068536
0.000740877
5.63933e-06
2.19538e-05
5.06775e-05
4.35479e-05
-7.23104e-05
0.000107895
-5.89295e-05
5.45095e-05
-4.26675e-05
1.503e-06
0.00810535
-0.0116695
0.00999356
-0.0114376
0.00444332
0.00456765
-0.00686795
0.00396419
-0.00619351
0.0037786
-0.0092186
0.0023124
0.00198486
-0.00809522
0.00139198
0.00160813
0.00617824
-0.00589352
0.00204707
0.00178118
0.00606896
-0.00501565
-0.0067204
0.000912446
0.000124482
0.000290608
-0.00010993
0.000429929
-5.22177e-06
1.96296e-05
0.000775091
0.000132753
1.5543e-05
0.00316915
0.000685382
0.000119313
0.000160503
-5.38946e-05
-2.55153e-05
-0.000364796
0.00582947
-0.00085841
0.00860916
-0.00135465
0.0112961
-0.00181155
0.0137217
-0.00217974
0.0157751
-0.00243434
0.0174098
-0.00256153
0.0186428
-0.00257106
0.0195329
-0.00248436
0.0201661
-0.00232382
0.02063
-0.00211321
0.021005
-0.00187587
0.0213478
-0.00162186
0.0216843
-0.00136254
0.0219968
-0.0011076
0.0221962
-0.00087066
0.0221064
-0.000664296
0.0214909
-0.000497985
0.0201199
-0.000364681
0.0179011
-0.000238409
0.0149603
-0.00010845
0.0115956
0.00487642
-1.23029e-05
-2.75605e-06
-0.00140975
0.00140669
-6.09057e-06
2.65072e-06
-0.000771221
0.000779343
-2.16737e-06
5.97615e-08
5.0543e-06
1.04178e-07
-0.000174701
0.000179386
9.53686e-07
-0.000157657
4.91032e-06
0.000129231
2.93414e-05
1.51221e-05
-1.25275e-05
-1.88574e-05
0.00813674
-0.0116977
0.0100062
-0.0105673
0.00912337
-0.00553529
0.0037851
-0.0048204
0.00385275
-0.00673384
0.00131783
0.00128497
-0.00541683
0.0012159
0.00124569
-0.00579686
0.00221575
-0.0054682
0.0016562
0.00486687
-0.00422825
0.000753355
0.00100681
-0.00627198
0.00159865
-0.0041032
1.45519e-05
9.33011e-06
2.89597e-05
0.000224633
2.42233e-05
4.44005e-05
-0.000316266
2.80809e-05
0.000957241
3.18719e-05
-4.98878e-05
0.00285425
2.75857e-06
2.49225e-05
-9.35215e-06
-2.35142e-05
-2.10284e-05
-5.90802e-06
-0.000300549
0.00527161
-0.000685248
0.00793976
-0.00114526
0.0106298
-0.00160841
0.0131503
-0.00201495
0.0153557
-0.00231821
0.0171665
-0.00249887
0.0185706
-0.00255703
0.0196055
-0.00250684
0.0203491
-0.00237356
0.0208903
-0.00217972
0.0213089
-0.0019464
0.0216724
-0.00169373
0.0220155
-0.00143056
0.0223197
-0.00116937
0.0224949
-0.000925275
0.0223674
-0.000707315
0.0217002
-0.000521877
0.0202771
-0.000357042
0.0180198
-0.000204849
0.0150567
-7.90787e-05
0.0116622
0.00487812
-1.22546e-05
-8.31007e-06
-0.00140623
0.00140121
-7.27557e-06
-2.30168e-06
-0.000782379
0.000779378
-2.0059e-06
-1.08302e-06
4.41848e-07
-8.26919e-07
-0.000183933
0.000182541
-7.7584e-07
-0.000183715
-1.57507e-07
0.000183616
8.243e-07
5.43112e-09
-4.93738e-05
5.03275e-05
-4.44635e-05
2.93414e-05
-5.87108e-06
-2.33365e-05
0.00816593
-0.0117341
0.0100284
-0.00978535
0.00922418
0.00286177
-0.0049073
0.00304527
0.00330323
-0.00396466
0.00115947
0.00117346
0.00145705
0.00129281
-0.00360719
0.000696763
-0.00298881
0.000666597
0.00237474
-0.00175626
0.000597417
0.000631629
-0.00656079
0.00250456
-0.0049046
0.00389779
-0.00314443
-0.00250456
-1.03063e-05
1.10156e-05
2.38629e-05
1.02315e-05
7.21809e-05
-3.84872e-05
-1.15071e-05
2.59687e-06
3.29794e-06
1.51105e-05
0.000908632
-1.6386e-05
9.79026e-05
2.27218e-06
3.87856e-06
-7.02749e-05
0.00262398
-3.92819e-05
3.55397e-06
9.50414e-06
5.90802e-06
-2.69364e-05
-0.000271681
0.00485805
-0.000610805
0.00740531
-0.00103813
0.0100596
-0.00149269
0.0126281
-0.00190927
0.0149467
-0.00224162
0.0169092
-0.00245905
0.0184726
-0.00255339
0.0196521
-0.0025356
0.0205112
-0.00242244
0.021133
-0.0022414
0.0216039
-0.00201512
0.0219938
-0.00175856
0.0223435
-0.0014916
0.022642
-0.00122548
0.0227951
-0.000969736
0.0226298
-0.000737391
0.0219158
-0.000528404
0.0204485
-0.000341082
0.018156
-0.000181594
0.0151593
-7.13391e-05
0.0117276
0.00487716
-1.09298e-05
-1.14507e-05
-0.00139658
0.00139193
-7.60699e-06
-3.6815e-06
-0.000777504
0.000773001
-1.67223e-06
-1.09928e-06
9.78886e-08
-5.25405e-07
-0.000181311
0.000180036
-7.30207e-07
-0.000182146
-2.4751e-07
0.000182799
1.84246e-07
-1.74253e-07
-5.09997e-05
5.02239e-05
-5.11572e-05
5.11518e-05
-2.17894e-05
-1.28891e-05
0.00820062
-0.011795
0.0100619
-0.00919125
0.00943434
-0.00347276
0.00778963
0.00344538
-0.000506761
-0.00155678
0.000897331
0.000766091
0.00417104
0.00257757
-0.00115792
0.000561132
-0.000541547
0.000557083
5.2699e-06
0.000945023
0.000756527
-0.00244767
-0.00178107
0.00114944
-0.000552027
-1.59209e-05
-5.6893e-06
-5.3457e-06
-2.607e-06
-1.54059e-06
4.13749e-06
1.75736e-06
0.000107579
5.08269e-06
3.52817e-07
3.99039e-06
0.000857346
-2.29757e-05
0.000104773
-5.15282e-06
-8.42613e-06
4.02956e-06
8.40486e-06
-4.96539e-07
-8.07861e-05
0.00243309
-1.5305e-06
-0.000274281
0.00452153
-0.000587215
0.0069544
-0.000988491
0.00955535
-0.00142285
0.0121417
-0.00184005
0.0145452
-0.00218822
0.0166384
-0.00243226
0.0183515
-0.00255747
0.019674
-0.00256403
0.0206527
-0.00247146
0.0213631
-0.00230131
0.0218901
-0.00207587
0.0223111
-0.00181963
0.0226715
-0.00154556
0.022962
-0.00126866
0.0230941
-0.00100378
0.0228962
-0.000753333
0.0221407
-0.000526011
0.0206334
-0.000328082
0.0183025
-0.000175789
0.0152637
-8.62898e-05
0.0117921
0.00488431
-7.17228e-06
-1.2866e-05
-0.00138504
0.00138174
-7.63138e-06
-4.56735e-06
-0.000769834
0.000764966
-1.57107e-06
-1.16885e-06
-5.71539e-08
-4.57468e-07
-0.000178634
0.000177605
-6.42636e-07
-0.00017953
-2.03284e-07
0.000179944
1.90029e-07
-1.11257e-07
-4.99864e-05
4.92562e-05
-5.02339e-05
5.04082e-05
-6.16807e-05
2.0469e-05
0.00824183
-0.0118859
0.0100989
-0.0087754
0.00964599
-0.00291012
0.00887172
-0.00338626
0.00823036
0.00318684
0.00392973
-0.00132271
0.000710947
-0.00147704
0.00237437
-0.000710947
0.000910777
0.000654898
9.1032e-06
0.000566184
1.5305e-06
1.21671e-05
1.3209e-06
1.29986e-05
-4.78325e-07
0.00010348
5.24855e-06
3.57045e-08
-2.52304e-06
0.000805266
-2.6177e-05
0.00010413
-2.36247e-05
1.06965e-05
-2.85046e-06
8.19232e-06
-5.92151e-06
-4.96527e-07
-0.00010899
0.00226781
-0.000295813
0.00423014
-0.000589577
0.00655548
-0.000962013
0.00909451
-0.00138117
0.0116828
-0.0017937
0.0141507
-0.00215005
0.0163562
-0.00241251
0.0182065
-0.00256052
0.0196704
-0.00259065
0.0207719
-0.00251392
0.0215757
-0.0023533
0.0221675
-0.00213189
0.0226233
-0.00187176
0.0229977
-0.0015919
0.0232853
-0.00130582
0.0233961
-0.00102527
0.0231682
-0.000761174
0.0223759
-0.000520925
0.0208262
-0.000322797
0.0184495
-0.000185246
0.0153627
-0.000119864
0.0118503
0.00491146
4.02264e-06
-1.07019e-05
-0.00137377
0.00137345
-6.847e-06
-4.90042e-06
-0.000761098
0.000756235
-1.51251e-06
-1.25873e-06
-2.21376e-07
-4.7983e-07
-0.000176072
0.000175117
-6.16046e-07
-0.000177033
-2.07439e-07
0.000177381
1.66099e-07
-1.09549e-07
-4.91318e-05
4.84892e-05
-4.9335e-05
4.94463e-05
-0.0001282
9.33478e-05
0.0082767
-0.0120045
0.0101316
-0.00851142
0.00983494
-0.00276636
0.00950222
0.00734152
0.00976056
0.00185896
-0.000540366
0.00227021
-0.000401964
0.00222565
0.00356305
-0.00038893
0.000759341
0.000265968
8.24393e-07
3.4608e-07
8.84534e-06
4.59607e-06
8.39121e-06
4.90218e-07
9.97838e-05
1.82576e-06
-1.51332e-05
0.000747667
-3.62526e-05
9.49707e-05
-2.13617e-05
5.13002e-07
-1.08023e-05
-3.15814e-06
-1.78521e-06
-2.50435e-06
-8.4258e-06
-0.00014475
0.00211675
-0.000326013
0.00396657
-0.000597096
0.00619057
-0.000952868
0.00866621
-0.00135405
0.0112431
-0.00175801
0.0137586
-0.00211831
0.016062
-0.00239493
0.0180409
-0.00256085
0.0196406
-0.00260921
0.0208672
-0.00254975
0.0217722
-0.00239693
0.0224325
-0.00217803
0.0229296
-0.00191411
0.02332
-0.00162625
0.0236057
-0.00133092
0.0237018
-0.00103848
0.0234455
-0.00076135
0.0226163
-0.000517351
0.0210208
-0.000326215
0.0185905
-0.00020638
0.0154492
-0.000166482
0.0118886
0.00496009
4.00822e-05
4.64835e-06
-0.00136662
0.00137373
-3.08542e-06
-3.86929e-06
-0.000752209
0.00074813
-1.41722e-06
-1.34991e-06
-3.84668e-07
-4.89776e-07
-0.000173374
0.000172465
-6.04391e-07
-0.000174412
-2.21186e-07
0.000174765
1.29077e-07
-1.27841e-07
-4.83383e-05
4.77221e-05
-4.85457e-05
4.86553e-05
-0.000194709
0.000200171
0.00827124
-0.0121509
0.0101623
-0.00836823
0.00998844
-0.00281894
0.00988754
0.00596282
0.0108809
-0.00161726
0.00479295
0.00881053
0.00103741
0.00165846
-0.000180097
-0.000245567
-0.000141177
0.000498555
0.0029832
0.000124791
-2.20107e-06
-1.6283e-06
-1.1976e-06
-6.21571e-06
-2.12443e-06
-6.35129e-07
8.80304e-05
-8.19108e-06
-2.56119e-05
0.000691968
-6.34359e-05
7.91683e-05
-2.73882e-05
-1.54671e-05
-6.63098e-06
-5.47805e-06
4.61109e-06
-7.76916e-06
2.8259e-06
-0.000181122
0.00197186
-0.000346621
0.0037161
-0.000611278
0.00584898
-0.0009492
0.00826137
-0.00133521
0.0108203
-0.00173027
0.0133706
-0.00209008
0.0157571
-0.00237603
0.0178561
-0.00255754
0.019589
-0.00262228
0.0209398
-0.0025742
0.0219494
-0.00242976
0.0226843
-0.00221305
0.0232285
-0.0019477
0.0236414
-0.00165236
0.0239272
-0.00134509
0.0240084
-0.00104133
0.0237255
-0.000757073
0.022856
-0.000513512
0.0212081
-0.000332692
0.0187168
-0.000229007
0.0155117
-0.000197168
0.0118911
0.00497513
0.000120612
6.45241e-05
-0.00137475
0.00139939
1.54437e-05
3.63154e-06
-0.000745222
0.000744658
-1.07596e-06
-1.44469e-06
-5.60192e-07
-4.00399e-07
-0.000170531
0.000169707
-5.92904e-07
-0.000171644
-2.36535e-07
0.000171986
9.42785e-08
-1.47479e-07
-4.75019e-05
4.68974e-05
-4.77233e-05
4.78511e-05
-0.000191205
0.000220675
0.00824178
-0.0123181
0.0101852
-0.00831519
0.0101093
-0.00297431
0.0101438
0.00455921
0.0112911
0.00476071
0.0109132
-0.000940526
0.00283539
0.00751556
-0.000599873
0.000462758
-5.38822e-05
0.00126583
-1.62291e-05
-0.00037778
0.000197683
-0.000124791
0.00250543
-1.62829e-06
-9.89353e-06
-7.67223e-06
-2.85608e-06
-1.98858e-05
-7.18573e-07
-3.05271e-06
6.72362e-05
-1.36786e-05
-0.000119226
0.000630071
3.95874e-05
-3.57858e-05
-2.88325e-05
-9.64515e-06
-8.79567e-06
1.06699e-05
-1.49159e-05
-2.38453e-06
-2.48004e-06
-0.000196542
0.00182178
-0.000372232
0.00347705
-0.000623444
0.00552323
-0.000948135
0.00787429
-0.00131947
0.0104095
-0.00170325
0.0129837
-0.00206207
0.0154432
-0.00235168
0.0176503
-0.00254524
0.0195119
-0.00262423
0.0209898
-0.00258861
0.0221083
-0.00245358
0.0229248
-0.00223915
0.02352
-0.00196959
0.0239586
-0.00166714
0.0242492
-0.0013498
0.0243168
-0.00103697
0.0240054
-0.00074894
0.0230914
-0.000508762
0.0213842
-0.000334773
0.0188226
-0.000232327
0.0155469
-0.000175645
0.0118755
0.00495723
0.000104114
0.000134458
-0.00141694
0.00144074
9.68132e-05
4.69793e-05
-0.000748582
0.000763505
1.54035e-06
-1.01599e-06
-6.31378e-07
3.40582e-07
-0.000167656
0.000167138
-5.57338e-07
-0.00016885
-2.50161e-07
0.000169091
5.57608e-08
-1.5986e-07
-4.66077e-05
4.60149e-05
-4.68442e-05
4.69917e-05
-9.88969e-05
0.000102702
0.00823797
-0.0125024
0.0102022
-0.00832316
0.0101932
-0.00318216
0.0103172
0.00329632
0.0114067
0.00421216
0.0118397
0.00340194
0.0103466
0.00161464
0.00641749
-0.000227756
-0.000288811
-0.000242324
0.00214789
0.000143801
0.00104377
-8.61155e-06
-1.16567e-05
0.000127572
-2.85606e-06
-1.58832e-05
2.49178e-07
-1.67548e-05
-2.18069e-06
-3.18912e-05
-4.39439e-06
-6.22436e-06
3.71326e-05
-1.30249e-05
-7.78382e-05
-2.59086e-05
-0.000112775
0.000546304
-3.05433e-05
1.94145e-05
-2.25218e-05
-6.53746e-06
-6.1356e-06
5.3361e-06
-7.72059e-06
-0.000221878
0.00167143
-0.000389385
0.003243
-0.000635714
0.00521081
-0.000945546
0.00750037
-0.00130233
0.0100086
-0.00167677
0.0125985
-0.00202939
0.0151209
-0.00232357
0.0174286
-0.00252648
0.0194142
-0.00261783
0.021019
-0.00259426
0.022249
-0.00246557
0.0231512
-0.0022524
0.0238028
-0.00197961
0.0242711
-0.00166962
0.024569
-0.0013445
0.0246244
-0.00102605
0.0242825
-0.000735174
0.0233179
-0.000494093
0.0215435
-0.000317218
0.0189074
-0.000196419
0.0155676
-9.48838e-05
0.0118715
0.00498174
1.22018e-05
6.59922e-05
-0.00145338
0.00147384
8.36599e-05
0.000121816
-0.000794169
0.000825898
4.22537e-05
2.28315e-05
3.54295e-06
1.27721e-05
-0.000166059
0.000167784
-1.84337e-07
-0.000166901
-1.72409e-07
0.000166468
3.94283e-08
-9.23045e-08
-4.56606e-05
4.51034e-05
-4.59108e-05
4.60706e-05
2.10111e-05
-1.80889e-05
0.00823505
-0.0126954
0.010211
-0.00836367
0.0102428
-0.00340972
0.0104207
0.00221628
0.0113972
0.00348506
0.0121338
0.00335739
0.0118843
0.00242502
0.00953625
0.00115521
0.00584048
-0.000304291
-0.000273898