/*--------------------------------*- C++ -*----------------------------------*\
| =========                 |                                                 |
| \\      /  F ield         | OpenFOAM: The Open Source CFD Toolbox           |
|  \\    /   O peration     | Version:  v1912                                 |
|   \\  /    A nd           | Website:  www.openfoam.com                      |
|    \\/     M anipulation  |                                                 |
\*---------------------------------------------------------------------------*/
FoamFile
{
    version     2.0;
    format      ascii;
    class       volScalarField;
    location    "230";
    object      p;
}
// * * * * * * * * * * * * * * * * * * * * * * * * * * * * * * * * * * * * * //

dimensions      [0 2 -2 0 0 0 0];


internalField   nonuniform List<scalar> 
3675
(
0.00186607
0.00211722
0.00168966
0.0019345
0.00153634
0.00217892
0.00177148
0.0013911
0.00239207
0.00200878
0.00162064
0.00125787
0.0025813
0.00221932
0.00185018
0.0014812
0.00113768
0.0027358
0.00240941
0.00205497
0.00170975
0.00135671
0.00102199
0.00284398
0.00256477
0.00224382
0.00191307
0.00157764
0.00123562
0.000917076
0.00289098
0.00267447
0.00240231
0.00209487
0.00177205
0.00144973
0.00112583
0.000820749
0.00286984
0.00272738
0.00251788
0.00225056
0.00195272
0.00164292
0.00133725
0.00102628
0.000729143
0.00278245
0.00271821
0.00258411
0.00237247
0.00210766
0.0018201
0.00152596
0.00123144
0.00092811
0.00064924
0.00263883
0.00263941
0.00259449
0.00244842
0.00222476
0.00196984
0.00169665
0.00141507
0.00113182
0.000844353
0.000573524
0.00245937
0.00249197
0.00254611
0.00247642
0.00230177
0.00208526
0.00184206
0.0015834
0.00131302
0.00104173
0.000764505
0.000505543
0.00229725
0.00226694
0.0024443
0.00246271
0.00233488
0.00215569
0.00195022
0.00172139
0.00147348
0.00121443
0.000958969
0.000691513
0.000437972
0.00222479
0.00196961
0.00228667
0.00241386
0.00232325
0.00217745
0.00201444
0.00182365
0.0016098
0.00137444
0.00113235
0.000881369
0.000622766
0.00038171
0.00224716
0.00169799
0.00198961
0.00203564
0.00234693
0.00227271
0.00215245
0.00202953
0.00188299
0.00171164
0.00150701
0.00128486
0.00104621
0.000807679
0.000562262
0.000330467
0.00226093
0.00212927
0.001869
0.0017072
0.00139865
0.00200406
0.00225779
0.00218915
0.00207851
0.00199329
0.00189306
0.00176572
0.0015994
0.00140811
0.00119501
0.000971384
0.000743148
0.000505667
0.000286552
0.00218897
0.00207767
0.00194877
0.00191551
0.00141262
0.0020935
0.00185679
0.0013318
0.00183351
0.0019825
0.00208376
0.00196033
0.00191067
0.0018535
0.00177045
0.00164927
0.00149792
0.00131771
0.00111734
0.000902672
0.000684518
0.000458854
0.000248031
0.00205428
0.00217776
0.00199841
0.00190886
0.00194405
0.00175412
0.000959336
0.00188981
0.00191858
0.00183709
0.00182044
0.00115195
0.00183213
0.00180823
0.001882
0.00181209
0.00178886
0.00177035
0.00172629
0.00165148
0.00154409
0.00140435
0.00123426
0.00104252
0.000841259
0.000632627
0.000416349
0.00021567
0.0020176
0.00210956
0.00193392
0.00187668
0.00182793
0.00184439
0.000313782
0.00145143
0.00184371
0.00166574
0.0016473
0.00165528
0.00167118
0.00184715
0.00176891
0.00255596
0.0020439
0.00174705
0.00182183
0.00163366
0.00164896
0.00163904
0.00160552
0.00154157
0.00144628
0.00131461
0.00115639
0.00097734
0.000779654
0.000587051
0.000380476
0.000190772
0.00198734
0.0020565
0.00171305
0.00174132
-0.000998419
0.00288473
0.00166997
0.00166934
0.00156196
0.00150174
0.00146874
0.00147804
0.00151828
0.00155877
0.0015417
0.0017738
0.00207788
0.00228508
0.00169859
0.0014978
0.00151629
0.00151507
0.00149123
0.00144117
0.00135291
0.00123175
0.00108172
0.000909874
0.000734809
0.000547174
0.000351952
0.000170575
-0.00350557
0.00161611
0.00156954
0.00148424
0.0014846
0.00142627
0.0013565
0.00133119
0.00131868
0.00136818
0.0014339
0.00143927
0.00149433
0.00151838
0.00136696
0.0013886
0.0014012
0.00139069
0.00134577
0.00126647
0.0011532
0.00101272
0.000860393
0.000688661
0.000513602
0.000327897
0.000158815
0.00144674
0.00143751
0.00136738
0.00134836
0.00127618
0.00121911
0.00119913
0.00117867
0.00121686
0.0012824
0.00130487
0.00137935
0.00141436
0.00124203
0.00127964
0.00129981
0.00129437
0.00125658
0.00118366
0.00107957
0.000955067
0.000809262
0.000653558
0.000489466
0.000313921
0.000148936
0.00132917
0.00130776
0.0012229
0.00119539
0.00113685
0.0010872
0.00107768
0.00104637
0.00107984
0.00113049
0.00115855
0.00123008
0.0012772
0.00113435
0.00117547
0.00120148
0.001204
0.00117064
0.00110423
0.00101242
0.000898879
0.000769681
0.000622724
0.00046937
0.000302201
0.00015167
0.00118225
0.00115527
0.00107965
0.00105099
0.00100221
0.000968918
0.000970293
0.000923512
0.000950265
0.000991851
0.0010188
0.00107896
0.0011268
0.00102671
0.00107935
0.00111239
0.00111443
0.00108718
0.00102963
0.000948124
0.000849528
0.000730341
0.000598274
0.000455058
0.000297546
0.000156646
0.00103576
0.001013
0.000945272
0.000918069
0.000880825
0.000857646
0.000864653
0.000816664
0.000832191
0.000863137
0.000889424
0.000940375
0.000982344
0.000932926
0.000990079
0.00102374
0.00103395
0.00100836
0.000958061
0.000890797
0.000806663
0.000705691
0.000583042
0.000447074
0.000302954
0.000171483
0.000900624
0.000880313
0.000823245
0.000795515
0.00076832
0.000752809
0.000771055
0.000713617
0.000724107
0.000745354
0.000774034
0.000812365
0.000852431
0.00084132
0.000902986
0.000944417
0.000948961
0.000927978
0.000891388
0.000842374
0.000775127
0.000683851
0.000572356
0.000448405
0.000312749
0.000182268
0.000777266
0.000758391
0.000709694
0.000683604
0.00066517
0.000658526
0.000679703
0.000619792
0.000622961
0.000639374
0.000663775
0.000692372
0.000738743
0.000759332
0.000822321
0.000856651
0.000864351
0.000851046
0.000830316
0.000801206
0.000749837
0.000670697
0.000566507
0.000452452
0.000318273
0.000205572
0.000666257
0.000644873
0.000603628
0.000587132
0.000570106
0.00057026
0.000597227
0.000530566
0.000530616
0.000540928
0.000561107
0.000587504
0.00062846
0.000677801
0.000741056
0.00077714
0.00077893
0.00077722
0.000778778
0.000770616
0.000732742
0.000658985
0.00056699
0.000458593
0.000341452
0.000233224
0.00056238
0.000547899
0.000507871
0.000492351
0.000482195
0.000488998
0.000517961
0.000446954
0.000443928
0.00045084
0.000468835
0.000494552
0.000521059
0.00060358
0.000664931
0.000683881
0.000690881
0.000711564
0.000741811
0.000749816
0.000718454
0.00065659
0.000568577
0.000478368
0.000363997
0.000267395
0.000465467
0.000453403
0.000418321
0.000406232
0.000400272
0.000415768
0.000445801
0.000364691
0.000363759
0.000366136
0.000383351
0.000405354
0.000429245
0.000528268
0.000573935
0.000585664
0.000606927
0.000662443
0.00072034
0.00073548
0.000707509
0.000652915
0.000582784
0.000492884
0.00039723
0.000308634
0.000375845
0.000367809
0.000337561
0.000323582
0.000323609
0.000343948
0.000371268
0.000288222
0.000285425
0.000288155
0.000305691
0.000320767
0.000344331
0.000450251
0.000477719
0.000480353
0.000538996
0.000640332
0.000706624
0.000720187
0.000699497
0.000654899
0.000592472
0.000522881
0.000432288
0.00035352
0.000296363
0.000284408
0.000259757
0.000251191
0.000253218
0.000273611
0.000304038
0.00021479
0.000209764
0.000212451
0.000226286
0.00024373
0.000267739
0.000366549
0.000352398
0.000381796
0.000513034
0.000633919
0.000693649
0.000705781
0.00069107
0.000659698
0.000612759
0.000553227
0.000475572
0.000411038
0.000216423
0.00022235
0.000186903
0.00018008
0.000183111
0.000204981
0.000232213
0.000138158
0.000137684
0.000139903
0.000155277
0.000167996
0.000183025
0.000248687
0.000217907
0.000339678
0.000520137
0.00063236
0.000671961
0.000684577
0.000685969
0.000670205
0.000640414
0.000593969
0.000528043
0.000476957
0.000143685
0.000151071
0.000120492
0.000106821
0.000112247
0.000137377
0.000150933
5.6902e-05
6.72959e-05
6.75205e-05
8.85764e-05
9.70732e-05
0.000113124
9.51491e-05
0.000119768
0.000370033
0.000545566
0.000607611
0.000638201
0.000666142
0.000682503
0.000688011
0.000671525
0.000641524
0.000588863
0.000553291
7.95741e-05
7.63303e-05
5.03132e-05
3.80088e-05
4.07341e-05
7.43671e-05
4.62165e-05
-3.37489e-05
-1.32419e-05
-3.93776e-06
1.90258e-05
2.52411e-05
4.91279e-05
-0.000123142
0.000172846
0.000446775
0.000524069
0.000559109
0.000603918
0.000648515
0.000687818
0.000709643
0.000713497
0.000693269
0.000662324
0.000640423
8.88216e-06
1.04399e-05
-1.84214e-05
-3.53283e-05
-2.89117e-05
6.06315e-06
-0.000266554
-0.000126713
-9.13609e-05
-8.29138e-05
-5.23966e-05
-4.35791e-05
-2.04997e-05
-0.000119607
0.000349367
0.000430115
0.000454968
0.000507003
0.000571103
0.000637217
0.000693963
0.000736793
0.000753984
0.00076773
0.00074392
0.000739994
-6.02602e-05
-6.19932e-05
-8.75545e-05
-0.000116476
-0.000104671
-0.00010997
-0.000489662
-0.000454295
-0.000152066
-0.000170924
-0.000128192
-0.000118425
-8.95008e-05
0.000256081
0.000339263
0.000336444
0.000385487
0.000458336
0.00054137
0.000626629
0.000705595
0.000769164
0.000819607
0.000836707
0.000840091
0.000852929
-0.000134929
-0.000137337
-0.000170008
-0.00021286
-8.89369e-05
-0.000797076
0.000129321
-0.000356496
-0.000184228
-0.000276559
-0.000201245
-0.00020415
-0.000168147
0.000251368
0.000201363
0.000246635
0.00032137
0.000410903
0.000513505
0.000621348
0.000725206
0.000815924
0.000878578
0.000932403
0.000943615
0.000973456
-0.00021466
-0.000237807
-0.000199062
-0.000277057
-0.00141266
-8.92319e-06
0.000116492
-2.70305e-05
-0.000460872
2.72454e-06
-7.38095e-05
-0.000314173
-0.000260884
5.91282e-05
9.66427e-05
0.00017222
0.000261309
0.000367006
0.00048721
0.000617975
0.000748945
0.000864069
0.000963266
0.00102194
0.00106365
0.00112011
-0.000299589
-0.000338271
0.000380361
-0.00226217
3.15305e-06
-0.00015525
-8.12538e-05
-0.00012776
-0.000168865
-5.18286e-05
0.000566211
-0.000134412
-0.000270519
-5.72354e-05
2.2946e-05
0.000105822
0.000202267
0.000319595
0.000462365
0.000619829
0.000780014
0.000926754
0.00104518
0.00114121
0.00120145
0.00127979
9.11304e-05
-0.0044824
-0.000158895
-0.000198166
-0.000247932
-0.000218055
-0.000193653
-0.000210472
-0.000243174
-0.000280257
-0.000318445
-0.000124254
-4.69627e-05
3.39265e-05
0.000138758
0.000275108
0.000441199
0.000628152
0.000819689
0.000999485
0.00114659
0.00127057
0.00135372
0.0014544
-0.00030838
-0.000289518
-0.000272158
-0.000284197
-0.000261916
-0.000288883
-0.000295113
-0.000289211
-0.000302816
-0.000192011
-0.00012385
-3.79951e-05
7.85945e-05
0.000230876
0.000420861
0.000639363
0.000866627
0.00107633
0.0012658
0.00141198
0.00152405
0.00165409
-0.000308015
-0.000312782
-0.000337318
-0.000351182
-0.000331867
-0.000362759
-0.000368159
-0.000338612
-0.000340444
-0.00026774
-0.000200711
-0.000111794
1.25405e-05
0.000183997
0.000403646
0.000657474
0.000920387
0.00117429
0.00139287
0.00157682
0.00171956
0.00187174
-0.000367303
-0.000383009
-0.000406917
-0.000416621
-0.000401411
-0.000437032
-0.00043975
-0.000421095
-0.000410266
-0.00034745
-0.000281639
-0.00018992
-5.59705e-05
0.000138474
0.000390659
0.000680983
0.000987805
0.00128714
0.00154025
0.00176466
0.00192694
0.00210715
-0.000441831
-0.000456305
-0.000477736
-0.000484402
-0.000478895
-0.000509309
-0.000508326
-0.000491683
-0.000482076
-0.000425695
-0.000364027
-0.000273586
-0.000125679
9.42905e-05
0.00037985
0.00071535
0.00107166
0.00140531
0.00171112
0.00195534
0.00216897
0.00236618
-0.00051312
-0.00052782
-0.000543915
-0.000557882
-0.000554474
-0.000583984
-0.00057888
-0.000564816
-0.000546892
-0.000510017
-0.000458762
-0.000365426
-0.000198265
4.89487e-05
0.000375515
0.000756429
0.00115486
0.00154196
0.00188659
0.00219189
0.0024354
0.00268798
-0.000581954
-0.000596282
-0.00061523
-0.000630129
-0.000635077
-0.000662292
-0.000652032
-0.000631408
-0.000617666
-0.000605881
-0.000562896
-0.000462034
-0.000274737
7.22891e-06
0.000374789
0.000804017
0.00125614
0.00170054
0.00209817
0.00245473
0.00275437
0.0030372
-0.000645743
-0.00066501
-0.000688561
-0.000705741
-0.000723539
-0.000737946
-0.00072654
-0.000703811
-0.000687776
-0.000713444
-0.000675304
-0.00055925
-0.000347649
-3.20603e-05
0.000379681
0.000862715
0.00137927
0.00187114
0.00234241
0.00273073
0.00328889
0.00126789
-0.000723172
-0.000738889
-0.000762988
-0.00078225
-0.00082647
-0.000820071
-0.000799191
-0.000775916
-0.000761508
-0.000839372
-0.000796695
-0.000656794
-0.000421739
-7.24466e-05
0.000388826
0.000932407
0.00150398
0.00208278
0.00255948
0.00333604
0.00147893
-0.000795922
-0.000811992
-0.000838663
-0.000866862
-0.000954284
-0.000911202
-0.000876045
-0.000847711
-0.000833992
-0.000983187
-0.000905739
-0.000758163
-0.000502989
-0.000112364
0.000405663
0.00100835
0.00166449
0.00223986
0.00312266
0.00153876
-0.000872332
-0.000889883
-0.000911046
-0.000974042
-0.00109574
-0.00111491
-0.000942331
-0.000929905
-0.000909369
-0.00109934
-0.00101674
-0.000867379
-0.000585523
-0.000147223
0.000426315
0.00111035
0.00176229
0.00272351
0.00139517
-0.000949548
-0.000970563
-0.00094114
-0.00142642
-0.00123419
-0.00114073
-0.000920535
-0.00101397
-0.000990614
-0.00120153
-0.00114398
-0.000986699
-0.000668522
-0.000182313
0.000466769
0.00115678
0.00215558
0.0011254
-0.00103627
-0.00106434
-0.00372072
-0.00212314
-0.00122344
-0.00133007
-0.00131085
-0.00155962
-0.00140418
-0.00113739
0.00138744
-0.00110002
-0.00133419
-0.00128989
-0.0011113
-0.000754013
-0.000204333
0.000463861
0.00144216
0.000770777
-0.000962013
-0.00136326
-0.00133874
-0.00136013
-0.00145623
-0.00141798
-0.0013544
-0.00135247
-0.00136273
-0.00137911
-0.00068718
-0.00149331
-0.00144497
-0.00123816
-0.000833775
-0.000250881
0.000631347
0.00036069
-0.00127963
-0.00137451
-0.00137606
-0.00137658
-0.0013964
-0.00147878
-0.00161364
-0.0015523
-0.00143046
-0.00145248
-0.0013756
-0.00138145
-0.00144464
-0.00143792
-0.00166756
-0.00160645
-0.00136767
-0.000917647
-0.000203741
-6.50159e-05
-0.00141399
-0.00140596
-0.0013961
-0.00141758
-0.00148894
-0.00151825
-0.00162259
-0.00179332
-0.00170764
-0.00155526
-0.00159408
-0.00144297
-0.00147205
-0.0013939
-0.00139943
-0.00185202
-0.00177645
-0.00148158
-0.000986392
-0.000471814
-0.00140779
-0.00143338
-0.00150535
-0.00153501
-0.00162281
-0.00166646
-0.001786
-0.00198918
-0.00188492
-0.0017036
-0.00174854
-0.00157463
-0.0016077
-0.00145204
-0.00148493
-0.00205589
-0.00191773
-0.00165463
-0.000826537
-0.00151642
-0.0015489
-0.00163838
-0.00168162
-0.00178018
-0.0018288
-0.00196933
-0.00221772
-0.00208033
-0.00187337
-0.00191861
-0.0017196
-0.00175883
-0.00158464
-0.00161884
-0.00223531
-0.00217756
-0.00110767
-0.00165096
-0.00169034
-0.00179699
-0.001838
-0.00195802
-0.00201136
-0.00218202
-0.00244995
-0.00231542
-0.00206269
-0.00211028
-0.00188451
-0.00192655
-0.00172963
-0.00176723
-0.0025707
-0.00131245
-0.00180527
-0.00184301
-0.00197216
-0.00201846
-0.00216102
-0.00221776
-0.00241376
-0.00290254
-0.00254352
-0.00228043
-0.00233705
-0.00206619
-0.00211629
-0.00189537
-0.00193259
-0.00145248
-0.00197733
-0.00202239
-0.00216818
-0.00222161
-0.00239192
-0.00245615
-0.00272201
-0.00167627
-0.0030187
-0.00251207
-0.00257575
-0.00227876
-0.00233451
-0.00207183
-0.00211498
-0.0021672
-0.00222098
-0.00239358
-0.00245259
-0.00264918
-0.00274066
-0.00319564
-0.00159157
-0.00286903
-0.00298079
-0.00251103
-0.00257561
-0.00227722
-0.0023309
-0.0023869
-0.00244297
-0.00265354
-0.00274302
-0.00310153
-0.00335173
-0.0033042
-0.00136596
-0.00284841
-0.00295159
-0.0025013
-0.00256017
-0.00263285
-0.00272115
-0.00306742
-0.00336599
-0.00362846
-0.00133884
-0.00282077
-0.0029336
-0.00305143
-0.0033452
-0.00392928
-0.00164375
-0.0199601
-0.0190978
-0.0199239
-0.0192318
-0.0187657
-0.0197657
-0.0200491
-0.0188707
-0.018389
-0.0195796
-0.0205297
-0.0188408
-0.0204994
-0.0184793
-0.0179807
-0.0212199
-0.0198891
-0.0179136
-0.021328
-0.0180319
-0.0209346
-0.0180924
-0.0175841
-0.0228709
-0.0215518
-0.0202016
-0.0182577
-0.0162846
-0.0172218
-0.0221852
-0.0213756
-0.0176892
-0.0172023
-0.0245414
-0.0232433
-0.0230377
-0.0218694
-0.0204933
-0.0185704
-0.0166378
-0.0146959
-0.0156242
-0.0164237
-0.0168893
-0.0172983
-0.0218364
-0.0222749
-0.0167929
-0.0261273
-0.0249506
-0.0238918
-0.0247501
-0.0235698
-0.0226806
-0.0230919
-0.0221605
-0.0207553
-0.0188582
-0.0169554
-0.0150429
-0.0131328
-0.0140451
-0.0148361
-0.015291
-0.0156955
-0.0160866
-0.016485
-0.0163698
-0.0266867
-0.025593
-0.0264848
-0.0274385
-0.0274083
-0.0252893
-0.0235351
-0.023976
-0.0243869
-0.0248071
-0.0238579
-0.0224229
-0.0209865
-0.0191171
-0.0172434
-0.0153614
-0.0134764
-0.0115894
-0.0124858
-0.0132666
-0.0137126
-0.0141112
-0.0144981
-0.0148906
-0.0151905
-0.0155953
-0.0159767
-0.0284786
-0.0270433
-0.0252488
-0.0256967
-0.0273245
-0.0261318
-0.0265754
-0.0283921
-0.0285228
-0.0255791
-0.0241208
-0.0226569
-0.0211809
-0.019343
-0.0175009
-0.0156495
-0.0137938
-0.0119335
-0.0100635
-0.0109445
-0.0117161
-0.0121548
-0.0125483
-0.0129303
-0.0133175
-0.0136115
-0.0140105
-0.0143872
-0.0147744
-0.0302855
-0.0288235
-0.027332
-0.0270188
-0.0274672
-0.0277338
-0.0281053
-0.028498
-0.0293011
-0.029485
-0.0258474
-0.0243561
-0.0228576
-0.021328
-0.0195297
-0.0177234
-0.0159063
-0.014079
-0.0122511
-0.0104125
-0.00855295
-0.00941746
-0.0101816
-0.0106148
-0.0110038
-0.0113822
-0.0117641
-0.0120537
-0.0124478
-0.0128199
-0.0132022
-0.0321393
-0.0306222
-0.0304405
-0.0291155
-0.0276038
-0.0278484
-0.0283402
-0.0289445
-0.0302392
-0.0294041
-0.0260895
-0.0245593
-0.0230127
-0.0214166
-0.0196687
-0.0179065
-0.0161272
-0.0143321
-0.0125336
-0.0107316
-0.00891023
-0.0070622
-0.00789882
-0.00865763
-0.00908757
-0.00947314
-0.00984884
-0.0102272
-0.0105131
-0.010903
-0.0112729
-0.0116491
-0.0340434
-0.0324803
-0.0313755
-0.032325
-0.030933
-0.0293944
-0.0278497
-0.0282771
-0.028827
-0.0303298
-0.0311764
-0.0298614
-0.0292962
-0.0262967
-0.0247222
-0.0231064
-0.0214316
-0.0197515
-0.0180397
-0.0163043
-0.0145457
-0.0127784
-0.0110092
-0.00923024
-0.00742313
-0.00559951
-0.00638145
-0.00713714
-0.007566
-0.00794979
-0.00832443
-0.00870046
-0.00898399
-0.00937129
-0.00973903
-0.0101126
-0.0359656
-0.0343755
-0.0332731
-0.0342374
-0.0327949
-0.0321203
-0.0312194
-0.0296461
-0.0280644
-0.0287272
-0.0308028
-0.0302297
-0.0312776
-0.0297599
-0.0291832
-0.0264629
-0.0248237
-0.023127
-0.0213613
-0.0197578
-0.0181107
-0.0164326
-0.0147164
-0.0129814
-0.011242
-0.00949982
-0.00773974
-0.00593943
-0.00415407
-0.00492374
-0.00562033
-0.00603962
-0.00642386
-0.00680126
-0.00717646
-0.00745885
-0.00784517
-0.00821285
-0.00858502
-0.0379323
-0.0362959
-0.0351918
-0.0361719
-0.0346888
-0.0330659
-0.034029
-0.0330818
-0.032213
-0.0317381
-0.0314762
-0.0298662
-0.0282334
-0.0307014
-0.0301129
-0.0311741
-0.0296506
-0.0265678
-0.0248499
-0.02306
-0.0212021
-0.0196818
-0.0181105
-0.0164984
-0.0148365
-0.0131409
-0.011431
-0.00971725
-0.00799829
-0.00624591
-0.00446421
-0.00269993
-0.00346796
-0.0041967
-0.00455597
-0.0048858
-0.00525397
-0.00563416
-0.00592243
-0.0063144
-0.00668498
-0.00705993
-0.0399366
-0.0382678
-0.0371453
-0.0381443
-0.0366122
-0.0350036
-0.0360058
-0.034977
-0.0326888
-0.0331678
-0.0341136
-0.0336317
-0.0333406
-0.0321127
-0.03164
-0.031697
-0.030039
-0.0283456
-0.0305885
-0.0310559
-0.0265987
-0.0247874
-0.0229025
-0.0209604
-0.0195219
-0.0180324
-0.0164946
-0.0148963
-0.0132466
-0.0115695
-0.0098831
-0.00819392
-0.00648834
-0.00474369
-0.0029722
-0.00129117
-0.00209754
-0.00273346
-0.00308971
-0.00344006
-0.0038014
-0.00424069
-0.00427912
-0.00469567
-0.00510245
-0.00550581
-0.0419688
-0.0402858
-0.039138
-0.0401589
-0.0385834
-0.0369681
-0.0379344
-0.0369032
-0.0345936
-0.0350851
-0.0361226
-0.0355593
-0.0352359
-0.0325871
-0.0330625
-0.0340028
-0.033529
-0.0335638
-0.0319957
-0.0315299
-0.0318748
-0.0301536
-0.0283794
-0.02654
-0.0246306
-0.0226602
-0.0206527
-0.0192846
-0.0178731
-0.0164134
-0.0148886
-0.0132974
-0.0116589
-0.00999827
-0.00832988
-0.0066558
-0.00495292
-0.00318971
-0.0014266
-0.000239953
-0.000887153
-0.00143198
-0.00176382
-0.00207421
-0.00239617
-0.00272156
-0.00294014
-0.00326549
-0.00357827
-0.0042558
-0.0440448
-0.0423317
-0.0411684
-0.0422056
-0.040602
-0.0389302
-0.0399443
-0.0388731
-0.0365554
-0.0370253
-0.0380146
-0.0375104
-0.0371646
-0.0344721
-0.0349364
-0.0361432
-0.0353851
-0.0354612
-0.0324755
-0.0329455
-0.0338875
-0.0334213
-0.0337434
-0.031993
-0.0301912
-0.0283241
-0.0263874
-0.0243883
-0.0223488
-0.0202965
-0.0189838
-0.0176386
-0.0162532
-0.0148058
-0.0132839
-0.0116962
-0.0100677
-0.00841569
-0.00675592
-0.00507667
-0.00334054
-0.00150455
-0.000304323
-1.29767e-05
-0.000383029
-0.000654602
-0.000891359
-0.00115787
-0.00143101
-0.00162487
-0.00194426
-0.0022611
-0.00259029
-0.00280678
-0.00313551
-0.00345512
-0.00435396
-0.0461679
-0.0444157
-0.0432367
-0.0442905
-0.0426565
-0.0409638
-0.041995
-0.0408888
-0.0385294
-0.0390359
-0.0400379
-0.0395315
-0.0391338
-0.0363373
-0.0368466
-0.0378861
-0.0373693
-0.0373913
-0.0343596
-0.0348096
-0.0361153
-0.0352378
-0.0356424
-0.0338638
-0.0320346
-0.0301398
-0.0281742
-0.0261465
-0.0240759
-0.0219872
-0.0199115
-0.0186365
-0.0173444
-0.0160216
-0.0146487
-0.0132017
-0.0116766
-0.0100885
-0.00845546
-0.00680416
-0.00512697
-0.003413
-0.00152913
-0.000339826
5.80257e-05
-7.84802e-05
-0.000248023
-0.000429376
-0.000541954
-0.000775031
-0.00102769
-0.00130673
-0.0014733
-0.00179503
-0.00212293
-0.00245449
-0.0483462
-0.0465451
-0.045345
-0.0464174
-0.0447466
-0.0430325
-0.0440813
-0.0429467
-0.040555
-0.0410691
-0.042087
-0.0415715
-0.0411476
-0.0384074
-0.038913
-0.0399156
-0.0394134
-0.0393632
-0.0375779
-0.0357671
-0.0339093
-0.031986
-0.0299941
-0.0279356
-0.0258342
-0.0237114
-0.0215958
-0.0195209
-0.0182617
-0.0170059
-0.0157331
-0.0144241
-0.0130491
-0.0115936
-0.0100604
-0.00845833
-0.00681334
-0.00512667
-0.00341863
-0.00149915
-0.00035677
7.35925e-05
-4.72046e-05
-0.000175376
-0.000335581
-0.000402011
-0.000627289
-0.00088064
-0.00115717
-0.0505718
-0.0487225
-0.0474972
-0.0485907
-0.0468811
-0.0451383
-0.0462055
-0.0450433
-0.0426137
-0.0431388
-0.0441757
-0.0436495
-0.0432087
-0.0404338
-0.0409443
-0.0419621
-0.0414527
-0.0413779
-0.0395506
-0.0377052
-0.0358184
-0.0338674
-0.0318444
-0.0297601
-0.0276262
-0.0254699
-0.0233156
-0.0211978
-0.0191472
-0.017882
-0.0166411
-0.015403
-0.0141459
-0.0128369
-0.0114553
-0.00998407
-0.00842668
-0.00679989
-0.00510465
-0.00338689
-0.001428
-0.000354395
9.22376e-05
2.64364e-05
-6.8668e-05
-0.000207666
-0.0528043
-0.0509312
-0.0496947
-0.0508174
-0.0490589
-0.0472826
-0.0483688
-0.0471816
-0.0447128
-0.0452481
-0.0463048
-0.0457681
-0.045309
-0.042491
-0.0430124
-0.044049
-0.0435287
-0.043439
-0.0415685
-0.0396847
-0.0377615
-0.0357813
-0.0337318
-0.0316155
-0.0294538
-0.0272637
-0.0250733
-0.0229128
-0.0208162
-0.0188203
-0.0175192
-0.0162729
-0.0150484
-0.0138275
-0.0125752
-0.0112608
-0.0098614
-0.00836214
-0.00676718
-0.00507556
-0.00334753
-0.00134651
-0.000335816
-0.055119
-0.0531688
-0.0519227
-0.0530665
-0.0512667
-0.0494646
-0.0505868
-0.0493606
-0.0468533
-0.0473999
-0.0484773
-0.04793
-0.0474511
-0.044589
-0.0451203
-0.0461778
-0.045647
-0.0455424
-0.0436298
-0.0417048
-0.0397475
-0.0377329
-0.0356537
-0.0335101
-0.031316
-0.029095
-0.0268684
-0.0246692
-0.0225264
-0.0204821
-0.018572
-0.0172037
-0.0159218
-0.0146904
-0.0134867
-0.0122766
-0.0110216
-0.00969024
-0.00825715
-0.00671593
-0.00504928
-0.00331907
-0.0012834
-0.000316159
-0.0574634
-0.0554877
-0.0542153
-0.055385
-0.0535117
-0.0517272
-0.0528935
-0.0515725
-0.0490345
-0.0495894
-0.0506828
-0.0501279
-0.0496309
-0.0467294
-0.0472716
-0.0483513
-0.0478097
-0.0476867
-0.0457351
-0.0437691
-0.0417718
-0.0397248
-0.0376134
-0.0354395
-0.0332173
-0.0309634
-0.0287032
-0.0264651
-0.0242801
-0.0221876
-0.0202267
-0.018424
-0.0169634
-0.015616
-0.0143486
-0.0131426
-0.0119568
-0.0107496
-0.00948191
-0.00812156
-0.00664541
-0.00502558
-0.00332006
-0.00127013
-0.000317504
-0.0598545
-0.0578518
-0.0565498
-0.0577451
-0.0558275
-0.0539897
-0.0551407
-0.0538238
-0.0512322
-0.0517891
-0.0528717
-0.0525121
-0.0518454
-0.0489128
-0.0494646
-0.0505519
-0.0500084
-0.0498667
-0.047882
-0.0458756
-0.0438416
-0.0417567
-0.0396134
-0.0374084
-0.0351553
-0.0328714
-0.0305771
-0.0283024
-0.0260754
-0.0239384
-0.0219288
-0.0200745
-0.0183857
-0.0168198
-0.0153843
-0.0140524
-0.0128148
-0.011632
-0.0104574
-0.00924348
-0.00795141
-0.00655109
-0.00499773
-0.00333966
-0.0013164
-0.00035588
-0.0623106
-0.0602562
-0.0589314
-0.0601437
-0.0581956
-0.0563249
-0.0575112
-0.0561364
-0.0534679
-0.0540723
-0.0552494
-0.0546567
-0.0541009
-0.0510928
-0.0515903
-0.052415
-0.0520866
-0.0500641
-0.0480269
-0.0459514
-0.043832
-0.0416541
-0.0394182
-0.0371341
-0.0348182
-0.0324915
-0.0301805
-0.0279144
-0.0257321
-0.023677
-0.0217736
-0.0200363
-0.01845
-0.0167834
-0.0152476
-0.0138294
-0.0125294
-0.0113225
-0.0101596
-0.00898608
-0.00775612
-0.00643187
-0.00495855
-0.00337386
-0.00141279
-0.000431641
-0.064828
-0.0627173
-0.0613577
-0.0626227
-0.0606123
-0.0587054
-0.0598937
-0.0585033
-0.0558629
-0.0564572
-0.0576183
-0.0570288
-0.0564155
-0.0543462
-0.0522885
-0.050215
-0.0481076
-0.0459502
-0.0437378
-0.041469
-0.0391539
-0.0368069
-0.0344472
-0.0321009
-0.0297962
-0.0275721
-0.0254687
-0.0235204
-0.0217348
-0.0201039
-0.0185956
-0.016846
-0.0152141
-0.0136986
-0.0123136
-0.0110517
-0.00987243
-0.00872122
-0.00754207
-0.00629094
-0.00490312
-0.00340895
-0.00153978
-0.000541368
-0.06743
-0.0652464
-0.0638681
-0.0651365
-0.0630824
-0.0610256
-0.0619696
-0.062687
-0.0609272
-0.0582372
-0.0588403
-0.0600216
-0.0594213
-0.0587833
-0.0566629
-0.0545575
-0.0524439
-0.0503016
-0.0481124
-0.0458661
-0.0435636
-0.0412166
-0.0388377
-0.0364447
-0.0340639
-0.0317202
-0.029455
-0.0273085
-0.0253119
-0.0234823
-0.021806
-0.0202558
-0.0187933
-0.0169872
-0.0152772
-0.0136695
-0.0121877
-0.0108467
-0.00962028
-0.00846234
-0.00731842
-0.00613107
-0.00482572
-0.00342898
-0.00166784
-0.000671817
-0.0700362
-0.0678296
-0.0664223
-0.0677351
-0.0656132
-0.0633514
-0.0640138
-0.0646376
-0.065273
-0.0634063
-0.0606387
-0.0618811
-0.0612852
-0.062554
-0.0612115
-0.0590354
-0.0568778
-0.0547206
-0.0525412
-0.0503157
-0.0480367
-0.0457022
-0.043323
-0.0409118
-0.038486
-0.0360694
-0.0336887
-0.0313809
-0.0291905
-0.0271489
-0.0252735
-0.0235556
-0.0219652
-0.0204619
-0.0190095
-0.0171768
-0.0154162
-0.0137345
-0.0121602
-0.0107249
-0.00942619
-0.00823446
-0.00709771
-0.00595825
-0.0047283
-0.00343093
-0.00177842
-0.000814963
-0.0727363
-0.0704313
-0.0690322
-0.0703567
-0.0681917
-0.0659247
-0.0665807
-0.0672202
-0.0678663
-0.0659408
-0.0632329
-0.063893
-0.0645085
-0.065141
-0.0636964
-0.0618932
-0.0624588
-0.0614658
-0.0592546
-0.0570494
-0.0548265
-0.0525675
-0.0502531
-0.0478856
-0.0454737
-0.0430306
-0.0405714
-0.03812
-0.0356999
-0.0333515
-0.0311158
-0.0290292
-0.0271077
-0.0253466
-0.0237169
-0.0221786
-0.0206924
-0.0192221
-0.0173824
-0.0156042
-0.0138734
-0.0122228
-0.0106953
-0.00930818
-0.00805567
-0.00689865
-0.00578436
-0.00461439
-0.00341379
-0.00185864
-0.000971637
-0.0754997
-0.0731385
-0.0717014
-0.0730717
-0.0708078
-0.0685212
-0.0691818
-0.0698138
-0.0705073
-0.0685199
-0.0658117
-0.0664666
-0.067085
-0.0677244
-0.0662339
-0.0631103
-0.063755
-0.0643838
-0.0650048
-0.063955
-0.0616899
-0.0594314
-0.0571644
-0.0548635
-0.0525166
-0.0501161
-0.0476716
-0.0451951
-0.0427025
-0.0402154
-0.0377579
-0.0353669
-0.0330868
-0.0309525
-0.0289863
-0.0271808
-0.0255094
-0.0239338
-0.0224145
-0.020921
-0.0194242
-0.01758
-0.0158101
-0.0140577
-0.0123569
-0.0107523
-0.00927563
-0.00794388
-0.0067382
-0.00562249
-0.00449567
-0.00337998
-0.00190545
-0.00114594
-0.0783098
-0.0759264
-0.0744446
-0.0758538
-0.0735127
-0.0711732
-0.0718473
-0.07251
-0.0732021
-0.0711485
-0.0683963
-0.0690531
-0.0696705
-0.0704765
-0.0688163
-0.0656778
-0.0663257
-0.06696
-0.0675862
-0.0664954
-0.0641801
-0.061871
-0.0595564
-0.0572136
-0.0548275
-0.0523929
-0.0499164
-0.0474071
-0.0448803
-0.0423579
-0.0398616
-0.037429
-0.0351028
-0.0329212
-0.0309066
-0.0290556
-0.0273428
-0.0257276
-0.0241718
-0.0226418
-0.0211213
-0.0199601
-0.0177662
-0.0190966
-0.0160104
-0.0142597
-0.0125352
-0.0108786
-0.00932501
-0.00790804
-0.00663399
-0.00548764
-0.00438134
-0.0033335
-0.0019266
-0.00134023
-0.0812006
-0.0787561
-0.0772536
-0.0786895
-0.0763012
-0.0739147
-0.0746289
-0.0753043
-0.075997
-0.0738517
-0.0710289
-0.0716809
-0.072341
-0.0730261
-0.0714507
-0.0682574
-0.0688885
-0.0694767
-0.0702541
-0.069081
-0.0667229
-0.0643683
-0.0620033
-0.0596173
-0.0571915
-0.0547208
-0.0522095
-0.0496675
-0.0471064
-0.0445478
-0.0420126
-0.0395383
-0.0371662
-0.0349364
-0.032872
-0.0309748
-0.0292164
-0.0275605
-0.0259657
-0.024397
-0.0228325
-0.0216602
-0.0207913
-0.0200197
-0.0182648
-0.0161948
-0.017463
-0.0191807
-0.0144553
-0.012732
-0.0110498
-0.00944205
-0.0079474
-0.00659585
-0.00539452
-0.00428335
-0.003278
-0.00193385
-0.00154392
-0.0841894
-0.0816611
-0.0801268
-0.0815904
-0.0791456
-0.0767165
-0.0774424
-0.0781324
-0.0788389
-0.0766344
-0.0737876
-0.0745011
-0.0751518
-0.0758263
-0.0741568
-0.0717244
-0.069316
-0.0669163
-0.0645083
-0.0620752
-0.0596083
-0.0571002
-0.054554
-0.0519772
-0.049382
-0.046787
-0.0442127
-0.0416944
-0.0392771
-0.0369977
-0.034886
-0.0329374
-0.0311349
-0.0294355
-0.0278003
-0.0261929
-0.0245887
-0.0233915
-0.0225048
-0.0217091
-0.0208517
-0.02026
-0.0198303
-0.0183369
-0.0166778
-0.0146243
-0.0158935
-0.0175342
-0.0190035
-0.0194186
-0.0129227
-0.0112419
-0.00960534
-0.00805119
-0.00662334
-0.0053515
-0.00421064
-0.00321919
-0.00194145
-0.00172664
-0.0872442
-0.0846489
-0.0830736
-0.0845695
-0.0820615
-0.0795789
-0.0803216
-0.0810263
-0.0817483
-0.0794883
-0.0765903
-0.0773147
-0.0779774
-0.0786648
-0.0769376
-0.0744334
-0.0719675
-0.0695188
-0.0670652
-0.0645906
-0.062082
-0.0595336
-0.056951
-0.0543391
-0.0517082
-0.0490768
-0.046463
-0.0439026
-0.0414368
-0.0391084
-0.0369429
-0.0349487
-0.0330965
-0.0313541
-0.0296772
-0.0280307
-0.0263893
-0.025163
-0.0242599
-0.023449
-0.0225703
-0.0219682
-0.0215348
-0.0206843
-0.0211166
-0.0202727
-0.0198377
-0.0185745
-0.0181476
-0.0167337
-0.0151042
-0.013087
-0.0143392
-0.0159381
-0.0173671
-0.0177606
-0.0190135
-0.019404
-0.0114295
-0.00979104
-0.008201
-0.00670918
-0.00536148
-0.00417027
-0.00316359