/*--------------------------------*- C++ -*----------------------------------*\
| =========                 |                                                 |
| \\      /  F ield         | OpenFOAM: The Open Source CFD Toolbox           |
|  \\    /   O peration     | Version:  v1912                                 |
|   \\  /    A nd           | Website:  www.openfoam.com                      |
|    \\/     M anipulation  |                                                 |
\*---------------------------------------------------------------------------*/
FoamFile
{
    version     2.0;
    format      ascii;
    class       surfaceScalarField;
    location    "230";
    object      phi;
}
// * * * * * * * * * * * * * * * * * * * * * * * * * * * * * * * * * * * * * //

dimensions      [0 3 -1 0 0 0 0];
oriented        oriented;


internalField   nonuniform List<scalar> 
7194
(
-1.80689e-06
0.00131925
0.00395985
-1.95697e-06
0.00132121
-9.08128e-06
0.00396697
-2.10885e-06
0.00132331
-2.41656e-05
0.00657237
-9.46538e-06
0.00397433
-2.11219e-06
0.00132543
-4.47743e-05
0.00905056
-2.40316e-05
0.00658694
-9.46785e-06
0.00398168
-1.9933e-06
0.00132742
-7.49809e-05
0.0112898
-4.80373e-05
0.00907456
-2.35524e-05
0.00660102
-9.34144e-06
0.00398903
-2.03522e-06
0.00132946
-0.00011565
0.0131532
-7.90059e-05
0.0113207
-4.53293e-05
0.00909634
-2.41661e-05
0.00661584
-9.72448e-06
0.00399672
-1.71906e-06
0.00133117
-0.000161964
0.0145134
-0.000119313
0.0131935
-7.88964e-05
0.0113543
-4.6311e-05
0.00911848
-2.1747e-05
0.00662787
-8.0833e-06
0.00400309
-1.59525e-06
0.00133277
-0.000208109
0.0152582
-0.000164885
0.014559
-0.000117661
0.0132323
-7.32203e-05
0.0113812
-4.13883e-05
0.00913812
-1.95509e-05
0.00663934
-7.26417e-06
0.00400876
-1.49159e-06
0.00133426
-0.000249305
0.0153179
-0.000214279
0.0153076
-0.000162229
0.0146036
-0.000112368
0.0132714
-7.06209e-05
0.0114105
-3.77493e-05
0.00915632
-1.8214e-05
0.00665028
-6.64173e-06
0.00401391
-1.16586e-06
0.00133543
-0.000279636
0.0146582
-0.000258233
0.0153618
-0.000211277
0.0153566
-0.000155732
0.0146469
-0.000100863
0.0133017
-6.16584e-05
0.0114344
-3.35213e-05
0.00917163
-1.55227e-05
0.00665917
-4.57252e-06
0.00401731
-1.17978e-06
0.00133661
-0.00029305
0.0133146
-0.000300541
0.0147005
-0.000258173
0.0154087
-0.000197631
0.0153985
-0.000136897
0.014683
-9.19791e-05
0.013332
-5.42432e-05
0.0114551
-2.99083e-05
0.00918602
-1.41697e-05
0.00666876
-5.19834e-06
0.00402133
-8.47322e-07
0.00133745
-0.00028624
0.0113702
-0.000330942
0.013345
-0.000296529
0.0147389
-0.000237142
0.0154482
-0.000173326
0.015435
-0.000122427
0.0147134
-7.83804e-05
0.0133561
-4.74896e-05
0.0114727
-2.56393e-05
0.00919748
-1.08926e-05
0.00667446
-4.57743e-06
0.00402506
-7.52837e-07
0.00133821
-0.00024583
0.00895918
-0.000350878
0.0113901
-0.000326793
0.0133752
-0.000263556
0.0147653
-0.000200879
0.0154758
-0.00014916
0.0154617
-0.000102299
0.0147373
-6.57089e-05
0.0133744
-3.94367e-05
0.0114865
-2.14319e-05
0.00920802
-1.13731e-05
0.00668125
-4.17179e-06
0.00402848
-7.88959e-07
0.001339
-5.06064e-05
0.00623448
-0.000109746
-0.000357538
0.00896584
-0.00034407
0.0114074
-0.00027622
0.0133879
-0.000217289
0.0147817
-0.000166469
0.0154931
-0.000119473
0.0154789
-8.41013e-05
0.0147557
-5.79034e-05
0.0133928
-3.63049e-05
0.0115013
-2.06307e-05
0.00921728
-1.02418e-05
0.00668732
-4.01061e-06
0.0040317
-7.73635e-07
0.00133977
0.00211591
-0.00213406
-3.24557e-05
-0.000141686
0.00622042
-0.000201792
0.00206996
-6.37931e-05
-0.000349355
0.00897113
-0.000268904
0.0114
-0.000211431
0.013382
-0.000166817
0.0147821
-0.000129375
0.015503
-0.00010108
0.0154959
-7.35151e-05
0.0147713
-4.77278e-05
0.0134043
-3.02367e-05
0.0115109
-1.74128e-05
0.00922445
-8.68874e-06
0.006692
-3.88808e-06
0.00403482
-8.4144e-07
0.00134061
-2.00644e-05
0.00139522
-0.00142012
-9.07628e-07
-6.64187e-06
0.00203933
-0.000111059
-0.000195235
0.00620618
-0.000139876
0.00201156
-0.000174018
0.00135183
-1.55005e-05
-4.90571e-06
-0.000228059
0.00893028
-0.000183577
0.0113722
-0.000153903
0.0133691
-0.000128543
0.0147812
-0.000105085
0.015507
-8.05536e-05
0.0155029
-5.73979e-05
0.014781
-4.22866e-05
0.0134163
-2.76948e-05
0.0115212
-1.87956e-05
0.00923456
-1.02226e-05
0.00669834
-3.43194e-06
0.00403741
-1.08327e-06
0.0013417
-3.60144e-06
-5.95287e-08
0.000445502
-0.000445643
-7.6606e-07
0.000440613
-1.75321e-06
0.00129737
-1.68508e-05
-3.97511e-05
0.0019878
-0.000171476
-0.000100374
0.00612011
-4.16158e-05
0.0019571
-0.000109174
0.00126317
-8.68701e-05
-5.29429e-05
-0.000438348
0.000428337
-5.48986e-06
-2.64003e-06
-0.000124657
0.00887136
-0.000116967
0.0113353
-0.000107382
0.013348
-9.59054e-05
0.0147721
-7.99198e-05
0.0155064
-6.37428e-05
0.0155092
-5.20223e-05
0.0147907
-3.83746e-05
0.013427
-2.70744e-05
0.0115295
-1.71498e-05
0.00924149
-1.07591e-05
0.00670566
-4.9873e-06
0.00404131
-1.14386e-06
0.00134284
-0.000448184
-1.06099e-06
-1.82955e-08
0.000260913
-0.000261617
-6.18696e-08
0.000259434
-2.74626e-07
0.000420665
-9.17875e-06
0.000399164
-1.82504e-05
0.00123512
-7.9927e-05
-6.35041e-05
0.00191113
-5.44055e-05
-3.64936e-05
0.00604017
-8.2267e-06
0.0018938
-2.4289e-05
0.00118333
-1.69971e-05
-4.03827e-05
-0.000379387
0.000352402
-5.98851e-05
-3.31653e-05
-0.000257207
0.00025248
-7.62496e-07
-4.13087e-07
-6.69911e-05
0.00882138
-7.45844e-05
0.0113025
-7.60415e-05
0.0133281
-7.23245e-05
0.0147645
-6.48159e-05
0.0155075
-5.7861e-05
0.0155151
-4.67066e-05
0.0147991
-3.6688e-05
0.0134366
-2.91167e-05
0.0115415
-2.05318e-05
0.00925126
-1.06019e-05
0.00671128
-5.3099e-06
0.00404548
-1.21072e-06
0.00134405
-0.000262564
-1.138e-07
-4.47376e-08
7.55645e-05
-7.56264e-05
7.52899e-05
0.000245025
-1.72336e-06
0.000230551
-3.77641e-06
0.000330838
-5.83638e-05
0.000310801
-4.34664e-05
0.00114188
-1.03905e-05
-2.56787e-06
0.00186984
-1.2536e-05
-1.53046e-05
0.00598911
-6.2318e-07
0.00186705
-5.43094e-06
0.0011209
-1.7487e-07
-3.13471e-06
-0.000289071
0.00027838
-6.30635e-06
-1.86527e-05
-0.000207104
0.00016849
-2.12718e-05
-9.71831e-06
-7.48768e-05
7.41143e-05
-3.72084e-05
0.00878401
-4.88466e-05
0.0112753
-5.41458e-05
0.0133099
-5.45059e-05
0.0147541
-5.40086e-05
0.0155036
-4.88981e-05
0.0155173
-4.30664e-05
0.0148054
-3.79328e-05
0.0134454
-2.94855e-05
0.0115504
-2.03318e-05
0.00926099
-1.36136e-05
0.00671958
-6.15461e-06
0.00405042
-1.53406e-06
0.00134558
-7.57402e-05
7.2391e-05
6.86145e-05
0.000147751
-3.76244e-05
0.000104285
0.000270265
-2.27571e-06
0.000268368
-6.70467e-07
0.00110935
-1.20027e-06
2.16668e-07
0.00185528
-3.53262e-06
-7.87652e-06
0.00595882
9.5815e-07
0.00185566
-1.00268e-06
0.00110401
5.49349e-07
-6.37811e-07
-0.000265607
0.000265525
-9.26242e-08
-3.74514e-07
-8.56319e-05
7.93255e-05
-5.88962e-05
3.76244e-05
-2.19796e-05
0.00875714
-3.33988e-05
0.0112545
-4.04916e-05
0.0132959
-4.65877e-05
0.0147467
-4.74936e-05
0.0155022
-4.65951e-05
0.0155208
-4.57944e-05
0.0148133
-4.05641e-05
0.0134565
-3.25407e-05
0.0115626
-2.50719e-05
0.00927245
-1.51019e-05
0.00672853
-6.92068e-06
0.00405581
-1.57197e-06
0.00134716
7.70498e-05
7.63794e-05
0.000264498
-1.72957e-07
0.00026469
2.4617e-08
0.00110059
-3.34068e-07
2.24306e-07
0.00184919
-1.41316e-06
-4.98914e-06
0.00594017
1.65348e-06
0.00185077
-6.2419e-07
0.0010995
4.03039e-07
-3.22725e-07
-0.000263996
0.000264486
5.92704e-08
5.64397e-08
-7.60049e-05
7.59122e-05
-1.39809e-05
0.00873772
-2.48325e-05
0.0112389
-3.19032e-05
0.0132812
-3.76575e-05
0.0147369
-4.42969e-05
0.0154999
-4.75721e-05
0.0155226
-4.92e-05
0.0148219
-4.52649e-05
0.0134692
-3.93046e-05
0.0115769
-2.84899e-05
0.00928584
-1.6988e-05
0.0067386
-7.76562e-06
0.004062
-1.93443e-06
0.00134909
7.57393e-05
7.57639e-05
0.000264238
-8.62684e-08
0.000264407
5.56129e-08
0.00109813
-1.88173e-07
1.51811e-07
0.00184644
-6.53967e-07
-3.13844e-06
0.00592836
9.68442e-07
0.00184812
-2.8054e-08
0.0010974
2.63607e-07
-1.61165e-07
-0.000264003
0.000264373
3.30337e-08
8.05443e-08
-7.58203e-05
7.58796e-05
-1.01261e-05
0.00872302
-1.71901e-05
0.0112241
-2.73543e-05
0.0132709
-3.54168e-05
0.014728
-4.36501e-05
0.015496
-5.32859e-05
0.0155267
-5.56237e-05
0.0148323
-5.41281e-05
0.013484
-4.51409e-05
0.0115935
-3.39599e-05
0.00930281
-2.04011e-05
0.00675123
-9.33075e-06
0.0040694
-2.03459e-06
0.00135112
7.57933e-05
7.58489e-05
0.000264254
-6.84574e-08
0.000264373
3.26693e-08
0.00109685
-1.5175e-07
4.71774e-08
0.00184553
-5.42587e-07
-1.85608e-06
0.00591935
7.43032e-07
0.00184627
2.26243e-07
0.00109666
2.53012e-07
-9.53727e-08
-0.000264146
0.000264399
1.07026e-08
6.56959e-08
-7.59295e-05
7.59625e-05
-7.03553e-06
0.00871286
-1.42237e-05
0.011211
-2.4884e-05
0.0132604
-3.62173e-05
0.0147206
-4.90712e-05
0.0154918
-5.89571e-05
0.01553
-6.57138e-05
0.0148439
-6.33834e-05
0.0135023
-5.3295e-05
0.0116128
-3.58399e-05
0.00931825
-2.07321e-05
0.00676263
-8.87212e-06
0.00407623
-1.8465e-06
0.00135297
7.58941e-05
7.59267e-05
0.000264327
-7.94347e-08
0.000264357
1.68528e-08
0.00109617
-8.75963e-08
3.49374e-08
0.0018448
-3.871e-07
-1.47432e-06
0.00591262
1.16461e-06
0.00184536
1.82168e-07
0.00109634
1.6442e-07
-1.07805e-07
-0.00026419
0.000264435
8.37888e-09
7.10289e-08
-7.59924e-05
7.60031e-05
-5.89567e-06
0.00870453
-1.29524e-05
0.0111991
-2.38928e-05
0.0132481
-4.198e-05
0.0147135
-6.07431e-05
0.0154935
-7.54833e-05
0.0155398
-7.93685e-05
0.0148599
-7.30477e-05
0.013522
-5.86017e-05
0.0116356
-4.10494e-05
0.00933856
-2.28767e-05
0.00677664
-8.77801e-06
0.00408317
-1.91618e-06
0.00135489
7.59237e-05
7.59406e-05
0.000264428
-8.02855e-08
0.000264449
1.41127e-08
0.00109602
-1.99123e-08
-4.41559e-08
0.00184409
-2.09496e-07
-1.17214e-06
0.00590692
9.74083e-07
0.00184503
2.27331e-07
0.00109608
1.62729e-07
-4.30396e-08
-0.000264273
0.000264435
2.22887e-09
6.83326e-08
-7.60116e-05
7.602e-05
-4.08191e-06
0.00869566
-1.26624e-05
0.0111879
-2.83697e-05
0.0132345
-4.72041e-05
0.0146999
-7.06972e-05
0.0154888
-8.9321e-05
0.0155497
-9.72305e-05
0.014884
-8.67568e-05
0.0135502
-6.63263e-05
0.0116609
-4.33409e-05
0.00935903
-2.23756e-05
0.00679023
-9.47547e-06
0.00409073
-2.4955e-06
0.00135738
7.59397e-05
7.59538e-05
0.000264495
-7.99548e-08
0.000264442
8.58529e-09
0.00109593
-1.84585e-08
-3.82702e-08
0.00184404
-1.82092e-07
-6.38107e-07
0.00590265
8.30173e-07
0.00184478
2.35514e-07
0.00109602
1.66479e-07
-3.118e-08
-0.000264302
0.000264459
5.61763e-09
9.70655e-08
-7.60221e-05
7.60244e-05
-5.03421e-06
0.00868804
-1.5071e-05
0.0111746
-3.41687e-05
0.0132214
-6.48143e-05
0.0146941
-9.40157e-05
0.0154935
-0.000112815
0.0155653
-0.000113017
0.0149103
-9.71549e-05
0.013581
-7.1309e-05
0.0116889
-4.4563e-05
0.00938122
-2.2717e-05
0.00680348
-7.7203e-06
0.00409595
-7.22309e-07
0.00135811
7.59444e-05
7.5953e-05
0.000264524
-8.34084e-08
0.000264469
1.63036e-08
0.0010959
-1.1232e-08
-4.84655e-08
0.00184413
1.4006e-08
-3.40155e-07
0.00589752
4.37879e-07
0.00184469
2.72191e-07
0.00109599
1.65014e-07
-2.21463e-08
-0.000264373
0.000264533
6.19454e-09
6.54162e-08
-7.60501e-05
7.60557e-05
-4.31739e-06
0.00867728
-2.02763e-05
0.0111607
-4.79736e-05
0.0132046
-8.45819e-05
0.0146846
-0.000118464
0.0154991
-0.000136543
0.0155888
-0.000129875
0.014943
-0.000106603
0.0136163
-7.49411e-05
0.0117192
-4.19666e-05
0.00940047
-2.13067e-05
0.00681706
-6.69882e-06
0.00410193
-6.52893e-07
0.00135876
7.59723e-05
7.59886e-05
0.00026461
-8.78463e-08
0.000264453
1.08545e-07
0.00109605
-6.6018e-09
-3.8338e-08
0.00184429
6.00027e-08
1.86768e-07
0.00589376
-7.40306e-07
0.00184459
1.35114e-07
0.00109617
1.69212e-07
-1.59296e-08
-0.000264444
0.000264615
-6.41081e-09
-1.33765e-08
-7.6054e-05
7.60602e-05
-7.51456e-06
0.00866452
-2.77173e-05
0.0111404
-6.4797e-05
0.0131848
-0.000113546
0.0146797
-0.000151204
0.0155138
-0.000163382
0.0156223
-0.000144757
0.0149812
-0.00011088
0.0136523
-7.21563e-05
0.0117494
-4.10421e-05
0.0094202
-1.74054e-05
0.00682777
-6.19251e-06
0.00410747
-4.02041e-07
0.00135916
7.59723e-05
7.60809e-05
0.000264655
-4.64261e-08
0.000264505
1.11874e-07
0.00109626
3.65622e-09
-3.24576e-08
0.00184468
9.78288e-08
1.0637e-06
0.00588621
-1.0355e-06
0.00184379
1.48142e-07
0.00109624
1.70069e-07
-1.3302e-08
-0.0002645
0.000264675
-5.22442e-09
-1.13895e-08
-7.60675e-05
7.60611e-05
-1.11669e-05
0.00864797
-4.05504e-05
0.0111162
-9.51786e-05
0.0131664
-0.000151567
0.0146801
-0.000188125
0.0155385
-0.000185586
0.0156632
-0.000154829
0.0150251
-0.000110896
0.013691
-6.80841e-05
0.0117765
-3.63377e-05
0.00943913
-1.59453e-05
0.00683752
-2.98637e-06
0.00411005
-1.80799e-07
0.00135934
7.60147e-05
7.61265e-05
0.000264757
-7.87602e-08
0.000264612
1.12718e-07
0.00109636
3.388e-09
-2.3781e-08
0.00184468
1.74625e-07
1.3959e-06
0.00587565
-2.0011e-06
0.00184383
-1.87892e-07
0.00109636
1.65913e-07
-1.97702e-08
-0.000264609
0.000264784
-5.45652e-09
-1.01507e-08
-7.61152e-05
7.61099e-05
-1.82964e-05
0.00862572
-6.45896e-05
0.0110856
-0.000135457
0.0131503
-0.00019937
0.0146913
-0.000223254
0.0155762
-0.000197411
0.0157057
-0.000153488
0.0150677
-0.000101738
0.0137246
-6.09209e-05
0.011801
-3.09091e-05
0.0094541
-1.06679e-05
0.0068452
-2.72951e-06
0.0041126
1.92523e-07
0.00135915
7.60312e-05
7.61439e-05
0.000264832
-4.36918e-08
0.000264728
7.96353e-08
0.00109656
-4.80056e-11
-2.93274e-08
0.00184476
4.65923e-07
9.09986e-07
0.00585989
-3.44594e-06
0.00184317
-4.10073e-07
0.00109619
1.79482e-07
3.20272e-09
-0.000264686
0.00026486
-8.14545e-09
2.22049e-08
-7.61337e-05
7.61283e-05
-3.08327e-05
0.00859196
-0.000100837
0.011051
-0.000191769
0.0131427
-0.000248921
0.014717
-0.000241188
0.01562
-0.000200678
0.0157529
-0.000142566
0.0151086
-9.26298e-05
0.0137564
-5.1755e-05
0.0118219
-2.28125e-05
0.00946624
-6.47103e-06
0.00684895
7.64734e-07
0.00411203
1.74458e-06
0.0013574
7.60846e-05
7.61642e-05
0.000264944
-8.37792e-08
0.000264823
9.13748e-08
0.00109665
1.82999e-08
-1.17496e-08
0.00184354
5.43305e-07
1.63368e-06
0.00583331
-5.89039e-06
0.00184073
-6.41233e-07
0.00109613
1.08558e-07
7.08251e-09
-0.000264817
0.000264994
2.69898e-09
9.52839e-09
-7.61864e-05
7.61783e-05
-5.54103e-05
0.00854653
-0.000161267
0.0110204
-0.000260057
0.0131538
-0.000281212
0.014757
-0.000245549
0.0156648
-0.000184495
0.0157949
-0.000126452
0.0151424
-7.70968e-05
0.0137817
-4.12161e-05
0.0118403
-1.56532e-05
0.00947542
-3.02701e-06
0.00685274
1.66683e-06
0.00411211
2.07667e-06
0.00135533
7.60945e-05
7.61859e-05
0.00026509
-7.76202e-08
0.000264981
9.65927e-08
0.00109664
9.36799e-08
-6.32072e-08
0.00184241
-4.05151e-08
-1.86729e-07
0.00579014
-1.20513e-05
0.00183746
-9.48114e-07
0.00109587
5.04399e-08
8.08655e-08
-0.000264977
0.000265087
-1.55092e-09
1.18656e-08
-7.61954e-05
7.61981e-05
-0.000104386
0.00848965
-0.000242734
0.0110031
-0.00031079
0.0131834
-0.000287868
0.0147993
-0.000224179
0.0157045
-0.000159464
0.0158279
-0.000103654
0.0151689
-6.14804e-05
0.013802
-2.86365e-05
0.0118533
-9.31209e-06
0.00948171
1.02902e-06
0.00685337
5.27797e-06
0.0041089
2.47462e-06
0.00135285
7.61205e-05
7.62171e-05
0.000265226
-4.52299e-08
0.000265093
6.90129e-08
0.00109577
1.77205e-07
-1.26084e-07
0.00183808
-8.07465e-07
-5.21585e-06
0.00571895
-2.7976e-05
0.00182891
-2.87809e-06
0.00109473
-1.39868e-10
9.90085e-08
-0.000265129
0.000265173
5.66163e-09
4.55113e-08
-7.62289e-05
7.62274e-05
-0.000192376
0.00843929
-0.000330253
0.0110226
-0.000322602
0.0132182
-0.000256201
0.0148314
-0.00018863
0.0157337
-0.000129879
0.0158541
-8.22503e-05
0.0151897
-4.36886e-05
0.013817
-1.83871e-05
0.0118624
-2.30959e-06
0.00948505
3.69446e-06
0.00685496
7.32639e-06
0.00410405
2.85557e-06
0.00135
7.61822e-05
7.62512e-05
0.000265423
-7.26621e-08
0.000265195
1.02569e-07
0.0010939
1.92429e-07
-1.70411e-07
0.00182699
-3.29319e-06
-2.60471e-05
0.0056237
-7.10796e-05
0.00180777
-8.75455e-06
0.00109123
-3.12854e-07
9.78334e-08
-0.000265278
0.000265308
-2.97524e-08
1.52969e-08
-7.62967e-05
7.63024e-05
-0.000323405
0.00843245
-0.000348722
0.0110487
-0.000275656
0.0132376
-0.000206386
0.0148491
-0.000147305
0.0157511
-9.96289e-05
0.0158715
-5.8643e-05
0.0152047
-2.91743e-05
0.0138278
-8.48815e-06
0.0118685
4.03376e-06
0.00948471
1.0853e-05
0.00685143
7.65404e-06
0.00409925
3.33051e-06
0.00134667
7.62297e-05
7.63323e-05
0.000265528
-2.76969e-08
0.00026528
7.77948e-08
0.00108799
4.4619e-07
-4.90753e-07
0.00179579
-1.40688e-05
-9.55188e-05
0.00557063
-0.00017482
0.00175574
-3.10295e-05
0.00107988
-8.05882e-07
1.5813e-07
-0.000265326
0.000265047
-3.42516e-08
5.16696e-08
-7.63476e-05
7.63178e-05
-0.000362787
0.00844651
-0.000275403
0.0110485
-0.000206187
0.0132374
-0.000154054
0.0148559
-0.000108397
0.0157599
-6.94931e-05
0.0158823
-3.93072e-05
0.0152148
-1.37768e-05
0.0138331
2.9031e-06
0.0118697
1.15365e-05
0.00948402
1.19934e-05
0.00684709
9.21548e-06
0.00409337
3.86873e-06
0.0013428
7.62901e-05
7.63679e-05
0.000265541
-4.70951e-08
0.000264972
7.78897e-08
0.00106711
1.38969e-07
-1.43789e-06
0.00171991
-5.96918e-05
-0.000195673
0.00556407
-0.00016055
0.00167107
-0.000125982
0.00103992
-3.58897e-06
-2.52312e-07
-0.000265105
0.000264376
-7.66502e-08
2.48368e-08
-7.64196e-05
7.63853e-05
-0.000239568
0.00841068
-0.000179037
0.0110213
-0.000139261
0.0132226
-0.000103705
0.0148512
-7.40891e-05
0.0157645
-4.67595e-05
0.0158898
-2.06073e-05
0.0152216
-3.58487e-06
0.0138396
1.0878e-05
0.0118703
1.54109e-05
0.00948061
1.95224e-05
0.00683679
1.07554e-05
0.00408648
4.59863e-06
0.0013382
7.63382e-05
7.64161e-05
0.000264616
-1.01265e-07
0.000263206
-2.70996e-08
0.000992886
-2.17086e-06
-1.04866e-05
0.00164381
-0.000168407
-0.000106846
0.00547402
-4.26752e-05
0.00161037
-0.000127113
0.000918226
-3.70296e-05
-1.42915e-05
-0.000263023
0.000259955
-5.21396e-07
-6.94783e-08
-7.6441e-05
7.63643e-05
-0.000121164
0.0083528
-0.000106567
0.0109886
-8.96138e-05
0.0132085
-6.94654e-05
0.0148465
-4.85287e-05
0.0157662
-2.48167e-05
0.015894
-6.71416e-06
0.0152247
8.36651e-06
0.0138421
1.81579e-05
0.0118676
2.16348e-05
0.00947849
1.75245e-05
0.00683002
1.51978e-05
0.00407588
6.31538e-06
0.00133188
7.6263e-05
7.62359e-05
0.00025839
-6.05266e-07
0.000249634
-1.73122e-06
0.000872794
-5.94645e-05
-6.35106e-05
0.00155831
-5.47841e-05
-3.17066e-05
0.00538986
-5.29667e-06
0.00153571
-2.00748e-05
0.000809205
-1.86327e-05
-4.48908e-05
-0.000239157
0.000212084
-9.95643e-06
-3.81465e-06
-7.61665e-05
7.56451e-05
-5.66e-05
0.00830283
-5.9e-05
0.010958
-5.31303e-05
0.0131922
-4.1073e-05
0.0148391
-2.32549e-05
0.0157647
-7.11045e-06
0.0158944
6.77288e-06
0.0152263
2.06612e-05
0.0138396
2.58057e-05
0.0118634
2.83004e-05
0.00946772
2.55755e-05
0.00681964
1.53555e-05
0.00406684
5.77556e-06
0.00132611
7.50398e-05
7.33086e-05
0.00017467
-2.20501e-05
0.000148647
-3.74874e-05
0.000762016
-6.35373e-06
-1.24207e-06
0.00151247
-8.47063e-06
-1.10281e-05
0.00534252
1.76921e-06
0.00150977
-2.59553e-06
0.000742721
9.8201e-08
-8.77601e-07
-0.000103756
8.51231e-05
-6.94939e-05
5.95375e-05
-2.72919e-05
0.00827113
-3.28649e-05
0.0109377
-2.83961e-05
0.0131795
-1.93461e-05
0.0148352
-8.94239e-06
0.0157665
4.40511e-06
0.0158968
1.70692e-05
0.0152299
2.74025e-05
0.013838
3.15914e-05
0.0118601
3.28153e-05
0.00946048
2.79895e-05
0.006807
1.91246e-05
0.00405349
6.59585e-06
0.00131951
3.74874e-05
7.87694e-05
7.75273e-05
0.0007343
-1.94641e-07
1.45202e-07
0.00150011
-1.36262e-06
-4.99956e-06
0.00531708
3.14417e-06
0.00150177
1.03509e-07
0.000731643
1.45781e-07
-8.4124e-08
-7.66497e-05
7.67479e-05
-1.13095e-05
0.00824957
-1.38524e-05
0.0109232
-1.21837e-05
0.0131724
-4.03768e-06
0.0148303
6.74318e-06
0.0157642
1.83293e-05
0.0158955
2.92831e-05
0.0152281
3.54272e-05
0.0138342
3.98267e-05
0.0118531
4.1246e-05
0.00944722
3.18527e-05
0.00679428
2.15176e-05
0.00403857
8.51413e-06
0.001311
7.65533e-05
7.66985e-05
0.000730173
-1.85222e-08
1.25385e-07
0.0014969
-1.31996e-07
-2.80714e-06
0.00530569
2.89396e-06
0.00149962
4.26833e-07
0.000730211
9.552e-08
-3.03518e-08
-7.66144e-05
7.67601e-05
-3.36175e-06
0.00823908
-3.23694e-06
0.0109142
1.01913e-06
0.0131673
8.69428e-06
0.0148283
1.92426e-05
0.0157633
2.84665e-05
0.0158963
3.85228e-05
0.015225
4.40864e-05
0.0138299
4.8507e-05
0.0118458
4.35794e-05
0.0094355
3.72747e-05
0.00677852
2.15892e-05
0.0040255
8.0719e-06
0.00130293
7.67416e-05
7.6867e-05
0.00073002
-3.04805e-08
9.01e-08
0.0014967
1.12044e-07
-1.19281e-06
0.0053008
2.72146e-06
0.00149907
5.25481e-07
0.000730403
6.37332e-08
-1.96665e-08
-7.68367e-05
7.69322e-05
1.85515e-06
0.00823399
3.82241e-06
0.0109114
9.45816e-06
0.0131665
1.68017e-05
0.0148308
2.68029e-05
0.0157649
3.84611e-05
0.0158964
4.56751e-05
0.0152234
5.40489e-05
0.0138244
5.55771e-05
0.0118338
4.96715e-05
0.0094231
4.0817e-05
0.00675929
2.43893e-05
0.00400918
8.97513e-06
0.00129395
7.69017e-05
7.69918e-05
0.000730436
-4.30996e-09
8.25589e-08
0.00149755
3.28157e-07
-2.63913e-07
0.00529985
3.06587e-06
0.00149969
5.83915e-07
0.000730937
5.27592e-08
-2.77249e-08
-7.69721e-05
7.70359e-05
4.29854e-06
0.00823351
9.09092e-06
0.0109118
1.69187e-05
0.0131664
2.62732e-05
0.0148313
3.61878e-05
0.0157672
4.69638e-05
0.0158951
5.62817e-05
0.0152211
6.08433e-05
0.0138191
5.76905e-05
0.0118258
5.50913e-05
0.00940882
4.25171e-05
0.00674116
2.99095e-05
0.00398825
9.38341e-06
0.00128457
7.70315e-05
7.71141e-05
0.000731187
2.82142e-08
4.94371e-08
0.001499
4.24836e-07
-1.02049e-07
0.00530129
2.95865e-06
0.00150147
5.9731e-07
0.000731661
3.31156e-08
7.75159e-08
-7.70864e-05
7.71391e-05
7.49619e-06
0.00823511
1.43761e-05
0.0109143
2.25258e-05
0.0131702
3.38785e-05
0.0148336
4.61014e-05
0.0157681
5.55169e-05
0.0158959
6.36354e-05
0.0152183
6.92769e-05
0.0138075
7.20684e-05
0.0118088
6.28275e-05
0.00938851
5.28634e-05
0.00671821
3.05542e-05
0.00396707
9.96681e-06
0.0012746
7.71674e-05
7.72168e-05
0.000731999
3.12352e-08
5.50137e-08
0.00150093
4.37213e-07
8.16458e-07
0.00530547
2.50422e-06
0.00150326
6.24297e-07
0.000732577
2.0479e-08
-9.5718e-10
-7.72943e-05
7.73274e-05
8.98707e-06
0.0082405
1.70566e-05
0.0109198
2.74503e-05
0.0131766
4.08334e-05
0.0148389
5.21907e-05
0.0157714
6.49063e-05
0.0158946
7.52668e-05
0.0152124
7.91913e-05
0.0138004
8.15543e-05
0.0117901
7.24388e-05
0.00936894
5.44538e-05
0.00669431
3.43384e-05
0.0039427
1.34522e-05
0.00126115
7.73587e-05
7.74137e-05
0.000732964
7.2458e-09
4.28977e-08
0.00150346
6.15227e-07
1.09583e-06
0.00531078
2.57465e-06
0.0015053
6.72014e-07
0.000733535
2.44458e-08
2.92539e-08
-7.74127e-05
7.74332e-05
1.0416e-05
0.00824714
2.10087e-05
0.0109263
3.35066e-05
0.0131839
4.67038e-05
0.0148444
6.09689e-05
0.0157753
7.44573e-05
0.0158954
8.24833e-05
0.0152091
8.755e-05
0.0137944
8.47232e-05
0.0117778
8.01609e-05
0.00934323
6.13974e-05
0.00666725
3.77927e-05
0.00391836
2.77033e-05
0.00123345
7.74405e-05
7.74834e-05
0.000734059
3.32868e-08
5.76595e-08
0.00150573
6.60956e-07
1.25811e-06
0.00531762
2.32174e-06
0.00150737
9.38556e-07
0.000734698
2.7947e-08
5.08483e-09
-7.75126e-05
7.75371e-05
1.15293e-05
0.00825662
2.49092e-05
0.0109349
4.13145e-05
0.0131893
5.54989e-05
0.0148498
7.18018e-05
0.015778
8.23649e-05
0.0158955
9.35073e-05
0.0152031
9.78462e-05
0.0137813
9.6254e-05
0.0117617
8.60326e-05
0.0093186
6.80551e-05
0.00663699
5.83082e-05
0.00388776
5.46289e-05
7.75703e-05
7.7628e-05
0.000735265
3.47096e-08
5.89861e-08
0.00150787
7.538e-07
1.13503e-06
0.0053264
1.60913e-06
0.00150964
5.49671e-07
0.000736092
1.05608e-07
5.96713e-09
-7.76331e-05
7.7661e-05
1.30388e-05
0.00826849
2.79663e-05
0.0109482
4.50379e-05
0.0131998
6.32686e-05
0.0148584
7.91391e-05
0.0157812
9.3974e-05
0.015895
0.000103024
0.0151979
0.000106592
0.0137709
0.000103988
0.0117438
9.14599e-05
0.00929519
8.78049e-05
0.00660749
9.95998e-05
7.76958e-05
7.77547e-05
0.000736743
7.1731e-08
3.15132e-08
0.00151048
3.01142e-07
7.60747e-07
0.00533754
1.1387e-06
0.00151229
-2.04676e-07
0.000737235
3.10782e-08
2.65734e-08
-7.77607e-05
7.78663e-05
1.71581e-05
0.00827929
3.38395e-05
0.0109594
5.11742e-05
0.0132119
6.95111e-05
0.014868
8.68821e-05
0.0157883
0.000102861
0.0158952
0.00011251
0.015192
0.00011982
0.0137551
0.00011684
0.0117184
0.000114112
0.00926888
0.000129601
7.79381e-05
7.79696e-05
0.000737471
1.57797e-08
4.89945e-08
0.00151439
-1.33974e-06
1.47583e-06
0.00534811
5.12083e-06
0.00151747
-1.93645e-06
0.000737318
-9.40191e-10
-4.99992e-08
-7.79961e-05
7.80272e-05
2.07821e-05
0.00829235
3.69358e-05
0.0109736
5.79508e-05
0.0132234
7.84927e-05
0.0148764
9.82506e-05
0.0157929
0.000110969
0.0158967
0.00012308
0.0151887
0.000128375
0.0137436
0.000133959
0.0116986
0.000151194
7.8043e-05
7.8092e-05
0.000735933
2.29939e-08
2.20767e-08
0.00151548
5.19919e-06
-1.73305e-06
5.30954e-06
0.00535837
5.21254e-06
0.00151977
-4.04488e-07
1.22705e-06
0.000435305
-2.20324e-07
0.000298916
-4.53685e-09
-7.8042e-05
7.80411e-05
2.23379e-05
0.00830695
4.23323e-05
0.0109893
6.31424e-05
0.0132388
8.67773e-05
0.0148879
0.00010463
0.0157992
0.000121433
0.0158984
0.000130333
0.0151868
0.000143214
0.0137343
0.000159881
7.80641e-05
7.80861e-05
0.000456209
-1.57051e-05
0.000461279
-6.80304e-06
0.00152203
1.23639e-06
1.81726e-06
4.60135e-06
0.00537163
4.47432e-06
0.0015245
1.23607e-06
1.50322e-06
0.00046394
-3.06514e-06
0.000466091
-9.24371e-07
-7.80816e-05
7.78613e-05
0.000280374
2.83737e-06
2.42318e-05
0.00832505
4.66294e-05
0.0110058
7.13358e-05
0.0132542
9.45809e-05
0.0148979
0.000113695
0.015807
0.000130078
0.0158987
0.000146284
0.0151837
0.00016461
0.000274457
-8.86856e-07
0.000467025
3.02413e-07
0.000468318
5.24225e-07
0.00152681
1.01681e-06
1.28188e-06
4.83236e-06
0.0053865
4.52345e-06
0.00152944
7.64824e-07
1.07442e-06
0.000468913
6.41066e-07
0.000469605
8.11628e-07
0.000272438
-1.04548e-06
0.000272028
-5.14616e-07
8.06986e-05
2.76407e-05
0.00834404
5.1384e-05
0.0110257
7.85744e-05
0.0132702
0.000100832
0.0149108
0.000120615
0.0158164
0.000138891
0.015906
0.000158026
7.98118e-05
0.000272331
-5.42102e-10
0.000272751
1.04467e-07
0.000470026
5.95324e-07
0.00047089
4.17972e-07
0.0015325
7.77283e-07
9.9872e-07
5.19645e-06
0.00540399
4.95374e-06
0.00153515
1.05462e-06
8.19275e-07
0.000471244
4.11251e-07
0.000471752
5.66095e-07
0.000273231
1.60698e-07
0.000273897
1.45995e-07
7.87663e-05
7.82517e-05
3.04721e-05
0.00836495
5.78982e-05
0.0110464
8.48651e-05
0.0132862
0.00010611
0.0149253
0.000127258
0.0158281
0.000141313
7.82511e-05
7.83556e-05
0.000274308
1.84467e-07
0.000274591
1.34075e-07
0.000472114
4.15348e-07
0.000472652
4.61141e-07
0.0015385
1.04205e-06
8.03631e-07
5.88658e-06
0.00542321
5.3676e-06
0.00154154
1.11788e-06
7.92307e-07
0.000473331
3.75605e-07
0.000473779
3.71338e-07
0.000274905
9.75533e-08
0.000275372
9.89267e-08
7.85163e-05
7.86623e-05
3.50039e-05
0.00838785
6.45972e-05
0.0110667
9.0181e-05
0.0133021
0.000110817
0.0149417
0.000117607
7.88468e-05
7.89808e-05
0.000275694
9.37212e-08
0.000276029
1.26471e-07
0.000474242
5.79141e-07
0.000474664
3.81518e-07
0.0015453
1.22925e-06
8.97885e-07
6.63077e-06
0.00544539
6.19237e-06
0.00154857
1.21687e-06
8.8302e-07
0.000475449
3.3274e-07
0.000475839
4.02036e-07
0.000276348
5.62643e-08
0.000276627
9.21212e-08
7.90784e-05
7.91773e-05
4.05618e-05
0.00841188
7.1437e-05
0.0110854
9.10529e-05
0.0133219
9.15302e-05
7.9271e-05
7.93975e-05
0.000277082
1.24707e-07
0.00027737
9.26432e-08
0.000476448
6.20731e-07
0.000476932
4.14e-07
0.00155255
1.36337e-06
1.28361e-06
8.02856e-06
0.00547083
7.09668e-06
0.00155633
1.12596e-06
1.2855e-06
0.000477778
3.70778e-07
0.000478048
6.12729e-07
0.000277607
9.65342e-08
0.000277908
1.00564e-07
7.94538e-05
7.95459e-05
4.92871e-05
0.00843403
7.25436e-05
0.0111039
6.48784e-05
7.96706e-05
7.97632e-05
0.000278433
9.55748e-08
0.00027864
2.07071e-07
0.000478896
5.15136e-07
0.000479706
4.73848e-07
0.00156159
1.30654e-06
1.46797e-06
1.04789e-05
0.00549941
1.02307e-05
0.00156577
1.42116e-06
1.49197e-06
0.000480343
4.88727e-07
0.000480948
6.81128e-07
0.000278929
8.2166e-08
0.00027943
1.1146e-07
7.98598e-05
7.99603e-05
5.3998e-05
0.00845258
4.22008e-05
8.00559e-05
8.0263e-05
0.000279802
1.43584e-07
0.000280159
1.16101e-07
0.000481669
5.85181e-07
0.000482576
5.60467e-07
0.00157256
1.72974e-06
1.95665e-06
1.45566e-05
0.00552306
1.57918e-05
0.00157826
2.16572e-06
2.36407e-06
0.000483481
5.16191e-07
0.000484133
8.40167e-07
0.000280531
1.17333e-07
0.000281133
7.87409e-08
8.03452e-05
8.04566e-05
2.81299e-05
8.06002e-05
8.07163e-05
0.000281566
1.52335e-07
0.000281992
1.3454e-07
0.000485143
7.19987e-07
0.000486356
7.43973e-07
0.00158668
2.77039e-06
3.36747e-06
3.1106e-05
1.23412e-05
0.00159369
3.8195e-06
4.96644e-06
0.000487565
9.56554e-07
0.000488612
1.31729e-06
0.00028237
1.3795e-07
0.000283067
1.43395e-07
8.08336e-05
8.09124e-05
8.10647e-05
8.11992e-05
0.000283601
1.86411e-07
0.000284169
1.75283e-07
0.000489974
1.40752e-06
0.000491739
1.6034e-06
0.00160596
8.05296e-06
1.07783e-05
1.60966e-05
7.83627e-06
0.000493752
1.80617e-06
0.000495893
2.82517e-06
0.000284909
2.17244e-07
0.000285935
2.91356e-07
8.13372e-05
8.14806e-05
8.1667e-05
8.18423e-05
0.000286991
3.50817e-07
0.00028821
3.84373e-07
0.000499027
4.91888e-06
0.000502314
7.49202e-06
0.000506704
1.17058e-05
1.12502e-05
0.000289533
4.83023e-07
0.00029163
7.28825e-07
8.20595e-05
8.23509e-05
8.27017e-05
8.30861e-05
0.000295071
1.47782e-06
0.000299181
3.3815e-06
0.000303441
7.4457e-06
1.53052e-05
8.35691e-05
8.42979e-05
8.57758e-05
8.91573e-05
9.6603e-05
-4.89407e-06
4.89404e-06
2.95051e-06
-7.84475e-06
-2.10639e-05
6.82598e-06
1.91319e-05
6.51641e-06
-2.46297e-05
1.43519e-06
-9.27998e-06
1.47925e-05
8.79348e-05
-8.93849e-05
5.46551e-06
1.36661e-05
4.28779e-06
-2.74824e-05
6.5359e-07
-9.93361e-06
-1.0978e-05
0.00021618
1.86194e-05
-0.000209031
-2.42118e-06
1.24067e-05
8.34145e-05
-1.92655e-06
-9.41487e-05
1.1245e-05
-2.87554e-05
2.91287e-07
-1.02249e-05
-6.06795e-06
0.000214484
2.01716e-05
-0.000172498
1.50445e-05
0.000176082
-7.76861e-06
2.10194e-05
-0.000217894
-4.38565e-06
-9.41685e-07
7.85858e-05
-2.97977e-07
-1.47867e-06
-9.97814e-05
-6.57539e-07
1.03032e-05
-2.99428e-05
1.54014e-07
-1.03791e-05
-3.99507e-06
0.0001982
2.26741e-05
-2.40069e-06
-0.000171371
1.90411e-05
-0.00100708
1.33748e-05
0.00100874
2.19358e-05
0.000175164
2.15505e-05
-0.000232565
-2.85015e-06
-4.03158e-06
-0.000103032
-4.00588e-07
-7.34479e-07
7.49437e-05
-2.20206e-07
-1.33033e-07
1.00052e-05
-3.04465e-05
1.85188e-07
-1.05644e-05
0.000176804
2.56383e-05
-2.4074e-06
-1.83357e-06
-0.000177535