/*--------------------------------*- C++ -*----------------------------------*\
| =========                 |                                                 |
| \\      /  F ield         | OpenFOAM: The Open Source CFD Toolbox           |
|  \\    /   O peration     | Version:  v1912                                 |
|   \\  /    A nd           | Website:  www.openfoam.com                      |
|    \\/     M anipulation  |                                                 |
\*---------------------------------------------------------------------------*/
FoamFile
{
    version     2.0;
    format      ascii;
    class       volVectorField;
    location    "190";
    object      U;
}
// * * * * * * * * * * * * * * * * * * * * * * * * * * * * * * * * * * * * * //

dimensions      [0 1 -1 0 0 0 0];


internalField   nonuniform List<vector> 
3673
(
(0.0768993 0.0259996 -6.89899e-22)
(0.230842 0.0765215 7.20974e-25)
(0.0763853 0.0258279 0)
(0.382409 0.124321 0)
(0.229394 0.0760477 -7.21295e-25)
(0.0758972 0.0256634 0)
(0.526576 0.167968 0)
(0.380114 0.123583 0)
(0.227978 0.0755803 0)
(0.0754109 0.0255025 -5.14464e-22)
(0.656666 0.205621 0)
(0.523564 0.167009 0)
(0.377851 0.122854 0)
(0.226577 0.0751234 0)
(0.0749371 0.0253441 5.1154e-22)
(0.765049 0.235217 0)
(0.652998 0.204458 5.58102e-25)
(0.520558 0.166057 0)
(0.375629 0.122143 0)
(0.225215 0.0746748 -4.93842e-22)
(0.0744657 0.0251863 0)
(0.844279 0.254879 0)
(0.760805 0.233869 2.93122e-22)
(0.649373 0.203317 -5.57583e-25)
(0.517601 0.16512 0)
(0.373418 0.121429 0)
(0.223844 0.07422 0)
(0.0739922 0.0250296 0)
(0.888098 0.263193 -2.92762e-22)
(0.839476 0.253345 -2.74851e-22)
(0.756605 0.232546 0)
(0.645756 0.20218 2.66208e-22)
(0.514652 0.164184 0)
(0.37122 0.120717 -4.41523e-25)
(0.222474 0.0737695 0)
(0.073526 0.0248748 -7.13678e-22)
(0.892273 0.259434 5.59065e-24)
(0.882679 0.261454 5.26071e-25)
(0.834703 0.251839 0)
(0.752422 0.231238 1.57181e-23)
(0.642166 0.201055 0)
(0.511695 0.163247 0)
(0.369018 0.120007 4.41472e-25)
(0.221118 0.0733213 3.63487e-22)
(0.073056 0.024718 0)
(0.855293 0.24376 2.94121e-22)
(0.886152 0.257472 2.71132e-22)
(0.877288 0.259753 -2.62693e-22)
(0.829959 0.250359 -2.41614e-22)
(0.748228 0.229932 -4.43021e-25)
(0.638549 0.199921 0)
(0.508734 0.162306 0)
(0.366818 0.119294 -3.73285e-25)
(0.21974 0.0728668 0)
(0.0725905 0.024562 0)
(0.77889 0.217336 5.94949e-25)
(0.848394 0.241561 -2.77228e-22)
(0.880046 0.255553 2.61714e-22)
(0.871931 0.258088 2.48036e-22)
(0.825207 0.248886 0)
(0.744035 0.228627 4.42743e-25)
(0.634915 0.198781 0)
(0.505767 0.161362 0)
(0.364618 0.118582 1.05894e-24)
(0.218385 0.0724181 0)
(0.0721289 0.0244054 0)
(0.668063 0.182273 -3.59339e-24)
(0.771185 0.214905 -2.61951e-22)
(0.841483 0.239417 -2.57767e-22)
(0.874007 0.253698 -2.17218e-24)
(0.866608 0.256449 9.37435e-25)
(0.820456 0.247414 -2.21227e-22)
(0.739808 0.22731 0)
(0.631272 0.197634 0)
(0.5028 0.160414 0)
(0.362396 0.117858 -1.00072e-24)
(0.217038 0.0719707 0)
(0.0716689 0.0242482 0)
(0.530528 0.141361 2.67477e-24)
(0.659569 0.179634 3.33832e-23)
(0.763371 0.21253 2.75228e-22)
(0.834709 0.237385 -5.0925e-22)
(0.868084 0.251898 1.89479e-24)
(0.861318 0.254819 2.13945e-22)
(0.815691 0.245938 0)
(0.735554 0.225983 0)
(0.627602 0.196478 -3.75421e-22)
(0.499811 0.159459 0)
(0.360208 0.117147 3.38116e-22)
(0.2157 0.0715228 3.09428e-22)
(0.071219 0.0240999 0)
(0.375717 0.0975907 0)
(0.521224 0.138581 2.93137e-22)
(0.650724 0.177009 2.59936e-22)
(0.755842 0.210354 2.7137e-22)
(0.828198 0.235446 -2.40626e-22)
(0.862276 0.250126 -1.65505e-24)
(0.856048 0.253198 0)
(0.810906 0.244457 -7.18947e-25)
(0.731295 0.224657 3.41992e-22)
(0.623941 0.195326 0)
(0.496845 0.158509 -2.86926e-22)
(0.358039 0.116435 -2.51975e-22)
(0.214374 0.0710803 0)
(0.0707629 0.0239494 0)
(0.365467 0.09481 -5.86307e-23)
(0.250372 0.0639174 -2.1517e-24)
(0.253613 0.0648107 -1.39969e-22)
(0.510913 0.135628 -3.0525e-22)
(0.642437 0.174727 2.20619e-24)
(0.748876 0.208337 2.52555e-22)
(0.821977 0.233577 -1.68207e-24)
(0.856574 0.248388 1.65692e-24)
(0.8508 0.251585 1.43699e-24)
(0.806124 0.242978 1.39152e-24)
(0.72702 0.223323 -9.89183e-25)
(0.620271 0.194164 0)
(0.493885 0.157555 0)
(0.355871 0.115724 2.86552e-22)
(0.213061 0.0706424 0)
(0.0703163 0.0237991 0)
(0.351825 0.0911933 6.67379e-23)
(0.23802 0.0606317 9.71666e-23)
(0.245393 0.0627843 0)
(0.167026 0.0421299 2.17241e-24)
(0.16926 0.0426242 1.01041e-22)
(0.255973 0.0652907 0)
(0.501845 0.133208 -5.63044e-26)
(0.635249 0.172709 3.96712e-24)
(0.742441 0.206437 2.2557e-22)
(0.815979 0.231773 3.24771e-24)
(0.85096 0.24668 1.87328e-22)
(0.845582 0.249984 -1.79688e-22)
(0.801339 0.241498 -9.87481e-25)
(0.722756 0.221989 3.1502e-25)
(0.61662 0.193007 3.05034e-22)
(0.490966 0.156615 -2.43569e-22)
(0.353742 0.115024 -2.64668e-22)
(0.211749 0.0702049 -2.32598e-22)
(0.06988 0.0236527 0)
(0.341737 0.0884142 4.77076e-24)
(0.219768 0.0561556 -2.42038e-22)
(0.228004 0.057828 7.71515e-23)
(0.155306 0.0391534 0)
(0.163276 0.0412328 2.33904e-23)
(0.103479 0.0258827 -3.80626e-23)
(0.104297 0.0260653 7.87062e-23)
(0.105259 0.0262637 3.24355e-25)
(0.170683 0.0429532 0)
(0.104861 0.0261555 4.03941e-23)
(0.494873 0.131255 2.8291e-22)
(0.628997 0.170895 -2.52197e-22)
(0.736435 0.204663 2.03657e-22)
(0.810187 0.230038 -1.96638e-22)
(0.845436 0.245004 4.1562e-24)
(0.840395 0.248395 0)
(0.796572 0.240023 3.1452e-25)
(0.718505 0.220659 -2.77373e-22)
(0.612994 0.191855 2.85163e-22)
(0.488055 0.155674 2.24982e-22)
(0.351643 0.114334 1.89063e-22)
(0.21048 0.0697794 -2.12807e-22)
(0.069452 0.023509 -2.30085e-22)
(0.335896 0.0866062 -3.25925e-22)
(0.211806 0.0537099 1.83967e-24)
(0.214621 0.0545972 0)
(0.130974 0.0330753 1.12294e-22)
(0.141099 0.0352047 -6.5663e-23)
(0.0908943 0.0224477 2.3323e-24)
(0.0968791 0.0244711 -1.88172e-24)
(0.102287 0.025694 0)
(0.100292 0.0251732 -1.78188e-25)
(0.0606189 0.0150544 5.30436e-25)
(0.0610764 0.0151398 -3.60822e-23)
(0.105628 0.026341 -3.24435e-25)
(0.0615683 0.0152464 3.5822e-23)
(0.105922 0.0264196 -4.31404e-23)
(0.0613431 0.0151961 0)
(0.489348 0.129674 -2.4084e-22)
(0.623376 0.169268 -2.26391e-22)
(0.730754 0.202996 0)
(0.804562 0.228358 3.58817e-22)
(0.839995 0.243357 -6.74278e-25)
(0.835247 0.246818 0)
(0.791832 0.238555 1.48362e-22)
(0.714285 0.219335 -2.59331e-22)
(0.60942 0.190716 -2.3853e-25)
(0.485215 0.154752 2.49245e-22)
(0.349559 0.113643 1.73347e-22)
(0.209235 0.0693607 -6.91858e-23)
(0.069028 0.0233671 0)
(0.331981 0.0855246 2.8498e-22)
(0.208523 0.0527065 -1.6621e-24)
(0.20981 0.0530685 -1.84217e-24)
(0.125332 0.0312801 1.57753e-24)
(0.126993 0.0318246 -2.69569e-23)
(0.0621078 0.0156709 3.5444e-23)
(0.064745 0.0163769 -3.88862e-23)
(0.0798465 0.0188009 -6.21177e-24)
(0.0701595 0.0179078 5.64019e-25)
(0.0516478 0.0121035 2.1447e-24)
(0.0562289 0.0140699 0)
(0.0599238 0.0149291 0)
(0.0586703 0.0146866 -3.31073e-23)
(0.0195704 0.00481539 -1.99281e-25)
(0.0196896 0.0048391 1.99382e-25)
(0.0617567 0.015297 -3.65262e-23)
(0.019831 0.0048727 -4.48186e-25)
(0.0619218 0.0153314 3.94922e-23)
(0.0197821 0.00486528 -2.68805e-23)
(0.484642 0.128357 -2.20435e-22)
(0.618216 0.167792 1.93878e-22)
(0.725343 0.201414 -3.63283e-22)
(0.799095 0.226729 -1.63891e-22)
(0.83463 0.241734 -1.52822e-22)
(0.830141 0.245255 -2.88901e-22)
(0.787122 0.237095 -2.75716e-25)
(0.710108 0.218021 0)
(0.605887 0.189583 -2.19059e-22)
(0.482403 0.153832 0)
(0.347539 0.112973 1.58754e-22)
(0.208012 0.0689485 0)
(0.0686145 0.0232284 7.31828e-23)
(0.328822 0.0847431 3.07478e-22)
(0.206499 0.0522506 1.5689e-24)
(0.207342 0.0524441 9.85322e-23)
(0.123626 0.0308155 2.28721e-23)
(0.124301 0.0310003 2.19809e-23)
(0.0599564 0.0148355 -3.10326e-23)
(0.0601518 0.0148995 -5.1095e-25)
(0.0609961 0.0151785 3.58482e-23)
(0.0604255 0.0149946 -3.24673e-23)
(0.020088 0.00506766 -2.85459e-23)
(0.0214901 0.00561522 4.12794e-23)
(0.0346537 0.00597876 -1.81355e-24)
(0.023784 0.00626744 -1.01882e-23)
(0.0168958 0.00433378 -3.61301e-23)
(0.0181022 0.00463372 -2.43425e-23)
(0.0193824 0.00478172 -2.39954e-23)
(0.0190079 0.00472372 -2.4226e-23)
(0.0198805 0.00488841 2.10901e-25)
(0.0199271 0.00489665 2.94567e-23)
(0.480452 0.127209 -2.22965e-22)
(0.61339 0.16642 1.93657e-22)
(0.720138 0.199895 3.35822e-22)
(0.793733 0.225135 7.49537e-24)
(0.829329 0.240134 1.45555e-22)
(0.825082 0.243706 0)
(0.782466 0.235648 0)
(0.705993 0.216719 0)
(0.60241 0.188465 2.3232e-22)
(0.479656 0.152932 2.18059e-22)
(0.345563 0.112313 0)
(0.206817 0.068544 0)
(0.0682075 0.0230924 0)
(0.326049 0.0840574 5.36549e-23)
(0.204796 0.0518663 -8.51302e-23)
(0.205531 0.052045 -5.36005e-24)
(0.122569 0.030585 0)
(0.123053 0.0306983 -9.14391e-23)
(0.0594721 0.014704 2.85172e-23)
(0.0595407 0.0147334 -2.97733e-23)
(0.0597682 0.0147871 2.97201e-23)
(0.0596508 0.0147627 -3.0699e-23)
(0.0192391 0.00472939 4.38047e-23)
(0.0192988 0.0047512 -2.20494e-23)
(0.0195903 0.00485041 0)
(0.0193838 0.00477555 4.62816e-23)
(0.00961287 0.00153137 2.6438e-24)
(0.476605 0.126161 -1.59762e-24)
(0.608797 0.16512 -3.40797e-22)
(0.715087 0.19843 1.61406e-22)
(0.788476 0.223577 0)
(0.824093 0.238554 0)
(0.820075 0.242172 0)
(0.777865 0.234213 1.21067e-22)
(0.701933 0.215432 -9.60631e-23)
(0.59901 0.187364 -1.918e-22)
(0.476975 0.152048 -2.04484e-22)
(0.343629 0.111666 1.86372e-22)
(0.205645 0.0681491 0)
(0.067813 0.0229619 -6.02982e-23)
(0.323488 0.0834075 -4.78805e-23)
(0.203226 0.0514856 -8.22506e-23)
(0.203901 0.0516627 -7.95551e-23)
(0.121639 0.0303791 9.71888e-23)
(0.122096 0.0304882 -8.24202e-23)
(0.0590829 0.014617 0)
(0.059151 0.0146464 -2.61345e-23)
(0.0593404 0.0146819 2.72839e-23)
(0.0592547 0.0146655 2.68828e-23)
(0.0191044 0.00469264 -2.31495e-25)
(0.0191201 0.00470372 -2.05394e-23)
(0.0191927 0.00471549 -2.64052e-25)
(0.0191428 0.00470779 2.08458e-23)
(0.472959 0.125173 1.88227e-22)
(0.604384 0.16388 -1.50291e-22)
(0.710152 0.197 -1.38122e-22)
(0.783298 0.222044 1.2994e-22)
(0.818919 0.236994 1.23843e-22)
(0.815125 0.24065 8.78537e-25)
(0.773327 0.232793 -1.08165e-22)
(0.697956 0.21416 0)
(0.595687 0.186281 1.79826e-22)
(0.474373 0.151185 -1.58036e-22)
(0.341756 0.111036 -1.48593e-25)
(0.204515 0.0677663 0)
(0.0674227 0.0228352 5.64827e-23)
(0.321055 0.082784 8.03573e-25)
(0.201728 0.0511131 6.8441e-24)
(0.202381 0.0512874 7.00937e-23)
(0.120732 0.0301595 1.61446e-23)
(0.121172 0.0302723 9.0158e-23)
(0.0586753 0.0145239 -2.34332e-23)
(0.0587485 0.0145549 -2.30618e-23)
(0.0589447 0.0145937 8.19235e-25)
(0.0588574 0.0145753 -1.00369e-24)
(0.0189898 0.00466501 1.78594e-23)
(0.0190092 0.00467678 1.95909e-25)
(0.0190716 0.00468481 -1.97063e-23)
(0.019029 0.00467887 -2.8687e-25)
(0.469466 0.124228 1.72065e-22)
(0.600094 0.162672 1.53219e-22)
(0.705314 0.1956 -1.38997e-22)
(0.778188 0.220531 -1.28255e-22)
(0.813798 0.235445 -3.58758e-24)
(0.810232 0.239141 1.09967e-22)
(0.768863 0.231385 0)
(0.694067 0.212906 0)
(0.592462 0.185219 -1.94822e-22)
(0.471821 0.150331 0)
(0.339912 0.110412 1.48502e-25)
(0.203393 0.0673866 -1.46616e-22)
(0.0670241 0.0227 -5.80798e-23)
(0.318707 0.0821729 3.68165e-23)
(0.200268 0.0507454 -5.8405e-23)
(0.2009 0.0509151 6.15975e-23)
(0.11985 0.0299437 6.2109e-23)
(0.120288 0.0300554 -5.03134e-23)
(0.0582567 0.0144214 0)
(0.0583298 0.0144516 -4.10649e-23)
(0.0585309 0.014496 0)
(0.0584393 0.0144755 -1.01625e-24)
(0.0188609 0.00463442 1.1981e-25)
(0.0188848 0.00464685 1.65965e-23)
(0.018954 0.00465699 3.45948e-23)
(0.0189094 0.00465014 -2.84469e-25)
(0.466084 0.123309 2.72228e-25)
(0.595895 0.161492 -1.2402e-22)
(0.700558 0.194225 1.1696e-22)
(0.773125 0.219031 -1.19016e-22)
(0.808719 0.233906 -1.10183e-22)
(0.805405 0.237642 -1.02107e-22)
(0.764486 0.229992 1.85191e-25)
(0.690267 0.211669 1.77296e-22)
(0.589307 0.184173 0)
(0.469349 0.1495 0)
(0.338126 0.109808 1.1902e-22)
(0.202275 0.0670064 0)
(0.0666375 0.0225694 -5.81016e-26)
(0.316422 0.0815752 -3.07073e-23)
(0.198842 0.0503787 -5.10397e-23)
(0.199465 0.050549 -5.9619e-23)
(0.118987 0.0297306 4.222e-23)
(0.119417 0.0298392 -8.31228e-23)
(0.0578371 0.0143195 0)
(0.0579146 0.0143499 -1.74356e-23)
(0.0581148 0.0143939 -1.84886e-23)
(0.0580248 0.0143739 -1.90157e-23)
(0.0187254 0.00460082 1.36312e-23)
(0.0187518 0.00461322 2.59732e-25)
(0.0188214 0.00462538 1.48985e-23)
(0.0187762 0.00461839 -2.96489e-23)
(0.462793 0.122414 2.24524e-23)
(0.591768 0.160331 -1.30036e-22)
(0.695837 0.192861 -2.13802e-25)
(0.768106 0.217544 0)
(0.803692 0.232376 1.01968e-22)
(0.800641 0.236151 0)
(0.760199 0.228614 9.15489e-23)
(0.686569 0.210455 -1.7688e-25)
(0.586235 0.183149 0)
(0.466919 0.148682 0)
(0.336338 0.109204 0)
(0.201178 0.0666332 -1.46016e-22)
(0.066276 0.0224436 0)
(0.314191 0.0809882 1.12099e-22)
(0.197449 0.0500236 5.06692e-23)
(0.198065 0.0501901 0)
(0.118145 0.0295171 3.71414e-23)
(0.118565 0.0296253 -1.12209e-23)
(0.0574293 0.0142186 0)
(0.0575003 0.014249 1.58646e-23)
(0.0576974 0.0142911 1.03554e-24)
(0.0576067 0.0142713 3.18508e-23)
(0.0185895 0.00456784 1.17515e-23)
(0.0186169 0.00458014 2.64365e-25)
(0.0186865 0.00459238 2.64001e-23)
(0.0186414 0.00458545 0)
(0.459549 0.121528 0)
(0.587692 0.159185 0)
(0.691143 0.191503 1.83844e-26)
(0.763089 0.21605 1.83842e-25)
(0.798692 0.230841 3.79299e-25)
(0.795948 0.234666 -8.89856e-23)
(0.756001 0.22725 0)
(0.682954 0.209258 0)
(0.583232 0.182142 8.59363e-23)
(0.464538 0.147878 0)
(0.334578 0.108603 1.1844e-22)
(0.200085 0.0662518 1.19146e-25)
(0.0658813 0.0223088 -1.02622e-22)
(0.312014 0.080413 0)
(0.196093 0.0496743 6.57291e-24)
(0.196694 0.0498379 0)
(0.117317 0.02931 -8.73391e-24)
(0.117732 0.0294162 -1.90848e-23)
(0.0570229 0.0141175 0)
(0.0570949 0.0141466 8.1154e-25)
(0.0572901 0.0141902 1.45241e-23)
(0.0572019 0.0141696 1.31561e-23)
(0.0184599 0.00453575 0)
(0.0184843 0.00454865 0)
(0.018551 0.0045592 2.27868e-23)
(0.0185044 0.00455251 -2.21742e-23)
(0.456356 0.120657 -9.53363e-23)
(0.583616 0.158037 0)
(0.686439 0.190139 8.88011e-23)
(0.758075 0.21455 -1.83769e-25)
(0.793724 0.2293 0)
(0.791321 0.233182 0)
(0.75189 0.225899 0)
(0.679425 0.208081 -7.80574e-23)
(0.580295 0.181153 0)
(0.462157 0.147069 0)
(0.332833 0.108001 0)
(0.198978 0.0658677 9.54922e-23)
(0.0654678 0.0221729 -1.97086e-22)
(0.309845 0.0798394 1.10166e-22)
(0.194758 0.0493314 3.1518e-23)
(0.195355 0.0494925 1.40611e-25)
(0.116511 0.0291063 2.78215e-23)
(0.116916 0.0292098 -7.87033e-24)
(0.0566227 0.01402 0)
(0.0566964 0.014046 1.14809e-23)
(0.0568846 0.0140898 8.8493e-25)
(0.0568132 0.0140736 9.77089e-25)
(0.0183268 0.00450317 0)
(0.0183526 0.00451551 2.53853e-25)
(0.0184204 0.00452745 0)
(0.0183766 0.00452023 -2.77924e-25)
(0.453159 0.119783 -5.5179e-25)
(0.579519 0.156886 -9.85759e-23)
(0.681687 0.18876 0)
(0.753023 0.213023 0)
(0.788768 0.227742 2.8963e-25)
(0.786758 0.231699 0)
(0.747859 0.224564 0)
(0.675957 0.20692 1.54348e-25)
(0.577374 0.180167 -8.21208e-23)
(0.459805 0.146266 0)
(0.331047 0.107387 1.64393e-22)
(0.197852 0.0654816 1.05387e-22)
(0.0650543 0.0220319 9.65914e-23)
(0.307712 0.0792743 -1.79143e-23)
(0.193444 0.0489944 2.60363e-23)
(0.194036 0.0491535 -2.87147e-23)
(0.115718 0.0289071 -2.96529e-23)
(0.116119 0.029008 -1.31086e-23)
(0.0562378 0.0139242 0)
(0.0563093 0.0139492 9.57415e-24)
(0.0564915 0.0139914 0)
(0.056424 0.0139761 9.72249e-25)
(0.0181948 0.00447221 0)
(0.0182338 0.00448532 -7.45158e-24)
(0.0182876 0.00449542 2.96512e-25)
(0.0182473 0.00448856 8.13001e-24)
(0.449938 0.118905 3.53496e-25)
(0.575357 0.155714 0)
(0.676827 0.187337 5.46818e-25)
(0.747908 0.211455 0)
(0.783813 0.226158 -6.55721e-23)
(0.782248 0.230219 6.95095e-23)
(0.743893 0.223246 -1.48268e-25)
(0.672532 0.205772 7.46795e-23)
(0.57446 0.17918 -3.0709e-25)
(0.457432 0.145454 -1.39105e-22)
(0.329262 0.106769 0)
(0.196686 0.0650731 0)
(0.0646358 0.0218907 -2.52087e-22)
(0.305573 0.0787043 -1.49147e-23)
(0.192144 0.0486553 -9.78036e-26)
(0.192731 0.0488152 5.28389e-23)
(0.114939 0.0287129 -2.93046e-23)
(0.115334 0.0288101 1.64849e-23)
(0.0558562 0.0138299 0)
(0.0559272 0.013854 0)
(0.0561073 0.013895 9.14856e-25)
(0.0560389 0.01388 9.53711e-25)
(0.0180728 0.00444228 5.72258e-24)
(0.0181102 0.00445492 4.89543e-26)
(0.0181623 0.00446427 6.6143e-24)
(0.0181232 0.0044575 1.31155e-23)
(0.446644 0.118003 0)
(0.57103 0.154495 0)
(0.671803 0.18585 -5.8726e-23)
(0.742687 0.209824 1.23169e-22)
(0.778846 0.224547 -6.96954e-23)
(0.777781 0.228749 -6.72133e-23)
(0.739972 0.221944 -1.42371e-25)
(0.669112 0.204624 7.76862e-23)
(0.571539 0.178187 -8.06255e-23)
(0.455035 0.144623 0)
(0.327432 0.106128 0)
(0.195515 0.0646619 1.30016e-22)
(0.064214 0.0217454 1.30353e-22)
(0.303382 0.0781206 0)
(0.190868 0.0483199 -1.52676e-23)
(0.191459 0.0484837 2.4166e-23)
(0.11418 0.028519 -3.53401e-24)
(0.114568 0.0286167 -2.62147e-23)
(0.0554869 0.0137396 0)
(0.0555535 0.0137623 6.18139e-24)
(0.0557318 0.0138019 6.8689e-24)
(0.0556643 0.0137864 6.6854e-24)
(0.0179484 0.0044119 4.45821e-24)
(0.0179862 0.00442434 0)
(0.0180386 0.00443358 1.08604e-23)
(0.0179977 0.00442671 5.44176e-24)
(0.4432 0.117069 -5.20034e-23)
(0.566445 0.153197 6.48349e-23)
(0.666527 0.184254 -5.95795e-23)
(0.737317 0.208113 0)
(0.773873 0.222931 6.75129e-23)
(0.773355 0.227298 0)
(0.736071 0.220652 -1.45267e-22)
(0.665696 0.203473 7.28691e-23)
(0.568593 0.177175 -8.08797e-23)
(0.452595 0.143773 0)
(0.325568 0.10547 0)
(0.194317 0.0642361 1.95632e-22)
(0.0637602 0.0215935 2.68068e-23)
(0.301116 0.0775193 5.09771e-23)
(0.189577 0.0479836 1.03787e-23)
(0.190186 0.048151 0)
(0.113431 0.0283278 9.8348e-24)
(0.113807 0.0284217 -5.81196e-24)
(0.0551201 0.0136467 0)
(0.0551902 0.0136684 4.54901e-24)
(0.0553604 0.013711 5.3067e-24)
(0.0552951 0.0136973 -4.3722e-24)
(0.0178319 0.00438336 3.32303e-24)
(0.0178656 0.00439524 2.96142e-26)
(0.0179183 0.00440424 4.08833e-24)
(0.0178774 0.00439671 3.8834e-24)
(0.439448 0.116054 6.56914e-25)
(0.561418 0.151744 -3.54194e-23)
(0.660875 0.182499 0)
(0.731823 0.206353 4.29763e-23)
(0.768912 0.221331 -1.22854e-25)
(0.768967 0.225871 1.35312e-22)
(0.732181 0.219361 5.68131e-25)
(0.662249 0.202304 1.48494e-22)
(0.56561 0.176143 0)
(0.450102 0.142897 -3.34471e-25)
(0.32366 0.104793 -1.58133e-22)
(0.193078 0.0637981 4.88743e-23)
(0.0632817 0.0214326 2.01879e-22)
(0.298627 0.0768633 2.27085e-24)
(0.188276 0.0476395 0)
(0.188888 0.0478099 2.38814e-23)
(0.112693 0.0281395 -9.53605e-24)
(0.113064 0.0282315 1.71571e-24)
(0.0547628 0.0135588 2.84508e-24)
(0.0548351 0.0135798 3.05311e-24)
(0.0549985 0.013619 9.65762e-25)
(0.0549367 0.0136064 3.67188e-24)
(0.0177106 0.00435181 2.15475e-24)
(0.0177474 0.00436326 0)
(0.0177943 0.00437546 2.85868e-24)
(0.0177645 0.00437219 2.10134e-25)
(0.43513 0.114884 4.04305e-23)
(0.555745 0.150058 -1.47115e-25)
(0.654864 0.1806 -4.6179e-23)
(0.72627 0.204598 4.49395e-23)
(0.764011 0.219779 -1.23144e-22)
(0.764623 0.22446 0)
(0.728285 0.218059 -6.96214e-23)
(0.658773 0.201114 0)
(0.562563 0.17508 0)
(0.447568 0.141999 3.34394e-25)
(0.321715 0.104098 -3.78249e-22)
(0.191789 0.0633396 -1.87336e-22)
(0.062795 0.0212668 -2.0582e-22)
(0.295645 0.076107 0)
(0.186836 0.0472642 6.3198e-24)
(0.187561 0.047462 -9.99002e-24)
(0.111943 0.0279466 -7.07295e-26)
(0.112331 0.0280431 -7.908e-24)
(0.0544229 0.0134725 1.35375e-24)
(0.0544892 0.0134938 -1.6418e-24)
(0.0546484 0.0135325 0)
(0.0545888 0.0135178 -2.20793e-24)
(0.0175939 0.00432404 1.07238e-24)
(0.017632 0.00433484 0)
(0.0176755 0.00434579 3.88293e-24)
(0.0176476 0.00434305 -1.90477e-24)
(0.429849 0.113418 0)
(0.549206 0.148031 1.46701e-25)
(0.648615 0.178668 -4.86431e-23)
(0.72082 0.202933 6.02508e-23)
(0.759228 0.21827 -9.28246e-25)
(0.760321 0.223052 0)
(0.724378 0.216742 -1.06213e-24)
(0.655249 0.199898 5.83382e-25)
(0.559475 0.173992 0)
(0.444988 0.141076 3.62312e-22)
(0.319735 0.103383 3.90645e-25)
(0.190452 0.0628584 4.36056e-25)
(0.0622967 0.0210995 2.40229e-23)
(0.291624 0.0750708 3.99889e-24)
(0.185015 0.0468234 -7.94126e-28)
(0.186005 0.0470744 7.93551e-28)
(0.111151 0.0277438 -1.02711e-24)
(0.111586 0.0278481 1.80363e-25)
(0.0540834 0.013387 9.34663e-25)
(0.0541544 0.0134092 7.73752e-25)
(0.0543075 0.0134462 -9.41672e-25)
(0.0542508 0.0134331 0)
(0.0174889 0.00429719 0)
(0.0175212 0.00430809 3.5054e-25)
(0.0175645 0.00431928 -8.05713e-25)
(0.0175368 0.00431497 -7.67997e-25)
(0.42286 0.111355 3.17563e-23)
(0.542032 0.145843 0)
(0.642539 0.1769 3.45346e-25)
(0.715624 0.201355 0)
(0.754579 0.216787 8.61007e-25)
(0.756053 0.221641 0)
(0.720449 0.215407 5.2409e-25)
(0.651689 0.198657 -5.83292e-25)
(0.556347 0.172877 2.69009e-24)
(0.442381 0.14013 3.71115e-25)
(0.317679 0.102634 0)
(0.189107 0.0623776 -2.44004e-22)
(0.0617847 0.020925 2.28261e-23)
(0.28459 0.0732178 -3.68885e-23)
(0.181913 0.0460968 -6.5571e-24)
(0.183753 0.0465698 9.09247e-26)
(0.110197 0.027514 -2.27282e-24)
(0.11075 0.0276351 1.79717e-24)
(0.0537489 0.0133044 0)
(0.0538208 0.0133261 1.33164e-24)
(0.0539734 0.0133608 5.01107e-25)
(0.0539178 0.0133467 -7.33285e-25)
(0.0173792 0.00427052 -1.83692e-24)
(0.0174154 0.00428197 -1.13681e-24)
(0.0174549 0.00429168 -2.64831e-25)
(0.0174291 0.00428882 2.37604e-25)
(0.414179 0.108779 -4.7824e-23)
(0.535171 0.143966 0)
(0.636992 0.17529 6.50191e-25)
(0.71072 0.199836 -4.00748e-23)
(0.75005 0.215325 -4.11191e-25)
(0.751816 0.220228 0)
(0.716509 0.214053 0)
(0.648092 0.197387 -2.2538e-22)
(0.553172 0.17173 -1.73776e-22)
(0.439702 0.139151 4.23225e-25)
(0.315606 0.101874 0)
(0.187737 0.0618761 -2.78474e-22)
(0.0612564 0.0207454 3.46616e-22)
(0.272388 0.0698904 2.50491e-23)
(0.174185 0.0440328 1.40515e-24)
(0.179075 0.0455461 8.24992e-24)
(0.1085 0.0271541 0)
(0.109551 0.0273604 -2.79054e-24)
(0.0533878 0.0132152 4.42456e-24)
(0.0534765 0.0132404 2.90902e-24)
(0.0536309 0.0132733 0)
(0.0535799 0.0132589 8.41991e-25)
(0.0172775 0.00424568 -2.22058e-24)
(0.0173108 0.00425637 -1.77231e-24)
(0.017349 0.00426493 -1.33323e-24)
(0.017323 0.00426151 0)
(0.406214 0.106716 -5.43293e-25)
(0.529408 0.142372 -3.53216e-23)
(0.632021 0.173793 1.38622e-23)
(0.706089 0.198379 -5.5934e-25)
(0.745631 0.213885 0)
(0.74761 0.21881 0)
(0.712559 0.21268 6.76525e-23)
(0.644477 0.196095 1.57837e-22)
(0.54996 0.17056 3.7398e-25)
(0.437004 0.138148 -4.23133e-25)
(0.31347 0.101079 -2.80325e-22)
(0.186342 0.0613648 -3.19775e-22)
(0.0607121 0.0205556 3.95298e-22)
(0.262504 0.0673533 5.65737e-25)
(0.155755 0.0396454 -1.51232e-23)
(0.165185 0.041358 8.83319e-23)
(0.103368 0.0259352 -1.33227e-24)
(0.106872 0.0268279 -7.11912e-24)
(0.0527898 0.0130867 0)
(0.0530106 0.0131325 -5.32127e-24)
(0.0532538 0.0131845 -9.51824e-25)
(0.0531504 0.0131544 -5.19151e-24)
(0.0171682 0.00421921 -6.8202e-24)
(0.0172089 0.00423041 -2.98565e-24)
(0.0172467 0.0042391 0)
(0.0172202 0.00423547 1.53879e-25)
(0.400485 0.105124 1.71925e-23)
(0.52464 0.140959 3.19749e-23)
(0.627488 0.1724 0)
(0.701665 0.196973 5.60164e-25)
(0.741308 0.21246 -3.31076e-23)
(0.74344 0.217388 -3.86471e-25)
(0.708609 0.211288 2.48147e-25)
(0.640834 0.194776 0)
(0.546721 0.169357 -3.73829e-25)
(0.434248 0.137113 4.77175e-22)
(0.311343 0.100277 2.82437e-25)
(0.184893 0.0608208 -3.63346e-22)
(0.0601267 0.0203633 0)
(0.257638 0.0657515 3.14962e-23)
(0.147447 0.037129 -8.34181e-24)
(0.149976 0.0379583 -8.42039e-26)
(0.0776439 0.0200871 1.46027e-23)
(0.0919062 0.0225573 -3.64852e-23)
(0.049118 0.0119841 -9.81361e-25)
(0.0511281 0.0128497 -7.57208e-26)
(0.0525149 0.0130456 4.21471e-26)
(0.0520133 0.012954 6.84571e-24)
(0.0170077 0.00417923 0)
(0.0170812 0.00419598 -4.39479e-25)
(0.0171435 0.00421513 3.34995e-24)
(0.0170985 0.00420308 -1.8469e-25)
(0.39638 0.103902 4.46231e-24)
(0.520541 0.139722 5.89048e-25)
(0.623308 0.171109 -2.2188e-25)
(0.697426 0.195615 1.62555e-23)
(0.737084 0.211053 5.62506e-25)
(0.739308 0.215958 3.86648e-25)
(0.704668 0.209877 -4.96177e-25)
(0.637173 0.193426 0)
(0.54346 0.168129 -2.10963e-22)
(0.43147 0.13605 2.71392e-25)
(0.309132 0.0994338 -3.38746e-22)
(0.183378 0.0602627 0)
(0.0595169 0.020159 -1.00945e-21)
(0.254931 0.0649522 3.23445e-24)
(0.14515 0.0363087 -4.7516e-24)
(0.145986 0.0365552 1.58446e-23)
(0.0715533 0.0177247 8.15378e-24)
(0.0726839 0.0182775 -2.17784e-25)
(0.0183806 0.00494086 -1.93094e-24)
(0.0205715 0.00508067 2.14679e-24)
(0.044765 0.0102224 -1.16784e-24)
(0.0301524 0.00506056 0)
(0.0157492 0.00401391 3.8409e-24)
(0.0164658 0.00411716 7.86649e-26)
(0.0169281 0.00416448 5.02002e-24)
(0.0167646 0.00413893 3.62358e-25)
(0.393064 0.102937 -6.33861e-25)
(0.516866 0.138624 8.55263e-24)
(0.619394 0.169893 1.79847e-23)
(0.693347 0.194291 0)
(0.732942 0.209651 -2.63489e-25)
(0.735216 0.214518 0)
(0.700736 0.208444 5.45092e-23)
(0.63351 0.192052 0)
(0.540175 0.166866 0)
(0.428655 0.13496 3.23017e-24)
(0.306885 0.0985695 0)
(0.181825 0.0596844 9.74453e-22)
(0.0589061 0.0199487 -5.67762e-22)
(0.252939 0.064479 1.24413e-23)
(0.144036 0.0360883 1.30721e-25)
(0.144481 0.0361726 -1.38918e-23)
(0.0706393 0.0174433 7.28921e-26)
(0.070987 0.0175418 -1.49089e-23)
(0.0166951 0.00410593 5.13771e-24)
(0.0167659 0.00414036 5.77875e-24)
(0.0172479 0.00435524 -3.23544e-24)
(0.0168271 0.00420688 -3.76571e-24)
(0.0146663 0.0036934 -7.27236e-26)
(0.00829911 0.00128372 -7.25172e-23)
(0.390244 0.102139 -9.57814e-24)
(0.513542 0.137628 1.91959e-23)
(0.615689 0.168728 0)
(0.689403 0.192993 0)
(0.728882 0.208254 -1.68305e-23)
(0.731164 0.213066 -5.27396e-23)
(0.696813 0.206986 2.54447e-25)
(0.629838 0.190646 0)
(0.536864 0.16557 2.48208e-22)
(0.425779 0.133827 -3.08449e-22)
(0.304578 0.0976716 -4.06591e-22)
(0.180226 0.0590789 0)
(0.058242 0.0197272 -6.46531e-22)
(0.251237 0.0640748 -1.54381e-23)
(0.143172 0.0359228 0)
(0.143533 0.036001 -1.95171e-23)
(0.0702261 0.0173707 0)
(0.0704089 0.01741 -5.39963e-24)
(0.0166311 0.00408437 -5.18846e-24)
(0.0166389 0.0040865 -5.50555e-24)
(0.0166736 0.00409973 0)
(0.0166603 0.00409599 5.24096e-24)
(0.387733 0.101427 -2.04057e-23)
(0.510453 0.136696 2.79757e-25)
(0.612163 0.167606 -1.53045e-23)
(0.685576 0.191712 2.06213e-23)
(0.724897 0.206857 -1.12706e-23)
(0.727155 0.211597 -1.59456e-25)
(0.692909 0.205503 -5.369e-23)
(0.626169 0.189207 0)
(0.533505 0.164233 2.74583e-23)
(0.422867 0.13266 0)
(0.302197 0.0967341 0)
(0.178568 0.0584549 0)
(0.057564 0.0195036 -7.37044e-22)
(0.249741 0.0636973 0)
(0.142379 0.0357382 0)
(0.142716 0.0358251 2.42929e-23)
(0.0698664 0.0172967 -7.234e-24)
(0.0700478 0.0173441 0)
(0.0165815 0.00407573 0)
(0.0165834 0.00407686 -6.09686e-24)
(0.0166104 0.00408328 1.09522e-23)
(0.0166097 0.00408234 -4.3657e-26)
(0.385456 0.100779 -2.90619e-25)
(0.507536 0.135805 1.70212e-23)
(0.608769 0.166507 2.07751e-23)
(0.681847 0.190439 1.17358e-23)
(0.720982 0.205451 0)
(0.723188 0.21011 7.86037e-23)
(0.689027 0.203991 -5.37638e-23)
(0.622479 0.187731 3.08067e-22)
(0.530126 0.162857 2.67186e-25)
(0.419916 0.13146 -3.72584e-22)
(0.299771 0.095769 0)
(0.176869 0.0578118 0)
(0.0568674 0.0192723 8.47919e-22)
(0.248369 0.0633376 3.17317e-25)
(0.141626 0.03555 0)
(0.14194 0.035635 0)
(0.0695039 0.0172113 -8.20213e-24)
(0.0696857 0.0172612 1.06737e-25)
(0.0165044 0.00405516 -2.77753e-25)
(0.0165161 0.00406044 0)
(0.0165512 0.00407187 6.54755e-24)
(0.0165453 0.00406771 6.81203e-24)
(0.383305 0.100158 4.7418e-25)
(0.504755 0.134945 -2.70973e-23)
(0.6055 0.165429 0)
(0.678223 0.189172 2.72338e-26)
(0.717135 0.204034 -2.672e-23)
(0.719264 0.2086 5.22462e-23)
(0.685156 0.202446 -1.37162e-22)
(0.61878 0.186217 -9.37533e-23)
(0.526739 0.161448 3.26495e-22)
(0.416907 0.130213 0)
(0.297322 0.0947737 0)
(0.175084 0.0571284 -7.77674e-22)
(0.0561265 0.0190388 9.42483e-22)
(0.247067 0.0629881 -1.32211e-25)
(0.140913 0.0353661 1.43296e-25)
(0.14121 0.0354509 -1.43339e-25)
(0.0691603 0.017128 0)
(0.0693278 0.0171724 0)
(0.0164231 0.00403616 0)
(0.0164352 0.00404118 8.26843e-24)
(0.0164717 0.00405114 7.80866e-24)
(0.0164666 0.00404843 8.05207e-24)
(0.381274 0.0995657 -4.73966e-25)
(0.502107 0.13411 0)
(0.602336 0.16436 4.34028e-23)
(0.674685 0.1879 2.71753e-23)
(0.713359 0.202604 3.00872e-26)
(0.715382 0.207063 5.29418e-23)
(0.681303 0.200867 8.80296e-23)
(0.615092 0.184661 0)
(0.523308 0.159986 0)
(0.413867 0.128917 -4.53365e-22)
(0.294738 0.0937165 0)
(0.173221 0.0564396 0)
(0.0553413 0.0187588 1.07564e-21)
(0.245828 0.0626484 2.69568e-26)
(0.140221 0.0351875 -1.63646e-25)
(0.140519 0.035274 1.63701e-25)
(0.0688171 0.0170435 0)
(0.0689904 0.0170888 0)
(0.0163532 0.00401822 0)
(0.0163551 0.00402189 -9.59496e-24)
(0.0163929 0.00403124 -9.01913e-24)
(0.0163849 0.00402844 9.26626e-24)
(0.379338 0.0989915 -8.86723e-23)
(0.499557 0.133287 -1.18775e-22)
(0.599278 0.163293 -2.93824e-23)
(0.671235 0.186618 0)
(0.709644 0.201152 1.25758e-26)
(0.711542 0.205495 0)
(0.677466 0.199244 0)
(0.611383 0.183056 0)
(0.519823 0.158463 3.97439e-22)
(0.410726 0.127567 0)
(0.292074 0.0926225 0)
(0.171255 0.0557315 -9.86848e-22)
(0.0547147 0.0183291 1.22144e-21)
(0.244646 0.0623241 1.03981e-22)
(0.139569 0.0350136 -1.73844e-25)
(0.139845 0.0350958 3.68703e-25)
(0.068484 0.0169604 0)
(0.0686511 0.0170076 0)
(0.0162694 0.00399958 1.10357e-23)
(0.0162836 0.00400417 -1.07217e-23)
(0.0163202 0.00401302 -1.01149e-23)
(0.0163135 0.00401009 1.0274e-23)
(0.377501 0.0984386 8.23509e-23)
(0.497118 0.132474 -2.63171e-25)
(0.596318 0.162222 0)
(0.667865 0.185323 0)
(0.705994 0.199677 -1.80834e-23)
(0.707743 0.203894 -1.66924e-23)
(0.673645 0.197579 -6.10391e-23)
(0.607645 0.181397 0)
(0.51631 0.156894 -3.86653e-25)
(0.407495 0.126153 0)
(0.289349 0.0914918 0)
(0.169136 0.05487 -1.12045e-21)
(0.055214 0.0179745 1.423e-21)
(0.243521 0.0620246 2.40978e-25)
(0.138935 0.0348517 4.09966e-25)
(0.139192 0.0349247 -6.04722e-25)
(0.0681655 0.0168785 0)
(0.0683298 0.0169224 -1.2446e-23)
(0.0161953 0.00398005 1.22688e-23)
(0.0162054 0.00398536 -1.1997e-23)
(0.0162436 0.00399714 0)
(0.0162335 0.00399202 0)
(0.375749 0.097899 1.1793e-22)
(0.494785 0.131659 9.89932e-23)
(0.593463 0.161145 0)
(0.664577 0.184016 1.88458e-23)
(0.702412 0.198179 1.67868e-23)
(0.703986 0.202254 4.4332e-23)
(0.669837 0.195866 0)
(0.603908 0.179682 0)
(0.512714 0.155252 4.12421e-22)
(0.404258 0.124681 0)
(0.286208 0.0902311 0)
(0.169202 0.0537745 6.15019e-23)
(0.049223 0.0151379 -5.95339e-23)
(0.24246 0.0617564 -1.38936e-22)
(0.138317 0.0347111 0)
(0.138577 0.0347736 5.87212e-23)
(0.0678619 0.0168033 0)