/*--------------------------------*- C++ -*----------------------------------*\
| =========                 |                                                 |
| \\      /  F ield         | OpenFOAM: The Open Source CFD Toolbox           |
|  \\    /   O peration     | Version:  v1912                                 |
|   \\  /    A nd           | Website:  www.openfoam.com                      |
|    \\/     M anipulation  |                                                 |
\*---------------------------------------------------------------------------*/
FoamFile
{
    version     2.0;
    format      ascii;
    class       volVectorField;
    location    "160";
    object      U;
}
// * * * * * * * * * * * * * * * * * * * * * * * * * * * * * * * * * * * * * //

dimensions      [0 1 -1 0 0 0 0];


internalField   nonuniform List<vector> 
3673
(
(0.0769216 0.0260078 -6.74646e-22)
(0.230911 0.0765463 7.06525e-25)
(0.0764085 0.0258365 0)
(0.382514 0.12436 0)
(0.229465 0.0760734 -7.06836e-25)
(0.0759214 0.0256723 0)
(0.526697 0.168016 0)
(0.380223 0.123624 0)
(0.228052 0.075607 0)
(0.0754362 0.0255117 -5.01026e-22)
(0.656778 0.205668 0)
(0.523688 0.167058 0)
(0.377963 0.122896 0)
(0.226653 0.0751509 0)
(0.0749634 0.0253537 4.98545e-22)
(0.765127 0.235256 0)
(0.653112 0.204507 5.49273e-25)
(0.520686 0.166107 0)
(0.375745 0.122186 0)
(0.225293 0.0747031 -4.81253e-22)
(0.0744929 0.0251961 0)
(0.844312 0.254905 0)
(0.760885 0.233909 2.8888e-22)
(0.64949 0.203367 -5.4876e-25)
(0.517733 0.165171 0)
(0.373537 0.121473 0)
(0.223926 0.0742492 0)
(0.0740204 0.0250398 0)
(0.888085 0.263204 -2.88743e-22)
(0.839508 0.253371 -2.70886e-22)
(0.756686 0.232586 0)
(0.645875 0.202231 2.61952e-22)
(0.514788 0.164236 0)
(0.371343 0.120763 -4.31866e-25)
(0.222558 0.0737995 0)
(0.0735551 0.0248853 -6.90841e-22)
(0.892228 0.259433 5.60118e-24)
(0.882664 0.261465 5.18691e-25)
(0.834735 0.251865 0)
(0.752504 0.231279 1.56797e-23)
(0.642288 0.201106 0)
(0.511834 0.163301 0)
(0.369144 0.120054 4.31814e-25)
(0.221204 0.0733522 3.52445e-22)
(0.073086 0.0247288 0)
(0.855234 0.243752 2.90006e-22)
(0.886103 0.25747 2.67274e-22)
(0.87727 0.259763 -2.58977e-22)
(0.829989 0.250385 -2.37973e-22)
(0.748312 0.229974 -4.35907e-25)
(0.638674 0.199974 0)
(0.508877 0.162361 0)
(0.366948 0.119341 -3.6444e-25)
(0.219829 0.0728984 0)
(0.0726213 0.0245731 0)
(0.778833 0.217325 5.86193e-25)
(0.84833 0.241552 -2.73287e-22)
(0.879994 0.25555 2.5802e-22)
(0.871911 0.258098 2.44487e-22)
(0.825236 0.248911 0)
(0.744119 0.228669 4.35632e-25)
(0.635043 0.198834 0)
(0.505913 0.161418 0)
(0.364751 0.11863 1.03317e-24)
(0.218476 0.0724505 0)
(0.0721606 0.0244168 0)
(0.668021 0.182263 -3.53602e-24)
(0.771125 0.214893 -2.57721e-22)
(0.841416 0.239407 -2.53956e-22)
(0.873951 0.253694 -2.15414e-24)
(0.866585 0.256458 9.23841e-25)
(0.820485 0.247439 -2.17844e-22)
(0.739894 0.227353 0)
(0.631402 0.197689 0)
(0.502949 0.160471 0)
(0.362532 0.117908 -9.75704e-25)
(0.217131 0.0720039 0)
(0.0717015 0.0242598 0)
(0.530503 0.141354 2.63016e-24)
(0.659524 0.179624 3.33781e-23)
(0.763308 0.212518 2.71159e-22)
(0.834638 0.237374 -5.01888e-22)
(0.868024 0.251893 1.86753e-24)
(0.861292 0.254827 2.10683e-22)
(0.815719 0.245963 0)
(0.735641 0.226026 0)
(0.627735 0.196533 -3.68552e-22)
(0.499964 0.159517 0)
(0.360348 0.117198 3.2994e-22)
(0.215796 0.0715567 3.00035e-22)
(0.0712525 0.0241118 0)
(0.375709 0.0975885 0)
(0.521198 0.138575 2.87784e-22)
(0.650678 0.177 2.55446e-22)
(0.755776 0.210341 2.67408e-22)
(0.828123 0.235433 -2.37032e-22)
(0.862212 0.25012 -1.6298e-24)
(0.85602 0.253205 0)
(0.810933 0.244482 -7.07096e-25)
(0.731383 0.2247 3.35754e-22)
(0.624076 0.195381 0)
(0.497001 0.158568 -2.79991e-22)
(0.358181 0.116487 -2.44316e-22)
(0.214471 0.071115 0)
(0.0707972 0.0239616 0)
(0.365459 0.0948086 -5.71118e-23)
(0.250376 0.0639184 -2.11034e-24)
(0.253617 0.0648111 -1.3733e-22)
(0.510887 0.135623 -2.99977e-22)
(0.64239 0.174717 2.17135e-24)
(0.748808 0.208324 2.48782e-22)
(0.821898 0.233564 -1.65579e-24)
(0.856507 0.24838 1.63164e-24)
(0.850769 0.251591 1.41385e-24)
(0.80615 0.243002 1.36832e-24)
(0.727109 0.223366 -9.71463e-25)
(0.620409 0.19422 0)
(0.494045 0.157616 0)
(0.356016 0.115777 2.79099e-22)
(0.213161 0.0706778 0)
(0.0703514 0.0238115 0)
(0.351818 0.0911925 6.53412e-23)
(0.238024 0.0606334 9.46481e-23)
(0.245397 0.0627854 0)
(0.167033 0.0421317 2.10205e-24)
(0.169267 0.0426257 9.91877e-23)
(0.255976 0.0652912 0)
(0.501819 0.133202 -5.8709e-26)
(0.6352 0.172699 3.90159e-24)
(0.74237 0.206423 2.21828e-22)
(0.815897 0.231758 3.19604e-24)
(0.850889 0.246671 1.84284e-22)
(0.845549 0.249989 -1.76745e-22)
(0.801364 0.241522 -9.70685e-25)
(0.722846 0.222032 3.09284e-25)
(0.616761 0.193064 2.9902e-22)
(0.491129 0.156676 -2.37236e-22)
(0.353891 0.115078 -2.57555e-22)
(0.211851 0.070241 -2.24436e-22)
(0.0699159 0.0236655 0)
(0.341731 0.0884136 4.67734e-24)
(0.219773 0.0561575 -2.3704e-22)
(0.228009 0.0578298 7.46483e-23)
(0.155313 0.0391557 0)
(0.163283 0.0412348 2.28743e-23)
(0.103487 0.0258846 -3.72494e-23)
(0.104305 0.0260671 7.70691e-23)
(0.105267 0.0262654 3.17755e-25)
(0.17069 0.0429547 0)
(0.104868 0.0261573 3.95623e-23)
(0.494847 0.13125 2.77915e-22)
(0.628946 0.170884 -2.4801e-22)
(0.736361 0.204647 2.00093e-22)
(0.810101 0.230022 -1.93446e-22)
(0.845362 0.244994 4.15817e-24)
(0.840359 0.248399 0)
(0.796596 0.240046 3.09081e-25)
(0.718596 0.220703 -2.71921e-22)
(0.613137 0.191913 2.79417e-22)
(0.488221 0.155736 2.18938e-22)
(0.351795 0.114389 1.82421e-22)
(0.210585 0.0698163 -2.05031e-22)
(0.0694887 0.023522 -2.14868e-22)
(0.335889 0.0866053 -3.20156e-22)
(0.21181 0.0537115 1.80144e-24)
(0.214626 0.0545988 0)
(0.13098 0.0330773 1.10016e-22)
(0.141106 0.0352069 -6.36895e-23)
(0.0909012 0.0224496 2.25912e-24)
(0.0968864 0.024473 -1.83278e-24)
(0.102294 0.0256958 0)
(0.1003 0.0251752 -1.78718e-25)
(0.0606242 0.0150558 5.18716e-25)
(0.0610817 0.0151411 -3.5318e-23)
(0.105635 0.0263428 -3.17834e-25)
(0.0615736 0.0152476 3.50568e-23)
(0.10593 0.0264213 -4.22798e-23)
(0.0613484 0.0151974 0)
(0.489322 0.129668 -2.36056e-22)
(0.623324 0.169256 -2.2243e-22)
(0.730677 0.202979 0)
(0.804473 0.228341 3.52659e-22)
(0.839918 0.243346 -6.63048e-25)
(0.835209 0.246821 0)
(0.791855 0.238579 1.45731e-22)
(0.714376 0.219379 -2.54123e-22)
(0.609566 0.190775 -2.33338e-25)
(0.485384 0.154815 2.43384e-22)
(0.349714 0.113698 1.67007e-22)
(0.209341 0.0693983 -6.90283e-23)
(0.0690655 0.0233804 0)
(0.331974 0.0855234 2.79319e-22)
(0.208527 0.0527079 -1.62486e-24)
(0.209814 0.0530699 -1.80389e-24)
(0.125338 0.0312818 1.54183e-24)
(0.126999 0.0318264 -2.63733e-23)
(0.0621126 0.0156722 3.47054e-23)
(0.06475 0.0163783 -3.81269e-23)
(0.0798526 0.0188025 -5.76088e-24)
(0.0701649 0.0179094 5.39095e-25)
(0.0516525 0.0121047 2.05599e-24)
(0.0562338 0.0140711 0)
(0.0599291 0.0149304 0)
(0.0586755 0.0146879 -3.23805e-23)
(0.0195723 0.00481586 -1.94714e-25)
(0.0196914 0.00483956 1.94813e-25)
(0.0617619 0.0152982 -3.57516e-23)
(0.0198327 0.00487316 -4.48741e-25)
(0.061927 0.0153327 3.87045e-23)
(0.0197838 0.00486574 -2.62852e-23)
(0.484615 0.128351 -2.15717e-22)
(0.618162 0.167779 1.89978e-22)
(0.725263 0.201397 -3.56631e-22)
(0.799003 0.226711 -1.60898e-22)
(0.834548 0.241722 -1.50101e-22)
(0.8301 0.245258 -2.83791e-22)
(0.787144 0.237118 -2.70738e-25)
(0.7102 0.218065 0)
(0.606035 0.189643 -2.13918e-22)
(0.482575 0.153896 0)
(0.347697 0.113029 1.52725e-22)
(0.20812 0.0689867 0)
(0.0686527 0.0232419 6.63215e-23)
(0.328815 0.0847416 3.00733e-22)
(0.206503 0.0522518 1.53221e-24)
(0.207346 0.0524452 9.61659e-23)
(0.123631 0.0308171 2.23101e-23)
(0.124307 0.0310019 2.14492e-23)
(0.0599607 0.0148366 -3.02808e-23)
(0.0601563 0.0149006 -4.99109e-25)
(0.0610007 0.0151798 3.50725e-23)
(0.06043 0.0149958 -3.17168e-23)
(0.0200898 0.00506815 -2.79532e-23)
(0.0214921 0.00561578 4.05145e-23)
(0.0346568 0.0059792 -1.73853e-24)
(0.0237861 0.00626806 -1.0034e-23)
(0.0168974 0.00433425 -3.5869e-23)
(0.0181039 0.00463418 -2.37793e-23)
(0.0193842 0.00478218 -2.34323e-23)
(0.0190097 0.00472419 -2.36733e-23)
(0.0198823 0.00488887 2.11389e-25)
(0.0199289 0.0048971 2.88419e-23)
(0.480424 0.127202 -2.18479e-22)
(0.613335 0.166407 1.89965e-22)
(0.720056 0.199877 3.29418e-22)
(0.793638 0.225116 7.5358e-24)
(0.829244 0.24012 1.42985e-22)
(0.825038 0.243708 0)
(0.782487 0.23567 0)
(0.706086 0.216763 0)
(0.60256 0.188525 2.27329e-22)
(0.479831 0.152997 2.12736e-22)
(0.345724 0.112371 0)
(0.206928 0.0685829 0)
(0.0682465 0.0231062 0)
(0.326041 0.0840557 5.2249e-23)
(0.204799 0.0518673 -8.2874e-23)
(0.205534 0.0520459 -5.37579e-24)
(0.122574 0.0305865 0)
(0.123059 0.0306997 -8.92415e-23)
(0.0594762 0.0147051 2.77884e-23)
(0.0595449 0.0147345 -2.90419e-23)
(0.0597725 0.0147882 2.89761e-23)
(0.059655 0.0147638 -2.99598e-23)
(0.0192407 0.00472981 4.27322e-23)
(0.0193004 0.00475162 -2.15091e-23)
(0.019592 0.00485085 0)
(0.0193855 0.00477599 4.51953e-23)
(0.00961389 0.00153151 2.78132e-24)
(0.476576 0.126154 -1.56268e-24)
(0.60874 0.165106 -3.3361e-22)
(0.715002 0.19841 1.58349e-22)
(0.788376 0.223556 0)
(0.824005 0.23854 0)
(0.820029 0.242172 0)
(0.777885 0.234235 1.18776e-22)
(0.702026 0.215476 -9.38379e-23)
(0.599162 0.187425 -1.87127e-22)
(0.477153 0.152114 -1.99415e-22)
(0.343792 0.111724 1.80797e-22)
(0.205757 0.0681887 0)
(0.0678528 0.0229759 -5.41051e-23)
(0.323481 0.0834055 -4.65234e-23)
(0.203229 0.0514865 -8.00837e-23)
(0.203905 0.0516635 -7.73262e-23)
(0.121645 0.0303804 9.45664e-23)
(0.122101 0.0304896 -8.02899e-23)
(0.059087 0.014618 0)
(0.0591551 0.0146474 -2.54238e-23)
(0.0593445 0.0146829 2.65626e-23)
(0.0592588 0.0146666 2.61661e-23)
(0.019106 0.00469305 -2.35958e-25)
(0.0191216 0.00470412 -2.00138e-23)
(0.0191942 0.00471589 -2.64658e-25)
(0.0191443 0.0047082 2.0317e-23)
(0.47293 0.125166 1.84014e-22)
(0.604325 0.163865 -1.46769e-22)
(0.710065 0.196979 -1.35138e-22)
(0.783195 0.222021 1.27315e-22)
(0.818828 0.236978 1.21452e-22)
(0.815076 0.240649 8.43105e-25)
(0.773346 0.232814 -1.06015e-22)
(0.69805 0.214204 0)
(0.595841 0.186342 1.75377e-22)
(0.474553 0.151252 -1.5331e-22)
(0.341922 0.111096 -1.43605e-25)
(0.20463 0.0678066 0)
(0.0674631 0.0228494 5.06069e-23)
(0.321047 0.0827818 7.83197e-25)
(0.201731 0.0511139 6.84591e-24)
(0.202385 0.0512881 6.79525e-23)
(0.120737 0.0301608 1.56352e-23)
(0.121178 0.0302736 8.75861e-23)
(0.0586794 0.014525 -2.27517e-23)
(0.0587526 0.0145559 -2.23747e-23)
(0.0589487 0.0145947 8.21609e-25)
(0.0588614 0.0145764 -1.00407e-24)
(0.0189913 0.00466541 1.73527e-23)
(0.0190107 0.00467716 1.96508e-25)
(0.0190731 0.0046852 -1.91854e-23)
(0.0190305 0.00467926 -2.87212e-25)
(0.469436 0.12422 1.68026e-22)
(0.600034 0.162657 1.49906e-22)
(0.705224 0.195578 -1.36188e-22)
(0.778082 0.220508 -1.25781e-22)
(0.813703 0.235428 -3.62484e-24)
(0.81018 0.239139 1.0782e-22)
(0.768881 0.231405 0)
(0.694161 0.21295 0)
(0.592618 0.185281 -1.90512e-22)
(0.472004 0.150399 0)
(0.340081 0.110473 1.43516e-25)
(0.203509 0.0674275 -1.40893e-22)
(0.0670654 0.0227145 -5.25213e-23)
(0.318699 0.0821705 3.56081e-23)
(0.200272 0.0507462 -5.63857e-23)
(0.200903 0.0509158 5.95433e-23)
(0.119856 0.029945 6.01542e-23)
(0.120293 0.0300567 -4.88254e-23)
(0.0582608 0.0144224 0)
(0.0583338 0.0144526 -3.97408e-23)
(0.0585349 0.014497 0)
(0.0584434 0.0144765 -1.01655e-24)
(0.0188624 0.00463481 1.15993e-25)
(0.0188863 0.00464723 1.61021e-23)
(0.0189555 0.00465737 3.35912e-23)
(0.0189109 0.00465053 -2.84787e-25)
(0.466053 0.1233 2.64741e-25)
(0.595833 0.161476 -1.20797e-22)
(0.700465 0.194203 1.14221e-22)
(0.773016 0.219006 -1.1665e-22)
(0.808621 0.233888 -1.08037e-22)
(0.80535 0.237639 -1.00061e-22)
(0.764502 0.230012 1.81437e-25)
(0.690361 0.211712 1.73388e-22)
(0.589464 0.184235 0)
(0.469535 0.149569 0)
(0.338298 0.109869 1.14369e-22)
(0.202394 0.0670479 0)
(0.0666794 0.0225841 -5.28114e-26)
(0.316414 0.0815728 -2.95771e-23)
(0.198846 0.0503795 -4.90983e-23)
(0.199468 0.0505497 -5.76581e-23)
(0.118992 0.029732 4.08101e-23)
(0.119423 0.0298405 -8.02479e-23)
(0.0578413 0.0143206 0)
(0.0579187 0.0143509 -1.67964e-23)
(0.0581189 0.0143949 -1.78384e-23)
(0.0580289 0.0143749 -1.83706e-23)
(0.0187269 0.00460122 1.31561e-23)
(0.0187533 0.0046136 2.60279e-25)
(0.0188229 0.00462576 1.4416e-23)
(0.0187777 0.00461878 -2.8684e-23)
(0.462761 0.122405 2.2505e-23)
(0.591705 0.160314 -1.26989e-22)
(0.695742 0.192837 -2.08835e-25)
(0.767993 0.217518 0)
(0.80359 0.232357 9.9929e-23)
(0.800584 0.236147 0)
(0.760213 0.228633 8.96639e-23)
(0.686663 0.210499 -1.7313e-25)
(0.586394 0.183212 0)
(0.467108 0.148751 0)
(0.336513 0.109266 0)
(0.201299 0.0666753 -1.40893e-22)
(0.0663186 0.0224586 0)
(0.314183 0.0809856 1.08835e-22)
(0.197453 0.0500245 4.88062e-23)
(0.198069 0.0501907 0)
(0.11815 0.0295185 3.57846e-23)
(0.118571 0.0296266 -1.07569e-23)
(0.0574336 0.0142197 0)
(0.0575046 0.01425 1.52514e-23)
(0.0577016 0.0142921 1.03288e-24)
(0.0576109 0.0142723 3.06129e-23)
(0.018591 0.00456825 1.12926e-23)
(0.0186185 0.00458053 2.6489e-25)
(0.018688 0.00459276 2.546e-23)
(0.0186429 0.00458585 0)
(0.459517 0.121519 0)
(0.587627 0.159168 0)
(0.691046 0.191478 1.81608e-26)
(0.762973 0.216023 1.79693e-25)
(0.798586 0.23082 3.7143e-25)
(0.795888 0.23466 -8.71596e-23)
(0.756013 0.227268 0)
(0.683048 0.209301 0)
(0.583393 0.182205 8.40847e-23)
(0.464729 0.147948 0)
(0.334755 0.108666 1.1428e-22)
(0.200208 0.0662945 1.14627e-25)
(0.0659245 0.0223239 -9.78801e-23)
(0.312006 0.0804104 0)
(0.196098 0.0496751 6.57398e-24)
(0.196698 0.0498386 0)
(0.117323 0.0293114 -8.30256e-24)
(0.117738 0.0294175 -1.81877e-23)
(0.0570274 0.0141186 0)
(0.0570993 0.0141476 8.13633e-25)
(0.0572944 0.0141912 1.39235e-23)
(0.0572063 0.0141706 1.25583e-23)
(0.0184614 0.00453617 0)
(0.0184859 0.00454906 0)
(0.0185526 0.00455959 2.18788e-23)
(0.018506 0.00455292 -2.12735e-23)
(0.456323 0.120647 -9.1874e-23)
(0.58355 0.158019 0)
(0.686339 0.190114 8.6405e-23)
(0.757956 0.214522 -1.79623e-25)
(0.793615 0.229278 0)
(0.791258 0.233176 0)
(0.751901 0.225917 0)
(0.679519 0.208125 -7.63821e-23)
(0.580457 0.181217 0)
(0.462351 0.14714 0)
(0.333012 0.108065 0)
(0.199102 0.065911 9.10654e-23)
(0.0655117 0.0221883 -1.88215e-22)
(0.309838 0.0798367 1.06163e-22)
(0.194763 0.0493323 2.98118e-23)
(0.19536 0.0494933 1.3387e-25)
(0.116517 0.0291078 2.65693e-23)
(0.116922 0.0292112 -7.44394e-24)
(0.0566273 0.0140211 0)
(0.0567011 0.0140471 1.09149e-23)
(0.0568891 0.0140909 8.87013e-25)
(0.0568177 0.0140748 9.77204e-25)
(0.0183284 0.0045036 0)
(0.0183542 0.00451592 2.54339e-25)
(0.018422 0.00452785 0)
(0.0183782 0.00452065 -2.78169e-25)
(0.453125 0.119773 -5.32609e-25)
(0.579452 0.156868 -9.59131e-23)
(0.681584 0.188734 0)
(0.752901 0.212994 0)
(0.788656 0.227718 2.82827e-25)
(0.786691 0.231692 0)
(0.747867 0.224581 0)
(0.676051 0.206963 1.51286e-25)
(0.577537 0.180231 -8.04595e-23)
(0.460001 0.146337 0)
(0.331229 0.107451 1.60574e-22)
(0.197978 0.0655254 1.01223e-22)
(0.0650988 0.0220475 9.2447e-23)
(0.307705 0.0792716 -1.69404e-23)
(0.19345 0.0489954 2.43976e-23)
(0.194041 0.0491543 -2.70433e-23)
(0.115725 0.0289087 -2.80484e-23)
(0.116126 0.0290096 -1.2288e-23)
(0.0562427 0.0139255 0)
(0.0563142 0.0139503 9.03114e-24)
(0.0564962 0.0139926 0)
(0.0564288 0.0139772 9.72329e-25)
(0.0181965 0.00447266 0)
(0.0182355 0.00448575 -7.03662e-24)
(0.0182892 0.00449584 2.96978e-25)
(0.0182489 0.004489 7.71151e-24)
(0.449905 0.118895 3.40896e-25)
(0.575288 0.155695 0)
(0.676722 0.18731 5.30383e-25)
(0.747783 0.211424 0)
(0.783697 0.226133 -6.38552e-23)
(0.782177 0.23021 6.79087e-23)
(0.7439 0.223262 -1.45344e-25)
(0.672625 0.205815 7.31752e-23)
(0.574625 0.179244 -3.0083e-25)
(0.45763 0.145526 -1.35875e-22)
(0.329447 0.106834 0)
(0.196814 0.0651175 0)
(0.0646809 0.0219064 -2.44311e-22)
(0.305566 0.0787016 -1.3984e-23)
(0.19215 0.0486563 -9.16365e-26)
(0.192736 0.0488161 4.96495e-23)
(0.114946 0.0287146 -2.73753e-23)
(0.115341 0.0288117 1.56994e-23)
(0.0558614 0.0138311 0)
(0.0559323 0.0138552 0)
(0.0561123 0.0138962 9.16823e-25)
(0.0560439 0.0138813 9.53758e-25)
(0.0180746 0.00444275 5.32733e-24)
(0.018112 0.00445537 4.58193e-26)
(0.0181641 0.00446472 6.20789e-24)
(0.018125 0.00445796 1.2313e-23)
(0.446611 0.117993 0)
(0.57096 0.154475 0)
(0.671696 0.185822 -5.66446e-23)
(0.742559 0.209792 1.19596e-22)
(0.778726 0.224521 -6.80935e-23)
(0.777708 0.228739 -6.56877e-23)
(0.739976 0.221959 -1.3973e-25)
(0.669205 0.204667 7.62197e-23)
(0.571705 0.178251 -7.91331e-23)
(0.455236 0.144696 0)
(0.327619 0.106194 0)
(0.195644 0.0647067 1.26368e-22)
(0.0642596 0.0217613 1.26763e-22)
(0.303375 0.0781179 0)
(0.190874 0.0483211 -1.37801e-23)
(0.191465 0.0484847 2.26587e-23)
(0.114188 0.0285208 -3.16432e-24)
(0.114575 0.0286184 -2.43385e-23)
(0.0554924 0.013741 0)
(0.0555589 0.0137636 5.68351e-24)
(0.055737 0.0138032 6.36035e-24)
(0.0556696 0.0137877 6.17937e-24)
(0.0179502 0.0044124 4.0786e-24)
(0.0179881 0.00442482 0)
(0.0180404 0.00443404 1.00794e-23)
(0.0179996 0.00442718 5.05476e-24)
(0.443166 0.117059 -4.91251e-23)
(0.566375 0.153177 6.25318e-23)
(0.666419 0.184225 -5.76437e-23)
(0.737186 0.208081 0)
(0.773749 0.222903 6.59835e-23)
(0.773277 0.227286 0)
(0.736073 0.220666 -1.42489e-22)
(0.665788 0.203516 7.15266e-23)
(0.568761 0.177239 -7.94564e-23)
(0.452798 0.143847 0)
(0.325756 0.105536 0)
(0.194448 0.0642814 1.92112e-22)
(0.0638063 0.0216095 2.67537e-23)
(0.30111 0.0775168 4.8498e-23)
(0.189584 0.0479849 8.95611e-24)
(0.190193 0.0481521 0)
(0.11344 0.0283297 9.13533e-24)
(0.113815 0.0284236 -5.09245e-24)
(0.0551259 0.0136481 0)
(0.0551959 0.0136697 4.07317e-24)
(0.0553659 0.0137123 4.81655e-24)
(0.0553007 0.0136987 -3.88466e-24)
(0.0178339 0.00438388 2.95607e-24)
(0.0178675 0.00439574 2.67236e-26)
(0.0179203 0.00440472 3.71322e-24)
(0.0178793 0.00439721 3.51463e-24)
(0.439414 0.116044 6.15472e-25)
(0.561348 0.151724 -3.32052e-23)
(0.660766 0.18247 0)
(0.73169 0.206319 4.13402e-23)
(0.768785 0.221302 -1.19914e-25)
(0.768886 0.225858 1.32565e-22)
(0.73218 0.219374 5.5757e-25)
(0.662341 0.202346 1.45883e-22)
(0.565778 0.176207 0)
(0.450307 0.142971 -3.293e-25)
(0.323851 0.10486 -1.55279e-22)
(0.193211 0.0638438 4.87511e-23)
(0.0633283 0.0214488 1.98761e-22)
(0.298621 0.0768609 2.2587e-24)
(0.188284 0.047641 0)
(0.188895 0.0478112 2.11257e-23)
(0.112702 0.0281416 -8.20048e-24)
(0.113073 0.0282334 1.37357e-24)
(0.0547688 0.0135602 2.39379e-24)
(0.0548411 0.0135812 2.59907e-24)
(0.0550043 0.0136204 9.63951e-25)
(0.0549426 0.0136078 3.21366e-24)
(0.0177127 0.00435235 1.80594e-24)
(0.0177495 0.00436379 0)
(0.0177963 0.00437597 2.50184e-24)
(0.0177666 0.00437272 2.10306e-25)
(0.435097 0.114874 3.7902e-23)
(0.555674 0.150038 -1.31139e-25)
(0.654753 0.180571 -4.44204e-23)
(0.726133 0.204563 4.33706e-23)
(0.76388 0.219748 -1.20338e-22)
(0.764539 0.224446 0)
(0.728282 0.218072 -6.83981e-23)
(0.658865 0.201156 0)
(0.562733 0.175145 0)
(0.447775 0.142073 3.29222e-25)
(0.321908 0.104165 -3.72802e-22)
(0.191923 0.0633857 -1.84414e-22)
(0.062842 0.0212832 -2.03013e-22)
(0.295641 0.0761048 0)
(0.186845 0.0472659 5.0365e-24)
(0.187569 0.0474634 -8.68755e-24)
(0.111952 0.0279488 5.68096e-25)
(0.11234 0.0280452 -6.93451e-24)
(0.0544293 0.013474 9.23868e-25)
(0.0544956 0.0134953 -1.20926e-24)
(0.0546546 0.0135339 0)
(0.054595 0.0135194 -1.76765e-24)
(0.0175962 0.00432461 7.41361e-25)
(0.0176342 0.00433539 0)
(0.0176776 0.00434633 3.19457e-24)
(0.0176498 0.0043436 -1.56365e-24)
(0.429817 0.113408 0)
(0.549135 0.148011 1.3077e-25)
(0.648504 0.178638 -4.69431e-23)
(0.720681 0.202897 5.8772e-23)
(0.759094 0.218238 -9.07164e-25)
(0.760233 0.223037 0)
(0.724372 0.216753 -1.04355e-24)
(0.65534 0.199939 5.74562e-25)
(0.559645 0.174057 0)
(0.445197 0.141151 3.57526e-22)
(0.31993 0.103451 3.85527e-25)
(0.190587 0.0629048 4.30488e-25)
(0.062344 0.021116 2.39716e-23)
(0.29162 0.0750691 4.70961e-24)
(0.185025 0.0468253 -5.59089e-27)
(0.186014 0.0470761 5.58684e-27)
(0.111161 0.0277461 -1.32689e-24)
(0.111596 0.0278503 1.78105e-25)
(0.0540902 0.0133887 9.34594e-25)
(0.0541611 0.0134108 7.75467e-25)
(0.054314 0.0134477 -5.20198e-25)
(0.0542573 0.0134347 0)
(0.0174912 0.00429779 0)
(0.0175235 0.00430867 2.86359e-26)
(0.0175667 0.00431985 -4.79107e-25)
(0.0175391 0.00431555 -4.41974e-25)
(0.422829 0.111346 3.40796e-23)
(0.541962 0.145823 0)
(0.642428 0.176869 3.32282e-25)
(0.715483 0.201318 0)
(0.754441 0.216754 8.40821e-25)
(0.755962 0.221624 0)
(0.720442 0.215417 5.15042e-25)
(0.65178 0.198697 -5.74473e-25)
(0.556518 0.172942 2.58942e-24)
(0.442591 0.140205 3.66608e-25)
(0.317876 0.102702 0)
(0.189244 0.0624244 -2.41559e-22)
(0.0618324 0.0209417 2.27753e-23)
(0.284587 0.073217 -3.95858e-23)
(0.181923 0.0460991 -7.72433e-24)
(0.183762 0.0465717 1.09039e-25)
(0.110208 0.0275164 -2.56133e-24)
(0.11076 0.0276374 2.0864e-24)
(0.053756 0.0133062 0)
(0.0538278 0.0133278 1.72199e-24)
(0.0539802 0.0133624 9.04569e-25)
(0.0539247 0.0133484 -1.13428e-24)
(0.0173817 0.00427114 -2.44166e-24)
(0.0174178 0.00428258 -1.75039e-24)
(0.0174572 0.00429227 -5.79046e-25)
(0.0174315 0.00428943 5.48621e-25)
(0.41415 0.108771 -5.00611e-23)
(0.535103 0.143947 0)
(0.636879 0.175259 6.25836e-25)
(0.710577 0.199798 -3.86723e-23)
(0.749908 0.21529 -4.01312e-25)
(0.751721 0.22021 0)
(0.7165 0.214062 0)
(0.648182 0.197428 -2.22311e-22)
(0.553345 0.171795 -1.71689e-22)
(0.439915 0.139226 4.19362e-25)
(0.315804 0.101943 0)
(0.187874 0.0619232 -2.76268e-22)
(0.0613044 0.0207621 3.44528e-22)
(0.272388 0.0698905 2.70054e-23)
(0.174196 0.0440357 1.43855e-24)
(0.179086 0.0455486 9.36391e-24)
(0.108511 0.0271567 0)
(0.109562 0.0273629 -3.07086e-24)
(0.0533952 0.013217 4.79126e-24)
(0.0534839 0.0132421 3.27832e-24)
(0.053638 0.013275 0)
(0.0535871 0.0132606 8.41937e-25)
(0.01728 0.00424633 -2.5094e-24)
(0.0173134 0.00425701 -2.06441e-24)
(0.0173515 0.00426555 -1.63491e-24)
(0.0173255 0.00426215 0)
(0.406188 0.106708 -5.09454e-25)
(0.529341 0.142352 -3.34961e-23)
(0.631907 0.173762 1.39228e-23)
(0.705943 0.19834 -5.38963e-25)
(0.745486 0.213848 0)
(0.747513 0.21879 0)
(0.712548 0.212688 6.66683e-23)
(0.644567 0.196135 1.55958e-22)
(0.550134 0.170625 3.70436e-25)
(0.437219 0.138224 -4.19269e-25)
(0.31367 0.101148 -2.78319e-22)
(0.18648 0.0614122 -3.17794e-22)
(0.0607604 0.0205724 3.93471e-22)
(0.262506 0.0673539 4.85782e-25)
(0.155767 0.0396487 -1.56518e-23)
(0.165196 0.0413611 8.98941e-23)
(0.103379 0.0259382 -1.52429e-24)
(0.106883 0.0268307 -8.10328e-24)
(0.0527975 0.0130886 0)
(0.0530182 0.0131343 -5.67114e-24)
(0.0532613 0.0131863 -9.53705e-25)
(0.0531579 0.0131562 -5.54743e-24)
(0.0171709 0.00421989 -7.3656e-24)
(0.0172116 0.00423107 -3.26288e-24)
(0.0172493 0.00423975 0)
(0.0172229 0.00423614 1.54008e-25)
(0.40046 0.105117 1.71779e-23)
(0.524573 0.140939 3.02607e-23)
(0.627374 0.172367 0)
(0.701517 0.196933 5.39758e-25)
(0.74116 0.212423 -3.19457e-23)
(0.74334 0.217367 -3.78722e-25)
(0.708596 0.211295 2.44574e-25)
(0.640924 0.194815 0)
(0.546896 0.169422 -3.70286e-25)
(0.434464 0.137189 4.73704e-22)
(0.311545 0.100347 2.80626e-25)
(0.185033 0.0608685 -3.61604e-22)
(0.0601753 0.0203802 0)
(0.257642 0.0657522 2.96668e-23)
(0.147459 0.0371322 -9.37033e-24)
(0.149987 0.0379615 -1.17175e-25)
(0.077653 0.0200898 1.51132e-23)
(0.0919166 0.0225602 -3.69272e-23)
(0.0491252 0.011986 -1.1251e-24)
(0.0511356 0.0128516 -9.60397e-26)
(0.0525226 0.0130474 4.47714e-26)
(0.0520209 0.0129559 7.17894e-24)
(0.0170105 0.00417993 0)
(0.017084 0.00419667 -4.39949e-25)
(0.0171462 0.00421581 3.61712e-24)
(0.0171012 0.00420377 -1.84874e-25)
(0.396356 0.103895 6.56706e-24)
(0.520475 0.139703 -1.1577e-24)
(0.623193 0.171075 -1.99997e-25)
(0.697275 0.195573 1.6302e-23)
(0.736934 0.211014 5.45717e-25)
(0.739204 0.215935 3.78896e-25)
(0.704653 0.209883 -4.89287e-25)
(0.637262 0.193465 0)
(0.543636 0.168193 -2.09415e-22)
(0.431687 0.136126 2.69937e-25)
(0.309335 0.0995036 -3.37119e-22)
(0.183518 0.0603106 0)
(0.0595657 0.020176 -1.00688e-21)
(0.254935 0.0649528 1.37822e-24)
(0.145162 0.0363118 -5.79232e-24)
(0.145998 0.0365582 1.68932e-23)
(0.071562 0.017727 9.18504e-24)
(0.0726928 0.0182799 -2.49092e-25)
(0.0183835 0.00494173 -1.7844e-24)
(0.0205747 0.00508156 2.01193e-24)
(0.0447717 0.010224 -1.24884e-24)
(0.030157 0.00506125 0)
(0.0157518 0.0040146 4.34363e-24)
(0.0164685 0.00411785 8.2521e-26)
(0.0169309 0.00416518 5.27423e-24)
(0.0167674 0.00413963 3.59002e-25)
(0.393041 0.10293 1.35312e-24)
(0.516801 0.138604 1.02154e-23)
(0.619278 0.169859 1.80074e-23)
(0.693194 0.194248 0)
(0.732788 0.20961 -2.5531e-25)
(0.735109 0.214494 0)
(0.700718 0.208449 5.36618e-23)
(0.633598 0.19209 0)
(0.540352 0.166931 0)
(0.428874 0.135036 3.3283e-24)
(0.30709 0.0986396 0)
(0.181966 0.0597325 9.71766e-22)
(0.058955 0.0199657 -5.66754e-22)
(0.252944 0.0644796 1.30694e-23)
(0.144049 0.0360913 1.38645e-25)
(0.144493 0.0361755 -1.49154e-23)
(0.0706479 0.0174455 7.66783e-26)
(0.0709956 0.017544 -1.58956e-23)
(0.0166977 0.00410657 5.39244e-24)
(0.0167684 0.00414102 6.03378e-24)
(0.0172506 0.00435597 -3.50969e-24)
(0.0168297 0.00420754 -4.02298e-24)
(0.0146687 0.00369409 -1.0138e-25)
(0.0083006 0.00128393 -7.27687e-23)
(0.390223 0.102131 -1.14825e-23)
(0.513477 0.137608 1.92227e-23)
(0.615573 0.168693 0)
(0.689248 0.192949 0)
(0.728725 0.208212 -1.58415e-23)
(0.731054 0.213041 -5.19237e-23)
(0.696793 0.20699 2.51625e-25)
(0.629926 0.190683 0)
(0.537041 0.165635 2.46948e-22)
(0.426 0.133904 -3.07142e-22)
(0.304784 0.0977419 -4.0544e-22)
(0.180368 0.0591272 0)
(0.0582911 0.0197442 -6.45779e-22)
(0.251242 0.0640754 -1.60466e-23)
(0.143185 0.0359258 0)
(0.143546 0.0360039 -2.05001e-23)
(0.0702348 0.0173729 0)
(0.0704175 0.0174122 -5.64446e-24)
(0.0166336 0.00408501 -5.43227e-24)
(0.0166413 0.00408713 -5.75407e-24)
(0.0166761 0.00410036 0)
(0.0166628 0.00409662 5.49014e-24)
(0.387713 0.10142 -2.22902e-23)
(0.510388 0.136676 3.03688e-25)
(0.612045 0.16757 -1.65923e-23)
(0.685418 0.191667 2.06833e-23)
(0.724737 0.206813 -1.03405e-23)
(0.727042 0.211571 -1.56537e-25)
(0.692887 0.205506 -5.29726e-23)
(0.626256 0.189244 0)
(0.533683 0.164297 2.75541e-23)
(0.423089 0.132737 0)
(0.302404 0.0968046 0)
(0.178711 0.0585032 0)
(0.0576131 0.0195207 -7.36542e-22)
(0.249748 0.0636979 0)
(0.142392 0.0357413 0)
(0.142729 0.035828 2.5242e-23)
(0.0698754 0.0172989 -7.46648e-24)
(0.0700567 0.0173462 0)
(0.016584 0.00407638 0)
(0.0165859 0.0040775 -6.33627e-24)
(0.0166129 0.00408392 1.14397e-23)
(0.0166122 0.00408298 -4.55518e-26)
(0.385436 0.100771 -3.05217e-25)
(0.507471 0.135784 1.84557e-23)
(0.60865 0.16647 2.08302e-23)
(0.681688 0.190392 1.07546e-23)
(0.720818 0.205406 0)
(0.723072 0.210082 7.71689e-23)
(0.689003 0.203993 -5.31148e-23)
(0.622566 0.187768 3.06408e-22)
(0.530304 0.162922 2.66115e-25)
(0.420139 0.131537 -3.71582e-22)
(0.299979 0.0958395 0)
(0.177012 0.05786 0)
(0.0569164 0.0192892 8.47628e-22)
(0.248377 0.0633382 3.25679e-25)
(0.14164 0.0355532 0)
(0.141953 0.0356381 0)
(0.0695132 0.0172136 -8.42381e-24)
(0.0696949 0.0172634 1.10284e-25)
(0.016507 0.00405583 -2.77675e-25)
(0.0165186 0.00406109 0)
(0.0165538 0.00407251 6.78293e-24)
(0.0165478 0.00406836 7.04652e-24)
(0.383287 0.10015 4.87717e-25)
(0.504691 0.134923 -2.84806e-23)
(0.60538 0.165392 0)
(0.678061 0.189123 3.47919e-26)
(0.716968 0.203988 -2.59717e-23)
(0.719145 0.20857 5.16202e-23)
(0.68513 0.202447 -1.36043e-22)
(0.618866 0.186253 -9.32347e-23)
(0.526917 0.161512 3.25649e-22)
(0.417131 0.130289 0)
(0.297531 0.0948441 0)
(0.175227 0.0571765 -7.77261e-22)
(0.0561754 0.0190557 9.42479e-22)
(0.247077 0.0629889 -1.36542e-25)
(0.140928 0.0353694 1.46722e-25)
(0.141224 0.0354541 -1.46767e-25)
(0.06917 0.0171304 0)
(0.0693373 0.0171747 0)
(0.0164257 0.00403685 0)
(0.0164378 0.00404185 8.49201e-24)
(0.0164743 0.0040518 8.0363e-24)
(0.0164692 0.0040491 8.27866e-24)
(0.381257 0.0995576 -4.87496e-25)
(0.502044 0.134088 0)
(0.602215 0.164321 4.45132e-23)
(0.67452 0.18785 2.80731e-23)
(0.713188 0.202556 2.85113e-26)
(0.715259 0.207031 5.23809e-23)
(0.681275 0.200866 8.75534e-23)
(0.615177 0.184696 0)
(0.523487 0.160049 0)
(0.414092 0.128994 -4.52645e-22)
(0.294947 0.0937866 0)
(0.173364 0.0564873 0)
(0.0553897 0.0187754 1.07585e-21)
(0.245839 0.0626492 2.68134e-26)
(0.140237 0.035191 -1.66942e-25)
(0.140534 0.0352774 1.66998e-25)
(0.0688274 0.017046 0)
(0.0690004 0.0170912 0)
(0.016356 0.00401893 0)
(0.0163578 0.00402259 -9.81083e-24)
(0.0163956 0.00403192 -9.23885e-24)
(0.0163876 0.00402913 9.48484e-24)
(0.379323 0.0989832 -9.03188e-23)
(0.499494 0.133264 -1.21322e-22)
(0.599157 0.163254 -3.03519e-23)
(0.671068 0.186567 0)
(0.709471 0.201102 1.12707e-26)
(0.711416 0.205463 0)
(0.677435 0.199242 0)
(0.611467 0.18309 0)
(0.520003 0.158526 3.96847e-22)
(0.410951 0.127643 0)
(0.292284 0.092692 0)
(0.171398 0.0557784 -9.86855e-22)
(0.0547624 0.0183452 1.22191e-21)
(0.244658 0.0623251 1.05908e-22)
(0.139586 0.0350173 -1.77073e-25)
(0.139862 0.0350994 3.75048e-25)
(0.0684948 0.016963 0)
(0.0686617 0.0170101 0)
(0.0162723 0.00400032 1.12427e-23)
(0.0162865 0.00400489 -1.09281e-23)
(0.016323 0.00401373 -1.03251e-23)
(0.0163163 0.00401081 1.04815e-23)
(0.377487 0.09843 8.38776e-23)
(0.497056 0.13245 -2.6801e-25)
(0.596196 0.162182 0)
(0.667695 0.185271 0)
(0.705816 0.199626 -1.8668e-23)
(0.707613 0.20386 -1.62187e-23)
(0.673612 0.197576 -6.06443e-23)
(0.607728 0.18143 0)
(0.51649 0.156957 -3.86074e-25)
(0.407721 0.126228 0)
(0.289559 0.0915603 0)
(0.169277 0.0549158 -1.12066e-21)
(0.055262 0.0179901 1.42384e-21)
(0.243535 0.0620255 2.4472e-25)
(0.138954 0.0348556 4.16077e-25)
(0.13921 0.0349284 -6.13947e-25)
(0.068177 0.0168813 0)
(0.068341 0.0169251 -1.26391e-23)
(0.0161984 0.00398083 1.24681e-23)
(0.0162084 0.00398613 -1.21973e-23)
(0.0162465 0.00399788 0)
(0.0162365 0.00399277 0)
(0.375737 0.0978899 1.19437e-22)
(0.494723 0.131635 1.00132e-22)
(0.59334 0.161103 0)
(0.664405 0.183962 1.9455e-23)
(0.702231 0.198126 1.63112e-23)
(0.703853 0.202218 4.43643e-23)
(0.669802 0.195862 0)
(0.60399 0.179715 0)
(0.512894 0.155314 4.1191e-22)
(0.404485 0.124755 0)
(0.286418 0.0902981 0)
(0.169344 0.0538188 6.13423e-23)
(0.0492654 0.015151 -5.95464e-23)
(0.242476 0.061757 -1.40705e-22)
(0.138337 0.0347151 0)
(0.138596 0.0347775 5.94801e-23)