/*--------------------------------*- C++ -*----------------------------------*\
| =========                 |                                                 |
| \\      /  F ield         | OpenFOAM: The Open Source CFD Toolbox           |
|  \\    /   O peration     | Version:  v1912                                 |
|   \\  /    A nd           | Website:  www.openfoam.com                      |
|    \\/     M anipulation  |                                                 |
\*---------------------------------------------------------------------------*/
FoamFile
{
    version     2.0;
    format      ascii;
    class       volVectorField;
    location    "460";
    object      U;
}
// * * * * * * * * * * * * * * * * * * * * * * * * * * * * * * * * * * * * * //

dimensions      [0 1 -1 0 0 0 0];


internalField   nonuniform List<vector> 
3754
(
(0.0489945 -0.0207181 0)
(0.150273 -0.0618949 -1.88827e-23)
(0.0484947 -0.0205139 8.78808e-24)
(0.252724 -0.102055 0)
(0.148771 -0.0612863 9.28755e-24)
(0.0480167 -0.0203119 -8.84064e-24)
(0.35213 -0.1394 6.63465e-21)
(0.250239 -0.101058 7.25924e-24)
(0.147323 -0.060692 8.95864e-21)
(0.0475534 -0.0201145 0)
(0.442207 -0.171596 -5.83552e-21)
(0.348683 -0.138032 6.37508e-21)
(0.247804 -0.100076 -7.33921e-21)
(0.145888 -0.0601035 -8.30555e-24)
(0.0470885 -0.0199186 0)
(0.515347 -0.195967 5.07204e-24)
(0.43784 -0.169883 -5.61569e-21)
(0.345287 -0.136688 0)
(0.24541 -0.0991183 2.69593e-25)
(0.144469 -0.0595199 8.32552e-24)
(0.0466395 -0.0197281 0)
(0.563941 -0.210064 -1.99344e-25)
(0.51015 -0.193957 -5.09949e-21)
(0.433535 -0.168211 -5.15908e-24)
(0.341954 -0.135376 5.90235e-21)
(0.243033 -0.098159 6.74285e-24)
(0.143085 -0.0589496 0)
(0.0461881 -0.019537 0)
(0.582009 -0.212262 4.73708e-24)
(0.558032 -0.207809 4.80456e-21)
(0.505043 -0.192005 0)
(0.429318 -0.166576 -5.19353e-21)
(0.338645 -0.134065 5.68271e-24)
(0.240689 -0.097211 0)
(0.141711 -0.0583836 0)
(0.045736 -0.0193454 0)
(0.566748 -0.202264 0)
(0.575535 -0.209824 -4.78204e-21)
(0.552239 -0.205629 0)
(0.50003 -0.190091 -9.0083e-24)
(0.42513 -0.164949 1.45183e-23)
(0.335361 -0.132764 0)
(0.238369 -0.0962753 0)
(0.140339 -0.0578167 0)
(0.0452949 -0.0191571 -6.90913e-24)
(0.519324 -0.181251 -5.49688e-24)
(0.559844 -0.199696 4.86193e-21)
(0.569186 -0.207478 0)
(0.546551 -0.203499 -4.45149e-21)
(0.495061 -0.188196 9.01712e-24)
(0.420977 -0.163334 -3.78509e-25)
(0.332118 -0.13148 0)
(0.236069 -0.0953427 0)
(0.138979 -0.0572553 0)
(0.0448662 -0.0189775 6.94245e-24)
(0.444634 -0.15167 0)
(0.512097 -0.178592 0)
(0.553085 -0.197253 -4.69009e-21)
(0.562995 -0.205208 4.36298e-21)
(0.540953 -0.201401 -4.29058e-21)
(0.490143 -0.186317 0)
(0.416871 -0.161735 -9.1898e-24)
(0.328895 -0.130199 0)
(0.233792 -0.0944238 0)
(0.137657 -0.0567082 6.87732e-21)
(0.0444339 -0.0187979 0)
(0.350067 -0.116662 3.68137e-21)
(0.437092 -0.148918 -2.25925e-23)
(0.505061 -0.176122 4.9873e-21)
(0.546589 -0.194926 -1.79361e-23)
(0.556958 -0.202986 4.19068e-21)
(0.53543 -0.19933 0)
(0.485279 -0.184457 0)
(0.41279 -0.160146 0)
(0.325719 -0.128939 0)
(0.231545 -0.0935085 -5.59306e-21)
(0.136335 -0.0561659 -6.61511e-21)
(0.0440094 -0.0186183 0)
(0.244158 -0.0794794 -5.22411e-21)
(0.342009 -0.113772 3.52046e-24)
(0.429847 -0.14646 1.10392e-24)
(0.498473 -0.17382 0)
(0.540349 -0.192671 0)
(0.55105 -0.200812 1.61997e-23)
(0.529986 -0.197286 -3.97719e-21)
(0.480457 -0.182616 0)
(0.408762 -0.158575 4.25492e-21)
(0.322556 -0.12768 0)
(0.229322 -0.0926129 5.37392e-21)
(0.135046 -0.0556339 -3.05073e-24)
(0.0435896 -0.0184391 0)
(0.163369 -0.0524294 1.81842e-21)
(0.234446 -0.0761702 2.07172e-21)
(0.159221 -0.051027 -1.80197e-21)
(0.334494 -0.111296 0)
(0.423417 -0.144265 -5.47855e-21)
(0.492319 -0.171638 4.74422e-21)
(0.534336 -0.190501 0)
(0.545265 -0.198683 3.89708e-21)
(0.524617 -0.195274 -7.30038e-24)
(0.4757 -0.180797 -7.75533e-21)
(0.404772 -0.157023 0)
(0.31946 -0.126453 -4.48614e-21)
(0.227142 -0.091728 1.06771e-25)
(0.133767 -0.0551053 3.05588e-24)
(0.0431776 -0.0182628 0)
(0.108315 -0.0343481 8.55282e-25)
(0.152929 -0.0485641 -1.79705e-21)
(0.226206 -0.0734714 -9.18353e-22)
(0.146335 -0.0470287 -1.76073e-21)
(0.10463 -0.0332457 1.20258e-21)
(0.328495 -0.10925 6.38926e-21)
(0.417691 -0.142271 -5.27636e-21)
(0.486528 -0.169587 1.74178e-23)
(0.528516 -0.188402 0)
(0.539603 -0.196602 7.51655e-24)
(0.519333 -0.193294 3.66993e-21)
(0.471016 -0.179009 3.70882e-24)
(0.400852 -0.155495 3.93812e-21)
(0.316404 -0.125236 -2.06486e-24)
(0.225003 -0.0908615 2.46067e-24)
(0.132511 -0.0545832 0)
(0.0427944 -0.0180998 0)
(0.0666731 -0.020999 5.60479e-22)
(0.097043 -0.0302402 0)
(0.141721 -0.0453241 0)
(0.221172 -0.0716316 -2.0555e-21)
(0.139146 -0.0444467 3.40166e-21)
(0.087846 -0.0280494 4.06038e-22)
(0.0630651 -0.0198926 2.25273e-24)
(0.0653184 -0.0206953 0)
(0.323624 -0.107577 -2.49545e-23)
(0.412502 -0.140469 7.37185e-25)
(0.481025 -0.167646 -6.53233e-25)
(0.522876 -0.186372 0)
(0.534056 -0.194565 0)
(0.514137 -0.191348 0)
(0.466403 -0.177244 0)
(0.39699 -0.153988 1.8818e-24)
(0.313419 -0.124049 2.06648e-24)
(0.222908 -0.0900083 2.25805e-24)
(0.131318 -0.0540856 -5.60248e-21)
(0.042401 -0.0179348 0)
(0.0389709 -0.0121959 0)
(0.0591906 -0.018553 0)
(0.0524146 -0.0155331 -3.23947e-22)
(0.0834985 -0.0264051 3.97921e-22)
(0.137332 -0.0436632 6.61239e-21)
(0.217751 -0.0704816 1.92e-21)
(0.136216 -0.0433536 -3.29047e-21)
(0.0817868 -0.0257164 -1.92484e-21)
(0.0420327 -0.0134885 -5.23115e-22)
(0.0454306 -0.0144184 -1.78592e-23)
(0.0364624 -0.0115074 4.75356e-22)
(0.03816 -0.0120087 -5.1482e-22)
(0.319422 -0.10616 0)
(0.407688 -0.138811 5.0602e-21)
(0.475768 -0.165794 -1.68694e-23)
(0.517391 -0.1844 0)
(0.528623 -0.192572 -3.34107e-24)
(0.509036 -0.189436 -3.39969e-21)
(0.461858 -0.175509 3.43264e-21)
(0.393214 -0.152515 -3.6116e-21)
(0.310498 -0.122883 -3.95888e-21)
(0.220879 -0.089178 4.54337e-21)
(0.130136 -0.0535956 -5.36875e-21)
(0.042027 -0.0177774 0)
(0.0125685 -0.00390912 0)
(0.0337799 -0.0102181 4.85773e-22)
(0.0230652 -0.00552836 2.38162e-22)
(0.0402242 -0.0126444 -5.71495e-22)
(0.0394017 -0.0123668 8.43416e-24)
(0.0808311 -0.0253773 -3.79073e-21)
(0.135163 -0.0429644 -3.24131e-21)
(0.214982 -0.0696235 -1.80672e-21)
(0.134406 -0.042815 -3.15309e-21)
(0.0802283 -0.0251813 2.96515e-21)
(0.0388676 -0.0121247 -4.06105e-24)
(0.039083 -0.0121839 1.59206e-21)
(0.0138947 -0.00452819 3.61672e-22)
(0.0154169 -0.00507206 0)
(0.0116702 -0.00374274 -3.5605e-22)
(0.0123318 -0.00384814 3.6451e-22)
(0.315644 -0.104899 -5.84659e-21)
(0.403144 -0.13725 -4.8614e-21)
(0.470694 -0.164014 -7.81865e-24)
(0.512052 -0.182484 -3.6549e-21)
(0.5233 -0.190618 3.3451e-21)
(0.504014 -0.187559 -3.24956e-21)
(0.457421 -0.173811 3.29083e-21)
(0.389526 -0.151072 1.2708e-23)
(0.307657 -0.121744 0)
(0.218907 -0.0883736 4.35309e-21)
(0.129001 -0.0531221 0)
(0.0416608 -0.0176244 0)
(0.0109363 -0.00354591 -2.24527e-22)
(0.00640945 -0.0014833 -4.77269e-23)
(0.0129225 -0.00406801 3.85026e-22)
(0.012585 -0.00392895 7.07862e-22)
(0.038682 -0.0120449 1.03059e-21)
(0.0385793 -0.012039 3.97279e-24)
(0.0797408 -0.0250337 2.91649e-21)
(0.133537 -0.0425006 0)
(0.212534 -0.0688583 -1.77473e-21)
(0.132917 -0.0423784 -2.92947e-23)
(0.0793037 -0.0249171 7.33767e-22)
(0.0384211 -0.0119777 -3.93563e-24)
(0.0384635 -0.0119775 -4.03543e-26)
(0.0124134 -0.00385023 6.9416e-22)
(0.0124786 -0.00387511 1.74827e-24)
(0.312122 -0.103729 1.14372e-20)
(0.398821 -0.135775 -9.23802e-24)
(0.465788 -0.162292 3.90112e-21)
(0.506831 -0.180611 3.51631e-21)
(0.518079 -0.188708 -1.541e-24)
(0.499106 -0.185718 1.5552e-24)
(0.453074 -0.172145 6.31014e-21)
(0.385932 -0.149661 3.31389e-21)
(0.3049 -0.120637 0)
(0.216992 -0.0875864 0)
(0.127898 -0.0526657 2.34752e-24)
(0.0412926 -0.0174684 -4.85199e-21)
(0.0123624 -0.00383494 6.85029e-22)
(0.0123321 -0.00383119 6.7945e-22)
(0.0382933 -0.0119191 0)
(0.0382144 -0.0119248 9.87247e-22)
(0.0788807 -0.0247942 -1.10821e-23)
(0.132128 -0.0420803 2.98401e-21)
(0.210251 -0.0681383 -1.00441e-20)
(0.131527 -0.0419512 -2.8647e-24)
(0.0784876 -0.0246792 2.78225e-21)
(0.0380713 -0.011883 9.67721e-22)
(0.0381275 -0.0118754 -9.69169e-22)
(0.0122981 -0.00381391 -6.68581e-22)
(0.0123015 -0.00381815 6.72946e-22)
(0.308812 -0.102631 1.09913e-23)
(0.394654 -0.134346 0)
(0.461003 -0.160617 -3.74587e-21)
(0.501727 -0.178785 3.3783e-21)
(0.512965 -0.186831 1.54239e-24)
(0.494296 -0.183914 -5.98722e-21)
(0.448841 -0.170517 -3.01687e-21)
(0.382432 -0.148281 -1.5145e-24)
(0.302217 -0.119556 0)
(0.215145 -0.0868306 0)
(0.126811 -0.0522122 -4.58682e-24)
(0.0409614 -0.0173227 1.16308e-23)
(0.012259 -0.00379836 6.63356e-22)
(0.0122271 -0.00379618 -6.55443e-22)
(0.0379464 -0.011827 0)
(0.037883 -0.011826 3.70876e-24)
(0.0780891 -0.024558 -2.70684e-24)
(0.130767 -0.0416571 2.88494e-21)
(0.208086 -0.0674375 3.28124e-21)
(0.130185 -0.0415335 2.84833e-21)
(0.0776928 -0.0244388 -2.62091e-24)
(0.0377059 -0.011773 0)
(0.0377841 -0.0117738 9.46166e-22)
(0.0121838 -0.00378366 -7.99919e-25)
(0.0122126 -0.00378567 -6.54109e-22)
(0.305601 -0.101563 -5.39917e-21)
(0.390602 -0.132968 -2.05933e-24)
(0.456341 -0.158986 -3.59735e-21)
(0.496714 -0.176986 0)
(0.507946 -0.184989 2.95251e-21)
(0.489596 -0.182146 0)
(0.444714 -0.168925 -2.81871e-24)
(0.379043 -0.146942 -3.02716e-21)
(0.299639 -0.118514 0)
(0.213349 -0.0860907 3.75163e-21)
(0.125761 -0.051769 8.93321e-21)
(0.0406202 -0.017183 0)
(0.0121621 -0.0037741 2.52484e-24)
(0.0121401 -0.00376886 6.38824e-22)
(0.0375768 -0.0117129 9.32422e-22)
(0.0375169 -0.0117152 0)
(0.0773034 -0.0243122 2.62338e-24)
(0.129461 -0.0412415 -2.78217e-21)
(0.205961 -0.0667556 6.2131e-21)
(0.128895 -0.0411155 -2.74794e-21)
(0.0769157 -0.0242009 6.6197e-22)
(0.0373438 -0.0116626 0)
(0.0374176 -0.0116649 0)
(0.0120672 -0.00374745 6.30491e-22)
(0.012103 -0.00375146 -1.27047e-21)
(0.30251 -0.100541 0)
(0.386663 -0.131621 2.06274e-24)
(0.45176 -0.157382 -1.7418e-24)
(0.491796 -0.175221 -3.1125e-21)
(0.503025 -0.18318 2.86457e-21)
(0.485005 -0.180413 -2.75432e-21)
(0.440703 -0.16737 2.75901e-21)
(0.375773 -0.145641 0)
(0.29714 -0.1175 -3.16573e-21)
(0.211593 -0.0853653 -3.5985e-21)
(0.124744 -0.0513491 -2.12984e-24)
(0.0402755 -0.0170396 7.99093e-24)
(0.0120397 -0.00373482 -6.23808e-22)
(0.0120133 -0.00373103 6.20983e-22)
(0.0372261 -0.0116052 0)
(0.0371582 -0.0115975 0)
(0.0765248 -0.0240688 6.50909e-22)
(0.128189 -0.0408389 -2.67358e-21)
(0.203934 -0.0660966 -1.52264e-21)
(0.127624 -0.0407164 -3.81312e-23)
(0.0761566 -0.0239571 2.45247e-24)
(0.0369765 -0.0115481 0)
(0.037041 -0.0115484 -8.82118e-22)
(0.0119612 -0.00371459 6.13266e-22)
(0.0119925 -0.00371881 -6.17878e-22)
(0.299493 -0.0995334 0)
(0.382795 -0.130301 4.03647e-21)
(0.447245 -0.1558 3.31881e-21)
(0.486949 -0.173482 -2.92768e-21)
(0.498198 -0.181399 -3.0648e-23)
(0.480527 -0.178713 0)
(0.436827 -0.165855 2.63788e-21)
(0.372607 -0.144374 0)
(0.294705 -0.116509 2.92644e-24)
(0.209887 -0.0846648 0)
(0.123732 -0.0509301 -4.01259e-21)
(0.0399551 -0.0169044 -3.98792e-21)
(0.011932 -0.00370179 6.07718e-22)
(0.0118982 -0.00369154 6.04077e-22)
(0.0368446 -0.011487 -8.6681e-22)
(0.0367686 -0.0114856 -3.35879e-24)
(0.075797 -0.0238385 -2.45537e-24)
(0.126941 -0.0404397 2.6307e-21)
(0.201939 -0.0654502 1.46882e-21)
(0.126406 -0.0403184 2.55461e-21)
(0.0754223 -0.023731 2.43492e-21)
(0.0366192 -0.0114315 0)
(0.0366872 -0.0114378 3.3616e-24)
(0.0118367 -0.00367565 5.95226e-22)
(0.0118593 -0.0036781 -5.99961e-22)
(0.296521 -0.0985462 -4.68035e-21)
(0.378969 -0.128993 0)
(0.442793 -0.154241 0)
(0.482168 -0.171759 2.80453e-21)
(0.493464 -0.179642 -5.2036e-24)
(0.476173 -0.177044 -2.49139e-21)
(0.433063 -0.164374 -1.25298e-24)
(0.369527 -0.143141 0)
(0.292338 -0.115548 -1.42489e-24)
(0.208218 -0.0839816 3.23415e-21)
(0.122747 -0.0505227 7.62647e-21)
(0.0396338 -0.0167679 0)
(0.0118062 -0.00366256 0)
(0.0117763 -0.00365863 5.8578e-22)
(0.0364805 -0.0113727 0)
(0.0364215 -0.0113711 0)
(0.0750579 -0.023603 -1.78301e-21)
(0.125736 -0.0400574 0)
(0.199973 -0.0648132 0)
(0.125192 -0.0399365 2.72441e-23)
(0.0747018 -0.0234991 1.19199e-21)
(0.0362679 -0.0113267 8.2621e-22)
(0.0363276 -0.011325 -3.21657e-24)
(0.0117209 -0.00363787 5.77983e-22)
(0.0117587 -0.00364684 -5.82077e-22)
(0.293586 -0.0975686 0)
(0.375187 -0.127699 7.02095e-24)
(0.438366 -0.152686 0)
(0.477438 -0.170047 0)
(0.488814 -0.1779 0)
(0.471923 -0.175404 -1.24861e-24)
(0.429408 -0.162932 2.38975e-21)
(0.366537 -0.141942 0)
(0.29002 -0.114611 -2.68482e-21)
(0.206583 -0.0833131 -3.05774e-21)
(0.121775 -0.0501158 -3.59088e-21)
(0.0393022 -0.0166284 -3.5615e-21)
(0.0116794 -0.00362388 5.72081e-22)
(0.0116603 -0.00361947 5.67931e-22)
(0.0361498 -0.0112687 -8.08552e-22)
(0.0360766 -0.011262 -3.13108e-24)
(0.0743437 -0.0233803 -8.994e-24)
(0.124533 -0.0396755 0)
(0.198037 -0.0641847 1.36831e-21)
(0.12401 -0.0395562 -2.39834e-21)
(0.0739893 -0.023278 -2.26058e-21)
(0.0359196 -0.0112145 -7.90671e-22)
(0.0359943 -0.0112263 -7.91395e-22)
(0.0116058 -0.0036048 1.70819e-24)
(0.0116377 -0.00360823 -5.64852e-22)
(0.290677 -0.0965959 8.38767e-24)
(0.371408 -0.126405 -7.0276e-24)
(0.433942 -0.151126 1.13382e-23)
(0.472735 -0.16833 -4.97664e-24)
(0.484245 -0.176173 -4.54579e-24)
(0.467788 -0.173794 -2.26038e-21)
(0.42585 -0.161523 0)
(0.363611 -0.140774 5.68616e-24)
(0.287756 -0.113696 0)
(0.204957 -0.0826441 2.89562e-21)
(0.120796 -0.049708 3.66214e-23)
(0.0389707 -0.0164876 -1.31864e-23)
(0.0115857 -0.00359333 5.55189e-22)
(0.0115567 -0.00358576 0)
(0.0357876 -0.0111551 0)
(0.0357413 -0.0111551 0)
(0.073653 -0.0231637 0)
(0.123369 -0.0393065 0)
(0.196119 -0.0635585 1.30638e-21)
(0.122848 -0.039185 -2.28194e-21)
(0.0732903 -0.023058 2.1901e-21)
(0.035585 -0.0111117 7.6672e-22)
(0.0356514 -0.0111164 0)
(0.0115007 -0.00357096 1.05472e-24)
(0.0115316 -0.00357966 5.45961e-22)
(0.287761 -0.0956204 -4.27826e-21)
(0.367581 -0.125093 -1.2946e-23)
(0.429471 -0.14954 -2.89251e-21)
(0.468052 -0.1666 -2.51945e-21)
(0.479748 -0.174449 4.53814e-24)
(0.463739 -0.172213 -2.04398e-24)
(0.422367 -0.16015 2.13199e-21)
(0.360746 -0.139632 0)
(0.285499 -0.112782 0)
(0.20333 -0.0819738 2.73387e-21)
(0.119814 -0.0492965 3.17684e-21)
(0.0386473 -0.0163477 -3.15418e-21)
(0.0114609 -0.00355482 5.35965e-22)
(0.0114431 -0.00355026 -5.33726e-22)
(0.0354753 -0.0110555 0)
(0.0354182 -0.0110579 0)
(0.0729643 -0.0229484 -8.36928e-24)
(0.122207 -0.0389305 8.67999e-24)
(0.194211 -0.0629353 3.66217e-21)
(0.12169 -0.0388128 -4.42011e-21)
(0.072617 -0.0228464 5.46158e-22)
(0.03525 -0.0110058 7.36654e-22)
(0.0353234 -0.0110181 2.89038e-24)
(0.0113936 -0.00353757 3.63066e-24)
(0.0114171 -0.00354201 5.28935e-22)
(0.284797 -0.0946305 -8.06732e-24)
(0.363656 -0.123744 3.2188e-21)
(0.424927 -0.147907 2.69498e-21)
(0.463352 -0.164833 -2.41996e-21)
(0.475307 -0.172737 1.02286e-24)
(0.459766 -0.170667 2.04067e-24)
(0.41895 -0.158809 -3.82246e-24)
(0.3579 -0.138499 7.93537e-24)
(0.283246 -0.111868 0)
(0.201701 -0.0813005 -3.10284e-23)
(0.118828 -0.0488791 -1.13531e-23)
(0.03831 -0.0162046 2.9521e-21)
(0.0113707 -0.00352441 -5.23271e-22)
(0.0113404 -0.00352145 5.15901e-22)
(0.0351334 -0.0109496 -7.31431e-22)
(0.0350853 -0.010955 2.80641e-24)
(0.0722862 -0.0227304 0)
(0.121075 -0.0385709 2.16716e-21)
(0.192279 -0.0623022 -1.22978e-21)
(0.120559 -0.0384492 2.1135e-21)
(0.0719364 -0.022629 2.03395e-21)
(0.0349281 -0.0109069 0)
(0.0349957 -0.0109163 -7.15056e-22)
(0.0112921 -0.00350462 1.69793e-24)
(0.0113216 -0.00351547 5.11552e-22)
(0.281708 -0.0935979 1.48824e-23)
(0.359541 -0.122314 3.17097e-21)
(0.42023 -0.146187 2.58354e-21)
(0.458628 -0.163033 0)
(0.470918 -0.171049 -1.02115e-24)
(0.455864 -0.169162 0)
(0.415571 -0.157489 1.10356e-23)
(0.355057 -0.137365 -1.5401e-23)
(0.280988 -0.11095 -2.144e-21)
(0.200073 -0.0806238 9.03141e-24)
(0.117826 -0.0484543 7.64921e-25)
(0.0379685 -0.0160628 -2.76502e-21)
(0.0112504 -0.00348731 5.01938e-22)
(0.0112274 -0.0034872 4.98799e-22)
(0.0348302 -0.0108541 2.72869e-24)
(0.0347711 -0.0108547 -1.37928e-24)
(0.0716288 -0.0225253 -2.00121e-21)
(0.119944 -0.0382076 2.0502e-21)
(0.190271 -0.0616441 -1.16917e-21)
(0.119421 -0.0380799 0)
(0.0712862 -0.0224256 9.69563e-24)
(0.0346091 -0.0108047 0)
(0.034667 -0.0108073 -1.3533e-24)
(0.0111905 -0.00347413 4.92436e-22)
(0.0112109 -0.00348113 0)
(0.278345 -0.0924752 9.51528e-23)
(0.355125 -0.120757 -3.05568e-21)
(0.415354 -0.144355 -2.55811e-21)
(0.453889 -0.161231 0)
(0.466593 -0.169413 -7.26196e-24)
(0.452017 -0.167688 0)
(0.412209 -0.156172 -7.21373e-24)
(0.35222 -0.13623 7.46654e-24)
(0.278738 -0.110028 2.0051e-21)
(0.198418 -0.0799321 -9.03558e-24)
(0.116824 -0.0480308 2.04538e-23)
(0.0376142 -0.0159151 0)
(0.0111606 -0.00345869 -9.56474e-25)
(0.0111353 -0.00345714 4.81546e-22)
(0.0345125 -0.0107601 0)
(0.0344519 -0.0107556 0)
(0.0709635 -0.0223161 -4.87601e-22)
(0.118822 -0.0378456 2.00689e-21)
(0.188034 -0.0609228 -5.52154e-21)
(0.11826 -0.0377031 1.94862e-21)
(0.0706338 -0.0222165 4.77728e-22)
(0.034303 -0.0107078 -1.29043e-24)
(0.0343665 -0.0107177 1.28956e-24)
(0.0110772 -0.00343783 -4.75382e-22)
(0.011112 -0.00344646 4.79898e-22)
(0.274567 -0.0912036 3.58532e-21)
(0.350244 -0.118967 2.85668e-21)
(0.410304 -0.142447 -1.18986e-24)
(0.449198 -0.159495 2.03658e-21)
(0.462359 -0.167829 3.94417e-25)
(0.448219 -0.166232 0)
(0.408863 -0.154856 1.70429e-21)
(0.349388 -0.135088 -1.74044e-21)
(0.276464 -0.109092 -7.53626e-24)
(0.196761 -0.0792357 7.82457e-24)
(0.1158 -0.0475976 2.40196e-21)
(0.0372549 -0.0157621 4.44801e-24)
(0.0110551 -0.00342996 4.7022e-22)
(0.0110314 -0.00342609 4.66067e-22)
(0.0341974 -0.0106611 0)
(0.0341532 -0.0106631 6.41281e-22)
(0.0703235 -0.0221097 -1.37878e-21)
(0.117602 -0.0374547 1.89078e-21)
(0.18537 -0.0600636 0)
(0.116942 -0.0372808 -1.89965e-21)
(0.0699733 -0.0220082 0)
(0.0339966 -0.0106131 5.32454e-24)
(0.0340635 -0.0106197 -1.22969e-24)
(0.0109919 -0.00340993 -4.59525e-22)
(0.0110132 -0.0034177 4.62033e-22)
(0.269927 -0.089591 1.74844e-21)
(0.344865 -0.116933 2.83897e-21)
(0.405257 -0.140629 -2.1762e-21)
(0.444664 -0.157848 -7.19964e-24)
(0.458229 -0.16628 6.86927e-24)
(0.444458 -0.164781 -1.60583e-21)
(0.405522 -0.153535 -6.39993e-24)
(0.346546 -0.133939 -1.63309e-21)
(0.274174 -0.108144 0)
(0.195085 -0.0785316 -1.94895e-21)
(0.114758 -0.047153 -2.22218e-21)
(0.0369024 -0.0156119 -1.25787e-23)
(0.0109577 -0.00339957 0)
(0.0109429 -0.00339914 0)
(0.0338975 -0.0105671 1.22773e-24)
(0.0338421 -0.0105627 -6.18125e-22)
(0.0696418 -0.0218931 -4.39612e-22)
(0.116168 -0.0370032 -1.85524e-21)
(0.181616 -0.0588605 -2.59006e-21)
(0.115209 -0.0367385 1.40056e-23)
(0.0692664 -0.0217845 2.18035e-21)
(0.0336954 -0.0105159 0)
(0.0337643 -0.0105294 0)
(0.0108825 -0.00337715 -8.85643e-22)
(0.0109182 -0.00338563 4.46757e-22)
(0.264083 -0.0874 -3.30228e-21)
(0.339388 -0.115022 -2.5866e-21)
(0.400496 -0.138959 2.12241e-21)
(0.440334 -0.156263 7.21071e-24)
(0.454193 -0.164756 1.64707e-21)
(0.440731 -0.163336 -1.54133e-21)
(0.402184 -0.152211 1.48517e-21)
(0.343681 -0.132775 5.7186e-24)
(0.271879 -0.107192 -1.6103e-21)
(0.193394 -0.0778173 1.78768e-21)
(0.113725 -0.0467102 2.03043e-21)
(0.0365328 -0.0154546 8.13916e-24)
(0.0108613 -0.00336977 4.38513e-22)
(0.0108393 -0.00336626 4.34512e-22)
(0.0335884 -0.0104708 5.97894e-22)
(0.0335393 -0.0104688 -1.15884e-24)
(0.0688847 -0.0216462 1.72369e-21)
(0.113881 -0.0363617 1.74507e-21)
(0.174843 -0.0564499 -1.55364e-23)
(0.112006 -0.0357476 -1.36329e-23)
(0.0683503 -0.0215029 4.1422e-22)
(0.0334044 -0.0104253 7.45856e-24)
(0.0334554 -0.0104319 -1.13812e-24)
(0.0107964 -0.00334821 0)
(0.0108257 -0.00335934 4.30558e-22)
(0.25786 -0.0853273 3.0339e-21)
(0.33447 -0.113363 -2.37558e-21)
(0.396141 -0.137403 -1.58999e-23)
(0.436196 -0.154733 -1.69191e-21)
(0.450239 -0.163258 1.51883e-21)
(0.437035 -0.161901 0)
(0.398853 -0.150885 -1.40249e-21)
(0.340827 -0.131609 1.40288e-21)
(0.269574 -0.106229 -1.48202e-21)
(0.191709 -0.0770977 -1.63892e-21)
(0.112673 -0.0462527 -1.8437e-21)
(0.0361505 -0.0152926 0)
(0.0107563 -0.00333719 4.23149e-22)
(0.0107409 -0.00333637 4.19492e-22)
(0.033316 -0.0103808 -1.13675e-24)
(0.0332474 -0.0103682 0)
(0.0676405 -0.0213031 -4.02585e-22)
(0.108628 -0.0346491 9.00854e-22)
(0.166667 -0.0539299 5.118e-22)
(0.103085 -0.03257 1.37092e-23)
(0.0665071 -0.0209849 -5.01941e-23)
(0.0330691 -0.0103221 -5.62732e-22)
(0.0331575 -0.0103372 5.69931e-22)
(0.0107041 -0.00332107 -8.2599e-22)
(0.0107286 -0.00332885 4.15955e-22)
(0.252859 -0.0836546 -2.97497e-21)
(0.330288 -0.111897 0)
(0.392111 -0.135941 0)
(0.432217 -0.153258 -1.24004e-23)
(0.446365 -0.161786 -1.47713e-21)
(0.43338 -0.160475 2.70334e-21)
(0.395544 -0.149558 -5.25872e-24)
(0.337978 -0.130438 -7.66105e-24)
(0.267273 -0.105257 -1.36922e-21)
(0.190004 -0.0763625 1.48857e-21)
(0.111593 -0.0457842 1.65362e-21)
(0.0357668 -0.0151319 2.86076e-24)
(0.0106846 -0.00331275 4.08948e-22)
(0.0106581 -0.00330555 4.05966e-22)
(0.0329328 -0.0102718 6.36473e-24)
(0.0327906 -0.0102418 -4.2879e-24)
(0.0642634 -0.0202465 -5.54757e-22)
(0.096768 -0.0308201 -8.51692e-22)
(0.161844 -0.052154 2.97054e-21)
(0.0931893 -0.0298038 -7.83495e-22)
(0.0570473 -0.0176388 0)
(0.0322923 -0.0101137 -2.72677e-22)
(0.0326212 -0.0101838 4.27715e-24)
(0.010608 -0.00329187 3.99658e-22)
(0.010637 -0.00329834 -4.00647e-22)
(0.249166 -0.0823528 2.24163e-23)
(0.326641 -0.110595 0)
(0.388343 -0.134576 0)
(0.428381 -0.151835 1.53189e-21)
(0.442568 -0.160336 -1.34752e-21)
(0.429764 -0.159056 -3.37277e-25)
(0.392258 -0.148231 -2.73258e-23)
(0.335135 -0.129256 1.1877e-21)
(0.264967 -0.104277 4.57943e-24)
(0.188282 -0.0756191 -2.65005e-21)
(0.110515 -0.0453166 0)
(0.0353681 -0.0149635 -2.86741e-24)
(0.0105734 -0.00328022 2.52332e-24)
(0.0105337 -0.00326981 3.91469e-22)
(0.0317283 -0.0100035 -1.62208e-23)
(0.0305198 -0.00946876 -2.43647e-22)
(0.0479892 -0.0154959 -1.4359e-22)
(0.0913946 -0.0289343 7.5509e-22)
(0.159221 -0.0511672 -8.26818e-22)
(0.0904432 -0.0285965 1.20421e-23)
(0.0449406 -0.0141915 1.08623e-21)
(0.0189393 -0.00444123 0)
(0.0279196 -0.00829865 0)
(0.010381 -0.00322658 5.7407e-22)
(0.0104957 -0.0032523 -3.88304e-22)
(0.24621 -0.0813181 -2.79839e-21)
(0.323345 -0.109427 0)
(0.384788 -0.133289 -6.59206e-24)
(0.424666 -0.150449 0)
(0.438845 -0.158909 0)
(0.426197 -0.157644 1.15261e-21)
(0.388986 -0.146899 1.13302e-21)
(0.332303 -0.128072 0)
(0.262654 -0.103286 1.10713e-21)
(0.186566 -0.0748697 -1.16732e-21)
(0.109419 -0.0448327 1.26641e-21)
(0.0349586 -0.0147943 0)
(0.0101896 -0.00319695 -3.79008e-22)
(0.0097233 -0.00311296 -1.73338e-22)
(0.0126997 -0.00398418 2.11006e-22)
(0.0113012 -0.0037586 0)
(0.044131 -0.0137711 0)
(0.0897318 -0.0283054 -1.2036e-23)
(0.157387 -0.0505857 4.15972e-21)
(0.0892914 -0.0282126 1.48205e-21)
(0.0437106 -0.0136168 3.56924e-22)
(0.0103387 -0.00325443 -3.78821e-22)
(0.0106092 -0.0033502 1.96293e-22)
(0.00523641 -0.00117973 0)
(0.00905558 -0.00290803 -1.65672e-22)
(0.243661 -0.0804485 0)
(0.320314 -0.10836 -2.08091e-21)
(0.381396 -0.132056 1.28615e-23)
(0.421063 -0.149102 0)
(0.435195 -0.157498 1.24151e-21)
(0.422669 -0.15624 -1.06839e-21)
(0.385756 -0.145571 -3.80857e-24)
(0.329486 -0.126879 0)
(0.260358 -0.102286 9.7671e-22)
(0.184837 -0.0741044 -1.01748e-21)
(0.108295 -0.0443385 0)
(0.0345384 -0.0146174 0)
(0.0102984 -0.00320104 -3.78617e-22)
(0.0102553 -0.00318802 0)
(0.0434573 -0.0135401 1.13197e-23)
(0.0888059 -0.0280512 -1.21048e-25)
(0.155835 -0.0501219 -8.18324e-22)
(0.0884687 -0.0279953 -1.4235e-21)
(0.0432607 -0.0134824 0)
(0.0102156 -0.00317525 7.13187e-25)
(0.0102267 -0.00316783 3.68483e-22)
(0.241379 -0.0796777 2.44416e-21)
(0.317472 -0.107359 1.98532e-21)
(0.378144 -0.130872 -6.26716e-24)
(0.417557 -0.147781 -1.27331e-21)
(0.431613 -0.156104 -1.16471e-21)
(0.419197 -0.154841 -1.04111e-21)
(0.382548 -0.144236 9.59587e-22)
(0.326686 -0.125677 -9.01795e-22)
(0.258052 -0.101273 -8.70665e-22)
(0.183079 -0.073323 7.53319e-25)
(0.10716 -0.0438344 8.62556e-22)
(0.0341108 -0.0144358 0)
(0.0102001 -0.0031608 -6.95093e-25)
(0.0101922 -0.00316763 3.54326e-22)
(0.043094 -0.0134415 3.4378e-22)
(0.0880452 -0.0278445 0)
(0.15446 -0.0496932 0)
(0.087723 -0.0277846 1.35785e-21)
(0.042928 -0.01339 -1.29485e-24)
(0.0101613 -0.00315641 3.46347e-22)
(0.0101699 -0.00315132 3.50129e-22)
(0.239264 -0.0789613 -2.32204e-21)
(0.314771 -0.106405 0)
(0.375002 -0.129722 5.61018e-24)
(0.414138 -0.146484 1.18947e-21)
(0.428102 -0.154722 1.02306e-21)
(0.415768 -0.153444 -9.01093e-22)
(0.379376 -0.142898 1.68781e-21)
(0.3239 -0.124466 7.63908e-22)
(0.255745 -0.100247 0)
(0.181309 -0.0725273 -6.93415e-22)
(0.105997 -0.0433129 0)
(0.033664 -0.0142484 0)
(0.0101411 -0.00314402 -6.72296e-25)
(0.0101403 -0.00315016 6.50743e-25)
(0.0427725 -0.0133502 -1.23972e-24)
(0.0873142 -0.0276264 -1.35038e-21)
(0.153175 -0.0492801 1.51103e-21)
(0.087028 -0.027565 0)
(0.0425903 -0.0132994 2.53897e-24)
(0.0101018 -0.00313574 6.54033e-25)
(0.0101166 -0.00313351 3.35864e-22)
(0.23726 -0.0782811 -9.13526e-24)
(0.31218 -0.105488 -6.65297e-24)
(0.37196 -0.128601 -3.08933e-25)
(0.410805 -0.145206 -1.18871e-21)
(0.424653 -0.153349 0)
(0.412394 -0.152048 -8.24767e-22)
(0.376238 -0.141554 0)
(0.321128 -0.123243 -1.40985e-24)
(0.253433 -0.0992029 0)
(0.179521 -0.0717128 0)
(0.104812 -0.0427768 4.36364e-22)
(0.0331965 -0.0140548 -2.07035e-22)
(0.0100787 -0.00312397 3.29408e-22)
(0.0100743 -0.00313065 0)
(0.0424235 -0.0132474 1.24032e-21)
(0.0866289 -0.0274068 -1.26477e-21)
(0.151936 -0.0488796 1.44136e-21)
(0.0863294 -0.0273417 -1.23336e-21)
(0.0422563 -0.0131937 -3.07441e-22)
(0.0100266 -0.00311702 3.18199e-22)
(0.0100431 -0.00311467 3.23917e-22)
(0.235352 -0.0776303 -4.12625e-24)
(0.309695 -0.104601 1.70904e-21)
(0.369003 -0.127499 1.27295e-21)
(0.407552 -0.143944 1.12455e-21)
(0.421274 -0.151983 1.70039e-24)
(0.409063 -0.150648 1.42889e-24)
(0.373125 -0.140198 6.95447e-22)
(0.318362 -0.122001 0)
(0.251106 -0.0981363 1.91809e-25)
(0.177702 -0.0708745 -3.50221e-22)
(0.103586 -0.0422232 2.11185e-22)
(0.0327153 -0.0138538 9.27137e-26)
(0.00999932 -0.00310124 3.16251e-22)
(0.009993 -0.0031057 3.13568e-22)
(0.0420941 -0.0131404 0)
(0.0859549 -0.0271946 -2.43138e-21)
(0.150753 -0.0484899 6.86225e-22)
(0.0856737 -0.0271347 -1.17924e-21)
(0.0419223 -0.0130853 -1.13717e-24)
(0.00994579 -0.00309113 3.07761e-22)
(0.00996062 -0.00308836 3.0768e-22)
(0.233524 -0.0770009 -2.00127e-21)
(0.307278 -0.103731 1.61743e-21)
(0.366141 -0.126421 -1.20149e-21)
(0.404375 -0.142691 -2.04203e-24)
(0.417957 -0.150617 -1.70035e-24)
(0.405784 -0.149245 -6.59552e-22)
(0.370042 -0.138831 0)
(0.315607 -0.120741 0)
(0.24876 -0.0970452 -1.91944e-25)
(0.175859 -0.0700164 -3.62487e-22)
(0.102326 -0.0416485 0)
(0.0322159 -0.0136479 -3.26305e-22)
(0.00991988 -0.00307593 3.03468e-22)
(0.00991258 -0.00308046 3.0043e-22)
(0.041767 -0.0130381 1.13996e-21)
(0.0853093 -0.0269881 -1.14731e-24)
(0.149623 -0.0481142 -2.12061e-23)
(0.0850312 -0.0269273 -1.12344e-21)
(0.0416158 -0.0129952 0)
(0.00987769 -0.00306562 5.71824e-25)
(0.00989148 -0.00306552 -5.84052e-25)
(0.23175 -0.0763881 -1.90497e-21)
(0.30495 -0.102884 0)
(0.363356 -0.125354 1.21733e-21)
(0.401272 -0.141444 0)
(0.414703 -0.149252 0)
(0.40255 -0.147833 0)
(0.366982 -0.137446 5.22056e-22)
(0.312852 -0.119458 -3.78012e-22)
(0.246403 -0.0959282 1.61807e-22)
(0.173967 -0.0691261 -1.18808e-23)
(0.101031 -0.0410589 2.00355e-25)
(0.0316923 -0.0134364 -2.29083e-25)
(0.00984191 -0.00305012 2.90266e-22)
(0.00983738 -0.00305698 2.87113e-22)
(0.0414612 -0.0129433 0)
(0.0846858 -0.0267871 2.20544e-21)
(0.148522 -0.0477512 6.22773e-22)
(0.0844256 -0.0267259 -1.07024e-21)
(0.0413025 -0.0128969 1.03702e-24)
(0.00980763 -0.00304742 0)
(0.00981377 -0.00304376 2.85312e-22)
(0.230045 -0.0757945 -1.90728e-21)
(0.302692 -0.10205 -1.36818e-21)
(0.360644 -0.124294 2.10554e-24)
(0.398237 -0.140199 1.66033e-24)
(0.411509 -0.147885 0)
(0.39936 -0.14641 -4.93739e-22)
(0.363952 -0.136042 3.43347e-22)
(0.310088 -0.118142 0)
(0.244012 -0.0947776 9.95516e-24)
(0.172035 -0.0682081 0)
(0.09968 -0.0404502 -5.32606e-25)
(0.031159 -0.0132267 -2.07485e-24)
(0.00977482 -0.00303044 2.78689e-22)
(0.00976064 -0.00303367 2.75298e-22)
(0.0411682 -0.0128507 -1.03882e-21)
(0.084078 -0.0265913 4.06117e-24)
(0.147466 -0.0474034 2.84427e-21)
(0.083816 -0.0265346 -1.02281e-21)
(0.0410151 -0.0128006 0)
(0.00972944 -0.00302369 5.22816e-25)
(0.00973744 -0.00301987 2.72454e-22)
(0.228397 -0.0752164 0)
(0.300511 -0.101225 0)
(0.358009 -0.123238 -1.60879e-24)
(0.395278 -0.13896 8.65614e-22)
(0.408378 -0.146513 0)
(0.396217 -0.144971 0)
(0.360932 -0.134609 0)
(0.307313 -0.116794 1.69434e-26)
(0.241576 -0.0935895 0)
(0.17005 -0.0672611 0)
(0.0982722 -0.0398333 3.32648e-25)
(0.0306264 -0.0130109 -1.21598e-21)
(0.00970481 -0.00300956 2.6576e-22)
(0.00970092 -0.00301358 2.63203e-22)
(0.040876 -0.0127583 2.4799e-22)
(0.0834875 -0.0264046 0)
(0.146443 -0.0470742 -5.59793e-22)
(0.0832399 -0.02635 -9.69406e-22)
(0.040724 -0.0127137 3.86852e-24)
(0.00966378 -0.00300098 0)
(0.00967628 -0.00299837 2.6102e-22)
(0.226816 -0.0746475 1.73674e-21)
(0.298402 -0.100399 0)
(0.355443 -0.122187 -9.32227e-22)
(0.39239 -0.137722 0)
(0.405308 -0.145131 0)
(0.393112 -0.14351 4.45601e-22)
(0.357925 -0.133146 6.7367e-26)
(0.304529 -0.115412 -1.69502e-26)
(0.239108 -0.0923653 2.37857e-22)
(0.167989 -0.0662793 5.93656e-22)
(0.0968028 -0.0392351 0)
(0.0302385 -0.0127127 1.55814e-21)
(0.00963773 -0.00298796 0)
(0.00963442 -0.00299294 2.70947e-25)
(0.0405883 -0.0126692 0)
(0.0829092 -0.0262285 9.41967e-25)
(0.145454 -0.0467715 -2.05784e-21)
(0.0826563 -0.0261847 9.21874e-22)
(0.040444 -0.0126259 0)
(0.00959168 -0.00298083 2.46011e-22)
(0.0096056 -0.00297824 2.49728e-22)
(0.225313 -0.0740647 -7.73562e-25)
(0.29635 -0.0995744 0)
(0.352962 -0.121151 0)
(0.389578 -0.136481 0)
(0.4023 -0.143734 -4.38773e-22)
(0.390045 -0.142024 1.28214e-25)
(0.354934 -0.131648 -6.73868e-26)
(0.301721 -0.113985 -1.16947e-22)
(0.23657 -0.0910977 -4.9618e-22)
(0.165884 -0.0652905 0)
(0.0952326 -0.0385809 0)
(0.0306277 -0.0124512 0)
(0.00956945 -0.00296752 0)
(0.00956293 -0.00297133 2.40402e-22)
(0.0403031 -0.0125822 0)
(0.0823338 -0.0260943 9.1323e-22)
(0.144634 -0.046329 1.01026e-24)
(0.082116 -0.0261092 3.50377e-24)
(0.0401595 -0.012541 0)