/*--------------------------------*- C++ -*----------------------------------*\
| =========                 |                                                 |
| \\      /  F ield         | OpenFOAM: The Open Source CFD Toolbox           |
|  \\    /   O peration     | Version:  v1912                                 |
|   \\  /    A nd           | Website:  www.openfoam.com                      |
|    \\/     M anipulation  |                                                 |
\*---------------------------------------------------------------------------*/
FoamFile
{
    version     2.0;
    format      ascii;
    class       volScalarField;
    location    "150";
    object      p;
}
// * * * * * * * * * * * * * * * * * * * * * * * * * * * * * * * * * * * * * //

dimensions      [0 2 -2 0 0 0 0];


internalField   nonuniform List<scalar> 
3675
(
0.00200012
0.0022521
0.00182093
0.0020666
0.0016648
0.00231144
0.00190081
0.00151667
0.0025251
0.00213855
0.00174712
0.00138049
0.00271493
0.00234956
0.00197713
0.00160474
0.00125732
0.00287013
0.00254019
0.00218239
0.00183378
0.0014773
0.00113864
0.00297907
0.00269617
0.00237174
0.00203761
0.00169873
0.00135323
0.00103071
0.00302691
0.00280657
0.00253077
0.00221994
0.00189366
0.00156785
0.00124044
0.000931358
0.00300665
0.00286025
0.00264695
0.00237618
0.00207488
0.00176158
0.00145239
0.00113789
0.000836714
0.00292014
0.00285191
0.00271387
0.00249867
0.00223039
0.00193932
0.00164166
0.00134358
0.0010367
0.000753776
0.0027774
0.00277399
0.00272502
0.00257525
0.00234809
0.00208963
0.00181291
0.00152779
0.00124096
0.000949917
0.000675013
0.00259879
0.00262747
0.00267745
0.00260393
0.00242571
0.00220563
0.0019589
0.0016967
0.00142275
0.00114785
0.000867036
0.000603985
0.00243747
0.0024034
0.0025765
0.00259093
0.00245943
0.00227665
0.00206765
0.00183528
0.00158381
0.00132115
0.00106207
0.000791006
0.000533353
0.00236582
0.00210704
0.00241978
0.00254279
0.00244844
0.00229903
0.00213246
0.00193814
0.00172072
0.00148177
0.00123606
0.000981446
0.000719216
0.000474043
0.00238951
0.0018364
0.00213058
0.00216967
0.00247661
0.00239855
0.00227465
0.00214815
0.00199807
0.00182316
0.00161497
0.0013892
0.00114691
0.000904722
0.000655668
0.000419747
0.00240423
0.00227191
0.00200896
0.00184222
0.00153707
0.00214549
0.00238824
0.00231567
0.00220134
0.0021125
0.00200872
0.00187784
0.00170799
0.00151309
0.00129635
0.00106906
0.000837153
0.000596029
0.000372788
0.00233269
0.00222085
0.00209125
0.00205581
0.00154956
0.0022248
0.00199162
0.00147079
0.00197484
0.00212454
0.00221099
0.00208382
0.00203049
0.00196974
0.00188317
0.00175847
0.00160353
0.0014197
0.00121567
0.000997322
0.000775484
0.000546178
0.000331223
0.0021979
0.00232211
0.0021417
0.00205154
0.00208495
0.00189432
0.00109665
0.00202298
0.00204659
0.00196815
0.00195585
0.00129102
0.00197192
0.00194973
0.00202412
0.00193626
0.00190932
0.00188718
0.00183959
0.00176126
0.00165033
0.001507
0.00133326
0.00113784
0.000932875
0.000720561
0.000500638
0.000295831
0.00216143
0.00225401
0.00207739
0.00201959
0.0019689
0.00198476
0.000451909
0.0015889
0.00197724
0.00179537
0.0017722
0.00178298
0.0018028
0.00198239
0.00190535
0.00269561
0.00218379
0.00188875
0.00196412
0.00175477
0.00176641
0.00175292
0.00171588
0.00164841
0.00154957
0.0014143
0.0012524
0.00106964
0.000868245
0.000671952
0.000461736
0.000267909
0.00213139
0.00220115
0.00185415
0.00188185
-0.000860581
0.00302299
0.00180431
0.00180257
0.00169191
0.00162812
0.00159056
0.00160257
0.00164649
0.00169018
0.00167415
0.00190931
0.00221459
0.00242479
0.00183849
0.00161588
0.00163077
0.00162601
0.00159866
0.00154508
0.00145327
0.00132846
0.00117473
0.000999154
0.000820366
0.000629048
0.000430196
0.000244701
-0.00336807
0.00175062
0.00170304
0.00161493
0.0016143
0.00155293
0.00147976
0.00144999
0.00144014
0.0014932
0.00156195
0.00156829
0.001626
0.00165098
0.00148206
0.00150014
0.00150921
0.00149519
0.00144676
0.00136386
0.00124693
0.00110272
0.00094664
0.000771194
0.000592458
0.000403131
0.000229943
0.00157758
0.00156747
0.00149477
0.00147482
0.00139972
0.00133933
0.00131495
0.00129713
0.00133881
0.00140728
0.00143067
0.00150765
0.00154352
0.0013542
0.00138825
0.0014049
0.00139596
0.00135464
0.0012781
0.00117031
0.00104204
0.000892486
0.000733066
0.000565314
0.000386165
0.000217081
0.00145671
0.00143447
0.00134715
0.00131875
0.00125735
0.00120444
0.00119055
0.00116187
0.00119878
0.00125232
0.00128128
0.00135522
0.00140316
0.00124359
0.00128117
0.00130367
0.00130268
0.00126576
0.00119571
0.00110016
0.000982834
0.000849876
0.000699224
0.000542225
0.000371466
0.00021686
0.00130667
0.00127889
0.00120087
0.00117133
0.00111973
0.0010832
0.00108024
0.00103609
0.00106626
0.0011107
0.00113852
0.00120105
0.00124969
0.00113305
0.00118216
0.00121169
0.00121021
0.00117937
0.00111814
0.00103286
0.000930457
0.000807515
0.000671765
0.000524929
0.000363853
0.000218894
0.00115714
0.0011336
0.00106351
0.00103544
0.000995409
0.000969012
0.000971708
0.000926341
0.000945258
0.000979038
0.00100619
0.00105948
0.00110223
0.00103638
0.00109
0.00112015
0.00112681
0.00109761
0.00104359
0.00097251
0.000884557
0.000779839
0.000653542
0.000513983
0.000366326
0.000230819
0.00101903
0.000997958
0.000938548
0.000909956
0.00087999
0.000861278
0.000875231
0.000820413
0.000834273
0.000858334
0.000887872
0.000928528
0.000969362
0.000941906
0.00100004
0.00103793
0.00103892
0.00101428
0.000973912
0.000921046
0.000849975
0.000754984
0.000639876
0.000512373
0.000373212
0.000238706
0.000892739
0.000873106
0.000822081
0.000795138
0.000773948
0.000764119
0.00078102
0.000723723
0.000730246
0.000749462
0.00077471
0.000805616
0.000852752
0.000857062
0.000916512
0.000947294
0.000951391
0.000934378
0.000909816
0.000876819
0.000821639
0.000738823
0.000631075
0.000513499
0.000375832
0.000259147
0.00077882
0.000756683
0.000713124
0.000695785
0.000676011
0.000672991
0.000695696
0.000631646
0.000635038
0.00064814
0.000669159
0.000697857
0.000739569
0.000772686
0.000832392
0.000864886
0.000863038
0.000857554
0.000855214
0.00084315
0.000801494
0.000724122
0.000628617
0.000516741
0.000396156
0.000283971
0.000672053
0.000656827
0.000614493
0.000598137
0.000585241
0.000588882
0.000613596
0.0005452
0.0005455
0.000555196
0.000574023
0.000602032
0.000629286
0.000695624
0.000753398
0.000768737
0.000772031
0.000788849
0.000815136
0.000819252
0.000784171
0.000718755
0.00062729
0.000533654
0.000415875
0.000315362
0.000572269
0.000559465
0.000522086
0.000509165
0.000500476
0.000512815
0.000538612
0.000460111
0.000462497
0.000467644
0.000485688
0.000509979
0.000534611
0.000617477
0.000659546
0.000667607
0.00068507
0.000736616
0.000790517
0.000801815
0.000770207
0.00071213
0.00063861
0.000545333
0.000446335
0.000353857
0.000479792
0.00047102
0.000438481
0.000423676
0.00042098
0.00043817
0.000461267
0.000380827
0.000381336
0.000386834
0.000405192
0.000422546
0.000446848
0.00053663
0.000560449
0.000559345
0.000614051
0.00071131
0.00077363
0.000783439
0.000759186
0.000711193
0.00064545
0.000572554
0.000478656
0.000396033
0.000397469
0.000384781
0.000357846
0.000348459
0.000347767
0.000365018
0.000391236
0.000304589
0.00030286
0.000308306
0.000322958
0.00034268
0.000367423
0.000450085
0.000432238
0.000457762
0.000584867
0.000701648
0.000757491
0.000765954
0.000747787
0.000713107
0.000662944
0.000600169
0.000519229
0.000450839
0.000314698
0.000319903
0.000282169
0.000274531
0.000274847
0.000293583
0.000316622
0.000225169
0.000227973
0.000232946
0.000249132
0.000264123
0.000279878
0.000329376
0.000294792
0.000412438
0.000588643
0.000696822
0.000732651
0.000741719
0.000739749
0.000720776
0.000687816
0.000638168
0.000568989
0.000514123
0.000239139
0.000245807
0.000212948
0.00019846
0.000201181
0.000223191
0.000232563
0.000141137
0.000154791
0.000157755
0.000179625
0.000190388
0.000207161
0.00017293
0.000193531
0.000439384
0.000610684
0.000668843
0.000695788
0.000720271
0.000733357
0.000735733
0.000716193
0.000683042
0.000627177
0.000587853
0.000172219
0.000168254
0.000139962
0.000126847
0.00012688
0.000157413
0.000125019
4.77498e-05
7.14715e-05
8.35035e-05
0.000107275
0.000115748
0.00014036
-4.83617e-05
0.000243162
0.000512598
0.00058588
0.000617164
0.000658382
0.000699614
0.000735771
0.000754592
0.000755434
0.000732111
0.00069804
0.000672461
9.87221e-05
9.95639e-05
6.84357e-05
5.07197e-05
5.44666e-05
8.63685e-05
-0.000190684
-4.79366e-05
-9.39128e-06
1.73983e-06
3.30655e-05
4.41344e-05
6.79333e-05
-4.82542e-05
0.000416009
0.00049255
0.00051351
0.000561834
0.000622478
0.000685348
0.000739036
0.00077897
0.000793283
0.000804027
0.000777118
0.000769529
2.67862e-05
2.43386e-05
-3.48037e-06
-3.32059e-05
-2.40155e-05
-3.24043e-05
-0.000417188
-0.000378326
-7.27875e-05
-8.9037e-05
-4.54999e-05
-3.34992e-05
-3.85523e-06
0.000323645
0.000402392
0.00039554
0.000440762
0.000510003
0.000589645
0.000671801
0.000747899
0.000808691
0.000856281
0.00087044
0.000870792
0.000880034
-5.0669e-05
-5.37842e-05
-8.86957e-05
-0.000132352
-1.09047e-05
-0.000722686
0.000197961
-0.000283865
-0.000107566
-0.000197422
-0.000121301
-0.000121998
-8.52775e-05
0.000315356
0.000261158
0.000302429
0.000373361
0.000459381
0.000558795
0.000663686
0.000764759
0.000852782
0.000912723
0.000963683
0.000971888
0.000998129
-0.000133167
-0.000157032
-0.000120452
-0.000199226
-0.00133816
6.18729e-05
0.000181498
4.14846e-05
-0.00038767
7.95683e-05
3.6109e-06
-0.000234801
-0.000180787
0.000119714
0.000153039
0.000224651
0.000310092
0.000412431
0.000529535
0.000657482
0.000785845
0.000898381
0.000994895
0.00105075
0.00108951
0.00114244
-0.000220866
-0.000260266
0.000457146
-0.00218786
7.44178e-05
-8.84576e-05
-1.97435e-05
-6.29885e-05
-9.9786e-05
2.16392e-05
0.000641646
-5.75616e-05
-0.000193118
-9.38583e-08
7.59895e-05
0.000154992
0.000247848
0.000361947
0.000501828
0.000656633
0.000814258
0.000958494
0.00107437
0.00116765
0.00122498
0.00129979
0.000167766
-0.00440908
-8.66866e-05
-0.000127257
-0.000180748
-0.000154861
-0.00013559
-0.000149242
-0.000177842
-0.000211394
-0.00024845
-7.05042e-05
2.69783e-06
7.97953e-05
0.000181228
0.000314518
0.000477824
0.000662228
0.000851372
0.00102876
0.00117335
0.00129463
0.00137492
0.00147213
-0.000240316
-0.000222513
-0.000208563
-0.000224489
-0.000207293
-0.00023108
-0.000233319
-0.000224002
-0.000236565
-0.000141671
-7.74983e-05
4.67827e-06
0.000117958
0.000267345
0.000454762
0.000670846
0.000895749
0.00110313
0.00129019
0.00143375
0.00154298
0.00166956
-0.000243543
-0.00024933
-0.000277208
-0.0002949
-0.000280632
-0.000308372
-0.000309809
-0.000276894
-0.000277729
-0.000220753
-0.000157705
-7.23572e-05
4.89237e-05
0.000217685
0.000434841
0.000686336
0.000947035
0.00119868
0.00141488
0.00159628
0.00173625
0.00188503
-0.000306303
-0.00032301
-0.000350223
-0.000363729
-0.000353566
-0.000386
-0.000384799
-0.000362802
-0.000350985
-0.000303854
-0.00024189
-0.000153557
-2.25149e-05
0.000169387
0.000419252
0.000707344
0.00101194
0.00130907
0.00155993
0.00178188
0.00194145
0.0021183
-0.000384245
-0.0003997
-0.000424424
-0.000434875
-0.000434421
-0.000461656
-0.00045673
-0.000436774
-0.00042618
-0.000385439
-0.000327544
-0.000240276
-9.49972e-05
0.000122592
0.00040586
0.000739144
0.00109332
0.00142485
0.00172842
0.00197027
0.00218133
0.00237531
-0.000458909
-0.000474579
-0.000493952
-0.000511722
-0.000513405
-0.000539682
-0.000530642
-0.000513258
-0.000494344
-0.000473123
-0.000425389
-0.000334943
-0.000170276
7.46479e-05
0.000399008
0.00077774
0.00117401
0.001559
0.00190151
0.00220461
0.0024457
0.00269529
-0.000531087
-0.000546378
-0.000568622
-0.000587339
-0.000597409
-0.000621387
-0.000607143
-0.000583191
-0.000568462
-0.000572248
-0.000532522
-0.00043428
-0.000249278
3.04384e-05
0.000395742
0.000822763
0.00127276
0.00171505
0.00211061
0.0024652
0.00276261
0.00304316
-0.000598213
-0.000618446
-0.000645306
-0.000666345
-0.000689305
-0.000700437
-0.000685019
-0.000658934
-0.000641909
-0.000682971
-0.000647641
-0.000533981
-0.000324707
-1.13969e-05
0.000398121
0.000878912
0.00139319
0.00188294
0.00235231
0.00273881
0.00329571
0.00126954
-0.000678987
-0.000695665
-0.00072311
-0.000746279
-0.000795606
-0.000786053
-0.000761049
-0.000734387
-0.000718991
-0.000811701
-0.000771508
-0.000633992
-0.000401255
-5.42435e-05
0.000404708
0.000945904
0.00151511
0.00209167
0.00256647
0.00334205
0.00148093
-0.000755093
-0.000772128
-0.000802182
-0.000834394
-0.000926505
-0.000880767
-0.000841341
-0.000809545
-0.000794836
-0.000957881
-0.000882836
-0.000737764
-0.000484993
-9.66654e-05
0.000418982
0.00101906
0.00167244
0.00224544
0.00312649
0.00154035
-0.00083487
-0.000853393
-0.000878045
-0.000945195
-0.00107015
-0.00108824
-0.000911182
-0.000895139
-0.000873596
-0.00107613
-0.000996243
-0.000849482
-0.000569941
-0.000133961
0.000436943
0.00111789
0.00176677
0.00272489
0.00139573
-0.000915483
-0.000937496
-0.000911839
-0.0014008
-0.00121041
-0.00111531
-0.000893303
-0.000982679
-0.000958264
-0.00118062
-0.00112593
-0.000971201
-0.00065534
-0.000171535
0.000474537
0.00116097
0.00215523
0.0011248
-0.00100571
-0.0010349
-0.0036971
-0.00209819
-0.0011986
-0.00130843
-0.0012871
-0.00153412
-0.00137877
-0.0011104
0.00141565
-0.00107148
-0.00131572
-0.00127434
-0.0010982
-0.000743095
-0.000196021
0.000468604
0.00144157
0.000769328
-0.000936112
-0.00133804
-0.00131387
-0.0013372
-0.00143703
-0.00139628
-0.00132992
-0.00132847
-0.00133697
-0.00135338
-0.000660835
-0.00147738
-0.00143183
-0.00122728
-0.000825046
-0.000245107
0.000632088
0.000359105
-0.00125362
-0.001349
-0.00135087
-0.00135298
-0.00137336
-0.00145809
-0.00159698
-0.00153301
-0.00140793
-0.00143057
-0.00135077
-0.00135705
-0.00141858
-0.00141187
-0.00165414
-0.00159568
-0.00135886
-0.000910959
-0.000200821
-6.59061e-05
-0.00138811
-0.00138036
-0.00137217
-0.00139416
-0.00146752
-0.00149747
-0.00160437
-0.00177929
-0.00169087
-0.00153506
-0.00157458
-0.00142007
-0.00144973
-0.00136865
-0.0013746
-0.00184112
-0.00176778
-0.00147454
-0.000981489
-0.000471376
-0.00138342
-0.00140953
-0.0014836
-0.00151386
-0.00160382
-0.00164817
-0.00177034
-0.00197777
-0.00187079
-0.00168591
-0.00173157
-0.00155408
-0.00158777
-0.00142871
-0.00146217
-0.00204736
-0.00191091
-0.0016487
-0.000824619
-0.00149424
-0.00152732
-0.00161907
-0.00166296
-0.00176374
-0.00181308
-0.00195631
-0.00220897
-0.00206886
-0.00185826
-0.00190425
-0.00170155
-0.00174143
-0.00156366
-0.00159847
-0.00222892
-0.00217172
-0.00110464
-0.00163122
-0.00167123
-0.00178022
-0.00182189
-0.00194419
-0.00199827
-0.00217167
-0.00244372
-0.0023067
-0.00205022
-0.00209856
-0.00186904
-0.00191173
-0.00171116
-0.00174939
-0.00256562
-0.001309
-0.00178807
-0.00182645
-0.00195799
-0.00200496
-0.00214984
-0.00220732
-0.00240615
-0.00289836
-0.00253764
-0.00227061
-0.002328
-0.00205333
-0.00210409
-0.00187947
-0.00191733
-0.00144922
-0.00196271
-0.00200843
-0.00215663
-0.00221073
-0.00238339
-0.0024484
-0.0027172
-0.00167345
-0.00301573
-0.00250495
-0.00256947
-0.00226852
-0.00232494
-0.00205852
-0.00210231
-0.00215518
-0.00220961
-0.00238464
-0.00244433
-0.00264335
-0.00273574
-0.0031931
-0.00158984
-0.00286473
-0.00297759
-0.0025034
-0.00256866
-0.00226649
-0.00232082
-0.00237746
-0.00243417
-0.00264721
-0.00273738
-0.00309867
-0.00335012
-0.00330273
-0.00136436
-0.00284343
-0.00294743
-0.00249313
-0.00255262
-0.00262588
-0.0027148
-0.00306401
-0.0033638
-0.00362729
-0.00133626
-0.002815
-0.00292849
-0.00304698
-0.00334201
-0.00392856
-0.00164121
-0.0208163
-0.0200722
-0.0208587
-0.0202231
-0.0197214
-0.0207195
-0.0210784
-0.0198356
-0.0193226
-0.0205506
-0.0215407
-0.0197974
-0.021526
-0.0194235
-0.018893
-0.0222673
-0.0208908
-0.0188316
-0.0223848
-0.0189519
-0.0219725
-0.0190118
-0.0184779
-0.0239915
-0.0226238
-0.0212328
-0.0191981
-0.0171241
-0.0181031
-0.0232721
-0.022429
-0.0185908
-0.018076
-0.0257224
-0.024385
-0.0241581
-0.0229667
-0.0215506
-0.0195373
-0.0175045
-0.0154545
-0.0164252
-0.0172623
-0.01775
-0.018178
-0.0229055
-0.0233627
-0.0176467
-0.0273708
-0.0261537
-0.0250414
-0.025932
-0.0247323
-0.0237836
-0.0242115
-0.0232819
-0.0218319
-0.0198502
-0.0178499
-0.0158298
-0.0138096
-0.014765
-0.0155954
-0.0160723
-0.0164967
-0.016907
-0.0173239
-0.0172024
-0.027947
-0.0268047
-0.0277334
-0.0288077
-0.0286046
-0.0265123
-0.0246704
-0.0251277
-0.0255532
-0.0259888
-0.0250422
-0.0235633
-0.022069
-0.020128
-0.018164
-0.0161773
-0.014182
-0.0121827
-0.0131225
-0.0139444
-0.014412
-0.0148314
-0.015238
-0.0156502
-0.0159647
-0.0163901
-0.0167904
-0.0297824
-0.0283228
-0.0264457
-0.0269104
-0.0286279
-0.027361
-0.0278192
-0.0297032
-0.0298062
-0.0268227
-0.0253229
-0.0238028
-0.0222458
-0.0203592
-0.0184405
-0.0164922
-0.0145281
-0.0125553
-0.0105719
-0.0114969
-0.0123106
-0.0127706
-0.0131853
-0.0135877
-0.0139953
-0.0143036
-0.0147237
-0.0151199
-0.0155269
-0.0316437
-0.0301554
-0.0286309
-0.0282807
-0.0287496
-0.0291109
-0.0293297
-0.0297805
-0.0306298
-0.0308088
-0.0271081
-0.0255628
-0.0239858
-0.0223416
-0.0205279
-0.0186684
-0.0167687
-0.0148395
-0.0129009
-0.0109487
-0.00897654
-0.00988458
-0.0106917
-0.0111457
-0.0115562
-0.0119553
-0.0123582
-0.0126619
-0.0130775
-0.0134696
-0.0138722
-0.0335407
-0.0319992
-0.031791
-0.0304652
-0.0289186
-0.0291603
-0.0296536
-0.0302534
-0.0315871
-0.0307264
-0.0273541
-0.0257472
-0.024089
-0.0223366
-0.020616
-0.0188342
-0.0169957
-0.0151122
-0.0132084
-0.0112935
-0.00935919
-0.00740199
-0.00828096
-0.00908345
-0.00953323
-0.00994048
-0.0103369
-0.0107365
-0.0110363
-0.0114479
-0.0118377
-0.0122352
-0.0354825
-0.0338995
-0.0327512
-0.0337209
-0.0323284
-0.0307588
-0.0291674
-0.0295777
-0.0301387
-0.031675
-0.032545
-0.0311965
-0.0306158
-0.0275414
-0.0258574
-0.0240868
-0.0222116
-0.0206076
-0.0189183
-0.0171568
-0.015332
-0.0134716
-0.011594
-0.0097013
-0.00778401
-0.00584726
-0.00668184
-0.0074803
-0.00792695
-0.00833235
-0.00872779
-0.0091253
-0.00942203
-0.009831
-0.0102186
-0.0106135
-0.0374325
-0.0358314
-0.0346913
-0.0356719
-0.0342321
-0.0335095
-0.032629
-0.0310126
-0.0293618
-0.0300322
-0.0321604
-0.0315708
-0.0326452
-0.0310903
-0.0304969
-0.0276534
-0.0258611
-0.0239631
-0.0219573
-0.0204785
-0.0189016
-0.0172396
-0.0154885
-0.0136805
-0.0118432
-0.00998997
-0.00811707
-0.00620706
-0.00430983
-0.00513275
-0.0058824
-0.0063175
-0.00672371
-0.0071206
-0.00751751
-0.00781266
-0.00822045
-0.00860776
-0.00900124
-0.0394352
-0.0377818
-0.0366426
-0.037632
-0.0361619
-0.0344765
-0.0354597
-0.0345318
-0.0336017
-0.0331175
-0.0328872
-0.0312119
-0.0294751
-0.0320543
-0.0314492
-0.032538
-0.0309754
-0.0276582
-0.0257389
-0.023705
-0.0215784
-0.0202264
-0.0187727
-0.0172239
-0.0155672
-0.0138276
-0.0120378
-0.0102214
-0.00839
-0.00652719
-0.00464047
-0.00277505
-0.00360141
-0.00435373
-0.0047469
-0.00510586
-0.00549411
-0.00589479
-0.00619336
-0.00660657
-0.00699653
-0.00739219
-0.041477
-0.0397875
-0.0386274
-0.0396492
-0.0381164
-0.0364498
-0.0374534
-0.0364623
-0.0340898
-0.0345771
-0.0355428
-0.0350539
-0.0347911
-0.0334986
-0.0330154
-0.0330862
-0.0313279
-0.0294853
-0.0319369
-0.0324158
-0.0275369
-0.0254786
-0.0233175
-0.0210925
-0.019858
-0.0185285
-0.017101
-0.0155528
-0.0138958
-0.0121654
-0.0103922
-0.00859653
-0.00677906
-0.00493064
-0.00306064
-0.00125159
-0.00214251
-0.00282444
-0.00320878
-0.00357561
-0.00395661
-0.00438592
-0.00450824
-0.00492071
-0.00533743
-0.00575675
-0.0435407
-0.0418405
-0.0406599
-0.0416989
-0.0401195
-0.0384422
-0.0394355
-0.0384199
-0.036036
-0.0365315
-0.0375571
-0.0370112
-0.0367212
-0.0339842
-0.0344695
-0.0354312
-0.0349473
-0.0349919
-0.0333782
-0.0329011
-0.0332061
-0.0313384
-0.0293632
-0.0272742
-0.0250825
-0.0228181
-0.020527
-0.0193904
-0.0181736
-0.0168665
-0.0154368
-0.0138803
-0.0122223
-0.010499
-0.00873718
-0.00695419
-0.00514338
-0.00328522
-0.00139338
-0.000183631
-0.00082591
-0.00141976
-0.00178752
-0.00211932
-0.00246766
-0.00281302
-0.00305473
-0.00341223
-0.00376091
-0.00437562
-0.0456453
-0.0439176
-0.0427229
-0.0437765
-0.0421704
-0.0404477
-0.041478
-0.0404205
-0.0380206
-0.0385074
-0.0395167
-0.0390022
-0.0386813
-0.0359132
-0.0363926
-0.0375564
-0.0368603
-0.0369238
-0.0338691
-0.0343495
-0.0353127
-0.0348359
-0.0351129
-0.0332186
-0.0312169
-0.0290984
-0.0268737
-0.0245712
-0.022234
-0.0199086
-0.0188478
-0.0177242
-0.0165262
-0.0152148
-0.0137699
-0.012202
-0.0105423
-0.00881819
-0.00705929
-0.00526982
-0.0034363
-0.0014752
-0.000238643
4.27259e-05
-0.000283544
-0.000587757
-0.00084462
-0.00113372
-0.00142774
-0.00164083
-0.00198325
-0.00232401
-0.00267701
-0.00290991
-0.00326495
-0.00361004
-0.00437403
-0.0477952
-0.0460298
-0.0448216
-0.0458897
-0.0442553
-0.0425132
-0.0435602
-0.042467
-0.0400373
-0.0405539
-0.0415721
-0.0410563
-0.0406806
-0.0378321
-0.0383345
-0.0393846
-0.0388611
-0.0388851
-0.035796
-0.0362578
-0.0374634
-0.0367011
-0.0370461
-0.0351266
-0.0330986
-0.0309511
-0.0286929
-0.0263531
-0.0239723
-0.0215941
-0.0192657
-0.0182558
-0.0172051
-0.016097
-0.0148944
-0.0135636
-0.0120983
-0.0105155
-0.00883898
-0.00710699
-0.00532471
-0.00350793
-0.00150228
-0.000263479
0.000104928
3.58357e-05
-0.00014029
-0.000344242
-0.000476744
-0.000727044
-0.000998815
-0.00129867
-0.00148221
-0.00182702
-0.00217799
-0.00253295
-0.0499993
-0.0481856
-0.0469579
-0.0480425
-0.0463731
-0.0446124
-0.0456755
-0.0445542
-0.0420967
-0.0426194
-0.0436527
-0.0431289
-0.0427239
-0.0399132
-0.0404278
-0.0414471
-0.0409362
-0.0408867
-0.0390129
-0.0370633
-0.0350081
-0.0328314
-0.0305428
-0.0281649
-0.0257419
-0.0233145
-0.0209278
-0.0186305
-0.017641
-0.0166397
-0.0156015
-0.0144904
-0.0132656
-0.0119074
-0.0104174
-0.00880607
-0.00710599
-0.00532913
-0.00351746
-0.00147868
-0.000267608
0.000113038
6.67123e-05
-7.54779e-05
-0.00025514
-0.000335274
-0.000575469
-0.000846574
-0.00114322
-0.0522448
-0.0503874
-0.0491361
-0.0502399
-0.0485334
-0.0467462
-0.0478262
-0.0466778
-0.0441866
-0.0447192
-0.0457703
-0.045237
-0.0448133
-0.0419735
-0.0424922
-0.0435256
-0.0430079
-0.0429298
-0.0410146
-0.0390321
-0.0369491
-0.0347441
-0.0324214
-0.0300107
-0.0275453
-0.0250707
-0.0226284
-0.0202686
-0.0180362
-0.0170343
-0.0160526
-0.015062
-0.014024
-0.0128935
-0.0116423
-0.0102508
-0.00872037
-0.00707023
-0.00530876
-0.00349519
-0.00142462
-0.000250702
0.000124553
0.000127413
2.3933e-05
-0.000128538
-0.0544864
-0.0526147
-0.0513569
-0.0524871
-0.0507347
-0.0489161
-0.0500139
-0.0488411
-0.0463143
-0.0468562
-0.0479256
-0.047383
-0.0469398
-0.0440618
-0.0445905
-0.0456414
-0.0451142
-0.0450182
-0.0430601
-0.04104
-0.0389214
-0.0366869
-0.0343349
-0.0318868
-0.0293842
-0.0268637
-0.0243697
-0.0219488
-0.0196507
-0.0175234
-0.0164673
-0.0154745
-0.0145019
-0.013515
-0.0124637
-0.0113085
-0.0100214
-0.00858453
-0.00700083
-0.00527378
-0.00346757
-0.00137267
-0.000220928
-0.0568272
-0.0548657
-0.0535968
-0.0547405
-0.0529609
-0.051122
-0.0522573
-0.0510424
-0.048481
-0.049033
-0.0501219
-0.0495699
-0.0491059
-0.0461885
-0.0467264
-0.0477967
-0.0472598
-0.0471469
-0.0451475
-0.0430867
-0.0409346
-0.0386653
-0.0362814
-0.0338009
-0.0312583
-0.0286955
-0.0261511
-0.0236746
-0.0213113
-0.0191169
-0.0171318
-0.0159804
-0.0149352
-0.0139496
-0.0129863
-0.011994
-0.0109223
-0.00973234
-0.00839413
-0.00689832
-0.00523048
-0.00344789
-0.00134651
-0.00019799
-0.0591926
-0.0572062
-0.0559109
-0.0570936
-0.0552212
-0.0533992
-0.0545514
-0.0532725
-0.0506863
-0.0512451
-0.0523527
-0.051793
-0.0513069
-0.0483551
-0.0489031
-0.0499945
-0.0494475
-0.0493142
-0.0472771
-0.0451759
-0.0429842
-0.0406821
-0.0382641
-0.0357493
-0.0331711
-0.0305657
-0.0279749
-0.0254436
-0.0230206
-0.0207598
-0.0187072
-0.0168852
-0.0156079
-0.0144711
-0.0134331
-0.0124638
-0.0115051
-0.0104999
-0.00939887
-0.00816205
-0.00676361
-0.00517681
-0.00345052
-0.00137075
-0.000205701
-0.0616007
-0.0595903
-0.0582663
-0.0594721
-0.057556
-0.0556857
-0.0568468
-0.05554
-0.0529136
-0.0534746
-0.0545653
-0.0541474
-0.0535394
-0.0505624
-0.0511187
-0.0522194
-0.0516695
-0.0515146
-0.0494463
-0.0473054
-0.0450776
-0.0427373
-0.0402858
-0.0377363
-0.0351215
-0.0324769
-0.0298401
-0.027258
-0.0247762
-0.0224534
-0.0203355
-0.0184485
-0.0167889
-0.0153731
-0.0141174
-0.0129904
-0.0119757
-0.0110191
-0.0100588
-0.00903157
-0.00788892
-0.00659514
-0.00510622
-0.00346071
-0.00144591
-0.000259482
-0.0640726
-0.0620118
-0.0606666
-0.0618885
-0.0599426
-0.0580374
-0.0592329
-0.0578702
-0.0551648
-0.0557711
-0.0569527
-0.0563551
-0.0558114
-0.0527663
-0.0532756
-0.0539965
-0.0537525
-0.0516481
-0.0494779
-0.0472091
-0.0448344
-0.0423471
-0.0397636
-0.0371125
-0.0344284
-0.0317485
-0.0291167
-0.0265803
-0.0241952
-0.0220158
-0.0200658
-0.0183475
-0.0168269
-0.0152828
-0.0138966
-0.0126548
-0.0115554
-0.0105644
-0.00961831
-0.00864526
-0.00758619
-0.00639444
-0.00501347
-0.00347333
-0.00155463
-0.000357593
-0.0666026
-0.064488
-0.0631123
-0.0643747
-0.0623763
-0.0604362
-0.0616343
-0.0602546
-0.0575692
-0.0581687
-0.0593389
-0.0587445
-0.0581429
-0.0560284
-0.0538902
-0.0516851
-0.0493854
-0.0469728
-0.0444502
-0.0418315
-0.039145
-0.0364229
-0.0337008
-0.0310214
-0.0284317
-0.025989
-0.0237452
-0.0217364
-0.019959
-0.0183865
-0.0169669
-0.0153206
-0.0138131
-0.0124464
-0.0112362
-0.0101715
-0.00920157
-0.00825638
-0.00726359
-0.00616757
-0.00489615
-0.00347595
-0.00167427
-0.000494835
-0.0692138
-0.0670296
-0.065634
-0.0669057
-0.0648611
-0.0627813
-0.0636685
-0.0644266
-0.0626947
-0.0599622
-0.0605696
-0.0617596
-0.0611547
-0.0605271
-0.0583614
-0.0561755
-0.0539312
-0.0515977
-0.049154
-0.0465968
-0.0439426
-0.0412206
-0.0384608
-0.0356971
-0.0329723
-0.03033
-0.0278308
-0.0255285
-0.0234573
-0.0216246
-0.0199985
-0.018532
-0.01717
-0.0154562
-0.0138528
-0.0123715
-0.0110396
-0.00987236
-0.0088397
-0.00788374
-0.00693476
-0.0059201
-0.00475212
-0.00345647
-0.00177744
-0.000657124
-0.0718145
-0.0696207
-0.0681987
-0.0695138
-0.0674039
-0.0651067
-0.0657741
-0.0664022
-0.0670397
-0.065188
-0.0623827
-0.0636985
-0.063037
-0.0643164
-0.0629706
-0.0607494
-0.0585113
-0.0562237
-0.0538541
-0.0513748
-0.0487849
-0.0460974
-0.0433402
-0.0405433
-0.0377395
-0.0349689
-0.0322773
-0.0297208
-0.0273595
-0.0252295
-0.0233394
-0.0216628
-0.0201498
-0.0187431
-0.0173951
-0.0156506
-0.0139862
-0.0124153
-0.0109706
-0.00968629
-0.00856079
-0.00755898
-0.00661668
-0.00566096
-0.0045861
-0.00341445
-0.00185064
-0.000837061
-0.0745251
-0.072222
-0.0708127
-0.0721228
-0.0699898
-0.067696
-0.0683528
-0.0689968
-0.0696433
-0.0677338
-0.0649906
-0.0656525
-0.0662712
-0.0669064
-0.065469
-0.0636642
-0.0642141
-0.0631942
-0.0609029
-0.0585676
-0.056155
-0.0536427
-0.0510178
-0.0482964
-0.0455045
-0.0426716
-0.0398282
-0.0370141
-0.0342713
-0.0316606
-0.0292396
-0.0270507
-0.0251029
-0.023374
-0.0218148
-0.0203676
-0.0189816
-0.0176151
-0.0158647
-0.0141779
-0.0125495
-0.0110148
-0.00961934
-0.00838446
-0.00730437
-0.00633349
-0.00540609
-0.00440389
-0.00335074
-0.00188734
-0.0010361
-0.0773002
-0.0749369
-0.0734792
-0.0748599
-0.0726086
-0.0703028
-0.0709605
-0.071591
-0.0722612
-0.07032
-0.0675805
-0.0682376
-0.0688596
-0.0695014
-0.0680171
-0.0648649
-0.0655125
-0.0661446
-0.0667689
-0.065696
-0.0633518
-0.0609637
-0.0585074
-0.0559541
-0.0532969
-0.0505422
-0.0477161
-0.0448467
-0.0419646
-0.039107
-0.0363164
-0.0336502
-0.0311708
-0.0289206
-0.0269163
-0.0251337
-0.0235258
-0.0220357
-0.0206114
-0.0192154
-0.0178186
-0.0160707
-0.0143905
-0.0127379
-0.0111458
-0.00966029
-0.00831791
-0.00713963
-0.00610601
-0.00517281
-0.00422133
-0.0032695
-0.00189062
-0.0012566
-0.0801151
-0.0777342
-0.0762363
-0.0776495
-0.0753194
-0.0729495
-0.0736297
-0.0742943
-0.0749889
-0.0729529
-0.0701771
-0.0708397
-0.0714685
-0.07221
-0.0706065
-0.0674453
-0.0680958
-0.0687327
-0.0693619
-0.0682464
-0.0658538
-0.0634164
-0.0609129
-0.0583184
-0.0556228
-0.0528341
-0.0499749
-0.0470703
-0.0441496
-0.0412499
-0.0384111
-0.0356914
-0.0331524
-0.0308416
-0.0287771
-0.0269396
-0.0252831
-0.0237476
-0.022282
-0.020845
-0.0194168
-0.0183234
-0.0162605
-0.0175154
-0.0145962
-0.0129468
-0.0113293
-0.00978471
-0.0083527
-0.00707233
-0.00595388
-0.00497954
-0.0040499
-0.00317616
-0.00187414
-0.00149329
-0.0830101
-0.0805693
-0.0790514
-0.08049
-0.0781154
-0.0757017
-0.0764185
-0.0770953
-0.0777903
-0.0756615
-0.0728306
-0.0734691
-0.0741258
-0.0748108
-0.073246
-0.0700357
-0.0706702
-0.0712688
-0.0719392
-0.0708391
-0.0684062
-0.0659251
-0.0633722
-0.0607355
-0.0580011
-0.0551766
-0.0522823
-0.0493432
-0.0463848
-0.043443
-0.0405567
-0.0377844
-0.0351867
-0.0328148
-0.0306888
-0.0287955
-0.0270858
-0.025504
-0.0239946
-0.0225147
-0.0210392
-0.0199304
-0.0191101
-0.0183786
-0.0167356
-0.0147807
-0.0159732
-0.0175983
-0.0131479
-0.0115337
-0.00996164
-0.00846821
-0.00709776
-0.00588615
-0.00484297
-0.00390383
-0.00307562
-0.00185201
-0.00172321
-0.0860038
-0.0834786
-0.0819299
-0.0833947
-0.0809652
-0.0785108
-0.079238
-0.0799295
-0.0806376
-0.0784504
-0.0755732
-0.076289
-0.0769413
-0.0776178
-0.0759575
-0.0734884
-0.0710068
-0.0684828
-0.0658884
-0.0632059
-0.0604315
-0.0575704
-0.0546413
-0.0516664
-0.0486711
-0.0456882
-0.0427552
-0.0399285
-0.0372736
-0.0348393
-0.0326543
-0.0307001
-0.0289387
-0.0273075
-0.025753
-0.0242302
-0.0227111
-0.0215743
-0.0207343
-0.0199801
-0.0191676
-0.0186063
-0.0182005
-0.0168131
-0.015237
-0.0133184
-0.0145037
-0.0160399
-0.0174335
-0.0178116
-0.0117303
-0.0101612
-0.00863698
-0.00719987
-0.00589966
-0.00477168
-0.00379338
-0.00297554
-0.00183855
-0.00190481
-0.0890565
-0.0864698
-0.0848812
-0.0863774
-0.0838854
-0.0813789
-0.0821222
-0.082828
-0.0835506
-0.0813096
-0.0783834
-0.0791089
-0.079773
-0.0804621
-0.0787437
-0.0762026
-0.0736645
-0.071093
-0.068455
-0.0657327
-0.062918
-0.0600179
-0.0570529
-0.0540425
-0.0510096
-0.0479863
-0.0450072
-0.0421291
-0.039414
-0.0369184
-0.0346683
-0.0326586
-0.03084
-0.0291597
-0.0275585
-0.0259922
-0.0244317
-0.0232626
-0.0224034
-0.0216321
-0.0207979
-0.0202262
-0.0198171
-0.019012
-0.0194192
-0.01862
-0.0182038
-0.0170572
-0.0166147
-0.0152889
-0.0137714
-0.0118965
-0.0130601
-0.0145486
-0.0158798
-0.0162532
-0.0173981
-0.0177844
-0.0103544
-0.00882986
-0.00735471
-0.00598292
-0.00476709
-0.00372629
-0.00288451
-0.00183805
-0.00199604
-0.09205