/*--------------------------------*- C++ -*----------------------------------*\
| =========                 |                                                 |
| \\      /  F ield         | OpenFOAM: The Open Source CFD Toolbox           |
|  \\    /   O peration     | Version:  v1912                                 |
|   \\  /    A nd           | Website:  www.openfoam.com                      |
|    \\/     M anipulation  |                                                 |
\*---------------------------------------------------------------------------*/
FoamFile
{
    version     2.0;
    format      ascii;
    class       volScalarField;
    location    "130";
    object      p;
}
// * * * * * * * * * * * * * * * * * * * * * * * * * * * * * * * * * * * * * //

dimensions      [0 2 -2 0 0 0 0];


internalField   nonuniform List<scalar> 
3753
(
-0.00190104
-0.00181969
-0.00181757
-0.00173282
-0.00173772
-0.0017316
-0.00165567
-0.00165035
-0.00165332
-0.00165832
-0.00159115
-0.00157354
-0.00157023
-0.00158122
-0.00158462
-0.0015484
-0.00150749
-0.00149737
-0.00149739
-0.00150883
-0.00151281
-0.00153594
-0.00146115
-0.00143121
-0.00142124
-0.00142732
-0.00143765
-0.00144461
-0.00156428
-0.00144148
-0.00138011
-0.00135438
-0.00135544
-0.00135746
-0.0013715
-0.00137563
-0.00163327
-0.00145628
-0.00135261
-0.00130362
-0.00129102
-0.00128642
-0.0012923
-0.00130454
-0.00130782
-0.00174258
-0.00150984
-0.00135382
-0.0012752
-0.0012403
-0.00122175
-0.00122063
-0.00122786
-0.00123898
-0.00124411
-0.00189092
-0.00160393
-0.00138503
-0.0012723
-0.00121113
-0.00117301
-0.00115628
-0.00115941
-0.00116422
-0.00117544
-0.00118377
-0.00205921
-0.0017358
-0.00143975
-0.0012951
-0.00120912
-0.00114657
-0.00110788
-0.00109773
-0.00109522
-0.0011032
-0.0011174
-0.00112264
-0.0022007
-0.00191765
-0.00151731
-0.00134419
-0.00123826
-0.0011461
-0.00108191
-0.00104906
-0.00103423
-0.00104012
-0.00104655
-0.00105761
-0.00106674
-0.00212608
-0.00233565
-0.00221213
-0.00161208
-0.00141517
-0.00129699
-0.0011753
-0.00108304
-0.00102211
-0.000988714
-0.000980867
-0.000980787
-0.000989194
-0.00100329
-0.00100953
-0.00173701
-0.00207554
-0.0023618
-0.00229751
-0.00224749
-0.00150877
-0.00138216
-0.00123433
-0.00111334
-0.00102174
-0.000963328
-0.000933569
-0.000923276
-0.000929208
-0.000935931
-0.000947753
-0.000953797
-0.00162917
-0.00182225
-0.00188612
-0.00215709
-0.00258202
-0.0023097
-0.00224831
-0.00232691
-0.00148172
-0.00131874
-0.00117191
-0.00105104
-0.000964631
-0.000908372
-0.000880845
-0.000874364
-0.000875184
-0.000882746
-0.000891969
-0.00090193
-0.00159428
-0.00173641
-0.00180297
-0.00190911
-0.00193504
-0.00211036
-0.00216846
-0.00226004
-0.00295451
-0.00223611
-0.00229171
-0.00234968
-0.00142548
-0.00125558
-0.00111006
-0.000995234
-0.000909809
-0.000856926
-0.000831749
-0.000820638
-0.000825254
-0.000828402
-0.000842325
-0.000845094
-0.00153508
-0.00166897
-0.00171944
-0.00181527
-0.00187403
-0.001969
-0.0020045
-0.00204157
-0.00199769
-0.00206789
-0.00163719
-0.00182507
-0.00350842
-0.00234203
-0.00235193
-0.00238627
-0.00135615
-0.00119342
-0.00105223
-0.000938536
-0.000858084
-0.000808094
-0.000778591
-0.000772906
-0.000772537
-0.000778808
-0.000786192
-0.000796061
-0.00146866
-0.00159954
-0.00164432
-0.00173449
-0.00178097
-0.00184849
-0.00188689
-0.00194209
-0.00190928
-0.00201558
-0.00203439
-0.00206578
-0.00205838
-0.00189921
-0.00424361
-0.00129525
-0.00113122
-0.000995071
-0.000886718
-0.000807853
-0.000755896
-0.000732751
-0.000722581
-0.000723195
-0.000726734
-0.000737591
-0.00074445
-0.00140404
-0.00153611
-0.00157378
-0.00166312
-0.00170091
-0.00176885
-0.00179451
-0.00184157
-0.00180923
-0.00188339
-0.00190688
-0.00196737
-0.00194058
-0.00122673
-0.00107559
-0.000941107
-0.000833395
-0.000757524
-0.000711365
-0.000685266
-0.00067597
-0.000675268
-0.000677037
-0.000687755
-0.000693003
-0.00133533
-0.00147182
-0.00150527
-0.00159787
-0.00162835
-0.00170038
-0.00172192
-0.00175088
-0.0017371
-0.00179415
-0.00182435
-0.00186803
-0.00183484
-0.00117449
-0.00101735
-0.000886325
-0.000785637
-0.000711388
-0.000665138
-0.00064123
-0.000629257
-0.000624941
-0.000630114
-0.000638322
-0.000647994
-0.00127812
-0.00140502
-0.00143762
-0.00152781
-0.00156236
-0.00163504
-0.00165156
-0.00168009
-0.00166459
-0.00172358
-0.00175329
-0.00177767
-0.00176143
-0.00110824
-0.00096159
-0.000837009
-0.000736568
-0.000667801
-0.000623822
-0.00059723
-0.00058167
-0.000580439
-0.000582066
-0.000591839
-0.000598615
-0.00121097
-0.00134704
-0.00137222
-0.00146082
-0.00149836
-0.00156269
-0.0015843
-0.00161122
-0.00160402
-0.00166056
-0.00168024
-0.001711
-0.00168843
-0.00105621
-0.000911202
-0.000788326
-0.000693364
-0.000628035
-0.000583874
-0.000553001
-0.00053837
-0.000533272
-0.000534375
-0.000545288
-0.000550547
-0.00115752
-0.00128108
-0.00130716
-0.00139979
-0.00142968
-0.00150115
-0.00151216
-0.00154947
-0.00153193
-0.00158922
-0.00161138
-0.00163961
-0.00163047
-0.000999999
-0.000860417
-0.000740829
-0.000654241
-0.000590185
-0.000543228
-0.000511763
-0.000493048
-0.000485985
-0.000489803
-0.000497446
-0.000505333
-0.00109787
-0.00122464
-0.00124823
-0.00133601
-0.00136685
-0.00143329
-0.00145206
-0.00147944
-0.00146611
-0.00152738
-0.00154173
-0.00157713
-0.00155543
-0.000949642
-0.000811792
-0.000702932
-0.000618457
-0.00055575
-0.000505417
-0.000466954
-0.000444567
-0.000440872
-0.00044288
-0.000453881
-0.000460464
-0.0010463
-0.00116701
-0.00118755
-0.00127672
-0.0013027
-0.00137646
-0.00137999
-0.00141717
-0.00140331
-0.00145778
-0.001481
-0.00150543
-0.00149036
-0.000898342
-0.000769233
-0.00066598
-0.000587736
-0.000521065
-0.000461961
-0.000419661
-0.000399583
-0.000394619
-0.000400741
-0.000409901
-0.00041683
-0.000994002
-0.00111486
-0.0011313
-0.00121947
-0.0012419
-0.00131289
-0.00132401
-0.00134982
-0.00133975
-0.0013999
-0.00140294
-0.00144211
-0.00143341
-0.000853787
-0.000731488
-0.000636972
-0.000557882
-0.000483413
-0.000416187
-0.000372011
-0.000353431
-0.000354747
-0.000357825
-0.000366813
-0.00037435
-0.000947087
-0.00106128
-0.00107899
-0.00116508
-0.00118398
-0.00125608
-0.00126172
-0.00129107
-0.00127767
-0.00133483
-0.00134834
-0.00137722
-0.00136562
-0.000810277
-0.000698332
-0.000611787
-0.000529536
-0.000438006
-0.000365473
-0.000325446
-0.000314731
-0.000313489
-0.000316553
-0.000325623
-0.000335763
-0.000901119
-0.00101518
-0.00102777
-0.0011089
-0.00113416
-0.00119741
-0.00120828
-0.0012334
-0.00121865
-0.00128013
-0.00128208
-0.00132228
-0.00130079
-0.000773515
-0.000677032
-0.00059551
-0.000488251
-0.000383878
-0.000315316
-0.000286465
-0.000275514
-0.000273895
-0.00027638
-0.000287649
-0.000295625
-0.000860533
-0.000970721
-0.000981047
-0.00106194
-0.00108107
-0.00114215
-0.00115439
-0.00118028
-0.00116888
-0.00122069
-0.00122856
-0.00126408
-0.00123967
-0.000745194
-0.0006674
-0.000564219
-0.00043028
-0.000326157
-0.000274755
-0.000251042
-0.000238333
-0.00023466
-0.000239638
-0.000247499
-0.000257688
-0.000822818
-0.000934165
-0.000934725
-0.00101694
-0.00103289
-0.00109668
-0.00110108
-0.00112346
-0.00111752
-0.00116757
-0.00117871
-0.00121053
-0.00118811
-0.000732051
-0.00066255
-0.000505979
-0.000358976
-0.000281234
-0.000242444
-0.000216557
-0.00020287
-0.000200814
-0.000200122
-0.000210524
-0.000215406
-0.000790472
-0.000899735
-0.0008929
-0.000975991
-0.000987861
-0.00104963
-0.00105747
-0.00107614
-0.00106572
-0.00112122
-0.00112233
-0.00114828
-0.00113765
-0.000755003
-0.000613821
-0.000409988
-0.000304818
-0.000252455
-0.000213334
-0.000185424
-0.000170607
-0.000163915
-0.000164047
-0.000170312
-0.000173571
-0.000800673
-0.000871616
-0.000854223
-0.000938144
-0.000948627
-0.00101068
-0.00100963
-0.00102898
-0.0010241
-0.00107217
-0.00108147
-0.00110109
-0.00108445
-0.000762448
-0.000478406
-0.000342767
-0.000280192
-0.000229294
-0.000186176
-0.000155827
-0.000138133
-0.000127747
-0.000126006
-0.000128319
-0.000131126
-0.0009211
-0.000853672
-0.000827228
-0.000905852
-0.000913914
-0.000972222
-0.000972057
-0.00098844
-0.000983365
-0.00103479
-0.00102881
-0.00105322
-0.0010434
-0.000569024
-0.000387838
-0.000323378
-0.000263928
-0.000205804
-0.000160054
-0.000127492
-0.000103841
-9.28925e-05
-8.49397e-05
-8.78769e-05
-8.51767e-05
-0.000676418
-0.00106998
-0.000893026
-0.000842345
-0.000879533
-0.000944616
-0.000936413
-0.000953543
-0.000956033
-0.000993253
-0.00099275
-0.00101173
-0.00100031
-0.000441491
-0.000381956
-0.000315948
-0.000243675
-0.000182915
-0.000134958
-9.7742e-05
-7.27046e-05
-5.51592e-05
-4.69454e-05
-4.42767e-05
-3.66448e-05
-0.000523407
-0.000647223
-0.000801098
-0.00128295
-0.000831838
-0.000912212
-0.000893763
-0.000923294
-0.000932549
-0.000961354
-0.000960367
-0.000976876
-0.000973307
-0.000447364
-0.000381414
-0.000296934
-0.000223725
-0.000162535
-0.000111458
-7.02932e-05
-4.02322e-05
-1.98841e-05
-4.92234e-06
3.95921e-06
1.46943e-05
-0.000524811
-0.000625492
-0.000657472
-0.000673364
-0.000835904
-0.00165601
-0.000675698
-0.000829846
-0.000799147
-0.00093902
-0.000939251
-0.00095088
-0.000949815
-0.000457022
-0.000363068
-0.000278825
-0.000206952
-0.000143745
-8.90243e-05
-4.49822e-05
-7.14015e-06
1.97271e-05
4.15887e-05
5.225e-05
6.98147e-05
-0.000529519
-0.000596106
-0.000626557
-0.000688514
-0.000709274
-0.00074654
-0.000760848
-0.000533667
-0.000742098
-0.00232516
-0.00071011
-0.000905256
-0.000834437
-0.000437237
-0.000343689
-0.0002643
-0.000190857
-0.000126086
-6.88697e-05
-1.58196e-05
2.55859e-05
6.13662e-05
8.66071e-05
0.000105961
0.000132105
-0.000511642
-0.00057577
-0.000598757
-0.000643873
-0.000668367
-0.00070956
-0.000736319
-0.000767941
-0.000748247
-0.000415419
-0.000330681
-0.000250023
-0.000177923
-0.00011094
-4.72693e-05
8.82358e-06
6.10146e-05
0.000102208
0.000137599
0.00016513
0.00019813
-0.000488939
-0.000557191
-0.00057368
-0.000618812
-0.000632914
-0.000665109
-0.000675943
-0.000698986
-0.000686013
-0.000400568
-0.000315916
-0.000239492
-0.000167474
-9.70989e-05
-3.02573e-05
3.67418e-05
9.70968e-05
0.000148858
0.000193711
0.000228387
0.000271086
-0.000472988
-0.000537568
-0.000550829
-0.000598359
-0.00060737
-0.000644571
-0.000650194
-0.000656638
-0.000652815
-0.000387407
-0.000306275
-0.000230967
-0.000159209
-8.7269e-05
-1.08862e-05
6.4418e-05
0.000135936
0.000199366
0.000253489
0.000298331
0.000349661
-0.000456843
-0.000521384
-0.000532876
-0.00057706
-0.000585888
-0.000620513
-0.000624976
-0.000633759
-0.00062948
-0.000374331
-0.000297433
-0.000227689
-0.000154723
-7.81232e-05
5.58358e-06
9.29692e-05
0.000177929
0.000253574
0.00031958
0.000374263
0.000438038
-0.000443686
-0.000506025
-0.000513339
-0.000559949
-0.000569132
-0.000600217
-0.000605757
-0.000612266
-0.000609466
-0.000366897
-0.000297019
-0.00022612
-0.000155022
-7.18617e-05
2.37566e-05
0.000124271
0.000223255
0.000312893
0.000392564
0.000458456
0.000533636
-0.000433419
-0.000493007
-0.000499097
-0.000541561
-0.000549112
-0.000589072
-0.000585323
-0.000592988
-0.000592291
-0.000362935
-0.000295834
-0.000233561
-0.000158188
-6.55854e-05
4.17466e-05
0.000158274
0.000273541
0.000379709
0.000471716
0.000551452
0.000638197
-0.000427908
-0.00048278
-0.00048636
-0.00052814
-0.000535164
-0.000564153
-0.000567354
-0.000574734
-0.000572937
-0.000362837
-0.000306672
-0.000243967
-0.000163551
-6.02574e-05
6.12733e-05
0.000195698
0.000328473
0.000451568
0.000560784
0.000652927
0.000752236
-0.000423638
-0.000475084
-0.000477864
-0.000518287
-0.000520732
-0.000550993
-0.000552193
-0.0005603
-0.000557127
-0.000371195
-0.000322315
-0.00025828
-0.000169168
-5.52683e-05
8.30541e-05
0.000234929
0.000389918
0.000532275
0.000658415
0.000766389
0.000873479
-0.0004283
-0.000470156
-0.000471219
-0.000508844
-0.00051031
-0.000541721
-0.000543207
-0.000544682
-0.000543049
-0.00038977
-0.000344946
-0.000273646
-0.000176999
-5.08385e-05
0.000105677
0.000281237
0.000458785
0.000622836
0.000766657
0.000892787
0.00101641
-0.000443814
-0.000468826
-0.000469334
-0.000503101
-0.000503877
-0.000529629
-0.000531758
-0.000533346
-0.0005322
-0.000417276
-0.000366366
-0.000289127
-0.000188152
-4.57751e-05
0.000132106
0.000333865
0.000534915
0.000721232
0.000892282
0.00103841
0.00115183
-0.000470974
-0.00047871
-0.000471326
-0.000498997
-0.000499499
-0.000526158
-0.000522912
-0.000525404
-0.00052607
-0.000447263
-0.000384083
-0.000312381
-0.000199696
-4.04539e-05
0.000162736
0.0003905
0.000620374
0.000840152
0.00102239
0.00127038
0.000460154
-0.000502573
-0.000629639
-0.000509083
-0.000480657
-0.000495355
-0.000525983
-0.000522051
-0.00052032
-0.000522962
-0.000461533
-0.00041287
-0.000337636
-0.000214865
-3.34912e-05
0.000198229
0.000456474
0.000723674
0.000946599
0.00129746
0.000559683
-0.000522501
-0.000533264
-0.000520444
-0.000839996
-0.00131746
-0.000454139
-0.000522804
-0.000522217
-0.000521394
-0.000524759
-0.000490957
-0.000447532
-0.000369141
-0.000229234
-2.24774e-05
0.000238437
0.000537758
0.000805574
0.001212
0.000593112
-0.000547654
-0.000561009
-0.000547487
-0.000568699
-0.000582284
-0.000597153
-0.000651444
-0.000539246
0.000236284
-0.000519582
-0.000526137
-0.000526957
-0.000489265
-0.000401861
-0.000244016
-9.66276e-06
0.000293369
0.000595321
0.0010399
0.000536037
-0.000582604
-0.000589303
-0.000570546
-0.000576481
-0.000576684
-0.000567143
-0.00057011
-0.00059105
-0.000601275
-0.000614771
-0.000630373
-0.000598723
-0.000362854
-0.000574818
-0.000535813
-0.000438839
-0.000256798
1.53934e-05
0.000327318
0.000786689
0.00042046
-0.000628251
-0.000625562
-0.000601762
-0.000606757
-0.000598828
-0.000591023
-0.00058308
-0.000588348
-0.000587225
-0.000581224
-0.000584802
-0.000608106
-0.00061728
-0.000634526
-0.000649345
-0.000626248
-0.000589223
-0.00047474
-0.000262619
2.58021e-05
0.000465971
0.000265674
-0.000681713
-0.000668907
-0.000641278
-0.000644345
-0.000633076
-0.000622598
-0.000614292
-0.000616142
-0.000608476
-0.000604101
-0.000593564
-0.000597822
-0.000594385
-0.000591476
-0.000593612
-0.0006903
-0.000644212
-0.000508706
-0.000273108
0.000107078
8.97929e-05
-0.000745523
-0.000721401
-0.000689195
-0.000684635
-0.00067476
-0.000661078
-0.000649801
-0.000652897
-0.000643576
-0.000632699
-0.000625261
-0.000624319
-0.000616488
-0.000611859
-0.0006018
-0.000756992
-0.000701954
-0.000537598
-0.000251374
-8.84303e-05
-0.000817607
-0.000784157
-0.000745439
-0.00073601
-0.000722518
-0.000709307
-0.000693621
-0.000692814
-0.000682108
-0.000670334
-0.000660317
-0.000658312
-0.000651563
-0.00063977
-0.000632317
-0.000835981
-0.00074757
-0.000570944
-0.000251366
-0.000907009
-0.000856085
-0.000811071
-0.000798111
-0.000781329
-0.000763286
-0.000748861
-0.000742804
-0.00072748
-0.000717727
-0.000701332
-0.000698583
-0.000686514
-0.000676417
-0.000670356
-0.000900952
-0.000827365
-0.000385843
-0.000997685
-0.000945672
-0.000891005
-0.000866154
-0.000849727
-0.000828029
-0.000810298
-0.00080256
-0.000785051
-0.000769835
-0.000755505
-0.000748097
-0.000731746
-0.0007207
-0.000707299
-0.00102258
-0.000488994
-0.00118123
-0.00103734
-0.000982386
-0.000954436
-0.000928283
-0.000908091
-0.000881451
-0.000867706
-0.000850926
-0.000833681
-0.000816426
-0.000803885
-0.000788197
-0.000773167
-0.000758537
-0.000564849
-0.000679448
-0.00123487
-0.00111112
-0.00104635
-0.00101978
-0.00100052
-0.000970729
-0.000950211
-0.000929046
-0.000908084
-0.000886006
-0.000868445
-0.000850383
-0.000835618
-0.000820702
-0.000651387
-0.00131064
-0.00122252
-0.00117213
-0.00111799
-0.00107642
-0.00104309
-0.0010185
-0.000997392
-0.000971673
-0.000947209
-0.000928317
-0.000905127
-0.000886356
-0.000557776
-0.00135951
-0.00138102
-0.00127688
-0.00120725
-0.00116007
-0.00111178
-0.00107619
-0.00103576
-0.00101259
-0.000990824
-0.000968606
-0.00056404
-0.00151392
-0.00138633
-0.00125628
-0.00119296
-0.00114447
-0.00109914
-0.00106561
-0.000707355
-0.00164704
-0.0013657
-0.0012441
-0.0170042
-0.0160014
-0.0168548
-0.0160657
-0.0159576
-0.0165118
-0.016696
-0.0163031
-0.0159796
-0.0157409
-0.0167168
-0.0168131
-0.0167747
-0.0162907
-0.016061
-0.0157915
-0.015517
-0.016906
-0.017041
-0.0170866
-0.0171042
-0.0162236
-0.0158236
-0.015855
-0.0155703
-0.0152452
-0.0171049
-0.0173004
-0.0178359
-0.017255
-0.0175022
-0.0164298
-0.0152901
-0.015348
-0.015629
-0.0153134
-0.0150333
-0.0173408
-0.0175144
-0.0180263
-0.0174488
-0.0175491
-0.0166518
-0.0155376
-0.0143411
-0.0149081
-0.0153808
-0.0151602
-0.0150935
-0.0148049
-0.0177007
-0.0182181
-0.0176586
-0.0177494
-0.0168929
-0.0158001
-0.014603
-0.0143893
-0.0133582
-0.0139794
-0.014932
-0.0147031
-0.0148728
-0.0145612
-0.0184046
-0.0178674
-0.0171417
-0.0160789
-0.0148919
-0.0136275
-0.0144252
-0.0142109
-0.013377
-0.0123794
-0.0129373
-0.0140139
-0.0139263
-0.0146305
-0.0142837
-0.0185788
-0.0180612
-0.0173809
-0.0163705
-0.0152036
-0.01393
-0.0126414
-0.0143561
-0.0141249
-0.01318
-0.0123999
-0.011433
-0.0119705
-0.0127745
-0.0138732
-0.0132877
-0.0140637
-0.0187344
-0.0182262
-0.01759
-0.0166582
-0.0155342
-0.0142613
-0.0129345
-0.0116673
-0.0132128
-0.0130266
-0.0122741
-0.0114316
-0.0105584
-0.011041
-0.0118107
-0.0125909
-0.012794
-0.0138228
-0.0134367
-0.0188634
-0.0183436
-0.0177407
-0.0169156
-0.0158673
-0.0146176
-0.0132593
-0.0119234
-0.0107312
-0.0122761
-0.0120829
-0.0112991
-0.0106092
-0.00963629
-0.0101909
-0.010865
-0.0116256
-0.0118181
-0.0189554
-0.0183854
-0.017802
-0.0171043
-0.0161712
-0.0149836
-0.0136157
-0.01221
-0.0109193
-0.00979437
-0.0113059
-0.0111247
-0.0105843
-0.00964958
-0.00885281
-0.00932442
-0.0100347
-0.0106578
-0.0108489
-0.0189871
-0.0183024
-0.0177163
-0.0171886
-0.0163973
-0.0153246
-0.0139911
-0.0125323
-0.011133
-0.00992566
-0.00894816
-0.0103868
-0.010546
-0.00954481
-0.00887196
-0.00822679
-0.00862405
-0.00918821
-0.00980764
-0.00994814
-0.0189106
-0.0180071
-0.0173895
-0.0171044
-0.0165061
-0.0155817
-0.014349
-0.0128841
-0.0113827
-0.0100493
-0.00899748
-0.00824136
-0.0106535
-0.00954389
-0.0093901
-0.00880863
-0.00825186
-0.00777117
-0.00808425
-0.00851395
-0.00903382
-0.00918321
-0.00976032
-0.00986544
-0.018644
-0.0173519
-0.0166654
-0.0167504
-0.016426
-0.015713
-0.0146239
-0.0132314
-0.0116722
-0.0101935
-0.00900659
-0.00818644
-0.00770241
-0.00950106
-0.00933167
-0.008802
-0.00868681
-0.00821724
-0.00780248
-0.00749806
-0.00772301
-0.0080055
-0.00840206
-0.00849843
-0.00897085
-0.00914792
-0.0180449
-0.0161222
-0.0153203
-0.0159586
-0.0160471
-0.015636
-0.0147737
-0.013507
-0.0119756
-0.010381
-0.00901205
-0.00805877
-0.00753488
-0.00734927
-0.0087663
-0.00862881
-0.00821066
-0.00813754
-0.00779963
-0.00754245
-0.00740808
-0.00754495
-0.00768158
-0.00793756
-0.00798946
-0.00834733
-0.0084702
-0.0169135
-0.0140642
-0.0130812
-0.0144896
-0.0151913
-0.0152283
-0.0147001
-0.0136673
-0.0122305
-0.0106032
-0.00905811
-0.00789868
-0.00725901
-0.00707391
-0.00719143
-0.00818649
-0.00809135
-0.00779702
-0.00776714
-0.00757488
-0.0074654
-0.00751575
-0.0075286
-0.00754518
-0.00766113
-0.00766985
-0.00789883
-0.00797581
-0.0150073
-0.0109614
-0.00974572
-0.0120649
-0.0136052
-0.0143013
-0.0142623
-0.013592
-0.0123878
-0.0108129
-0.00916103
-0.00777159
-0.00692008
-0.00665697
-0.00682983
-0.00725181
-0.00779321
-0.00773891
-0.00757899
-0.00759192
-0.00752852
-0.00755519
-0.00780831
-0.00772017
-0.00756173
-0.00757415
-0.0075418
-0.00764269
-0.00767388
-0.0121197
-0.00676254
-0.00527059
-0.00848927
-0.0110036
-0.0125924
-0.0132578
-0.0131212
-0.0123027
-0.0109493
-0.00929901
-0.00772472
-0.00660485
-0.00614846
-0.00630293
-0.00684039
-0.00753951
-0.0075928
-0.00758391
-0.00754511
-0.00759116
-0.00764552
-0.007854
-0.00826101
-0.00807903
-0.00781153
-0.00762748
-0.00757821
-0.0075769
-0.00756367
-0.00818379
-0.00160973
0.00018074
-0.00372829
-0.00719128
-0.00981144
-0.0114173
-0.012041
-0.0117966
-0.0108432
-0.00939231
-0.00776405
-0.00639327
-0.00565426
-0.00566128
-0.00625824
-0.0071438
-0.00804106
-0.00757774
-0.0076061
-0.00765571
-0.00769902
-0.00793584
-0.00833026
-0.00871367
-0.0085407
-0.00817859
-0.00781853
-0.00787276
-0.00765116
-0.00762021
-0.00333398
0.00418973
0.00629457
0.00203247
-0.00214488
-0.00576407
-0.00845093
-0.0100745
-0.0106432
-0.0102972
-0.00925216
-0.00779003
-0.00631315
-0.00528477
-0.00502391
-0.00554454
-0.00658152
-0.0077337
-0.00862579
-0.00767137
-0.00755483
-0.00793493
-0.00806302
-0.00843829
-0.00877546
-0.00902581
-0.00888172
-0.00865571
-0.0083246
-0.00820437
-0.00773649
-0.00802645
0.00214924
0.0102824
0.0126824
0.0084543
0.00392703
-0.000440683
-0.00416986
-0.00692708
-0.00855481
-0.00907107
-0.00866088
-0.00760037
-0.00624731
-0.00507419
-0.00452489
-0.00482155
-0.00587901
-0.00729178
-0.00851604
-0.00909977
-0.00796462
-0.00812584
-0.00847488
-0.00857744
-0.00884162
-0.00907766
-0.00883098
-0.00921248
-0.00894805
-0.00877632
-0.0087023
-0.0083935
-0.0082632
-0.0078246
-0.00831022
0.0079311
0.0163089
0.0189723
0.0151278
0.0106573
0.00592627
0.00141938
-0.00241643
-0.00523407
-0.00686572
-0.00736072
-0.00695669
-0.00598905
-0.00489385
-0.00418204
-0.00423311
-0.00513742
-0.00669459
-0.00831103
-0.00930616
-0.00927332
-0.0080569
-0.00818888
-0.00852797
-0.00864044
-0.00889844
-0.00893782
-0.0090026
-0.00849225
-0.00827931
-0.00848162
-0.00902675
-0.00902577
-0.00884249
-0.00875001
-0.00844315
-0.00831718
0.0136751
0.0219439
0.0248146
0.0216646
0.017615
0.012944
0.00806058
0.00342848
-0.000506902
-0.00338064
-0.00504109
-0.00557885
-0.00528031
-0.00454454
-0.00386807
-0.00375967
-0.00449563
-0.00601076
-0.00792456
-0.00944041
-0.00985815
-0.00902482
-0.00857002
-0.00868228
-0.00894008
-0.00900079
-0.00915034
-0.00926358
-0.00859245
-0.00778641
-0.00828432
-0.00734723
-0.00871862
-0.00907188
-0.00906105
-0.00887983
-0.00878389
0.0190752
0.0268833
0.0299073
0.0276979
0.0243876
0.0201591
0.0153363
0.0103244
0.00557508
0.00154878
-0.00139809
-0.00314243
-0.00381699
-0.00375294
-0.00340219
-0.0032978
-0.00389449
-0.00534146
-0.00738995
-0.0094031
-0.0104505
-0.0100125
-0.00832822
-0.00897004
-0.00903628
-0.00904809
-0.00861962
-0.00868859
-0.00854402
-0.00783218
-0.00670536
-0.00736318
-0.00836298
-0.00815065
-0.00611424
-0.00891069
-0.00881588
-0.00910252
-0.00908795
0.0238415
0.0308991
0.034013
0.0329169
0.0305949
0.027139
0.0227738
0.0178314
0.0127038
0.0078496
0.00372549
0.000660818
-0.00125518
-0.00218573
-0.00249902
-0.00268734
-0.00327506
-0.00461623
-0.00671285
-0.00908837
-0.0108374
-0.0110849
-0.00966059
-0.00722065
-0.00907754
-0.00889449
-0.00786829
-0.00766199
-0.0066939
-0.00539709
-0.00611011
-0.00739439
-0.00710525
-0.00465428
0.027749
0.0338687
0.0370285
0.0370898
0.0359181
0.0334888
0.0299226
0.0254593
0.0204162
0.0151883
0.0102325
0.00597799
0.00272077
0.000525753
-0.000795739
-0.00163615
-0.00249385
-0.00383324
-0.0058778
-0.00846058
-0.0108461
-0.0119548
-0.0111786
-0.00878448
-0.0057403
-0.00669436
-0.00643837
-0.0052791
-0.00401998
-0.00471145
-0.00608297
-0.00576734
-0.00281223
0.0306594
0.0358254
0.0389998
0.040128
0.040133
0.0388849
0.0363761
0.0327404
0.0282029
0.0230783
0.0177621
0.0126866
0.00824577
0.0047017
0.00210257
0.000251036
-0.00124493
-0.00285443
-0.00492445
-0.00753255
-0.0103201
-0.0123466
-0.0125329
-0.0106571
-0.00738224
-0.0038599
-0.00524587
-0.00496897
-0.00404167
-0.00210642
-0.00325231
-0.00456715
-0.00428399
-0.000855518
0.0325906
0.0369234
0.0400974
0.0420944
0.0431687
0.0431141
0.0418099
0.0392601
0.0355814
0.0309918
0.0258047
0.0203979
0.0151665
0.0104637
0.00652712
0.00339636
0.000890611
-0.0013559
-0.00372823
-0.00642498
-0.00937175
-0.0120212
-0.0133316
-0.0124263
-0.00945386
-0.00544177
-0.0017185
-0.00386175
-0.00389984
-0.00202546
-0.000246699
-0.00127333
-0.00310487
-0.00267252
0.000991792
0.0336768
0.0373915
0.0405552
0.0431749
0.0451085
0.0461253
0.0460257
0.0446976
0.0421311
0.0384321
0.0338141
0.0285761
0.0230619
0.0176238
0.0125784
0.00813974
0.00436512
0.0011086
-0.0019267
-0.00499997
-0.00814748
-0.0111485
-0.0132992
-0.0135855
-0.0114953
-0.00751566
-0.00303293
0.000500721
-0.00393109
-0.00196764
-0.00160182
-0.000145533
0.0013983
0.00049693
-0.00110032
-0.000725937
-0.0028942
-0.00241664
0.00260015
0.0341416
0.0374566
0.0406074
0.0436132
0.0461563
0.0480255
0.0489944
0.0488722
0.0475391
0.044976
0.0412816
0.0366565
0.0313682
0.0257209
0.0200211
0.0145506
0.00951765
0.00500869
0.000952635
-0.00283635
-0.00647736
-0.00985513
-0.0126008
-0.0138939
-0.0129085
-0.00961588
-0.00484592
-0.000285415
0.00263454
-0.00179855
-0.00138469
-7.66419e-05
0.000229505
0.00150778
0.00271855
0.00197619
0.000704094
0.000997057
-0.000943634
-0.000500145
0.00387883
0.0342054
0.0373137
0.0404533
0.0436504
0.0465679
0.049035
0.0508436
0.0517775
0.0516444
0.0503218
0.0477851
0.0441202
0.0395013
0.0341578
0.0283485
0.0223362
0.0163762
0.0106796
0.00538181
0.00052378
-0.00393356
-0.0079534
-0.0112917
-0.0134364
-0.0135529
-0.0111526
-0.0067725
-0.00156173
0.00259967
0.00452406
3.95124e-05
0.00041943
0.00158407
0.00180235
0.00280856
0.00363771
0.0030557
0.0022087
0.00239686
0.000828104
0.00120092
0.00471591
0.0340609
0.0371005
0.0402337
0.0434878
0.0465888
0.0494173
0.051808
0.0535619
0.0544662
0.0543329
0.0530382
0.0505505
0.046935
0.0423324
0.0369279
0.0309334
0.0245712
0.0180798
0.0116907
0.00561207
8.32856e-06
-0.00498128
-0.00915757
-0.0121468
-0.0133517
-0.0120892
-0.00833545
-0.00309804
0.00207816
0.00532829
0.00593872
0.00165497
0.0019619
0.00288986
0.00299363
0.00366035
0.00408406
0.00365651
0.00330226
0.00336161
0.00229643
0.00257
0.00491494
0.0338549
0.0377092
0.0361296
0.0432661
0.040825
0.0392901
0.0464196
0.0494212
0.0521589
0.0544741
0.0561744
0.0570544
0.0569312
0.0556818
0.053263
0.0497153
0.0451387
0.0396723
0.0334829
0.0267557
0.0197157
0.0126348
0.00582863
-0.000391271
-0.00571769
-0.00977911
-0.0120951
-0.0121047
-0.00945691
-0.00463397
0.00103135
0.00562021
0.00747626
0.00655917
0.00291009
0.00311051
0.00372833
0.00370021
0.00399519
0.00395326
0.00370746
0.00389108
0.00380572
0.00334675
0.00349203
0.00429622
0.0344962
0.0328748
0.0380099
0.03721
0.0364563
0.0356752
0.0461977
0.0438413
0.0423516
0.0411179
0.0403413
0.0396105
0.0388512
0.0492457
0.0521453
0.0547897
0.0570278
0.0586755
0.0595358
0.0594339
0.058246
0.0559165
0.0524534
0.0479168
0.0423974
0.0360193
0.0289391
0.0213832
0.0136711
0.00624188
-0.000424994
-0.00584326
-0.00949803
-0.0108771
-0.00961464
-0.00581237
-0.000374969
0.00503697
0.00847217
0.00859674
0.00606373
0.00368901
0.00376434
0.00402135
0.00384547
0.00373146
0.00318303
0.00314927
0.0038886
0.00364659
0.00387718
0.00387877
0.00279839
0.0348052
0.0339846
0.0332112
0.0379291
0.0371445
0.0364401
0.0356775
0.0490245
0.0467546
0.0453124
0.0441258
0.0433725
0.0426656
0.0419287
0.0410414
0.0402797
0.0395955
0.0388558
0.0519634
0.0547572
0.0573055
0.0594653
0.0610604
0.061907
0.0618378
0.0607283
0.0585062
0.055149
0.0506734
0.0451216
0.038572
0.0311666
0.023157
0.0149325
0.00705598
0.000170395
-0.00507497
-0.00807476
-0.00839861
-0.00601364
-0.00147997
0.00393189
0.00837842
0.0100729
0.00830558
0.00433297
0.00390308
0.00383283
0.00368164
0.00335211
0.00283752
0.00183415
0.0020126
0.00323332
0.00284081
0.00379731
0.00363456
0.000458214
0.0347187
0.0339138
0.0331931
0.0517431
0.049562
0.0481689
0.0470298
0.0463009
0.0456187
0.0449047
0.0440522
0.0433145
0.0426519
0.0419348
0.0545692
0.0572541
0.0597041
0.0617825
0.0633279
0.0641668
0.0641419
0.0631265
0.0610325
0.0578054
0.0534174
0.0478673
0.0411926
0.0335239
0.025162
0.016584
0.00847063
0.00161101
-0.00322718
-0.00543612
-0.00478769
-0.00163769
0.0030315
0.00771947
0.0105944
0.010141
0.00648142
0.00150323
0.00346967
0.0032355
0.00269354
0.0022356
0.00144475
-2.03036e-05
0.000613391
0.00196525
0.00147158
0.00304784
0.00271874
-0.00253049
0.0543505
0.052261
0.0509183
0.0498277
0.0491239
0.0484671
0.0477767
0.0469586
0.0462454
0.0456051
0.0449113
0.0570609
0.0596343
0.0619822
0.06398
0.0654767
0.0663148
0.0663451
0.0654424
0.0635008
0.0604302
0.0561563
0.0506386
0.0438969
0.0360684
0.0275
0.0187551
0.0106235
0.00400449
-0.000281884
-0.00172935
-0.000382818
0.00301299
0.00716253
0.0104885
0.0113244
0.00866114
0.0034045
-0.00200997
0.00238021
0.00200423
0.00118323
0.000681907
4.739e-05
-0.00241586
-0.0009046
0.000349896
-0.000102453
0.00167896
0.00124297
-0.00578752
0.0568448
0.0548486
0.0535578
0.0525172
0.0518395
0.0512082
0.0505419
0.049759
0.0490711
0.0484539
0.0477835
0.0594372
0.0618959
0.0641404
0.066056
0.0675081
0.0683526
0.0684536
0.0676828
0.0659163
0.063033
0.0589111
0.053474
0.0467378
0.0388668
0.0302481
0.0215158
0.0135465
0.00730639
0.00358306
0.00270431
0.00431987
0.00737335
0.0103846
0.0118521
0.0104719
0.0058808
-0.000308123
-0.00558044
0.000787461
0.000354128
-0.000369163
-0.000688272
-0.00179758
-0.0053861
-0.00340555
-0.000950427
-0.00157374
-1.56565e-05
-0.000440527
-0.00872238
0.0592247
0.0573232
0.056085
0.0550953
0.0544444
0.0538394
0.0531979
0.0524515
0.0517897
0.0511952
0.0505488
0.0616968
0.0640386
0.0661782
0.0680141
0.0694254
0.070287
0.0704735
0.0698526
0.0682801
0.0656008
0.0616679
0.0563787
0.0497499
0.0419599
0.0334261
0.0248418
0.0171459
0.0113115
0.00802317
0.00738267
0.00877399
0.0109201
0.0123009
0.0116584
0.00822276
0.00233515
-0.00397847
-0.00863057
-0.000855961
-0.00103679
-0.00185184
-0.00248504
-0.00486199
-0.00817609
-0.00647218
-0.00340818
-0.00427678
-0.000687822
-0.00216657
-0.0110399
0.0614894
0.0596839
0.058499
0.0575606
0.0569367
0.0563581
0.055742
0.0550326
0.0543979
0.0538268
0.0532051
0.0638392
0.0660631
0.0680994
0.0698574
0.0712346
0.0721248
0.0724125
0.0719606
0.0706003
0.0681517
0.0644498
0.0593827
0.052955
0.0453405
0.0369806
0.0286146
0.0212081
0.0156891
0.0125911
0.0117951
0.0124755
0.0132565
0.0127293
0.0100262
0.00502595
-0.0013649
-0.00716578
-0.0109699
-0.00185342
-0.00293229
-0.00500809
-0.00576798
-0.00772398
-0.0104559
-0.0089605
-0.00653627
-0.00723648
-0.00386671
-0.00471844
-0.00343583
-0.0127509
0.0636383
0.0619295
0.0607984
0.0599116
0.0593153
0.0587638
0.0581732
0.0575009
0.0568934
0.056346
0.0557496
0.0658652
0.0679734
0.0699083
0.0715921
0.0729441
0.0738762
0.0742754
0.0739978
0.0728661
0.0706849
0.0672721
0.0624984
0.0563367
0.0489485
0.0407909
0.0326316
0.0254322
0.0200394
0.0168221
0.0154727
0.0150456
0.0141903
0.0117396
0.00733685