/*--------------------------------*- C++ -*----------------------------------*\
| =========                 |                                                 |
| \\      /  F ield         | OpenFOAM: The Open Source CFD Toolbox           |
|  \\    /   O peration     | Version:  v1912                                 |
|   \\  /    A nd           | Website:  www.openfoam.com                      |
|    \\/     M anipulation  |                                                 |
\*---------------------------------------------------------------------------*/
FoamFile
{
    version     2.0;
    format      ascii;
    class       surfaceScalarField;
    location    "130";
    object      phi;
}
// * * * * * * * * * * * * * * * * * * * * * * * * * * * * * * * * * * * * * //

dimensions      [0 3 -1 0 0 0 0];
oriented        oriented;


internalField   nonuniform List<scalar> 
7351
(
-4.21963e-06
0.00140323
-1.47566e-05
0.00426623
-3.31137e-06
0.00140658
-3.62726e-05
0.00712582
-1.48134e-05
0.00427778
-4.1037e-06
0.0014109
-6.43079e-05
0.0098709
-3.54843e-05
0.00714657
-1.50465e-05
0.00428892
-2.80098e-06
0.00141395
-9.78136e-05
0.012331
-6.25394e-05
0.00989802
-3.32779e-05
0.00716497
-1.18846e-05
0.00429825
-2.70067e-06
0.00141693
-0.000146117
0.0143179
-9.66465e-05
0.0123652
-5.71436e-05
0.00992203
-3.09988e-05
0.0071843
-1.15574e-05
0.00430732
-2.70098e-06
0.00141977
-0.000187002
0.0156222
-0.000138227
0.0143596
-9.26338e-05
0.0124008
-5.60231e-05
0.00994721
-2.60786e-05
0.007199
-1.13137e-05
0.00431608
-1.73539e-06
0.00142161
-0.000238567
0.0161049
-0.000186703
0.0156708
-0.000132945
0.0144
-8.60175e-05
0.0124309
-4.56628e-05
0.00996691
-2.26729e-05
0.00721048
-9.34472e-06
0.00432374
-1.83498e-06
0.00142342
-0.000278889
0.0156708
-0.000230623
0.0161489
-0.000176646
0.0157146
-0.000119683
0.0144337
-7.05143e-05
0.0124559
-4.11238e-05
0.00998543
-1.96643e-05
0.00722083
-7.44734e-06
0.00432932
-1.87025e-06
0.00142524
-0.000313992
0.0143687
-0.000279592
0.0157199
-0.00021762
0.0161899
-0.000148885
0.0157438
-9.78942e-05
0.0144612
-6.2892e-05
0.0124777
-3.68045e-05
0.0100026
-1.83624e-05
0.00723172
-6.80671e-06
0.00433419
-2.02618e-06
0.00142724
-0.000339923
0.012311
-0.000324194
0.0144133
-0.000257806
0.0157601
-0.000183879
0.0162249
-0.000127402
0.0157734
-8.05765e-05
0.0144789
-5.10456e-05
0.0124919
-2.74316e-05
0.0100116
-1.56654e-05
0.00724054
-7.56508e-06
0.00433971
-2.03754e-06
0.00142936
-0.000349062
0.00968221
-0.000354808
0.0123418
-0.000276835
0.0144325
-0.000203841
0.0157801
-0.000145011
0.0162426
-0.000101086
0.0157939
-6.70103e-05
0.0144948
-4.15032e-05
0.012506
-2.73184e-05
0.0100232
-1.2562e-05
0.00724555
-4.9886e-06
0.00434275
-1.5485e-06
0.00143104
0.00668606
-0.000197939
-0.000116335
-0.000377326
0.0097046
-0.000287876
0.0123527
-0.000209903
0.0144384
-0.000156015
0.0157911
-0.000108912
0.0162504
-7.55451e-05
0.0158024
-4.90352e-05
0.0145023
-3.48321e-05
0.0125135
-1.83821e-05
0.010029
-1.28502e-05
0.00725348
-6.75471e-06
0.00434809
-8.31452e-07
0.001432
0.00669366
-0.000180634
-0.000204262
-0.00220328
0.00216081
-0.000155432
-8.602e-05
-0.000261872
0.00967879
-0.00018987
0.0123329
-0.000147951
0.0144305
-0.000106089
0.0157883
-8.3148e-05
0.0162579
-6.16519e-05
0.015815
-4.34221e-05
0.0145109
-3.0301e-05
0.0125254
-2.33939e-05
0.0100397
-1.24934e-05
0.00725932
-5.47662e-06
0.0043528
-1.65533e-06
0.00143363
0.00662449
-6.05669e-05
-0.000132115
-0.00214358
0.00211959
-0.000156666
-0.000187056
-0.00141427
0.0013553
-6.38947e-05
-3.25471e-05
-2.55622e-05
-0.00014098
0.00962975
-0.000117036
0.0123018
-9.1531e-05
0.0144158
-7.48084e-05
0.0157799
-5.83236e-05
0.0162546
-4.2865e-05
0.0158144
-3.79952e-05
0.0145186
-2.55206e-05
0.0125276
-1.80653e-05
0.0100453
-1.34882e-05
0.00726738
-6.37014e-06
0.00435749
-2.58398e-06
0.00143615
0.00653987
-1.05699e-05
-4.57634e-05
-0.00207089
0.00204724
-3.68973e-05
-8.33886e-05
-0.00133788
0.0012931
-3.99364e-05
-7.19591e-05
-8.51445e-05
-8.45087e-05
-0.000428614
0.000400918
-3.61895e-05
-0.00044276
-1.83894e-05
-9.94306e-06
-6.619e-05
0.00957907
-6.19023e-05
0.0122723
-5.78239e-05
0.0143989
-4.63045e-05
0.0157679
-3.9483e-05
0.0162512
-3.51098e-05
0.0158116
-3.08022e-05
0.0145239
-2.53434e-05
0.0125349
-2.28576e-05
0.0100547
-1.47852e-05
0.00727578
-8.65973e-06
0.0043635
-1.64782e-06
0.00143773
0.00648963
-3.73102e-08
-1.58991e-05
-0.00201865
0.00201409
-6.02781e-06
-1.71849e-05
-0.00123937
0.00120854
-7.94732e-07
-5.25216e-06
-2.24502e-05
-7.19985e-06
-0.000329876
0.000310459
-2.05272e-05
-0.000353609
-4.82395e-05
0.000375232
-5.94635e-05
-6.28942e-05
-0.000245356
0.000219208
-1.00359e-05
-0.000259725
-4.01058e-06
-1.67108e-06
-3.28382e-05
0.00954983
-3.51643e-05
0.0122495
-3.28141e-05
0.0143853
-3.37139e-05
0.0157621
-2.84646e-05
0.0162446
-3.13736e-05
0.0158122
-2.57046e-05
0.0145243
-2.93697e-05
0.0125414
-2.24955e-05
0.0100623
-1.70694e-05
0.00728413
-8.60235e-06
0.0043704
-3.40081e-06
0.00144115
0.00645832
4.51959e-06
-6.04482e-06
-0.00200135
0.00200209
-7.59042e-07
-3.12669e-06
-0.00119274
0.0011866
1.09407e-06
-9.83483e-07
-1.74285e-06
3.48268e-07
-0.000285104
0.000284716
-4.01992e-07
-0.000289849
-4.95881e-07
0.00029488
-6.86259e-06
-2.16141e-06
-0.000111336
9.08063e-05
-0.000159579
0.000181014
-2.12724e-05
-4.14641e-05
-7.27717e-05
6.27374e-05
-7.67811e-05
-1.20775e-05
0.0095269
-1.98674e-05
0.0122367
-2.04899e-05
0.0143722
-1.83733e-05
0.015752
-2.61479e-05
0.0162394
-2.4174e-05
0.0158106
-3.68268e-05
0.0145317
-3.48092e-05
0.0125537
-2.89763e-05
0.0100742
-2.04079e-05
0.00729592
-1.16722e-05
0.0043787
-2.38998e-06
0.00144361
0.00644551
4.12494e-06
-3.39928e-06
-0.00199635
0.00199965
1.18535e-06
-3.17666e-07
-0.00118343
0.0011823
2.75689e-07
1.11873e-07
-4.30047e-07
4.95765e-07
-0.000282312
0.000283185
2.17826e-07
-0.000283469
1.65826e-07
0.000282994
-2.51332e-08
-1.30445e-07
-8.12907e-05
8.08901e-05
-8.17845e-05
8.39459e-05
4.14641e-05
-3.64048e-06
0.00951052
-3.14494e-06
0.0122192
-8.50914e-06
0.0143622
-1.64156e-05
0.0157423
-2.27756e-05
0.0162379
-3.58788e-05
0.0158096
-3.45104e-05
0.0145314
-3.82755e-05
0.012563
-3.29736e-05
0.0100868
-2.22535e-05
0.00730653
-1.20647e-05
0.00438846
-3.03508e-06
0.00144675
0.00643963
2.26999e-06
-2.34035e-08
-0.00199597
0.00199921
8.80321e-07
2.9701e-07
-0.00118156
0.00118252
-1.57761e-07
3.68131e-07
1.6072e-09
4.12703e-07
-0.000283251
0.000283456
7.66867e-08
-0.000283284
1.57479e-07
0.000282983
-2.16524e-07
2.02742e-07
-8.08979e-05
8.11159e-05
-8.07333e-05
8.08638e-05
2.40135e-06
0.00950516
-2.89811e-06
0.0122138
-7.07536e-06
0.014353
-1.15419e-05
0.015731
-2.56723e-05
0.0162277
-4.04766e-05
0.0158156
-5.15621e-05
0.0145446
-4.56141e-05
0.0125756
-3.8899e-05
0.0101034
-2.77825e-05
0.00732232
-1.24509e-05
0.00439794
-3.82489e-06
0.00145059
0.00643826
2.31005e-06
1.47451e-06
-0.00199894
0.00199953
1.64829e-06
2.21614e-07
-0.00118219
0.00118299
1.49583e-07
-6.90509e-08
2.99781e-07
3.37402e-07
-0.000284135
0.000283926
4.17013e-08
-0.000283747
-3.10454e-08
0.000283424
2.66922e-08
8.50045e-08
-8.12646e-05
8.13428e-05
-8.11046e-05
8.09019e-05
1.99703e-06
0.00950011
3.61927e-06
0.0122029
-2.89658e-06
0.0143442
-2.27187e-05
0.015728
-3.72754e-05
0.0162245
-4.96766e-05
0.0158137
-5.96814e-05
0.0145587
-5.98029e-05
0.0125966
-4.90535e-05
0.0101248
-2.92419e-05
0.00733916
-1.24578e-05
0.00440661
-2.7376e-06
0.00145334
0.00643679
2.18334e-06
1.30684e-06
-0.00200045
0.00200107
1.70597e-06
5.79564e-07
-0.00118236
0.00118397
2.63379e-07
-2.44161e-07
4.30619e-07
3.98076e-07
-0.000284235
0.000284418
-3.66268e-08
-0.000284477
1.79681e-07
0.000284267
-3.59286e-08
1.32111e-07
-8.14201e-05
8.14601e-05
-8.14528e-05
8.13678e-05
7.80688e-06
0.00949607
3.68967e-06
0.0121965
-7.12386e-06
0.0143287
-2.23879e-05
0.0157132
-4.83854e-05
0.0162232
-6.6978e-05
0.015821
-7.36011e-05
0.0145725
-7.00843e-05
0.0126176
-5.20327e-05
0.0101476
-3.16722e-05
0.00735841
-1.55496e-05
0.00441941
-3.54052e-06
0.00145682
0.00643906
2.72399e-06
2.80188e-06
-0.00200111
0.00200278
4.8914e-07
1.25337e-06
-0.00118454
0.00118564
1.98408e-07
4.15464e-07
-2.45029e-07
2.69558e-07
-0.000284923
0.00028513
4.6363e-08
-0.000285341
1.60686e-07
0.00028481
2.80441e-08
-1.40027e-07
-8.17386e-05
8.17013e-05
-8.15576e-05
8.14255e-05
4.25564e-06
0.00949532
-1.13354e-07
0.0121893
-1.69385e-05
0.0143231
-4.08925e-05
0.0157057
-6.88244e-05
0.016225
-9.14791e-05
0.0158389
-9.76049e-05
0.0146001
-8.13954e-05
0.012647
-5.68585e-05
0.0101728
-3.20971e-05
0.00737495
-1.34708e-05
0.0044293
-3.91942e-06
0.00146067
0.00644003
5.34774e-07
2.74531e-06
-0.002004
0.00200539
1.34634e-06
1.60302e-06
-0.00118665
0.00118661
2.6152e-07
2.60739e-07
-8.24966e-08
3.20114e-07
-0.000285365
0.000285814
-2.47159e-07
-0.000285119
1.78735e-07
0.000284951
-5.95324e-08
1.06539e-07
-8.17452e-05
8.17896e-05
-8.15869e-05
8.1727e-05
3.993e-06
0.00949136
-3.53783e-06
0.012176
-2.07983e-05
0.0143031
-5.71725e-05
0.015694
-9.0129e-05
0.0162237
-0.000111602
0.0158529
-0.000108106
0.0146268
-8.83481e-05
0.0126785
-6.17463e-05
0.0102024
-3.48313e-05
0.00739627
-1.48781e-05
0.00444017
-3.43335e-06
0.00146397
0.00643921
2.13966e-06
2.64504e-06
-0.00200764
0.0020066
1.53669e-06
4.7506e-07
-0.00118812
0.00118943
-3.05274e-07
3.51704e-07
-2.17484e-07
3.21535e-07
-0.000286022
0.000286245
3.3413e-08
-0.000285878
1.08101e-07
0.000285713
1.33036e-08
1.51152e-07
-8.20189e-05
8.17728e-05
-8.18384e-05
8.17318e-05
1.41428e-06
0.00948624
-1.14034e-05
0.0121665
-4.37762e-05
0.0142897
-8.66439e-05
0.0156905
-0.000127874
0.01624
-0.000138687
0.0158835
-0.000130511
0.0146689
-9.75e-05
0.0127142
-6.13083e-05
0.0102289
-3.39772e-05
0.00741529
-1.27905e-05
0.00444941
-2.53067e-06
0.00146637
0.00643748
6.0066e-07
2.54935e-06
-0.00200813
0.00200971
5.50238e-07
1.12408e-06
-0.00118914
0.00119061
-1.91149e-07
2.34571e-07
4.07273e-07
3.4594e-07
-0.000286471
0.000286436
-2.69406e-07
-0.000286229
1.18543e-07
0.000286016
1.90663e-08
1.14045e-07
-8.20425e-05
8.20752e-05
-8.19358e-05
8.17847e-05
-9.70954e-07
0.00947596
-2.22681e-05
0.0121451
-6.84998e-05
0.0142716
-0.000125479
0.0156881
-0.000162703
0.016264
-0.000170893
0.0159239
-0.000137161
0.0147086
-0.00010038
0.0127533
-6.30229e-05
0.0102578
-3.04903e-05
0.00743289
-1.23898e-05
0.00445913
-2.40306e-06
0.00146863
0.00643327
6.47296e-07
2.57988e-06
-0.00201082
0.00201086
5.22399e-07
1.41094e-06
-0.00119116
0.00119169
1.56605e-07
-1.46374e-07
4.1824e-07
1.59776e-07
-0.000287107
0.00028687
3.47346e-08
-0.000286956
7.24675e-08
0.000286797
3.93088e-08
1.81068e-07
-8.23306e-05
8.20617e-05
-8.22102e-05
8.20961e-05
-7.35377e-06
0.0094609
-4.40725e-05
0.0121206
-0.000108627
0.0142547
-0.000169986
0.0156954
-0.000205079
0.0162981
-0.000183392
0.01597
-0.000143966
0.0147521
-9.78909e-05
0.0127881
-5.36428e-05
0.0102809
-2.60607e-05
0.00744645
-1.01628e-05
0.00446677
-2.03171e-06
0.00147054
0.00642416
-7.77873e-07
2.55177e-06
-0.00201223
0.00201237
5.13415e-07
1.22488e-06
-0.00119237
0.00119289
2.64537e-07
-2.814e-07
4.12866e-07
2.97402e-07
-0.000287073
0.000287471
-2.46893e-07
-0.000287317
1.00162e-07
0.000287215
7.50627e-08
6.01831e-08
-8.23506e-05
8.23828e-05
-8.22801e-05
8.20991e-05
-1.68427e-05
0.0094338
-7.59933e-05
0.0120881
-0.000161226
0.0142459
-0.000228399
0.0157187
-0.000230164
0.0163449
-0.000197019
0.016023
-0.000143348
0.0147975
-8.78349e-05
0.0128222
-4.88579e-05
0.0103036
-2.25746e-05
0.00745877
-7.13627e-06
0.00447177
-9.07311e-07
0.00147134
0.00640723
-2.55284e-06
2.6125e-06
-0.0020134
0.00201239
2.05794e-07
1.50632e-06
-0.00119401
0.00119397
1.46083e-07
4.06352e-07
4.16895e-07
-3.07091e-07
-0.000287584
0.000287861
-2.45186e-08
-0.000287976
9.72935e-08
0.000287802
7.04913e-08
1.16496e-07
-8.26196e-05
8.2371e-05
-8.25187e-05
8.24585e-05
-3.80701e-05
0.00939571
-0.000130618
0.0120573
-0.000234808
0.0142522
-0.000275373
0.0157638
-0.000248461
0.0163962
-0.000188016
0.0160676
-0.000127235
0.0148368
-7.48283e-05
0.0128481
-4.07512e-05
0.0103217
-1.89173e-05
0.00747046
-4.68743e-06
0.00447545
-7.04134e-07
0.00147195
0.0063751
-8.56657e-06
2.61743e-06
-0.0020145
0.00201167
2.86587e-07
5.1396e-07
-0.00119524
0.00119541
-1.67217e-07
1.95814e-07
3.80526e-07
-1.54567e-07
-0.000288322
0.000288394
7.3898e-08
-0.000287771
-1.39067e-07
0.0002882
8.08289e-08
1.25168e-07
-8.26498e-05
8.26224e-05
-8.25553e-05
8.24388e-05
-7.72877e-05
0.00934247
-0.000209306
0.0120319
-0.000299867
0.0142767
-0.000295882
0.0158112
-0.000233897
0.0164421
-0.000168907
0.0161092
-0.00010808
0.01487
-6.4812e-05
0.012872
-3.43367e-05
0.010337
-1.15918e-05
0.00747729
-3.8128e-06
0.00447848
3.71676e-07
0.00147149
0.00631739
-1.93087e-05
-3.40016e-07
-0.0020136
0.00200666
-1.65511e-06
6.63173e-07
-0.00119541
0.00119562
-3.16566e-07
3.97926e-07
3.77016e-07
1.43856e-07
-0.000288604
0.000288421
9.12342e-09
-0.000288545
1.28954e-07
0.000288749
1.88346e-08
4.58548e-08
-8.26915e-05
8.27656e-05
-8.28295e-05
8.27043e-05
-0.00014831
0.00928128
-0.000312395
0.0120442
-0.000342381
0.0143231
-0.000283783
0.015861
-0.000208346
0.0164814
-0.000140928
0.016142
-8.78124e-05
0.0148929
-4.92999e-05
0.0128869
-2.15745e-05
0.0103469
-7.55656e-06
0.00748097
3.45008e-07
0.00447843
8.09436e-07
0.00147061
0.00622688
-4.74483e-05
-1.04025e-05
-0.00200775
0.00199259
-4.17757e-06
-1.44078e-06
-0.001196
0.00119423
-1.22123e-07
2.07979e-07
3.89099e-07
-1.22961e-07
-0.000289353
0.000288972
6.35255e-08
-0.00028882
-1.28117e-07
0.000288782
2.0752e-08
1.08301e-07
-8.2956e-05
8.29638e-05
-8.28286e-05
8.27828e-05
-0.000282096
0.00925103
-0.000372767
0.0120746
-0.00031866
0.014358
-0.000236591
0.0158892
-0.00016785
0.0165083
-0.000106909
0.016161
-6.4455e-05
0.014908
-3.52929e-05
0.0129006
-1.3021e-05
0.0103524
-2.60137e-06
0.00748386
2.05226e-06
0.00447712
1.20593e-06
0.00146933
0.00612496
-0.000125213
-5.5054e-05
-0.00198948
0.00195858
-1.6622e-05
-7.3214e-06
-0.00119269
0.00118835
-2.49471e-07
3.83728e-07
3.75634e-07
-2.75337e-07
-0.000289213
0.000289278
-1.98781e-07
-0.000289146
1.3143e-07
0.000289329
2.58352e-08
5.44256e-08
-8.29674e-05
8.3031e-05
-8.30942e-05
8.29859e-05
-0.000392512
0.00927055
-0.000339403
0.0120952
-0.000252109
0.0143734
-0.000181511
0.0159028
-0.000121921
0.0165232
-7.93914e-05
0.0161759
-4.28783e-05
0.0149155
-1.84019e-05
0.0129059
-6.3046e-06
0.010356
1.67098e-06
0.00748419
2.68307e-06
0.00447558
2.59533e-06
0.00146667
0.00612281
-0.000215196
-0.00017524
-0.00193402
0.00187412
-6.53569e-05
-3.04944e-05
-0.00118116
0.00116592
-1.61225e-06
1.84617e-07
4.4545e-07
-5.98741e-07
-0.000289548
0.00028921
7.54263e-08
-0.000289243
7.69297e-08
0.000289629
2.26918e-08
1.09021e-07
-8.32388e-05
8.30367e-05
-8.31093e-05
8.30549e-05
-0.000338867
0.00927004
-0.000239511
0.0120826
-0.000173436
0.0143653
-0.000126782
0.0159076
-8.68342e-05
0.0165306
-5.5006e-05
0.016188
-2.98381e-05
0.0149269
-1.16749e-05
0.0129113
2.53613e-06
0.0103551
5.3811e-06
0.00748144
6.49016e-06
0.00447163
3.22257e-06
0.00146339
0.00606904
-0.000100384
-0.000184839
-0.00183656
0.00180433
-0.00018304
-0.000137709
-0.00113959
0.00108745
-1.12706e-05
-1.97198e-06
-3.87583e-07
-3.77591e-06
-0.000289066
0.00028769
-2.53497e-07
-0.000289084
1.85721e-07
0.000289576
6.36145e-08
-1.15839e-07
-8.32445e-05
8.33156e-05
-8.3168e-05
8.3059e-05
-0.000184503
0.00921481
-0.000145959
0.0120549
-0.000114334
0.0143527
-8.15758e-05
0.0159022
-5.54671e-05
0.016531
-3.07653e-05
0.0161889
-1.39126e-05
0.0149291
-9.9318e-07
0.0129148
6.86846e-06
0.0103536
1.2137e-05
0.00747575
9.62468e-06
0.00446518
3.7133e-06
0.00145963
0.00596574
-1.79626e-05
-6.33129e-05
-0.00175923
0.0017182
-5.94174e-05
-0.000139762
-0.00100411
0.000955809
-6.87722e-05
-6.60261e-05
-1.49983e-05
-3.9393e-05
-0.000282586
0.000273183
-1.87509e-06
-0.000283957
-6.02039e-07
0.000287508
-2.07294e-07
-2.26004e-07
-8.34413e-05
8.31826e-05
-8.32595e-05
8.33753e-05
-8.47307e-05
0.00915361
-7.9255e-05
0.0120199
-6.642e-05
0.0143375
-4.95513e-05
0.0158963
-3.16097e-05
0.0165318
-1.41988e-05
0.0161891
-4.12057e-07
0.0149285
1.15187e-05
0.0129101
1.51589e-05
0.0103505
1.39608e-05
0.00747138
9.28546e-06
0.00445956
4.83259e-06
0.00145475
0.00589846
5.53106e-07
-1.81415e-05
-0.0016784
0.00166757
-7.22177e-06
-2.35468e-05
-0.000887209
0.000836097
-1.40001e-06
-6.95671e-06
-5.07441e-05
-2.04269e-05
-0.000190866
0.000164203
-4.21264e-05
-0.000233561
-2.33461e-05
0.000262379
-4.20618e-06
-1.05826e-05
-8.21467e-05
8.02689e-05
-8.2749e-05
8.2975e-05
-3.89298e-05
0.00911306
-4.04388e-05
0.0119937
-3.52809e-05
0.0143232
-2.63353e-05
0.015891
-1.38344e-05
0.0165314
-1.80038e-06
0.0161905
1.32602e-05
0.0149268
1.56347e-05
0.0129096
2.03353e-05
0.0103441
1.73454e-05
0.00746328
1.36745e-05
0.00445068
5.16589e-06
0.00144955
0.00586242
3.76967e-06
-6.738e-06
-0.00165292
0.00165356
-1.64292e-07
-3.51648e-06
-0.000813235
0.000805913
2.89775e-07
-2.48908e-07
-7.23909e-07
1.64503e-08
-8.60704e-05
8.46637e-05
-9.30294e-05
0.000113456
-4.21282e-05
-6.5477e-05
7.60596e-05
-1.60835e-05
0.00908874
-1.89855e-05
0.0119775
-1.5382e-05
0.0143122
-4.62938e-06
0.0158817
2.51787e-06
0.0165271
1.39463e-05
0.0161898
1.63694e-05
0.014926
2.54455e-05
0.0129044
2.49663e-05
0.0103365
2.34441e-05
0.00745348
1.60407e-05
0.00443978
6.09681e-06
0.00144341
0.00584566
4.34393e-06
-3.80406e-06
-0.00164756
0.00164987
1.36006e-06
-7.7736e-07
-0.000802279
0.000801962
1.17224e-07
-2.14039e-08
-1.14612e-08
1.13439e-07
-8.36972e-05
8.39781e-05
-8.39512e-05
8.39348e-05
-2.4832e-06
0.00907202
-5.52236e-06
0.0119675
-4.82578e-07
0.014308
6.18061e-06
0.015878
1.62416e-05
0.0165248
2.12581e-05
0.0161849
3.2642e-05
0.0149188
3.31827e-05
0.0128962
3.31083e-05
0.0103268
2.85288e-05
0.00744097
1.8111e-05
0.00442774
7.16032e-06
0.00143622
0.00584074
3.88287e-06
-1.507e-06
-0.00164569
0.00164968
2.71187e-07
3.43608e-07
-0.000800859
0.000802033
1.96637e-07
-8.10275e-08
1.40488e-07
1.57448e-07
-8.40519e-05
8.41592e-05
-8.40767e-05
8.39632e-05
1.83968e-06
0.00906472
5.10269e-06
0.011962
8.53103e-06
0.0143056
1.45264e-05
0.0158797
2.60911e-05
0.0165199
3.22294e-05
0.0161853
3.31629e-05
0.0149188
3.73515e-05
0.0128919
3.61577e-05
0.0103191
3.24829e-05
0.00742658
2.18067e-05
0.00441307
8.3034e-06
0.00142789
0.00583977
3.10715e-06
-3.94113e-07
-0.00164753
0.00165026
1.0736e-06
6.04728e-07
-0.00080217
0.000802465
3.17782e-08
-1.15708e-07
1.23288e-07
6.6658e-08
-8.43636e-05
8.4549e-05
-8.44509e-05
8.42935e-05
4.69075e-06
0.00906496
1.16571e-05
0.0119587
1.87055e-05
0.0143014
2.58558e-05
0.0158799
2.92985e-05
0.0165228
4.24646e-05
0.0161759
4.8127e-05
0.014908
5.03618e-05
0.0128777
4.48166e-05
0.0103068
3.79651e-05
0.0074104
2.46875e-05
0.00439666
9.44545e-06
0.00141843
0.00584069
3.11248e-06
6.40184e-07
-0.00164981
0.00165179
1.08483e-06
3.51583e-08
-0.0008029
0.000803962
4.51358e-08
-9.02623e-08
9.32742e-08
5.03939e-08
-8.46153e-05
8.46364e-05
-8.47349e-05
8.46683e-05
9.17866e-06
0.0090675
1.67119e-05
0.0119607
2.11871e-05
0.0143061
3.49183e-05
0.0158743
4.46439e-05
0.0165206
4.94452e-05
0.0161746
5.21812e-05
0.0149061
5.65008e-05
0.012866
5.36984e-05
0.010291
4.41573e-05
0.00739092
2.90117e-05
0.00437708
1.05237e-05
0.00140788
0.00584593
3.17458e-06
6.86639e-07
-0.00165153
0.00165382
7.66534e-07
8.82016e-07
-0.000803831
0.000804829
-6.51989e-08
1.21473e-07
9.5338e-08
6.07344e-08
-8.46777e-05
8.47138e-05
-8.47741e-05
8.47237e-05
1.03383e-05
0.00907371
1.79349e-05
0.0119638
3.06683e-05
0.0143102
3.81414e-05
0.0158807
4.69913e-05
0.016523
5.75671e-05
0.0161692
6.53168e-05
0.0148973
6.46624e-05
0.012855
6.2373e-05
0.0102728
4.88762e-05
0.00737104
3.26692e-05
0.00435492
1.2131e-05
0.00139574
0.00585103
3.33003e-06
1.8875e-06
-0.0016536
0.00165595
7.90027e-07
8.98032e-07
-0.00080553
0.000806124
4.73813e-08
9.30623e-08
9.8449e-08
6.56641e-08
-8.49868e-05
8.49156e-05
-8.48676e-05
8.48069e-05
1.22532e-05
0.00907946
2.2309e-05
0.0119723
3.17337e-05
0.0143167
4.49198e-05
0.0158828
5.86938e-05
0.0165219
6.6902e-05
0.0161676
7.58207e-05
0.0148861
7.5436e-05
0.012842
7.11928e-05
0.0102505
5.87066e-05
0.007345
3.582e-05
0.00433122
1.3379e-05
0.00138235
0.00585904
3.29884e-06
8.60105e-07
-0.00165689
0.00165923
9.38258e-07
9.23699e-07
-0.000807071
0.000807698
5.13961e-08
8.94705e-08
-9.51795e-08
4.19208e-08
-8.51649e-05
8.52064e-05
-8.50758e-05
8.50101e-05
1.32941e-05
0.00908832
2.4004e-05
0.0119799
3.79858e-05
0.0143236
5.0112e-05
0.0158914
6.59834e-05
0.0165228
7.75966e-05
0.0161658
8.39831e-05
0.0148776
9.10422e-05
0.0128221
8.21714e-05
0.010227
6.63577e-05
0.00731445
4.20157e-05
0.00430258
1.41729e-05
0.00136817
0.00586708
3.30309e-06
1.94352e-06
-0.00165914
0.00166153
8.70026e-07
9.4392e-07
-0.00080839
0.000809262
9.00676e-08
-5.65264e-08
9.8547e-08
1.18557e-07
-8.52402e-05
8.52866e-05
-8.5152e-05
8.511e-05
1.3063e-05
0.00909935
2.63991e-05
0.0119916
4.43021e-05
0.0143294
6.28791e-05
0.0158945
7.74652e-05
0.0165229
9.24575e-05
0.0161573
0.000101354
0.0148673
0.000101298
0.012803
9.43393e-05
0.010199
7.34702e-05
0.007283
4.55444e-05
0.00427121
1.33395e-05
0.00135482
0.00587662
2.80037e-06
6.49287e-07
-0.00166251
0.00166491
8.5991e-07
9.40419e-07
-0.000810036
0.000810926
4.37239e-08
-8.9932e-08
1.00658e-07
6.24977e-08
-8.54398e-05
8.55235e-05
-8.55e-05
8.53815e-05
1.38671e-05
0.00911174
3.01879e-05
0.0120056
4.92878e-05
0.014343
7.01909e-05
0.0159018
8.76145e-05
0.0165278
0.00010239
0.0161563
0.000115309
0.0148533
0.000111992
0.0127853
0.00010521
0.0101673
8.42729e-05
0.00724427
4.987e-05
0.00423467
1.72282e-05
0.00133758
0.00588873
8.01748e-07
9.80736e-07
-0.00166476
0.00166704
4.93111e-07
7.9311e-07
-0.000811698
0.000812566
-1.25287e-07
8.66863e-08
9.63591e-08
5.86208e-08
-8.55933e-05
8.56314e-05
-8.5685e-05
8.56225e-05
1.65433e-05
0.00912551
3.49146e-05
0.01202
5.93609e-05
0.0143538
7.77808e-05
0.0159116
0.000100851
0.0165293
0.000118276
0.0161533
0.000128915
0.0148363
0.000132451
0.0127581
0.000118855
0.0101327
9.22702e-05
0.00720186
5.26401e-05
0.00419924
3.76288e-05
0.00129994
0.00590161
1.8697e-06
1.76951e-06
-0.00166817
0.00167104
-2.09184e-06
-1.66258e-07
-0.000813199
0.000813454
1.06765e-07
1.14191e-07
8.83154e-08
6.69679e-08
-8.58656e-05
8.57346e-05
-8.57827e-05
8.5724e-05
2.02069e-05
0.00914008
4.21664e-05
0.0120371
6.39061e-05
0.0143676
9.17665e-05
0.0159207
0.000116061
0.0165315
0.000136292
0.0161459
0.00014692
0.0148219
0.000143395
0.0127335
0.000133187
0.0100918
0.000100263
0.00715423
8.67495e-05
0.00415012
8.19744e-05
0.00591321
4.87401e-06
3.78373e-06
-0.00167688
0.00167413
-1.85225e-06
6.48722e-06
-4.06522e-06
-0.000813379
0.000811276
-5.94468e-09
6.00078e-09
5.27153e-08
-1.54943e-07
-8.60016e-05
8.61039e-05
-8.58887e-05
8.58217e-05
2.51557e-05
0.00915718
4.49958e-05
0.0120561
7.30825e-05
0.0143864
0.000100207
0.0159365
0.000128053
0.0165398
0.000149896
0.016143
0.000163379
0.0148019
0.000165135
0.0127016
0.00014439
0.0100476
0.000132075
0.0071089
0.000151809
0.00592805
5.16078e-06
5.10892e-06
-0.00167697
0.00167843
2.17044e-06
1.24743e-06
1.75475e-06
-8.17857e-07
-0.000504103
0.000509489
-7.23922e-06
-0.000478122
-1.94879e-05
0.000329352
8.07746e-09
-2.63135e-07
-8.60019e-05
8.59929e-05
-8.59988e-05
8.61537e-05
2.53573e-05
0.00917668
5.30166e-05
0.0120761
8.26722e-05
0.0144039
0.000119256
0.0159453
0.00015037
0.0165393
0.000172505
0.0161338
0.000184462
0.0147825
0.000182099
0.0126639
0.000175575
0.0100041
0.000200541
0.00594472
4.22435e-06
4.50632e-06
-0.00168062
0.00168372
1.34393e-06
7.11728e-07
1.7489e-06
1.17158e-06
-0.000514711
0.000515723
1.14854e-06
-0.000513922
4.5699e-07
-0.000511278
-8.97216e-07
-2.60856e-06
-0.000306697
0.000300887
-1.42498e-06
3.17074e-06
8.60035e-05
8.57425e-05
2.95257e-05
0.00920026
5.88591e-05
0.0121
9.518e-05
0.014428
0.000130893
0.0159648
0.00016337
0.0165484
0.0001919
0.0161264
0.00019988
0.0147647
0.000210101
0.0126293
0.000235527
0.00596331
4.9169e-06
5.99017e-06
-0.00168632
0.00168886
1.03224e-06
6.55279e-07
1.30748e-06
6.01333e-07
-0.000517837
0.000518393
7.80572e-07
-0.000517308
1.81876e-07
-0.000516303
7.3712e-07
5.8925e-07
-0.000299363
0.000300438
7.22374e-08
-0.000298934
2.03176e-08
-0.000299412
-4.23615e-07
-1.13442e-06
-8.89132e-05
8.74899e-05
3.30871e-05
0.0092259
6.8547e-05
0.0121265
0.000108741
0.0144501
0.000151047
0.0159771
0.000186223
0.0165541
0.000206384
0.0161199
0.000232811
0.014742
0.000256051
0.00598416
5.58819e-06
6.68755e-06
-0.00169288
0.00169581
1.20109e-06
7.96716e-07
1.16419e-06
8.00787e-07
-0.000519719
0.000520199
5.46399e-07
-0.000519471
4.07794e-07
-0.000518351
1.81712e-07
6.40946e-07
-0.000301273
0.000301894
1.60791e-07
-0.000301275
1.77431e-07
-0.000300779
2.35772e-07
2.4724e-07
-8.59502e-05
8.60196e-05
-8.59314e-05
-8.63555e-05
4.01237e-05
0.0092544
7.66912e-05
0.0121587
0.000123586
0.0144776
0.000167135
0.0159962
0.000199574
0.0165609
0.000237437
0.0161153
0.00026318
0.00601131
6.47236e-06
6.47247e-06
-0.00170026
0.00170367
1.27805e-06
9.17591e-07
1.30121e-06
9.3167e-07
-0.00052168
0.000522642
2.34079e-07
-0.000521375
4.94263e-07
-0.00052067
4.55714e-07
3.28996e-07
-0.000302906
0.000303335
1.21194e-07
-0.000302618
1.14689e-07
-0.000302382
-5.6811e-08
1.52075e-07
-8.66775e-05
8.68365e-05
-8.65016e-05
-8.62668e-05
4.38196e-05
0.00928714
9.11284e-05
0.012191
0.000141383
0.0145033
0.000183518
0.0160123
0.000226166
0.0165722
0.000253244
0.00603935
7.28566e-06
8.51262e-06
-0.00170746
0.00171163
1.44475e-06
8.61373e-07
1.63263e-06
1.04959e-06
-0.000524324
0.00052494
6.58143e-07
-0.000523519
1.14195e-07
-0.000522751
5.27969e-07
8.2184e-07
-0.000304396
0.000304484
1.49814e-07
-0.000303864
-4.19236e-08
-0.000303541
1.31282e-07
1.22533e-07
-8.70453e-05
8.71658e-05
-8.69314e-05
-8.69886e-05
5.29458e-05
0.0093254
0.000104206
0.0122283
0.000154296
0.0145326
0.000200654
0.0160379
0.000228768
0.00607329
8.76916e-06
1.01957e-05
-0.00171706
0.00172156
1.68835e-06
1.0989e-06
1.82458e-06
1.2621e-06
-0.00052691
0.000527607
7.44662e-07
-0.000526613
5.6706e-07
-0.000525153
1.71423e-07
8.36077e-07
-0.000305457
0.000306171
-5.17153e-08
-0.000305479
1.31912e-07
-0.000305111
1.57551e-07
1.95198e-07
-8.73773e-05
8.75264e-05
-8.74196e-05
-8.72883e-05
6.35887e-05
0.00936593
0.000122736
0.0122599
0.00016959
0.0145637
0.00018954
0.00611398
1.13127e-05
1.16042e-05
-0.00172814
0.00173359
1.93517e-06
1.38029e-06
2.09665e-06
1.5158e-06
-0.000529904
0.000530999
5.88315e-07
-0.000529495
6.90777e-07
-0.000528341
6.68005e-07
5.27113e-07
-0.000307243
0.000308006
-1.35428e-08
-0.000306889
2.09818e-07
-0.000306857
1.38984e-07
1.51419e-07
-8.80106e-05
8.79585e-05
-8.78791e-05
-8.77216e-05
8.07389e-05
0.00940798
0.000131478
0.012298
0.000145256
0.00616204
1.68106e-05
1.58388e-05
-0.00174097
0.00174838
1.65996e-06
2.23606e-06
1.8192e-06
2.40024e-06
-0.000533822
0.000534672
1.0791e-06
-0.000532847
4.04064e-07
-0.000531566
8.11921e-07
9.47675e-07
-0.000309347
0.000309735
2.03117e-07
-0.000308851
1.91491e-07
-0.000308365
1.80663e-07
1.68295e-07
-8.84591e-05
8.84455e-05
-8.82493e-05
-8.81099e-05
9.66371e-05
0.00944277
9.86409e-05
0.00620855
2.77121e-05
2.23596e-05
-0.00175846
0.00176802
3.90806e-06
3.33121e-06
2.84888e-06
2.90598e-06
-0.000538608
0.000539073
1.18702e-06
-0.000537317
9.41193e-07
-0.000536007
5.05072e-07
1.06363e-06
-0.000311397
0.000312258
2.18129e-07
-0.000311202
2.035e-07
-0.000310436
4.28568e-08
2.4631e-07
-8.89859e-05
8.9188e-05
-8.87947e-05
-8.86138e-05
6.47995e-05
2.30063e-05
4.94376e-05
-0.00178082
0.00179409
8.57322e-06
5.83701e-06
4.80629e-06
4.74086e-06
-0.000544703
0.000546431
2.17428e-06
-0.000542798
1.42161e-06
-0.00054073
7.76035e-07
1.24605e-06
-0.000314244
0.000315192
2.33425e-07
-0.000313359
5.21172e-08
-0.000313089
2.31735e-07
2.32284e-07
-8.96796e-05
8.98957e-05
-8.9477e-05
-8.94344e-05
-0.00181485
1.17659e-05
2.44486e-05
1.69593e-05
1.16988e-05
-0.000554327
0.000558597
4.29036e-06
-0.000551387
2.89142e-06
-0.000549174
2.58773e-06
1.99609e-06
-0.000317738
0.000319472
4.36345e-07
-0.000316666
3.44797e-07
-0.000316174
2.79656e-07
2.61403e-07
-9.04103e-05
9.06405e-05
-9.03591e-05
-9.0128e-05
-0.000574943
1.58817e-05
-0.000567763
1.72573e-05
-0.000562464
1.16519e-05
7.82925e-06
-0.000325071
0.000328225
1.12961e-06
-0.000322883
6.99422e-07
-0.00032098
6.80484e-07
4.87043e-07
-9.15231e-05
9.19573e-05
-9.118e-05
-9.09019e-05
-0.000346425
2.27086e-05
-0.000340179
1.10068e-05
-0.000333761
5.22885e-06
2.29122e-06
-9.38219e-05
9.49486e-05
-9.31238e-05
-9.24443e-05
-0.000113472
-0.000102467
-9.72398e-05
-1.38199e-05
1.38562e-05
6.99748e-06
-2.0746e-05
-5.9458e-05
5.33698e-05
2.00287e-05
1.89703e-05
-7.13214e-05
3.41627e-06
-2.4089e-05
1.64518e-05
3.69757e-05
-0.000119026
0.000112736
2.64268e-05
2.8725e-05
-0.000128661
1.13183e-05
-7.91061e-05
1.46299e-06
-2.5472e-05
2.29074e-05
0.000106352
6.92913e-06
3.01021e-05
-0.000414951
6.05933e-05
0.000404069
-1.72541e-05
6.14955e-05
-0.000429989
-0.000134554
6.3986e-06
-8.39147e-05
6.70684e-07
-2.60738e-05
1.46673e-05
9.86997e-05
2.38796e-06
2.77685e-05
-3.98701e-05
-0.00146657
0.001435
0.000133172
-6.67216e-06
0.000385687
-3.44423e-05
0.000125398
-0.00149473
-1.29289e-05
-0.000445445
-5.75699e-06
-0.000141047
3.28526e-06
-8.64285e-05
3.7219e-08
-2.60615e-05
9.44387e-05
1.02676e-06
2.67912e-05
-2.31601e-05
0.000100023
-0.00210328
0.00206526
0.000172062
-4.13864e-06
-1.72805e-06
0.000158099
-0.00213514
-1.97536e-05
7.63756e-05
-0.0015431
-6.86483e-06
-0.000459805
-4.03934e-06
-1.08421e-06
-0.000143498
1.17541e-06
-8.75021e-05
1.27292e-07
-2.61394e-05
9.13476e-05
4.82165e-07
2.63559e-05
0.00016432
-0.0025171
0.00246909
0.000220825
9.0122e-05
0.000200261
-0.00255851
0.000120961
-0.0021788
4.4862e-05
-3.45439e-06
-0.00158022
-3.41432e-06
-0.000464946
-1.46009e-06
-6.67483e-08
-0.000146335
-4.85124e-07
-0.000146851
-8.78363e-05
1.21103e-07
-2.62014e-05
1.88475e-07
0.00022745
-0.00268302
0.00262892
0.000275594
0.000249611
-0.0027316
0.000165708
-0.0026025
8.64224e-05
-0.00221991
-0.000468456
2.96021e-07
-6.8308e-08
3.47536e-05
-3.01341e-06
-0.00160656
-5.67276e-06
-0.000470274
-1.70435e-06
1.64325e-07
-0.000147735
-4.93444e-07
-0.000147589
-1.64491e-07
-8.81885e-05
7.38616e-08
-2.62369e-05
0.000289924
-0.00256034
0.00250713
0.000329496
0.000299803
-0.00260981
0.00021337
-0.00277846
0.000128793
-0.00264441
6.54395e-05
-0.00225056
-0.000147626