/*--------------------------------*- C++ -*----------------------------------*\
| =========                 |                                                 |
| \\      /  F ield         | OpenFOAM: The Open Source CFD Toolbox           |
|  \\    /   O peration     | Version:  v1912                                 |
|   \\  /    A nd           | Website:  www.openfoam.com                      |
|    \\/     M anipulation  |                                                 |
\*---------------------------------------------------------------------------*/
FoamFile
{
    version     2.0;
    format      ascii;
    class       volScalarField;
    location    "320";
    object      p;
}
// * * * * * * * * * * * * * * * * * * * * * * * * * * * * * * * * * * * * * //

dimensions      [0 2 -2 0 0 0 0];


internalField   nonuniform List<scalar> 
3673
(
0.154555
0.137667
0.0847208
0.139001
0.0935103
0.0580541
0.155217
0.11614
0.0729542
0.0719022
0.173775
0.139008
0.0943855
0.0786066
0.0854228
0.191603
0.159149
0.118225
0.0906651
0.0879076
0.0920335
0.208812
0.178284
0.142133
0.1092
0.0945252
0.0932282
0.0940157
0.225294
0.197034
0.165248
0.131901
0.107368
0.0971889
0.0948673
0.0927443
0.240758
0.215227
0.187367
0.155834
0.125898
0.105856
0.0973393
0.0936326
0.0891877
0.2549
0.232624
0.208627
0.179712
0.147675
0.119907
0.10297
0.0953075
0.0902193
0.0842645
0.267395
0.248963
0.229166
0.203373
0.171
0.138112
0.1128
0.0987878
0.0915233
0.0854377
0.0786627
0.277895
0.263905
0.248931
0.226942
0.195316
0.159001
0.12655
0.10498
0.0936471
0.0866124
0.0799438
0.0728034
0.286044
0.277049
0.26767
0.250473
0.220649
0.181877
0.143259
0.114047
0.0971812
0.0880257
0.0810979
0.074149
0.0669588
0.291514
0.287949
0.284968
0.273842
0.247185
0.20675
0.162291
0.125461
0.102344
0.0900262
0.0822028
0.075301
0.0683299
0.0613243
0.294036
0.296137
0.300256
0.296702
0.275068
0.234014
0.183618
0.138648
0.108825
0.0927795
0.0834661
0.0762517
0.0694769
0.062691
0.0560006
0.293445
0.301161
0.31281
0.318435
0.30427
0.264238
0.207722
0.153349
0.116069
0.0961312
0.0850162
0.0771276
0.0703376
0.0638237
0.0573427
0.051048
0.289726
0.302649
0.321791
0.338076
0.334473
0.298065
0.235465
0.169616
0.123508
0.0996832
0.0868169
0.0780099
0.0709832
0.0646419
0.0584631
0.0523486
0.0464702
0.283048
0.300397
0.32632
0.354226
0.364874
0.336117
0.26812
0.187729
0.130534
0.10293
0.088662
0.0789076
0.0714549
0.0651895
0.0592696
0.0534407
0.0477191
0.0422756
0.273764
0.294436
0.325673
0.36502
0.393837
0.378895
0.307464
0.208212
0.136356
0.105271
0.0902529
0.079723
0.0717709
0.0654746
0.0597952
0.0542377
0.048779
0.0434684
0.038446
0.262392
0.285088
0.319518
0.368365
0.418145
0.426708
0.355753
0.231791
0.139832
0.105956
0.0912331
0.0802743
0.0718841
0.0655155
0.0600359
0.0547697
0.0495652
0.044489
0.039578
0.0349592
0.249559
0.272953
0.308094
0.362668
0.432398
0.478164
0.416391
0.258968
0.139054
0.104107
0.0911574
0.0803282
0.0716853
0.0653022
0.0600031
0.0550189
0.0501056
0.0452562
0.0405532
0.0360302
0.0317967
0.235927
0.258841
0.292274
0.347603
0.431222
0.522677
0.497261
0.290713
0.130203
0.0986948
0.0895314
0.0795897
0.0710284
0.0647794
0.0596998
0.054991
0.0503796
0.0458019
0.0412987
0.0369623
0.032809
0.0289292
0.222122
0.243642
0.27346
0.32444
0.412299
0.537104
0.60316
0.333416
0.110436
0.0877335
0.085992
0.0777055
0.0697527
0.0638674
0.0591022
0.0546953
0.050392
0.0461053
0.0418466
0.0376843
0.0336957
0.0298826
0.0263369
0.208677
0.228181
0.253272
0.296028
0.376337
0.516342
0.625378
0.653737
0.487535
0.716914
0.572279
0.12073
0.273448
0.0933143
0.0715336
0.0722203
0.0798966
0.0744997
0.0677038
0.0624946
0.0581644
0.0541225
0.0501552
0.0461643
0.0421728
0.0382276
0.0343902
0.030726
0.027236
0.0239875
0.196011
0.213127
0.233155
0.265967
0.329225
0.4559
0.650967
0.61619
0.754576
0.670266
0.721535
0.594802
0.388858
0.367198
0.102523
0.105474
0.27949
0.061282
0.0550083
0.0711129
0.0703672
0.0595988
0.0702964
0.064893
0.060641
0.0568477
0.0532471
0.0496739
0.0459905
0.0422692
0.0385679
0.0349269
0.0313968
0.028035
0.0248342
0.0218671
0.184436
0.198974
0.214114
0.237082
0.280218
0.371402
0.572943
0.506322
0.765101
0.675974
0.699149
0.787891
0.759845
0.625755
0.530598
0.0676251
0.106295
0.042096
0.063518
0.0526669
0.0623778
0.0655107
0.0589695
0.0569762
0.0619183
0.0584153
0.0551642
0.0520536
0.0489538
0.045596
0.0421424
0.0386971
0.0352814
0.031926
0.028677
0.0255945
0.0226643
0.0199443
0.174165
0.186064
0.196726
0.210989
0.235981
0.290061
0.432595
0.335832
0.640863
0.557721
0.815478
0.822543
0.778112
0.728463
0.734856
0.0434708
0.0518722
0.0347596
0.0518719
0.0574083
0.0605375
0.0596478
0.0583539
0.0562344
0.051435
0.0524774
0.0563027
0.0532295
0.0505733
0.048023
0.0449985
0.0418039
0.0386159
0.0354408
0.0322906
0.0291958
0.026214
0.0233848
0.0206959
0.0182066
0.16534
0.174617
0.181274
0.188323
0.199355
0.218159
0.234641
0.463616
0.35826
0.715251
0.638725
0.446007
0.542757
0.808888
0.777108
0.0453677
0.0470001
0.0536151
0.0535778
0.0575381
0.0580028
0.0549304
0.055711
0.0566308
0.0539655
0.054081
0.0484367
0.0491826
0.0514381
0.048872
0.0469754
0.0442378
0.0412701
0.0383312
0.0354036
0.0324752
0.0295683
0.0267235
0.0239797
0.0213813
0.0189153
0.0166263
0.158043
0.164766
0.167877
0.16909
0.169927
0.166183
0.131682
0.0258038
-0.0427342
0.438107
0.288452
0.204985
0.244565
0.0514234
0.0517201
0.0554534
0.0555584
0.0563876
0.0546313
0.0503429
0.0521858
0.0547211
0.0553127
0.055608
0.0525733
0.0526576
0.0469961
0.045984
0.0434025
0.0405796
0.0378615
0.0351753
0.0324767
0.0297764
0.027102
0.0244804
0.0219539
0.0195648
0.0172951
0.015193
0.152316
0.156583
0.156561
0.153071
0.14636
0.130645
0.0775568
-0.206458
0.0624287
-0.235894
-0.295125
-0.409318
0.413935
0.125373
0.0216471
0.0543322
0.0546423
0.0555003
0.0550251
0.0535779
0.0507927
0.0451568
0.048137
0.0515662
0.0536533
0.0544043
0.054624
0.054887
0.0451753
0.042631
0.0398096
0.0372511
0.0347763
0.0322988
0.0298118
0.02733
0.0248659
0.0224451
0.0201138
0.0179136
0.0158251
0.0138872
0.148167
0.150098
0.1473
0.14001
0.127712
0.104779
0.0472766
-0.160146
-0.823377
-0.691813
-0.0040734
-0.481804
-0.663803
-0.588522
0.0548922
0.0545353
0.0532249
0.052368
0.0500991
0.045967
0.0444928
0.0425279
0.0481629
0.0505317
0.0515546
0.0532525
0.0539657
0.0420217
0.0390671
0.0365784
0.0342525
0.0319618
0.0296756
0.0273961
0.0251171
0.0228386
0.0205961
0.0184413
0.0164108
0.0144852
0.0127015
0.145588
0.145306
0.140036
0.129646
0.113252
0.0856818
0.0270542
-0.124957
-0.63981
-1.03214
-0.820851
-0.744893
-0.835986
0.0527966
0.0520527
0.0499523
0.0488708
0.0461179
0.0446445
0.041409
0.0432359
0.0402387
0.0471221
0.0482861
0.0502529
0.0512049
0.0384544
0.0359363
0.0336759
0.0315136
0.0293877
0.0272979
0.0252194
0.0231164
0.0209958
0.0189093
0.0169124
0.0150434
0.013268
0.0116198
0.144552
0.142189
0.134698
0.121735
0.102302
0.0718668
0.0142968
-0.104326
-0.470863
-0.760371
-0.915801
-0.923779
-0.823223
0.049561
0.0486108
0.0468112
0.0469301
0.0448301
0.0413105
0.0379609
0.0397658
0.0429331
0.0445743
0.0369298
0.0468629
0.0478183
0.0353915
0.0331234
0.031027
0.0289962
0.0270472
0.0251639
0.0232621
0.0212958
0.019305
0.0173629
0.015524
0.0137981
0.0121583
0.0106311
0.145022
0.140713
0.131215
0.116068
0.094304
0.0620949
0.00693629
-0.0917584
-0.346977
-0.63282
-0.639089
-0.797036
-0.875778
-0.905502
-0.86703
0.0458058
0.0475579
0.0449081
0.0442073
0.040851
0.0381932
0.0349423
0.036737
0.0393554
0.0419955
0.0427877
0.0334536
0.0326565
0.0305681
0.0285811
0.0266862
0.0249566
0.0232668
0.0214862
0.0196154
0.01775
0.0159559
0.0142568
0.012663
0.0111417
0.0097348
0.146953
0.14084
0.129522
0.112477
0.0888358
0.0554585
0.00298072
-0.0824594
-0.266425
-0.504831
-0.59312
-0.552634
-0.64229
-0.695825
-0.782174
-0.820026
-0.879668
0.0409454
0.0402078
0.0378834
0.0353216
0.0322325
0.0339408
0.0364397
0.0388166
0.0394685
0.0301672
0.0282177
0.0262881
0.0246216
0.0231333
0.0215636
0.019832
0.0180586
0.0163279
0.0146714
0.0130989
0.0116247
0.0102219
0.00891118
0.15029
0.142524
0.129559
0.110828
0.0855869
0.0513432
0.00125847
-0.0745463
-0.213705
-0.404017
-0.523319
-0.537327
-0.50891
-0.546909
-0.580697
-0.625303
-0.656251
-0.68325
-0.716173
-0.782738
-0.823132
0.0380444
0.037307
0.0350732
0.0326729
0.0298594
0.0300732
0.0337797
0.0359279
0.0365793
0.0279286
0.025945
0.0242013
0.0228773
0.0215385
0.0199519
0.0182765
0.016627
0.0150301
0.0134951
0.012045
0.0106821
0.0093746
0.00816161
0.154966
0.145715
0.131278
0.111028
0.0843375
0.0493234
0.00113206
-0.0673783
-0.177885
-0.329441
-0.449235
-0.500021
-0.500454
-0.469225
-0.497121
-0.518952
-0.538146
-0.555169
-0.568815
-0.590861
-0.623146
-0.653349
-0.681157
-0.710541
0.0352057
0.0345154
0.0329835
0.0300837
0.0276628
0.0289439
0.0267213
0.0289582
0.0332566
0.033838
0.0257304
0.0237546
0.0225179
0.0214394
0.0199863
0.0183998
0.0168402
0.0153194
0.013841
0.0124253
0.0110823
0.00981597
0.00860434
0.00747244
0.1609
0.150353
0.134637
0.113014
0.0849463
0.0491086
0.00222562
-0.0607521
-0.152472
-0.275129
-0.385275
-0.450489
-0.477698
-0.465055
-0.435574
-0.458467
-0.476573
-0.495279
-0.507967
-0.522736
-0.537217
-0.555285
-0.566917
-0.589201
0.0328039
0.0321896
0.0359063
0.0297818
0.0294976
0.0279441
0.0255982
0.0267446
0.0289874
0.0285218
0.0298798
0.0234347
0.0220242
0.0213112
0.0199632
0.0184338
0.0169605
0.0155285
0.0141221
0.0127546
0.0114456
0.010201
0.00902675
0.00789639
0.00684492
0.167992
0.156371
0.1396
0.116755
0.087336
0.0505243
0.0043233
-0.0545981
-0.133646
-0.235384
-0.333857
-0.402589
-0.44356
-0.452605
-0.433662
-0.408641
-0.42772
-0.441558
-0.457557
-0.474963
-0.489313
-0.512485
-0.500465
-0.52144
-0.535368
-0.551933
-0.560735
0.0326294
0.0295687
0.0292949
0.0280577
0.0274538
0.0258944
0.0234387
0.0246843
0.0269123
0.0263685
0.0288618
0.0284359
0.0296225
0.0212687
0.0212012
0.0199154
0.018395
0.0169915
0.0156505
0.0143252
0.0130211
0.0117617
0.0105515
0.00939792
0.00830393
0.00725099
0.00626454
0.176114
0.163684
0.146133
0.12225
0.0914899
0.0534854
0.00732324
-0.048853
-0.119229
-0.205839
-0.293287
-0.360964
-0.407064
-0.430459
-0.426671
-0.407618
-0.384005
-0.401139
-0.41406
-0.427109
-0.440142
-0.453423
-0.460946
-0.478111
-0.469067
-0.510885
-0.519846
0.0293965
0.0291792
0.0279227
0.027347
0.0259725
0.0253626
0.0239331
0.0203391
0.0227569
0.0248687
0.024279
0.026832
0.0263186
0.0287602
0.0283646
0.0210896
0.0198733
0.0183012
0.0169466
0.0156878
0.0144451
0.0132142
0.0120159
0.010855
0.009736
0.0086611
0.00764134
0.00665338
0.00573404
0.185108
0.172183
0.154197
0.129518
0.097446
0.0579915
0.0112038
-0.0434314
-0.107944
-0.183605
-0.261391
-0.326057
-0.373374
-0.403542
-0.412522
-0.403087
-0.383871
-0.363213
-0.377278
-0.388838
-0.400189
-0.412804
-0.422593
-0.429894
-0.442289
-0.436887
0.0278416
0.027295
0.0258263
0.0252571
0.0239646
0.023339
0.02128
0.0208802
0.0193673
0.0230883
0.0224617
0.0247847
0.0242443
0.0267499
0.026263
0.0198348
0.0181674
0.0168428
0.0156533
0.0144852
0.0133274
0.0121961
0.0110964
0.0100278
0.00898873
0.00798717
0.00703149
0.00610831
0.00524121
0.194772
0.181729
0.16374
0.1386
0.105299
0.0641199
0.0160067
-0.0382376
-0.0990072
-0.166806
-0.236427
-0.297226
-0.344074
-0.376845
-0.393394
-0.393653
-0.381273
-0.363314
-0.344465
-0.357411
-0.367179
-0.376329
-0.387899
-0.396277
-0.402536
-0.414974
-0.408501
-0.421761
-0.428819
-0.438826
-0.435821
0.0257417
0.0252091
0.0237837
0.0232368
0.0221164
0.0208969
0.0206989
0.0196695
0.0204324
0.0180988
0.0205018
0.0229401
0.0225766
0.0247077
0.0241954
0.0180078
0.0166936
0.0155649
0.014457
0.0133652
0.0122971
0.0112634
0.0102596
0.00927619
0.00830823
0.00736844
0.00647042
0.00560069
0.0047881
0.204856
0.192137
0.174683
0.149547
0.115193
0.072036
0.0218432
-0.0331709
-0.0919342
-0.154204
-0.2171
-0.273689
-0.319181
-0.352698
-0.373062
-0.38006
-0.375141
-0.361705
-0.345115
-0.327705
-0.336317
-0.347751
-0.356829
-0.366407
-0.37261
-0.378682
-0.389882
-0.384103
-0.395653
-0.401686
-0.413984
-0.407873
0.02369
0.0231742
0.0222172
0.0231856
0.020849
0.0206713
0.0195345
0.0178252
0.0188684
0.0202061
0.0199678
0.0156332
0.0226795
0.0227731
0.0224648
0.016515
0.0154327
0.0143772
0.0133408
0.0123248
0.0113504
0.0104171
0.00950552
0.00859093
0.00768082
0.00679264
0.00595058
0.00513412
0.00436833
0.215056
0.203167
0.186908
0.16241
0.127331
0.0819921
0.0289023
-0.028123
-0.0864536
-0.145011
-0.20245
-0.254799
-0.298302
-0.331634
-0.353847
-0.364787
-0.365593
-0.35763
-0.344031
-0.328238
-0.326
-0.312518
-0.340793
-0.34705
-0.353667
-0.358518
-0.368137
-0.36317
-0.371884
-0.378839
-0.388951
-0.383613
0.0217522
0.0230022
0.0211836
0.0205429
0.0195152
0.0191878
0.0179627
0.0163193
0.0172633
0.0188311
0.018556
0.0200979
0.0198185
0.0126717
0.0152607
0.0142556
0.0132685
0.0122957
0.0113638
0.0104909
0.0096597
0.00882173
0.00796018
0.00709563
0.00626265
0.00547109
0.00470228
0.00398079
0.225012
0.214511
0.20023
0.177219
0.141963
0.0943512
0.0374741
-0.0229591
-0.0824528
-0.138786
-0.191798
-0.240038
-0.281085
-0.313574
-0.336574
-0.349783
-0.354221
-0.350929
-0.341283
-0.327697
-0.313095
-0.311263
-0.321289
-0.329627
-0.299396
-0.338878
-0.348293
-0.342637
-0.353089
-0.357866
-0.368298
-0.362666
-0.369627
0.0194603
0.0191208
0.0180911
0.0176772
0.0164843
0.0150504
0.01583
0.0173049
0.0170043
0.0187963
0.0185259
0.014092
0.0131553
0.0122282
0.0113208
0.0104822
0.00972714
0.00898402
0.00819579
0.00737136
0.00655355
0.0057695
0.00502613
0.00430321
0.00362293
0.234312
0.225785
0.214372
0.193942
0.159381
0.109612
0.0479759
-0.0175008
-0.0799641
-0.135377
-0.184727
-0.229002
-0.26726
-0.298357
-0.321403
-0.335924
-0.342606
-0.342529
-0.336577
-0.325967
-0.312906
-0.299755
-0.298537
-0.307333
-0.313503
-0.319549
-0.322864
-0.326576
-0.330561
-0.286457
-0.335246
-0.339822
-0.345217
-0.348056
-0.352506
-0.357135
-0.36711
-0.361946
0.0180606
0.0176275
0.0165919
0.0162026
0.0151688
0.0138838
0.0145632
0.015861
0.0155881
0.0172618
0.0169714
0.0130005
0.0121305
0.0112453
0.0104101
0.00970458
0.00906396
0.00837525
0.00760828
0.0068155
0.00604546
0.00531153
0.00461748
0.00393487
0.0032946
0.242512
0.236514
0.228924
0.212441
0.179889
0.128431
0.0610254
-0.0115008
-0.079174
-0.134897
-0.181053
-0.22141
-0.256608
-0.285858
-0.308333
-0.323478
-0.331598
-0.333616
-0.3304
-0.322723
-0.311816
-0.299609
-0.286968
-0.285573
-0.294187
-0.300816
-0.305194
-0.30866
-0.312068
-0.314109
-0.274266
-0.344127
-0.347395
0.0165398
0.0161424
0.0152435
0.0148927
0.0139776
0.0127989
0.0134103
0.0145931
0.0143259
0.015808
0.0155449
0.0119911
0.0111566
0.010303
0.00959913
0.00905161
0.00848731
0.00779876
0.0070419
0.00629212
0.00557408
0.00489252
0.00423828
0.00359568
0.00299288
0.249164
0.246151
0.243307
0.232404
0.203744
0.151658
0.0775175
-0.00459194
-0.0805137
-0.137751
-0.180823
-0.217108
-0.248965
-0.275967
-0.297344
-0.31252
-0.321512
-0.324942
-0.323608
-0.318235
-0.309582
-0.298837
-0.287049
-0.274932
-0.2733
-0.281539
-0.287753
-0.292007
-0.295373
-0.2985
-0.301686
-0.304862
-0.308277
-0.311333
-0.311986
-0.263639
0.0151825
0.0148321
0.0140392
0.0137033
0.0128824
0.0117958
0.0123385
0.0134343
0.0131895
0.0145383
0.0142837
0.0110443
0.0101958
0.00943355
0.00894099
0.00852687
0.00793949
0.00722597
0.00649979
0.00580355
0.0051405
0.00450219
0.00388886
0.00328482
0.00271728
0.253865
0.2541
0.256732
0.253238
0.231061
0.180284
0.0988042
0.00380321
-0.0847786
-0.144722
-0.184296
-0.216071
-0.24423
-0.268599
-0.288409
-0.303089
-0.312457
-0.316834
-0.316826
-0.313108
-0.306338
-0.297248
-0.286621
-0.275216
-0.264119
-0.262924
-0.269875
-0.27521
-0.279566
-0.282724
-0.285542
-0.288586
-0.291759
-0.295082
-0.297995
-0.301001
-0.253269
0.013977
0.0136399
0.0129225
0.012624
0.0118683
0.0108644
0.0113437
0.0123602
0.012133
0.0133817
0.0131509
0.0101102
0.0092569
0.00872441
0.00849065
0.00803319
0.00736403
0.00666144
0.00599116
0.00535316
0.00473854
0.00414393
0.00356995
0.00299967
0.00246748
0.256304
0.259791
0.26821
0.273848
0.261697
0.215372
0.126869
0.0146185
-0.0933694
-0.157121
-0.191975
-0.218396
-0.242372
-0.263694
-0.2815
-0.295207
-0.304494
-0.309421
-0.310358
-0.307848
-0.302495
-0.294891
-0.285567
-0.275085
-0.264366
-0.253787
-0.252514
-0.259151
-0.264802
-0.26821
-0.270911
-0.272988
-0.276262
-0.279375
-0.282389
-0.285065
-0.287914
-0.243257
0.0128577
0.0125624
0.0118962
0.0116153
0.0109244
0.00997697
0.0104023
0.0113704
0.0111468
0.0123087
0.0120976
0.00917119
0.008386
0.00837426
0.00809157
0.00745954
0.00677319
0.00612848
0.00551989
0.00493635
0.00437068
0.00381709
0.0032771
0.00274052
0.00223679
0.262768
0.276671
0.292423
0.294702
0.258514
0.164232
0.0289425
-0.108784
-0.176968
-0.20463
-0.224293
-0.24343
-0.261222
-0.276584
-0.288881
-0.297665
-0.302769
-0.304336
-0.302728
-0.298443
-0.292016
-0.283897
-0.27446
-0.264344
-0.254111
-0.243882
-0.24245
-0.24915
-0.254188
-0.256235
-0.259883
-0.262795
-0.265521
-0.268007
-0.271207
-0.272326
-0.276296
-0.234195
0.0118293
0.0115546
0.0109389
0.0106739
0.0100304
0.00920174
0.00948202
0.0104365
0.0102113
0.0113236
0.011112
0.00797134
0.00814057
0.00813158
0.00751822
0.00683587
0.00621262
0.00563264
0.00508453
0.0045564
0.00403559
0.00351742
0.00300856
0.00250227
0.00202963
0.281176
0.306684
0.32699
0.311988
0.214737
0.0466517
-0.135829
-0.207147
-0.223344
-0.234094
-0.247509
-0.261187
-0.273631
-0.284102
-0.291997
-0.296931
-0.29883
-0.297873
-0.294416
-0.288909
-0.281777
-0.273336
-0.263988
-0.254221
-0.244324
-0.234759
-0.233489
-0.239254
-0.244247
-0.248599
-0.253387
-0.258174
-0.25987
-0.262389
-0.265056
-0.267536
-0.27056
-0.270921
-0.225655
0.0108757
0.0106133
0.0100302
0.0097685
0.00922522
0.00774034
0.00873083
0.00952867
0.00928046
0.0103938
0.010184
0.00766082
0.00818094
0.00754187
0.00685307
0.00624626
0.0056888
0.00517392
0.0046894
0.0042131
0.00372835
0.00324106
0.0027648
0.00228578
0.314472
0.353464
0.372094
0.289034
0.0693309
-0.182651
-0.252539
-0.249251
-0.248288
-0.254776
-0.263615
-0.272612
-0.280848
-0.287498
-0.291941
-0.293891
-0.293353
-0.290529
-0.28576
-0.279419
-0.271822
-0.26326
-0.25408
-0.244582
-0.235188
-0.226172
-0.22497
-0.230678
-0.23502
-0.238601
-0.243728
-0.246953
-0.249457
-0.25433
-0.2517
-0.257455
-0.259506
-0.26208
-0.264627
-0.217304
0.00996001
0.00971218
0.00915379
0.00889738
0.0084615
0.00692227
0.00739318
0.00875083
0.00845804
0.00949198
0.009263
0.00824023
0.00753021
0.00682375
0.0062385
0.00569214
0.00519851
0.00475915
0.0043373
0.0038993
0.00344844
0.00299246
0.00253944
0.368736
0.422921
0.400428
0.111921
-0.257097
-0.321817
-0.283102
-0.267487
-0.265447
-0.268538
-0.273494
-0.279084
-0.284157
-0.287814
-0.289556
-0.289213
-0.286845
-0.282667
-0.276978
-0.270072
-0.26221
-0.253656
-0.24464
-0.235499
-0.226586
-0.217846
-0.216629
-0.222145
-0.226416
-0.230228
-0.234627
-0.236908
-0.239915
-0.244357
-0.242048
-0.209313
0.00906953
0.00883784
0.0084124
0.00812035
0.00580639
0.00816622
0.00765923
0.00816064
0.00836088
0.00868592
0.00842617
0.00748016
0.0067431
0.00619974
0.00565604
0.00516031
0.00475861
0.00439754
0.00401892
0.00361571
0.00319319
0.00276257
0.00233347
0.455472
0.458148
0.513392
0.266592
0.366707
0.522134
-0.237388
0.0439963
-0.29572
-0.40923
-0.431963
-0.325467
-0.291806
-0.279755
-0.275937
-0.276221
-0.278758
-0.281945
-0.284549
-0.285845
-0.285491
-0.283405
-0.279683
-0.274535
-0.268208
-0.260944
-0.252969
-0.24447
-0.235683
-0.226928
-0.21831
-0.209898
-0.208633
-0.213972
-0.218043
-0.221651
-0.225846
-0.228745
-0.230922
-0.235467
-0.233081
-0.235787
-0.201964
0.00820369
0.00798195
0.00421479
0.00813244
0.00784667
0.00733671
0.007648
0.00781353
0.00758778
0.00774515
0.0086588
0.00661889
0.00613782
0.00559958
0.00507094
0.00468434
0.00438844
0.00407769
0.00373106
0.00335433
0.00295685
0.00255201
0.546805
0.565519
0.581893
0.466081
0.225314
0.189031
-0.237469
-0.216979
-0.0124968
-0.508645
-0.346249
-0.444531
-0.371258
-0.444708
-0.319141
-0.297493
-0.285614
-0.280686
-0.279798
-0.280816
-0.282124
-0.282761
-0.28221
-0.280244
-0.276846
-0.272135
-0.266302
-0.259551
-0.252088
-0.244083
-0.235706
-0.227193
-0.218719
-0.210409
-0.202501
-0.201344
-0.206076
-0.210037
-0.213557
-0.217512
-0.220261
-0.222355
-0.226455
-0.224364
-0.228439
-0.230571
-0.234997
-0.23264
-0.195035
0.00165405
0.0075409
0.00757646
0.00720152
0.00646204
0.00690732
0.00745635
0.00742201
0.00606122
0.00553515
0.00495725
0.00453509
0.0043091
0.00407133
0.00378795
0.00346579
0.00311451
0.00274658
0.635701
0.664089
0.624392
0.555376
0.293958
0.274519
0.524972
-0.00453709
-0.256154
-0.15142
-0.553838
-0.484805
-0.499311
-0.408494
-0.343543
-0.391701
-0.455828
-0.315855
-0.296964
-0.286592
-0.282099
-0.280703
-0.280501
-0.28029
-0.279377
-0.277386
-0.274185
-0.269811
-0.264391
-0.258088
-0.251077
-0.243518
-0.235554
-0.22735
-0.219076
-0.210879
-0.202993
-0.195489
-0.194245
-0.198891
-0.202525
-0.205623
-0.209604
-0.212203
-0.214219
-0.218115
-0.216094
-0.219994
-0.222038
-0.226115
-0.224095
-0.188223
0.00721258
0.00705842
0.00646586
0.00593608
0.00617939
0.00689613
0.00676184
0.00551627
0.00481562
0.00434034
0.00415488
0.00400401
0.00378394
0.00351996
0.00322271
0.00290347
0.662123
0.699409
0.73761
0.72356
0.625483
0.394585
0.215451
-0.519242
-0.522982
-0.518294
-0.422181
-0.371278
-0.327988
-0.357432
-0.395708
-0.463083
-0.481389
-0.307921
-0.29332
-0.285439
-0.281515
-0.27962
-0.278404
-0.276988
-0.274845
-0.271725
-0.267587
-0.262502
-0.256587
-0.249979
-0.242823
-0.235245
-0.227378
-0.219358
-0.211316
-0.203467
-0.195944
-0.188684
-0.187607
-0.190479
-0.195168
-0.198578
-0.202122
-0.204238
-0.206355
-0.210193
-0.208236
-0.211933
-0.213893
-0.217784
-0.215838
-0.181651
0.00651307
0.00631032
0.0058657
0.00559877
0.00563453
0.00615899
0.00604037
0.00463302
0.00417339
0.00392042
0.00388165
0.00372456
0.00351487
0.00327243
0.00300782
0.651941
0.704563
0.770762
0.752052
0.597972
-0.439237
-0.426327
-0.379786
-0.340626
-0.314502
-0.331126
-0.361158
-0.403057
-0.399364
-0.299644
-0.289342
-0.283106
-0.279411
-0.277057
-0.275026
-0.272624
-0.26948
-0.265485
-0.260657
-0.255069
-0.248822
-0.24203
-0.234811
-0.227276
-0.219537
-0.2117
-0.203938
-0.196413
-0.189162
-0.182155
-0.186587
-0.181055
-0.192502
-0.195026
-0.19739
-0.199156
-0.202657
-0.200906
-0.203885
-0.206429
-0.209843
-0.208023
-0.175486
0.00586554
0.00570501
0.00540896
0.00511733
0.00521528
0.00558687
0.00548579
0.00332546
0.00375783
0.00368146
0.00362426
0.00345626
0.00326147
0.00305283
-0.387765
-0.377424
-0.343673
-0.321273
-0.303845
-0.31475
-0.332943
-0.358206
-0.366687
-0.404371
-0.392672
-0.293062
-0.285193
-0.279786
-0.2762
-0.273467
-0.270725
-0.267463
-0.263519
-0.258874
-0.253553
-0.247621
-0.241162
-0.234274
-0.227056
-0.219604
-0.212006
-0.204388
-0.196901
-0.189649
-0.182647
-0.175988
-0.180326
-0.184554
-0.187881
-0.174891
-0.190159
-0.19243
-0.195511
-0.193819
-0.197115
-0.198893
-0.202748
-0.200689
-0.202886
-0.169691
0.00536701
0.00523592
0.00499827
-0.000214262
0.00466423
0.00766738
0.00514327
0.00506795
0.0037347
0.00212136
0.00344725
0.00347443
0.00336306
0.00319891
0.00303463
-0.387974
-0.377957
-0.348561
-0.34194
-0.32307
-0.308414
-0.295886
-0.303701
-0.316084
-0.331319
-0.336438
-0.358976
-0.367198
-0.287383
-0.280634
-0.275793
-0.272295
-0.269153
-0.265684
-0.261703
-0.257165
-0.252054
-0.246391
-0.240233
-0.233652
-0.226733
-0.219561
-0.212214
-0.204785
-0.197396
-0.19016
-0.183152
-0.176461
-0.170131
-0.174215
-0.17825
-0.181395
-0.18347
-0.185214
-0.18675
-0.188458
-0.191003
-0.16919
-0.192016
-0.195265
-0.193564
-0.196846
-0.198581
-0.202256
-0.200353
-0.163953
0.00496316
0.00483333
0.00522992
0.00459025
0.00427409
0.00274157
0.00312272
0.00332112
0.00317864
0.00326382
0.00324701
0.00310057
0.00295804
-0.349014
-0.342524
-0.326063
-0.321976
-0.30969
-0.299333
-0.289365
-0.295595
-0.304784
-0.315173
-0.318529
-0.33183
-0.336772
-0.281869
-0.275807
-0.271514
-0.267935
-0.264167
-0.260052
-0.255545
-0.250583
-0.245145
-0.239252
-0.232956
-0.22632
-0.219418
-0.212321
-0.205104
-0.197863
-0.190691
-0.183688
-0.17695
-0.170562
-0.164399
-0.168587
-0.172363
-0.175044
-0.177488
-0.178797
-0.180214
-0.181732
-0.190444
-0.163439
-0.191751
-0.194982
-0.193349
-0.158355
0.00676694
0.000165367
0.00416423
0.00404684
0.00173219
0.00283302
0.00306906
0.00308026
0.00300212
0.00293378
0.00309182
0.00298747
0.0028374
-0.326379
-0.322405
-0.311812
-0.309052
-0.300294
-0.292242
-0.283428
-0.288945
-0.296515
-0.304275
-0.306664
-0.315601
-0.318823
-0.276294
-0.271137
-0.26715
-0.262962
-0.258595
-0.254032
-0.249155
-0.243893
-0.238231
-0.232194
-0.225825
-0.219183
-0.21233
-0.205333
-0.198266
-0.191209
-0.184251
-0.177487
-0.171026
-0.164832
-0.158813
-0.162803
-0.166567
-0.169496
-0.171377
-0.17287
-0.174353
-0.175314
-0.157855
-0.152974
0.00275689
0.00427974
0.0024674
0.00255476
0.00288553
0.00295713
0.00291794
0.00286369
0.00285768
0.00269416
0.00268593
0.00286586
0.00270716
-0.31211
-0.309432
-0.301942
-0.299902
-0.293017
-0.286113
-0.277424
-0.28296
-0.289785
-0.296217
-0.298098
-0.304664
-0.306952
-0.271145
-0.266922
-0.26216
-0.25739
-0.25266
-0.24779
-0.242649
-0.237179
-0.231374
-0.225255
-0.218862
-0.212246
-0.205468
-0.198592
-0.191682
-0.184812
-0.178064
-0.171548
-0.165296
-0.159263
-0.153447
-0.157282
-0.160874
-0.16369
-0.165556
-0.167037
-0.168447
-0.169859
-0.171183
-0.172661
-0.173983
-0.174361
-0.152437
-0.147911
0.0024253
0.00250771
0.00245056
0.00273585
0.00274046
0.00282627
0.00281405
0.00271992
0.00268279
0.0027552
0.00275294
0.0027554
0.00258292
0.00253603
0.00259083
-0.302236
-0.300264
-0.294424
-0.29274
-0.286775
-0.280236
-0.271632
-0.276802
-0.283805
-0.289576
-0.291231
-0.296594
-0.298389
-0.267345
-0.261881
-0.256532
-0.2515
-0.24653
-0.241435
-0.23611
-0.230507
-0.224617
-0.21846
-0.212076
-0.205513
-0.198829
-0.192084
-0.185337
-0.178654
-0.172126
-0.16582
-0.159741
-0.153903
-0.14835
-0.151836
-0.155419
-0.15814
-0.159908
-0.161346
-0.16268
-0.164054
-0.165395
-0.166869
-0.168194
-0.169551
-0.147431
-0.142993
0.00225724
0.00229921
0.00264068
0.00266713
0.00274438
0.00271948
0.00269025
0.00263094
0.00248453
0.00246919
0.00258261
0.00265468
0.00269682
0.00268832
0.00268588
0.00248562
0.00240968
-0.294718
-0.293099
-0.288061
-0.286505
-0.281051
-0.27334
-0.268277
-0.272279
-0.277885
-0.283555
-0.285176
-0.289951
-0.29152
-0.262195
-0.256143
-0.250669
-0.245451
-0.240297
-0.235047
-0.229604
-0.22392
-0.217985
-0.211822
-0.205471
-0.19898
-0.192406
-0.185801
-0.179219
-0.17273
-0.166401
-0.160274
-0.154385
-0.148782
-0.143414
-0.146905
-0.150041
-0.152688
-0.154473
-0.155868
-0.157133
-0.158475
-0.159747
-0.161175
-0.16244
-0.163756
-0.142528
-0.138166
0.00256053
0.0026045
0.00268303
0.00266345
0.00262834
0.00258084
0.00250562
0.00242908
0.00238164
0.00248047
0.00254053
0.00260047
0.00263832
0.00263192
0.00263356
-0.288342
-0.286862
-0.282264
-0.280722
-0.273125
-0.27039
-0.26294
-0.267692
-0.27335
-0.277979
-0.27966
-0.283914
-0.285432
-0.256317
-0.250314
-0.24467
-0.239319
-0.234036
-0.228691
-0.223176
-0.217445
-0.211493
-0.205346
-0.199046
-0.192644
-0.18619
-0.179732
-0.17332
-0.167015
-0.160864
-0.154922
-0.149247
-0.14383
-0.138589
-0.14198
-0.145167
-0.147685
-0.149274
-0.150359
-0.151731
-0.153047
-0.154293
-0.155676
-0.156894
-0.158178
-0.137705
-0.133491
0.002632
0.00262039
0.00257065
0.00252985
0.00245016
0.00238742
0.00229588
0.00227362
0.00234593
0.00243246
0.0024831
0.00255367
0.00259157
-0.282453
-0.28105
-0.275963
-0.271284
-0.271107
-0.264803
-0.257023
-0.26214
-0.268158
-0.273601
-0.27498
-0.279004
-0.279937
-0.250529
-0.24435
-0.238613
-0.233166
-0.227813
-0.222411
-0.216853
-0.211098
-0.205146
-0.19903
-0.192799
-0.186499
-0.180175
-0.173869
-0.167626
-0.161491
-0.155518
-0.149772
-0.144282
-0.139011
-0.133915
-0.137167
-0.140198
-0.14272
-0.144277
-0.145544
-0.146784
-0.148032
-0.149298
-0.150192
-0.151711
-0.15277
-0.133038
-0.129002
0.00252241
0.00248915
0.00238755
0.00234378
0.00224468
0.0021601
0.00222736
0.00228405
0.00238991
0.00243821
-0.278985
-0.268808
-0.271989
-0.270765
-0.265316
-0.259188
-0.251238
-0.256437
-0.262642
-0.267927
-0.269159
-0.274172
-0.278332
-0.244635
-0.238309
-0.232557
-0.227061
-0.221672
-0.216234
-0.210651
-0.204882
-0.198942
-0.192874
-0.186727
-0.180541
-0.174353
-0.1682
-0.162119
-0.156152
-0.150362
-0.144798
-0.139466
-0.134339
-0.129427
-0.132537
-0.135521
-0.137867
-0.138825
-0.140468
-0.141771
-0.143014
-0.144117
-0.145382
-0.146565
-0.147833
-0.148969
-0.149503
-0.128534
-0.124724
0.00233127
0.00230977
0.00218393
0.00211695
0.0021879
0.00223801
-0.265313
-0.272386
-0.270973
-0.266395
-0.265141
-0.259787
-0.253504
-0.244676
-0.250644
-0.257017
-0.262439
-0.263761
-0.268217
-0.269499
-0.273906
-0.277927
-0.238634
-0.23231
-0.226565
-0.221044
-0.215633
-0.210177
-0.20457
-0.198791
-0.192876
-0.186876
-0.180828
-0.174765
-0.168717
-0.162715
-0.156793
-0.150997
-0.14538
-0.139979
-0.134795
-0.129845
-0.125122
-0.128017
-0.130957
-0.133248
-0.135183
-0.137406
-0.139526
-0.140435
-0.141585
-0.142794
-0.143925
-0.14517
-0.146374
-0.147552
-0.124295
-0.120544
0.00213354
0.00208426
-0.272575
-0.271199
-0.26676
-0.265464
-0.26093
-0.259573
-0.25415
-0.247328
-0.2394
-0.240045
-0.25146
-0.256777
-0.258177
-0.262763
-0.264098
-0.268511
-0.269778
-0.232531
-0.226436
-0.220649
-0.215125
-0.20972
-0.20424
-0.198596
-0.192816
-0.186952
-0.181037
-0.1751
-0.169164
-0.163257
-0.157405
-0.151642
-0.146011
-0.140558
-0.135308
-0.130293
-0.125519
-0.120931
-0.123823
-0.126525
-0.128662
-0.130675
-0.132897
-0.134386
-0.135553
-0.137851
-0.136625
-0.139243
-0.14025
-0.141416
-0.14259
-0.120118
-0.116446
-0.267061
-0.265764
-0.261272
-0.259897
-0.255272
-0.253871
-0.248214
-0.239947
-0.233101
-0.250202
-0.2511
-0.252507
-0.257088
-0.258485
-0.263072
-0.26438
-0.226751
-0.220607
-0.214813
-0.209349
-0.203941
-0.198388
-0.192711
-0.186965
-0.181175
-0.175359
-0.169538
-0.163733
-0.157967
-0.152264
-0.146658
-0.141186
-0.135885
-0.130799
-0.125949
-0.121318
-0.116832
-0.11962
-0.122327
-0.124465
-0.126281
-0.128317
-0.129841
-0.130979
-0.133175
-0.132041
-0.116026
-0.112471
-0.261557
-0.260191
-0.25558
-0.25417
-0.248987
-0.24463
-0.242637
-0.233673
-0.238957
-0.22744
-0.247271
-0.251477