/*--------------------------------*- C++ -*----------------------------------*\
| =========                 |                                                 |
| \\      /  F ield         | OpenFOAM: The Open Source CFD Toolbox           |
|  \\    /   O peration     | Version:  v1912                                 |
|   \\  /    A nd           | Website:  www.openfoam.com                      |
|    \\/     M anipulation  |                                                 |
\*---------------------------------------------------------------------------*/
FoamFile
{
    version     2.0;
    format      ascii;
    class       volVectorField;
    location    "320";
    object      U;
}
// * * * * * * * * * * * * * * * * * * * * * * * * * * * * * * * * * * * * * //

dimensions      [0 1 -1 0 0 0 0];


internalField   nonuniform List<vector> 
3673
(
(0.648241 -0.0255936 -1.62926e-21)
(0.974709 -0.0153248 -5.25748e-20)
(0.298368 -0.0525567 -3.76481e-24)
(1.01655 -0.0104493 2.45248e-20)
(0.766104 -0.0575518 -2.30412e-24)
(0.175526 -0.0543682 1.96354e-20)
(1.00675 -0.0139072 -1.91476e-37)
(0.961653 -0.0541508 1.53483e-24)
(0.569109 -0.0967346 -1.7958e-20)
(0.124854 -0.046267 2.41659e-20)
(0.999511 -0.0164963 -2.64205e-41)
(1.0091 -0.0523569 0)
(0.844106 -0.104045 -2.36163e-20)
(0.436647 -0.110636 -2.39034e-20)
(0.108391 -0.0400642 2.82341e-20)
(0.997594 -0.0170823 -4.08598e-24)
(1.00895 -0.0521728 -6.99193e-24)
(0.969588 -0.100721 4.8015e-20)
(0.720835 -0.138439 2.51805e-20)
(0.36554 -0.111061 0)
(0.105094 -0.0375292 -3.10406e-20)
(0.997513 -0.016708 -3.75116e-51)
(1.00225 -0.0522778 1.80085e-20)
(1.00437 -0.0968898 -2.57711e-20)
(0.898939 -0.145082 -2.21263e-20)
(0.626568 -0.156787 2.81869e-20)
(0.333325 -0.10947 3.37522e-20)
(0.105811 -0.0368665 0)
(0.997711 -0.015862 0)
(0.998137 -0.0516483 1.78786e-21)
(1.00475 -0.0943415 0)
(0.976766 -0.143716 7.01576e-24)
(0.825261 -0.17819 3.78293e-21)
(0.567876 -0.165887 0)
(0.320809 -0.108703 0)
(0.10789 -0.0369343 0)
(0.997864 -0.0146817 2.28326e-20)
(0.996133 -0.0499319 -2.00896e-20)
(0.998375 -0.0921061 0)
(0.997127 -0.140535 1.73597e-20)
(0.936635 -0.184936 -2.60649e-20)
(0.766901 -0.200571 0)
(0.536219 -0.170365 -7.35122e-24)
(0.317575 -0.108638 0)
(0.110095 -0.0372015 0)
(0.997975 -0.0131934 -2.29541e-20)
(0.994845 -0.0471682 0)
(0.992962 -0.0892521 2.02596e-23)
(0.995489 -0.137291 -1.74033e-20)
(0.980945 -0.185159 0)
(0.8976 -0.217584 1.34653e-23)
(0.728008 -0.214573 6.69838e-24)
(0.521258 -0.172344 -3.08022e-20)
(0.31823 -0.108731 3.39292e-20)
(0.11177 -0.037444 -6.81086e-24)
(0.998086 -0.0113813 0)
(0.993619 -0.0434006 0)
(0.988772 -0.0853091 -2.25759e-23)
(0.988796 -0.133867 -4.14423e-23)
(0.990016 -0.183403 -3.60185e-23)
(0.9625 -0.224204 0)
(0.86734 -0.241093 -1.41005e-23)
(0.705157 -0.222234 2.71538e-20)
(0.51531 -0.172804 5.44509e-22)
(0.319895 -0.108715 -3.21378e-20)
(0.112773 -0.0375885 1.32169e-23)
(0.998217 -0.00923094 -2.53497e-23)
(0.992306 -0.038589 0)
(0.984863 -0.079983 0)
(0.981768 -0.129662 2.3511e-23)
(0.985749 -0.18124 2.12561e-23)
(0.984641 -0.226441 1.81932e-23)
(0.947276 -0.255055 0)
(0.847289 -0.255897 0)
(0.692921 -0.22538 7.93963e-22)
(0.513424 -0.172405 -4.11293e-22)
(0.32128 -0.108544 0)
(0.113181 -0.0376103 -6.40555e-24)
(0.99838 -0.00675033 0)
(0.990943 -0.0326681 -2.79257e-20)
(0.980715 -0.0729915 0)
(0.974534 -0.124042 0)
(0.977507 -0.178646 0)
(0.98613 -0.227588 -2.21201e-20)
(0.982247 -0.262621 0)
(0.937445 -0.276282 1.28473e-23)
(0.83518 -0.263468 1.11741e-21)
(0.686594 -0.225857 2.44996e-20)
(0.512946 -0.171613 -2.59623e-20)
(0.321959 -0.10818 0)
(0.113064 -0.0375077 0)
(0.998583 -0.00397928 2.76607e-20)
(0.989627 -0.0256068 2.80051e-20)
(0.976245 -0.0640486 1.96767e-24)
(0.966466 -0.116366 0)
(0.967432 -0.174986 2.91526e-20)
(0.979314 -0.228707 2.23834e-20)
(0.991851 -0.268306 3.9431e-23)
(0.983777 -0.288853 -1.35937e-23)
(0.931915 -0.28835 -3.70418e-20)
(0.827907 -0.266292 0)
(0.683181 -0.22508 4.61493e-20)
(0.512647 -0.170584 0)
(0.321806 -0.107608 0)
(0.112528 -0.0373029 1.00487e-23)
(0.998831 -0.000998024 -5.56401e-20)
(0.988497 -0.0174573 -2.8528e-23)
(0.971628 -0.0529104 3.15224e-20)
(0.957258 -0.105962 3.30691e-20)
(0.955189 -0.169383 -2.94893e-20)
(0.968335 -0.229648 0)
(0.989619 -0.274437 0)
(1.00272 -0.298646 1.7107e-20)
(0.987411 -0.304424 1.23724e-20)
(0.928541 -0.293974 1.13845e-20)
(0.823355 -0.266639 -2.11806e-20)
(0.681068 -0.223708 5.02167e-24)
(0.511961 -0.169359 -2.22572e-20)
(0.320849 -0.106856 -2.37768e-20)
(0.111668 -0.0370203 -8.8581e-25)
(0.999128 0.00207101 2.79993e-20)
(0.987724 -0.00839389 3.00683e-20)
(0.967228 -0.0394429 -3.14197e-20)
(0.947029 -0.0921157 -6.85136e-20)
(0.940148 -0.160752 -6.69976e-23)
(0.953332 -0.2297 5.83132e-23)
(0.981305 -0.281837 0)
(1.00796 -0.308938 -1.67866e-20)
(1.01519 -0.316544 1.36575e-20)
(0.990613 -0.312266 -1.09282e-20)
(0.926238 -0.296062 0)
(0.820391 -0.265724 -1.98134e-20)
(0.679342 -0.222001 1.96122e-20)
(0.510615 -0.167991 2.01635e-20)
(0.3192 -0.105985 1.00945e-23)
(0.110598 -0.0366817 -9.28722e-24)
(0.999466 0.00506842 5.50271e-23)
(0.987498 0.00125578 -2.99086e-20)
(0.963578 -0.0237256 1.34783e-22)
(0.936316 -0.0741431 -2.07411e-21)
(0.922013 -0.147736 0)
(0.933176 -0.227759 -3.87288e-20)
(0.967708 -0.290641 -5.71945e-23)
(1.0066 -0.32147 3.31142e-23)
(1.02844 -0.328249 -1.34161e-20)
(1.02515 -0.325522 0)
(0.992837 -0.315893 0)
(0.924756 -0.29621 9.1525e-21)
(0.818195 -0.264096 -1.81885e-20)
(0.677439 -0.220138 1.31229e-23)
(0.508581 -0.166558 0)
(0.317019 -0.105021 -1.01252e-23)
(0.109381 -0.0363041 0)
(0.999832 0.00781486 0)
(0.987974 0.0110081 -5.70948e-23)
(0.961357 -0.00617313 -3.31854e-20)
(0.926157 -0.0515354 7.55579e-20)
(0.900984 -0.128592 -9.23996e-24)
(0.906513 -0.222229 3.96677e-20)
(0.947398 -0.300751 0)
(1.00076 -0.337321 0)
(1.03528 -0.341518 -3.21974e-23)
(1.04438 -0.337201 0)
(1.0322 -0.329946 -9.16956e-24)
(0.994693 -0.317127 8.95069e-21)
(0.923729 -0.295193 1.69888e-20)
(0.816154 -0.262141 8.48339e-24)
(0.675131 -0.218253 -8.49991e-24)
(0.505937 -0.165084 0)
(0.314441 -0.103995 -8.44398e-24)
(0.108069 -0.035901 -1.54279e-20)
(1.0002 0.0101379 0)
(0.989218 0.0202621 -1.18512e-22)
(0.961255 0.0123628 3.30311e-20)
(0.918214 -0.0242922 -7.65353e-20)
(0.878 -0.101122 -4.71492e-20)
(0.872104 -0.210696 1.86196e-22)
(0.917894 -0.312009 0)
(0.990062 -0.357587 -2.38064e-20)
(1.03916 -0.357387 2.54564e-23)
(1.05667 -0.349283 0)
(1.05544 -0.341501 0)
(1.03778 -0.331785 9.07124e-25)
(0.996295 -0.316837 8.36829e-24)
(0.922714 -0.29358 -7.79424e-21)
(0.813956 -0.260113 -7.1343e-24)
(0.672366 -0.216398 0)
(0.502786 -0.163591 -7.29428e-24)
(0.311585 -0.102931 1.63209e-20)
(0.106714 -0.0354833 6.49044e-24)
(1.00054 0.0119019 2.47333e-20)
(0.991165 0.0283815 -2.75182e-20)
(0.963763 0.0306324 1.19173e-22)
(0.914647 0.00661678 7.58378e-20)
(0.855454 -0.0631753 4.56998e-20)
(0.829278 -0.188733 0)
(0.87544 -0.324305 0)
(0.972908 -0.38364 2.31905e-20)
(1.04089 -0.376304 2.50593e-23)
(1.06586 -0.362583 -4.68654e-24)
(1.07066 -0.35247 0)
(1.06402 -0.343219 0)
(1.04236 -0.331901 7.75476e-25)
(0.997413 -0.315721 1.67169e-23)
(0.921496 -0.291761 0)
(0.811488 -0.258123 1.40015e-20)
(0.669171 -0.21459 -6.51218e-24)
(0.499253 -0.16209 1.39723e-23)
(0.308547 -0.101841 -7.04802e-24)
(0.105333 -0.035058 -1.24694e-23)
(1.00083 0.0130338 -4.84213e-20)
(0.993618 0.0348152 1.29254e-21)
(0.968922 0.0471671 2.93711e-20)
(0.917248 0.0389504 -3.71219e-20)
(0.838738 -0.0146056 -8.3172e-22)
(0.779295 -0.147403 -6.54299e-20)
(0.812521 -0.335676 5.21924e-20)
(0.944382 -0.416515 -7.80483e-23)
(1.03832 -0.397348 -4.7807e-23)
(1.07188 -0.376553 -1.05739e-20)
(1.08136 -0.363297 -2.02552e-23)
(1.08104 -0.353159 0)
(1.07092 -0.343139 -7.68328e-21)
(1.04587 -0.331061 7.18465e-21)
(0.998006 -0.314258 -6.92811e-24)
(0.920013 -0.289915 -1.30237e-20)
(0.808707 -0.256206 5.9672e-24)
(0.665597 -0.212823 6.51679e-24)
(0.495424 -0.160584 -6.67762e-24)
(0.305387 -0.100744 7.07095e-24)
(0.103948 -0.0346317 -1.18415e-20)
(1.00104 0.0135321 2.36989e-20)
(0.996283 0.0392116 2.62532e-20)
(0.976218 0.0605852 -2.91905e-20)
(0.926723 0.0694183 1.26677e-22)
(0.835793 0.0408931 4.51074e-20)
(0.730148 -0.0760559 6.6848e-20)
(0.713179 -0.330478 -5.45495e-20)
(0.886567 -0.45064 -3.15057e-20)
(1.01886 -0.415097 7.75911e-23)
(1.0673 -0.387017 1.05295e-20)
(1.08504 -0.372089 -1.96575e-23)
(1.0913 -0.361457 0)
(1.08877 -0.352006 7.54009e-21)
(1.07607 -0.342052 6.57796e-25)
(1.0484 -0.329782 6.47946e-21)
(0.998122 -0.312679 0)
(0.918218 -0.288116 0)
(0.805607 -0.254366 1.1694e-20)
(0.661696 -0.211094 0)
(0.491382 -0.159087 0)
(0.302172 -0.0996501 1.24197e-20)
(0.102577 -0.0342082 5.46807e-24)
(1.00117 0.0134585 0)
(0.998853 0.0414907 -2.32099e-20)
(0.984646 0.0699217 -5.0161e-23)
(0.942375 0.0945667 -2.99057e-20)
(0.849623 0.0966102 -8.36561e-20)
(0.701373 0.0237647 -6.28349e-20)
(0.561201 -0.266842 -4.19834e-20)
(0.752026 -0.455162 3.82644e-20)
(0.940138 -0.407018 0)
(1.02442 -0.381403 3.44097e-23)
(1.06741 -0.371254 8.64122e-21)
(1.08923 -0.364728 0)
(1.09694 -0.357686 7.17926e-21)
(1.0938 -0.349802 -6.27106e-24)
(1.07969 -0.340461 -6.33049e-21)
(1.05011 -0.328307 0)
(0.997774 -0.311097 5.6525e-21)
(0.916101 -0.286388 -5.4136e-21)
(0.802205 -0.252593 5.44888e-24)
(0.657541 -0.2094 -1.07005e-20)
(0.487207 -0.157603 -5.07872e-24)
(0.298933 -0.0985675 -5.24633e-25)
(0.10124 -0.0337944 -4.55822e-24)
(1.00122 0.0129115 0)
(1.00109 0.0418222 2.3414e-20)
(0.993025 0.074871 -9.33325e-23)
(0.961844 0.111778 2.92711e-20)
(0.880056 0.144284 7.18749e-20)
(0.708455 0.131219 5.75601e-20)
(0.53081 -0.0897355 3.7115e-20)
(0.497488 -0.00579714 9.37358e-22)
(0.538686 -0.466455 0)
(0.356132 -0.209442 7.39138e-20)
(0.384323 -0.384246 -3.67197e-22)
(0.808976 -0.385503 0)
(0.503995 -0.312843 -1.23697e-20)
(0.636853 -0.29524 0)
(0.876598 -0.328598 0)
(0.736562 -0.289732 0)
(0.99063 -0.343236 -9.09199e-21)
(1.05492 -0.353298 7.66638e-21)
(1.08677 -0.355546 -7.18976e-21)
(1.09842 -0.352842 3.04014e-24)
(1.09652 -0.347003 6.03782e-21)
(1.08204 -0.33859 1.66364e-23)
(1.05108 -0.326776 -5.44171e-21)
(0.996978 -0.309545 -5.17409e-21)
(0.913668 -0.28472 -4.98122e-21)
(0.798531 -0.250871 9.66027e-21)
(0.653189 -0.207738 0)
(0.482953 -0.156145 4.47171e-25)
(0.295723 -0.0975062 -5.39497e-24)
(0.0999348 -0.0333906 -9.10328e-21)
(1.00122 0.0120008 -3.84281e-23)
(1.00287 0.0405283 0)
(1.00046 0.0757901 0)
(0.981801 0.120347 -1.98626e-22)
(0.920505 0.176187 -3.28669e-20)
(0.76144 0.227048 -4.00129e-22)
(0.490105 0.100513 0)
(0.515164 0.200244 -2.46353e-20)
(0.27905 -0.0790356 -3.72604e-20)
(0.289247 -0.322375 3.21421e-22)
(0.202422 -0.254409 -1.15209e-20)
(0.198276 -0.236507 8.64802e-21)
(0.168745 -0.155358 4.12366e-21)
(0.302218 -0.250902 -2.00292e-22)
(0.460223 -0.215423 3.63604e-23)
(0.256895 -0.107293 0)
(0.165533 -0.114403 -5.69116e-22)
(0.508883 -0.18814 -6.18544e-22)
(0.359706 -0.14628 -9.99504e-22)
(0.654642 -0.232841 0)
(0.792288 -0.262136 0)
(0.587708 -0.194034 -1.23511e-23)
(0.948721 -0.309936 -8.22167e-21)
(1.03521 -0.335394 0)
(1.07879 -0.345724 0)
(1.09661 -0.347356 -1.53996e-22)
(1.09734 -0.343823 0)
(1.08325 -0.33662 -1.07322e-23)
(1.05137 -0.325227 -1.0153e-23)
(0.995749 -0.308013 9.44649e-21)
(0.910921 -0.283097 4.5508e-21)
(0.794622 -0.249196 0)
(0.648702 -0.206115 0)
(0.478669 -0.154711 4.65134e-24)
(0.292551 -0.0964717 9.46926e-21)
(0.0986743 -0.0329989 8.35445e-21)
(1.00118 0.0108273 -3.63162e-23)
(1.0042 0.0379771 3.88384e-23)
(1.00651 0.0734553 0)
(0.999373 0.121309 0)
(0.961281 0.189892 1.89935e-22)
(0.848789 0.285173 7.10639e-22)
(0.558315 0.295123 2.3523e-20)
(0.621849 0.370043 -7.31591e-23)
(0.237157 0.0610001 0)
(0.344633 0.253404 8.28519e-23)
(0.318218 0.185392 0)
(0.065088 -0.095606 6.71072e-22)
(0.107215 -0.167878 7.84172e-21)
(0.11646 -0.158259 -3.80081e-21)
(0.0778835 -0.0981806 0)
(0.148082 -0.058808 8.03616e-22)
(0.0849649 -0.0375258 -2.52487e-21)
(0.243988 -0.0761587 6.62003e-22)
(0.421174 -0.131034 0)
(0.288373 -0.099424 9.43366e-22)
(0.540908 -0.166738 3.24715e-21)
(0.725948 -0.219642 -1.92199e-21)
(0.506884 -0.149085 0)
(0.367346 -0.10852 -1.09614e-23)
(0.906776 -0.283616 7.169e-21)
(1.01115 -0.318809 -1.1949e-23)
(1.06714 -0.335692 -5.92249e-21)
(1.09229 -0.341485 4.6523e-24)
(1.09655 -0.340549 0)
(1.08348 -0.334588 9.01363e-24)
(1.05103 -0.323637 -4.55124e-21)
(0.99409 -0.30649 -4.31297e-21)
(0.907877 -0.281513 4.15947e-21)
(0.790526 -0.247567 3.79495e-24)
(0.644119 -0.204526 8.17702e-21)
(0.474394 -0.153315 0)
(0.289444 -0.0954661 -8.66434e-21)
(0.0974586 -0.0326208 -3.51426e-24)
(1.00111 0.0094748 0)
(1.00513 0.0345134 -1.8286e-20)
(1.01108 0.0687377 0)
(1.01317 0.116517 -1.85376e-20)
(0.997285 0.188202 -1.913e-20)
(0.938053 0.302687 2.10842e-20)
(0.699008 0.431342 0)
(0.782823 0.459838 -7.2085e-22)
(0.318212 0.351499 2.22502e-20)
(0.424656 0.46455 -2.02578e-20)
(0.0419875 -0.0454922 0)
(0.0313105 0.00898487 0)
(0.171059 0.15317 -1.17269e-20)
(0.193192 0.238933 1.1525e-20)
(0.0392593 -0.0787039 -1.465e-20)
(0.105161 -0.0314217 5.28575e-22)
(0.214827 -0.0603124 1.3649e-23)
(0.0816296 -0.0223509 -4.02087e-23)
(0.199559 -0.0544892 8.77371e-22)
(0.332382 -0.0929838 -3.6885e-21)
(0.48056 -0.135959 -3.35549e-21)
(0.675429 -0.195065 -7.94968e-21)
(0.460996 -0.127294 2.03266e-22)
(0.307812 -0.0843652 0)
(0.17516 -0.0472769 7.29327e-24)
(0.185017 -0.0498379 -1.45433e-23)
(0.866644 -0.262754 -6.71646e-21)
(0.985199 -0.303529 1.28033e-23)
(1.0531 -0.325687 -1.01442e-23)
(1.08603 -0.335752 -7.98826e-25)
(1.0945 -0.337229 8.79706e-24)
(1.08285 -0.332459 -1.72414e-23)
(1.05007 -0.322004 4.13419e-21)
(0.992021 -0.304977 -3.94239e-21)
(0.904575 -0.279964 7.43027e-24)
(0.786274 -0.245976 -1.48302e-20)
(0.639486 -0.202978 7.48171e-21)
(0.470155 -0.151957 0)
(0.286412 -0.0944941 -3.77701e-24)
(0.0962952 -0.032257 3.53314e-24)
(1.00102 0.00800881 0)
(1.00575 0.0304264 1.09261e-21)
(1.01433 0.0623861 0)
(1.02322 0.107876 1.88044e-20)
(1.02477 0.176588 3.53543e-20)
(1.00689 0.290152 -4.80667e-21)
(0.898812 0.545124 -5.382e-21)
(0.560713 0.554982 0)
(0.693892 0.609583 1.02222e-20)
(0.0644534 0.192376 2.67684e-21)
(0.100546 0.249809 0)
(0.2076 0.349468 -1.25922e-21)
(0.149377 0.30276 -8.8744e-22)
(0.0310281 0.0701259 -3.72381e-22)
(0.0413189 0.131045 0)
(0.0696602 -0.0176502 0)
(0.0645933 -0.0161858 -5.64697e-22)
(0.165036 -0.0433149 9.96013e-22)
(0.158967 -0.0416026 -7.5755e-24)
(0.290659 -0.0770357 3.78093e-21)
(0.443425 -0.120927 -3.30175e-24)
(0.634007 -0.178932 5.61158e-21)
(0.429296 -0.1159 -3.25309e-21)
(0.278052 -0.0729416 2.27604e-21)
(0.147424 -0.0383825 0)
(0.152083 -0.0395306 -9.67714e-22)
(0.0566487 -0.0142468 -2.74208e-25)
(0.0601248 -0.0149792 2.7349e-25)
(0.828661 -0.245236 6.25806e-21)
(0.95855 -0.289172 -7.02243e-25)
(1.03766 -0.316614 -8.72336e-24)
(1.07862 -0.330193 -4.61004e-21)
(1.09143 -0.333815 -1.68676e-23)
(1.08139 -0.330245 -4.03847e-21)
(1.04853 -0.32034 3.87806e-24)
(0.989577 -0.303471 3.68569e-24)
(0.90104 -0.278445 1.03741e-20)
(0.781903 -0.244425 1.16262e-22)
(0.634833 -0.201472 2.94363e-25)
(0.465972 -0.150639 3.26018e-24)
(0.283473 -0.0935552 3.25244e-25)
(0.0951803 -0.0319071 0)
(1.00092 0.00647867 0)
(1.00611 0.0259438 2.59192e-20)
(1.01649 0.0549739 0)
(1.03017 0.0969217 0)
(1.04343 0.15989 -2.4719e-21)
(1.05253 0.260606 -1.55521e-20)
(1.05101 0.493041 7.12107e-21)
(0.769902 0.692997 -1.6242e-22)
(0.963043 0.745957 2.72099e-21)
(0.27863 0.472787 -3.62352e-21)
(0.434519 0.584659 7.36284e-21)
(0.656865 0.684033 0)
(0.551015 0.634762 -2.91971e-21)
(0.053303 -0.013237 0)
(0.05131 -0.0127682 5.88454e-25)
(0.142449 -0.0363409 -2.34436e-23)
(0.139665 -0.0355483 -1.00704e-21)
(0.267986 -0.0694617 -7.52424e-22)
(0.415206 -0.11174 4.98367e-23)
(0.596224 -0.165767 -6.96751e-21)
(0.402717 -0.107574 0)
(0.259365 -0.0671298 2.94056e-21)
(0.133984 -0.0340004 1.01953e-21)
(0.136245 -0.0346054 3.96992e-24)
(0.0474671 -0.0118537 2.42384e-24)
(0.0491758 -0.0122066 6.16827e-22)
(0.791596 -0.228908 -1.21023e-23)
(0.932399 -0.277218 -1.98098e-23)
(1.02219 -0.30833 4.76719e-21)
(1.07049 -0.324728 0)
(1.08748 -0.330348 8.07292e-24)
(1.07919 -0.327977 3.45974e-24)
(1.04647 -0.318651 0)
(0.986789 -0.301971 -3.28996e-21)
(0.897304 -0.276953 -3.11837e-21)
(0.777439 -0.242913 -6.26207e-21)
(0.630186 -0.200008 2.67294e-25)
(0.461867 -0.14936 -6.25563e-24)
(0.280625 -0.0926489 6.91852e-21)
(0.0941102 -0.0315696 -2.72079e-24)
(1.00082 0.00492103 0)
(1.00629 0.0212364 -8.43369e-21)
(1.01782 0.046926 0)
(1.03467 0.0847043 1.40466e-20)
(1.05528 0.140934 -1.42086e-20)
(1.08087 0.226818 0)
(1.12275 0.406177 -1.19528e-20)
(1.17958 0.630272 -1.5606e-21)
(0.459814 0.473557 0)
(0.598379 0.477706 -5.77784e-21)
(0.381619 0.325006 4.46214e-21)
(0.80859 0.497744 -3.38203e-23)
(0.100017 0.201313 0)
(0.254067 0.348265 0)
(0.345539 0.371914 0)
(0.045848 -0.011332 -1.27139e-21)
(0.0449634 -0.011115 5.34808e-24)
(0.131156 -0.0330878 1.01445e-21)
(0.129566 -0.0325837 1.02188e-21)
(0.251506 -0.0647744 2.15372e-21)
(0.388859 -0.103989 0)
(0.554445 -0.151139 1.53406e-21)
(0.374209 -0.0991869 0)
(0.243929 -0.0628118 -6.57483e-22)
(0.12569 -0.031642 -9.97451e-22)
(0.127259 -0.0321356 2.00503e-21)
(0.0431702 -0.0106734 0)
(0.0439626 -0.0108614 -3.12256e-25)
(0.757432 -0.216292 -4.39364e-23)
(0.908805 -0.266992 2.0143e-23)
(1.00717 -0.300612 0)
(1.0618 -0.319421 -3.69527e-24)
(1.08277 -0.326881 -3.60645e-21)
(1.07634 -0.325673 -3.45358e-24)
(1.04393 -0.316939 3.17548e-21)
(0.98369 -0.300475 -3.01357e-21)
(0.893385 -0.27549 5.77498e-21)
(0.772899 -0.241439 -2.90791e-24)
(0.625557 -0.198582 2.91044e-24)
(0.457849 -0.148121 -5.75824e-21)
(0.277871 -0.0917702 2.91486e-24)
(0.093079 -0.0312439 5.46308e-21)
(1.00073 0.00336183 0)
(1.00634 0.0164272 1.50092e-23)
(1.01853 0.0385526 -1.24728e-23)
(1.03733 0.0718876 -1.42631e-20)
(1.06235 0.121165 0)
(1.09765 0.194409 0)
(1.15104 0.323755 7.37727e-21)
(1.32012 0.541843 3.04497e-24)
(0.825121 0.263385 0)
(1.16935 0.394533 6.53485e-23)
(0.187136 0.214209 9.0439e-23)
(0.209021 0.139313 0)
(0.611484 0.280515 5.52985e-23)
(0.236913 0.120704 5.64122e-21)
(0.0423153 -0.0104314 -6.46567e-22)
(0.0418214 -0.0102892 0)
(0.123517 -0.0310938 -9.64287e-25)
(0.122219 -0.0306261 1.06022e-23)
(0.235988 -0.0606571 -1.32691e-21)
(0.354238 -0.093891 -2.79607e-21)
(0.516048 -0.139848 0)
(0.329097 -0.0849747 -2.70772e-21)
(0.226338 -0.0582556 1.02491e-23)
(0.118924 -0.0298326 5.49702e-24)
(0.120308 -0.0303254 3.6927e-24)
(0.0406095 -0.0100037 0)
(0.0411741 -0.0101563 -6.37815e-22)
(0.729774 -0.206116 4.50025e-23)
(0.887796 -0.257991 1.73188e-23)
(0.992582 -0.293481 3.78708e-24)
(1.0527 -0.314313 3.67015e-21)
(1.07743 -0.323442 0)
(1.07292 -0.323344 -3.11158e-21)
(1.04095 -0.315207 0)
(0.980302 -0.298988 2.82683e-24)
(0.8893 -0.274058 2.7221e-24)
(0.768311 -0.240002 5.27809e-21)
(0.62098 -0.197193 -2.44736e-24)
(0.453922 -0.146908 0)
(0.2752 -0.0909191 -5.60473e-21)
(0.0920914 -0.0309301 4.91712e-21)
(1.00063 0.00181961 0)
(1.00629 0.0116039 0)
(1.01881 0.0300689 -1.46749e-23)
(1.03864 0.0588934 2.67647e-23)
(1.0661 0.101449 5.0235e-21)
(1.10627 0.163847 0)
(1.16294 0.258819 -2.87545e-21)
(1.33583 0.431218 0)
(1.35005 0.349556 -5.102e-20)
(0.196695 0.051967 4.84471e-21)
(0.659266 0.167178 0)
(0.31288 0.0779969 0)
(0.901125 0.166586 3.49059e-20)
(0.0399679 -0.00984473 -6.23152e-22)
(0.03954 -0.00971215 6.17354e-22)
(0.11697 -0.0294344 4.73488e-24)
(0.11547 -0.0289044 1.81681e-21)
(0.210902 -0.0543621 2.13385e-21)
(0.305947 -0.0799704 0)
(0.49149 -0.131642 0)
(0.294419 -0.0766387 0)
(0.176391 -0.0438351 0)
(0.110556 -0.0277999 1.74226e-21)
(0.11331 -0.0286238 -3.74367e-24)
(0.0385186 -0.00946886 5.99129e-22)
(0.0390061 -0.00961352 -5.87406e-25)
(0.707185 -0.197815 1.94469e-23)
(0.868723 -0.250067 -1.75609e-23)
(0.978415 -0.286885 -3.8173e-24)
(1.04329 -0.30941 3.33211e-21)
(1.07156 -0.320037 0)
(1.06899 -0.320994 -2.67446e-24)
(1.03758 -0.313468 0)
(0.976646 -0.297521 -4.77721e-24)
(0.885079 -0.272655 -4.85329e-21)
(0.763699 -0.238591 -2.00174e-25)
(0.616445 -0.195824 2.02076e-25)
(0.450086 -0.145727 5.01572e-21)
(0.272618 -0.0900942 0)
(0.0911486 -0.0306297 -2.11189e-24)
(1.00054 0.000307742 0)
(1.00618 0.00682678 -7.66197e-21)
(1.01878 0.021618 0)
(1.03902 0.0459897 1.06218e-23)
(1.06761 0.0822959 -5.11387e-21)
(1.10933 0.135 -2.96368e-21)
(1.16774 0.20811 -8.55038e-22)
(1.30808 0.332325 -3.04731e-23)
(1.48502 0.340288 3.63666e-20)
(1.03821 0.0991789 2.70395e-20)
(0.46116 0.0514897 4.70852e-22)
(0.179277 0.0101505 -1.06748e-20)
(0.605698 0.0139425 2.58466e-20)
(0.0379577 -0.00934548 3.33883e-24)
(0.0374716 -0.00919906 -1.15732e-21)
(0.10543 -0.0270203 -8.44006e-22)
(0.0970421 -0.0232701 4.21711e-22)
(0.151726 -0.0386918 6.02795e-22)
(0.286301 -0.0741266 0)
(0.473888 -0.12609 -1.46455e-21)
(0.280893 -0.0721485 0)
(0.145042 -0.0365058 -5.5741e-22)
(0.0431502 -0.0116952 -1.80629e-22)
(0.0651828 -0.0121068 -2.6529e-22)
(0.0359999 -0.00887258 -5.56975e-22)
(0.0368601 -0.00910171 -5.69499e-22)
(0.687784 -0.19088 -4.83982e-21)
(0.85115 -0.242989 0)
(0.964591 -0.280751 -3.50271e-21)
(1.03363 -0.304688 0)
(1.06523 -0.316656 0)
(1.06459 -0.318634 2.66918e-24)
(1.03384 -0.311741 0)
(0.972752 -0.296079 9.15995e-24)
(0.880742 -0.271267 0)
(0.759065 -0.23719 -2.24488e-24)
(0.611972 -0.194478 -4.33799e-21)
(0.446346 -0.144573 2.31543e-24)
(0.270132 -0.0892974 0)
(0.0902333 -0.0303379 2.12144e-24)
(1.00046 -0.00116308 0)
(1.00602 0.00213826 1.54563e-20)
(1.01854 0.0132894 -6.94071e-21)
(1.03879 0.0333307 0)
(1.06764 0.0639163 -1.73762e-23)
(1.10907 0.10805 3.02949e-21)
(1.16749 0.166497 8.932e-22)
(1.27739 0.25449 6.44874e-21)
(1.47373 0.290259 3.28935e-23)
(1.41767 0.1635 -9.43356e-20)
(0.674517 -0.0333895 -9.35136e-20)
(0.370344 -0.0178767 3.95412e-20)
(0.317616 -0.0143544 0)
(0.0973986 -0.0164107 1.00405e-20)
(0.231733 -0.0240421 1.45291e-20)
(0.0340396 -0.00868221 9.65023e-24)
(0.0315352 -0.00826708 0)
(0.0376054 -0.00957373 -4.93564e-22)
(0.0350453 -0.00889507 -6.11759e-22)
(0.141399 -0.0354199 -6.06416e-22)
(0.275396 -0.0710074 2.50678e-21)
(0.45938 -0.121855 5.48171e-21)
(0.271472 -0.0696474 0)
(0.138612 -0.0346357 5.61199e-22)
(0.0339574 -0.0083205 0)
(0.0343153 -0.00855166 5.80199e-22)
(0.018155 -0.00320646 9.78232e-23)
(0.670669 -0.184789 0)
(0.834623 -0.236561 -7.03342e-24)
(0.950974 -0.274993 0)
(1.02373 -0.300086 0)
(1.05848 -0.313299 0)
(1.05976 -0.316304 2.41307e-21)
(1.02977 -0.310049 2.27689e-21)
(0.968651 -0.294645 -4.38459e-24)
(0.876303 -0.269875 0)
(0.75442 -0.235793 1.89484e-24)
(0.607562 -0.193151 4.10962e-21)
(0.442706 -0.143445 0)
(0.267716 -0.088524 -2.07396e-24)
(0.0893595 -0.0300585 1.78564e-24)
(1.00039 -0.00258301 8.00828e-21)
(1.00583 -0.00243031 -7.79891e-21)
(1.01815 0.00513844 7.055e-21)
(1.03816 0.0209947 -5.82898e-21)
(1.06675 0.0463454 0)
(1.10701 0.0830618 6.83207e-24)
(1.16355 0.130782 0)
(1.25397 0.19498 -9.88482e-21)
(1.41707 0.233197 -1.23345e-23)
(1.53081 0.173416 8.01069e-21)
(1.20274 0.0311304 5.4446e-20)
(0.481653 -0.0737261 -7.95355e-20)
(0.193315 -0.0282549 4.99948e-20)
(0.234609 -0.0473628 -2.04464e-20)
(0.117618 -0.00993245 0)
(0.158981 -0.0225479 1.46692e-23)
(0.0613358 -0.0134524 3.93036e-23)
(0.0335301 -0.0082879 5.52565e-22)
(0.0333441 -0.00816122 -5.4344e-22)
(0.136174 -0.0340785 5.39243e-22)
(0.266853 -0.0688308 -2.31216e-21)
(0.447226 -0.11773 1.2188e-21)
(0.263385 -0.0677525 -1.69013e-23)
(0.134103 -0.0335189 5.36928e-22)
(0.0328228 -0.00802416 -5.25736e-22)
(0.0329474 -0.00813289 -2.06815e-24)
(0.654893 -0.17938 -4.20248e-21)
(0.818691 -0.230629 7.08989e-24)
(0.937398 -0.269453 -2.78682e-24)
(1.01355 -0.295551 0)
(1.05134 -0.310016 -2.41449e-21)
(1.05458 -0.314058 -2.23594e-21)
(1.02544 -0.308378 -3.93028e-24)
(0.96437 -0.293194 -3.71169e-24)
(0.871771 -0.268468 1.78079e-24)
(0.749784 -0.234402 -3.66573e-21)
(0.603218 -0.191839 -3.77788e-21)
(0.439159 -0.142348 1.79549e-24)
(0.265389 -0.0877775 1.71904e-25)
(0.0885206 -0.0297885 -3.43541e-24)
(1.00032 -0.00394148 -8.07416e-21)
(1.0056 -0.00685124 0)
(1.01765 -0.00279941 8.0558e-25)
(1.0373 0.00901213 3.53493e-23)
(1.06534 0.0295358 3.34762e-24)
(1.10409 0.0598767 0)
(1.15756 0.0992191 1.44065e-24)
(1.2359 0.148239 3.04254e-22)
(1.36272 0.18181 7.33431e-21)
(1.51093 0.155756 5.84506e-20)
(1.46637 0.0666788 0)
(0.996734 -0.0437271 5.75173e-20)
(0.400237 -0.0724246 -2.05168e-20)
(0.182603 -0.0369127 -2.69464e-22)
(0.170542 -0.0456931 4.74976e-21)
(0.0629064 -0.00904531 -1.97498e-22)
(0.0669206 -0.0146157 -1.23578e-20)
(0.0777408 -0.0153036 1.29835e-20)
(0.0823503 -0.0233303 1.32587e-20)
(0.0228441 -0.00482706 0)
(0.037176 -0.00981029 -9.45155e-21)
(0.0324334 -0.00800967 -5.15169e-22)
(0.0323179 -0.00790904 -5.0645e-22)
(0.131987 -0.0330737 1.5306e-21)
(0.259796 -0.0673384 -2.18731e-21)
(0.435753 -0.114322 5.94388e-21)
(0.257768 -0.0657292 -1.85316e-21)
(0.129864 -0.0326105 0)
(0.031857 -0.00778862 1.92843e-24)
(0.0319622 -0.00789254 -9.96288e-22)
(0.639772 -0.174393 -3.96041e-21)
(0.802931 -0.224941 -3.2097e-21)
(0.923654 -0.263957 2.7945e-24)
(1.00312 -0.29114 -4.63965e-24)
(1.04392 -0.306928 -3.20532e-25)
(1.04916 -0.311877 2.0687e-21)
(1.02087 -0.306687 3.9252e-24)
(0.959918 -0.291712 3.7069e-24)
(0.867168 -0.267047 1.76124e-21)
(0.745157 -0.233013 3.36703e-21)
(0.598956 -0.190552 0)
(0.435718 -0.141279 -1.79745e-24)
(0.263138 -0.0870539 1.90991e-24)
(0.0877149 -0.02953 -3.31282e-21)
(1.00025 -0.00522491 0)
(1.00532 -0.0110954 2.04724e-24)
(1.01704 -0.0104966 0)
(1.03626 -0.00261661 5.99566e-21)
(1.06365 0.0134056 4.39365e-21)
(1.10084 0.0382217 -4.48724e-24)
(1.15094 0.0708103 0)
(1.22051 0.109729 3.03737e-21)
(1.3219 0.138614 -1.4258e-20)
(1.45268 0.128079 -2.72874e-20)
(1.53009 0.0738833 6.49877e-23)
(1.34919 -0.011166 0)
(0.845502 -0.0815959 -1.21137e-22)
(0.355679 -0.0664358 -8.0734e-20)
(0.170032 -0.0309646 -5.61461e-22)
(0.174913 -0.0401893 3.24303e-20)
(0.0911971 -0.0192288 -1.56235e-22)
(0.087019 -0.0208978 0)
(0.0752958 -0.017562 -5.67789e-21)
(0.0617506 -0.02045 0)
(0.0111124 -0.00227062 8.11205e-21)
(0.0135192 -0.00393079 0)
(0.0169598 -0.0043274 -6.43268e-23)
(0.0145709 -0.00638885 -8.25748e-21)
(0.0314906 -0.00778189 4.77858e-22)
(0.0313766 -0.00768165 -4.71437e-22)
(0.12796 -0.0323572 2.30613e-21)
(0.253121 -0.0644953 -4.50319e-22)
(0.424951 -0.111258 5.52497e-21)
(0.250475 -0.0635787 -2.20698e-21)
(0.157972 -0.0419949 0)
(0.158167 -0.0408587 5.65322e-22)
(0.0308591 -0.00757623 -1.76814e-24)
(0.0309995 -0.00766318 -4.613e-22)
(0.624578 -0.169539 3.69322e-21)
(0.786707 -0.219149 0)
(0.909715 -0.258515 0)
(0.992621 -0.287108 4.65048e-24)
(1.03643 -0.304005 -2.08826e-21)
(1.04355 -0.309703 1.91473e-21)
(1.0161 -0.304963 0)
(0.955314 -0.290203 -1.65854e-21)
(0.862509 -0.265617 0)
(0.740567 -0.231633 0)
(0.594788 -0.189287 0)
(0.432376 -0.140239 -3.30637e-21)
(0.260965 -0.0863554 3.3523e-21)
(0.0869387 -0.0292816 -2.90445e-24)
(1.00019 -0.00641633 0)
(1.00499 -0.015127 -4.05596e-24)
(1.01631 -0.0179228 3.46621e-24)
(1.03508 -0.013902 0)
(1.06183 -0.00215026 -9.05971e-21)
(1.09762 0.0177954 2.51739e-21)
(1.14454 0.0448469 1.20117e-24)
(1.20695 0.0766628 0)
(1.29178 0.102035 6.83529e-21)
(1.39827 0.0996676 -1.16059e-23)
(1.50078 0.0655304 0)
(1.49714 0.00627289 -1.3651e-22)
(1.22775 -0.0646349 -4.28684e-20)
(0.742159 -0.0967197 6.15318e-20)
(0.334702 -0.0641819 -9.56555e-20)
(0.15692 -0.0294658 3.36486e-20)
(0.157753 -0.0352356 -1.31633e-22)
(0.0620283 -0.0132583 -6.89677e-21)
(0.0898978 -0.0207128 -1.02428e-20)
(0.0897823 -0.0227017 1.00724e-20)
(0.0435426 -0.0101575 -1.35081e-22)
(0.041398 -0.00931834 0)
(0.0251317 -0.00338537 3.88544e-21)
(0.0120595 -0.00410116 -8.58827e-21)
(0.0305374 -0.00755086 -4.51313e-22)
(0.0303143 -0.00757113 -4.41209e-22)
(0.0937042 -0.0252389 -6.09969e-22)
(0.15704 -0.0398054 5.73931e-22)
(0.156516 -0.0392916 0)
(0.247356 -0.0631066 3.36448e-24)
(0.413839 -0.108133 -9.79027e-22)
(0.244801 -0.0622188 -1.64372e-21)
(0.155677 -0.039071 5.57106e-22)
(0.155017 -0.0388122 5.52891e-22)
(0.0938575 -0.0241472 -1.0144e-21)
(0.608054 -0.16437 0)
(0.769802 -0.212938 0)
(0.895962 -0.253731 0)
(0.982446 -0.283401 8.0764e-24)
(1.02897 -0.301153 -1.92459e-21)
(1.03777 -0.30752 0)
(1.01113 -0.303213 0)
(0.950594 -0.288672 0)
(0.857822 -0.264176 0)
(0.736027 -0.230262 0)
(0.590708 -0.188047 5.79462e-21)
(0.429126 -0.139228 -1.39913e-24)
(0.258864 -0.0856833 -3.24454e-21)
(0.0861961 -0.0290423 2.81172e-21)
(1.00013 -0.00749309 4.50302e-24)
(1.00459 -0.0188972 8.55654e-24)
(1.01543 -0.0250361 4.05596e-24)
(1.03373 -0.0248492 -3.44131e-24)
(1.05994 -0.0172369 9.51868e-21)
(1.09457 -0.00170269 -5.27879e-21)
(1.13881 0.0207279 0)
(1.19532 0.0473666 0)
(1.2684 0.0700853 -5.45786e-21)
(1.35662 0.0731708 0)
(1.44947 0.0510872 -1.2283e-20)
(1.51334 0.0101805 0)
(1.4386 -0.0466662 3.81707e-20)
(1.12084 -0.0970705 -8.69624e-23)
(0.673699 -0.101317 6.12392e-20)
(0.319849 -0.0627458 -3.67206e-20)
(0.161358 -0.031868 -7.15824e-22)
(0.157478 -0.0350457 6.28264e-20)
(0.058362 -0.013339 -2.91609e-20)
(0.0569309 -0.0135777 7.12111e-21)
(0.0112615 -0.00240413 6.49053e-21)
(0.0450462 -0.0113487 -1.63411e-22)
(0.0114015 -0.00353751 0)
(0.0447904 -0.0116058 -8.51352e-21)
(0.0106763 -0.00303395 -6.08182e-21)
(0.0107944 -0.00306838 -6.01604e-21)
(0.00643229 -0.000866754 4.63269e-21)
(0.0305976 -0.00794835 4.27166e-22)
(0.0922134 -0.0231861 1.97182e-24)
(0.0916388 -0.0228014 -5.04214e-22)
(0.154084 -0.0387346 5.39428e-22)
(0.153419 -0.038521 5.28625e-22)
(0.241641 -0.0616387 0)
(0.400323 -0.104479 -1.02213e-21)
(0.238571 -0.060562 1.52314e-21)
(0.1525 -0.0383626 5.02523e-25)
(0.151762 -0.0380717 -5.03277e-25)
(0.0911994 -0.0226532 -9.88972e-22)
(0.0908135 -0.0225304 -4.9306e-22)
(0.0305672 -0.00768448 3.76319e-22)
(0.588667 -0.157693 0)
(0.75325 -0.207786 0)
(0.883225 -0.249479 8.58778e-24)
(0.972713 -0.279865 1.97725e-21)
(1.0215 -0.298356 0)
(1.03182 -0.30534 3.04904e-24)
(1.006 -0.301443 0)
(0.945782 -0.287119 1.43009e-21)
(0.853131 -0.262731 -1.3782e-21)
(0.73155 -0.228908 -2.62442e-21)
(0.586726 -0.186835 2.72165e-21)
(0.42597 -0.138247 2.68046e-21)
(0.256838 -0.0850334 -2.82734e-21)
(0.0854769 -0.0288101 -2.34528e-24)
(1.00007 -0.00842547 0)