/*--------------------------------*- C++ -*----------------------------------*\
| =========                 |                                                 |
| \\      /  F ield         | OpenFOAM: The Open Source CFD Toolbox           |
|  \\    /   O peration     | Version:  v1912                                 |
|   \\  /    A nd           | Website:  www.openfoam.com                      |
|    \\/     M anipulation  |                                                 |
\*---------------------------------------------------------------------------*/
FoamFile
{
    version     2.0;
    format      ascii;
    class       volScalarField;
    location    "300";
    object      p;
}
// * * * * * * * * * * * * * * * * * * * * * * * * * * * * * * * * * * * * * //

dimensions      [0 2 -2 0 0 0 0];


internalField   nonuniform List<scalar> 
3675
(
0.00184784
0.00209897
0.00167193
0.00191674
0.00151912
0.00216114
0.00175421
0.00137438
0.00237427
0.0019915
0.00160388
0.00124167
0.00256345
0.00220201
0.00183339
0.00146495
0.00112199
0.0027179
0.00239206
0.00203815
0.00169347
0.00134097
0.00100682
0.00282597
0.00254735
0.00222695
0.00189675
0.00156187
0.0012204
0.000902419
0.00287281
0.00265695
0.00238537
0.00207851
0.00175625
0.00143447
0.00111111
0.000806605
0.00285147
0.0027097
0.00250084
0.00223413
0.00193687
0.00162762
0.0013225
0.00101208
0.000715507
0.00276381
0.00270034
0.00256693
0.00235595
0.00209174
0.00180476
0.00151118
0.0012172
0.000914414
0.000636112
0.00261989
0.00262128
0.00257714
0.00243177
0.00220876
0.00195444
0.00168181
0.00140079
0.00111809
0.000831164
0.000560897
0.00244011
0.00247354
0.00252854
0.00245962
0.00228565
0.00206976
0.00182715
0.00156907
0.00129925
0.0010285
0.000751816
0.000493414
0.00227771
0.00224815
0.00242648
0.00244574
0.0023186
0.00214006
0.00193522
0.00170699
0.00145965
0.00120115
0.000946241
0.000679321
0.000426332
0.00220507
0.00195041
0.00226857
0.00239669
0.0023068
0.00216167
0.00199931
0.00180915
0.0015959
0.00136111
0.00111958
0.000869137
0.000611063
0.000370557
0.00222724
0.00167845
0.00196976
0.00201719
0.00232958
0.00225608
0.00213648
0.00201424
0.00186836
0.00169764
0.00149361
0.00127203
0.00103393
0.000795934
0.000551045
0.000319795
0.00224073
0.00210922
0.00184934
0.00168837
0.00137894
0.00198418
0.00224026
0.00217231
0.00206232
0.00197779
0.00187826
0.00175158
0.0015859
0.0013952
0.00118267
0.000959592
0.000731888
0.000494929
0.000276356
0.00216868
0.00205747
0.00192862
0.00189581
0.00139332
0.00207571
0.00183819
0.00131198
0.00181354
0.00196251
0.00206672
0.00194391
0.00189495
0.00183849
0.00175614
0.00163563
0.0014849
0.00130529
0.00110549
0.000891364
0.000673738
0.000448592
0.000238304
0.00203393
0.00215735
0.00197813
0.00188867
0.00192428
0.00173435
0.000939685
0.00187158
0.00190129
0.00181912
0.00180176
0.00113203
0.0018125
0.00178822
0.00186192
0.00179542
0.0017729
0.00175512
0.00171178
0.00163766
0.00153094
0.00139183
0.00122233
0.00103115
0.00083043
0.000622321
0.000406557
0.000206407
0.0019972
0.00208907
0.00191357
0.00185644
0.00180806
0.00182464
0.00029361
0.00143214
0.00182536
0.00164797
0.0016304
0.00163782
0.00165303
0.00182848
0.00175001
0.00253679
0.00202435
0.00172698
0.00180168
0.00161745
0.00163349
0.0016243
0.00159149
0.00152824
0.00143361
0.00130257
0.00114494
0.000966449
0.000769295
0.000577215
0.000371147
0.000181969
0.00196688
0.00203595
0.00169309
0.00172149
-0.00101932
0.00286621
0.00165137
0.00165089
0.00154406
0.00148449
0.00145229
0.00146107
0.00150066
0.00154057
0.00152334
0.00175502
0.00205909
0.0022657
0.00167883
0.00148209
0.00150131
0.00150081
0.00147769
0.00142832
0.00134072
0.00122018
0.00107074
0.000899448
0.000724922
0.000537801
0.000343083
0.000162224
-0.00352794
0.00159743
0.001551
0.00146617
0.00146668
0.00140891
0.00133976
0.00131524
0.0013022
0.00135108
0.00141626
0.00142149
0.00147607
0.00149997
0.00135174
0.0013741
0.00138742
0.00137762
0.0013334
0.00125475
0.00114211
0.00100221
0.000850438
0.000679234
0.000504687
0.00031948
0.000150913
0.00142861
0.00141953
0.00134987
0.00133099
0.00125933
0.00120287
0.00118368
0.00116268
0.00120027
0.00126528
0.00128761
0.00136165
0.00139653
0.0012273
0.00126563
0.00128652
0.00128179
0.00124469
0.00117241
0.00106894
0.000945018
0.000799766
0.000644591
0.000481006
0.000305954
0.000141475
0.0013116
0.00129032
0.0012059
0.00117852
0.00112049
0.00107145
0.00106271
0.00103086
0.00106373
0.00111386
0.0011418
0.0012129
0.0012599
0.0011201
0.00116194
0.00118866
0.00119189
0.00115921
0.00109344
0.00100225
0.000889286
0.000760643
0.000614209
0.000461359
0.000294675
0.000144647
0.00116519
0.00113834
0.00106314
0.0010346
0.000986339
0.000953656
0.000955815
0.000908495
0.000934649
0.000975715
0.00100254
0.00106227
0.00111
0.00101294
0.0010663
0.00110006
0.00110278
0.0010762
0.00101929
0.000938398
0.000840385
0.00072175
0.000590205
0.000447488
0.000290456
0.000150052
0.00101919
0.00099656
0.000929258
0.000902177
0.000865449
0.000842873
0.000850657
0.000802134
0.000817062
0.000847491
0.000873658
0.000924178
0.000966032
0.000919641
0.000977504
0.00101187
0.00102276
0.000997831
0.000948167
0.000881516
0.000797966
0.000697549
0.000575418
0.000439941
0.000296296
0.000165314
0.000884551
0.000864368
0.000807723
0.000780112
0.000753432
0.000738521
0.000757541
0.00069957
0.000709466
0.000730196
0.000758759
0.000796658
0.00083661
0.000828508
0.000890878
0.000933003
0.000938218
0.000917886
0.000881931
0.000833536
0.000766876
0.00067615
0.000565169
0.000441704
0.000306517
0.000176512
0.000761684
0.000742936
0.000694661
0.00066869
0.000650769
0.000644723
0.000666663
0.000606225
0.000608805
0.000624706
0.000648988
0.000677153
0.000723415
0.000746992
0.000810675
0.000845681
0.000854041
0.000841382
0.000821291
0.000792805
0.000742027
0.000663435
0.000559751
0.000446176
0.000312452
0.000200225
0.000651166
0.000629906
0.000589083
0.000572709
0.00055619
0.000556937
0.00058466
0.000517474
0.000516943
0.000526746
0.000546806
0.000572776
0.000613621
0.000665923
0.00072986
0.00076661
0.000769042
0.000767976
0.000770183
0.000762654
0.00072537
0.000652151
0.000560658
0.000452731
0.000336044
0.00022828
0.000547778
0.000533423
0.000493811
0.000478412
0.00046876
0.000476152
0.000505859
0.000434333
0.000430733
0.000437142
0.000455018
0.000480313
0.000506703
0.000592159
0.000654179
0.000673766
0.000681399
0.000702736
0.00073365
0.000742291
0.000711512
0.000650182
0.000562659
0.00047292
0.000358992
0.000262847
0.000451351
0.000439413
0.000404743
0.000392775
0.000387314
0.000403395
0.000434159
0.000352532
0.000351037
0.000352917
0.000370015
0.000391601
0.000415375
0.000517294
0.000563602
0.000575946
0.000597844
0.000654039
0.000712618
0.00072839
0.00070099
0.000646921
0.00057728
0.000487835
0.000392623
0.000304475
0.000362212
0.000354302
0.000324462
0.000310602
0.000311123
0.000332039
0.000360075
0.000276519
0.000273169
0.000275411
0.000292832
0.000307493
0.000330941
0.000439709
0.000467787
0.000471015
0.000530318
0.000632369
0.00069934
0.000713519
0.000693392
0.000649313
0.000587367
0.000518232
0.000428069
0.000349741
0.00028321
0.000271377
0.000247131
0.000238685
0.000241197
0.000262157
0.000293288
0.000203535
0.000197967
0.000200174
0.000213894
0.000230932
0.000254828
0.000356422
0.000342828
0.000372833
0.000504796
0.000626406
0.000686796
0.000699526
0.000685368
0.00065451
0.000608051
0.000548968
0.000471736
0.000407633
0.000203742
0.000209799
0.000174743
0.000168039
0.000171547
0.000193974
0.00022189
0.000127338
0.000126337
0.000128085
0.000143348
0.000155666
0.000170579
0.000238929
0.000208677
0.00033114
0.000512367
0.000625294
0.000665518
0.000678718
0.000680662
0.00066541
0.000636096
0.000590091
0.000524582
0.000473922
0.000131472
0.000138986
0.000108794
9.52347e-05
0.000101129
0.000126805
0.000141012
4.65015e-05
5.6389e-05
5.6153e-05
7.71038e-05
8.52046e-05
0.000101142
8.57131e-05
0.000110909
0.00036199
0.000538277
0.000600959
0.000632146
0.000660669
0.00067758
0.000683602
0.000667587
0.000638023
0.000585771
0.00055062
6.78233e-05
6.46998e-05
3.90635e-05
2.68692e-05
3.00501e-05
6.42194e-05
3.66563e-05
-4.37528e-05
-2.37269e-05
-1.48654e-05
7.99693e-06
1.38238e-05
3.76046e-05
-0.000132314
0.000164513
0.000439272
0.000517203
0.000552833
0.000598238
0.000643417
0.000683276
0.000705612
0.000709934
0.000690133
0.000659598
0.000638112
-2.41942e-06
-7.41195e-07
-2.92327e-05
-4.6035e-05
-3.91734e-05
-3.68462e-06
-0.000275922
-0.00013635
-0.000101438
-9.34184e-05
-6.29946e-05
-5.45543e-05
-3.15785e-05
-0.000128286
0.00034168
0.000423047
0.000448459
0.000501086
0.000565789
0.000632491
0.000689791
0.000733131
0.000750785
0.000764968
0.000741554
0.000738037
-7.11226e-05
-7.27399e-05
-9.79401e-05
-0.000126767
-0.000114533
-0.000119392
-0.000498711
-0.000463759
-0.00016175
-0.000181026
-0.000138375
-0.000128973
-0.000100146
0.000248234
0.000332018
0.000329706
0.000379321
0.000452774
0.000536414
0.000622265
0.000701787
0.000765867
0.000816778
0.000834298
0.00083808
0.000851321
-0.000145368
-0.000147664
-0.000179993
-0.000222765
-9.83894e-05
-0.000806504
0.000121284
-0.00036532
-0.000193566
-0.000286296
-0.000211036
-0.000214293
-0.000178379
0.000243965
0.000194402
0.000240219
0.000315545
0.000405687
0.000508903
0.000617342
0.000721758
0.000812989
0.000876102
0.000930355
0.000941951
0.000972186
-0.000224695
-0.000247747
-0.000208651
-0.0002866
-0.00142249
-1.72509e-05
0.000108889
-3.51755e-05
-0.0004698
-6.50191e-06
-8.31533e-05
-0.000323949
-0.000270731
5.19528e-05
8.99867e-05
0.000166138
0.000255825
0.000362136
0.000482955
0.000614317
0.000745851
0.000861486
0.000961148
0.00102024
0.00106233
0.00111918
-0.000309255
-0.000347866
0.000371453
-0.0022724
-5.24387e-06
-0.000163264
-8.86162e-05
-0.000135541
-0.00017716
-6.0516e-05
0.000557762
-0.000143746
-0.000279996
-6.41131e-05
1.66318e-05
0.000100081
0.000197118
0.000315057
0.000458449
0.000616516
0.000777266
0.00092452
0.0010434
0.00113985
0.00120047
0.00127919
8.19971e-05
-0.00449393
-0.00016752
-0.000206694
-0.000256058
-0.000225676
-0.000200705
-0.000217887
-0.000251069
-0.000288602
-0.000326918
-0.000130778
-5.29386e-05
2.85098e-05
0.000133932
0.0002709
0.000437615
0.000625177
0.000817285
0.000997597
0.00114516
0.00126955
0.00135307
0.00145413
-0.00031662
-0.00029764
-0.000279851
-0.000291452
-0.000268619
-0.000295946
-0.000302614
-0.000297109
-0.000310827
-0.000198192
-0.000129503
-4.3092e-05
7.40882e-05
0.000226988
0.000417603
0.00063672
0.000864557
0.00107477
0.00126471
0.0014113
0.00152372
0.00165415
-0.000315807
-0.000320475
-0.000344643
-0.000358085
-0.000338228
-0.000369481
-0.000375306
-0.000346119
-0.000348048
-0.000273594
-0.000206049
-0.000116582
8.34334e-06
0.000180422
0.000400706
0.000655155
0.000918646
0.00117307
0.00139211
0.00157646
0.00171956
0.0018721
-0.000374718
-0.00039034
-0.000413892
-0.000423181
-0.00040744
-0.00044342
-0.000446553
-0.000428255
-0.000417512
-0.000352991
-0.000286669
-0.000194404
-5.9868e-05
0.000135204
0.000388034
0.000678984
0.000986389
0.00128625
0.00153982
0.00176463
0.00192726
0.00210782
-0.0004489
-0.00046329
-0.00048437
-0.000490627
-0.000484606
-0.00051537
-0.000514791
-0.000498501
-0.000488977
-0.000430926
-0.000368758
-0.00027778
-0.000129282
9.13221e-05
0.00037753
0.000713666
0.00107057
0.00140474
0.00171101
0.00195561
0.0021696
0.00236715
-0.000519848
-0.000534466
-0.000550214
-0.000563785
-0.000559873
-0.000589726
-0.000585016
-0.000571299
-0.000553452
-0.00051495
-0.000463208
-0.000369338
-0.000201582
4.62717e-05
0.0003735
0.000755056
0.00115407
0.0015417
0.00188678
0.00219248
0.00243635
0.00268927
-0.000588347
-0.000602595
-0.000621205
-0.000635716
-0.000640174
-0.000667725
-0.000657848
-0.00063756
-0.000623896
-0.00061053
-0.00056707
-0.000465673
-0.000277774
4.84254e-06
0.000373068
0.000802945
0.00125566
0.0017006
0.00209868
0.00245564
0.00275561
0.0030388
-0.000651805
-0.000670997
-0.000694218
-0.00071102
-0.000728349
-0.000743075
-0.000732044
-0.000709643
-0.000693682
-0.000717826
-0.000679213
-0.000562616
-0.000350408
-3.4164e-05
0.000378251
0.000861941
0.00137911
0.0018715
0.00234324
0.00273191
0.00329056
0.00126862
-0.000728918
-0.000744559
-0.000768337
-0.000787229
-0.00083101
-0.00082491
-0.000804387
-0.000781434
-0.0007671
-0.000843502
-0.000800348
-0.000659892
-0.000424225
-7.42736e-05
0.000387679
0.000931925
0.00150411
0.00208346
0.00256056
0.00333769
0.00147975
-0.000801357
-0.000817353
-0.00084371
-0.000871556
-0.000958582
-0.000915766
-0.000880945
-0.000852921
-0.000839275
-0.000987077
-0.000909122
-0.000760996
-0.000505214
-0.000113924
0.000404796
0.00100815
0.00166492
0.00224077
0.00312419
0.00153956
-0.000877465
-0.000894944
-0.000915798
-0.000978483
-0.00109981
-0.00111931
-0.000946936
-0.000934823
-0.000914354
-0.00110296
-0.00101986
-0.000869959
-0.000587492
-0.000148518
0.000425716
0.00111045
0.00176294
0.00272486
0.00139584
-0.000954385
-0.000975334
-0.000945577
-0.00143085
-0.001238
-0.00114478
-0.000924858
-0.00101861
-0.000995309
-0.00120487
-0.00114685
-0.000989036
-0.000670243
-0.000183355
0.00046645
0.00115709
0.00215666
0.00112586
-0.00104082
-0.00106883
-0.0037267
-0.00212802
-0.00122737
-0.00133358
-0.00131467
-0.00156402
-0.0014084
-0.00114181
0.00138457
-0.00110446
-0.00133727
-0.00129253
-0.0011134
-0.000755493
-0.000205112
0.000463753
0.00144289
0.000771006
-0.00096622
-0.00136736
-0.00134273
-0.00136379
-0.00145947
-0.00142152
-0.00135831
-0.00135629
-0.00136708
-0.00138335
-0.000691288
-0.00149618
-0.00144738
-0.00124003
-0.000835013
-0.000251448
0.000631631
0.000360672
-0.00128402
-0.00137864
-0.00138009
-0.00138033
-0.00140007
-0.00148217
-0.00161665
-0.00155559
-0.00143406
-0.00145602
-0.00137954
-0.00138531
-0.00144905
-0.00144222
-0.0016702
-0.00160865
-0.00136932
-0.000918667
-0.000203954
-6.52731e-05
-0.00141817
-0.00141003
-0.00139987
-0.00142127
-0.00149241
-0.00152165
-0.00162575
-0.00179613
-0.00171069
-0.00155861
-0.00159738
-0.00144659
-0.00147562
-0.00139787
-0.00140331
-0.00185445
-0.00177844
-0.00148301
-0.000987111
-0.00047229
-0.00141158
-0.00143711
-0.00150884
-0.00153844
-0.00162603
-0.00166963
-0.00178893
-0.00199178
-0.00188776
-0.00170671
-0.0017516
-0.00157801
-0.00161101
-0.00145569
-0.00148852
-0.00205814
-0.00191948
-0.0016558
-0.0008272
-0.00151994
-0.00155235
-0.00164163
-0.00168482
-0.00178318
-0.00183175
-0.00197206
-0.00222015
-0.00208298
-0.00187627
-0.00192146
-0.00172274
-0.00176191
-0.00158803
-0.00162217
-0.00223733
-0.00217911
-0.00110847
-0.00165423
-0.00169355
-0.00180001
-0.00184097
-0.00196081
-0.0020141
-0.00218456
-0.00245217
-0.00231788
-0.00206539
-0.00211293
-0.00188743
-0.00192942
-0.00173279
-0.00177034
-0.00257254
-0.00131336
-0.00180832
-0.001846
-0.00197498
-0.00202123
-0.00216362
-0.00222031
-0.00241611
-0.00290464
-0.0025458
-0.00228294
-0.00233951
-0.00206891
-0.00211896
-0.00189832
-0.00193548
-0.00145346
-0.00198016
-0.00202518
-0.0021708
-0.00222418
-0.00239434
-0.00245852
-0.00272419
-0.00167738
-0.00302085
-0.0025144
-0.00257803
-0.00228129
-0.00233699
-0.00207457
-0.00211767
-0.00216984
-0.00222357
-0.00239602
-0.00245498
-0.00265141
-0.00274285
-0.00319771
-0.00159257
-0.00287119
-0.00298292
-0.00251337
-0.0025779
-0.00227976
-0.0023334
-0.00238935
-0.00244538
-0.0026558
-0.00274523
-0.00310361
-0.00335385
-0.00330621
-0.00136678
-0.00285059
-0.00295373
-0.00250366
-0.00256248
-0.00263511
-0.00272338
-0.00306952
-0.00336814
-0.00363066
-0.00133963
-0.00282295
-0.00293575
-0.00305354
-0.00334738
-0.00393169
-0.00164473
-0.0190757
-0.0181269
-0.0189752
-0.0182454
-0.0178149
-0.0188051
-0.0190212
-0.017911
-0.0174608
-0.0186105
-0.0195133
-0.0178896
-0.0194694
-0.0175419
-0.0170745
-0.0201686
-0.0188946
-0.0170071
-0.0202651
-0.01712
-0.0198907
-0.0171796
-0.0166972
-0.021741
-0.0204797
-0.019183
-0.0173332
-0.0154593
-0.0163507
-0.0210883
-0.0203146
-0.0167953
-0.0163358
-0.0233435
-0.0220944
-0.0219041
-0.0207763
-0.0194533
-0.0176247
-0.0157912
-0.0139515
-0.0148343
-0.0155953
-0.0160374
-0.0164266
-0.0207573
-0.0211756
-0.0159469
-0.024862
-0.023731
-0.0227243
-0.0235469
-0.0224024
-0.0215642
-0.0219572
-0.0210472
-0.0196968
-0.0178915
-0.0160868
-0.0142766
-0.0124684
-0.0133356
-0.0140873
-0.0145192
-0.0149037
-0.0152753
-0.0156547
-0.015545
-0.0253992
-0.0243564
-0.0252103
-0.0260536
-0.0261665
-0.0240506
-0.0223823
-0.0228047
-0.0231989
-0.023602
-0.0226715
-0.0212913
-0.019915
-0.0181325
-0.0163536
-0.0145729
-0.0127904
-0.0110048
-0.0118563
-0.0125972
-0.0130211
-0.0133992
-0.0137668
-0.0141397
-0.0144244
-0.0148087
-0.0151712
-0.0271291
-0.0257348
-0.024026
-0.0244557
-0.0259974
-0.024874
-0.0253019
-0.027041
-0.0271902
-0.0243212
-0.0229163
-0.0215121
-0.0201068
-0.0183461
-0.0165929
-0.0148397
-0.0130864
-0.0113282
-0.00955815
-0.0103945
-0.0111261
-0.0115432
-0.0119164
-0.0122788
-0.0126464
-0.0129258
-0.0133042
-0.0136619
-0.0140296
-0.0288597
-0.027445
-0.0260037
-0.0257264
-0.0261537
-0.0263362
-0.026836
-0.0271693
-0.0279173
-0.028102
-0.0245711
-0.0231388
-0.0217103
-0.0202687
-0.0185303
-0.0168031
-0.0150779
-0.0133512
-0.0116257
-0.00988779
-0.00812527
-0.008946
-0.00967018
-0.0100824
-0.0104512
-0.0108103
-0.0111724
-0.0114478
-0.0118216
-0.0121747
-0.0125374
-0.0306443
-0.029176
-0.0290176
-0.0277178
-0.0262569
-0.0265051
-0.0269871
-0.0275842
-0.028822
-0.0280232
-0.0248004
-0.0233401
-0.0218812
-0.0203962
-0.018683
-0.0169833
-0.0152859
-0.0135861
-0.0118893
-0.010189
-0.00846563
-0.00671037
-0.00750474
-0.00822328
-0.00863301
-0.00899864
-0.00935539
-0.00971408
-0.0099862
-0.0103561
-0.0107073
-0.0110639
-0.0324812
-0.0309658
-0.0299153
-0.0308299
-0.0294663
-0.0279778
-0.0264903
-0.0269352
-0.0274656
-0.0289128
-0.029725
-0.0284618
-0.0279191
-0.0250063
-0.0235199
-0.0220163
-0.0204797
-0.0188019
-0.0171289
-0.0154595
-0.0137867
-0.0121172
-0.0104502
-0.00877109
-0.00705783
-0.00533072
-0.00606242
-0.00677815
-0.00718808
-0.00755206
-0.00790791
-0.00826433
-0.00853455
-0.00890219
-0.00925173
-0.00960594
-0.0343436
-0.0327949
-0.0317418
-0.0326736
-0.0312599
-0.0306342
-0.0297339
-0.028217
-0.0267042
-0.0273724
-0.0293671
-0.0288176
-0.0298248
-0.0283653
-0.0278122
-0.0251909
-0.0236652
-0.0221096
-0.0205102
-0.0188725
-0.0172336
-0.0155986
-0.0139529
-0.0123075
-0.010668
-0.00902787
-0.00736421
-0.00565662
-0.00396962
-0.00468859
-0.00533655
-0.00573774
-0.00610151
-0.00646087
-0.00681616
-0.00708536
-0.00745227
-0.00780212
-0.0081551
-0.0362453
-0.0346538
-0.0335959
-0.0345498
-0.0330882
-0.0315442
-0.0324716
-0.0315286
-0.0307255
-0.0302671
-0.0299787
-0.0284373
-0.026893
-0.0292709
-0.0287062
-0.0297259
-0.0282618
-0.0253419
-0.023768
-0.0221491
-0.0204796
-0.0188909
-0.0172932
-0.0156953
-0.0140818
-0.0124616
-0.0108448
-0.00923288
-0.00761428
-0.00595466
-0.00426407
-0.00259325
-0.00330672
-0.00400788
-0.0043361
-0.00463936
-0.00498822
-0.00534857
-0.00562475
-0.005997
-0.00634965
-0.00670571
-0.0381843
-0.036562
-0.0354876
-0.0364511
-0.0349495
-0.033414
-0.0343965
-0.033359
-0.031182
-0.031645
-0.0325558
-0.0320894
-0.0317765
-0.0306295
-0.0301741
-0.0302011
-0.0286312
-0.0270534
-0.0291633
-0.0296128
-0.025453
-0.0238172
-0.0221273
-0.0203894
-0.0188518
-0.0173032
-0.015747
-0.0141692
-0.0125741
-0.0109775
-0.00938766
-0.00780105
-0.00619282
-0.00453563
-0.00285562
-0.00128841
-0.00201879
-0.00261219
-0.00294194
-0.00327519
-0.00361803
-0.00405742
-0.00403315
-0.00444625
-0.00484024
-0.00522703
-0.0401554
-0.0385157
-0.0374142
-0.038403
-0.0368585
-0.0353199
-0.0362479
-0.0352233
-0.0330147
-0.0334927
-0.0345222
-0.0339526
-0.0336078
-0.0310855
-0.0315438
-0.0324482
-0.0319921
-0.0320024
-0.0305171
-0.030069
-0.0304012
-0.0287964
-0.0271708
-0.0255108
-0.0238029
-0.0220447
-0.0202488
-0.0187574
-0.0172566
-0.0157473
-0.0142118
-0.0126484
-0.0110712
-0.00949639
-0.00792789
-0.00635566
-0.00474515
-0.00306621
-0.00141994
-0.000264776
-0.0009034
-0.00140421
-0.0017033
-0.00199343
-0.00229181
-0.00259821
-0.00279551
-0.00309325
-0.00337619
-0.00408896
-0.0421719
-0.0405002
-0.0393832
-0.040389
-0.0388144
-0.0372137
-0.0381974
-0.0371316
-0.0349206
-0.0353694
-0.0363266
-0.0358389
-0.0354746
-0.0328972
-0.0333387
-0.0345618
-0.0337606
-0.0338364
-0.0309791
-0.0314316
-0.0323384
-0.0318899
-0.0322058
-0.0305721
-0.0289208
-0.0272367
-0.0255072
-0.0237279
-0.0219091
-0.0200675
-0.0186141
-0.0171557
-0.0156916
-0.0142032
-0.0126791
-0.0111271
-0.00956689
-0.0080062
-0.00644877
-0.00487006
-0.00321873
-0.00149617
-0.000332927
-4.476e-05
-0.000434339
-0.000677281
-0.000895007
-0.0011411
-0.00139486
-0.00157049
-0.00186833
-0.00216319
-0.00247056
-0.00267072
-0.00297604
-0.0032734
-0.00425672
-0.0442366
-0.0425248
-0.0413909
-0.0424148
-0.0408076
-0.0391865
-0.0401871
-0.0390859
-0.036828
-0.0373176
-0.0382895
-0.0377994
-0.0373828
-0.0346787
-0.0351885
-0.0362038
-0.0357006
-0.035705
-0.0327917
-0.0332226
-0.0345936
-0.0336278
-0.0340426
-0.0323809
-0.0307036
-0.0289949
-0.0272416
-0.0254407
-0.0235997
-0.0217317
-0.0198587
-0.0184322
-0.0170091
-0.0155839
-0.0141417
-0.0126624
-0.0111447
-0.0096007
-0.00804351
-0.00648858
-0.00491678
-0.00329548
-0.0015234
-0.000377238
2.91895e-05
-0.000147182
-0.000307715
-0.000468941
-0.000564434
-0.000780648
-0.00101519
-0.00127474
-0.0014253
-0.00172529
-0.00203143
-0.00234125
-0.046357
-0.0445962
-0.0434401
-0.0444839
-0.0428385
-0.0411945
-0.0422135
-0.041083
-0.0387914
-0.0392894
-0.0402773
-0.0397776
-0.039336
-0.0367103
-0.0371999
-0.0381717
-0.0376851
-0.0376162
-0.0359174
-0.0342238
-0.032519
-0.0307845
-0.0290098
-0.0271843
-0.0253206
-0.0234281
-0.0215258
-0.0196384
-0.0182239
-0.0168258
-0.0154324
-0.0140307
-0.0125953
-0.0111172
-0.00960144
-0.00805271
-0.00649099
-0.00490716
-0.00330031
-0.00149495
-0.000403628
4.93879e-05
-0.000116303
-0.000230553
-0.000373166
-0.000427237
-0.000637368
-0.000873386
-0.00113084
-0.048529
-0.0467168
-0.0455342
-0.0466005
-0.0449149
-0.0432412
-0.0442797
-0.0431204
-0.0407888
-0.0412987
-0.0423063
-0.041795
-0.041337
-0.0386741
-0.039169
-0.0401565
-0.0396627
-0.0395712
-0.0378306
-0.0361028
-0.0343702
-0.0326104
-0.0308085
-0.0289633
-0.0270743
-0.0251574
-0.0232267
-0.0213074
-0.0194209
-0.018005
-0.0166171
-0.0152464
-0.0138783
-0.0124854
-0.0110535
-0.00956993
-0.00803989
-0.00647603
-0.00487208
-0.00325878
-0.00141604
-0.000413824
7.23526e-05
-3.5018e-05
-0.000120303
-0.000246012
-0.0507183
-0.0488737
-0.0476756
-0.0487731
-0.0470368
-0.0453278
-0.0463861
-0.0452012
-0.0428284
-0.0433491
-0.0443776
-0.0438549
-0.0433788
-0.0406702
-0.0411766
-0.0421837
-0.041678
-0.0415734
-0.0397898
-0.0380243
-0.0362565
-0.0344698
-0.0326453
-0.0307731
-0.0288634
-0.0269207
-0.0249636
-0.0230124
-0.021091
-0.0192276
-0.0177893
-0.0163997
-0.015037
-0.0136923
-0.0123375
-0.0109492
-0.00950983
-0.00800839
-0.0064509
-0.00483096
-0.00320205
-0.00131189
-0.000407846
-0.052978
-0.0510649
-0.0498564
-0.0509825
-0.0491932
-0.0474532
-0.0485456
-0.0473252
-0.0449108
-0.0454437
-0.0464938
-0.0459595
-0.0454642
-0.0427086
-0.0432252
-0.0442543
-0.0437376
-0.0436193
-0.0417935
-0.0399874
-0.0381869
-0.0363679
-0.034517
-0.0326225
-0.0306865
-0.0287209
-0.0267365
-0.0247564
-0.0227998
-0.0208989
-0.0190837
-0.0175991
-0.0161861
-0.0148191
-0.0134854
-0.0121596
-0.0108115
-0.00941604
-0.00795284
-0.00642013
-0.00479887
-0.00315361
-0.0012128
-0.000396033
-0.0552729
-0.0533322
-0.0520965
-0.0532395
-0.0513906
-0.0496653
-0.0508263
-0.0494861
-0.0470354
-0.0475777
-0.0486409
-0.0480994
-0.0475899
-0.0447909
-0.0453191
-0.0463712
-0.0458431
-0.045708
-0.0438428
-0.041996
-0.0401566
-0.0383073
-0.0364272
-0.0345069
-0.0325486
-0.0305571
-0.0285475
-0.0265383
-0.0245498
-0.0226115
-0.0207554
-0.0190081
-0.0174559
-0.015997
-0.0146049
-0.0132703
-0.0119621
-0.0106478
-0.00929612
-0.00788158
-0.0063857
-0.00478128
-0.00313772
-0.00115608
-0.000397693
-0.0576182
-0.0556471
-0.054382
-0.0555527
-0.0536571
-0.0518738
-0.0530008
-0.0516893
-0.0491703
-0.049713
-0.0507719
-0.0504691
-0.0497539
-0.046918
-0.0474567
-0.0485148
-0.0479857
-0.0478351
-0.0459356
-0.0440481
-0.0421731
-0.0402876
-0.0383786
-0.0364311
-0.0344471
-0.0324323
-0.0303965
-0.0283597
-0.0263395
-0.0243671
-0.0224722
-0.0206818
-0.0190125
-0.0173789
-0.015855
-0.0144162
-0.0130597
-0.0117551
-0.0104653
-0.00915297
-0.0077863
-0.00634151
-0.0047751
-0.00315058
-0.00116173
-0.000428633
-0.0600293
-0.0580053
-0.0567167
-0.0579059
-0.055977
-0.0541634
-0.0553261
-0.0539536
-0.0513581
-0.0519532
-0.0531106
-0.0525303
-0.0519611
-0.0490411
-0.0495182
-0.0504211
-0.0500048
-0.048066
-0.0461469
-0.0442308
-0.0423124
-0.0403713
-0.0383966
-0.0363865
-0.0343457
-0.0322849
-0.0302204
-0.0281707
-0.0261633
-0.0242331
-0.0224023
-0.0206911
-0.0190962
-0.0173811
-0.0157792
-0.014275
-0.0128724
-0.0115524
-0.0102739
-0.00899312
-0.00767319
-0.00628374
-0.00477267
-0.00319252
-0.00123184
-0.000490315
-0.0625024
-0.0604218
-0.0590974
-0.0603477
-0.0583474
-0.0564969
-0.0576625
-0.0562733
-0.0537129
-0.0542943
-0.0554323
-0.054855
-0.0542279
-0.0522163
-0.0502408
-0.0482845
-0.0463365
-0.0443812
-0.0424079
-0.0404037
-0.0383669
-0.0363006
-0.0342135
-0.0321219
-0.0300427
-0.0280037
-0.0260353
-0.0241687
-0.0224164
-0.0207815
-0.019246
-0.0174605
-0.0157801
-0.0141987
-0.0127308
-0.0113708
-0.0100832
-0.00882285
-0.0075441
-0.00621143
-0.0047664
-0.00325004
-0.00135414
-0.000580246
-0.0650622
-0.0629071
-0.0615638
-0.0628109
-0.0607728
-0.0587689
-0.0597524
-0.0604222
-0.0586509
-0.0560391
-0.0566304
-0.0577899
-0.0572007
-0.0565492
-0.0544858
-0.0524621
-0.0504648
-0.0484817
-0.0464955
-0.04449
-0.042455
-0.0403903
-0.038297
-0.0361831
-0.0340643
-0.0319552
-0.0298847
-0.0278832
-0.0259777
-0.0241891
-0.0225143
-0.0209398
-0.0194401
-0.0176045
-0.0158578
-0.0141998
-0.0126533
-0.0112322
-0.00991132
-0.00865006
-0.00740309
-0.00612308
-0.00474561
-0.0033034
-0.00149946
-0.000685838
-0.0676398
-0.0654502
-0.064074
-0.0653662
-0.0632604
-0.0610635
-0.0617113
-0.0623231
-0.0629475
-0.0610855
-0.0583948
-0.0595594
-0.0590279
-0.0602712
-0.0589317
-0.0568123
-0.054736
-0.0526945
-0.0506742
-0.0486521
-0.0466155
-0.0445509
-0.0424575
-0.0403365
-0.0381954
-0.0360481
-0.0339101
-0.0318066
-0.029771
-0.0278298
-0.0260034
-0.0242933
-0.022683
-0.0211441
-0.0196501
-0.01779
-0.0159988
-0.0142769
-0.0126517
-0.0111532
-0.00977672
-0.00849342
-0.00725765
-0.00602062
-0.0047079
-0.00334548
-0.00164441
-0.000799236
-0.0703006
-0.0680199
-0.0666449
-0.0679648
-0.0657998
-0.0635871
-0.0642331
-0.0648604
-0.0654971
-0.0635776
-0.060944
-0.0615928
-0.0621972
-0.0628186
-0.0613727
-0.0596127
-0.0601833
-0.059198
-0.0570677
-0.0549779
-0.0529139
-0.0508587
-0.0487878
-0.0466923
-0.0445692
-0.0424206
-0.0402513
-0.0380756
-0.0359062
-0.0337709
-0.0316998
-0.0297229
-0.0278586
-0.0261117
-0.0244667
-0.0228963
-0.0213702
-0.0198571
-0.017989
-0.0161831
-0.0144169
-0.0127235
-0.0111456
-0.00969636
-0.00836728
-0.007121
-0.00591092
-0.00465294
-0.00337158
-0.00176835
-0.000921551
-0.0730252
-0.0706901
-0.0692849
-0.070632
-0.0683819
-0.0661396
-0.0667931
-0.0674177
-0.0681241
-0.0661184
-0.0634775
-0.0641217
-0.064729
-0.0653577
-0.0638687
-0.0608253
-0.0614583
-0.0620755
-0.0626854
-0.0616441
-0.0594593
-0.0573159
-0.0552076
-0.0531109
-0.0510084
-0.0488816
-0.0467286
-0.04455
-0.042352
-0.0401467
-0.0379471
-0.035778
-0.0336717
-0.0316564
-0.0297556
-0.0279711
-0.0262894
-0.0246853
-0.023129
-0.0215961
-0.0200571
-0.0181797
-0.0163842
-0.0145971
-0.0128569
-0.0112093
-0.00968238
-0.00828857
-0.00700666
-0.0058026
-0.0045872
-0.00338062
-0.00186075
-0.00105778
-0.0758028
-0.0734408
-0.0719879
-0.0733791
-0.0710516
-0.0687628
-0.069425
-0.0700792
-0.0707622
-0.0687123
-0.0660173
-0.0666596
-0.0672575
-0.0681121
-0.0664133
-0.0633466
-0.0639837
-0.0646075
-0.0652228
-0.0641441
-0.0619077
-0.0597132
-0.0575568
-0.0554184
-0.0532774
-0.0511178
-0.0489351
-0.0467268
-0.0444989
-0.0422635
-0.0400322
-0.0378295
-0.0356863
-0.0336327
-0.0316917
-0.0298683
-0.0281504
-0.0265104
-0.0249206
-0.0233535
-0.0217963
-0.0206078
-0.018361
-0.0197181
-0.0165808
-0.0147941
-0.0130299
-0.0113331
-0.00973642
-0.00826868
-0.00693142
-0.00570764
-0.00451671
-0.00337381
-0.00192255
-0.00121453
-0.078662
-0.0762374
-0.0747633
-0.0761822
-0.0738048
-0.0714674
-0.0721717
-0.0728392
-0.0735228
-0.0713811
-0.0685966
-0.0692554
-0.069912
-0.0705902
-0.0690128
-0.0658828
-0.0665025
-0.0670726
-0.0679361
-0.0666923
-0.0644109
-0.06217
-0.0599625
-0.0577808
-0.0556007
-0.053406
-0.0511903
-0.0489519
-0.0466934
-0.0444269
-0.0421629
-0.0399263
-0.0377458
-0.035653
-0.0336703
-0.0318075
-0.0300489
-0.0283721
-0.026746
-0.0251422
-0.0235422
-0.0223452
-0.0214555
-0.0206722
-0.0188649
-0.0167643
-0.0180572
-0.0198021
-0.0149861
-0.0132208
-0.0114982
-0.00985002
-0.00831154
-0.00690736
-0.00564015
-0.00445125
-0.00335283
-0.00196157
-0.00138927
-0.0816188
-0.0791107
-0.0776037
-0.0790519
-0.076616
-0.0742342
-0.0749515
-0.0756334
-0.0763314
-0.0741296
-0.0713429
-0.0720467
-0.0726894
-0.0733552
-0.0716848
-0.0693007
-0.0669671
-0.0646796
-0.062428
-0.060199
-0.0579779
-0.0557466
-0.0534974
-0.0512263
-0.0489369
-0.0466384
-0.0443411
-0.0420679
-0.0398505
-0.0377166
-0.0356948
-0.0337873
-0.03199
-0.0302733
-0.0286095
-0.0269693
-0.0253309
-0.0241104
-0.023204
-0.0223935
-0.0215193
-0.0209183
-0.020479
-0.0189299
-0.0172564
-0.0151534
-0.016455
-0.0181325
-0.0196193
-0.0200584
-0.0134073
-0.011684
-0.0100067
-0.0084115
-0.006938
-0.00561025
-0.00439995
-0.00332185
-0.00198984
-0.00156095
-0.084648
-0.0820682
-0.0805187
-0.0820001
-0.0795004
-0.0770632
-0.0777981
-0.0784951
-0.0792095
-0.0769507
-0.0741102
-0.0748262
-0.0754809
-0.07616
-0.0744322
-0.0719758
-0.0695837
-0.0672456
-0.0649473
-0.0626761
-0.0604132
-0.058142
-0.0558574
-0.053553
-0.0512306
-0.0488995
-0.0465681
-0.0442595
-0.0420017
-0.0398272
-0.0377595
-0.0358133
-0.0339713
-0.0322156
-0.0305128
-0.0288357
-0.0271621
-0.0259138
-0.0249927
-0.0241674
-0.023271
-0.0226582
-0.0222147
-0.0213466
-0.0217898
-0.0209304
-0.020492
-0.0191515
-0.0187595
-0.0173165
-0.015642
-0.0135698
-0.0148577
-0.0164994
-0.0179675
-0.0183638
-0.0196774
-0.0200593
-0.0118674
-0.0101862
-0.0085546
-0.00702041
-0.00562393
-0.00437153