/*--------------------------------*- C++ -*----------------------------------*\
| =========                 |                                                 |
| \\      /  F ield         | OpenFOAM: The Open Source CFD Toolbox           |
|  \\    /   O peration     | Version:  v1912                                 |
|   \\  /    A nd           | Website:  www.openfoam.com                      |
|    \\/     M anipulation  |                                                 |
\*---------------------------------------------------------------------------*/
FoamFile
{
    version     2.0;
    format      ascii;
    class       volScalarField;
    location    "240";
    object      p;
}
// * * * * * * * * * * * * * * * * * * * * * * * * * * * * * * * * * * * * * //

dimensions      [0 2 -2 0 0 0 0];


internalField   nonuniform List<scalar> 
3675
(
0.00186879
0.00211999
0.0016923
0.00193718
0.00153891
0.00218164
0.00177409
0.0013936
0.00239482
0.00201143
0.00162319
0.00126031
0.00258407
0.002222
0.00185276
0.00148367
0.00114005
0.0027386
0.00241211
0.00205757
0.00171226
0.00135912
0.0010243
0.00284678
0.00256749
0.00224644
0.0019156
0.00158008
0.00123797
0.000919323
0.00289379
0.0026772
0.00240495
0.00209743
0.00177452
0.00145211
0.00112811
0.000822934
0.00287264
0.00273011
0.00252053
0.00225314
0.00195521
0.00164532
0.00133956
0.0010285
0.000731268
0.00278524
0.00272094
0.00258677
0.00237506
0.00211017
0.00182253
0.00152831
0.00123369
0.000930271
0.000651305
0.00264161
0.00264213
0.00259715
0.00245101
0.00222729
0.00197229
0.00169901
0.00141735
0.00113402
0.000846455
0.000575529
0.00246213
0.00249468
0.00254877
0.00247902
0.00230431
0.00208772
0.00184444
0.0015857
0.00131524
0.00104386
0.000766548
0.00050749
0.0023
0.00226963
0.00244695
0.00246531
0.00233741
0.00215815
0.00195262
0.00172371
0.00147572
0.00121659
0.000961042
0.000693497
0.000439861
0.00222755
0.00197227
0.00228931
0.00241645
0.00232578
0.00217992
0.00201684
0.00182598
0.00161206
0.00137662
0.00113445
0.000883384
0.000624692
0.000383542
0.00224995
0.00170064
0.00199235
0.00203826
0.00234953
0.00227525
0.00215492
0.00203194
0.00188533
0.00171391
0.00150921
0.00128698
0.00104825
0.000809635
0.00056413
0.000332243
0.00226376
0.00213207
0.00187169
0.0017098
0.00140127
0.00200681
0.0022604
0.00219169
0.00208098
0.00199569
0.0018954
0.001768
0.00160162
0.00141025
0.00119707
0.000973367
0.000745046
0.000507478
0.000288271
0.0021918
0.00208047
0.00195154
0.00191821
0.00141523
0.00209611
0.00185941
0.00133441
0.00183624
0.00198526
0.0020863
0.0019628
0.00191307
0.00185584
0.00177273
0.00165149
0.00150007
0.00131979
0.00111934
0.000904597
0.000686359
0.00046061
0.000249694
0.0020571
0.0021806
0.00200121
0.00191164
0.00194677
0.00175681
0.000961907
0.00189242
0.00192112
0.00183966
0.00182307
0.00115455
0.0018348
0.00181096
0.00188476
0.00181455
0.00179125
0.00177268
0.00172857
0.0016537
0.00154625
0.00140644
0.00123628
0.00104447
0.000843127
0.000634412
0.000418049
0.000217278
0.00202042
0.0021124
0.00193672
0.00187946
0.00183065
0.00184708
0.000316312
0.00145405
0.00184632
0.00166827
0.00164977
0.00165779
0.00167375
0.00184978
0.00177154
0.00255867
0.00204659
0.00174978
0.00182458
0.00163605
0.00165129
0.00164132
0.00160774
0.00154373
0.00144838
0.00131665
0.00115836
0.000979231
0.000781465
0.00058878
0.000382121
0.000192325
0.00199016
0.00205934
0.00171576
0.00174402
-0.000995984
0.00288746
0.00167257
0.00167193
0.0015645
0.00150422
0.00147113
0.00148048
0.00152078
0.00156133
0.00154427
0.00177643
0.00208054
0.00228777
0.00170126
0.00150013
0.00151856
0.00151728
0.00149339
0.00144327
0.00135496
0.00123373
0.00108363
0.000911707
0.000736565
0.000548847
0.000353542
0.000172073
-0.00350332
0.00161872
0.00157213
0.00148678
0.00148713
0.00142874
0.00135891
0.00133352
0.00132106
0.00137062
0.0014364
0.00144179
0.00149689
0.00152095
0.00136923
0.00139081
0.00140335
0.00139278
0.00134781
0.00126845
0.00115512
0.00101457
0.00086217
0.00069036
0.00051522
0.000329432
0.000160259
0.00144928
0.00144004
0.00136987
0.00135083
0.0012786
0.00122146
0.0012014
0.00118099
0.00121925
0.00128484
0.00130732
0.00138185
0.00141687
0.00124424
0.00128179
0.0013019
0.00129641
0.00125857
0.00118558
0.00108143
0.000956861
0.000810984
0.000655202
0.00049103
0.000315402
0.000150327
0.00133166
0.00131023
0.00122532
0.0011978
0.0011392
0.00108949
0.00107989
0.00104862
0.00108216
0.00113287
0.00116094
0.00123252
0.00127966
0.0011365
0.00117756
0.00120351
0.00120598
0.00117257
0.0011061
0.00101423
0.000900616
0.000771347
0.000624314
0.00047088
0.000303628
0.000153008
0.00118468
0.00115768
0.00108201
0.00105333
0.0010045
0.000971147
0.000972445
0.000925709
0.000952524
0.000994164
0.00102113
0.00108134
0.00112919
0.0010288
0.00108138
0.00111437
0.00111635
0.00108904
0.00103144
0.000949871
0.000851209
0.000731952
0.000599809
0.000456514
0.00029892
0.000157931
0.00103812
0.00101534
0.00094757
0.000920351
0.000883054
0.000859815
0.000866745
0.000818801
0.000834389
0.000865389
0.000891693
0.000942689
0.000984674
0.000934959
0.000992054
0.00102566
0.00103581
0.00101017
0.000959811
0.000892487
0.000808288
0.000707247
0.000584523
0.000448477
0.000304275
0.000172716
0.000902922
0.000882597
0.000825482
0.000797736
0.000770489
0.000754919
0.000773089
0.000715695
0.000726246
0.000747546
0.000776242
0.000814618
0.0008547
0.000843295
0.000904904
0.000946278
0.000950766
0.000929727
0.00089308
0.000844008
0.000776698
0.000685353
0.000573784
0.000449754
0.000314018
0.000183448
0.000779503
0.000760615
0.000711872
0.000685765
0.00066728
0.000660578
0.000681679
0.000621812
0.000625042
0.000641507
0.000665924
0.000694565
0.000740953
0.00076125
0.000824182
0.000858454
0.000866097
0.000852736
0.000831951
0.000802784
0.000751353
0.000672145
0.000567882
0.000453749
0.000319489
0.000206699
0.000668436
0.000647037
0.000605747
0.000589235
0.000572158
0.000572255
0.000599146
0.000532528
0.000532639
0.000543003
0.000563197
0.000589638
0.00063061
0.000679662
0.000742859
0.000778885
0.000780617
0.000778852
0.000780356
0.000772139
0.000734204
0.00066038
0.000568312
0.000459837
0.000342616
0.0002343
0.000564499
0.000550005
0.000509932
0.000494396
0.000484189
0.000490936
0.000519823
0.00044886
0.000445893
0.000452857
0.000470867
0.000496628
0.00052315
0.000605383
0.000666676
0.000685566
0.000692508
0.000713137
0.000743334
0.000751284
0.000719863
0.000657932
0.000569846
0.00047956
0.000365109
0.00026842
0.000467528
0.000455451
0.000420324
0.00040822
0.00040221
0.000417649
0.000447607
0.00036654
0.000365668
0.000368096
0.000385326
0.000407373
0.000431279
0.000530014
0.00057562
0.000587287
0.000608493
0.00066396
0.000721808
0.000736896
0.000708865
0.000654204
0.000584002
0.000494024
0.000398291
0.000309607
0.000377849
0.0003698
0.000339507
0.000325513
0.00032549
0.000345773
0.000373017
0.000290014
0.000287277
0.000290058
0.000307609
0.000322729
0.000346307
0.000451939
0.000479343
0.000481914
0.000540503
0.000641795
0.000708039
0.000721549
0.000700799
0.000656136
0.000593637
0.00052397
0.000433298
0.000354443
0.00029831
0.000286342
0.000261647
0.000253066
0.000255043
0.000275379
0.000305731
0.000216525
0.00021156
0.000214298
0.000228148
0.000245635
0.000269659
0.000368178
0.000353957
0.000383294
0.000514487
0.000635329
0.000695011
0.000707089
0.000692318
0.000660881
0.000613872
0.000554265
0.000476531
0.000411909
0.000218313
0.000224228
0.000188736
0.000181899
0.000184879
0.000206693
0.000233848
0.000139836
0.000139423
0.000141693
0.000157082
0.000169845
0.000184888
0.000250252
0.000219399
0.00034112
0.00052154
0.000633719
0.000673269
0.000685831
0.000687165
0.000671336
0.000641476
0.000594955
0.000528951
0.000477779
0.00014552
0.000152894
0.00012227
0.000108584
0.000113959
0.000139032
0.000152508
5.85211e-05
6.89782e-05
6.92543e-05
9.03262e-05
9.88658e-05
0.00011493
9.66437e-05
0.000121198
0.000371428
0.000546921
0.000608916
0.000639453
0.000667341
0.000683645
0.00068909
0.000672536
0.00064246
0.00058972
0.000554063
8.1353e-05
7.80959e-05
5.20345e-05
3.97149e-05
4.23892e-05
7.59649e-05
4.77267e-05
-3.21899e-05
-1.16178e-05
-2.26066e-06
2.07191e-05
2.69773e-05
5.0879e-05
-0.000121723
0.000174233
0.000448129
0.000525371
0.000560356
0.000605114
0.000649658
0.000688906
0.00071067
0.000714456
0.000694154
0.000663132
0.000641146
1.06046e-05
1.21495e-05
-1.67568e-05
-3.36794e-05
-2.7314e-05
7.60168e-06
-0.000265131
-0.000125217
-8.97953e-05
-8.12947e-05
-5.07604e-05
-4.18995e-05
-1.88051e-05
-0.000118235
0.000350726
0.000431418
0.00045621
0.000508192
0.000572242
0.000638305
0.000694998
0.000737767
0.000754892
0.000768566
0.000744679
0.00074067
-5.85944e-05
-6.03407e-05
-8.59472e-05
-0.000114885
-0.000103132
-0.0001085
-0.000488309
-0.000452888
-0.00015056
-0.000169364
-0.000126614
-0.000116802
-8.7863e-05
0.000257451
0.000340571
0.000337683
0.000386668
0.000459466
0.000542451
0.000627663
0.000706576
0.000770087
0.000820465
0.000837493
0.000840802
0.000853557
-0.000133321
-0.000135742
-0.00016846
-0.00021133
-8.74543e-05
-0.000795721
0.000130699
-0.000355113
-0.000182787
-0.000275063
-0.000199727
-0.000202587
-0.000166568
0.000252687
0.000202602
0.000247809
0.00032249
0.000411974
0.00051453
0.000622327
0.000726134
0.000816796
0.000879386
0.000933141
0.000944279
0.000974037
-0.000213111
-0.000236273
-0.000197573
-0.000275591
-0.00141135
-7.5282e-06
0.000117816
-2.56703e-05
-0.000459488
4.18162e-06
-7.23411e-05
-0.000312673
-0.000259366
6.03691e-05
9.78143e-05
0.000173332
0.000262369
0.000368018
0.000488179
0.000618899
0.000749821
0.00086489
0.000964025
0.00102263
0.00106427
0.00112065
-0.000298103
-0.000336803
0.000381838
-0.00226093
4.55567e-06
-0.000153928
-8.00063e-05
-0.000126464
-0.000167508
-5.04055e-05
0.0005677
-0.000132962
-0.000269062
-5.60631e-05
2.40561e-05
0.000106874
0.000203266
0.000320548
0.000463277
0.000620699
0.000780837
0.000927525
0.00104589
0.00114185
0.00120202
0.00128028
9.25843e-05
-0.00448133
-0.000157496
-0.000196786
-0.00024661
-0.000216791
-0.000192473
-0.000209237
-0.000241877
-0.00027891
-0.000317086
-0.000123142
-4.59143e-05
3.49162e-05
0.000139697
0.000276003
0.000442054
0.000628968
0.000820462
0.00100021
0.00114725
0.00127117
0.00135425
0.00145485
-0.000307046
-0.000288199
-0.000270889
-0.000282993
-0.000260797
-0.000287708
-0.000293873
-0.000287916
-0.000301507
-0.00019096
-0.000122864
-3.70672e-05
7.94728e-05
0.000231713
0.000421661
0.000640126
0.000867348
0.001077
0.00126642
0.00141254
0.00152453
0.0016545
-0.000306733
-0.000311515
-0.000336109
-0.000350039
-0.00033081
-0.000361647
-0.00036698
-0.000337374
-0.000339191
-0.000266752
-0.000199788
-0.000110929
1.33582e-05
0.000184775
0.000404389
0.000658183
0.000921058
0.00117491
0.00139344
0.00157733
0.00172
0.0018721
-0.000366079
-0.000381802
-0.000405769
-0.000415539
-0.000400415
-0.000435982
-0.000438632
-0.000419919
-0.000409074
-0.000346526
-0.000280779
-0.000189117
-5.52141e-05
0.000139193
0.000391347
0.00068164
0.000988426
0.00128772
0.00154078
0.00176512
0.00192734
0.00210747
-0.000440669
-0.00045516
-0.000476649
-0.000483382
-0.000477963
-0.000508321
-0.00050727
-0.000490569
-0.000480945
-0.000424834
-0.000363231
-0.000272847
-0.000124984
9.49517e-05
0.000380482
0.000715954
0.00107223
0.00140584
0.0017116
0.00195576
0.00216933
0.00236646
-0.00051202
-0.000526736
-0.00054289
-0.000556924
-0.000553604
-0.000583059
-0.000577887
-0.000563763
-0.000545822
-0.00050922
-0.000458031
-0.00036475
-0.000197631
4.95512e-05
0.000376094
0.000756982
0.00115538
0.00154244
0.00188702
0.00219227
0.00243571
0.00268823
-0.000580916
-0.000595261
-0.000614268
-0.000629234
-0.000634271
-0.00066143
-0.000651101
-0.000630417
-0.000616659
-0.000605149
-0.00056223
-0.000461422
-0.000274164
7.77414e-06
0.000375313
0.00080452
0.00125661
0.00170098
0.00209856
0.00245506
0.00275464
0.00303742
-0.000644766
-0.000664051
-0.00068766
-0.000704909
-0.000722799
-0.000737147
-0.000725672
-0.000702883
-0.00068683
-0.000712779
-0.000674704
-0.000558701
-0.000347137
-3.15728e-05
0.000380151
0.000863168
0.0013797
0.00187153
0.00234276
0.00273102
0.00328914
0.00126797
-0.000722258
-0.000737991
-0.000762151
-0.000781482
-0.000825796
-0.000819337
-0.000798385
-0.00077505
-0.000760625
-0.000838776
-0.000796161
-0.000656308
-0.000421288
-7.20158e-05
0.000389243
0.00093281
0.00150436
0.00208313
0.00255977
0.0033363
0.00147902
-0.000795071
-0.000811158
-0.000837888
-0.000866159
-0.000953682
-0.000910535
-0.000875303
-0.000846907
-0.000833172
-0.000982659
-0.000905269
-0.00075774
-0.000502599
-0.00011199
0.000406029
0.00100871
0.00166482
0.00224015
0.00312291
0.00153885
-0.000871544
-0.000889112
-0.000910335
-0.00097341
-0.00109521
-0.00111433
-0.000941653
-0.000929166
-0.000908613
-0.00109888
-0.00101633
-0.000867021
-0.000585192
-0.000146904
0.000426629
0.00111066
0.00176256
0.00272376
0.00139525
-0.000948823
-0.000969857
-0.00094049
-0.0014259
-0.00123372
-0.0011402
-0.000919919
-0.0010133
-0.000989921
-0.00120113
-0.00114364
-0.000986406
-0.000668252
-0.000182048
0.000467035
0.00115703
0.00215582
0.00112546
-0.00103561
-0.0010637
-0.00372041
-0.00212269
-0.00122294
-0.00132966
-0.00131039
-0.00155911
-0.00140367
-0.0011368
0.00138825
-0.0010994
-0.00133385
-0.00128962
-0.00111107
-0.000753801
-0.000204118
0.000464072
0.00144237
0.000770824
-0.000961445
-0.00136276
-0.00133825
-0.00135969
-0.00145588
-0.00141758
-0.00135392
-0.00135201
-0.00136221
-0.0013786
-0.000686567
-0.00149305
-0.00144477
-0.00123799
-0.000833617
-0.00025072
0.000631527
0.000360722
-0.00127908
-0.00137401
-0.00137557
-0.00137613
-0.00139597
-0.0014784
-0.00161337
-0.00155197
-0.00143004
-0.00145208
-0.00137512
-0.00138099
-0.00144412
-0.00143741
-0.00166737
-0.00160633
-0.00136757
-0.000917542
-0.000203609
-6.49955e-05
-0.00141349
-0.00140546
-0.00139565
-0.00141714
-0.00148855
-0.00151788
-0.00162229
-0.00179313
-0.00170737
-0.00155491
-0.00159375
-0.00144254
-0.00147165
-0.00139341
-0.00139896
-0.0018519
-0.00177639
-0.00148153
-0.00098632
-0.000471806
-0.00140732
-0.00143294
-0.00150495
-0.00153463
-0.00162249
-0.00166616
-0.00178577
-0.00198906
-0.00188473
-0.00170332
-0.00174828
-0.00157427
-0.00160736
-0.00145161
-0.00148452
-0.00205586
-0.00191773
-0.00165462
-0.000826545
-0.00151602
-0.00154852
-0.00163806
-0.00168132
-0.00177993
-0.00182857
-0.00196918
-0.00221769
-0.00208023
-0.00187316
-0.00191842
-0.00171931
-0.00175856
-0.00158427
-0.00161849
-0.00223535
-0.00217761
-0.00110769
-0.00165063
-0.00169003
-0.00179674
-0.00183777
-0.00195785
-0.00201121
-0.00218195
-0.00245
-0.0023154
-0.00206256
-0.00211017
-0.0018843
-0.00192635
-0.00172934
-0.00176696
-0.0025708
-0.0013125
-0.00180501
-0.00184277
-0.00197199
-0.00201831
-0.00216093
-0.00221769
-0.00241377
-0.00290267
-0.00254358
-0.00228038
-0.00233702
-0.00206606
-0.00211617
-0.00189516
-0.00193239
-0.00145255
-0.00197714
-0.00202223
-0.00216808
-0.00222153
-0.00239191
-0.00245616
-0.00272211
-0.00167636
-0.00301886
-0.00251211
-0.00257581
-0.0022787
-0.00233447
-0.00207169
-0.00211486
-0.00216709
-0.00222089
-0.00239357
-0.0024526
-0.00264926
-0.00274077
-0.00319584
-0.00159168
-0.00286916
-0.00298095
-0.00251106
-0.00257565
-0.00227715
-0.00233086
-0.00238688
-0.00244297
-0.00265361
-0.00274312
-0.00310171
-0.00335195
-0.00330443
-0.00136605
-0.00284853
-0.00295174
-0.00250132
-0.00256021
-0.00263291
-0.00272124
-0.00306759
-0.0033662
-0.00362872
-0.00133891
-0.00282087
-0.00293373
-0.00305158
-0.0033454
-0.00392956
-0.00164384
-0.0198408
-0.0189648
-0.0197949
-0.0190966
-0.0186355
-0.0196347
-0.0199082
-0.0187392
-0.0182619
-0.0194472
-0.0203909
-0.0187106
-0.0203585
-0.0183509
-0.0178567
-0.0210763
-0.019753
-0.0177894
-0.0211827
-0.017907
-0.0207919
-0.0179675
-0.0174627
-0.0227167
-0.0214052
-0.020062
-0.0181309
-0.0161715
-0.0171025
-0.0220355
-0.0212307
-0.0175668
-0.0170837
-0.024378
-0.0230863
-0.022883
-0.0217199
-0.0203507
-0.0184407
-0.0165217
-0.0145939
-0.015516
-0.0163103
-0.0167727
-0.017179
-0.0216891
-0.0221249
-0.0166771
-0.0259549
-0.0247842
-0.0237326
-0.0245862
-0.0234103
-0.0225283
-0.0229371
-0.0220081
-0.0206102
-0.0187255
-0.0168361
-0.0149377
-0.0130419
-0.013948
-0.0147336
-0.0151854
-0.0155872
-0.0159755
-0.0163713
-0.0162569
-0.0265112
-0.0254246
-0.0263113
-0.027249
-0.0272402
-0.0251202
-0.0233779
-0.0238163
-0.024225
-0.0246429
-0.0236957
-0.022268
-0.0208396
-0.018982
-0.0171211
-0.0152531
-0.0133823
-0.0115095
-0.0123997
-0.013175
-0.013618
-0.0140138
-0.014398
-0.0147878
-0.0150856
-0.0154876
-0.0158665
-0.0282951
-0.026865
-0.0250823
-0.0255277
-0.0271437
-0.0259606
-0.0264021
-0.0282083
-0.0283418
-0.0254073
-0.0239561
-0.0225001
-0.0210341
-0.0192063
-0.0173761
-0.0155381
-0.0136966
-0.0118505
-0.00999461
-0.0108695
-0.0116355
-0.0120713
-0.0124619
-0.0128412
-0.0132257
-0.0135178
-0.0139139
-0.014288
-0.0146725
-0.0300918
-0.0286358
-0.0271509
-0.0268429
-0.0272884
-0.0275426
-0.0279336
-0.0283176
-0.029113
-0.0292972
-0.0256731
-0.0241896
-0.022701
-0.0211841
-0.019393
-0.0175971
-0.0157924
-0.0139789
-0.0121653
-0.0103407
-0.00849483
-0.00935333
-0.0101119
-0.0105423
-0.0109285
-0.0113041
-0.0116833
-0.0119709
-0.0123623
-0.0127318
-0.0131113
-0.0319364
-0.0304256
-0.0302473
-0.0289252
-0.0274201
-0.0276654
-0.0281561
-0.0287598
-0.0300467
-0.0292165
-0.0259135
-0.024393
-0.0228592
-0.0212791
-0.0195345
-0.01778
-0.0160117
-0.0142294
-0.0124449
-0.0106572
-0.00884956
-0.00701466
-0.00784546
-0.00859866
-0.00902583
-0.00940862
-0.00978168
-0.0101573
-0.0104413
-0.0108285
-0.0111957
-0.0115693
-0.0338317
-0.0322747
-0.0311773
-0.0321223
-0.0307335
-0.0292015
-0.0276644
-0.0280947
-0.028642
-0.0301374
-0.0309795
-0.0296714
-0.0291092
-0.0261208
-0.0245594
-0.0229596
-0.0213048
-0.0196234
-0.0179156
-0.0161884
-0.0144414
-0.0126873
-0.0109323
-0.00916746
-0.00737354
-0.0055636
-0.0063385
-0.00708864
-0.00751494
-0.00789596
-0.008268
-0.00864129
-0.00892299
-0.00930755
-0.00967275
-0.0100437
-0.0357463
-0.0341613
-0.0330655
-0.0340256
-0.0325865
-0.0319188
-0.0310174
-0.0294516
-0.0278794
-0.0285431
-0.030608
-0.0300381
-0.0310806
-0.0295706
-0.028997
-0.0262909
-0.0246679
-0.0229916
-0.0212499
-0.0196397
-0.0179922
-0.0163189
-0.0146116
-0.0128886
-0.0111629
-0.00943508
-0.00768867
-0.00590145
-0.0041299
-0.0048925
-0.00558224
-0.00599911
-0.0063805
-0.00675542
-0.00712784
-0.00740843
-0.00779204
-0.00815725
-0.00852674
-0.0377045
-0.0360738
-0.0349759
-0.0359527
-0.0344718
-0.0328597
-0.0338181
-0.0328709
-0.0320113
-0.0315386
-0.0312728
-0.0296723
-0.0280523
-0.0305073
-0.029922
-0.0309777
-0.029462
-0.0264032
-0.0247062
-0.0229409
-0.0211102
-0.0195782
-0.0180014
-0.0163897
-0.0147335
-0.0130477
-0.0113503
-0.00965064
-0.00794586
-0.00620671
-0.0044377
-0.0026864
-0.00344679
-0.00417194
-0.00452683
-0.00485289
-0.0052184
-0.00559586
-0.00588253
-0.00627177
-0.00663988
-0.0070122
-0.0397004
-0.0380374
-0.0369214
-0.0379157
-0.0363872
-0.0347885
-0.0357885
-0.0347577
-0.0324846
-0.0329615
-0.0339027
-0.0334228
-0.0331285
-0.0319117
-0.0314412
-0.0314944
-0.029849
-0.0281724
-0.0303951
-0.0308602
-0.0264467
-0.0246607
-0.0228039
-0.0208911
-0.0194367
-0.0179368
-0.0163946
-0.0147978
-0.0131547
-0.0114884
-0.00981495
-0.00814011
-0.00644841
-0.00471616
-0.0029571
-0.00129226
-0.00208779
-0.00271776
-0.00307033
-0.00341837
-0.00377718
-0.00421689
-0.00424581
-0.0046622
-0.00506736
-0.0054685
-0.0417246
-0.0400471
-0.0389055
-0.0399222
-0.0383504
-0.0367456
-0.0377068
-0.0366759
-0.0343798
-0.0348696
-0.0359067
-0.0353421
-0.0350155
-0.0323836
-0.0328567
-0.0337923
-0.0333208
-0.0333527
-0.0317952
-0.0313318
-0.031676
-0.0299719
-0.0282192
-0.0264057
-0.0245254
-0.0225854
-0.0206082
-0.0192208
-0.0177947
-0.0163259
-0.014798
-0.0132094
-0.0115786
-0.0099295
-0.00827479
-0.00661505
-0.00492537
-0.00317387
-0.00142703
-0.00024427
-0.000890859
-0.00142943
-0.00175661
-0.00206418
-0.00238282
-0.00270559
-0.00292115
-0.00324256
-0.00355104
-0.00423459
-0.0437929
-0.0420851
-0.040928
-0.0419611
-0.0403609
-0.0386986
-0.0397088
-0.0386379
-0.0363346
-0.0368016
-0.0377868
-0.0372847
-0.0369362
-0.0342588
-0.0347201
-0.0359302
-0.0351651
-0.0352418
-0.0322727
-0.0327404
-0.0336778
-0.0332139
-0.0335363
-0.0318029
-0.030023
-0.0281823
-0.0262755
-0.024308
-0.0223
-0.0202776
-0.0189433
-0.0175802
-0.0161816
-0.0147265
-0.0132027
-0.0116189
-0.00999921
-0.00835962
-0.00671406
-0.00504907
-0.00332493
-0.00150481
-0.000309758
-1.81016e-05
-0.000391655
-0.000659138
-0.0008932
-0.00115681
-0.00142723
-0.00161853
-0.00193491
-0.00224867
-0.00257481
-0.00278903
-0.00311446
-0.00343094
-0.00434352
-0.0459085
-0.0441614
-0.0429885
-0.0440384
-0.0424075
-0.0407245
-0.0417517
-0.0406457
-0.0382999
-0.0388042
-0.0398023
-0.039298
-0.0388975
-0.0361128
-0.0366225
-0.0376591
-0.037144
-0.0371638
-0.0341473
-0.0345948
-0.0359111
-0.0350198
-0.0354273
-0.0336657
-0.0318585
-0.0299906
-0.0280556
-0.0260605
-0.0240227
-0.0219654
-0.0199182
-0.0186203
-0.0173079
-0.0159687
-0.0145841
-0.0131306
-0.011605
-0.0100221
-0.00839901
-0.00676099
-0.00509858
-0.00339779
-0.00152959
-0.000346357
5.34433e-05
-8.95029e-05
-0.00025786
-0.000436301
-0.000546396
-0.000777111
-0.00102722
-0.00130353
-0.00146784
-0.00178653
-0.0021114
-0.00243992
-0.0480795
-0.0462834
-0.0450892
-0.0461579
-0.04449
-0.0427854
-0.0438303
-0.0426958
-0.0403175
-0.0408294
-0.0418435
-0.0413301
-0.0409036
-0.0381785
-0.038682
-0.0396806
-0.0391804
-0.0391278
-0.037355
-0.0355612
-0.0337256
-0.0318296
-0.029869
-0.027844
-0.0257766
-0.0236864
-0.0216009
-0.0195521
-0.0182697
-0.0169923
-0.0157006
-0.0143766
-0.0129912
-0.0115307
-0.00999838
-0.00840287
-0.00676905
-0.00509664
-0.00340295
-0.00149943
-0.00036476
6.97449e-05
-5.82689e-05
-0.000184464
-0.000342138
-0.000406786
-0.000629959
-0.000880887
-0.00115474
-0.0502982
-0.0484535
-0.0472339
-0.0483239
-0.046617
-0.0448836
-0.045947
-0.0447848
-0.0423682
-0.0428914
-0.0439245
-0.0434003
-0.0429569
-0.0401968
-0.0407053
-0.0417191
-0.0412118
-0.0411348
-0.03932
-0.0374917
-0.0356272
-0.0337039
-0.0317128
-0.0296628
-0.0275639
-0.0254416
-0.0233188
-0.0212287
-0.0192005
-0.0179131
-0.0166502
-0.0153918
-0.0141172
-0.0127944
-0.0114038
-0.00992914
-0.00837415
-0.00675533
-0.00507244
-0.00336941
-0.00142656
-0.000364286
8.90874e-05
1.6618e-05
-7.71307e-05
-0.000214254
-0.0525255
-0.0506557
-0.0494242
-0.0505437
-0.0487877
-0.0470205
-0.048103
-0.0469157
-0.0444597
-0.0449932
-0.0460462
-0.0455113
-0.0450497
-0.0422461
-0.0427656
-0.0437983
-0.0432799
-0.0431885
-0.0413303
-0.0394639
-0.0375631
-0.0356109
-0.0335938
-0.0315125
-0.0293868
-0.0272318
-0.0250743
-0.0229431
-0.0208705
-0.0188921
-0.0175711
-0.0163037
-0.0150584
-0.0138184
-0.0125497
-0.0112231
-0.00981616
-0.00831495
-0.00672393
-0.00504149
-0.00332718
-0.00134114
-0.000347477
-0.0548331
-0.0528875
-0.0516464
-0.0527881
-0.0509891
-0.0491952
-0.0503135
-0.0490878
-0.0465927
-0.0471376
-0.0482115
-0.0476658
-0.0471846
-0.0443365
-0.0448658
-0.0459197
-0.0453907
-0.0452846
-0.0433841
-0.0414768
-0.039542
-0.0375557
-0.0355093
-0.0334014
-0.0312442
-0.0290595
-0.0268671
-0.0246985
-0.0225813
-0.020556
-0.0186578
-0.0172729
-0.0159721
-0.0147206
-0.0134972
-0.0122691
-0.0109991
-0.00965684
-0.00821771
-0.00667613
-0.00501456
-0.00329567
-0.0012723
-0.000328782
-0.0571712
-0.0551998
-0.0539323
-0.0550985
-0.0532281
-0.0514515
-0.0526175
-0.0512932
-0.0487667
-0.04932
-0.0504095
-0.0498562
-0.0493575
-0.0464694
-0.0470098
-0.048086
-0.0475461
-0.0474218
-0.0454822
-0.0435339
-0.0415594
-0.0395409
-0.0374627
-0.0353253
-0.0331407
-0.0309241
-0.0286993
-0.0264932
-0.0243353
-0.0222634
-0.0203158
-0.0185191
-0.0170456
-0.0156823
-0.0143968
-0.0131717
-0.0119673
-0.0107432
-0.00946188
-0.00809205
-0.00661141
-0.00499222
-0.00329438
-0.00125259
-0.000329928
-0.0595565
-0.0575577
-0.0562606
-0.0574528
-0.0555376
-0.053707
-0.0548551
-0.0535384
-0.0509562
-0.0515113
-0.0525909
-0.0522396
-0.0515657
-0.0486456
-0.0491957
-0.0502792
-0.0497376
-0.0495951
-0.0476224
-0.0456334
-0.0436225
-0.0415663
-0.0394566
-0.0372886
-0.0350738
-0.0328281
-0.0305703
-0.028329
-0.0261305
-0.0240157
-0.0220207
-0.0201737
-0.0184859
-0.0169104
-0.0154625
-0.0141155
-0.0128605
-0.0116595
-0.0104672
-0.00923771
-0.00793332
-0.00652495
-0.00496809
-0.00331342
-0.00129331
-0.000366931
-0.062007
-0.0599563
-0.0586363
-0.0598457
-0.0578997
-0.0560366
-0.0572199
-0.055845
-0.0531859
-0.0537892
-0.0549639
-0.0543728
-0.0538151
-0.0508182
-0.0513129
-0.0521497
-0.0518087
-0.049798
-0.047778
-0.0457256
-0.0436352
-0.0414913
-0.0392928
-0.0370477
-0.0347709
-0.0324817
-0.0302053
-0.0279692
-0.0258105
-0.0237715
-0.0218767
-0.0201412
-0.0185521
-0.0168786
-0.0153335
-0.0139033
-0.0125886
-0.0113651
-0.0101848
-0.00899474
-0.00775039
-0.00641517
-0.00493485
-0.00334926
-0.00138662
-0.000440296
-0.0645189
-0.0624118
-0.0610569
-0.0623202
-0.0603106
-0.0584112
-0.0595966
-0.058206
-0.0555761
-0.0561687
-0.0573269
-0.056739
-0.0561237
-0.0540622
-0.0520161
-0.0499596
-0.0478754
-0.0457471
-0.043569
-0.0413381
-0.0390627
-0.0367555
-0.0344343
-0.0321238
-0.0298503
-0.0276514
-0.0255656
-0.0236271
-0.0218444
-0.0202113
-0.0186977
-0.0169428
-0.015304
-0.0137792
-0.0123826
-0.0111066
-0.00991137
-0.00874364
-0.00754896
-0.00628463
-0.00488708
-0.00338814
-0.00151381
-0.000546765
-0.0671156
-0.0649353
-0.0635617
-0.0648275
-0.062775
-0.0607252
-0.0616755
-0.0623861
-0.060624
-0.0579443
-0.0585459
-0.0597245
-0.0591255
-0.0584857
-0.056373
-0.0542791
-0.0521822
-0.0500633
-0.0479033
-0.0456915
-0.0434272
-0.0411205
-0.0387821
-0.0364286
-0.0340845
-0.0317734
-0.0295347
-0.0274073
-0.0254219
-0.0235962
-0.0219185
-0.0203634
-0.0188946
-0.0170838
-0.0153684
-0.0137535
-0.0122627
-0.0109103
-0.00967025
-0.008497
-0.00733737
-0.00613542
-0.00481832
-0.00341345
-0.00164516
-0.000673233
-0.0697185
-0.0675136
-0.0661104
-0.0674206
-0.0653004
-0.0630473
-0.0637078
-0.06433
-0.064964
-0.0630975
-0.0603401
-0.0615714
-0.0609848
-0.0622503
-0.0609081
-0.0587398
-0.0565936
-0.0544528
-0.052297
-0.0501007
-0.0478564
-0.0455605
-0.043222
-0.0408519
-0.0384663
-0.0360876
-0.0337406
-0.0314608
-0.0292908
-0.0272618
-0.0253915
-0.023673
-0.0220785
-0.020569
-0.0191099
-0.0172726
-0.0155071
-0.0138195
-0.0122379
-0.0107937
-0.00948395
-0.0082789
-0.00712737
-0.0059729
-0.00472982
-0.00342154
-0.00176128
-0.000811741
-0.0724137
-0.0701115
-0.0687154
-0.0700398
-0.067874
-0.0656142
-0.0662689
-0.0669068
-0.0675518
-0.0656267
-0.0629286
-0.0635873
-0.0642014
-0.0648325
-0.0633875
-0.0615896
-0.0621562
-0.0611646
-0.0589648
-0.0567759
-0.0545766
-0.0523467
-0.0500672
-0.0477386
-0.0453678
-0.0429665
-0.0405482
-0.0381356
-0.0357504
-0.0334311
-0.0312174
-0.0291447
-0.0272295
-0.0254687
-0.0238354
-0.0222915
-0.0207988
-0.0193218
-0.0174771
-0.0156943
-0.013958
-0.0123011
-0.0107664
-0.00937047
-0.00810699
-0.00693689
-0.00580816
-0.00462454
-0.00341087
-0.00184816
-0.000963165
-0.0751722
-0.0728142
-0.0713813
-0.0727486
-0.070486
-0.0682051
-0.0688649
-0.0694961
-0.0701918
-0.0682011
-0.0655016
-0.0661552
-0.0667722
-0.0674103
-0.0659198
-0.0628065
-0.0634498
-0.0640771
-0.0646967
-0.0636484
-0.0613946
-0.0591524
-0.0569089
-0.0546373
-0.0523253
-0.0499639
-0.0475609
-0.0451266
-0.0426756
-0.0402281
-0.0378066
-0.035446
-0.0331892
-0.0310702
-0.0291115
-0.0273073
-0.025633
-0.0240522
-0.0225268
-0.021027
-0.0195236
-0.0176738
-0.0158994
-0.0141414
-0.0124346
-0.0108237
-0.00933976
-0.00799915
-0.00678244
-0.00565366
-0.00451336
-0.00338335
-0.00190169
-0.00113177
-0.0779784
-0.0755974
-0.0741194
-0.0755264
-0.0731866
-0.0708538
-0.0715264
-0.072188
-0.072879
-0.0708255
-0.0680806
-0.0687354
-0.0693502
-0.0701637
-0.0684975
-0.0653682
-0.0660147
-0.0666477
-0.0672725
-0.0661838
-0.0638796
-0.0615868
-0.0592954
-0.056982
-0.0546309
-0.0522356
-0.0498008
-0.0473342
-0.0448496
-0.0423675
-0.0399083
-0.0375073
-0.0352057
-0.0330406
-0.0310347
-0.029186
-0.0274711
-0.0258512
-0.0242897
-0.0227537
-0.0212274
-0.0200619
-0.0178595
-0.0191943
-0.0160992
-0.0143426
-0.0126118
-0.0109491
-0.00938915
-0.00796484
-0.00668168
-0.00552402
-0.00440504
-0.00334255
-0.00192864
-0.00132061
-0.0808653
-0.0784231
-0.0769244
-0.0783582
-0.0759709
-0.0735908
-0.0743037
-0.0749782
-0.0756698
-0.0735245
-0.0707063
-0.0713595
-0.0720193
-0.0727036
-0.0711278
-0.0679423
-0.0685719
-0.0691577
-0.0699481
-0.0687647
-0.0664175
-0.0640791
-0.0617369
-0.0593805
-0.0569898
-0.0545584
-0.0520892
-0.0495901
-0.0470718
-0.0445542
-0.0420569
-0.0396154
-0.0372693
-0.0350573
-0.0330028
-0.0311088
-0.0293489
-0.027689
-0.0260888
-0.0245144
-0.0229443
-0.021768
-0.0208959
-0.0201222
-0.0183591
-0.0162835
-0.017556
-0.0192785
-0.0145377
-0.0128077
-0.0111193
-0.00950526
-0.0080041
-0.00664489
-0.00543397
-0.00431128
-0.00329184
-0.00194021
-0.00152037
-0.0838503
-0.0813242
-0.0797936
-0.0812553
-0.0788111
-0.0763882
-0.0771131
-0.0778022
-0.0785076
-0.076303
-0.0734641
-0.0741763
-0.074826
-0.0754994
-0.0738297
-0.0714039
-0.069006
-0.0666224
-0.0642368
-0.0618335
-0.0594016
-0.0569329
-0.0544289
-0.0518954
-0.0493434
-0.0467901
-0.0442545
-0.0417701
-0.0393799
-0.0371196
-0.0350189
-0.0330746
-0.0312714
-0.0295684
-0.0279282
-0.0263155
-0.0247057
-0.0235048
-0.022615
-0.0218169
-0.0209568
-0.0203635
-0.0199322
-0.0184304
-0.0167681
-0.0147066
-0.0159809
-0.0176278
-0.0191005
-0.0195191
-0.0129979
-0.0113103
-0.00966739
-0.00810694
-0.00667229
-0.00539226
-0.00424114
-0.00323674
-0.00195039
-0.00170207
-0.0869021
-0.0843084
-0.0827365
-0.0842306
-0.0817233
-0.0792466
-0.0799884
-0.0806921
-0.0814132
-0.0791529
-0.0762624
-0.0769858
-0.0776475
-0.0783338
-0.0766064
-0.0741087
-0.0716533
-0.0692204
-0.0667889
-0.0643441
-0.0618705
-0.0593615
-0.0568212
-0.0542528
-0.0516655
-0.0490764
-0.0465021
-0.0439765
-0.041539
-0.0392309
-0.0370777
-0.0350887
-0.0332366
-0.0314911
-0.0298096
-0.028158
-0.0265115
-0.0252816
-0.0243755
-0.0235623
-0.0226808
-0.0220769
-0.021642
-0.0207886
-0.0212226
-0.0203761
-0.0199404
-0.0186661
-0.0182435
-0.0168246
-0.015188
-0.0131621
-0.0144199
-0.0160257
-0.0174609
-0.0178551
-0.0191168
-0.0195065
-0.0114974
-0.00985214
-0.00825559
-0.00675728
-0.0054023
-0.00420203