/*--------------------------------*- C++ -*----------------------------------*\
| =========                 |                                                 |
| \\      /  F ield         | OpenFOAM: The Open Source CFD Toolbox           |
|  \\    /   O peration     | Version:  v1912                                 |
|   \\  /    A nd           | Website:  www.openfoam.com                      |
|    \\/     M anipulation  |                                                 |
\*---------------------------------------------------------------------------*/
FoamFile
{
    version     2.0;
    format      ascii;
    class       volScalarField;
    location    "430";
    object      p;
}
// * * * * * * * * * * * * * * * * * * * * * * * * * * * * * * * * * * * * * //

dimensions      [0 2 -2 0 0 0 0];


internalField   nonuniform List<scalar> 
3675
(
0.260409
0.258002
0.266876
0.253331
0.263933
0.285291
0.246707
0.258274
0.280825
0.318599
0.238534
0.250355
0.2724
0.310857
0.372877
0.229257
0.240746
0.260956
0.296641
0.357668
0.459631
0.219321
0.23004
0.247561
0.278106
0.331252
0.427175
0.569664
0.551031
0.209138
0.218787
0.233204
0.257531
0.299014
0.37643
0.517691
0.462527
0.668242
0.63997
0.199068
0.20746
0.218675
0.236726
0.266048
0.316388
0.404925
0.586265
0.526593
0.741745
0.727786
0.666522
0.703722
0.189414
0.196443
0.204551
0.216786
0.235444
0.262957
0.2936
0.371467
0.271383
0.628848
0.559913
0.470776
0.77492
0.75632
0.656458
0.708969
0.180426
0.186045
0.191243
0.198307
0.208151
0.219844
0.219328
0.116822
0.194047
0.230345
0.0491114
0.630037
0.529677
0.279514
0.29897
0.172306
0.176506
0.179028
0.181599
0.184316
0.184778
0.168835
0.0741689
-0.290406
-0.232191
-0.00726933
0.000702082
-0.232152
-0.211644
0.602614
0.399498
0.220504
0.165213
0.168008
0.168092
0.166802
0.163823
0.156169
0.131481
0.0514448
-0.25196
-0.503268
-0.340872
-0.426665
-0.146114
-0.25082
0.159273
0.160694
0.158552
0.153946
0.146417
0.132955
0.103425
0.0337101
-0.177629
-0.404038
-0.479529
-0.548437
-0.493903
-0.439287
-0.513808
0.154588
0.15467
0.150486
0.143003
0.131793
0.114147
0.0821451
0.0193727
-0.130883
-0.316709
-0.366151
-0.439504
-0.517658
-0.450616
-0.51301
0.151236
0.150021
0.143948
0.133922
0.119662
0.0988952
0.0656603
0.00855217
-0.103883
-0.247501
-0.320395
-0.338501
-0.386589
-0.403344
-0.417022
-0.457877
-0.476152
0.149285
0.146815
0.138975
0.12665
0.109771
0.0865437
0.0526188
0.000157679
-0.0884914
-0.20215
-0.278056
-0.314107
-0.323
-0.352393
-0.366206
-0.39059
-0.434062
-0.421175
0.14879
0.145111
0.135603
0.121149
0.101918
0.0765938
0.0421258
-0.00674576
-0.0799089
-0.171992
-0.244219
-0.286774
-0.310861
-0.30957
-0.326149
-0.33562
-0.356117
-0.374709
-0.397949
-0.39423
0.149796
0.144958
0.133865
0.117397
0.09596
0.0686828
0.0335638
-0.0127361
-0.0756418
-0.152152
-0.218316
-0.262449
-0.292486
-0.302978
-0.298971
-0.309832
-0.316325
-0.327964
-0.338664
-0.353171
-0.361635
-0.382677
-0.372355
-0.399263
-0.387541
0.152338
0.146402
0.133804
0.115397
0.0918014
0.0625587
0.0265154
-0.0181808
-0.0742914
-0.139747
-0.199595
-0.243236
-0.274726
-0.291997
-0.294758
-0.291074
-0.298842
-0.303523
-0.311163
-0.318119
-0.326345
-0.33145
-0.343543
-0.336937
-0.35394
-0.362146
-0.382887
-0.372887
0.156443
0.14948
0.135467
0.115178
0.089404
0.0580557
0.020691
-0.0233272
-0.0750636
-0.13276
-0.186922
-0.22902
-0.26039
-0.280612
-0.288403
-0.288237
-0.284621
-0.290798
-0.294503
-0.299921
-0.304797
-0.310256
-0.313598
-0.321103
-0.317031
-0.326855
-0.331783
-0.343995
-0.33752
0.162119
0.154226
0.138914
0.116802
0.0887843
0.0550966
0.0159016
-0.0283539
-0.0775274
-0.129881
-0.179218
-0.21919
-0.249684
-0.270893
-0.281631
-0.284483
-0.282626
-0.278759
-0.284217
-0.287477
-0.291715
-0.295461
-0.299417
-0.301791
-0.306909
-0.304164
-0.310682
-0.313891
-0.321419
-0.317459
0.169356
0.160658
0.144208
0.120364
0.0900192
0.0536821
0.0120362
-0.0333947
-0.0814964
-0.130327
-0.17571
-0.213255
-0.242376
-0.263447
-0.275671
-0.280528
-0.2804
-0.277187
-0.272835
-0.278308
-0.281421
-0.285054
-0.28825
-0.291422
-0.293286
-0.297099
-0.295074
-0.299804
-0.302077
-0.307206
-0.304543
0.178112
0.168778
0.151421
0.125995
0.0932495
0.0538968
0.00905365
-0.0385575
-0.0869374
-0.133693
-0.175896
-0.210885
-0.238248
-0.258472
-0.271149
-0.277127
-0.278257
-0.275915
-0.271693
-0.267129
-0.272232
-0.275624
-0.279149
-0.28208
-0.28485
-0.286487
-0.289645
-0.287979
-0.291797
-0.293575
-0.297392
-0.295435
0.188304
0.178557
0.160621
0.133862
0.0986942
0.0559151
0.00697616
-0.0439418
-0.0939617
-0.139865
-0.179516
-0.211867
-0.237136
-0.255985
-0.268359
-0.274758
-0.276596
-0.275006
-0.271168
-0.266631
-0.263874
-0.267801
-0.26881
-0.27331
-0.276435
-0.278904
-0.280506
-0.283353
-0.281816
-0.285222
-0.286774
-0.289938
-0.288335
0.19979
0.189921
0.171866
0.144174
0.106663
0.0600274
0.00590615
-0.0496419
-0.102839
-0.148992
-0.186522
-0.216106
-0.23893
-0.255956
-0.26741
-0.273647
-0.275708
-0.274555
-0.271091
-0.266586
-0.262929
-0.258638
-0.263312
-0.26596
-0.268868
-0.268589
-0.273411
-0.275071
-0.277634
-0.276113
-0.279261
-0.28076
-0.283633
-0.282171
0.212354
0.202737
0.185181
0.157172
0.117576
0.066659
0.00606049
-0.0557406
-0.114049
-0.161514
-0.197094
-0.223622
-0.243592
-0.258356
-0.268355
-0.273897
-0.275742
-0.274682
-0.271417
-0.266897
-0.262467
-0.25788
-0.252828
-0.257862
-0.260471
-0.263773
-0.266674
-0.26913
-0.270483
-0.271416
-0.266751
-0.274435
-0.275346
-0.277821
-0.276438
0.225687
0.216782
0.200537
0.173116
0.13199
0.0764233
0.00781577
-0.0622983
-0.128371
-0.178211
-0.21165
-0.23457
-0.251152
-0.263182
-0.271229
-0.27558
-0.276787
-0.275475
-0.272184
-0.267592
-0.262625
-0.257525
-0.252109
-0.247154
-0.252268
-0.254961
-0.258359
-0.26098
-0.26355
-0.264756
-0.26754
-0.26634
-0.269699
-0.273843
-0.274441
-0.264261
0.239367
0.231716
0.217815
0.192259
0.15058
0.0902267
0.0118105
-0.0693796
-0.147074
-0.200319
-0.230861
-0.249228
-0.26171
-0.270461
-0.276059
-0.278748
-0.278911
-0.277007
-0.273435
-0.268668
-0.26332
-0.257733
-0.251893
-0.246432
-0.240703
-0.246588
-0.249388
-0.252842
-0.255557
-0.258164
-0.259459
-0.262043
-0.260814
-0.263836
-0.265094
-0.267934
-0.266545
-0.269429
-0.273437
-0.260759
0.252862
0.247043
0.23673
0.214816
0.174073
0.109305
0.0192166
-0.0771796
-0.172325
-0.229704
-0.255685
-0.267997
-0.275427
-0.280252
-0.282874
-0.283435
-0.28216
-0.279337
-0.275224
-0.270124
-0.264434
-0.25844
-0.252209
-0.246174
-0.240651
-0.235546
-0.236084
-0.243328
-0.2474
-0.25003
-0.252611
-0.253983
-0.256682
-0.255352
-0.258485
-0.259793
-0.262404
-0.261134
-0.264127
-0.265371
-0.268122
-0.266768
0.265547
0.262095
0.256702
0.240779
0.203408
0.135142
0.0320255
-0.0863223
-0.20792
-0.26924
-0.287409
-0.29139
-0.292519
-0.29264
-0.291705
-0.289662
-0.286561
-0.282503
-0.277593
-0.27198
-0.265896
-0.259535
-0.252967
-0.246453
-0.240324
-0.234765
-0.23609
-0.229357
-0.246288
-0.24421
-0.247049
-0.248427
-0.251135
-0.249762
-0.252919
-0.254288
-0.257021
-0.255673
-0.258791
-0.260074
-0.262704
-0.261431
0.276762
0.276048
0.276726
0.269507
0.239909
0.17063
0.0523108
-0.0986639
-0.26032
-0.323276
-0.327767
-0.320051
-0.313254
-0.30773
-0.30258
-0.297437
-0.292124
-0.286526
-0.280571
-0.274261
-0.267682
-0.260935
-0.254056
-0.24718
-0.240565
-0.234397
-0.228776
-0.229921
-0.235107
-0.238732
-0.223817
-0.243324
-0.244962
-0.240617
-0.247423
-0.248692
-0.251439
-0.250057
-0.253205
-0.254543
-0.257304
-0.255964
0.285882
0.288012
0.295361
0.299381
0.283976
0.222511
0.0826799
-0.118962
-0.340405
-0.397483
-0.378919
-0.354754
-0.337981
-0.325649
-0.315524
-0.306751
-0.298842
-0.291408
-0.284173
-0.276981
-0.269787
-0.262593
-0.255388
-0.248217
-0.241238
-0.234622
-0.228514
-0.223117
-0.22464
-0.229378
-0.232168
-0.234686
-0.236457
-0.238126
-0.239716
-0.218296
-0.241535
-0.243419
-0.248523
-0.246084
-0.2476
-0.248891
-0.25169
-0.250317
0.292391
0.297183
0.310985
0.327574
0.332755
0.294245
0.136892
-0.153658
-0.46363
-0.497824
-0.442551
-0.396135
-0.367087
-0.346552
-0.330555
-0.317582
-0.306687
-0.297131
-0.288394
-0.280147
-0.27221
-0.264487
-0.25691
-0.249457
-0.242188
-0.235216
-0.228682
-0.222761
-0.21749
-0.219259
-0.22404
-0.226776
-0.229113
-0.230568
-0.231797
-0.23312
-0.212465
-0.245905
-0.245891
0.295937
0.302962
0.322205
0.350496
0.379579
0.375315
0.239834
-0.19926
-0.631776
-0.625277
-0.516268
-0.443753
-0.400552
-0.370516
-0.347671
-0.32989
-0.315615
-0.303661
-0.293214
-0.28375
-0.274946
-0.266605
-0.258595
-0.250833
-0.243308
-0.236059
-0.229176
-0.222809
-0.217056
-0.211731
-0.213613
-0.218499
-0.221379
-0.223748
-0.225212
-0.226438
-0.227691
-0.206364
0.296356
0.305031
0.32815
0.365304
0.41521
0.459395
0.340603
0.437032
-0.0358131
0.0329119
0.363609
-0.6833
-0.400789
-0.814215
-0.7524
-0.827406
-0.58576
-0.493003
-0.436806
-0.39701
-0.36671
-0.343598
-0.325564
-0.310946
-0.298595
-0.287765
-0.277981
-0.268937
-0.260427
-0.252314
-0.244528
-0.23705
-0.229905
-0.223187
-0.217016
-0.211366
-0.206114
-0.206635
-0.212975
-0.215855
-0.218109
-0.219676
-0.22097
-0.222288
-0.202433
0.293666
0.303362
0.32859
0.370743
0.433779
0.519308
0.510429
0.576623
0.468681
0.211408
0.0697984
-0.286535
-0.227747
0.251117
-0.65482
-0.579602
-0.47283
-1.02229
-0.73632
-0.812159
-0.815031
-0.631582
-0.789055
-0.907154
-0.530119
-0.470734
-0.423721
-0.386854
-0.358438
-0.336424
-0.318916
-0.304485
-0.292157
-0.281291
-0.271466
-0.262393
-0.25388
-0.245808
-0.238109
-0.23076
-0.223792
-0.217288
-0.211305
-0.205867
-0.201536
-0.203414
-0.207193
-0.207848
-0.21306
-0.214341
-0.215256
-0.216609
-0.197048
0.288032
0.298163
0.323859
0.367149
0.434606
0.539504
0.619426
0.653685
0.562451
0.645111
0.44401
0.294961
0.0293753
0.00359317
-0.915133
-0.867431
-0.858834
-0.688164
-0.545373
-0.634804
-0.811997
-0.774283
-0.493366
-0.445696
-0.405804
-0.373542
-0.34788
-0.327443
-0.310813
-0.296875
-0.284841
-0.274167
-0.264478
-0.25552
-0.247128
-0.239196
-0.231661
-0.224506
-0.217764
-0.211492
-0.205765
-0.200883
-0.196283
-0.197796
-0.202508
-0.205165
-0.207335
-0.209192
-0.206035
-0.211285
-0.191237
0.279726
0.289808
0.314689
0.356122
0.420036
0.524534
0.656011
0.627192
0.70235
0.679528
0.767632
0.452016
0.548309
0.732175
0.719538
0.643652
0.420179
0.132828
-0.897129
-0.871472
-0.70847
-0.675653
-0.573376
-0.501791
-0.539693
-0.648738
-0.617878
-0.815115
-0.774859
-0.458064
-0.419826
-0.386983
-0.359094
-0.336204
-0.317448
-0.301853
-0.288588
-0.27701
-0.266659
-0.257218
-0.248476
-0.24029
-0.232565
-0.225249
-0.218332
-0.211841
-0.20584
-0.200507
-0.195634
-0.190595
-0.191941
-0.196856
-0.199589
-0.202035
-0.203359
-0.204733
-0.205917
-0.207068
-0.209425
-0.203523
-0.185785
0.269079
0.278751
0.301958
0.339762
0.395457
0.479608
0.604205
0.756502
0.718273
0.781185
0.817233
0.824908
0.780731
-0.702868
-0.673577
-0.583528
-0.561534
-0.511816
-0.462222
-0.490051
-0.54794
-0.530964
-0.645852
-0.615736
-0.426765
-0.396311
-0.368505
-0.344457
-0.324089
-0.306965
-0.292469
-0.279957
-0.268911
-0.258957
-0.249837
-0.241375
-0.233448
-0.225976
-0.218916
-0.212263
-0.206047
-0.200367
-0.195172
-0.190053
-0.185133
-0.186488
-0.191188
-0.193917
-0.196445
-0.197877
-0.199215
-0.200515
-0.20227
-0.203583
-0.204807
-0.205943
-0.180518
0.256445
0.265461
0.28651
0.319936
0.366271
0.427861
0.497895
0.571905
0.487064
0.789055
0.76083
0.670653
0.722134
0.811956
-0.581887
-0.559638
-0.515595
-0.500862
-0.469561
-0.428669
-0.451504
-0.488222
-0.548068
-0.530042
-0.400795
-0.37455
-0.351033
-0.330121
-0.311943
-0.29637
-0.282956
-0.271202
-0.260713
-0.251196
-0.242441
-0.234299
-0.226666
-0.219475
-0.212692
-0.206315
-0.200388
-0.194904
-0.189641
-0.184586
-0.179868
-0.181197
-0.185728
-0.188409
-0.190796
-0.192211
-0.193533
-0.194886
-0.19669
-0.19811
-0.199386
-0.200669
-0.17533
0.242174
0.250383
0.269066
0.298042
0.335688
0.379853
0.416878
0.332483
0.594258
0.365752
0.387363
0.271783
0.735401
0.625409
-0.553467
-0.514309
-0.505391
-0.467963
-0.434644
-0.401812
-0.420845
-0.450604
-0.482276
-0.493399
-0.544728
-0.5282
-0.377112
-0.355027
-0.334713
-0.316293
-0.300064
-0.285908
-0.273486
-0.26246
-0.252535
-0.243475
-0.235107
-0.227306
-0.219985
-0.213088
-0.206589
-0.20049
-0.194787
-0.189361
-0.184168
-0.179302
-0.174694
-0.175986
-0.180405
-0.183044
-0.185332
-0.186714
-0.188
-0.189326
-0.191014
-0.192409
-0.193676
-0.195008
-0.170238
0.226592
0.233921
0.250196
0.275042
0.305338
0.336937
0.356171
0.290129
0.0917092
0.11944
0.529769
0.277735
0.100716
0.103618
-0.512722
-0.503791
-0.471106
-0.462088
-0.433236
-0.407224
-0.377242
-0.394336
-0.420243
-0.446488
-0.45399
-0.356605
-0.337392
-0.319429
-0.303173
-0.288631
-0.275685
-0.26416
-0.253831
-0.244462
-0.235861
-0.227886
-0.220433
-0.213431
-0.206831
-0.200611
-0.194752
-0.189186
-0.183866
-0.17885
-0.174124
-0.169613
-0.170873
-0.175189
-0.177785
-0.18001
-0.181365
-0.182625
-0.183922
-0.18554
-0.186897
-0.188125
-0.189423
-0.165251
0.210001
0.216411
0.230314
0.251553
0.276016
0.298784
0.307834
0.258627
0.109446
0.0600353
0.0532846
0.071079
0.104347
0.0659053
-0.435376
-0.43
-0.405977
-0.382069
-0.356501
-0.370538
-0.393395
-0.415743
-0.423025
-0.338449
-0.321093
-0.305305
-0.290854
-0.277651
-0.265745
-0.255053
-0.245384
-0.236549
-0.228398
-0.220812
-0.213706
-0.207019
-0.200707
-0.19474
-0.189067
-0.183647
-0.178502
-0.173648
-0.169038
-0.164636
-0.165864
-0.170077
-0.172629
-0.174796
-0.176125
-0.177362
-0.178638
-0.180211
-0.181541
-0.182743
-0.18401
-0.160365
0.192693
0.198115
0.20967
0.227917
0.248035
0.264882
0.268464
0.231611
0.129513
0.0707766
0.0625315
0.0407979
0.0512194
0.0701994
0.0419547
-0.43192
-0.428938
-0.408145
-0.401689
-0.381137
-0.360464
-0.337797
-0.35072
-0.369596
-0.389498
-0.39574
-0.414915
-0.421955
-0.321608
-0.306334
-0.292338
-0.279187
-0.267103
-0.256149
-0.246217
-0.237158
-0.22883
-0.221112
-0.213906
-0.207137
-0.200752
-0.194708
-0.188959
-0.183466
-0.178228
-0.173259
-0.16854
-0.164055
-0.159759
-0.160954
-0.165067
-0.167576
-0.169686
-0.170989
-0.172204
-0.173457
-0.17499
-0.176293
-0.177474
-0.17872
-0.155574
0.174774
0.179272
0.188317
0.204256
0.221417
0.2346
0.235796
0.208149
0.138602
0.0871555
0.0698154
0.0587828
0.0507557
0.0561234
0.0508683
0.0334032
-0.40716
-0.401065
-0.38312
-0.377355
-0.359697
-0.341081
-0.321073
-0.329675
-0.350144
-0.365889
-0.371948
-0.388877
-0.394895
-0.306495
-0.293052
-0.280142
-0.268092
-0.257038
-0.246922
-0.237666
-0.229173
-0.221326
-0.214022
-0.207178
-0.200731
-0.194629
-0.188827
-0.183284
-0.177984
-0.172931
-0.168117
-0.163536
-0.159174
-0.15497
-0.156143
-0.160157
-0.162625
-0.16468
-0.165956
-0.167149
-0.168381
-0.169872
-0.17115
-0.172309
-0.173533
-0.150866
0.156131
0.160052
0.166114
0.180517
0.196017
0.207293
0.208048
0.187751
0.139551
0.0982775
0.0794478
0.0650754
0.0583712
0.0617008
0.0442143
0.0566943
0.0505887
0.0515588
0.0459674
-0.382194
-0.376869
-0.361427
-0.356471
-0.340385
-0.319377
-0.305916
-0.334135
-0.346991
-0.351832
-0.365167
-0.372107
-0.293174
-0.280512
-0.268619
-0.25763
-0.247443
-0.238047
-0.229413
-0.221446
-0.214048
-0.207133
-0.200632
-0.194486
-0.188646
-0.183071
-0.177734
-0.172627
-0.167745
-0.163083
-0.158638
-0.154378
-0.150254
-0.15143
-0.155342
-0.157774
-0.159773
-0.161026
-0.162197
-0.163407
-0.164858
-0.166111
-0.167248
-0.168451
-0.146228
0.139836
0.139833
0.142922
0.156568
0.171645
0.182386
0.183943
0.1697
0.136201
0.103816
0.0856425
0.0699137
0.0592982
0.0579065
0.060037
0.0556121
0.0528482
0.0528728
0.0475732
0.0482478
-0.36159
-0.355971
-0.341629
-0.335988
-0.323006
-0.30467
-0.314684
-0.292811
-0.332233
-0.346416
-0.351183
-0.362916
-0.280405
-0.268693
-0.257887
-0.24773
-0.238266
-0.229531
-0.221462
-0.213978
-0.206998
-0.200448
-0.194267
-0.188401
-0.182806
-0.17745
-0.172316
-0.167393
-0.162674
-0.158158
-0.153833
-0.149663
-0.145604
-0.14685
-0.150609
-0.153019
-0.154962
-0.156193
-0.157344
-0.158533
-0.159945
-0.161173
-0.16229
-0.163472
-0.141545
0.138434
0.116896
0.118944
0.132571
0.148271
0.159483
0.162618
0.153483
0.130473
0.105765
0.0892691
0.0741858
0.0616014
0.0546334
0.0553604
0.0576109
0.0561706
0.057019
0.0533572
0.0534261
0.0506452
0.0510043
-0.360407
-0.355255
-0.341395
-0.338558
-0.323942
-0.319966
-0.306916
-0.291958
-0.300748
-0.31626
-0.312948
-0.279891
-0.333181
-0.328615
-0.345838
-0.350457
-0.268384
-0.257851
-0.247772
-0.238295
-0.229509
-0.221368
-0.213807
-0.206766
-0.200174
-0.193964
-0.18808
-0.182475
-0.177113
-0.17197
-0.16703
-0.16228
-0.157718
-0.15334
-0.149124
-0.14504
-0.141038
-0.14211
-0.146013
-0.148372
-0.150229
-0.151447
-0.152583
-0.153756
-0.155129
-0.156335
-0.157432
-0.158593
-0.137203
0.155285
0.0942151
0.0950442
0.109814
0.126451
0.138572
0.143591
0.138821
0.123517
0.10516
0.0909688
0.0774573
0.0646177
0.0560241
0.0500908
0.0518934
0.0543131
0.0543628
0.0559854
0.0548619
0.0551268
0.0548989
0.055046
0.0519572
0.0519969
-0.340738
-0.337475
-0.307529
-0.305478
-0.294241
-0.279013
-0.287621
-0.302077
-0.298614
-0.267716
-0.257579
-0.247603
-0.238138
-0.229344
-0.22116
-0.213535
-0.206437
-0.199805
-0.193573
-0.187677
-0.182069
-0.176709
-0.17157
-0.166629
-0.161872
-0.157291
-0.15288
-0.14863
-0.144525
-0.140553
-0.136782
-0.137601
-0.141253
-0.143794
-0.145606
-0.146821
-0.147906
-0.149067
-0.150395
-0.151585
-0.152667
-0.153811
-0.133395
0.085402
0.0735748
0.0912341
0.107883
0.120346
0.126885
0.125665
0.116134
0.102883
0.0911059
0.079399
0.0674733
0.0581663
0.051203
0.0449275
0.0478858
0.0505237
0.0512698
0.0532547
0.053301
0.0540318
0.0550801
0.0546307
0.0541693
0.0544028
0.0537716
0.0541238
-0.305416
-0.304746
-0.295113
-0.291932
-0.281197
-0.266758
-0.274991
-0.28881
-0.285448
-0.301697
-0.298286
-0.257094
-0.247254
-0.237821
-0.229061
-0.220855
-0.213171
-0.206017
-0.199345
-0.193091
-0.187188
-0.181582
-0.176232
-0.171105
-0.166176
-0.161427
-0.156847
-0.152426
-0.14816
-0.144042
-0.140073
-0.136307
-0.132825
-0.133933
-0.137211
-0.138796
-0.140924
-0.142241
-0.143342
-0.144489
-0.145759
-0.146941
-0.147988
-0.149114
-0.129199
0.0586595
0.0791507
0.0950119
0.106277
0.113135
0.114274
0.108933
0.0996873
0.0901765
0.0801865
0.0695647
0.0604268
0.053014
0.0467737
0.0442855
0.0423007
0.0457286
0.0479093
0.0498265
0.0502393
0.0512496
0.0528908
0.05205
0.0528978
0.0535915
0.0544696
0.0541381
-0.29443
-0.29143
-0.282033
-0.278994
-0.268675
-0.256384
-0.263338
-0.276179
-0.273023
-0.288522
-0.285202
-0.246731
-0.237356
-0.228693
-0.220486
-0.212743
-0.205523
-0.198805
-0.192525
-0.186612
-0.18101
-0.175674
-0.170566
-0.165658
-0.160929
-0.156363
-0.151952
-0.147688
-0.143568
-0.139597
-0.135813
-0.132255
-0.128692
-0.129645
-0.133125
-0.135232
-0.136933
-0.137918
-0.139026
-0.138969
-0.141957
-0.142525
-0.143455
-0.144498
-0.12499
0.0724359
0.0883792
0.0975944
0.1033
0.10522
0.102483
0.0961753
0.088627
0.0801738
0.0708781
0.0623122
0.0549671
0.0486616
0.0449728
0.0412182
0.0430319
0.0444316
0.0400081
0.0458786
0.0468711
0.0480267
0.0496725
0.0486017
0.049959
0.0508988
0.0524612
0.051733
-0.281364
-0.27852
-0.269727
-0.266462
-0.258267
-0.245981
-0.252623
-0.264377
-0.261675
-0.275846
-0.272833
-0.236728
-0.228238
-0.220085
-0.212284
-0.204986
-0.198212
-0.191894
-0.185959
-0.180357
-0.175034
-0.169948
-0.165067
-0.160365
-0.155826
-0.151436
-0.147189
-0.143081
-0.139114
-0.135314
-0.131701
-0.128155
-0.124524
-0.125422
-0.128879
-0.130938
-0.132706
-0.13374
-0.134819
-0.135826
-0.137048
-0.138258
-0.13989
-0.138496
-0.120974
0.0858855
0.0936231
0.0976627
0.0990328
0.0973401
0.092853
0.0868147
0.0796561
0.071567
0.0637131
0.0566714
0.0503813
0.0457922
0.0418364
0.0377758
0.0395748
0.0411133
0.0427282
0.0446169
0.0443509
0.0366925
0.0465679
0.0466949
0.0466111
0.0475582
0.0492803
0.0483407
-0.269755
-0.265811
-0.258989
-0.256266
-0.247661
-0.235928
-0.242627
-0.253361
-0.249726
-0.264667
-0.261473
-0.227668
-0.219646
-0.211815
-0.204446
-0.197607
-0.191228
-0.185252
-0.179633
-0.174316
-0.169252
-0.164399
-0.15973
-0.155223
-0.150865
-0.146646
-0.14256
-0.138608
-0.134804
-0.131158
-0.127609
-0.124034
-0.12051
-0.121405
-0.124742
-0.12676
-0.128505
-0.129546
-0.130569
-0.131585
-0.132813
-0.133857
-0.134873
-0.13591
-0.137076
-0.138129
-0.139596
-0.136922
-0.117085
0.0924185
0.0951822
0.0955505
0.0938148
0.0901184
0.0850382
0.0788672
0.0717922
0.0646491
0.058008
0.0518789
0.0467947
0.04245
0.0382701
0.0347616
0.0365529
0.0380057
0.0391636
0.0406528
0.0417916
0.04258
0.0446915
0.0439961
0.033212
0.0455614
0.0473223
-0.264418
-0.258526
-0.255863
-0.246863
-0.237729
-0.226966
-0.232741
-0.24208
-0.253346
-0.251632
-0.264022
-0.261006
-0.219126
-0.211324
-0.203919
-0.19703
-0.190577
-0.184528
-0.178865
-0.173535
-0.168482
-0.163655
-0.15902
-0.15455
-0.15023
-0.146046
-0.14199
-0.138063
-0.134269
-0.130611
-0.127057
-0.123526
-0.120029
-0.116628
-0.117503
-0.120734
-0.122711
-0.124385
-0.125409
-0.126403
-0.127414
-0.128618
-0.129662
-0.130657
-0.131686
-0.132909
-0.133942
-0.134962
-0.135979
-0.113288
0.0943197
0.0938683
0.0916913
0.0881265
0.0835032
0.0779887
0.0716996
0.0651916
0.058963
0.0530874
0.0478515
0.0432248
0.0388856
0.0352126
0.0320544
0.0337609
0.0351396
0.0362553
0.0376957
0.0386259
0.039275
0.0407452
0.0400112
-0.258099
-0.255557
-0.247809
-0.245183
-0.237212
-0.228503
-0.218444
-0.224159
-0.232099
-0.24044
-0.242942
-0.252985
-0.250928
-0.210777
-0.203381
-0.196496
-0.189982
-0.183838
-0.178095
-0.172721
-0.167656
-0.162843
-0.158236
-0.153805
-0.149525
-0.145381
-0.141364
-0.137469
-0.133695
-0.130043
-0.126496
-0.123
-0.119535
-0.116152
-0.112845
-0.113694
-0.116832
-0.118768
-0.120382
-0.121382
-0.122349
-0.12334
-0.124492
-0.125514
-0.126487
-0.127506
-0.128708
-0.129739
-0.130757
-0.13178
-0.10959
0.0929682
0.0903803
0.0867134
0.0822464
0.0771181
0.0713982
0.06542
0.0595745
0.0539752
0.0487919
0.0440668
0.0396334
0.0357596
0.0324796
0.0296824
0.0298936
0.0324941
0.0335998
0.0348911
0.0357441
0.036394
0.0378558
0.0371204
-0.237844
-0.235534
-0.228111
-0.219897
-0.210107
-0.215628
-0.223712
-0.230418
-0.233401
-0.202791
-0.19598
-0.189453
-0.183216
-0.17737
-0.171917
-0.166807
-0.161981
-0.157388
-0.152988
-0.148749
-0.144648
-0.140674
-0.136816
-0.133073
-0.129443
-0.125913
-0.122449
-0.119022
-0.115663
-0.112378
-0.109154
-0.109992
-0.113027
-0.114922
-0.116487
-0.117464
-0.118406
-0.119374
-0.120486
-0.12148
-0.122427
-0.12342
-0.124576
-0.125581
-0.126578
-0.127588
0.0893368
0.0855317
0.0811409
0.0762469
0.0709351
0.0653895
0.0598883
0.0545576
0.0495199
0.0448339
0.0404082
0.0364041
0.0329479
0.0299905
0.0274866
0.0287671
0.0299063
0.0287775
0.0265362
0.0328053
0.033077
0.0336574
0.0350231
0.0343338
-0.228948
-0.226565
-0.219332
-0.211527
-0.202118
-0.207457
-0.215139
-0.222233
-0.22441
-0.229312
-0.195439
-0.188968
-0.182668
-0.176724
-0.171173
-0.165984
-0.161106
-0.156496
-0.152109
-0.147903
-0.143846
-0.139916
-0.136102
-0.132397
-0.128798
-0.125294
-0.121864
-0.118481
-0.115156
-0.111894
-0.108694
-0.111172
-0.112686
-0.113643
-0.114563
-0.115509
-0.116589
-0.117558
-0.11848
-0.119448
-0.120565
-0.121543
-0.122512
-0.123494
0.0843469
0.0799799
0.0752949
0.0702925
0.0651102
0.059928
0.0548604
0.0500075
0.0454363
0.0411023
0.0370791
0.0335018
0.030392
0.0277527
0.0254214
0.0265681
0.0277676
0.0283449
0.0288103
0.0293202
0.0296035
0.0297003
0.0357338
0.0326252
0.0320114
-0.228477
-0.22613
-0.219944
-0.217854
-0.211001
-0.203526
-0.194823
-0.199567
-0.207046
-0.213753
-0.215846
-0.22193
-0.224061
-0.188506
-0.182165
-0.17616
-0.170526
-0.165238
-0.160268
-0.155598
-0.151192
-0.147
-0.142978
-0.139092
-0.135323
-0.131662
-0.1281
-0.12463
-0.121237
-0.117902
-0.114618
-0.111389
-0.108216
-0.110801
-0.111735
-0.112786
-0.113734
-0.114634
-0.115579
-0.116666
-0.117618
-0.118562
-0.119518
0.0786879
0.0741363
0.06943
0.064564
0.0596908
0.0548926
0.0502487
0.0458346
0.0416391
0.0376913
0.0340792
0.0308509
0.0280411
0.0255532
0.0232617
0.0245071
0.0257178
0.0261919
0.0267357
0.0272771
0.027881
0.0282589
0.0286846
0.0291173
0.0293901
0.0294428
0.0324529
-0.219606
-0.217587
-0.211607
-0.209587
-0.203096
-0.196012
-0.187726
-0.192375
-0.199122
-0.205697
-0.207713
-0.213488
-0.215531
-0.181699
-0.175642
-0.169973
-0.164604
-0.159516
-0.154742
-0.150274
-0.146064
-0.142055
-0.138204
-0.13448
-0.130864
-0.127346
-0.123916
-0.120564
-0.117275
-0.114039
-0.110853
-0.107714
-0.110876
-0.111803
-0.112861
-0.113793
-0.114715
-0.115646
0.0727807
0.0682769
0.0637437
0.0591655
0.0546452
0.0502386
0.0460107
0.0419797
0.0381624
0.0346037
0.0313375
0.0284045
0.0257693
0.0232585
0.0201575
0.0225794
0.0237561
0.0241015
0.0246917
0.0251857
0.0257958
0.0261419
0.0266554
0.0271703
0.0277459
0.0281877
0.028583
0.0290015
0.0292177
-0.211278
-0.209334
-0.203686
-0.201731
-0.195612
-0.188658
-0.181085
-0.183996
-0.192063
-0.197747
-0.199852
-0.205429
-0.207389
-0.175134
-0.169474
-0.164076
-0.158878
-0.153977
-0.149406
-0.145136
-0.141105
-0.137266
-0.133576
-0.130004
-0.126532
-0.123147
-0.11984
-0.116598
-0.113411
-0.110274
-0.10718
-0.110951
-0.111867
0.0668969
0.0626054
0.0583565
0.0541126
0.0499651
0.0459526
0.0421074
0.0384477
0.035003
0.0317866
0.028821
0.0261129
0.0235785
0.0210876
0.0207063
0.0191857
0.0211002
0.0222839
0.0229111
0.0231615
0.0237873
0.0240669
0.0246076
0.0250802
0.0256495
0.0260863
0.0265732
0.0271184
0.0276648
-0.203339
-0.201516
-0.19615
-0.194394
-0.188511
-0.180072
-0.174544
-0.185955
-0.190879
-0.192646
-0.197412
-0.199913
-0.16897
-0.163618
-0.15835
-0.15333
-0.148635
-0.144264
-0.140168
-0.136306
-0.132626
-0.129087
-0.125659
-0.122322
-0.119062
-0.115868
-0.112732
-0.109647
-0.106604
0.0612309
0.057231
0.053313
0.0494235
0.0456488
0.0420109
0.0385288
0.035231
0.0321235
0.0292116
0.0265096
0.0240236
0.0218438
0.0209164
0.0194929
0.0202572
0.0205221
0.0203226
0.017915
0.020717
0.021938
0.022399
0.0227627
0.0230592
0.0236063
0.0240179
0.0245305
0.0250322
0.0255649
-0.196227
-0.194177
-0.189002
-0.18731
-0.181374
-0.173825
-0.178053
-0.168382
-0.183671
-0.185918
-0.190606
-0.192385
-0.196435
-0.163171
-0.15789
-0.152788
-0.147982
-0.143496
-0.139297
-0.135364
-0.131657
-0.128127
-0.124733
-0.12144
-0.118228
-0.115085
-0.112
-0.108967
-0.105977
0.0558823
0.0522164
0.0486348
0.0451016
0.0416837
0.0383988
0.0352675
0.0323007
0.0294984
0.0268694
0.0244433
0.022339
0.0210263
0.0196581
0.0176493
0.0186918
0.0193582
0.019792
0.0200299
0.0204946
0.0206715
0.0225036
0.0154459
0.023009
0.0220391
0.0222871
0.0225955
0.0229966
0.0235125
-0.195738
-0.193847
-0.188758
-0.187059
-0.184463
-0.181955
-0.180252
-0.174897
-0.167718
-0.171756
-0.178718
-0.176976
-0.162672
-0.185509
-0.190341
-0.192075
-0.157438
-0.152312
-0.147437
-0.142854
-0.138534
-0.134492
-0.130711
-0.127154
-0.123768
-0.120507
-0.117341
-0.114247
-0.111215
-0.108234
-0.105297
0.05091
0.0475709
0.044332
0.0411341
0.0380571
0.0351068
0.032298
0.0296333
0.0271189
0.0247776
0.0226986
0.0211351
0.0196977
0.0178323
0.0161429
0.0170867
0.017786
0.0183792
0.0186542
0.0190113
0.019339
0.0196425
0.0199214
0.020366
0.0210065
0.0124798
0.0228253
0.0215736
-0.188478
-0.186846
-0.183928
-0.175239
-0.173721
-0.168563
-0.162076
-0.165857
-0.172302
-0.17098
-0.156929
-0.185247
-0.15185
-0.146956
-0.142325
-0.1379
-0.133731
-0.129837
-0.126209
-0.122793
-0.119539
-0.116404
-0.113357
-0.110376
-0.107449
-0.104567
0.0463171
0.0433078
0.0403864
0.0375122
0.0347508
0.032112
0.0295965
0.0272158
0.0249838
0.022954
0.021262
0.0197394
0.0179916
0.0163391
0.0148741
0.0156531
0.0163074
0.0168274
0.0171279
0.0175001
0.0179141
0.0183489
0.0186193
0.0189442
0.019284
-0.168857
-0.167841
-0.162991
-0.156301
-0.160066
-0.166366
-0.164872
-0.151356
-0.14648
-0.141868
-0.137383
-0.1331
-0.129078
-0.125341
-0.121851
-0.118566
-0.115436
-0.112421
-0.109486
-0.106611
-0.103784
0.0421109
0.0394081
0.0367881
0.0342124
0.0317458
0.0293868
0.0271481
0.0250379
0.0230862
0.0213597
0.019786
0.0181249
0.0165178
0.0150848
0.013708
0.0143865
0.014992
0.015411
0.0156839
0.0160255
0.0164149
0.0167943
0.0170846
0.0174503
0.0178835
-0.167934
-0.167472
-0.163357
-0.161946
-0.157195
-0.150792
-0.154384
-0.16054
-0.159061
-0.166159
-0.164682
-0.145953
-0.141424
-0.13694
-0.132581
-0.128446
-0.124587
-0.120991
-0.11763
-0.114467
-0.111455
-0.108551
-0.105723
-0.102949
0.0382727
0.0358534
0.0335161
0.031215
0.0290127
0.0269186
0.0249341
0.0230801
0.0213833
0.0198078
0.0182177
0.0166666
0.0152569
0.0139168
0.0126239
0.0132341
0.0138011
0.0141489
0.014416
0.0147156
0.0150663
0.0153676
0.0156307
0.0159652
0.0163627
-0.163052
-0.161696
-0.157562
-0.15619
-0.151655
-0.145366
-0.14894
-0.15486
-0.153424
-0.160374
-0.158901
-0.140949
-0.136515
-0.132133
-0.127927
-0.123964
-0.120251
-0.116781
-0.113538
-0.11049
-0.10759
-0.104795
-0.102066
0.0347795
0.0326272
0.0305425
0.0284924
0.0265386
0.0246813
0.0229328
0.0213043
0.0197719
0.0182555
0.0167698
0.0153887
0.0140809
0.0128261
0.0116218
0.0121631
0.0127066
0.0130131
0.0132577
0.0135266
0.0138623
0.0141065
0.014361
0.0146548
0.0150052
-0.157265
-0.155953
-0.151994
-0.150655
-0.146222
-0.140432
-0.143581
-0.14939
-0.147998
-0.154691
-0.153265
-0.136057
-0.131707
-0.127479
-0.123453
-0.119643
-0.116053
-0.112695
-0.109569
-0.106633
-0.103842
-0.101145
0.0316124
0.0296973
0.0278489
0.0260277
0.0242944
0.0226536
0.0211123
0.0196505
0.0182202
0.0168137
0.0154768
0.0142033
0.0129811
0.0118178
0.0106917
0.0111693
0.0116934
0.0119574
0.0121844
0.0124479
0.0127463
0.0129743
0.0132049
0.013463
0.0137999
-0.151699
-0.150419
-0.146578
-0.145266
-0.141218
-0.135519
-0.138702
-0.143916
-0.142802
-0.149202
-0.14782
-0.131254
-0.127053
-0.123012
-0.11915
-0.115458
-0.111974
-0.108735
-0.105721
-0.102895
-0.100202
0.0287418
0.0270484
0.0254069
0.0237925
0.0222588
0.0208109
0.0194324
0.0180955
0.0167816
0.0155108
0.014283
0.0130935
0.0119577
0.0108723
0.00980566
0.0102291
0.0107507
0.0109722
0.0111956
0.0114402
0.0117209
0.0119217
0.0121326
0.0123861
0.0126813
-0.146298
-0.145225
-0.141563
-0.140317
-0.136265
-0.130726
-0.133761
-0.139083
-0.13782
-0.143772
-0.142808
-0.126609
-0.122586
-0.118728
-0.114974
-0.111384
-0.108021
-0.104899
-0.101996
-0.0992694
0.0261476
0.0246453
0.0231965
0.0217664
0.02041
0.0191207
0.0178763
0.01666
0.0154725
0.0143096
0.0131652