/*--------------------------------*- C++ -*----------------------------------*\
| =========                 |                                                 |
| \\      /  F ield         | OpenFOAM: The Open Source CFD Toolbox           |
|  \\    /   O peration     | Version:  v1912                                 |
|   \\  /    A nd           | Website:  www.openfoam.com                      |
|    \\/     M anipulation  |                                                 |
\*---------------------------------------------------------------------------*/
FoamFile
{
    version     2.0;
    format      ascii;
    class       volScalarField;
    location    "170";
    object      p;
}
// * * * * * * * * * * * * * * * * * * * * * * * * * * * * * * * * * * * * * //

dimensions      [0 2 -2 0 0 0 0];


internalField   nonuniform List<scalar> 
3673
(
0.00159677
0.00184056
0.00144636
0.0020841
0.00168046
0.00130396
0.00229647
0.0019169
0.00153248
0.0011735
0.00248498
0.00212666
0.00176117
0.00139582
0.00105602
0.00263889
0.00231604
0.0019652
0.00162352
0.00127405
0.000943001
0.0027466
0.00247077
0.00215334
0.00182607
0.00149413
0.00115563
0.000840699
0.0027932
0.00257991
0.00231121
0.00200718
0.00168777
0.0013689
0.00104846
0.000746941
0.00277141
0.00263242
0.0024262
0.00216226
0.00186773
0.00156132
0.00125904
0.000951492
0.00065786
0.00268402
0.00262277
0.00249193
0.00228362
0.00202206
0.00173779
0.001447
0.00115582
0.000855855
0.00058044
0.00254118
0.00254337
0.00250194
0.00235906
0.00213863
0.0018869
0.00161696
0.00133869
0.00105875
0.000774589
0.000507165
0.00236242
0.00239445
0.00245268
0.00238689
0.00221512
0.0020018
0.00176172
0.00150631
0.00123919
0.000971145
0.00069719
0.000441586
0.00219923
0.00216752
0.00235127
0.00237254
0.00224813
0.00207168
0.00186932
0.00164365
0.00139894
0.0011431
0.000890843
0.000626608
0.000376378
0.0021254
0.00187187
0.00219431
0.0023224
0.00223674
0.00209271
0.00193305
0.00174532
0.00153461
0.0013024
0.00106348
0.00081566
0.000560231
0.00032244
0.00160292
0.00189101
0.00214581
0.00194124
0.00225507
0.00218605
0.00206713
0.00194742
0.00180418
0.00163586
0.00143433
0.00121528
0.000979758
0.000744346
0.000502058
0.000273484
0.00160982
0.00130633
0.00176813
0.00190627
0.00202639
0.00215711
0.00216617
0.00210115
0.00199262
0.00191063
0.00181375
0.00168943
0.00152613
0.00133789
0.00112786
0.000907316
0.000682153
0.000447757
0.000231818
0.00200159
0.00176122
0.00131535
0.00123635
0.00181489
0.00173495
0.00188223
0.00197508
0.00208587
0.00184676
0.00199418
0.00187428
0.00182746
0.00177373
0.00169368
0.00157547
0.00142711
0.00124991
0.00105257
0.000840948
0.000625824
0.000403202
0.000195509
0.001829
0.00174438
0.0017974
0.00172515
0.000863354
0.00105564
0.00173438
0.00184328
0.00165685
0.00170885
0.00178113
0.00195134
0.00189593
0.00207388
0.00180697
0.00172589
0.0017053
0.00169003
0.00164905
0.00157715
0.00147274
0.00133597
0.00116885
0.000980102
0.000781841
0.000576198
0.000362918
0.000165325
0.0015605
0.00156599
0.00157531
0.00157878
0.00175007
0.00175204
0.00167342
0.000218039
0.00135583
0.00245908
0.00194601
0.00172859
0.00174592
0.00164735
0.0017208
0.00191439
0.00183124
0.00200543
0.00177463
0.00154972
0.00156804
0.00156125
0.00153068
0.00146969
0.00137735
0.00124862
0.00109334
0.000917234
0.000722507
0.00053285
0.00032923
0.000142569
0.0013842
0.00139121
0.00141367
0.00142866
0.00147108
0.00146653
0.0014488
0.00157562
0.00157567
0.00167851
0.00198214
-0.0010938
0.00278863
0.00218807
0.00160068
0.00161386
0.00164243
0.00188389
0.00195222
0.00141627
0.0014379
0.00143969
0.00141882
0.00137171
0.00128637
0.0011681
0.00102098
0.000852043
0.000679896
0.000495165
0.000302855
0.000124479
0.0012491
0.00123434
0.00127093
0.00128108
0.0013379
0.00134438
0.00134911
0.00139274
0.00139377
0.00140189
0.00142527
0.00152157
0.00147571
-0.0036004
0.00128797
0.00131267
0.00132825
0.0013207
0.0012787
0.00120227
0.00109187
0.000954258
0.000804801
0.000635945
0.000463749
0.000280915
0.000114791
0.00111957
0.00109683
0.00113603
0.00113228
0.00119035
0.00119541
0.00121725
0.00127851
0.00126012
0.00128969
0.00132404
0.00135506
0.00134652
0.00116553
0.00120613
0.00122928
0.00122676
0.00119185
0.00112178
0.00102053
0.000898848
0.000755872
0.000603004
0.000441736
0.00026902
0.00010695
0.0010006
0.000967016
0.00100662
0.000997737
0.00105351
0.00104601
0.00107344
0.00113655
0.00110967
0.00114295
0.00118945
0.00124016
0.00121937
0.00106026
0.00110439
0.00113333
0.00113872
0.00110822
0.00104463
0.000955627
0.000844864
0.000718457
0.000574298
0.000423728
0.000259345
0.000111688
0.000895637
0.00084663
0.000890811
0.000870653
0.000921355
0.000909851
0.000936177
0.000995801
0.000967758
0.00099433
0.00104155
0.00109577
0.00106941
0.000955063
0.00101065
0.00104655
0.00105145
0.00102704
0.000972301
0.000893536
0.00079768
0.000681249
0.000551939
0.000411468
0.000256703
0.000118635
0.000792439
0.000742205
0.000781984
0.000755045
0.00080245
0.000783623
0.000809293
0.000863911
0.000837328
0.00085823
0.000899582
0.000951768
0.000929621
0.000863476
0.000923785
0.000960325
0.000973163
0.000950536
0.000902934
0.000838368
0.00075695
0.000658695
0.000538763
0.000405505
0.00026409
0.000135413
0.000700922
0.000641615
0.000679579
0.000649393
0.000692398
0.000668306
0.000696373
0.000744364
0.00071725
0.000732707
0.000772157
0.000819122
0.000799425
0.000775187
0.000838898
0.000882409
0.000890829
0.000872316
0.000838406
0.000792087
0.000727519
0.000638911
0.0005301
0.00040882
0.000275836
0.000148106
0.000612983
0.000550014
0.000587643
0.000550688
0.000591669
0.00056476
0.000588555
0.000633272
0.000607791
0.000615183
0.000660941
0.000698246
0.000679982
0.0006938
0.000759946
0.000798615
0.000808119
0.000797511
0.000779489
0.000753026
0.000704274
0.000627784
0.000526237
0.000414826
0.000283276
0.00017329
0.000531399
0.000463459
0.000501864
0.000460644
0.000499017
0.000468741
0.000488317
0.000529634
0.000513739
0.00051275
0.000553101
0.000589697
0.000568917
0.000615518
0.000682279
0.000720303
0.000724812
0.000725914
0.000730022
0.000724478
0.000689359
0.000617998
0.000528689
0.000422891
0.000308343
0.000202794
0.000455171
0.000381849
0.000422836
0.000376456
0.000413437
0.00038098
0.000398394
0.000436288
0.000421357
0.000422224
0.000448132
0.000488249
0.000474366
0.000543753
0.000607492
0.000629144
0.000639173
0.000661974
0.000695272
0.000705785
0.000676484
0.000617686
0.000532197
0.000444559
0.000332748
0.000238791
0.000385267
0.000301984
0.000351881
0.000298498
0.000333945
0.000298754
0.000315361
0.000349091
0.0003376
0.000335353
0.000358668
0.000393746
0.000382264
0.000470408
0.000518698
0.000533324
0.000556983
0.000615666
0.000675739
0.000692789
0.000668314
0.000615832
0.000548298
0.000460942
0.000367816
0.000281827
0.000312878
0.000227781
0.00028238
0.000222438
0.000259465
0.000222988
0.000239971
0.000270758
0.000257349
0.000253259
0.000276211
0.000306481
0.000299048
0.000394577
0.000424817
0.000430156
0.00049159
0.0005951
0.000663897
0.000680438
0.000661677
0.000619717
0.000559866
0.000492783
0.000404681
0.000328485
0.000247851
0.000156579
0.000214279
0.000149072
0.000191383
0.000149548
0.000162813
0.000195156
0.000187148
0.000178426
0.000201894
0.000229439
0.000218044
0.000313085
0.000301905
0.000333619
0.000467213
0.000590898
0.000652746
0.000667461
0.000655143
0.000626434
0.000581998
0.000524945
0.000449744
0.000387748
0.000178138
8.21745e-05
0.000147871
7.92324e-05
0.000123539
7.92977e-05
9.41043e-05
0.000124594
0.00011834
0.000104954
0.000119415
0.000151689
0.000158164
0.000197725
0.000168443
0.000293927
0.000476415
0.000590592
0.000633092
0.000648011
0.000652046
0.000638788
0.000611468
0.000567474
0.000503967
0.000455392
9.92341e-05
3.06704e-06
8.24558e-05
1.10654e-05
5.48996e-05
9.15895e-06
2.96557e-05
6.04619e-05
4.73499e-05
3.63353e-05
5.18202e-05
8.12415e-05
8.91914e-05
4.52114e-05
7.497e-05
0.000325367
0.000503961
0.000567976
0.000601094
0.000631567
0.000650437
0.0006584
0.000644378
0.000616792
0.000566519
0.000533426
-3.87431e-06
-8.45859e-05
2.1456e-05
-6.72795e-05
-1.44061e-05
-6.00827e-05
-3.76744e-05
-7.48548e-06
-1.9239e-05
-3.32508e-05
-9.92024e-06
1.94153e-05
1.67255e-05
-0.000168533
0.000127255
0.000404726
0.000483453
0.000521511
0.000568765
0.000615767
0.000657555
0.000681832
0.000688121
0.000670271
0.000641687
0.000622237
-0.000313139
-0.000178995
-4.38016e-05
-0.000143213
-8.19306e-05
-0.000136859
-0.0001069
-7.40122e-05
-9.03734e-05
-9.98555e-05
-7.73276e-05
-4.90427e-05
-4.6941e-05
-0.000165199
0.000306415
0.00038906
0.000416817
0.000471281
0.000537621
0.000606303
0.000665497
0.000710761
0.000730354
0.000746453
0.000724969
0.000723463
-0.00053494
-0.000503402
-0.000154947
-0.000202962
-0.000155277
-0.000222798
-0.000180576
-0.000140957
-0.00016936
-0.000172507
-0.000144137
-0.000115977
-0.000117173
0.000212746
0.000298092
0.000297704
0.00034916
0.000424346
0.000509728
0.000597632
0.000678894
0.000744895
0.000797699
0.000817119
0.000822802
0.000838032
8.61012e-05
-0.000401508
-0.000842025
-0.000233716
-0.000134968
-0.000326922
-0.000251527
-0.000221226
-0.000263307
-0.000256103
-0.000220607
-0.000188456
-0.000190342
0.000209732
0.000162025
0.000209642
0.000286762
0.000378744
0.000483762
0.000593901
0.000700309
0.000793387
0.000858369
0.000914489
0.000927966
0.000960166
7.44241e-05
-7.08585e-05
-5.31617e-05
-0.000505248
-0.00145776
-4.4699e-05
-0.000122922
-0.000247023
-0.000324488
-0.000364501
-0.000311162
-0.000266018
-0.000288432
1.86968e-05
5.85633e-05
0.000137188
0.00022844
0.000336638
0.000458994
0.000592612
0.000725766
0.000843243
0.000944737
0.00100567
0.00104962
0.00110841
-0.000122322
-0.000169697
-0.000198049
-0.000212771
-4.18086e-05
-9.69904e-05
0.000520827
0.000334775
-0.00230842
-0.000181442
-0.000320133
-0.000349266
-0.000384368
-9.51858e-05
-1.20978e-05
7.23055e-05
0.000171212
0.000290969
0.000436465
0.000595976
0.000758572
0.000907617
0.00102831
0.00112656
0.00118902
0.00126965
-0.000231821
-0.000250907
-0.000259248
-0.000285292
-0.000290888
-0.000324006
-0.000362591
-0.000203976
-0.000242871
4.45363e-05
-0.00452763
-0.000160124
-8.11334e-05
2.21451e-06
0.000109536
0.000248383
0.000416864
0.000606068
0.00079998
0.000982017
0.00113135
0.00125753
0.00134286
0.00144581
-0.000298727
-0.000327316
-0.000323569
-0.000335659
-0.000313478
-0.000331305
-0.000345303
-0.000351681
-0.000332424
-0.000226758
-0.0001562
-6.78071e-05
5.1193e-05
0.000205911
0.000398227
0.000619088
0.000848604
0.00106051
0.00125217
0.00140052
0.00151473
0.00164702
-0.000366917
-0.000399452
-0.000388735
-0.000406862
-0.000376974
-0.000379154
-0.000381378
-0.000349709
-0.000354089
-0.00030056
-0.000231099
-0.000139806
-1.30467e-05
0.000160807
0.000382822
0.00063893
0.000904027
0.00116008
0.00138082
0.00156691
0.00171177
0.00186616
-0.000434617
-0.000471906
-0.000452384
-0.000476611
-0.000444681
-0.000459755
-0.000449388
-0.000407367
-0.000422627
-0.000378367
-0.00031024
-0.00021614
-7.9742e-05
0.000117111
0.000371624
0.000664142
0.000973079
0.00127452
0.00152976
0.00175629
0.00192067
0.00210303
-0.000510308
-0.000542397
-0.000518368
-0.000543397
-0.0005137
-0.000528496
-0.000519328
-0.000479997
-0.000494013
-0.000454857
-0.000390871
-0.000297982
-0.000147597
7.47668e-05
0.000362569
0.000700174
0.00105854
0.00139425
0.00170216
0.00194847
0.00216418
0.00236349
-0.000584137
-0.000615296
-0.000590064
-0.000612164
-0.000578091
-0.000599837
-0.000582352
-0.000549467
-0.000563725
-0.000537437
-0.000483789
-0.000387943
-0.000218302
3.12491e-05
0.000359949
0.000742989
0.00114329
0.00153242
0.00187912
0.00218651
0.00243208
0.0026867
-0.000663003
-0.000691844
-0.000660544
-0.000683532
-0.000647619
-0.000664641
-0.000651335
-0.000616511
-0.000630398
-0.000631516
-0.000586048
-0.00048263
-0.000292876
-8.66669e-06
0.000360969
0.000791972
0.00124614
0.0016925
0.00209218
0.00245084
0.0027525
0.00303735
-0.000749731
-0.000765764
-0.000734407
-0.000756273
-0.000719172
-0.000735258
-0.000719657
-0.000678512
-0.000697338
-0.000737243
-0.000696507
-0.000577879
-0.000363901
-4.61529e-05
0.000367281
0.000852529
0.00137072
0.00186454
0.00233789
0.00272829
0.00328866
0.00126825
-0.000850903
-0.000846181
-0.00080919
-0.000827181
-0.000791844
-0.000805593
-0.000791614
-0.000754155
-0.000769436
-0.000861224
-0.000815866
-0.000673452
-0.000436112
-8.48286e-05
0.000378528
0.000923486
0.00149687
0.00207758
0.00255636
0.00333524
0.00147922
-0.000976834
-0.000935636
-0.000892102
-0.000902318
-0.000865786
-0.000875639
-0.000862344
-0.000825141
-0.000840781
-0.00100294
-0.000922852
-0.000772863
-0.000515529
-0.000122951
0.000396727
0.00100089
0.00165874
0.00223602
0.00312101
0.00153887
-0.00111613
-0.00113759
-0.000997589
-0.000966946
-0.000936473
-0.000956101
-0.000935984
-0.000899804
-0.00091693
-0.00111694
-0.00103183
-0.000880164
-0.000596232
-0.000156182
0.000418804
0.00110428
0.00175785
0.00272088
0.00139493
-0.00125231
-0.00116107
-0.00144789
-0.000943728
-0.000964993
-0.00103846
-0.00101551
-0.000975289
-0.000995888
-0.00121706
-0.00115709
-0.000997547
-0.000677455
-0.000189696
0.000460682
0.00115203
0.00215212
0.0011247
-0.00134607
-0.00132887
-0.00124261
-0.00142432
-0.00158037
-0.00214436
-0.00374211
0.0013641
-0.00116029
-0.00112327
-0.00106031
-0.00108798
-0.00134769
-0.00130101
-0.00112038
-0.000761168
-0.000210207
0.000459137
0.00143828
0.0007696
-0.00147018
-0.00143384
-0.00137706
-0.00137035
-0.00137284
-0.00135773
-0.00138284
-0.00139936
-0.00138365
-0.000983816
-0.000709801
-0.00150478
-0.0014543
-0.00124476
-0.000839538
-0.000255249
0.0006276
0.000359155
-0.00162555
-0.00156609
-0.00149361
-0.00146822
-0.00144673
-0.0014132
-0.00139392
-0.00139939
-0.0013941
-0.00139511
-0.00139414
-0.00145824
-0.0014656
-0.00130136
-0.00167705
-0.0016132
-0.00137377
-0.000921156
-0.000207041
-6.66697e-05
-0.00180322
-0.00171939
-0.00163537
-0.00160775
-0.00156945
-0.00153294
-0.00150416
-0.00148786
-0.0014593
-0.00143443
-0.00141349
-0.00141745
-0.00141246
-0.00142507
-0.00143369
-0.00185941
-0.00178217
-0.00148479
-0.000989286
-0.000473317
-0.00199704
-0.00189466
-0.00179675
-0.00176018
-0.00171575
-0.00167911
-0.00163597
-0.00162144
-0.00158889
-0.00154977
-0.00152062
-0.00150083
-0.00146845
-0.00145032
-0.00142525
-0.00206138
-0.00192104
-0.0016567
-0.000827703
-0.00222353
-0.00208804
-0.00197806
-0.00192824
-0.0018835
-0.00183943
-0.00179132
-0.00177055
-0.00173183
-0.00169435
-0.00165161
-0.00163267
-0.00159898
-0.00156375
-0.00153178
-0.00223879
-0.00217902
-0.00110834
-0.00245371
-0.00232108
-0.00218871
-0.00211789
-0.0020708
-0.00201998
-0.00196714
-0.00193626
-0.00189473
-0.00184871
-0.0018082
-0.00177905
-0.00174195
-0.00170315
-0.00166428
-0.00257211
-0.00131281
-0.00290408
-0.00254712
-0.0024184
-0.00234261
-0.00228651
-0.00222435
-0.00216812
-0.00212398
-0.00207439
-0.00202716
-0.00198136
-0.0019424
-0.00190569
-0.00185381
-0.00181657
-0.00145266
-0.00167639
-0.00302006
-0.00272453
-0.00257924
-0.00251609
-0.00246068
-0.00239697
-0.00234016
-0.00228493
-0.00222828
-0.00217535
-0.00212278
-0.00208013
-0.00203119
-0.00198662
-0.00159133
-0.00319583
-0.00298209
-0.00287088
-0.00274309
-0.00265214
-0.00257919
-0.00251514
-0.00245721
-0.00239871
-0.00233666
-0.00228349
-0.00222775
-0.00217448
-0.00136558
-0.00330367
-0.00335179
-0.00310224
-0.00295298
-0.00285036
-0.00274552
-0.00265658
-0.00256387
-0.00250552
-0.0024477
-0.00239214
-0.00133847
-0.00362802
-0.00336616
-0.00306822
-0.0029351
-0.00282283
-0.00272377
-0.002636
-0.00164344
-0.00392903
-0.00334549
-0.00305233
-0.0717364
-0.0719962
-0.0710331
-0.072602
-0.0720425
-0.0712331
-0.0704331
-0.0732457
-0.0727278
-0.0719
-0.0713625
-0.0706031
-0.0697955
-0.073409
-0.0739059
-0.0732594
-0.0715849
-0.0705774
-0.0707274
-0.0699378
-0.0691183
-0.0740757
-0.0745936
-0.0743057
-0.0746423
-0.071991
-0.0689679
-0.0692718
-0.0700644
-0.069259
-0.0684864
-0.074772
-0.0753591
-0.0770887
-0.0747167
-0.0760232
-0.0723771
-0.0693751
-0.0663445
-0.0679489
-0.0694024
-0.0687519
-0.0686139
-0.0678464
-0.0754878
-0.0760771
-0.0799126
-0.0775227
-0.0774408
-0.0750992
-0.0762068
-0.072723
-0.0697446
-0.0667719
-0.0666508
-0.0638038
-0.0653714
-0.0681053
-0.0674444
-0.0679892
-0.0671929
-0.0767316
-0.0828166
-0.0803665
-0.0802905
-0.0788472
-0.0779048
-0.0775829
-0.0768858
-0.0754431
-0.0730218
-0.0700768
-0.067147
-0.0642203
-0.066786
-0.0661448
-0.0641083
-0.0613242
-0.0628384
-0.0655143
-0.0648435
-0.0673288
-0.0665137
-0.0774102
-0.0858188
-0.0832846
-0.0832044
-0.0817346
-0.0807626
-0.0804394
-0.079729
-0.0790354
-0.0783057
-0.0782423
-0.0757453
-0.0732774
-0.0703688
-0.0674789
-0.0645946
-0.061736
-0.0666518
-0.0660135
-0.0641635
-0.0634105
-0.0616125
-0.0589088
-0.0603878
-0.0625045
-0.065392
-0.0647262
-0.0658866
-0.0781783
-0.0888816
-0.0862843
-0.0861959
-0.0846947
-0.0836917
-0.0833616
-0.0826366
-0.0819286
-0.0811829
-0.0811095
-0.0802636
-0.0795725
-0.0789063
-0.0785419
-0.0760041
-0.073479
-0.0706141
-0.0677679
-0.0649241
-0.0621016
-0.0593072
-0.0640459
-0.0634094
-0.0613578
-0.0591897
-0.056537
-0.0579808
-0.0601573
-0.0621087
-0.0627625
-0.0652516
-0.0646006
-0.0918883
-0.0893126
-0.0892709
-0.0877192
-0.0866887
-0.0863598
-0.0856203
-0.0848931
-0.0841293
-0.0840447
-0.0831841
-0.0824787
-0.0817987
-0.0810532
-0.0814136
-0.0788048
-0.0762136
-0.0736173
-0.0708065
-0.06801
-0.0652115
-0.0624227
-0.0596604
-0.056916
-0.063945
-0.0633866
-0.061485
-0.0608788
-0.0589506
-0.0568041
-0.0541902
-0.055619
-0.0577514
-0.0596828
-0.060292
-0.0951128
-0.0923662
-0.0923027
-0.090743
-0.0897166
-0.0894369
-0.0886675
-0.0879107
-0.0871402
-0.0870395
-0.086184
-0.0854626
-0.0847647
-0.0839998
-0.0843546
-0.0816769
-0.0790208
-0.0763634
-0.0736815
-0.0709359
-0.0681946
-0.0654521
-0.0627053
-0.0599748
-0.0572662
-0.0545682
-0.0590574
-0.0584612
-0.0565562
-0.0544482
-0.0519355
-0.0532975
-0.0553918
-0.0572821
-0.0578835
-0.0981814
-0.0956221
-0.095562
-0.0939476
-0.0928024
-0.0924107
-0.0917014
-0.0909607
-0.0902262
-0.0900765
-0.0892304
-0.0884928
-0.0877857
-0.087014
-0.0873479
-0.0846209
-0.0818951
-0.079179
-0.0764419
-0.0736611
-0.0709874
-0.0683143
-0.0656358
-0.062943
-0.0602537
-0.0575825
-0.0549233
-0.0523053
-0.0566629
-0.0560634
-0.0542618
-0.0521805
-0.0496792
-0.0510436
-0.0530989
-0.0548678
-0.0554761
-0.0988959
-0.0988747
-0.0971539
-0.100194
-0.101078
-0.0960399
-0.0957143
-0.0949323
-0.0941841
-0.0933176
-0.0931813
-0.0906417
-0.090031
-0.0903938
-0.0876178
-0.0848423
-0.082061
-0.0792679
-0.0764369
-0.0735538
-0.0709502
-0.0683529
-0.0657511
-0.0631271
-0.06049
-0.0578612
-0.0552436
-0.0526518
-0.0500674
-0.0542674
-0.0538622
-0.0519482
-0.049922
-0.0474655
-0.0488125
-0.0508076
-0.0526065
-0.0531718
-0.10225
-0.0993621
-0.100643
-0.099058
-0.0982366
-0.097429
-0.0965667
-0.102538
-0.102409
-0.0964013
-0.0935129
-0.0906726
-0.0878471
-0.0850131
-0.0821611
-0.0792771
-0.0763471
-0.0733674
-0.0708247
-0.068302
-0.0657815
-0.0632365
-0.0606702
-0.0580934
-0.0555208
-0.0529656
-0.0504152
-0.0478559
-0.0537239
-0.0520437
-0.0514808
-0.0496945
-0.0477146
-0.045307
-0.0466252
-0.0485916
-0.0503693
-0.0509313
-0.052459
-0.0529705
-0.102778
-0.0997182
-0.101489
-0.101847
-0.100812
-0.0999302
-0.10442
-0.10255
-0.104177
-0.0967352
-0.0938061
-0.0909168
-0.0880277
-0.0851238
-0.0821854
-0.0792057
-0.0761794
-0.0731154
-0.0706187
-0.0681606
-0.0657181
-0.0632602
-0.0607761
-0.0582701
-0.0557515
-0.0532384
-0.0507254
-0.0482041
-0.0456914
-0.0519091
-0.0513567
-0.0498027
-0.0492478
-0.0474971
-0.0455528
-0.0431946
-0.0444807
-0.0464125
-0.0481541
-0.0487088
-0.0502445
-0.0508037
-0.103137
-0.100059
-0.102489
-0.101653
-0.103519
-0.104414
-0.0970397
-0.0940643
-0.0911149
-0.0881537
-0.085164
-0.0821331
-0.0790586
-0.0759487
-0.072811
-0.0703468
-0.0679358
-0.0655594
-0.0631869
-0.0607937
-0.0583716
-0.0559253
-0.0534652
-0.0509967
-0.0485135
-0.046035
-0.0435709
-0.0496741
-0.0491246
-0.0475965
-0.0470514
-0.0453376
-0.0434316
-0.0411244
-0.042375
-0.0442705
-0.0459785
-0.0465226
-0.0480274
-0.0485779
-0.103481
-0.100367
-0.103373
-0.102338
-0.104258
-0.0973064
-0.0942813
-0.0912589
-0.0882134
-0.0851313
-0.0820083
-0.0788498
-0.0756652
-0.0724639
-0.0700222
-0.0676439
-0.0653155
-0.0630155
-0.0607101
-0.0583802
-0.056019
-0.05363
-0.0512188
-0.0487837
-0.046341
-0.043908
-0.0414871
-0.0474667
-0.0469274
-0.0454323
-0.044897
-0.0432146
-0.0413473
-0.0390785
-0.0403063
-0.0421644
-0.0438428
-0.0443773
-0.0458519
-0.0463919
-0.103795
-0.100643
-0.103214
-0.104084
-0.0975351
-0.0944453
-0.0913393
-0.0882017
-0.0850285
-0.0818223
-0.0785887
-0.0753391
-0.0720893
-0.0696563
-0.0672987
-0.065003
-0.0627539
-0.0605234
-0.0582854
-0.0560196
-0.0537171
-0.0513791
-0.0490054
-0.0466086
-0.0442082
-0.0418164
-0.0394282
-0.0453026
-0.0447734
-0.0433069
-0.0427816
-0.0411258
-0.0392933
-0.0370701
-0.0382714
-0.0400929
-0.0417462
-0.0422703
-0.0437173
-0.0442478
-0.104075
-0.100884
-0.0977173
-0.0945473
-0.0913521
-0.0881229
-0.0848669
-0.0815842
-0.0782841
-0.0749825
-0.0716959
-0.0692637
-0.0669127
-0.0646368
-0.0624216
-0.060246
-0.0580863
-0.0559144
-0.0537097
-0.0514616
-0.0491652
-0.0468299
-0.0444731
-0.0421139
-0.0397579
-0.0374155
-0.043179
-0.0426598
-0.0412197
-0.0407029
-0.0390786
-0.0372741
-0.0351111
-0.0362796
-0.0380866
-0.0396815
-0.0401988
-0.0416221
-0.0421423
-0.104324
-0.10108
-0.0978406
-0.0945836
-0.091299
-0.0879872
-0.0846539
-0.0813023
-0.0779476
-0.0746049
-0.071309
-0.0688552
-0.0665019
-0.0642305
-0.0620349
-0.0598961
-0.057793
-0.0557022
-0.0535934
-0.0514446
-0.0492442
-0.0469877
-0.044692
-0.0423755
-0.0400583
-0.0377472
-0.035457
-0.0410941
-0.0405819
-0.039159
-0.0386445
-0.0370981
-0.0353041
-0.0331633
-0.0343191
-0.0360868
-0.0376651
-0.0381496
-0.0395566
-0.0400722
-0.104534
-0.101222
-0.0979009
-0.0945558
-0.0911889
-0.0878003
-0.0843964
-0.0809877
-0.0775874
-0.0742294
-0.0709621
-0.068458
-0.0660788
-0.0638009
-0.0616087
-0.0594903
-0.0574255
-0.0553934
-0.0533673
-0.051318
-0.0492228
-0.0470636
-0.0448485
-0.0425945
-0.0403228
-0.03805
-0.0357848
-0.033519
-0.0390264
-0.0385017
-0.0372057
-0.0366529
-0.0350913
-0.0333468
-0.0312637
-0.0323742
-0.0341045
-0.0356699
-0.0361694
-0.0374695
-0.0379739
-0.104697
-0.101306
-0.0978989
-0.094472
-0.0910276
-0.0875683
-0.0841052
-0.0806473
-0.077227
-0.0738911
-0.0706961
-0.0681062
-0.0656698
-0.063361
-0.0611602
-0.059045
-0.0570017
-0.0550088
-0.0530439
-0.0510814
-0.0490887
-0.0470389
-0.0449232
-0.0427525
-0.0405426
-0.0383159
-0.0360845
-0.0338487
-0.0316159
-0.037209
-0.0364954
-0.0351751
-0.0346835
-0.0331353
-0.031414
-0.0294049
-0.0304313
-0.0321684
-0.0337167
-0.034206
-0.0355456
-0.0360263
-0.104804
-0.101329
-0.0978415
-0.0943372
-0.0908209
-0.0873011
-0.083786
-0.0803033
-0.0768996
-0.073628
-0.0705481
-0.0678377
-0.0653115
-0.0629389
-0.0607038
-0.0585785
-0.0565383
-0.0545679
-0.0526441
-0.0507453
-0.0488408
-0.0468991
-0.0448964
-0.0428278
-0.0406986
-0.0385333
-0.0363479
-0.0341482
-0.0319416
-0.0297727
-0.0371286
-0.0363362
-0.035062
-0.0345764
-0.0332278
-0.0327423
-0.0312087
-0.029433
-0.0275747
-0.0282493
-0.0302491
-0.0317837
-0.0322695
-0.0336109
-0.0340976
-0.0354276
-0.0358909
-0.104854
-0.1013
-0.0977332
-0.0941563
-0.0905779
-0.0870044
-0.0834607
-0.0799896
-0.076644
-0.0734791
-0.0705389
-0.0676912
-0.0650427
-0.0625714
-0.0602678
-0.0581065
-0.0560551
-0.0540876
-0.0521868
-0.0503304
-0.0484922
-0.0466448
-0.0447524
-0.0427976
-0.0407717
-0.0386897
-0.0365649
-0.0344128
-0.0322408
-0.0300794
-0.0279468
-0.0349426
-0.0344645
-0.0331244
-0.0326402
-0.0312979
-0.0308182
-0.0293189
-0.0270001
-0.0257949
-0.0284036
-0.0298743
-0.030348
-0.031678
-0.0321624
-0.0334955
-0.0339771
-0.104851
-0.101218
-0.0975783
-0.0939377
-0.0903029
-0.0866994
-0.0831618
-0.0797446
-0.0765019
-0.0734693
-0.0706643
-0.067687
-0.0648978
-0.0622957
-0.0598898
-0.0576585
-0.0555687
-0.053589
-0.0516907
-0.049858
-0.0480647
-0.0462859
-0.0444901
-0.0426482
-0.0407392
-0.038758
-0.0367168
-0.0346282
-0.0325038
-0.0303718
-0.0282503
-0.0261476
-0.0330039
-0.0325262
-0.031194
-0.0307127
-0.0294034
-0.0289617
-0.0273609
-0.0253696
-0.0264444
-0.0240419
-0.0282392
-0.0297583
-0.0302375
-0.0315612
-0.0320405
-0.104796
-0.10109
-0.0973841
-0.0936855
-0.0900164
-0.0864176
-0.0829288
-0.0796111
-0.0764994
-0.0735985
-0.0708972
-0.0678199
-0.0648953
-0.0621479
-0.0596077
-0.0572721
-0.0551098
-0.053089
-0.0511772
-0.0493471
-0.0475786
-0.0458463
-0.0441228
-0.0423797
-0.0405859
-0.0387209
-0.0367842
-0.0347793
-0.0327195
-0.0306307
-0.028536
-0.0264518
-0.0243816
-0.0310731
-0.0305988
-0.0292683
-0.0287071
-0.0274493
-0.0269963
-0.0255803
-0.0236558
-0.0246993
-0.0265506
-0.026091
-0.0222997
-0.0283678
-0.0279051
-0.0296533
-0.0301196
-0.104694
-0.100921
-0.097154
-0.0934188
-0.0897495
-0.0861972
-0.0828047
-0.0796175
-0.0766392
-0.0738416
-0.071192
-0.0680614
-0.0650293
-0.0621432
-0.0594562
-0.0569854
-0.0547159
-0.0526192
-0.0506656
-0.0488206
-0.0470546
-0.0453477
-0.0436732
-0.0420045
-0.0403117
-0.0385636
-0.0367441
-0.034844
-0.0328715
-0.0308455
-0.0287899
-0.026734
-0.0246842
-0.0226328
-0.0291956
-0.028772
-0.0256381
-0.0252071
-0.023824
-0.0219529
-0.022948
-0.0247856
-0.024333
-0.0205865
-0.104549
-0.100714
-0.0969061
-0.0931669
-0.0895395
-0.0860806
-0.0828185
-0.0797674
-0.0769
-0.0741596
-0.0714919
-0.0683684
-0.06527
-0.0622717
-0.0594473
-0.0568295
-0.0544246
-0.052219
-0.0501886
-0.0482982
-0.0465163
-0.044812
-0.0431645
-0.0415458
-0.0399291
-0.0382837
-0.036581
-0.0348006
-0.0329357
-0.0309937
-0.0290011
-0.0269848
-0.0249613
-0.0229397
-0.0209171
-0.0238782
-0.0234552
-0.0220697
-0.0202583
-0.0212393
-0.0230385
-0.0225869
-0.0189116
-0.104364
-0.100485
-0.0966688
-0.0929677
-0.0894307
-0.0860989
-0.0829766
-0.0800401
-0.0772424
-0.0745167
-0.0717856
-0.0687006
-0.0655724
-0.0625017
-0.0595694
-0.056818
-0.0542693
-0.0519269
-0.0497849
-0.0478133
-0.0459847
-0.0442632
-0.0426181
-0.041027
-0.0394618
-0.0378944
-0.036296
-0.0346351
-0.0328911
-0.031058
-0.0291478
-0.0271897
-0.0252061
-0.0232173
-0.021226
-0.0192405
-0.0221151
-0.0216637
-0.0204347
-0.018555
-0.0195123
-0.0212213
-0.0207745
-0.0172399
-0.104155
-0.100263
-0.096478
-0.0928631
-0.0894541
-0.0862589
-0.0832544
-0.0803923
-0.0776206
-0.0748891
-0.0690325
-0.0712905
-0.0726861
-0.0658926
-0.0627899
-0.0597931
-0.0569408
-0.0542607
-0.0517722
-0.0494924
-0.0474062
-0.0454944
-0.0437242
-0.0420607
-0.0404717
-0.0389347
-0.0374204
-0.0359013
-0.0343456
-0.0327232
-0.0310125
-0.0292119
-0.0273364
-0.0254088
-0.0234626
-0.0215044
-0.0195453
-0.0175741
-0.0205804
-0.0199304
-0.0186773
-0.0168709
-0.0178394
-0.0195496
-0.0191428
-0.0155892
-0.103947
-0.100082
-0.0963784
-0.0928853
-0.0896155
-0.0865377
-0.083607
-0.0807661
-0.0779764
-0.0743204
-0.0758925
-0.0661868
-0.0684979
-0.0699292
-0.071462
-0.0727183
-0.0630922
-0.0600777
-0.0571648
-0.0543842
-0.0517646
-0.0493407
-0.0471139
-0.0450862
-0.0432308
-0.041515
-0.0399063
-0.0383715
-0.0368859
-0.0354208
-0.0339461
-0.0324316
-0.0308438
-0.0291659
-0.0273962
-0.0255548
-0.0236657
-0.0217488
-0.0198212
-0.0178796
-0.0159249
-0.0205587
-0.0197841
-0.0187382
-0.0183223
-0.0170116
-0.0152262
-0.0161859
-0.0179158
-0.0174934
-0.019438
-0.0190451
-0.0139674
-0.103775
-0.0999845
-0.0964042
-0.0930472
-0.0898952
-0.0868916
-0.0839792
-0.0811064
-0.0773895
-0.0789833
-0.0745201
-0.0760071
-0.0633735
-0.0656598
-0.0670542
-0.0685837
-0.0700546
-0.071265
-0.0720483
-0.0734707
-0.0723215
-0.0603791
-0.0574484
-0.054608
-0.0518911
-0.0493366
-0.0469647
-0.0447974
-0.0428229
-0.0410182
-0.0393565
-0.0378001
-0.036316
-0.03488
-0.033461
-0.0320287
-0.0305508
-0.0289979
-0.0273511
-0.0256149
-0.0238077
-0.0219479
-0.020062
-0.0181547
-0.0162305
-0.0143011
-0.0186219
-0.0182122
-0.0170741
-0.0166629
-0.0153694
-0.0136079
-0.0145516
-0.0162586
-0.0158406
-0.0178162
-0.017393
-0.0123681
-0.103683
-0.100008
-0.0965661
-0.0933304
-0.0902524
-0.0872678
-0.0843244
-0.0805237
-0.0821475
-0.0775236
-0.0790904
-0.0742449
-0.0749793
-0.0764529
-0.0756705
-0.0606611
-0.0628897
-0.0642506
-0.0657593
-0.0671563
-0.0683221
-0.0690246
-0.0704773
-0.069758
-0.0712078
-0.0719725
-0.0717642
-0.0577481
-0.0548896
-0.0521154
-0.0494638
-0.0469656
-0.0446533
-0.0425364
-0.0406118
-0.0388593
-0.0372465
-0.0357395
-0.0343051
-0.0329158
-0.0315399
-0.0301476
-0.0287052
-0.0271836
-0.0255691
-0.0238637
-0.0220841
-0.0202565
-0.018393
-0.0165043
-0.0146029
-0.0127012
-0.0169554
-0.0165493
-0.0154256
-0.0150196
-0.0137451
-0.0120085
-0.0129366
-0.0146194
-0.0142069
-0.0161549
-0.0157362
-0.0107904
-0.103707
-0.100169
-0.0968496
-0.0936937
-0.0906361
-0.0876234
-0.0837366
-0.0853917
-0.0806677
-0.0822696
-0.0772343
-0.0780208
-0.0795572
-0.078769
-0.0580274
-0.0601943
-0.0615258
-0.0629989
-0.0643659
-0.065502
-0.0661986
-0.0675887
-0.0668894
-0.0683686
-0.06907
-0.0704963
-0.0697872
-0.0551848
-0.0523946
-0.0496876
-0.0470965
-0.0446572
-0.0423973
-0.0403305
-0.0384547
-0.0367488
-0.0351834
-0.0337252
-0.0323368
-0.0309918
-0.0296576
-0.0283008
-0.0268924
-0.0254019
-0.0238158
-0.022139
-0.0203892
-0.0185855
-0.0167401
-0.0148724
-0.0129994
-0.0111235
-0.0153055
-0.0149049
-0.0137976
-0.0133967
-0.0121393
-0.0104266
-0.0113395
-0.0130011
-0.0125935
-0.0145151
-0.0141021
-0.00923097
-0.103865
-0.100455
-0.0972177
-0.0940867
-0.0910034
-0.0870251
-0.0887159
-0.0838852
-0.0855215
-0.0803698
-0.0811709
-0.0827437
-0.0819393
-0.0554597
-0.0575682
-0.05887
-0.0603033
-0.0616393
-0.0627422
-0.0634262
-0.0647881
-0.0640987
-0.0655494
-0.066242
-0.0676374
-0.0669384
-0.0526861
-0.049964
-0.0473204
-0.0447895
-0.0424061
-0.0401966
-0.0381783
-0.0363483
-0.0346872
-0.0331685
-0.0317541
-0.0304103
-0.0291077
-0.027811
-0.0264898
-0.0251107
-0.0236483
-0.0220913
-0.0204435
-0.0187151
-0.0169255
-0.0150998
-0.0132597
-0.0114154
-0.00956268
-0.0136781
-0.0132823
-0.0121888
-0.0117929
-0.0105493
-0.00886037
-0.00975646
-0.011401
-0.0109978
-0.0128969
-0.0124886
-0.00768642
-0.10415
-0.100827
-0.0976196
-0.0944661
-0.0903933
-0.0921223
-0.0871776
-0.0888518
-0.083579
-0.0843977
-0.0860066
-0.085184
-0.052956
-0.0550087
-0.05628
-0.0576747
-0.0589786
-0.06005
-0.0607183
-0.0620481
-0.0613734