/*--------------------------------*- C++ -*----------------------------------*\
| =========                 |                                                 |
| \\      /  F ield         | OpenFOAM: The Open Source CFD Toolbox           |
|  \\    /   O peration     | Version:  v1912                                 |
|   \\  /    A nd           | Website:  www.openfoam.com                      |
|    \\/     M anipulation  |                                                 |
\*---------------------------------------------------------------------------*/
FoamFile
{
    version     2.0;
    format      ascii;
    class       surfaceScalarField;
    location    "170";
    object      phi;
}
// * * * * * * * * * * * * * * * * * * * * * * * * * * * * * * * * * * * * * //

dimensions      [0 3 -1 0 0 0 0];
oriented        oriented;


internalField   nonuniform List<scalar> 
7191
(
-1.96627e-06
0.00132094
-9.11856e-06
0.00396643
-2.11924e-06
0.00132306
-2.42459e-05
0.0065717
-9.50546e-06
0.00397382
-2.1235e-06
0.00132518
-4.49047e-05
0.0090498
-2.41168e-05
0.00658631
-9.51077e-06
0.00398121
-2.005e-06
0.00132719
-7.51571e-05
0.0112889
-4.81745e-05
0.00907385
-2.36424e-05
0.00660045
-9.38633e-06
0.00398859
-2.04712e-06
0.00132923
-0.000115857
0.0131521
-7.91908e-05
0.0113199
-4.54733e-05
0.00909569
-2.42601e-05
0.00661532
-9.77073e-06
0.00399631
-1.73121e-06
0.00133097
-0.00016218
0.0145119
-0.000119529
0.0131924
-7.90895e-05
0.0113535
-4.64611e-05
0.00911789
-2.18444e-05
0.00662739
-8.13084e-06
0.00400271
-1.60765e-06
0.00133257
-0.000206523
0.0152554
-0.000165108
0.0145575
-0.000117886
0.0132312
-7.34216e-05
0.0113805
-4.15441e-05
0.00913759
-1.96514e-05
0.00663891
-7.31284e-06
0.00400842
-1.50423e-06
0.00133408
-0.000249466
0.0153165
-0.000215366
0.0153056
-0.00016246
0.014602
-0.000112603
0.0132704
-7.08297e-05
0.0114097
-3.79101e-05
0.00915584
-1.8317e-05
0.00664992
-6.69142e-06
0.0040136
-1.17875e-06
0.00133526
-0.000279752
0.0146557
-0.000258392
0.0153595
-0.000211488
0.0153547
-0.000155974
0.0146454
-0.000101107
0.0133006
-6.18742e-05
0.0114337
-3.36865e-05
0.00917121
-1.56281e-05
0.00665885
-4.62322e-06
0.00401705
-1.1929e-06
0.00133645
-0.000292389
0.0133112
-0.000300634
0.0146979
-0.000258331
0.0154063
-0.000197854
0.0153965
-0.000137148
0.0146814
-9.22317e-05
0.013331
-5.44649e-05
0.0114545
-3.00773e-05
0.00918566
-1.42773e-05
0.00666851
-5.24989e-06
0.0040211
-8.60661e-07
0.00133731
-0.000285626
0.0113676
-0.000331682
0.0133422
-0.000297441
0.014737
-0.000237314
0.0154458
-0.000174425
0.0154338
-0.00012269
0.0147119
-7.86399e-05
0.0133552
-4.77167e-05
0.0114721
-2.5812e-05
0.0091972
-1.10021e-05
0.00667426
-4.6298e-06
0.00402487
-7.6636e-07
0.00133808
-0.000245781
0.00895745
-0.00035207
0.011388
-0.000326855
0.0133716
-0.000263661
0.0147634
-0.000201074
0.0154724
-0.000148538
0.0154597
-0.000102569
0.0147358
-6.59749e-05
0.0133734
-3.96688e-05
0.011486
-2.16078e-05
0.0092078
-1.14843e-05
0.00668112
-4.22491e-06
0.00402833
-8.02651e-07
0.00133888
0.00623303
-0.00011001
-5.03069e-05
-0.000357093
0.00896248
-0.000343468
0.0114046
-0.000276981
0.0133849
-0.000216634
0.0147789
-0.00016667
0.0154906
-0.000119722
0.0154768
-8.43784e-05
0.0147542
-5.81756e-05
0.0133919
-3.65415e-05
0.0115009
-2.08096e-05
0.00921713
-1.03547e-05
0.00668724
-4.06444e-06
0.00403159
-7.87495e-07
0.00133967
0.00621874
-0.000200907
-0.000141892
-0.0021155
0.00206906
-6.35715e-05
-3.26555e-05
-0.00213315
-0.00034928
0.00896829
-0.000268924
0.0113966
-0.000210806
0.0133791
-0.000166959
0.0147792
-0.000129583
0.0155004
-0.000101338
0.0154938
-7.37989e-05
0.0147699
-4.80054e-05
0.0134034
-3.04772e-05
0.0115106
-1.75943e-05
0.00922437
-8.80313e-06
0.00669198
-3.9426e-06
0.00403475
-8.55465e-07
0.00134052
0.00620478
-0.000139866
-0.000195454
-0.0020384
0.00201123
-0.000173744
-0.000111228
-0.0013946
0.00135142
-1.54925e-05
-4.90125e-06
-9.11445e-07
-0.0014197
-6.64355e-06
-2.00725e-05
-0.00022805
0.00892742
-0.000183598
0.0113694
-0.000153992
0.0133661
-0.000128697
0.0147783
-0.000105302
0.0155044
-8.08192e-05
0.0155008
-5.76878e-05
0.0147795
-4.25687e-05
0.0134155
-2.79389e-05
0.0115209
-1.89796e-05
0.00923455
-1.03385e-05
0.00669838
-3.48708e-06
0.00403738
-1.09746e-06
0.00134162
0.00611871
-4.18609e-05
-0.000100116
-0.00198721
0.00195651
-0.000109162
-0.000171434
-0.00129678
0.0012628
-8.68397e-05
-5.29226e-05
-1.69666e-05
-3.96249e-05
-0.000438218
0.00042821
-5.48445e-06
-0.000440481
-2.63877e-06
0.000445369
-0.000445513
-7.67237e-07
-3.60199e-06
-6.05535e-08
-1.755e-06
-0.000125097
0.00886892
-0.000117019
0.0113324
-0.000107489
0.0133449
-9.60702e-05
0.0147691
-8.01448e-05
0.0155037
-6.40146e-05
0.0155071
-5.23168e-05
0.0147893
-3.86608e-05
0.0134262
-2.73216e-05
0.0115293
-1.7336e-05
0.00924154
-1.08763e-05
0.00670577
-5.04313e-06
0.00404133
-1.15822e-06
0.00134278
0.00603834
-8.23338e-06
-3.64938e-05
-0.00191079
0.00189322
-2.42911e-05
-5.43978e-05
-0.00123476
0.00118296
-1.69956e-05
-4.03741e-05
-7.99032e-05
-6.34863e-05
-0.000379275
0.0003523
-5.98652e-05
-0.000399042
-3.31551e-05
0.000420422
-9.17812e-06
-1.82452e-05
-0.00025713
0.000252406
-7.61069e-07
-0.000259355
-4.13065e-07
-0.000448054
-1.06121e-06
0.000260835
-0.00026154
-6.21063e-08
-1.8787e-08
-2.75387e-07
-6.70175e-05
0.00881891
-7.46502e-05
0.0112996
-7.61555e-05
0.013325
-7.2496e-05
0.0147614
-6.50461e-05
0.0155047
-5.8137e-05
0.0155129
-4.70053e-05
0.0147976
-3.69778e-05
0.0134359
-2.93668e-05
0.0115413
-2.07202e-05
0.00925139
-1.07204e-05
0.00671145
-5.36638e-06
0.00404553
-1.22524e-06
0.001344
0.00598726
-6.29824e-07
-1.5307e-05
-0.00186926
0.00186646
-5.43213e-06
-1.25345e-05
-0.00114152
0.00112054
-1.7581e-07
-3.13479e-06
-1.03895e-05
-2.5689e-06
-0.000288984
0.000278294
-6.30556e-06
-0.000310711
-1.8648e-05
0.000330743
-5.83463e-05
-4.34538e-05
-0.000207042
0.000168441
-2.12647e-05
-0.000230482
-9.7152e-06
0.000244951
-1.72267e-06
-3.77604e-06
-7.48529e-05
7.40918e-05
-7.52659e-05
-0.000262487
-1.1383e-07
7.55413e-05
-7.56034e-05
-4.48322e-08
-3.72409e-05
0.00878151
-4.89176e-05
0.0112723
-5.42649e-05
0.0133068
-5.46826e-05
0.0147511
-5.4243e-05
0.0155009
-4.91782e-05
0.0155151
-4.33684e-05
0.014804
-3.82256e-05
0.0134447
-2.97382e-05
0.0115503
-2.05222e-05
0.00926119
-1.37336e-05
0.00671981
-6.21174e-06
0.00405052
-1.54873e-06
0.00134555
0.00595695
9.50131e-07
-7.88156e-06
-0.00185469
0.00185506
-1.00551e-06
-3.53476e-06
-0.00110899
0.00110365
5.48908e-07
-6.37845e-07
-1.20031e-06
2.16325e-07
-0.000265522
0.000265439
-9.28977e-08
-0.000268282
-3.74657e-07
0.000270181
-2.27562e-06
-6.70705e-07
-8.56063e-05
7.93008e-05
-0.000104254
0.000147708
-3.76132e-05
-5.88779e-05
3.76132e-05
-6.85931e-05
7.23691e-05
-7.57173e-05
-2.20175e-05
0.00875461
-3.3473e-05
0.0112515
-4.06143e-05
0.0132927
-4.67674e-05
0.0147436
-4.7731e-05
0.0154994
-4.68779e-05
0.0155186
-4.60988e-05
0.0148119
-4.08594e-05
0.0134559
-3.27958e-05
0.0115626
-2.52644e-05
0.00927272
-1.52232e-05
0.00672882
-6.97841e-06
0.00405595
-1.58677e-06
0.00134714
0.00593828
1.64472e-06
-4.99588e-06
-0.0018486
0.00185018
-6.27452e-07
-1.41589e-06
-0.00110023
0.00109914
4.02506e-07
-3.2302e-07
-3.34269e-07
2.2392e-07
-0.000263909
0.000264399
5.91937e-08
-0.000264604
5.64011e-08
0.000264412
-1.72981e-07
2.45654e-08
-7.59798e-05
7.58869e-05
-7.63544e-05
7.70251e-05
-1.40204e-05
0.00873515
-2.49083e-05
0.0112358
-3.20281e-05
0.013278
-3.78399e-05
0.0147337
-4.45363e-05
0.0154971
-4.78564e-05
0.0155204
-4.95063e-05
0.0148205
-4.55623e-05
0.0134686
-3.95622e-05
0.0115769
-2.86844e-05
0.00928618
-1.71106e-05
0.00673896
-7.82394e-06
0.00406219
-1.94936e-06
0.00134909
0.00592644
9.60284e-07
-3.14567e-06
-0.00184584
0.00184751
-3.18134e-08
-6.57404e-07
-0.00109776
0.00109703
2.63077e-07
-1.61549e-07
-1.88462e-07
1.51439e-07
-0.000263916
0.000264286
3.29127e-08
-0.00026432
8.04394e-08
0.000264151
-8.62843e-08
5.55247e-08
-7.57949e-05
7.58541e-05
-7.57385e-05
7.57139e-05
-1.01657e-05
0.00872041
-1.72671e-05
0.0112211
-2.74805e-05
0.0132676
-3.56002e-05
0.0147248
-4.38902e-05
0.0154931
-5.35709e-05
0.0155244
-5.59311e-05
0.0148309
-5.44275e-05
0.0134835
-4.54007e-05
0.0115936
-3.41564e-05
0.00930323
-2.05251e-05
0.00675166
-9.38968e-06
0.00406963
-2.04958e-06
0.00135114
0.00591741
7.35425e-07
-1.86321e-06
-0.00184491
0.00184565
2.22625e-07
-5.46038e-07
-0.00109648
0.00109629
2.52436e-07
-9.58345e-08
-1.52119e-07
4.67709e-08
-0.000264058
0.00026431
1.05782e-08
-0.000264285
6.5584e-08
0.000264166
-6.84997e-08
3.25844e-08
-7.59038e-05
7.59367e-05
-7.58233e-05
7.57678e-05
-7.07515e-06
0.00871022
-1.4301e-05
0.0112079
-2.501e-05
0.013257
-3.64009e-05
0.0147173
-4.93108e-05
0.0154888
-5.92414e-05
0.0155278
-6.60221e-05
0.0148425
-6.36844e-05
0.0135018
-5.35568e-05
0.011613
-3.6038e-05
0.00931874
-2.08571e-05
0.00676313
-8.93138e-06
0.00407651
-1.86154e-06
0.001353
0.00591066
1.157e-06
-1.48132e-06
-0.00184418
0.00184474
1.78865e-07
-3.90308e-07
-0.0010958
0.00109597
1.63914e-07
-1.08227e-07
-8.79906e-08
3.45418e-08
-0.000264101
0.000264345
8.24017e-09
-0.000264267
7.08995e-08
0.000264237
-7.94902e-08
1.67543e-08
-7.59663e-05
7.59769e-05
-7.59008e-05
7.58682e-05
-5.93387e-06
0.00870185
-1.30261e-05
0.0111959
-2.40214e-05
0.0132446
-4.21631e-05
0.0147101
-6.0978e-05
0.0154906
-7.57668e-05
0.0155375
-7.96769e-05
0.0148585
-7.33498e-05
0.0135216
-5.88651e-05
0.0116358
-4.12494e-05
0.00933913
-2.30027e-05
0.0067772
-8.83756e-06
0.00408349
-1.9312e-06
0.00135493
0.00590493
9.67059e-07
-1.17876e-06
-0.00184347
0.0018444
2.23997e-07
-2.12577e-07
-0.00109564
0.0010957
1.62274e-07
-4.34335e-08
-2.02845e-08
-4.44768e-08
-0.000264181
0.000264343
2.10372e-09
-0.000264358
6.82133e-08
0.000264337
-8.03422e-08
1.40166e-08
-7.59851e-05
7.59933e-05
-7.59142e-05
7.58974e-05
-4.11958e-06
0.00869294
-1.275e-05
0.0111846
-2.84929e-05
0.013231
-4.73729e-05
0.0146965
-7.09328e-05
0.0154857
-8.9603e-05
0.0155474
-9.75375e-05
0.0148827
-8.70597e-05
0.0135498
-6.65917e-05
0.0116612
-4.35423e-05
0.00935967
-2.25023e-05
0.00679086
-9.53509e-06
0.00409109
-2.51059e-06
0.00135744
0.00590064
8.21112e-07
-6.46881e-07
-0.00184341
0.00184414
2.32878e-07
-1.85069e-07
-0.00109555
0.00109564
1.66007e-07
-3.15861e-08
-1.8797e-08
-3.85647e-08
-0.000264209
0.000264366
5.50596e-09
-0.00026435
9.69487e-08
0.000264403
-7.99992e-08
8.50349e-09
-7.59952e-05
7.59973e-05
-7.5927e-05
7.5913e-05
-4.68571e-06
0.00868488
-1.51311e-05
0.0111713
-3.49249e-05
0.0132185
-6.49955e-05
0.0146906
-9.42462e-05
0.0154904
-0.000113092
0.015563
-0.000113323
0.0149089
-9.74582e-05
0.0135806
-7.15759e-05
0.0116892
-4.47658e-05
0.00938193
-2.28437e-05
0.00680417
-7.77991e-06
0.00409636
-7.37175e-07
0.00135818
0.00589586
4.38435e-07
-3.4164e-07
-0.00184348
0.00184404
2.67537e-07
1.07685e-08
-0.00109551
0.0010956
1.64697e-07
-2.24232e-08
-1.15774e-08
-4.87439e-08
-0.000264279
0.000264439
6.07677e-09
-0.000264376
6.53078e-08
0.000264431
-8.34422e-08
1.62282e-08
-7.60228e-05
7.60283e-05
-7.59258e-05
7.59173e-05
-4.73896e-06
0.00867449
-2.03572e-05
0.0111567
-4.74546e-05
0.013201
-8.47495e-05
0.0146811
-0.000118686
0.015496
-0.000136816
0.0155865
-0.000130178
0.0149417
-0.000106908
0.013616
-7.5211e-05
0.0117197
-4.21684e-05
0.00940126
-2.14338e-05
0.00681782
-6.75825e-06
0.00410238
-6.67624e-07
0.00135885
0.00589169
-7.50281e-07
1.79318e-07
-0.00184364
0.00184394
1.36194e-07
5.7934e-08
-0.00109566
0.00109577
1.68453e-07
-1.65826e-08
-6.88959e-09
-3.86221e-08
-0.000264349
0.00026452
-6.47003e-09
-0.000264358
-1.3423e-08
0.000264515
-8.78828e-08
1.08431e-07
-7.60264e-05
7.60324e-05
-7.59611e-05
7.59448e-05
-7.55501e-06
0.00866169
-2.77821e-05
0.011137
-6.49031e-05
0.0131811
-0.000113703
0.0146761
-0.000151419
0.0155106
-0.000163644
0.0156199
-0.000145061
0.0149798
-0.000111182
0.0136519
-7.24202e-05
0.0117499
-4.12452e-05
0.00942107
-1.75321e-05
0.0068286
-6.25151e-06
0.00410796
-4.16647e-07
0.00135926
0.00588412
-1.04226e-06
1.05466e-06
-0.00184402
0.00184313
1.43981e-07
9.68762e-08
-0.00109586
0.00109584
1.70321e-07
-1.30923e-08
3.2627e-09
-3.26983e-08
-0.000264405
0.000264578
-5.44295e-09
-0.00026441
-1.15346e-08
0.00026456
-4.64502e-08
1.11784e-07
-7.60396e-05
7.60331e-05
-7.6053e-05
7.59446e-05
-1.12001e-05
0.0086451
-4.06106e-05
0.0111127
-9.5276e-05
0.0131627
-0.00015171
0.0146764
-0.00018909
0.015536
-0.000185852
0.0156607
-0.000155129
0.0150238
-0.000110496
0.01369
-6.83552e-05
0.011777
-3.65405e-05
0.00944008
-1.60711e-05
0.00683842
-3.04462e-06
0.00411059
-1.95311e-07
0.00135946
0.00587354
-2.00542e-06
1.38956e-06
-0.00184401
0.00184316
-1.91332e-07
1.70114e-07
-0.00109596
0.00109596
1.65336e-07
-2.01923e-08
3.55929e-09
-2.36378e-08
-0.000264512
0.000264688
-5.34811e-09
-0.000264515
-1.00825e-08
0.000264661
-7.88322e-08
1.1258e-07
-7.60869e-05
7.60815e-05
-7.60984e-05
7.59866e-05
-1.83228e-05
0.00862282
-6.46423e-05
0.0110821
-0.00013554
0.0131465
-0.000199503
0.0146868
-0.000222687
0.0155729
-0.000197667
0.0157033
-0.000153796
0.0150671
-0.000102747
0.0137244
-6.11876e-05
0.0118017
-3.11097e-05
0.00945512
-1.07924e-05
0.00684617
-2.78743e-06
0.00411318
1.78178e-07
0.00135928
0.00585776
-3.44942e-06
9.04731e-07
-0.00184409
0.00184249
-4.11912e-07
4.63299e-07
-0.00109616
0.00109578
1.78939e-07
2.68491e-09
-6.30425e-10
-2.98652e-08
-0.000264589
0.000264763
-8.28396e-09
-0.000264632
2.21204e-08
0.000264735
-4.35889e-08
7.9683e-08
-7.61051e-05
7.60998e-05
-7.61152e-05
7.60026e-05
-3.08553e-05
0.00858903
-0.000100877
0.0110474
-0.000191836
0.0131389
-0.000249033
0.0147132
-0.000241372
0.0156166
-0.00020017
0.0157496
-0.000142861
0.0151072
-9.29333e-05
0.0137561
-5.20195e-05
0.0118226
-2.30116e-05
0.00946734
-6.59445e-06
0.00684997
7.07722e-07
0.00411265
1.73061e-06
0.00135755
0.00583117
-5.89313e-06
1.62799e-06
-0.00184286
0.00184005
-6.42868e-07
5.41288e-07
-0.00109624
0.00109571
1.08308e-07
6.85046e-09
1.80047e-08
-1.19657e-08
-0.000264718
0.000264895
2.55958e-09
-0.000264725
9.40351e-09
0.000264846
-8.38782e-08
9.11962e-08
-7.6158e-05
7.61497e-05
-7.61359e-05
7.60562e-05
-5.54241e-05
0.00854358
-0.000161283
0.0110169
-0.000260087
0.0131499
-0.000281319
0.0147531
-0.000244986
0.0156614
-0.000185514
0.0157923
-0.000126749
0.015141
-7.73974e-05
0.0137815
-4.14793e-05
0.011841
-1.58506e-05
0.00947659
-3.14903e-06
0.00685383
1.61043e-06
0.00411278
2.06289e-06
0.00135549
0.00578799
-1.20525e-05
-1.9271e-07
-0.00184172
0.00183678
-9.49627e-07
-4.24396e-08
-0.00109622
0.00109545
5.0215e-08
8.06231e-08
9.34865e-08
-6.33025e-08
-0.000264877
0.000264987
-1.60915e-09
-0.000264882
1.18211e-08
0.000264991
-7.76488e-08
9.65049e-08
-7.61664e-05
7.6169e-05
-7.6157e-05
7.60658e-05
-0.000104374
0.00848667
-0.000243211
0.011
-0.000310831
0.0131794
-0.000287964
0.0147961
-0.000225112
0.015701
-0.000158957
0.0158245
-0.000103949
0.0151675
-6.17793e-05
0.0138018
-2.88974e-05
0.0118541
-9.50736e-06
0.00948295
9.0851e-07
0.00685453
5.22259e-06
0.00410962
2.46097e-06
0.00135302
0.00571659
-2.77548e-05
-5.21696e-06
-0.00183739
0.00182822
-2.8793e-06
-8.09319e-07
-0.00109536
0.00109431
-3.40332e-10
9.87576e-08
1.76953e-07
-1.26182e-07
-0.000265029
0.000265073
5.60076e-09
-0.000264993
4.54582e-08
0.000265126
-4.52319e-08
6.89642e-08
-7.61997e-05
7.6198e-05
-7.61878e-05
7.60913e-05
-0.000192345
0.0084358
-0.000329236
0.0110184
-0.000322615
0.0132141
-0.000255623
0.0148266
-0.000188812
0.0157308
-0.00013089
0.0158514
-8.25465e-05
0.0151883
-4.39844e-05
0.0138169
-1.8645e-05
0.0118632
-2.50249e-06
0.00948636
3.57525e-06
0.00685618
7.27178e-06
0.0041048
2.84201e-06
0.00135018
0.00562133
-7.16007e-05
-2.5488e-05
-0.0018263
0.00180729
-8.74876e-06
-3.29422e-06
-0.00109348
0.00109081
-3.13e-07
9.75262e-08
1.92152e-07
-1.70521e-07
-0.000265178
0.000265207
-2.97948e-08
-0.000265094
1.52535e-08
0.000265323
-7.26631e-08
1.02496e-07
-7.62672e-05
7.62728e-05
-7.62218e-05
7.61528e-05
-0.000323305
0.00842987
-0.000349157
0.011045
-0.000275679
0.0132342
-0.000207174
0.014845
-0.000147493
0.0157474
-9.91342e-05
0.015868
-5.89342e-05
0.0152033
-2.94669e-05
0.0138277
-8.74316e-06
0.0118695
3.84333e-06
0.00948609
1.07357e-05
0.00685271
7.59969e-06
0.00410005
3.31702e-06
0.00134687
0.00556849
-0.00017495
-9.55164e-05
-0.00179587
0.0017553
-3.1035e-05
-1.40608e-05
-0.00108757
0.00107946
-8.05502e-07
1.58083e-07
4.45827e-07
-4.90649e-07
-0.000265225
0.000264946
-3.42986e-08
-0.000265179
5.15921e-08
0.000265427
-2.77173e-08
7.77243e-08
-7.63179e-05
7.62881e-05
-7.63027e-05
7.62002e-05
-0.000362693
0.00844341
-0.000275382
0.0110447
-0.000206237
0.0132332
-0.000154174
0.0148516
-0.00010859
0.0157569
-7.04984e-05
0.0158796
-3.9596e-05
0.0152134
-1.40668e-05
0.0138331
2.65167e-06
0.0118707
1.13485e-05
0.00948548
1.1877e-05
0.00684844
9.16157e-06
0.0040942
3.8553e-06
0.00134301
0.0055621
-0.000160689
-0.000195614
-0.00171917
0.00167057
-0.000126345
-5.93874e-05
-0.0010667
0.00103951
-3.59012e-06
-2.5514e-07
1.39097e-07
-1.43744e-06
-0.000265004
0.000264275
-7.6726e-08
-0.00026487
2.48519e-08
0.000265439
-4.7099e-08
7.78121e-08
-7.63897e-05
7.63554e-05
-7.63381e-05
7.62604e-05
-0.000239532
0.00840756
-0.000179046
0.0110175
-0.000139324
0.0132184
-0.00010383
0.0148469
-7.4282e-05
0.0157607
-4.70134e-05
0.015887
-2.0891e-05
0.0152202
-3.86947e-06
0.0138396
1.06293e-05
0.0118714
1.52244e-05
0.00948213
1.94078e-05
0.00683819
1.07018e-05
0.00408736
4.58527e-06
0.00133843
0.00547185
-4.26581e-05
-0.000106621
-0.00164328
0.00160955
-0.000126952
-0.000168331
-0.000992774
0.000917733
-3.70193e-05
-1.42852e-05
-2.09945e-06
-1.05497e-05
-0.000262919
0.000259852
-5.23193e-07
-0.000263104
-6.978e-08
0.000264515
-1.01249e-07
-2.65989e-08
-7.6411e-05
7.63343e-05
-7.63861e-05
7.63083e-05
-0.000121157
0.00834967
-0.000106585
0.0109847
-8.96758e-05
0.0132042
-6.95952e-05
0.0148422
-4.87208e-05
0.0157624
-2.50653e-05
0.0158912
-6.27364e-06
0.0152226
8.08383e-06
0.0138421
1.79117e-05
0.0118687
2.14503e-05
0.00948009
1.74097e-05
0.00683148
1.51449e-05
0.0040768
6.30227e-06
0.00133212
0.00538769
-5.30055e-06
-3.16982e-05
-0.00155769
0.0015351
-2.0068e-05
-5.47614e-05
-0.000872329
0.000808873
-1.86246e-05
-4.4872e-05
-5.93885e-05
-6.35379e-05
-0.000239064
0.000211999
-9.95415e-06
-0.000249505
-3.844e-06
0.000258357
-6.0395e-07
-1.69855e-06
-7.61366e-05
7.56134e-05
-7.62064e-05
7.6233e-05
-5.69331e-05
0.00830002
-5.95018e-05
0.0109546
-5.32145e-05
0.0131878
-4.12035e-05
0.0148347
-2.34445e-05
0.0157608
-7.35919e-06
0.0158923
5.77276e-06
0.0152249
2.03833e-05
0.0138396
2.55623e-05
0.0118646
2.81176e-05
0.00946938
2.54622e-05
0.00682117
1.53024e-05
0.0040678
5.7622e-06
0.00132636
0.00534004
1.75639e-06
-1.10346e-05
-0.00151187
0.00150916
-2.59616e-06
-8.46886e-06
-0.000761705
0.000742416
9.79829e-08
-8.77407e-07
-6.35137e-06
-1.24204e-06
-0.000103713
8.50888e-05
-0.000148585
0.000174651
-2.204e-05
-3.74727e-05
-6.94669e-05
5.95128e-05
-7.33109e-05
7.50095e-05
-2.69957e-05
0.00826751
-3.24489e-05
0.0109338
-2.84732e-05
0.0131751
-1.94735e-05
0.0148307
-9.12876e-06
0.0157625
4.16646e-06
0.0158939
1.6794e-05
0.0152285
2.71279e-05
0.0138381
3.13497e-05
0.0118613
3.26333e-05
0.00946221
2.78763e-05
0.00680859
1.90722e-05
0.00405449
6.58259e-06
0.00131978
0.0053149
3.13979e-06
-5.00297e-06
-0.00149949
0.00150115
9.83017e-08
-1.36539e-06
-0.000733997
0.000731339
1.45665e-07
-8.41326e-08
-1.94631e-07
1.45081e-07
-7.6618e-05
7.6716e-05
-7.74954e-05
7.87374e-05
3.74727e-05
-1.13228e-05
0.00824638
-1.38904e-05
0.0109192
-1.22581e-05
0.0131679
-4.16195e-06
0.0148257
6.56127e-06
0.0157601
1.80946e-05
0.0158926
2.90126e-05
0.0152266
3.51548e-05
0.0138343
3.95866e-05
0.0118544
4.10649e-05
0.00944902
3.17398e-05
0.00679592
2.14654e-05
0.0040396
8.50129e-06
0.00131128
0.0053035
2.88951e-06
-2.80905e-06
-0.00149628
0.001499
4.25049e-07
-1.35583e-07
-0.000729867
0.000729901
9.5114e-08
-3.06549e-08
-1.86324e-08
1.25193e-07
-7.65823e-05
7.67279e-05
-7.66664e-05
7.65213e-05
-3.38004e-06
0.00823587
-3.27652e-06
0.0109102
9.46647e-07
0.0131628
8.57473e-06
0.0148237
1.9067e-05
0.0157592
2.82361e-05
0.0158934
3.82561e-05
0.0152235
4.38158e-05
0.01383
4.82678e-05
0.0118472
4.33983e-05
0.00943737
3.71626e-05
0.00678023
2.15369e-05
0.00402657
8.05891e-06
0.00130322
0.0052986
2.71769e-06
-1.19493e-06
-0.00149608
0.00149844
5.24382e-07
1.11254e-07
-0.000729706
0.000730088
6.35952e-08
-1.97592e-08
-3.07026e-08
8.9819e-08
-7.68038e-05
7.6899e-05
-7.68345e-05
7.67093e-05
1.83608e-06
0.00823076
3.78575e-06
0.0109074
9.39097e-06
0.013162
1.66895e-05
0.0148261
2.66337e-05
0.0157608
3.82352e-05
0.0158934
4.54114e-05
0.0152219
5.37795e-05
0.0138245
5.53382e-05
0.0118352
4.94908e-05
0.00942504
4.07052e-05
0.00676106
2.43376e-05
0.00401029
8.96238e-06
0.00129426
0.00529764
3.0624e-06
-2.66207e-07
-0.00149692
0.00149906
5.82767e-07
3.27122e-07
-0.000730121
0.00073062
5.26888e-08
-2.77418e-08
-4.30739e-09
8.2521e-08
-7.69383e-05
7.70019e-05
-7.69581e-05
7.68683e-05
4.28344e-06
0.00823026
9.05972e-06
0.0109077
1.68584e-05
0.0131618
2.61678e-05
0.0148266
3.60243e-05
0.015763
4.6742e-05
0.015892
5.60199e-05
0.0152197
6.05744e-05
0.0138193
5.74513e-05
0.0118273
5.49107e-05
0.00941083
4.24055e-05
0.00674299
2.98597e-05
0.00398939
9.37062e-06
0.00128488
0.00529907
2.95619e-06
-1.03497e-07
-0.00149837
0.00150083
5.96316e-07
4.2384e-07
-0.00073087
0.000731342
3.30366e-08
7.74345e-08
2.81807e-08
4.93886e-08
-7.70524e-05
7.71051e-05
-7.70801e-05
7.69976e-05
7.48521e-06
0.00823184
1.43511e-05
0.0109102
2.24737e-05
0.0131655
3.37804e-05
0.0148288
4.59429e-05
0.0157638
5.52983e-05
0.0158928
6.33746e-05
0.0152169
6.90069e-05
0.0138077
7.18296e-05
0.0118104
6.26476e-05
0.00939059
5.27548e-05
0.0067201
3.05054e-05
0.00396826
9.95317e-06
0.00127493
0.00530324
2.50307e-06
8.15758e-07
-0.00150029
0.00150262
6.23707e-07
4.36562e-07
-0.00073168
0.000732256
2.04134e-08
-9.96192e-10
3.12005e-08
5.49634e-08
-7.72601e-05
7.72931e-05
-7.71826e-05
7.71333e-05
8.98134e-06
0.00823721
1.70401e-05
0.0109157
2.74071e-05
0.0131719
4.07423e-05
0.014834
5.20372e-05
0.015767
6.46889e-05
0.0158915
7.50076e-05
0.0152109
7.89223e-05
0.0138007
8.13153e-05
0.0117917
7.2261e-05
0.00937108
5.43471e-05
0.00669625
3.42921e-05
0.00394392
1.3437e-05
0.00126149
0.00530855
2.5748e-06
1.09625e-06
-0.00150283
0.00150466
6.71851e-07
6.14943e-07
-0.000732643
0.000733213
2.44029e-08
2.9226e-08
7.24015e-09
4.28717e-08
-7.73783e-05
7.73987e-05
-7.73793e-05
7.73243e-05
1.04174e-05
0.00824383
2.10018e-05
0.0109221
3.34718e-05
0.0131791
4.66189e-05
0.0148394
6.08179e-05
0.0157709
7.42416e-05
0.0158922
8.29086e-05
0.0152069
8.72781e-05
0.0137947
8.4484e-05
0.0117795
7.99859e-05
0.00934544
6.12957e-05
0.00666925
3.77467e-05
0.00391961
2.76886e-05
0.00123381
0.00531538
2.32426e-06
1.26031e-06
-0.00150509
0.00150673
9.3882e-07
6.61127e-07
-0.000733737
0.000734376
2.7925e-08
5.09137e-09
3.32938e-08
5.76502e-08
-7.7478e-05
7.75024e-05
-7.74488e-05
7.74059e-05
1.15413e-05
0.00825329
2.49129e-05
0.0109306
4.12862e-05
0.0131845
5.54174e-05
0.0148448
7.16519e-05
0.0157735
8.21444e-05
0.015893
9.25561e-05
0.0152016
9.75742e-05
0.0137816
9.60167e-05
0.0117634
8.58624e-05
0.00932088
6.7959e-05
0.00663904
5.8266e-05
0.00388903
5.46163e-05
0.00532416
1.6168e-06
1.14095e-06
-0.00150723
0.00150901
5.51144e-07
7.54673e-07
-0.000734943
0.00073577
1.05576e-07
6.00001e-09
3.474e-08
5.89986e-08
-7.75985e-05
7.76264e-05
-7.75934e-05
7.75357e-05
1.30648e-05
0.00826514
2.79793e-05
0.0109439
4.5015e-05
0.0131949
6.31892e-05
0.0148533
7.89886e-05
0.0157767
9.37558e-05
0.0158918
0.000102756
0.0151965
0.000106319
0.0137713
0.000103754
0.0117456
9.12968e-05
0.00929754
8.7718e-05
0.00660959
9.95622e-05
0.0053353
1.15639e-06
7.74571e-07
-0.00150984
0.00151166
-2.00033e-07
3.03943e-07
-0.000736422
0.000736915
3.11222e-08
2.66453e-08
7.17799e-08
3.15699e-08
-7.77261e-05
7.78317e-05
-7.77201e-05
7.76611e-05
1.7194e-05
0.00827592
3.38564e-05
0.0109551
5.11539e-05
0.0132069
6.94326e-05
0.0148628
8.67304e-05
0.0157837
0.000102639
0.0158919
0.000112241
0.0151905
0.000119547
0.0137555
0.000116613
0.0117202
0.000113961
0.0092713
0.000129521
0.00534585
5.14015e-06
1.49687e-06
-0.00151377
0.00151685
-1.92383e-06
-1.33124e-06
-0.000737154
0.000737004
-7.42806e-10
-4.97468e-08
1.59366e-08
4.91223e-08
-7.79617e-05
7.79928e-05
-7.7935e-05
7.79035e-05
2.08201e-05
0.00828896
3.6955e-05
0.0109693
5.7931e-05
0.0132184
7.84127e-05
0.0148712
9.80962e-05
0.0157882
0.000110743
0.0158934
0.000122808
0.0151873
0.000128106
0.013744
0.000133741
0.0117005
0.000151052
0.00535612
5.22939e-06
5.32737e-06
-0.00151486
0.00151917
1.23305e-06
-3.97823e-07
-1.72519e-06
5.20432e-06
-0.000735627
0.000435132
0.000298796
-2.19891e-07
-4.12974e-09
2.33809e-08
2.24342e-08
-7.80081e-05
7.80074e-05
-7.80579e-05
7.80087e-05
2.23751e-05
0.00830354
4.23508e-05
0.0109849
6.31231e-05
0.0132337
8.66962e-05
0.0148826
0.000104471
0.0157945
0.000121202
0.015895
0.00013006
0.0151853
0.000142946
0.0137348
0.000159668
0.00536939
4.48896e-06
4.61652e-06
-0.00152143
0.00152391
1.50746e-06
1.24061e-06
1.82229e-06
1.24177e-06
-0.000463766
0.00046592
-9.20718e-07
-0.000461103
-3.06052e-06
-0.000456032
-6.7967e-06
-1.56955e-05
0.000280264
2.8366e-06
-7.8049e-05
7.78292e-05
-7.80532e-05
7.80307e-05
2.42667e-05
0.00832162
4.66474e-05
0.0110014
7.13134e-05
0.0132491
9.44887e-05
0.0148925
0.000113532
0.0158022
0.000129842
0.0158952
0.000146006
0.0151823
0.000164342
0.00538427
4.53611e-06
4.84527e-06
-0.00152622
0.00152887
1.0779e-06
7.68519e-07
1.28577e-06
1.02083e-06
-0.000468748
0.000469442
8.13684e-07
-0.000468151
6.43418e-07
-0.000466856
5.27018e-07
3.05457e-07
-0.000272337
0.000271929
-5.13592e-07
-0.000274353
-1.04425e-06
-8.8585e-07
8.06658e-05
2.76729e-05
0.0083406
5.13959e-05
0.0110213
7.90777e-05
0.0132645
0.000100746
0.0149053
0.000120439
0.0158116
0.000138647
0.0159026
0.000157739
0.00540177
4.96502e-06
5.20782e-06
-0.00153193
0.00153458
8.22281e-07
1.05762e-06
1.002e-06
7.80641e-07
-0.000471087
0.000471597
5.67716e-07
-0.000470731
4.13054e-07
-0.000469866
4.20006e-07
5.97373e-07
-0.000273138
0.000273806
1.4653e-07
-0.000272656
1.6133e-07
-0.000272235
1.05216e-07
3.05139e-10
-7.87357e-05
7.82221e-05
-7.97799e-05
3.05e-05
0.00836149
5.7916e-05
0.0110424
8.43014e-05
0.0132809
0.00010662
0.0149192
0.000127081
0.0158231
0.000141053
0.005421
5.3777e-06
5.8966e-06
-0.00153794
0.00154099
7.95021e-07
1.12055e-06
8.06573e-07
1.04487e-06
-0.00047318
0.00047363
3.7273e-07
-0.0004725
3.77091e-07
-0.000471961
4.62773e-07
4.17019e-07
-0.000274818
0.000275287
9.93224e-08
-0.000274503
9.80135e-08
-0.000274218
1.34574e-07
1.8499e-07
-7.84889e-05
7.86354e-05
-7.83276e-05
-7.82224e-05
3.50302e-05
0.00838438
6.45995e-05
0.0110621
9.0143e-05
0.0132974
0.0001101
0.0149361
0.000117407
0.00544319
6.20201e-06
6.64018e-06
-0.00154476
0.00154803
8.8545e-07
1.21925e-06
9.00519e-07
1.23173e-06
-0.000475304
0.000475696
4.0327e-07
-0.000474518
3.34068e-07
-0.000474094
3.82968e-07
5.8051e-07
-0.000276266
0.000276546
9.24377e-08
-0.000275946
5.66455e-08
-0.00027561
1.26863e-07
9.41454e-08
-7.9053e-05
7.91523e-05
-7.8955e-05
-7.88204e-05
4.05834e-05
0.0084084
7.14341e-05
0.0110808
9.10025e-05
0.0133165
9.13998e-05
0.00546863
7.10567e-06
8.03722e-06
-0.00155202
0.0015558
1.28779e-06
1.12834e-06
1.28602e-06
1.36567e-06
-0.000477638
0.00047791
6.13768e-07
-0.000476791
3.71958e-07
-0.000476306
4.15302e-07
6.21951e-07
-0.000277529
0.000277831
1.00839e-07
-0.000277292
9.68564e-08
-0.000277002
9.29887e-08
1.25052e-07
-7.943e-05
7.95224e-05
-7.93733e-05
-7.92465e-05
4.92993e-05
0.00843053
7.25328e-05
0.0110993
6.48121e-05
0.0054972
1.02375e-05
1.04858e-05
-0.00156106
0.00156525
1.49415e-06
1.42342e-06
1.47029e-06
1.30885e-06
-0.000480209
0.000480814
6.82148e-07
-0.00047957
4.89857e-07
-0.000478759
4.75078e-07
5.16301e-07
-0.000278855
0.000279357
1.11694e-07
-0.000278565
8.24544e-08
-0.000278357
2.07349e-07
9.58926e-08
-7.98373e-05
7.99382e-05
-7.97405e-05
-7.96475e-05
5.40007e-05
0.00844906
4.21756e-05
0.00552085
1.57953e-05
1.45608e-05
-0.00157204
0.00157775
2.36584e-06
2.16762e-06
1.95871e-06
1.73182e-06
-0.000483352
0.000484005
8.41125e-07
-0.000482446
5.17292e-07
-0.000481537
5.61658e-07
5.8632e-07
-0.00028046
0.000281064
7.89827e-08
-0.000280088
1.17606e-07
-0.000279729
1.16387e-07
1.43862e-07
-8.03238e-05
8.04355e-05
-8.02414e-05
-8.0034e-05
2.81219e-05
1.23394e-05
3.10992e-05
-0.00158617
0.00159317
4.96776e-06
3.82106e-06
3.36909e-06
2.77205e-06
-0.000487439
0.000488487
1.31804e-06
-0.000486229
9.57464e-07
-0.000485016
7.45062e-07
7.21048e-07
-0.000282303
0.000283001
1.43615e-07
-0.000281924
1.38212e-07
-0.000281497
1.34816e-07
1.5261e-07
-8.08134e-05
8.08924e-05
-8.06958e-05
-8.05794e-05
-0.00160544
7.83576e-06
1.60938e-05
1.07782e-05
8.0533e-06
-0.00049363
0.000495772
2.82584e-06
-0.000491616
1.80699e-06
-0.000489851
1.60427e-06
1.40833e-06
-0.000284844
0.000285871
2.91505e-07
-0.000284104
2.17461e-07
-0.000283535
1.75534e-07
1.86667e-07
-8.1318e-05
8.14616e-05
-8.11798e-05
-8.1045e-05
-0.00050658
1.12497e-05
-0.000502191
1.17055e-05
-0.000498906
7.49249e-06
4.91931e-06
-0.000289472
0.000291569
7.28963e-07
-0.000288148
4.832e-07
-0.000286928
3.84553e-07
3.51e-07
-8.20412e-05
8.23327e-05
-8.18238e-05
-8.16483e-05
-0.000303381
1.53036e-05
-0.000299121
7.44551e-06
-0.00029501
3.38161e-06
1.47796e-06
-8.35515e-05
8.42804e-05
-8.30683e-05
-8.26837e-05
-9.65855e-05
-8.914e-05
-8.57584e-05
8.93219e-07
-8.93331e-07
3.01904e-06
-1.58998e-07
-1.96747e-06
5.60516e-07
-1.454e-06
2.43785e-06
5.80737e-07
-1.42042e-06
-1.22775e-06
2.48838e-06
8.57806e-08
-1.49307e-06
3.69353e-07
-1.8235e-06
4.58998e-07
1.97855e-06
-4.96945e-07
-3.43452e-07
9.92547e-07
-3.54442e-05
-7.10682e-06
4.03268e-05
3.56653e-06
4.57472e-07
-1.58151e-06
2.59812e-07
-2.08346e-06
1.17197e-07
-1.55924e-07
1.8921e-07
1.78895e-06
-4.58936e-06
-3.10833e-05
3.56686e-06
-0.00036885
-2.17078e-05
0.000379876
2.48534e-07
4.40008e-05
-3.57018e-07
4.27235e-06
5.28692e-07
-1.85072e-06
8.91938e-08
-2.17283e-06
1.60163e-07
-1.27518e-07
3.36197e-08
1.75498e-06
4.19155e-07
-0.000358983
-1.4887e-05
-2.46443e-07
-3.02589e-05
-0.00121107
-2.37469e-05
0.0012131
-2.91902e-07
-1.8085e-06
0.000385417
-3.45066e-06
4.49079e-05
-4.362e-07
-7.64233e-07
4.44387e-06
3.2141e-07