/*--------------------------------*- C++ -*----------------------------------*\
| =========                 |                                                 |
| \\      /  F ield         | OpenFOAM: The Open Source CFD Toolbox           |
|  \\    /   O peration     | Version:  v1912                                 |
|   \\  /    A nd           | Website:  www.openfoam.com                      |
|    \\/     M anipulation  |                                                 |
\*---------------------------------------------------------------------------*/
FoamFile
{
    version     2.0;
    format      ascii;
    class       volVectorField;
    location    "10";
    object      U;
}
// * * * * * * * * * * * * * * * * * * * * * * * * * * * * * * * * * * * * * //

dimensions      [0 1 -1 0 0 0 0];


internalField   nonuniform List<vector> 
3673
(
(0.197832 0.0664304 -1.18876e-19)
(0.423937 0.175984 1.12034e-22)
(0.199614 0.0653504 0)
(0.57161 0.259627 0)
(0.423368 0.173234 -1.11745e-22)
(0.203106 0.0650631 0)
(0.672827 0.32126 0)
(0.569517 0.255449 0)
(0.425476 0.172702 0)
(0.205768 0.0651415 -8.99239e-20)
(0.737779 0.344968 0)
(0.669884 0.315929 0)
(0.569404 0.254363 0)
(0.428385 0.171868 0)
(0.205864 0.0655554 8.75139e-20)
(0.775048 0.348803 0)
(0.734213 0.33891 1.08217e-22)
(0.668213 0.314028 0)
(0.570175 0.252771 0)
(0.430005 0.170815 -7.8898e-20)
(0.203027 0.0661357 0)
(0.795602 0.346957 0)
(0.770926 0.342413 6.13111e-20)
(0.731401 0.336296 -1.08112e-22)
(0.667135 0.311734 0)
(0.570322 0.250532 0)
(0.428856 0.169929 0)
(0.198036 0.0667502 0)
(0.807659 0.34359 -6.95065e-20)
(0.791199 0.340423 -6.05308e-20)
(0.767381 0.339329 0)
(0.728955 0.333425 5.30428e-20)
(0.665538 0.308735 0)
(0.568711 0.248283 -7.47892e-23)
(0.424793 0.169624 0)
(0.192209 0.0672888 -1.35465e-19)
(0.814269 0.339303 -3.3183e-21)
(0.803109 0.337011 1.2485e-22)
(0.787254 0.337058 0)
(0.764047 0.336089 3.90973e-21)
(0.726036 0.329998 0)
(0.662648 0.305683 0)
(0.56498 0.24675 7.4627e-23)
(0.418661 0.169978 6.26232e-20)
(0.186615 0.0676877 0)
(0.813877 0.332975 7.24941e-20)
(0.809662 0.332723 7.00934e-20)
(0.798975 0.333485 -6.4362e-20)
(0.783364 0.33358 -5.5022e-20)
(0.760227 0.332393 -9.79503e-23)
(0.722058 0.32655 0)
(0.65822 0.303302 0)
(0.559414 0.24627 -6.70402e-23)
(0.411535 0.170717 0)
(0.181961 0.0679312 0)
(0.80021 0.321122 1.55783e-22)
(0.809034 0.326265 -6.96972e-20)
(0.805424 0.329017 6.4064e-20)
(0.794736 0.329839 6.15246e-20)
(0.7789 0.329685 0)
(0.755437 0.328691 9.75685e-23)
(0.716833 0.323653 0)
(0.652369 0.301963 0)
(0.552714 0.246646 1.95244e-22)
(0.404486 0.171645 0)
(0.178454 0.0680213 0)
(0.762441 0.298034 -1.00128e-21)
(0.794627 0.313943 -7.76949e-20)
(0.804559 0.322361 -7.04431e-20)
(0.800887 0.325174 2.6975e-21)
(0.789788 0.325756 2.30522e-22)
(0.77348 0.325784 -5.41157e-20)
(0.749541 0.325402 0)
(0.710475 0.321669 0)
(0.645562 0.301632 0)
(0.545621 0.247549 -1.897e-22)
(0.398146 0.172505 0)
(0.176034 0.0679585 0)
(0.685485 0.263962 7.58684e-22)
(0.755102 0.28991 -3.34658e-21)
(0.789544 0.309609 7.15415e-20)
(0.799705 0.318287 -1.33463e-19)
(0.795518 0.320857 4.86877e-22)
(0.783831 0.321645 5.38617e-20)
(0.766989 0.322172 0)
(0.742677 0.322938 0)
(0.703346 0.320615 -8.51471e-20)
(0.638348 0.301958 0)
(0.538792 0.248639 6.83397e-20)
(0.392812 0.173146 6.23007e-20)
(0.17448 0.0678069 0)
(0.545189 0.217604 0)
(0.675862 0.254389 9.07957e-20)
(0.748748 0.284973 8.08843e-20)
(0.78415 0.30527 6.98821e-20)
(0.793916 0.313721 -6.71074e-20)
(0.789042 0.316528 -4.57127e-22)
(0.776763 0.317748 0)
(0.759649 0.319281 -1.87337e-22)
(0.735245 0.321367 8.34431e-20)
(0.695946 0.320262 0)
(0.63125 0.302669 -6.22155e-20)
(0.532579 0.249601 -5.24219e-20)
(0.388479 0.173432 0)
(0.173527 0.067566 0)
(0.534204 0.206128 -2.65405e-20)
(0.368648 0.127458 -7.68573e-22)
(0.372546 0.133983 -4.92133e-20)
(0.668007 0.248941 -8.95202e-20)
(0.742434 0.280499 6.1653e-22)
(0.77786 0.300651 6.69747e-20)
(0.786927 0.309189 -4.87431e-22)
(0.781413 0.312355 4.55407e-22)
(0.768955 0.314497 4.02885e-22)
(0.751948 0.317321 3.68991e-22)
(0.727689 0.320532 -2.49542e-22)
(0.688665 0.320326 0)
(0.624558 0.30335 0)
(0.527102 0.25022 6.21184e-20)
(0.385041 0.17335 0)
(0.172938 0.0672394 0)
(0.524945 0.2014 2.43787e-20)
(0.359937 0.121518 4.67706e-20)
(0.363075 0.126235 0)
(0.253401 0.0895663 1.36988e-21)
(0.256139 0.0951702 3.50824e-20)
(0.379529 0.137417 0)
(0.660413 0.24495 3.78955e-23)
(0.735488 0.276178 1.17482e-21)
(0.770376 0.296155 7.02806e-20)
(0.778779 0.304857 9.59805e-22)
(0.773138 0.308864 5.74189e-20)
(0.760963 0.312197 -5.3169e-20)
(0.744269 0.316083 -2.69878e-22)
(0.720321 0.320135 8.14223e-23)
(0.681732 0.320469 7.65481e-20)
(0.618445 0.303807 -5.66744e-20)
(0.522391 0.250391 -5.87093e-20)
(0.382259 0.172932 -5.12147e-20)
(0.172549 0.0668554 0)
(0.51596 0.199964 1.60775e-21)
(0.345625 0.116727 -9.29016e-20)
(0.351699 0.120164 4.70322e-20)
(0.244657 0.083307 0)
(0.249816 0.0877443 1.01155e-20)
(0.155708 0.0465861 -1.65248e-20)
(0.156649 0.0492695 3.3357e-20)
(0.159014 0.0525009 1.334e-22)
(0.260313 0.0986719 0)
(0.158032 0.0503368 1.68107e-20)
(0.65229 0.241736 8.85841e-20)
(0.72753 0.272257 -7.37652e-20)
(0.761805 0.292007 6.75635e-20)
(0.770085 0.301265 -5.85085e-20)
(0.764853 0.306294 -3.16824e-21)
(0.75317 0.310629 0)
(0.736892 0.315356 8.81726e-23)
(0.713323 0.319931 -7.48064e-20)
(0.675285 0.320481 7.3441e-20)
(0.612957 0.303875 5.36177e-20)
(0.518358 0.250137 4.30613e-20)
(0.379994 0.172286 -4.72674e-20)
(0.172189 0.0664378 -6.81338e-20)
(0.506277 0.199376 -9.83617e-20)
(0.334389 0.114686 7.13854e-22)
(0.338077 0.116319 0)
(0.220183 0.0789348 4.35794e-20)
(0.231913 0.0812072 -3.76728e-20)
(0.144236 0.0441695 1.48848e-21)
(0.149352 0.0472247 -9.95752e-22)
(0.153931 0.0486258 0)
(0.15238 0.047289 1.5923e-22)
(0.0954223 0.0269722 2.43639e-22)
(0.0959555 0.0288607 -1.57846e-20)
(0.160887 0.0520588 -1.334e-22)
(0.0971086 0.0307969 1.59091e-20)
(0.161436 0.0546671 -1.74089e-20)
(0.0966983 0.0296175 0)
(0.643513 0.239237 -8.5769e-20)
(0.718735 0.268831 -7.02823e-20)
(0.752898 0.288638 0)
(0.761608 0.298621 1.17546e-19)
(0.756988 0.304518 -2.10427e-22)
(0.745848 0.309665 0)
(0.729976 0.31491 4.48424e-20)
(0.706798 0.319687 -7.17542e-20)
(0.669377 0.320233 -6.29429e-23)
(0.608081 0.303512 6.09348e-20)
(0.514838 0.249523 3.98465e-20)
(0.378021 0.171466 -1.1162e-20)
(0.17176 0.0660002 0)
(0.49707 0.199606 9.73965e-20)
(0.326927 0.115985 -7.0113e-22)
(0.32893 0.115746 -7.13707e-22)
(0.208284 0.077328 6.95954e-22)
(0.21228 0.0782249 -1.14101e-20)
(0.10764 0.0350088 1.50604e-20)
(0.11225 0.0377724 -1.54952e-20)
(0.132662 0.0427292 -9.08334e-21)
(0.120874 0.0408399 5.04083e-22)
(0.084766 0.024879 1.82682e-21)
(0.0897866 0.0271914 0)
(0.0941743 0.0278573 0)
(0.0928206 0.0270842 -1.50115e-20)
(0.0349268 0.00813606 -9.64951e-23)
(0.0349587 0.00887623 9.65596e-23)
(0.0979971 0.0308547 -1.60423e-20)
(0.034944 0.00955759 5.87587e-23)
(0.0979655 0.0323642 1.6084e-20)
(0.0350452 0.00913143 -1.25784e-20)
(0.634705 0.237371 -8.52983e-20)
(0.710081 0.266229 7.33526e-20)
(0.744538 0.286245 -1.26635e-19)
(0.753812 0.296827 -5.94719e-20)
(0.749784 0.303381 -5.35213e-20)
(0.73908 0.309027 -9.27392e-20)
(0.723533 0.314496 -8.2199e-23)
(0.700744 0.319288 0)
(0.663968 0.319631 -5.81614e-20)
(0.603677 0.302739 0)
(0.511702 0.248645 3.64495e-20)
(0.376191 0.170523 0)
(0.171192 0.0655642 2.28872e-20)
(0.489563 0.200211 1.18025e-19)
(0.322914 0.11798 6.93081e-22)
(0.323411 0.11749 4.50278e-20)
(0.203819 0.0786456 1.11234e-20)
(0.205038 0.0784384 1.04913e-20)
(0.102157 0.0337661 -1.54855e-20)
(0.102233 0.0343899 -2.41888e-22)
(0.104602 0.0352233 1.57759e-20)
(0.103359 0.0346348 -1.53772e-20)
(0.0370259 0.011236 -1.22699e-20)
(0.0403231 0.0136649 1.58541e-20)
(0.062074 0.0186564 -1.54684e-21)
(0.0458618 0.0169011 -3.20307e-21)
(0.0299341 0.0078114 -5.56207e-21)
(0.032272 0.00844241 -1.17926e-20)
(0.034557 0.00847511 -1.18795e-20)
(0.0339761 0.00816636 -1.16264e-20)
(0.0350736 0.009568 -5.99979e-23)
(0.0348219 0.0101715 1.28719e-20)
(0.626949 0.236187 -7.91172e-20)
(0.702451 0.264528 6.73261e-20)
(0.737168 0.284668 1.23653e-19)
(0.74687 0.295677 -3.79786e-21)
(0.743222 0.302613 4.81279e-20)
(0.732806 0.308482 0)
(0.717523 0.313999 0)
(0.695108 0.318609 0)
(0.658987 0.318652 6.31901e-20)
(0.599669 0.30168 5.40327e-20)
(0.508803 0.247547 0)
(0.374373 0.169491 0)
(0.170472 0.0651459 0)
(0.484164 0.200739 2.5619e-20)
(0.320658 0.119171 -4.3746e-20)
(0.320521 0.119032 1.03293e-21)
(0.202509 0.0799605 0)
(0.202575 0.0798569 -4.29592e-20)
(0.101511 0.0347175 1.51833e-20)
(0.101069 0.0352466 -1.50677e-20)
(0.101375 0.0352442 1.53853e-20)
(0.101388 0.0352643 -1.51569e-20)
(0.0344626 0.0103648 2.24733e-20)
(0.0343437 0.0107476 -1.13207e-20)
(0.0354649 0.0110413 0)
(0.0347629 0.0106988 2.2637e-20)
(0.0168003 0.00424263 -2.85065e-21)
(0.620812 0.235523 -6.31896e-22)
(0.696113 0.263496 -1.35938e-19)
(0.730827 0.283703 5.82509e-20)
(0.740676 0.294904 0)
(0.737215 0.301991 0)
(0.726975 0.307909 0)
(0.711904 0.313334 3.96563e-20)
(0.689844 0.317613 -2.7239e-20)
(0.654382 0.317391 -5.16457e-20)
(0.595929 0.300381 -5.06215e-20)
(0.50603 0.246278 4.10639e-20)
(0.372489 0.168418 0)
(0.169653 0.0647634 -1.43791e-20)
(0.480619 0.20098 -2.50325e-20)
(0.319238 0.119594 -4.178e-20)
(0.318774 0.119867 -4.35585e-20)
(0.202104 0.0806352 5.24555e-20)
(0.201905 0.080825 -4.21886e-20)
(0.101723 0.0354086 0)
(0.101271 0.0359906 -1.49635e-20)
(0.101216 0.0361181 1.509e-20)
(0.101393 0.0360742 1.50227e-20)
(0.0345006 0.0106799 1.44416e-22)
(0.0342003 0.0110203 -1.11423e-20)
(0.0343657 0.0109722 5.55735e-23)
(0.0343025 0.0109122 1.11704e-20)
(0.616163 0.235139 7.62944e-20)
(0.690895 0.262881 -6.8919e-20)
(0.725299 0.283053 -6.04731e-20)
(0.73508 0.294259 5.39684e-20)
(0.731657 0.30137 4.83481e-20)
(0.721511 0.307238 3.64111e-21)
(0.70661 0.312429 -3.42503e-20)
(0.684922 0.316366 0)
(0.650058 0.315897 4.8386e-20)
(0.592375 0.298897 -3.75082e-20)
(0.503308 0.244921 -2.94436e-23)
(0.370523 0.167363 0)
(0.168848 0.0644325 1.0131e-20)
(0.47839 0.200931 3.65084e-22)
(0.318332 0.119532 -8.58511e-22)
(0.317663 0.120142 4.2478e-20)
(0.201882 0.080744 1.05004e-20)
(0.201583 0.081186 5.19179e-20)
(0.10183 0.0356843 -1.44759e-20)
(0.101461 0.0363275 -1.4694e-20)
(0.101475 0.0366189 -1.7324e-22)
(0.101598 0.0364933 1.52137e-22)
(0.0346837 0.0108832 1.09265e-20)
(0.0344094 0.0112428 -5.34297e-23)
(0.0345171 0.0112519 -1.10759e-20)
(0.0344845 0.0111714 5.6001e-23)
(0.612604 0.234844 7.39372e-20)
(0.68649 0.262429 6.26045e-20)
(0.720377 0.282514 -5.45478e-20)
(0.729919 0.293616 -4.8427e-20)
(0.72643 0.300681 3.62543e-21)
(0.716321 0.306378 4.12165e-20)
(0.701593 0.311283 0)
(0.680259 0.314899 0)
(0.645926 0.314217 -5.29361e-20)
(0.588893 0.297254 0)
(0.500548 0.243478 2.94266e-23)
(0.368484 0.166333 -2.37174e-20)
(0.168188 0.0640895 -5.82123e-21)
(0.476931 0.20063 2.27475e-20)
(0.317724 0.119153 -4.08439e-20)
(0.316909 0.120007 4.13509e-20)
(0.201798 0.080581 4.01488e-20)
(0.201443 0.0811649 -3.02026e-20)
(0.101791 0.0356487 0)
(0.101444 0.0363482 -2.86825e-20)
(0.101525 0.0367567 0)
(0.101593 0.0365486 1.4891e-22)
(0.0347666 0.0109472 8.39198e-23)
(0.0345308 0.0113251 1.07605e-20)
(0.0346808 0.0113911 2.17054e-20)
(0.034622 0.0112918 5.46298e-23)
(0.609749 0.23453 1.42159e-22)
(0.682623 0.261982 -6.44286e-20)
(0.715867 0.281953 5.65382e-20)
(0.72508 0.292943 -4.65692e-20)
(0.721458 0.299861 -4.10755e-20)
(0.711362 0.305338 -3.93709e-20)
(0.696792 0.309923 6.17989e-23)
(0.675777 0.313235 5.18681e-20)
(0.641891 0.312345 0)
(0.585423 0.295477 0)
(0.497749 0.242022 1.99719e-20)
(0.366444 0.165337 0)
(0.167829 0.0637157 -3.523e-24)
(0.475851 0.200137 -2.15682e-20)
(0.317231 0.11859 -3.97767e-20)
(0.31637 0.119646 -3.93314e-20)
(0.201773 0.0802616 2.91813e-20)
(0.201385 0.0809304 -5.9962e-20)
(0.101714 0.0354767 0)
(0.101376 0.036225 -1.41432e-20)
(0.101471 0.0366836 -1.42735e-20)
(0.101532 0.0364069 -1.40573e-20)
(0.0347968 0.0109201 1.0602e-20)
(0.0345724 0.011309 -5.17924e-23)
(0.0347311 0.0114094 1.06353e-20)
(0.0346619 0.0112944 -2.12971e-20)
(0.607286 0.23411 -3.7293e-21)
(0.679074 0.261445 -5.85496e-20)
(0.711609 0.281311 -1.00911e-22)
(0.720442 0.292153 0)
(0.71667 0.298898 3.91139e-20)
(0.706588 0.304119 0)
(0.692192 0.308376 3.24441e-20)
(0.671445 0.311366 -5.24609e-23)
(0.637913 0.310312 0)
(0.581937 0.293616 0)
(0.494926 0.240534 0)
(0.364574 0.164342 -1.58349e-20)
(0.167779 0.0632782 0)
(0.474883 0.199484 5.98368e-20)
(0.316756 0.117962 3.78443e-20)
(0.315882 0.119111 0)
(0.20173 0.0798724 2.84585e-20)
(0.201348 0.080594 -9.93318e-21)
(0.101642 0.0352314 0)
(0.101289 0.0360202 1.36709e-20)
(0.101384 0.0365078 -6.1715e-23)
(0.101446 0.0361668 2.75624e-20)
(0.034816 0.0108595 1.04213e-20)
(0.0345965 0.0112555 -5.16778e-23)
(0.0347527 0.0113674 2.10484e-20)
(0.0346848 0.0112404 0)
(0.604971 0.233544 0)
(0.675678 0.260821 0)
(0.707471 0.280542 3.91936e-24)
(0.715925 0.291227 8.53438e-23)
(0.712029 0.29777 1.56767e-22)
(0.70202 0.302702 -3.23293e-20)
(0.687795 0.306646 0)
(0.667235 0.309299 0)
(0.633968 0.308106 2.16797e-20)
(0.578475 0.29165 0)
(0.492173 0.239002 1.33333e-20)
(0.362917 0.163206 3.47788e-24)
(0.167705 0.0627133 3.15396e-21)
(0.473886 0.198737 0)
(0.316235 0.117296 -8.30516e-22)
(0.315371 0.118509 0)
(0.201623 0.0794768 -9.42168e-21)
(0.201272 0.0802069 -1.94824e-20)
(0.101542 0.0349644 0)
(0.10119 0.0357798 -1.71448e-22)
(0.101294 0.0362817 1.34953e-20)
(0.101363 0.0358939 1.3593e-20)
(0.0348432 0.0107813 0)
(0.0346202 0.0111835 0)
(0.0347677 0.0113 2.06784e-20)
(0.0347014 0.0111615 -2.05758e-20)
(0.602667 0.232856 -6.84339e-20)
(0.672309 0.260091 0)
(0.703421 0.279671 5.07595e-20)
(0.711537 0.290195 -8.54525e-23)
(0.70758 0.296461 0)
(0.697689 0.301071 0)
(0.683582 0.304652 0)
(0.6631 0.307007 -2.12254e-20)
(0.630045 0.305737 0)
(0.575038 0.28955 0)
(0.48954 0.237314 0)
(0.361356 0.161878 -2.73546e-21)
(0.167396 0.062091 2.08615e-20)
(0.472726 0.197927 7.56364e-20)
(0.315628 0.116624 3.62659e-20)
(0.314802 0.117855 1.41603e-22)
(0.201448 0.0790864 2.69206e-20)
(0.201126 0.0798146 -9.3907e-21)
(0.101419 0.0347008 0)
(0.101071 0.035521 1.30018e-20)
(0.101179 0.0360326 -1.727e-22)
(0.101275 0.0356197 -1.44766e-22)
(0.0348494 0.0106994 0)
(0.0346342 0.011104 -5.24373e-23)
(0.0347866 0.0112234 0)
(0.0347251 0.011077 5.28863e-23)
(0.600266 0.232086 -3.76563e-22)
(0.668929 0.259256 -5.23781e-20)
(0.699432 0.278691 0)
(0.707298 0.288972 0)
(0.703399 0.294928 1.35786e-22)
(0.693616 0.299169 0)
(0.679483 0.302371 0)
(0.658983 0.304482 3.98939e-23)
(0.626157 0.30318 -1.83164e-20)
(0.571699 0.287261 0)
(0.486976 0.235415 1.6633e-20)
(0.359729 0.16042 -6.93767e-21)
(0.166617 0.0613942 -1.76738e-20)
(0.471399 0.19714 -1.93212e-20)
(0.314906 0.115969 3.52613e-20)
(0.314133 0.117183 -3.58508e-20)
(0.2012 0.0787094 -3.51763e-20)
(0.200918 0.0794263 -1.83046e-20)
(0.101288 0.0344543 0)
(0.100941 0.0352802 1.26525e-20)
(0.101052 0.0357822 0)
(0.101156 0.0353539 -1.4545e-22)
(0.0348439 0.0106214 0)
(0.0346604 0.0110356 -9.84765e-21)
(0.0347871 0.0111432 -5.26153e-23)
(0.0347299 0.0109877 9.84294e-21)
(0.59775 0.231253 2.48121e-22)
(0.665525 0.258318 0)
(0.695523 0.277533 3.44163e-22)
(0.703329 0.287519 0)
(0.699556 0.293141 -3.56478e-20)
(0.689732 0.296968 3.05274e-20)
(0.675414 0.299777 -4.54946e-23)
(0.654888 0.301697 1.79554e-20)
(0.622351 0.300445 -6.21299e-23)
(0.568425 0.284785 -1.52309e-20)
(0.484372 0.233351 0)
(0.357707 0.15878 0)
(0.165305 0.0607264 3.97209e-20)
(0.469897 0.196399 -1.86882e-20)
(0.314062 0.115391 -1.32441e-22)
(0.313332 0.11651 6.85424e-20)
(0.200862 0.0783463 -4.30336e-20)
(0.200629 0.0790405 1.69746e-20)
(0.101137 0.0342197 0)
(0.100793 0.0350445 0)
(0.100914 0.0355401 -1.75757e-22)
(0.101019 0.0351033 -1.46379e-22)
(0.0348399 0.01055 9.55468e-21)
(0.03466 0.0109623 7.53674e-23)
(0.0347875 0.0110654 9.72031e-21)
(0.0347323 0.010908 1.92049e-20)
(0.595153 0.23036 0)
(0.662131 0.257241 0)
(0.691827 0.276143 -4.52194e-20)
(0.699763 0.285831 7.44585e-20)
(0.695986 0.291014 -3.04263e-20)
(0.685884 0.294393 -2.86856e-20)
(0.671325 0.296903 -3.8515e-23)
(0.650821 0.298713 1.93329e-20)
(0.618587 0.297563 -1.47997e-20)
(0.565068 0.282187 0)
(0.481402 0.231083 0)
(0.355266 0.156978 -1.50814e-20)
(0.163602 0.0601689 -2.65589e-20)
(0.468267 0.195721 0)
(0.313115 0.114953 -3.28749e-20)
(0.31246 0.115989 3.24397e-20)
(0.200441 0.0780302 -8.51891e-21)
(0.200256 0.0786738 -4.22e-20)
(0.100965 0.0340072 0)
(0.100622 0.0348193 1.19334e-20)
(0.100763 0.0353026 1.21032e-20)
(0.100868 0.0348653 1.20578e-20)
(0.0348199 0.0104797 9.31442e-21)
(0.0346463 0.0108896 0)
(0.0347786 0.010992 1.89163e-20)
(0.0347209 0.0108325 9.37548e-21)
(0.592527 0.22936 -5.96633e-20)
(0.658822 0.255856 4.64376e-20)
(0.688511 0.274492 -3.93603e-20)
(0.696543 0.283796 0)
(0.692469 0.288486 2.86386e-20)
(0.681949 0.291487 0)
(0.66719 0.293825 -4.12956e-20)
(0.646756 0.295646 1.44226e-20)
(0.61468 0.294574 -1.3165e-20)
(0.561368 0.279416 0)
(0.478084 0.228542 0)
(0.352534 0.155084 -8.91715e-21)
(0.161758 0.0597795 4.7019e-21)
(0.466603 0.194943 4.81957e-20)
(0.311992 0.11456 3.19105e-20)
(0.311449 0.115603 0)
(0.19991 0.0778116 1.55245e-20)
(0.199778 0.0783672 -1.67233e-20)
(0.100749 0.0338227 0)
(0.100418 0.0346118 1.15719e-20)
(0.10058 0.0350805 1.18343e-20)
(0.100679 0.0346519 -1.19344e-20)
(0.0347943 0.0104189 9.14073e-21)
(0.0346208 0.0108223 7.16022e-23)
(0.0347637 0.0109213 9.24373e-21)
(0.034704 0.0107612 9.11574e-21)
(0.58982 0.227973 8.53115e-22)
(0.655759 0.254144 -4.77955e-20)
(0.685615 0.272534 0)
(0.693432 0.281362 3.47213e-20)
(0.688821 0.285607 -5.69139e-23)
(0.677871 0.288355 4.68714e-20)
(0.662983 0.290694 1.54111e-22)
(0.642544 0.292497 2.88122e-20)
(0.610511 0.291388 0)
(0.557438 0.276293 -1.68695e-23)
(0.474705 0.225821 7.50226e-21)
(0.349686 0.153413 9.79365e-21)
(0.159835 0.059378 -2.98304e-20)
(0.464923 0.193553 2.13945e-22)
(0.310715 0.113933 0)
(0.310228 0.115179 6.17304e-20)
(0.199243 0.0776851 -3.09247e-20)
(0.199193 0.0781914 8.08051e-21)
(0.10049 0.0337054 1.11573e-20)
(0.100178 0.0344643 1.12114e-20)
(0.100367 0.0348896 -8.81351e-23)
(0.10046 0.0344791 1.1243e-20)
(0.0347356 0.01036 8.82426e-21)
(0.0345713 0.010746 0)
(0.034726 0.0108556 8.92765e-21)
(0.0346792 0.0107047 -5.50065e-23)
(0.587143 0.226089 5.0741e-20)
(0.653062 0.252127 -3.32207e-22)
(0.682924 0.270202 -3.50853e-20)
(0.690166 0.278588 3.26214e-20)
(0.684892 0.282496 -5.23552e-20)
(0.673614 0.285195 0)
(0.658618 0.287445 -1.55385e-20)
(0.638162 0.289097 0)
(0.606233 0.287894 0)
(0.553461 0.273005 1.68494e-23)
(0.471163 0.223364 1.10257e-20)
(0.346459 0.15222 2.57079e-20)
(0.158034 0.0589645 3.82676e-20)
(0.463327 0.190967 0)
(0.309263 0.11242 2.8876e-20)
(0.30886 0.114333 -2.92495e-20)
(0.1985 0.0774048 -1.54574e-20)
(0.198492 0.0780323 -2.25646e-20)
(0.100155 0.0336196 1.0805e-20)
(0.0998642 0.0343695 -1.0857e-20)
(0.100103 0.0347672 0)
(0.100177 0.0343687 -1.09766e-20)
(0.0346546 0.0103289 8.51101e-21)
(0.0345035 0.0107013 0)
(0.0346723 0.0107977 1.74485e-20)
(0.0346209 0.0106532 -8.6994e-21)
(0.584634 0.223691 0)
(0.650551 0.249706 3.31045e-22)
(0.680025 0.267563 -3.31925e-20)
(0.686452 0.275619 2.7732e-20)
(0.680673 0.279367 -3.83907e-22)
(0.669228 0.281881 0)
(0.654178 0.283896 -2.43564e-22)
(0.633662 0.285409 8.23936e-23)
(0.601813 0.284354 0)
(0.54936 0.27 7.49298e-21)
(0.467414 0.221308 -1.39833e-23)
(0.343079 0.151041 -4.56654e-23)
(0.156339 0.0585262 4.47846e-21)
(0.461764 0.186892 -1.52625e-20)
(0.307893 0.109679 1.11014e-22)
(0.307377 0.112356 -1.10773e-22)
(0.197966 0.0763559 7.37509e-21)
(0.197806 0.0775119 4.36274e-23)
(0.0997464 0.0334065 -1.53773e-22)
(0.0994941 0.034224 -1.79718e-22)
(0.099741 0.0346493 -1.06732e-20)
(0.0998051 0.0342322 0)
(0.034551 0.0103074 0)
(0.0344029 0.0106754 8.38633e-21)
(0.0345923 0.0107643 -8.43868e-21)
(0.0345302 0.0106246 -8.45449e-21)
(0.582007 0.220751 -4.91709e-20)
(0.647718 0.24715 0)
(0.676581 0.264847 2.61379e-22)
(0.68239 0.272543 0)
(0.676344 0.276001 3.589e-22)
(0.664739 0.278262 0)
(0.649551 0.280205 1.15679e-22)
(0.629039 0.281779 -8.23008e-23)
(0.59735 0.28091 6.54139e-21)
(0.545143 0.267179 5.54022e-24)
(0.463437 0.219472 0)
(0.339755 0.15011 3.22031e-20)
(0.154392 0.0581331 4.36748e-21)
(0.458833 0.181667 5.45344e-20)
(0.306689 0.106355 2.6939e-20)
(0.30627 0.109437 -4.23338e-22)
(0.197988 0.0738517 7.19801e-21)
(0.197438 0.0758297 -7.18871e-21)
(0.0994205 0.0326606 0)
(0.0991857 0.033727 -1.01474e-20)
(0.0993024 0.0343584 -1.04033e-20)
(0.0994141 0.0338234 1.03549e-20)
(0.034438 0.0102438 1.60711e-20)
(0.0343 0.0106361 1.62386e-20)
(0.0344667 0.0107291 8.26438e-21)
(0.0344053 0.0105949 -8.21404e-21)
(0.578627 0.217738 4.6407e-20)
(0.644215 0.2448 0)
(0.672672 0.262016 4.70461e-22)
(0.678072 0.269267 -2.75351e-20)
(0.671758 0.272435 -1.72922e-22)
(0.660061 0.274636 0)
(0.644838 0.276514 0)
(0.624314 0.27819 -2.3734e-20)
(0.592772 0.277765 -1.11485e-20)
(0.540881 0.26462 -6.14058e-24)
(0.459623 0.217611 0)
(0.336556 0.148858 3.51883e-20)
(0.151862 0.0578036 -4.45094e-20)
(0.452146 0.177543 -3.78191e-20)
(0.303043 0.102398 -7.75942e-22)
(0.304849 0.106098 -2.65174e-20)
(0.198366 0.0704639 0)
(0.197802 0.072908 7.04302e-21)
(0.0994627 0.0311368 -9.8203e-21)
(0.0990865 0.0324503 -9.73091e-21)
(0.0989276 0.0334419 0)
(0.0991876 0.0326548 -1.5895e-22)
(0.0344953 0.00999049 7.84453e-21)
(0.0343216 0.0104812 7.90259e-21)
(0.03434 0.0106377 8.08779e-21)
(0.034327 0.0104838 0)
(0.574149 0.215737 -6.61393e-22)
(0.640191 0.242522 -3.68188e-20)
(0.668362 0.259031 -3.72572e-21)
(0.673426 0.265773 -3.73835e-22)
(0.666951 0.268812 0)
(0.655196 0.27109 0)
(0.639986 0.27313 9.77431e-21)
(0.61965 0.274909 1.09042e-20)
(0.588466 0.274488 6.79597e-24)
(0.536977 0.261756 6.14205e-24)
(0.455981 0.215531 1.30728e-20)
(0.333154 0.147699 3.79837e-20)
(0.148351 0.0575694 -4.73399e-20)
(0.4444 0.176944 1.58652e-21)
(0.286011 0.0974671 1.22427e-20)
(0.295391 0.100387 -3.57754e-20)
(0.196024 0.0664028 4.82255e-21)
(0.197778 0.069307 2.41087e-20)
(0.100064 0.0293227 0)
(0.0996655 0.0308051 9.42733e-21)
(0.0992086 0.0319864 1.98167e-22)
(0.0996417 0.0309515 9.57458e-21)
(0.0347885 0.00948577 1.49521e-20)
(0.0345767 0.0100396 7.61205e-21)
(0.0344048 0.010323 0)
(0.0345125 0.0100869 -6.04354e-23)
(0.569062 0.214106 -2.5609e-21)
(0.63585 0.240001 3.16729e-20)
(0.663682 0.255665 0)
(0.668428 0.26233 3.72752e-22)
(0.661901 0.265645 -2.0509e-20)
(0.650293 0.267938 -1.05415e-22)
(0.635413 0.269728 3.49237e-23)
(0.615453 0.271394 0)
(0.584561 0.271174 -6.7971e-24)
(0.533276 0.258788 -1.65559e-20)
(0.452409 0.213146 -1.85636e-23)
(0.329257 0.146207 4.00711e-20)
(0.143638 0.0574942 0)
(0.436712 0.17627 3.41456e-20)
(0.272687 0.0938101 2.34667e-20)
(0.277293 0.0960943 7.47247e-22)
(0.163374 0.0595569 -1.22823e-20)
(0.183189 0.0628369 1.0557e-20)
(0.0965378 0.0280126 3.916e-21)
(0.0987318 0.0296489 5.44941e-22)
(0.0998225 0.0303537 -7.01746e-23)
(0.0996292 0.029326 -8.96847e-21)
(0.0354327 0.00883665 0)
(0.0351296 0.00946212 6.25631e-23)
(0.0348308 0.00984364 -7.32311e-21)
(0.0350172 0.00949737 6.06772e-23)
(0.563877 0.212454 -4.20085e-20)
(0.631114 0.237221 3.47615e-20)
(0.658558 0.252664 -4.09936e-22)
(0.663268 0.259459 -3.33611e-21)
(0.65702 0.262621 2.70859e-22)
(0.645801 0.264704 1.05396e-22)
(0.631287 0.266414 -6.33103e-23)
(0.611679 0.267892 0)
(0.581058 0.267425 4.40339e-21)
(0.529853 0.255227 -1.17624e-23)
(0.448606 0.210411 1.86992e-20)
(0.32454 0.144842 0)
(0.137523 0.0575386 1.05772e-19)
(0.42956 0.176075 3.4581e-20)
(0.264856 0.0933442 2.29084e-20)
(0.267655 0.0937163 -2.40475e-20)
(0.147488 0.0545046 -2.46308e-20)
(0.152337 0.05666 7.61818e-22)
(0.0432943 0.0140144 -3.9631e-21)
(0.0490348 0.0174058 3.64255e-21)
(0.0909456 0.0280219 2.16503e-21)
(0.0665072 0.0194193 0)
(0.0335472 0.00841177 -1.37941e-20)
(0.0348178 0.00885547 -1.06051e-22)
(0.0354695 0.00915447 -7.02342e-21)
(0.0354026 0.00872028 5.1302e-23)
(0.558765 0.210778 -3.66283e-20)
(0.626148 0.234746 -3.30972e-20)
(0.653503 0.250063 -3.08483e-21)
(0.658399 0.256809 0)
(0.652533 0.259918 -1.29873e-22)
(0.641795 0.26167 0)
(0.627747 0.262778 7.962e-21)
(0.608411 0.263868 0)
(0.577792 0.263423 0)
(0.526379 0.251367 -6.42443e-21)
(0.444481 0.207267 0)
(0.318996 0.143237 -7.78481e-20)
(0.129909 0.057643 5.50087e-20)
(0.424061 0.176304 -1.28639e-20)
(0.260935 0.0943032 -1.78167e-22)
(0.261929 0.0941751 2.2657e-20)
(0.141811 0.0541458 -9.21243e-23)
(0.143953 0.0542607 2.362e-20)
(0.0370478 0.0107038 -6.65378e-21)
(0.0374245 0.0112921 -6.69856e-21)
(0.0397921 0.0124572 7.26961e-21)
(0.0383241 0.0114784 6.74083e-21)
(0.0312968 0.00883651 7.90332e-22)
(0.017617 0.00421883 6.49424e-21)
(0.554153 0.209265 3.50679e-20)
(0.621505 0.232782 -3.35096e-21)
(0.648823 0.248072 0)
(0.654033 0.254582 0)
(0.648678 0.25712 -1.59778e-20)
(0.638428 0.258263 -7.8647e-21)
(0.624685 0.258993 1.4601e-23)
(0.605427 0.25965 0)
(0.574717 0.258798 -1.02056e-20)
(0.522869 0.246729 1.3341e-20)
(0.439965 0.203745 2.94866e-20)
(0.312381 0.14184 0)
(0.120717 0.0575037 5.42115e-20)
(0.420202 0.176373 1.25289e-20)
(0.25898 0.094811 0)
(0.259273 0.0948621 2.18743e-20)
(0.139748 0.05486 0)
(0.140364 0.0547126 6.04509e-21)
(0.0359938 0.0108605 6.38226e-21)
(0.0360213 0.0112098 6.52923e-21)
(0.036457 0.0112752 0)
(0.0363501 0.0110649 -6.51467e-21)
(0.550334 0.20832 3.46682e-20)
(0.617485 0.231414 -4.51223e-22)
(0.644841 0.246232 2.47798e-20)
(0.650365 0.252236 -3.53687e-21)
(0.645392 0.254305 -1.42825e-20)
(0.635517 0.254758 -2.60694e-23)
(0.622036 0.254637 -4.34068e-21)
(0.602772 0.254694 0)
(0.571716 0.253696 -4.4172e-21)
(0.519253 0.241608 0)
(0.434958 0.199689 0)
(0.304588 0.140023 0)
(0.110127 0.0571326 5.22102e-20)
(0.417952 0.176347 0)
(0.25773 0.094711 0)
(0.257639 0.0950024 -2.13154e-20)
(0.139017 0.0552082 5.81851e-21)
(0.139151 0.0552911 0)
(0.0357348 0.0110677 0)
(0.035696 0.0114128 6.33013e-21)
(0.0357454 0.0114554 -1.28036e-20)
(0.0357969 0.0112927 4.98396e-23)
(0.547546 0.207636 2.79805e-22)
(0.61426 0.230251 -2.53878e-20)
(0.641502 0.244648 -3.66135e-21)
(0.647258 0.24996 1.4454e-20)
(0.642719 0.251058 0)
(0.633156 0.25064 1.16822e-20)
(0.619709 0.249879 -2.51887e-21)
(0.600299 0.249297 -9.919e-21)
(0.568905 0.247683 -1.13498e-23)
(0.515643 0.235459 1.7426e-20)
(0.429411 0.195177 0)
(0.29539 0.138023 0)
(0.0972457 0.0562023 -4.6749e-20)
(0.416932 0.17632 -1.66217e-22)
(0.257421 0.0944076 0)
(0.256872 0.094808 0)
(0.138751 0.0550816 5.62272e-21)
(0.138588 0.0553778 -8.77871e-23)
(0.0356326 0.0110533 3.5658e-23)
(0.0355804 0.0114356 0)
(0.0355695 0.0115579 -6.26462e-21)
(0.0356453 0.0113866 -6.22796e-21)
(0.545596 0.207282 -2.5671e-22)
(0.611722 0.229313 2.40458e-20)
(0.638858 0.242843 0)
(0.644833 0.247269 -1.17961e-22)
(0.640562 0.247569 -7.35963e-21)
(0.631198 0.246176 2.49594e-21)
(0.617807 0.244273 1.0429e-21)
(0.598201 0.242932 3.38361e-21)
(0.566277 0.240967 -1.66128e-20)
(0.511944 0.228589 0)
(0.423256 0.189845 0)
(0.284311 0.134709 3.65453e-20)
(0.0808327 0.0545246 -4.45822e-20)
(0.416657 0.176408 8.60585e-23)
(0.257618 0.0940884 -7.96354e-23)
(0.256842 0.0945812 7.95932e-23)
(0.139087 0.0549251 0)
(0.138652 0.055235 0)
(0.0355982 0.0109956 0)
(0.0355014 0.0113807 -6.03099e-21)
(0.0354227 0.0114982 -6.14358e-21)
(0.0355092 0.0113473 -6.10506e-21)
(0.544356 0.206906 2.56301e-22)
(0.609843 0.228213 0)
(0.636776 0.240952 -1.9997e-20)
(0.642929 0.244366 -1.42823e-20)
(0.638973 0.243372 1.92316e-23)
(0.629805 0.240777 7.46368e-22)
(0.616371 0.238029 -3.33279e-21)
(0.596482 0.235875 0)
(0.563915 0.233067 0)
(0.508205 0.220434 1.9569e-20)
(0.416074 0.183421 0)
(0.270342 0.130066 0)
(0.0589545 0.051261 -3.73795e-20)
(0.4168 0.176539 3.32553e-24)
(0.257953 0.0938723 7.68766e-23)
(0.257139 0.0943808 -7.68525e-23)
(0.139605 0.0548269 0)
(0.139101 0.0551286 0)
(0.0357583 0.0109248 0)
(0.0356165 0.0113165 5.9376e-21)
(0.0354552 0.0114504 6.00765e-21)
(0.0355769 0.0112801 -5.96639e-21)
(0.543594 0.206629 3.20478e-20)
(0.608495 0.227038 4.50983e-20)
(0.635332 0.238532 1.44111e-20)
(0.641697 0.240729 0)
(0.637996 0.238628 1.19792e-23)
(0.628982 0.234716 0)
(0.615503 0.230652 0)
(0.595189 0.227611 0)
(0.561663 0.224228 -1.86254e-20)
(0.504025 0.211131 0)
(0.407388 0.175302 0)
(0.251988 0.122383 2.75133e-20)
(0.0324755 0.0461871 -2.94948e-20)
(0.417137 0.176806 -3.59652e-20)
(0.258256 0.0937061 7.54094e-23)
(0.257433 0.0942234 -1.48003e-22)
(0.140126 0.0548467 0)
(0.139634 0.0551053 0)
(0.0359318 0.0108492 -5.74072e-21)
(0.0358082 0.0112667 5.74182e-21)
(0.0356223 0.0113967 5.81682e-21)
(0.0357571 0.0112166 -5.72906e-21)
(0.543314 0.206208 -2.65245e-20)
(0.607721 0.225417 8.49086e-23)
(0.634464 0.235833 0)
(0.641177 0.23669 0)
(0.637864 0.232824 5.04964e-21)
(0.628891 0.227395 -9.26348e-23)
(0.615093 0.222409 4.0317e-21)
(0.594145 0.218453 0)
(0.559471 0.213923 1.75293e-23)
(0.49926 0.200004 0)
(0.396571 0.164793 0)
(0.227931 0.111153 2.12255e-20)
(0.00530287 0.0393753 -1.81012e-20)
(0.417521 0.17726 -7.24128e-23)
(0.258431 0.0936644 -1.42222e-22)
(0.257669 0.0941251 2.14673e-22)
(0.140563 0.0549408 0)
(0.140106 0.0551687 5.04188e-21)
(0.0361092 0.0107805 -5.5762e-21)
(0.0359798 0.0112136 5.62358e-21)
(0.035805 0.011348 0)
(0.0359317 0.011152 0)
(0.543451 0.205817 -2.85562e-20)
(0.607512 0.223455 -2.10781e-20)
(0.634493 0.232403 0)
(0.641699 0.231576 -5.03979e-21)
(0.63853 0.226051 9.19843e-23)
(0.629388 0.219162 -2.43313e-21)
(0.615158 0.212867 0)
(0.593342 0.207938 0)
(0.556949 0.202415 -1.77482e-20)
(0.493283 0.187092 0)
(0.38193 0.150646 0)
(0.201152 0.0977167 5.10376e-22)
(-0.00904739 0.0262858 -3.2762e-22)
(0.417946 0.178219 3.21494e-20)
(0.258084 0.0939422 0)
(0.257638 0.0941992 -1.81287e-20)
(0.140881 0.0551277 0)
(0.140491 0.0553057 0)
(0.0362557 0.0107387 -5.40604e-21)
(0.0361309 0.0111808 0)
(0.0359506 0.0112871 5.53817e-21)
(0.0360852 0.0111036 -1.09477e-20)
(0.544239 0.204967 4.95015e-20)
(0.608164 0.220819 0)
(0.635634 0.228446 0)
(0.64325 0.225508 -6.67819e-21)
(0.640038 0.21779 -1.53954e-21)
(0.630473 0.209486 9.44874e-24)
(0.615426 0.202365 0)
(0.592328 0.196396 1.72438e-20)