/*--------------------------------*- C++ -*----------------------------------*\
| =========                 |                                                 |
| \\      /  F ield         | OpenFOAM: The Open Source CFD Toolbox           |
|  \\    /   O peration     | Version:  v1912                                 |
|   \\  /    A nd           | Website:  www.openfoam.com                      |
|    \\/     M anipulation  |                                                 |
\*---------------------------------------------------------------------------*/
FoamFile
{
    version     2.0;
    format      ascii;
    class       surfaceScalarField;
    location    "160";
    object      phi;
}
// * * * * * * * * * * * * * * * * * * * * * * * * * * * * * * * * * * * * * //

dimensions      [0 3 -1 0 0 0 0];
oriented        oriented;


internalField   nonuniform List<scalar> 
7194
(
-1.82923e-06
0.00131951
0.0039606
-1.98018e-06
0.00132149
-9.16724e-06
0.00396779
-2.13323e-06
0.00132363
-2.43402e-05
0.00657342
-9.55385e-06
0.00397521
-2.13726e-06
0.00132576
-4.50393e-05
0.00905137
-2.42102e-05
0.00658808
-9.55859e-06
0.00398263
-2.01838e-06
0.00132778
-7.53138e-05
0.0112898
-4.83088e-05
0.00907547
-2.37341e-05
0.00660225
-9.43316e-06
0.00399004
-2.06027e-06
0.00132984
-0.000116007
0.0131521
-7.93467e-05
0.0113209
-4.5605e-05
0.00909734
-2.43501e-05
0.00661717
-9.81685e-06
0.0039978
-1.74402e-06
0.00133159
-0.000162292
0.014511
-0.000119678
0.0131925
-7.92429e-05
0.0113545
-4.65903e-05
0.00911958
-2.19323e-05
0.00662929
-8.17568e-06
0.00400423
-1.62024e-06
0.00133321
-0.000208361
0.0152546
-0.00016522
0.0145565
-0.000118032
0.0132313
-7.35713e-05
0.0113815
-4.167e-05
0.00913932
-1.97372e-05
0.00664085
-7.35673e-06
0.00400997
-1.51659e-06
0.00133472
-0.000249455
0.0153136
-0.000214536
0.0153039
-0.00016257
0.0146011
-0.000112745
0.0132704
-7.09756e-05
0.0114108
-3.80329e-05
0.00915762
-1.84011e-05
0.00665189
-6.73448e-06
0.00401519
-1.19085e-06
0.00133591
-0.000279685
0.0146538
-0.000258385
0.0153574
-0.00021154
0.0153529
-0.00015608
0.0146444
-0.000101245
0.0133007
-6.20159e-05
0.0114348
-3.38062e-05
0.00917302
-1.57101e-05
0.00666087
-4.66493e-06
0.00401866
-1.20483e-06
0.00133712
-0.000293022
0.0133105
-0.000300589
0.014696
-0.00025833
0.0154042
-0.000197901
0.0153947
-0.00013725
0.0146804
-9.23648e-05
0.013331
-5.46028e-05
0.0114556
-3.01942e-05
0.00918751
-1.43576e-05
0.00667056
-5.29128e-06
0.00402275
-8.72341e-07
0.00133799
-0.000286171
0.0113669
-0.00033091
0.0133409
-0.000296581
0.0147343
-0.000237307
0.0154436
-0.000173603
0.0154311
-0.000122786
0.0147108
-7.87692e-05
0.0133552
-4.78507e-05
0.0114732
-2.59258e-05
0.00919908
-1.10803e-05
0.00667635
-4.67043e-06
0.00402654
-7.77871e-07
0.00133877
-0.000245761
0.00895691
-0.000350802
0.0113868
-0.000326766
0.0133711
-0.000263621
0.0147606
-0.000201056
0.0154711
-0.000149444
0.0154578
-0.000102662
0.0147347
-6.60998e-05
0.0133735
-3.97985e-05
0.0114871
-2.17184e-05
0.00920971
-1.15613e-05
0.00668324
-4.26493e-06
0.00403003
-8.1411e-07
0.00133958
-5.05897e-05
0.00623317
-0.000109724
-0.000357456
0.00896357
-0.000344002
0.0114041
-0.000276211
0.0133836
-0.000217368
0.0147769
-0.000166656
0.0154883
-0.000119765
0.0154749
-8.4468e-05
0.0147531
-5.82956e-05
0.013392
-3.66673e-05
0.0115021
-2.09178e-05
0.00921907
-1.04303e-05
0.00668941
-4.104e-06
0.00403332
-7.98848e-07
0.00134038
0.00211557
-0.00213372
-3.24463e-05
-0.000141661
0.00621913
-0.000201761
0.00206963
-6.37819e-05
-0.000349285
0.00896885
-0.00026886
0.0113967
-0.000211441
0.0133777
-0.000166911
0.0147771
-0.000129571
0.0154981
-0.000101376
0.0154918
-7.38833e-05
0.0147687
-4.81207e-05
0.0134034
-3.05991e-05
0.0115117
-1.76998e-05
0.00922634
-8.87716e-06
0.00669418
-3.9817e-06
0.0040365
-8.66796e-07
0.00134125
-2.00555e-05
0.00139505
-0.00141995
-9.06167e-07
-6.64039e-06
0.00203901
-0.000111044
-0.000195206
0.00620491
-0.000139858
0.00201125
-0.000173999
0.00135167
-1.54988e-05
-4.90434e-06
-0.000228019
0.00892801
-0.000183556
0.0113688
-0.000153929
0.0133647
-0.000128646
0.0147762
-0.000105286
0.015502
-8.08524e-05
0.0154987
-5.77676e-05
0.0147783
-4.26793e-05
0.0134155
-2.80571e-05
0.0115221
-1.90832e-05
0.00923655
-1.0412e-05
0.00670061
-3.52563e-06
0.00403916
-1.10882e-06
0.00134236
-3.59999e-06
-5.78998e-08
0.000445467
-0.000445608
-7.65415e-07
0.000440579
-1.75259e-06
0.00129723
-1.6849e-05
-3.9748e-05
0.00198751
-0.000171458
-0.00010036
0.00611887
-4.16142e-05
0.00195681
-0.000109164
0.00126303
-8.6864e-05
-5.2939e-05
-0.000438314
0.000428305
-5.48922e-06
-2.63939e-06
-0.000124639
0.00886909
-0.000116962
0.0113319
-0.00010742
0.0133435
-9.60162e-05
0.0147669
-8.01257e-05
0.0155013
-6.40434e-05
0.015505
-5.23912e-05
0.014788
-3.87666e-05
0.0134262
-2.74364e-05
0.0115305
-1.74374e-05
0.00924357
-1.09491e-05
0.00670803
-5.082e-06
0.00404314
-1.16955e-06
0.00134353
-0.000448147
-1.06037e-06
-1.75843e-08
0.000260898
-0.000261602
-6.17155e-08
0.00025942
-2.74485e-07
0.000420634
-9.17797e-06
0.000399135
-1.82492e-05
0.00123499
-7.99215e-05
-6.35003e-05
0.00191085
-5.44013e-05
-3.64892e-05
0.00603895
-8.22926e-06
0.00189353
-2.42886e-05
0.00118321
-1.69968e-05
-4.03802e-05
-0.000379359
0.000352377
-5.98818e-05
-3.31635e-05
-0.000257193
0.000252466
-7.62383e-07
-4.1293e-07
-6.69833e-05
0.00881911
-7.45883e-05
0.011299
-7.60854e-05
0.0133236
-7.24392e-05
0.0147593
-6.50228e-05
0.0155023
-5.81601e-05
0.0155108
-4.70742e-05
0.0147964
-3.7079e-05
0.0134358
-2.94786e-05
0.0115425
-2.08204e-05
0.00925344
-1.07923e-05
0.00671374
-5.40508e-06
0.00404737
-1.23651e-06
0.00134477
-0.000262548
-1.13679e-07
-4.45615e-08
7.55608e-05
-7.56225e-05
7.52863e-05
0.000245012
-1.72318e-06
0.000230539
-3.7762e-06
0.000330816
-5.83606e-05
0.00031078
-4.34644e-05
0.00114176
-1.039e-05
-2.56842e-06
0.00186957
-1.25358e-05
-1.53018e-05
0.00598789
-6.24969e-07
0.00186678
-5.43185e-06
0.00112079
-1.75503e-07
-3.13463e-06
-0.000289052
0.000278362
-6.30627e-06
-1.86519e-05
-0.000207093
0.000168482
-2.12708e-05
-9.71786e-06
-7.48734e-05
7.4111e-05
-3.72036e-05
0.00878173
-4.88541e-05
0.0112718
-5.41927e-05
0.0133053
-5.46222e-05
0.0147489
-5.42146e-05
0.0154983
-4.91958e-05
0.0155129
-4.34318e-05
0.0148027
-3.83222e-05
0.0134447
-2.9847e-05
0.0115515
-2.06207e-05
0.00926327
-1.38056e-05
0.00672214
-6.25048e-06
0.00405239
-1.56008e-06
0.00134633
-7.57362e-05
7.23878e-05
6.86116e-05
0.000147745
-3.76229e-05
0.00010428
0.000270247
-2.2757e-06
0.00026835
-6.70604e-07
0.00110923
-1.20016e-06
2.16221e-07
0.00185501
-3.53241e-06
-7.87314e-06
0.0059576
9.57802e-07
0.00185538
-1.00293e-06
0.00110389
5.48863e-07
-6.37729e-07
-0.00026559
0.000265507
-9.27873e-08
-3.74567e-07
-8.56282e-05
7.93219e-05
-5.88938e-05
3.76229e-05
-2.19745e-05
0.00875485
-3.34067e-05
0.011251
-4.05384e-05
0.0132912
-4.67018e-05
0.0147413
-4.76968e-05
0.0154968
-4.68891e-05
0.0155164
-4.61562e-05
0.0148105
-4.09515e-05
0.0134558
-3.2902e-05
0.0115638
-2.53622e-05
0.00927483
-1.5295e-05
0.00673119
-7.01717e-06
0.00405784
-1.59802e-06
0.00134792
7.70463e-05
7.63756e-05
0.00026448
-1.72968e-07
0.000264671
2.45332e-08
0.00110047
-3.33854e-07
2.24044e-07
0.00184892
-1.41211e-06
-4.98485e-06
0.00593896
1.65432e-06
0.00185051
-6.23485e-07
0.00109939
4.02756e-07
-3.2249e-07
-0.000263977
0.000264467
5.91529e-08
5.64233e-08
-7.60011e-05
7.59083e-05
-1.39741e-05
0.00873542
-2.48386e-05
0.0112353
-3.19479e-05
0.0132765
-3.77693e-05
0.0147314
-4.44959e-05
0.0154944
-4.78611e-05
0.0155181
-4.95579e-05
0.0148191
-4.56502e-05
0.0134685
-3.96661e-05
0.0115781
-2.87813e-05
0.00928831
-1.71821e-05
0.00674135
-7.86269e-06
0.00406411
-1.96066e-06
0.00134988
7.57353e-05
7.57599e-05
0.000264219
-8.62361e-08
0.000264388
5.55753e-08
0.00109801
-1.87803e-07
1.51731e-07
0.00184617
-6.52184e-07
-3.13339e-06
0.00592715
9.70429e-07
0.00184785
-2.66981e-08
0.00109728
2.6349e-07
-1.60792e-07
-0.000263985
0.000264355
3.29681e-08
8.05725e-08
-7.58163e-05
7.58755e-05
-1.01168e-05
0.00872069
-1.71941e-05
0.0112205
-2.73953e-05
0.0132661
-3.55236e-05
0.0147224
-4.38434e-05
0.0154904
-5.35684e-05
0.0155221
-5.59767e-05
0.0148295
-5.4511e-05
0.0134834
-4.55024e-05
0.0115948
-3.4253e-05
0.00930539
-2.05971e-05
0.00675409
-9.42873e-06
0.00407158
-2.06078e-06
0.00135195
7.57892e-05
7.58448e-05
0.000264235
-6.83826e-08
0.000264354
3.26781e-08
0.00109674
-1.51263e-07
4.72278e-08
0.00184526
-5.40212e-07
-1.85034e-06
0.00591814
7.45966e-07
0.001846
2.28124e-07
0.00109655
2.53002e-07
-9.49039e-08
-0.000264128
0.00026438
1.06797e-08
6.57637e-08
-7.59254e-05
7.59583e-05
-7.0237e-06
0.00871052
-1.42241e-05
0.0112074
-2.49204e-05
0.0132555
-3.63177e-05
0.0147149
-4.92568e-05
0.0154861
-5.92326e-05
0.0155253
-6.6061e-05
0.014841
-6.37637e-05
0.0135016
-5.36569e-05
0.0116142
-3.61337e-05
0.00932092
-2.09284e-05
0.00676559
-8.96977e-06
0.00407849
-1.87245e-06
0.00135382
7.589e-05
7.59226e-05
0.000264309
-7.93281e-08
0.000264339
1.68939e-08
0.00109606
-8.7028e-08
3.5078e-08
0.00184454
-3.84267e-07
-1.46783e-06
0.00591141
1.16828e-06
0.0018451
1.84528e-07
0.00109623
1.64494e-07
-1.0726e-07
-0.000264173
0.000264417
8.38302e-09
7.11221e-08
-7.59884e-05
7.59991e-05
-5.8809e-06
0.00870218
-1.29485e-05
0.0111954
-2.39239e-05
0.0132431
-4.20721e-05
0.0147077
-6.09182e-05
0.0154878
-7.57484e-05
0.015535
-7.97091e-05
0.014857
-7.34253e-05
0.0135214
-5.89632e-05
0.0116371
-4.13445e-05
0.00934134
-2.30738e-05
0.00677969
-8.87534e-06
0.00408549
-1.94195e-06
0.00135576
7.59198e-05
7.59367e-05
0.000264411
-8.01582e-08
0.000264432
1.41759e-08
0.00109591
-1.92873e-08
-4.39434e-08
0.00184384
-2.06268e-07
-1.16496e-06
0.00590572
9.78553e-07
0.00184477
2.30084e-07
0.00109598
1.62873e-07
-4.24371e-08
-0.000264256
0.000264418
2.25369e-09
6.84449e-08
-7.60078e-05
7.60162e-05
-4.06445e-06
0.0086933
-1.26541e-05
0.0111841
-2.83935e-05
0.0132294
-4.72878e-05
0.0146941
-7.08622e-05
0.0154829
-8.95761e-05
0.0155449
-9.75632e-05
0.0148811
-8.71312e-05
0.0135496
-6.66879e-05
0.0116624
-4.36365e-05
0.0093619
-2.25721e-05
0.00679339
-9.57275e-06
0.00409312
-2.52137e-06
0.00135828
7.5936e-05
7.59502e-05
0.000264479
-7.98126e-08
0.000264426
8.66493e-09
0.00109583
-1.77774e-08
-3.79997e-08
0.00184379
-1.78496e-07
-6.30305e-07
0.00590145
8.35393e-07
0.00184453
2.38649e-07
0.00109592
1.66675e-07
-3.05279e-08
-0.000264286
0.000264444
5.65927e-09
9.71912e-08
-7.60186e-05
7.60209e-05
-5.01346e-06
0.00868566
-1.50575e-05
0.0111708
-3.41847e-05
0.0132163
-6.48849e-05
0.0146881
-9.41655e-05
0.0154875
-0.000113057
0.0155604
-0.000113342
0.0149073
-9.7526e-05
0.0135804
-7.16698e-05
0.0116904
-4.48582e-05
0.00938419
-2.29131e-05
0.00680673
-7.81591e-06
0.00409842
-7.46663e-07
0.00135903
7.59411e-05
7.59497e-05
0.000264509
-8.32537e-08
0.000264455
1.63966e-08
0.0010958
-1.05065e-08
-4.81468e-08
0.00184388
1.79316e-08
-3.31708e-07
0.00589632
4.43879e-07
0.00184444
2.75676e-07
0.00109589
1.65265e-07
-2.14462e-08
-0.000264359
0.000264519
6.24927e-09
6.55557e-08
-7.60469e-05
7.60526e-05
-4.29387e-06
0.00867489
-2.02568e-05
0.0111569
-4.79792e-05
0.0131994
-8.46384e-05
0.0146786
-0.000118597
0.015493
-0.000136771
0.0155838
-0.000130192
0.01494
-0.000106971
0.0136157
-7.53008e-05
0.0117209
-4.22599e-05
0.00940353
-2.15011e-05
0.00682042
-6.79296e-06
0.00410446
-6.76803e-07
0.00135971
7.59693e-05
7.59857e-05
0.000264596
-8.76805e-08
0.000264439
1.08645e-07
0.00109596
-5.83136e-09
-3.79723e-08
0.00184404
6.42568e-08
1.95787e-07
0.00589257
-7.33459e-07
0.00184435
1.38963e-07
0.00109608
1.69509e-07
-1.51869e-08
-0.000264431
0.000264603
-6.34242e-09
-1.32225e-08
-7.60513e-05
7.60576e-05
-7.48745e-06
0.00866212
-2.76913e-05
0.0111366
-6.47911e-05
0.0131796
-0.000113584
0.0146736
-0.000151318
0.0155076
-0.000163595
0.0156172
-0.000145065
0.0149781
-0.000111244
0.0136517
-7.25135e-05
0.0117511
-4.13336e-05
0.00942337
-1.75966e-05
0.00683122
-6.28527e-06
0.00411007
-4.25468e-07
0.00136013
7.59699e-05
7.60785e-05
0.000264643
-4.62521e-08
0.000264493
1.11986e-07
0.00109617
4.46563e-09
-3.20491e-08
0.00184444
1.02404e-07
1.07319e-06
0.00588504
-1.02798e-06
0.00184356
1.52314e-07
0.00109615
1.70416e-07
-1.25153e-08
-0.000264489
0.000264664
-5.14484e-09
-1.12256e-08
-7.60653e-05
7.6059e-05
-1.11363e-05
0.00864557
-4.05166e-05
0.0111123
-9.51564e-05
0.0131612
-0.000151584
0.0146739
-0.000188217
0.0155322
-0.000185784
0.0156579
-0.00015513
0.015022
-0.000111256
0.0136904
-6.84381e-05
0.0117782
-3.66257e-05
0.0094424
-1.6134e-05
0.00684107
-3.07608e-06
0.00411272
-2.03757e-07
0.00136033
7.60127e-05
7.61247e-05
0.000264747
-7.85761e-08
0.000264602
1.1284e-07
0.00109627
4.23991e-09
-2.33277e-08
0.00184445
1.79474e-07
1.4059e-06
0.00587449
-1.99289e-06
0.00184361
-1.83378e-07
0.00109628
1.66304e-07
-1.89428e-08
-0.0002646
0.000264776
-5.36524e-09
-9.97679e-09
-7.61135e-05
7.61083e-05
-1.8262e-05
0.00862331
-6.45451e-05
0.0110817
-0.000135415
0.013145
-0.000199361
0.014685
-0.000223324
0.0155697
-0.000197597
0.0157004
-0.000153782
0.0150645
-0.000102094
0.0137241
-6.12708e-05
0.0118029
-3.11927e-05
0.00945745
-1.0852e-05
0.00684884
-2.81778e-06
0.00411533
1.70221e-07
0.00136016
7.60298e-05
7.61426e-05
0.000264823
-4.35e-08
0.00026472
7.97695e-08
0.00109649
8.37592e-10
-2.88375e-08
0.00184454
4.71007e-07
9.20538e-07
0.00585874
-3.43708e-06
0.00184295
-4.05271e-07
0.00109612
1.79915e-07
4.06773e-09
-0.000264679
0.000264853
-8.04337e-09
2.23872e-08
-7.61326e-05
7.61273e-05
-3.07938e-05
0.00858956
-0.000100779
0.0110471
-0.000191701
0.0131373
-0.000248885
0.0147106
-0.000241242
0.0156134
-0.000200855
0.0157475
-0.000142856
0.0151053
-9.29813e-05
0.0137558
-5.20998e-05
0.0118238
-2.30904e-05
0.00946969
-6.65072e-06
0.00685268
6.80007e-07
0.00411483
1.72421e-06
0.00135844
7.60838e-05
7.61636e-05
0.000264938
-8.35797e-08
0.000264817
9.15175e-08
0.00109658
1.92171e-08
-1.12265e-08
0.00184333
5.48609e-07
1.64442e-06
0.00583218
-5.88094e-06
0.00184052
-6.36203e-07
0.00109606
1.0903e-07
7.98051e-09
-0.000264812
0.000264989
2.81053e-09
9.72098e-09
-7.61859e-05
7.61779e-05
-5.5365e-05
0.00854415
-0.000161188
0.0110165
-0.00025996
0.0131484
-0.000281155
0.0147505
-0.000245593
0.0156581
-0.000184669
0.0157893
-0.000126739
0.015139
-7.74435e-05
0.0137811
-4.1555e-05
0.0118423
-1.5925e-05
0.00947897
-3.20177e-06
0.00685656
1.58482e-06
0.00411497
2.05727e-06
0.00135638
7.60943e-05
7.61859e-05
0.000265085
-7.74152e-08
0.000264978
9.67433e-08
0.00109658
9.4622e-08
-6.26531e-08
0.0018422
-3.50175e-08
-1.75692e-07
0.00578904
-1.20411e-05
0.00183727
-9.42941e-07
0.00109581
5.0945e-08
8.17892e-08
-0.000264973
0.000265084
-1.43e-09
1.20656e-08
-7.61956e-05
7.61984e-05
-0.00010433
0.00848729
-0.00024263
0.0109992
-0.00031067
0.0131779
-0.000287801
0.0147927
-0.000224221
0.0156977
-0.000159636
0.0158222
-0.000103937
0.0151655
-6.18216e-05
0.0138014
-2.89682e-05
0.0118553
-9.5771e-06
0.00948534
8.59658e-07
0.00685728
5.20012e-06
0.00411182
2.45601e-06
0.00135393
7.6121e-05
7.62177e-05
0.000265224
-4.50196e-08
0.000265092
6.91716e-08
0.00109572
1.78166e-07
-1.25509e-07
0.00183789
-8.01892e-07
-5.20464e-06
0.00571787
-2.79645e-05
0.00182872
-2.87282e-06
0.00109468
3.82925e-10
9.99475e-08
-0.000265128
0.000265173
5.7909e-09
4.57173e-08
-7.62298e-05
7.62284e-05
-0.000192304
0.00843696
-0.000330123
0.0110187
-0.000322473
0.0132126
-0.000256138
0.0148246
-0.000188676
0.0157267
-0.000130051
0.0158483
-8.25298e-05
0.0151862
-4.40233e-05
0.0138164
-1.8711e-05
0.0118644
-2.56689e-06
0.00948877
3.53042e-06
0.00685896
7.25213e-06
0.00410703
2.83766e-06
0.00135109
7.61834e-05
7.62525e-05
0.000265424
-7.24488e-08
0.000265195
1.02732e-07
0.00109385
1.93395e-07
-1.69831e-07
0.00182681
-3.28769e-06
-2.6035e-05
0.00562267
-7.10653e-05
0.00180759
-8.74928e-06
0.00109119
-3.12326e-07
9.87723e-08
-0.00026528
0.00026531
-2.96187e-08
1.55056e-08
-7.62983e-05
7.63041e-05
-0.00032331
0.00843015
-0.000348588
0.0110448
-0.000275539
0.013232
-0.000206334
0.0148423
-0.000147357
0.015744
-9.98016e-05
0.0158656
-5.89183e-05
0.0152011
-2.95013e-05
0.0138272
-8.80315e-06
0.0118707
3.78447e-06
0.00948852
1.06962e-05
0.00685551
7.58165e-06
0.00410228
3.31332e-06
0.00134778
7.62316e-05
7.63343e-05
0.000265531
-2.74825e-08
0.000265283
7.79605e-08
0.00108795
4.47133e-07
-4.90193e-07
0.00179562
-1.40635e-05
-9.55025e-05
0.00556966
-0.000174799
0.00175558
-3.10246e-05
0.00107984
-8.05387e-07
1.59036e-07
-0.00026533
0.000265052
-3.41161e-08
5.18797e-08
-7.63498e-05
7.63202e-05
-0.000362691
0.00844425
-0.00027529
0.0110445
-0.000206089
0.0132318
-0.000154014
0.0148489
-0.000108455
0.0157527
-6.96649e-05
0.0158763
-3.95761e-05
0.0152112
-1.40953e-05
0.0138325
2.59755e-06
0.0118719
1.12959e-05
0.00948792
1.18416e-05
0.00685125
9.14617e-06
0.00409645
3.85239e-06
0.00134392
7.62928e-05
7.63707e-05
0.000265546
-4.68897e-08
0.000264977
7.80518e-08
0.00106708
1.39835e-07
-1.43743e-06
0.00171976
-5.9687e-05
-0.000195651
0.00556316
-0.000160535
0.00167094
-0.000125976
0.00103989
-3.58874e-06
-2.51621e-07
-0.000265111
0.000264383
-7.65177e-08
2.50392e-08
-7.64226e-05
7.63885e-05
-0.0002395
0.00840846
-0.00017895
0.0110174
-0.000139181
0.0132169
-0.000103674
0.0148441
-7.4148e-05
0.0157572
-4.69267e-05
0.0158837
-2.08689e-05
0.015218
-3.89353e-06
0.013839
1.05824e-05
0.0118726
1.5178e-05
0.00948458
1.93784e-05
0.00684102
1.06889e-05
0.00408961
4.58334e-06
0.00133934
7.63416e-05
7.64197e-05
0.000264624
-1.01077e-07
0.000263213
-2.69541e-08
0.000992864
-2.17053e-06
-1.04869e-05
0.00164369
-0.000168401
-0.000106835
0.00547316
-4.26726e-05
0.00161027
-0.000127111
0.00091821
-3.70309e-05
-1.4292e-05
-0.000263031
0.000259963
-5.21328e-07
-6.93242e-08
-7.64447e-05
7.63682e-05
-0.00012112
0.00835064
-0.000106496
0.0109847
-8.95427e-05
0.0132028
-6.94375e-05
0.0148394
-4.85849e-05
0.0157588
-2.49783e-05
0.0158878
-6.96605e-06
0.015221
8.06856e-06
0.0138415
1.78723e-05
0.0118699
2.14109e-05
0.00948255
1.73841e-05
0.00683432
1.51366e-05
0.00407906
6.30207e-06
0.00133304
7.62671e-05
7.62402e-05
0.000258398
-6.05212e-07
0.000249643
-1.7313e-06
0.000872788
-5.94663e-05
-6.35124e-05
0.00155822
-5.47835e-05
-3.17013e-05
0.00538904
-5.29628e-06
0.00153562
-2.00751e-05
0.000809204
-1.8634e-05
-4.48927e-05
-0.000239165
0.000212092
-9.95709e-06
-3.81492e-06
-7.61708e-05
7.56495e-05
-5.65636e-05
0.0083007
-5.89351e-05
0.0109541
-5.30625e-05
0.0131864
-4.10439e-05
0.0148319
-2.33069e-05
0.0157572
-7.26337e-06
0.0158881
6.53163e-06
0.0152226
2.03746e-05
0.013839
2.55313e-05
0.0118658
2.80862e-05
0.00947185
2.54439e-05
0.00682402
1.52965e-05
0.00407007
5.76249e-06
0.00132728
7.50443e-05
7.3313e-05
0.000174677
-2.20514e-05
0.000148654
-3.74896e-05
0.000762017
-6.35394e-06
-1.24256e-06
0.00151239
-8.47032e-06
-1.10226e-05
0.00534173
1.77141e-06
0.00150969
-2.59562e-06
0.000742722
9.78984e-08
-8.77537e-07
-0.000103761
8.51273e-05
-6.94981e-05
5.9541e-05
-2.72548e-05
0.00826902
-3.27986e-05
0.0109338
-2.83253e-05
0.0131737
-1.93115e-05
0.0148279
-8.98421e-06
0.0157589
4.26446e-06
0.0158903
1.68409e-05
0.0152261
2.71287e-05
0.0138374
3.13281e-05
0.0118625
3.26105e-05
0.00946468
2.78644e-05
0.00681145
1.90714e-05
0.00405676
6.58454e-06
0.00132069
3.74896e-05
7.87734e-05
7.75308e-05
0.000734301
-1.94491e-07
1.44988e-07
0.00150003
-1.36156e-06
-4.99225e-06
0.00531632
3.14853e-06
0.00150169
1.04408e-07
0.000731644
1.45579e-07
-8.3962e-08
-7.66532e-05
7.67511e-05
-1.12682e-05
0.00824749
-1.37818e-05
0.0109193
-1.21058e-05
0.0131665
-3.99324e-06
0.0148229
6.71267e-06
0.0157564
1.82014e-05
0.015889
2.90679e-05
0.0152242
3.51667e-05
0.0138336
3.9576e-05
0.0118555
4.10524e-05
0.00945149
3.17353e-05
0.00679878
2.14693e-05
0.00404187
8.50611e-06
0.00131219
7.65566e-05
7.67016e-05
0.000730175
-1.83151e-08
1.25235e-07
0.00149683
-1.29914e-07
-2.79806e-06
0.00530495
2.90023e-06
0.00149955
4.28814e-07
0.000730215
9.53664e-08
-3.01345e-08
-7.66177e-05
7.67632e-05
-3.31498e-06
0.00823703
-3.1584e-06
0.0109104
1.10738e-06
0.0131614
8.75161e-06
0.0148209
1.92262e-05
0.0157554
2.83539e-05
0.0158897
3.83227e-05
0.015221
4.384e-05
0.0138293
4.82692e-05
0.0118483
4.33962e-05
0.00943983
3.71675e-05
0.00678309
2.15459e-05
0.00402883
8.06587e-06
0.00130412
7.67449e-05
7.68702e-05
0.000730025
-3.02208e-08
9.00091e-08
0.00149664
1.15053e-07
-1.18224e-06
0.00530009
2.72934e-06
0.00149901
5.28263e-07
0.00073041
6.36492e-08
-1.93867e-08
-7.68401e-05
7.69355e-05
1.90847e-06
0.00823196
3.9112e-06
0.0109076
9.56004e-06
0.0131606
1.68759e-05
0.0148232
2.68048e-05
0.015757
3.8365e-05
0.0158896
4.54913e-05
0.0152194
5.38173e-05
0.0138238
5.53535e-05
0.0118364
4.95014e-05
0.0094275
4.07202e-05
0.00676391
2.43543e-05
0.00401254
8.97351e-06
0.00129515
7.69053e-05
7.69953e-05
0.000730446
-3.99228e-09
8.25274e-08
0.0014975
3.31859e-07
-2.51916e-07
0.00529917
3.07523e-06
0.00149964
5.87398e-07
0.000730949
5.27276e-08
-2.74009e-08
-7.69759e-05
7.70396e-05
4.35932e-06
0.00823151
9.19232e-06
0.0109079
1.70373e-05
0.0131604
2.63655e-05
0.0148236
3.62079e-05
0.0157591
4.68856e-05
0.0158883
5.61142e-05
0.0152171
6.0628e-05
0.0138185
5.7482e-05
0.0118284
5.49354e-05
0.00941328
4.24324e-05
0.00674583
2.9888e-05
0.00399163
9.38788e-06
0.00128576
7.70356e-05
7.71182e-05
0.000731203
2.85744e-08
4.94474e-08
0.00149896
4.29156e-07
-8.85169e-08
0.00530065
2.9696e-06
0.00150143
6.0136e-07
0.000731679
3.31299e-08
7.78848e-08
-7.70908e-05
7.71435e-05
7.56584e-06
0.00823314
1.44924e-05
0.0109105
2.2664e-05
0.0131641
3.39913e-05
0.0148259
4.61404e-05
0.0157599
5.54572e-05
0.0158889
6.34858e-05
0.0152142
6.90788e-05
0.0138069
7.18779e-05
0.0118115
6.26895e-05
0.00939302
5.2799e-05
0.00672292
3.05467e-05
0.00397047
9.97985e-06
0.00127578
7.71721e-05
7.72215e-05
0.000732022
3.16308e-08
5.50574e-08
0.0015009
4.42127e-07
8.31684e-07
0.00530487
2.51707e-06
0.00150324
6.28994e-07
0.000732603
2.05197e-08
-5.6252e-10
-7.72994e-05
7.73325e-05
9.06802e-06
0.00823856
1.71923e-05
0.0109159
2.76111e-05
0.0131705
4.09678e-05
0.014831
5.22506e-05
0.0157631
6.4865e-05
0.0158875
7.51351e-05
0.0152081
7.90121e-05
0.0137998
8.13838e-05
0.0117928
7.23237e-05
0.0093735
5.44108e-05
0.00669906
3.43545e-05
0.0039461
1.3479e-05
0.0012623
7.73641e-05
7.74192e-05
0.000732995
7.67064e-09
4.29712e-08
0.00150345
6.20828e-07
1.11336e-06
0.00531023
2.5901e-06
0.00150529
6.77422e-07
0.00073357
2.45232e-08
2.96868e-08
-7.74187e-05
7.74392e-05
1.05128e-05
0.00824524
2.11671e-05
0.0109224
3.36902e-05
0.0131778
4.68598e-05
0.0148364
6.10483e-05
0.0157669
7.44354e-05
0.0158882
8.23721e-05
0.0152048
8.7392e-05
0.0137938
8.45759e-05
0.0117805
8.00732e-05
0.00934784
6.13877e-05
0.00667203
3.7838e-05
0.00392174
2.77543e-05
0.00123455
7.74468e-05
7.74898e-05
0.000734099
3.37506e-08
5.7768e-08
0.00150574
6.67435e-07
1.27939e-06
0.00531712
2.34179e-06
0.00150738
9.45059e-07
0.000734743
2.80546e-08
5.5506e-09
-7.75195e-05
7.7544e-05
1.16488e-05
0.00825476
2.50933e-05
0.010931
4.15192e-05
0.0131831
5.5674e-05
0.0148418
7.18996e-05
0.0157694
8.23641e-05
0.0158882
9.34172e-05
0.0151988
9.77116e-05
0.0137806
9.61348e-05
0.0117644
8.59805e-05
0.00932325
6.80888e-05
0.00664178
5.84026e-05
0.00389109
5.47053e-05
7.75778e-05
7.76355e-05
0.000735316
3.52158e-08
5.91357e-08
0.0015079
7.61792e-07
1.16376e-06
0.00532597
1.63905e-06
0.00150968
5.58234e-07
0.000736148
1.05775e-07
6.48773e-09
-7.76411e-05
7.76691e-05
1.31889e-05
0.00826667
2.81736e-05
0.0109443
4.52621e-05
0.0131935
6.34626e-05
0.0148502
7.92584e-05
0.0157725
9.39937e-05
0.0158877
0.000102957
0.0151935
0.000106484
0.0137703
0.000103903
0.0117465
9.1454e-05
0.00929988
8.7901e-05
0.00661228
9.97405e-05
7.77043e-05
7.77635e-05
0.000736806
7.23137e-08
3.17271e-08
0.00151053
3.12554e-07
8.05606e-07
0.00533716
1.18947e-06
0.00151236
-1.90547e-07
0.000737306
3.13224e-08
2.71913e-08
-7.777e-05
7.78757e-05
1.73316e-05
0.00827751
3.40616e-05
0.0109555
5.14153e-05
0.0132056
6.97254e-05
0.0148598
8.70234e-05
0.0157795
0.000102904
0.0158877
0.000112468
0.0151875
0.000119742
0.0137544
0.0001168
0.0117212
0.00011417
0.00927361
0.000129756
7.7948e-05
7.79798e-05
0.000737553
1.65232e-08
4.93724e-08
0.00151449
-1.3186e-06
1.53613e-06
0.00534778
5.17667e-06
0.00151759
-1.90828e-06
0.000737412
-3.98937e-10
-4.90892e-08
-7.8007e-05
7.80383e-05
2.09631e-05
0.00829061
3.71697e-05
0.0109698
5.82079e-05
0.0132171
7.87267e-05
0.0148681
9.8413e-05
0.015784
0.000111037
0.0158891
0.000123064
0.0151842
0.000128335
0.0137429
0.000133971
0.0117014
0.000151314
7.80548e-05
7.81042e-05
0.000736046
2.42775e-08
2.30058e-08
0.00151562
5.21688e-06
-1.71692e-06
5.36487e-06
0.00535812
5.26327e-06
0.00151995
-3.89298e-07
1.24204e-06
0.000435382
-2.19043e-07
0.000298977
-2.92429e-09
-7.80551e-05
7.80547e-05
2.25202e-05
0.00830526
4.25763e-05
0.0109854
6.34176e-05
0.0132324
8.70325e-05
0.0148794
0.000104817
0.0157902
0.000121523
0.0158907
0.000130348
0.0151822
0.000143209
0.0137337
0.000159946
7.8079e-05
7.8102e-05
0.000456298
-1.56992e-05
0.000461377
-6.79559e-06
0.00152223
1.25072e-06
1.83092e-06
4.65088e-06
0.00537147
4.52024e-06
0.00152473
1.2487e-06
1.51513e-06
0.000464045
-3.05761e-06
0.000466204
-9.16934e-07
-7.80991e-05
7.788e-05
0.000280439
2.83874e-06
2.44154e-05
0.00832342
4.68848e-05
0.0110019
7.16285e-05
0.0132478
9.48585e-05
0.0148894
0.000113904
0.0157978
0.000130192
0.0158908
0.000146319
0.0151791
0.000164643
0.000274529
-8.85324e-07
0.000467145
3.09679e-07
0.000468445
5.31074e-07
0.00152706
1.02837e-06
1.29292e-06
4.87824e-06
0.00538644
4.56632e-06
0.00152972
7.7545e-07
1.08455e-06
0.000469047
6.47363e-07
0.000469744
8.17531e-07
0.000272515
-1.04371e-06
0.000272111
-5.12739e-07
8.07188e-05
2.78267e-05
0.00834248
5.16526e-05
0.0110219
7.88872e-05
0.0132638
0.000101133
0.0149022
0.000120845
0.0158072
0.000139021
0.0158981
0.000158083
7.98335e-05
0.000272419
1.3654e-09
0.000272844
1.06261e-07
0.000470172
6.00939e-07
0.000471041
4.23283e-07
0.0015328
7.87448e-07
1.00844e-06
5.24059e-06
0.00540403
4.99539e-06
0.00153547
1.0643e-06
8.28416e-07
0.0004714
4.16306e-07
0.000471914
5.7097e-07
0.000273329
1.62327e-07
0.000273999
1.47471e-07
7.87898e-05
7.8277e-05
3.06638e-05
0.00836346
5.8182e-05
0.0110426
8.52001e-05
0.0132797
0.000106433
0.0149166
0.000127503
0.0158187
0.000141454
7.82784e-05
7.83847e-05
0.000274415
1.85885e-07
0.000274702
1.35406e-07
0.000472281
4.20117e-07
0.000472824
4.65781e-07
0.00153885
1.0516e-06
8.12707e-07
5.93076e-06
0.00542335
5.40963e-06
0.00154192
1.1272e-06
8.01087e-07
0.000473508
3.80078e-07
0.000473961
3.75653e-07
0.00027502
9.87898e-08
0.000275491
1.00097e-07
7.8547e-05
7.86945e-05
3.52045e-05
0.00838644
6.49003e-05
0.0110629
9.05389e-05
0.0132956
0.000111159
0.0149329
0.000117864
7.88804e-05
7.90158e-05
0.000275816
9.48676e-08
0.000276154
1.27602e-07
0.000474429
5.83569e-07
0.000474856
3.85806e-07
0.0015457
1.23869e-06
9.06856e-07
6.67644e-06
0.00544564
6.23631e-06
0.00154899
1.22619e-06
8.91816e-07
0.000475646
3.36945e-07
0.000476041
4.06168e-07
0.000276477
5.7321e-08
0.00027676
9.31475e-08
7.91146e-05
7.92147e-05
4.07771e-05
0.00841056
7.17623e-05
0.0110817
9.14361e-05
0.0133153
9.18909e-05
7.93096e-05
7.94372e-05
0.000277217
1.25749e-07
0.00027751
9.36645e-08
0.000476655
6.25062e-07
0.000477144
4.18214e-07
0.00155301
1.37302e-06
1.29291e-06
8.07772e-06
0.0054712
7.14475e-06
0.00155681
1.13559e-06
1.29482e-06
0.000477995
3.7495e-07
0.00047827
6.16924e-07
0.000277749
9.75346e-08
0.000278054
1.01534e-07
7.94945e-05
7.95877e-05
4.95227e-05
0.0084328
7.28996e-05
0.0111002
6.52927e-05
7.97134e-05
7.98071e-05
0.000278582
9.65623e-08
0.000278792
2.08124e-07
0.000479123
5.19451e-07
0.000479938
4.78157e-07
0.00156209
1.31677e-06
1.47798e-06
1.05347e-05
0.0054999
1.02875e-05
0.0015663
1.43172e-06
1.50224e-06
0.000480581
4.93081e-07
0.00048119
6.85519e-07
0.000279084
8.31364e-08
0.000279589
1.12418e-07
7.99046e-05
8.00062e-05
5.4269e-05
0.00845143
4.26021e-05
8.01028e-05
8.03109e-05
0.000279964
1.44598e-07
0.000280325
1.17113e-07
0.000481917
5.89774e-07
0.00048283
5.65096e-07
0.00157313
1.74131e-06
1.96812e-06
1.46293e-05
0.00552367
1.58711e-05
0.00157886
2.17822e-06
2.37662e-06
0.000483741
5.20893e-07
0.000484398
8.45037e-07
0.000280699
1.18342e-07
0.000281305
7.97051e-08
8.0394e-05
8.05065e-05
2.84582e-05
8.06511e-05
8.07682e-05
0.000281742
1.53402e-07
0.000282171
1.35619e-07
0.000485414
7.25145e-07
0.000486633
7.49241e-07
0.00158732
2.78576e-06
3.38381e-06
3.12083e-05
1.24518e-05
0.00159436
3.83962e-06
4.9889e-06
0.000487849
9.62135e-07
0.000488902
1.32321e-06
0.000282553
1.39044e-07
0.000283254
1.44481e-07
8.08866e-05
8.09663e-05
8.11197e-05
8.12553e-05
0.000283791
1.87605e-07
0.000284364
1.76497e-07
0.000490274
1.41445e-06
0.000492046
1.61125e-06
0.00160667
8.08393e-06
1.08146e-05
1.6141e-05
7.88068e-06
0.00049407
1.81568e-06
0.000496222
2.83714e-06
0.000285107
2.18495e-07
0.000286138
2.92648e-07
8.13943e-05
8.15388e-05
8.17264e-05
8.19029e-05
0.0002872
3.52358e-07
0.000288425
3.86145e-07
0.00049937
4.93608e-06
0.000502668
7.51635e-06
0.000507069
1.17402e-05
1.12909e-05
0.000289756
4.85273e-07
0.000291861
7.31827e-07
8.21214e-05
8.24141e-05
8.27664e-05
8.31526e-05
0.000295314
1.48279e-06
0.00029944
3.39075e-06
0.000303716
7.46351e-06
1.53378e-05
8.36379e-05
8.43697e-05
8.58525e-05
8.92432e-05
9.67067e-05
-3.76924e-06
3.76932e-06
2.27521e-06
-6.04425e-06
-1.56852e-05
4.82587e-06
1.46289e-05
4.65726e-06
-1.80671e-05
1.14082e-06
-7.18495e-06
8.64795e-06
6.05802e-05
-5.97447e-05
4.08783e-06
1.05414e-05
3.12573e-06
-2.00518e-05
5.37035e-07
-7.72186e-06
-6.80728e-06
8.08639e-05
2.87505e-06
-6.82802e-05
-1.84405e-06
7.837e-06
5.86758e-05
-1.45826e-06
-6.19675e-05
8.69734e-06
-2.09729e-05
2.35455e-07
-7.95721e-06
-4.26725e-06
8.57965e-05
7.17081e-06
-0.000428685
-7.77668e-06
0.00043933
-5.3592e-06
1.0078e-05
-6.9549e-05
-3.45083e-06
-7.3553e-07
5.53917e-05
-2.47065e-07
-1.13559e-06
-6.56347e-05
-5.55508e-07
7.96191e-06
-2.18729e-05
1.34028e-07
-8.09095e-06
-3.10231e-06
7.56338e-05
1.53834e-05
-2.11235e-06
-0.00041967
-1.84163e-06
-0.00139576
-2.01159e-05
0.0014081
1.89175e-06
0.000447517
1.44167e-05
-7.83833e-05
-2.42705e-06
-3.15295e-06
-6.81059e-05
-3.62263e-07
-6.16544e-07
5.26054e-05
-1.86939e-07
-1.28516e-07
7.71496e-06
-2.22942e-05
1.70267e-07
-8.26087e-06
5.85619e-05