/*--------------------------------*- C++ -*----------------------------------*\
| =========                 |                                                 |
| \\      /  F ield         | OpenFOAM: The Open Source CFD Toolbox           |
|  \\    /   O peration     | Version:  v1912                                 |
|   \\  /    A nd           | Website:  www.openfoam.com                      |
|    \\/     M anipulation  |                                                 |
\*---------------------------------------------------------------------------*/
FoamFile
{
    version     2.0;
    format      ascii;
    class       surfaceScalarField;
    location    "350";
    object      phi;
}
// * * * * * * * * * * * * * * * * * * * * * * * * * * * * * * * * * * * * * //

dimensions      [0 3 -1 0 0 0 0];
oriented        oriented;


internalField   nonuniform List<scalar> 
7354
(
-3.48582e-05
0.00993345
-0.000160092
0.0100949
0.000763415
0.00916973
-0.000365085
0.0102383
0.00121003
0.00964827
0.00285548
0.00313584
0.00317766
-0.000600737
0.0102813
0.00133995
0.0101084
0.00465803
0.00358559
0.00426012
0.00195286
0.000584809
0.000597597
0.00395814
0.000604909
0.000567465
-0.000865674
0.0102955
0.00133444
0.0102868
0.00536064
0.00460173
0.00480407
0.00558112
0.00122972
0.000732894
0.00639695
0.00177689
0.0016674
-0.000597516
0.00118233
-0.00174979
0.0023547
-0.00116557
0.0103131
0.0011989
0.0104311
0.0053326
0.0103149
0.00708837
0.00203466
0.00187565
0.00713804
0.00475439
-0.00308759
0.00431731
-0.00431772
0.00473572
0.00135889
0.00166699
-0.00149808
0.0103347
0.00093231
0.0105797
0.00479727
0.0109664
-0.00980872
0.0160616
0.00532311
0.00587696
-0.0051574
0.00525321
0.00193884
0.00145397
-0.00425799
0.00231176
0.0021451
-0.00166699
0.00302588
-0.00185662
0.010356
0.00054881
0.0107182
0.00403428
0.0113427
0.013956
0.013072
0.00599101
-0.00313396
0.00418947
-0.00172339
0.00621568
0.0056523
-0.00447985
0.0021607
-0.00265086
0.00182866
-0.0021607
0.00165494
-0.00223505
0.0103753
7.21643e-05
0.0108327
0.00319965
0.0115529
0.0114224
0.0138763
-0.00318956
0.00988531
0.0125919
0.00218544
0.00292035
-0.00037103
-0.000545282
-0.00112896
0.00123423
0.00464817
0.000525986
-0.00262923
0.0103925
-0.000472985
0.0109205
0.00233928
0.0116931
0.0089743
0.014001
0.00896475
0.0147969
-0.00161475
0.00447998
0.0110246
-0.00129789
0.000861593
-0.000110816
0.00224328
-7.37057e-05
-0.000931635
0.000668594
-0.000107988
-0.00024269
0.00389502
0.000283296
-0.00303408
0.0104055
-0.00106554
0.010985
0.00146077
0.011799
0.00676872
0.0138986
0.00746067
0.015505
0.00474835
0.0145285
0.00163029
0.009892
-9.69175e-05
-0.000400791
-0.000637667
0.00323479
0.000576828
-1.90497e-05
0.00177536
-8.14861e-05
-8.82612e-05
0.000516006
-1.28843e-05
0.000175308
-0.00344826
0.0104172
-0.00169105
0.011031
0.000566848
0.011879
0.00481656
0.0137512
0.00582224
0.0155371
0.00420278
0.0160506
0.00225947
0.0138993
0.000306382
0.0091894
0.000239304
0.000156922
-0.00299476
0.00290639
-8.55001e-06
-0.000160757
0.000156258
0.00164382
-2.28429e-05
-6.38178e-06
-0.000447966
0.000389093
-2.26124e-05
-2.02206e-05
0.000143374
-0.0038704
0.0104271
-0.00233948
0.0110656
-0.000338853
0.0119367
0.003073
0.0136225
0.00421999
0.0153534
0.00329399
0.0164459
0.00222917
0.0160809
0.000963828
0.0132419
-2.07725e-05
0.00886277
0.000113784
0.000233618
-0.00288275
0.00287049
0.000251563
0.000180565
0.00163655
4.00866e-06
-5.28881e-06
0.00036814
-1.89057e-06
0.00036279
-1.03333e-06
-0.000123153
0.000100541
-0.00429719
0.0104338
-0.00300461
0.0110923
-0.0012518
0.0119786
0.00148578
0.0135239
0.00269596
0.0151466
0.0022663
0.0163811
0.00176367
0.0169114
0.00117848
0.0158663
0.000426532
0.0127946
7.53805e-05
0.00876336
-2.73433e-05
5.13663e-05
-0.00286885
0.0028825
0.000100128
0.000235263
-0.00171812
0.00175061
0.000113374
0.000105699
2.90994e-05
6.98963e-05
-0.000357896
0.000362481
-5.76328e-07
-3.95278e-07
9.86501e-05
9.76168e-05
-0.00473085
0.0104417
-0.00368642
0.0111156
-0.00216972
0.0120102
1.0859e-05
0.0134535
0.00124542
0.0149745
0.00121698
0.0161959
0.00109294
0.0170519
0.000980629
0.0171092
0.000654479
0.0156383
0.000301037
0.0125689
9.44004e-05
-6.44479e-05
0.0087334
-0.00289253
0.00272514
0.000140045
4.13389e-05
-0.00180139
0.00185782
8.43812e-06
3.52608e-05
0.000124788
5.96967e-05
-0.000455428
0.000483206
8.55965e-05
-0.000420471
7.07434e-05
0.000380844
1.07368e-05
3.02693e-05
-9.72215e-05
9.66452e-05
-0.00516696
0.0104471
-0.00437948
0.0111347
-0.00309156
0.0120375
-0.00138628
0.0134073
-0.000148501
0.0148474
0.00017335
0.0160181
0.000348741
0.0169401
0.000542223
0.0174903
0.000574394
0.0171893
0.000456843
0.0154825
0.000248879
0.0124144
-0.00205075
0.00474791
-1.05733e-05
-2.58893e-05
-4.75891e-06
0.000134968
0.00860318
-0.00189357
-1.21782e-05
-4.95719e-06
7.59403e-06
-2.00971e-06
-0.000570604
0.000575668
3.37402e-06
-0.000550518
1.51744e-05
0.000526392
8.1603e-05
3.55706e-05
-0.000208395
0.000237472
5.65192e-05
-0.000137651
0.000107382
-0.00560762
0.0104537
-0.00508755
0.0111552
-0.00402014
0.0120633
-0.00273874
0.0133899
-0.00150581
0.0147647
-0.000861769
0.0158825
-0.00041729
0.0167841
-6.3222e-06
0.0174886
0.000268424
0.0177962
0.000408153
0.017238
0.000375456
0.0153559
0.000183438
0.0122262
0.00476173
0.000108832
1.23205e-05
-0.000877779
0.000869572
-1.4685e-06
-8.98648e-07
-0.000530353
-2.46676e-07
-1.19353e-06
-0.000371875
-3.67987e-05
0.000252933
0.00838704
-0.00057504
3.25079e-05
-0.000579836
-1.60747e-07
0.000581354
1.90888e-06
-4.92032e-07
-0.000330765
0.000334136
3.77174e-09
-0.000317962
2.37122e-06
0.00029102
2.80559e-05
8.62846e-06
5.65192e-05
-0.00605434
0.0104607
-0.00580874
0.0111748
-0.0049522
0.0120873
-0.00407647
0.013401
-0.00284284
0.014727
-0.00189267
0.0157956
-0.00118688
0.0166521
-0.000593485
0.0173713
-0.000151977
0.017909
0.000174639
0.0180297
0.000353893
0.0172595
0.000326726
0.0152126
0.000178415
0.012011
0.00466399
0.000168684
0.00018198
-0.000881928
0.000963099
2.25672e-05
5.09314e-06
1.18034e-06
-1.21604e-06
-8.92641e-05
8.77956e-05
-9.01628e-05
-9.04095e-05
-9.1603e-05
-0.000336277
-3.09012e-06
4.92421e-05
4.86653e-05
0.00828913
-0.000335716
-7.22056e-07
0.000335775
2.69751e-07
-4.33111e-07
-9.55748e-05
9.55786e-05
-9.32036e-05
8.45751e-05
-0.00650611
0.0104668
-0.00654074
0.0111927
-0.0058922
0.0121148
-0.00543569
0.0134465
-0.00417966
0.0147379
-0.00292179
0.0157561
-0.00195543
0.0165641
-0.00119173
0.0172504
-0.000619517
0.0178388
-0.000172456
0.0182561
0.000166956
0.0182167
0.000332551
0.0172537
0.000321804
0.0150692
0.000194267
0.011866
0.0046823
-1.97598e-05
5.01191e-05
-0.00101589
0.00108525
2.56118e-05
7.3711e-05
7.10728e-05
5.81183e-05
-9.2853e-05
0.00011542
-8.77599e-05
-8.65796e-05
-9.46931e-05
0.000124522
-7.30665e-05
0.00823768
-9.54152e-05
9.58483e-05
-0.00696615
0.0104761
-0.00728623
0.0112122
-0.00684431
0.0121449
-0.00684502
0.0135242
-0.00553269
0.0147995
-0.00395457
0.0157706
-0.00272274
0.0165234
-0.00179074
0.0171631
-0.00110228
0.0177331
-0.000566691
0.0182331
-0.000128729
0.0185518
0.000184167
0.0183651
0.000334524
0.017241
0.000304694
0.0149588
0.000209234
0.0117813
0.00465634
-2.92351e-05
-1.78678e-05
-0.00112706
0.00111846
-7.56285e-06
-3.60116e-06
-1.35165e-06
9.65872e-06
-0.00024804
0.000266569
7.08282e-06
-0.000198051
2.37214e-05
-0.000173538
4.65604e-05
0.000110611
-6.51666e-05
0.00819224
-0.00743351
0.0104843
-0.00803717
0.011227
-0.00781142
0.0121793
-0.00834
0.0136399
-0.00691766
0.0149091
-0.00499055
0.0158355
-0.00348596
0.0165339
-0.00238783
0.0171205
-0.00158613
0.017647
-0.000976695
0.0181431
-0.000478402
0.0185827
-7.6811e-05
0.0188128
0.000203928
0.0184956
0.000311674
0.017234
0.000278456
0.0148896
0.000178898
0.011713
0.00462669
-1.5605e-05
-1.99145e-05
-0.00110659
0.00108769
-5.94265e-06
-4.39427e-06
-3.16097e-06
-2.83304e-06
-0.000272019
0.000266543
-2.08694e-06
-0.000274024
-1.59558e-06
-0.000274618
-7.57739e-07
1.60895e-06
-7.02818e-05
7.73646e-05
-4.65604e-05
4.74456e-06
4.83173e-05
0.00813918
-0.00790812
0.0104936
-0.00878871
0.0112359
-0.00880477
0.0122204
-0.00996611
0.0138055
-0.00835976
0.015082
-0.00603783
0.0159564
-0.00424928
0.0165988
-0.00298001
0.017126
-0.00206493
0.0175993
-0.00138696
0.0180572
-0.000845088
0.0185098
-0.00039564
0.0189015
-3.50431e-05
0.0190517
0.000194172
0.0186131
0.000272074
0.0172404
0.000232787
0.0148357
9.26756e-05
0.0116251
0.00464899
3.23972e-05
-6.37293e-06
-0.00107205
0.00106395
-4.0412e-06
-3.46233e-06
-1.7851e-06
-2.48838e-06
-0.000258506
0.000254274
-1.70982e-06
-0.000261519
-1.38101e-06
-0.00026387
-8.10597e-07
-1.60596e-07
-7.66202e-05
7.45333e-05
-7.82158e-05
-7.89736e-05
-0.000103098
0.000215303
0.00802697
-0.008389
0.0105009
-0.00953151
0.0112365
-0.0098409
0.012272
-0.0117775
0.0140318
-0.00987841
0.0153241
-0.00710023
0.0161444
-0.0050131
0.0167202
-0.00356837
0.0171872
-0.00254278
0.0176039
-0.001796
0.0180083
-0.0012133
0.0184254
-0.000735278
0.0188494
-0.000336104
0.0192026
-2.88787e-05
0.0192748
0.000158638
0.0187266
0.000221616
0.0172516
0.000159001
0.0147694
1.61782e-05
0.0115058
0.00461596
0.00015458
9.37558e-05
-0.00105965
0.00108871
4.56819e-06
-1.23075e-06
7.52266e-08
-2.14334e-06
-0.000248013
0.000245302
-1.3294e-06
-0.000250388
-1.08696e-06
-0.000251692
-4.80505e-07
9.32578e-08
-7.2181e-05
7.04712e-05
-7.35621e-05
-7.43727e-05
-0.000114073
0.000203669
0.00793739
-0.00886848
0.0105035
-0.0102535
0.0112228
-0.0109522
0.0123478
-0.0138433
0.0143377
-0.011497
0.0156504
-0.00818441
0.0164083
-0.00577905
0.0169103
-0.00415342
0.0173053
-0.00301559
0.01766
-0.00219878
0.0180067
-0.00158069
0.0183757
-0.00108256
0.0187727
-0.000663608
0.019177
-0.000315019
0.0194887
-5.10751e-05
0.0194845
0.000110917
0.0188373
0.000153245
0.0172573
9.34805e-05
0.0146921
-1.50652e-05
0.0114068
0.00459811
6.03384e-05
0.000161179
-0.00112779
0.00115189
7.0008e-05
6.04701e-05
3.91992e-05
1.54763e-05
-0.000242759
0.000247093
2.34358e-07
-0.000243309
-6.81424e-07
-0.00024299
-2.42834e-07
1.68148e-07
-6.89971e-05
6.76677e-05
-7.0084e-05
-7.05645e-05
-3.25508e-05
4.61569e-05
0.0079238
-0.00934203
0.0105045
-0.0109488
0.0111989
-0.012182
0.0124526
-0.016231
0.0147355
-0.0132232
0.0160639
-0.00928693
0.0167529
-0.00654219
0.0171714
-0.00473114
0.017488
-0.00348253
0.0177722
-0.00259899
0.0180602
-0.00194457
0.0183705
-0.00142649
0.0187196
-0.000996938
0.0191061
-0.000630712
0.0194927
-0.000326315
0.019764
-9.0678e-05
0.0196861
5.2009e-05
0.0189385
9.05943e-05
0.0172602
4.47709e-05
0.0146322
3.5691e-06
0.0113707
0.00463345
-1.49823e-05
2.58029e-05
-0.00119327
0.00122597
4.27972e-06
2.33532e-05
4.09225e-05
7.88787e-05
-0.000296918
0.000313053
5.38725e-05
-0.000277756
4.13086e-05
-0.000256493
1.79362e-05
6.07653e-06
-6.69116e-05
6.7146e-05
-6.7593e-05
-6.78359e-05
2.49864e-05
-2.84321e-05
0.00792726
-0.00980356
0.0105046
-0.0116118
0.0111675
-0.0135719
0.0125889
-0.0189854
0.0152071
-0.0150137
0.0165259
-0.0103608
0.0171377
-0.0072729
0.0174836
-0.00528785
0.0177281
-0.00393798
0.0179435
-0.00299495
0.0181682
-0.00230662
0.0184223
-0.0017706
0.0187147
-0.00133236
0.019055
-0.000958158
0.0194335
-0.000633845
0.0198002
-0.0003557
0.020029
-0.000141206
0.0198793
-8.20892e-06
0.0190373
3.20304e-05
0.017273
2.10585e-05
0.0146148
2.22801e-05
0.0113734
0.00463484
-2.16248e-05
-8.18641e-06
-0.00124652
0.00124214
-7.32016e-06
-3.2865e-06
-1.01484e-06
6.2738e-06
-0.00037104
0.000373552
1.76828e-06
-0.000357086
9.40023e-06
-0.000340152
2.39886e-05
5.17804e-05
-0.000132467
0.000151071
3.52692e-05
-9.11587e-05
-7.32225e-05
2.77179e-05
-3.74329e-05
0.00793698
-0.0102509
0.0105073
-0.0122332
0.0111259
-0.0151235
0.0127191
-0.0220596
0.015663
-0.0167179
0.0169113
-0.0112827
0.0174478
-0.00788838
0.0177532
-0.00577161
0.0179674
-0.00435659
0.0181467
-0.00337602
0.0183245
-0.00266322
0.0185248
-0.00211322
0.0187649
-0.00166601
0.0190483
-0.00128606
0.0193829
-0.000954256
0.0197539
-0.000658539
0.020103
-0.000401946
0.0202898
-0.000198847
0.02007
-7.31816e-05
0.0191426
-1.8886e-05
0.0173129
2.43538e-06
0.0146346
7.26078e-06
0.0113939
0.00462788
-1.71768e-05
-1.32936e-05
-0.00123706
0.00122634
-9.01595e-06
-1.89409e-06
-1.74587e-06
-1.35078e-06
-0.000376113
0.000372522
-3.7285e-06
-0.000376795
-2.6036e-06
-0.000377263
-5.471e-07
2.56343e-06
-0.000211232
0.000213367
-3.66181e-07
-0.000203276
1.44504e-06
-0.000185227
5.93929e-06
1.76244e-05
3.52692e-05
-2.0135e-05
-2.78802e-06
0.00795991
-0.0106882
0.0105053
-0.0127977
0.0110718
-0.0167437
0.0127462
-0.0252496
0.0159091
-0.0180189
0.0169641
-0.0118041
0.0174327
-0.00821722
0.0177767
-0.00607507
0.0180567
-0.0046715
0.0182823
-0.00370379
0.0184745
-0.0029958
0.0186571
-0.00244632
0.0188579
-0.00199762
0.0190965
-0.00161604
0.0193783
-0.00128237
0.0197111
-0.000978231
0.0200736
-0.000699732
0.0204008
-0.000455098
0.020546
-0.000262467
0.0202593
-0.000136345
0.01926
-6.38285e-05
0.0173792
-3.51447e-05
0.014677
-4.83132e-05
0.0114221
0.00464198
-4.12814e-06
-1.27515e-05
-0.00122282
0.00121497
-9.32524e-06
-9.7694e-06
-0.000366936
0.000338097
1.9824e-05
-0.000369797
9.67611e-07
-0.000371001
-5.40573e-07
1.7089e-07
-0.000213226
0.000210763
-1.26471e-06
-0.000215082
-7.47323e-07
-0.000215366
-2.62669e-07
5.64506e-07
-6.0278e-05
5.99119e-05
-5.8833e-05
-5.28936e-05
-0.000113814
8.58697e-05
0.00798786
-0.0110961
0.0104499
-0.0132605
0.0109681
-0.0181781
0.0125062
-0.028158
0.0156546
-0.0183666
0.0162567
-0.0115241
0.0166841
-0.0079883
0.0172038
-0.00601515
0.0177167
-0.00476608
0.0181513
-0.00390666
0.0184852
-0.00326419
0.0187429
-0.00274992
0.0189607
-0.00231716
0.0191774
-0.00194257
0.019423
-0.0016094
0.0197053
-0.00130386
0.0200367
-0.00101909
0.020393
-0.000754607
0.0207003
-0.000519784
0.0208033
-0.000331581
0.0204545
-0.000196359
0.0193925
-0.000117236
0.0174613
-9.36204e-05
0.0147223
-0.000132081
0.0114403
0.00469509
3.16903e-05
1.07355e-06
-0.00120608
0.00120716
-5.20995e-06
-3.85369e-06
-0.000560775
0.000552765
-7.01161e-07
-6.12076e-07
-0.000232807
2.14601e-07
1.46149e-07
-0.000211037
-1.94539e-06
-0.000210237
1.69002e-07
-0.000210636
-1.41513e-07
2.98256e-07
-5.94665e-05
5.82019e-05
-6.02138e-05
-6.04764e-05
-0.000221348
0.000230867
0.00797835
-0.0113963
0.0102572
-0.0136111
0.0108005
-0.0190982
0.0118882
-0.0300141
0.0143623
-0.0169243
0.0142124
-0.00995519
0.0146878
-0.00689257
0.0155884
-0.00538341
0.0165721
-0.00448997
0.0174406
-0.00387336
0.018118
-0.00338882
0.0186098
-0.0029713
0.0189643
-0.00259534
0.0192389
-0.00225195
0.0194868
-0.00193139
0.019745
-0.00163083
0.0200323
-0.00134573
0.0203633
-0.0010722
0.0207106
-0.000816019
0.0209966
-0.00058748
0.0210592
-0.000399135
0.0206573
-0.000259498
0.0195348
-0.000179788
0.0175475
-0.000168413
0.0147587
-0.000211758
0.0114307
0.00472578
0.000134423
6.57586e-05
-0.00120681
0.00123034
8.16628e-06
1.4218e-06
-0.000549107
0.000545009
-5.53107e-07
-5.57547e-07
-1.39217e-07
-5.65258e-08
-5.63313e-05
5.56302e-05
-5.69433e-05
5.67972e-05
-5.65824e-05
-5.85277e-05
-5.83587e-05
-5.85001e-05
-0.000251009
0.000273582
0.00795579
-0.0115553
0.010019
-0.01361
0.00520843
0.00504765
-0.00877981
0.0056867
0.00534492
-0.0105495
-0.0153992
0.00629247
-0.0142766
0.00525749
-0.00849751
0.0102861
-0.00435055
-0.00678594
0.0110431
-0.00479259
0.0125878
-0.00406796
0.0142729
-0.00372527
0.0158074
-0.00349281
0.0170601
-0.00327553
0.0180047
-0.00303927
0.0186778
-0.00278264
0.0191516
-0.00251231
0.0194993
-0.0022322
0.0197876
-0.0019516
0.0200658
-0.00167351
0.0203601
-0.00140037
0.0206915
-0.00113563
0.0210302
-0.000885425
0.0212945
-0.000658606
0.0213187
-0.000465261
0.0208631
-0.00032396
0.019679
-0.00024839
0.0176275
-0.00023303
0.0147799
-0.000239214
0.011419
0.00472586
0.000118285
0.000155225
-0.00125636
0.00128949
0.000101299
3.97396e-05
-0.000546454
0.000555292
-1.30436e-07
-5.399e-07
-1.2991e-07
1.0747e-07
-5.4877e-05
5.43239e-05
-5.54345e-05
5.5491e-05
-0.000182695
0.000152069
0.00798643
-0.0115942
0.0098539
-0.0131818
0.00492864
0.00466211
-0.00849335
0.00492198
-0.00821185
0.00476613
-0.0157827
0.00607018
-0.0156431
0.00245565
0.0027496
-0.00989472
0.00426721
-0.00701115
0.00480611
-0.00782619
0.00219452
0.00258146
-0.00515621
-0.00301213
-0.00140985
0.0011259
0.00154241
-0.00143832
0.00593755
-0.000999109
-0.00123725
0.002588
-0.00089519
-0.00208767
0.00833819
-0.00227405
0.0107939
-0.00253424
0.0130819
-0.00273871
0.0150533
-0.00285313
0.0166377
-0.00287194
0.0178373
-0.00280673
0.0187019
-0.00266767
0.019307
-0.00247258
0.0197397
-0.00224211
0.0200781
-0.00199036
0.0203826
-0.00173008
0.0206898
-0.0014661
0.021022
-0.00120643
0.0213512
-0.000956362
0.0215923
-0.0007256
0.0215791
-0.000531024
0.0210701
-0.000390386
0.019821
-0.000306844
0.0177013
-0.000261684
0.0148024
-0.000206942
0.0114432
0.00479159
1.53608e-05
7.09842e-05
-0.00131143
0.00134725
8.24619e-05
0.000133286
-0.000590009
0.000642605
3.5399e-05
1.33055e-05
6.30458e-07
4.3937e-06
-5.37617e-05
5.36314e-05
-5.43015e-05
5.41941e-05
-9.56705e-05
4.78215e-05
0.00803428
-0.0116184
0.00988816
-0.0123155
0.00453463
0.00445299
-0.00797672
0.00469352
-0.00743806
0.00412343
-0.00961379
0.00233171
0.00215352
-0.00654964
0.00105326
0.00170868
-0.00758816
0.00733798
-0.00777713
0.00289481
0.0022614
-0.00258146
0.00176385
-0.00289481
0.000354003
0.000781574
-0.000229491
0.000573821
0.00108673
0.00158029
-0.000430606
-2.15479e-05
0.0038418
2.96363e-05
0.000929992
-0.000348816
-0.000393008
0.000584545
-0.000655062
0.00671921
-0.00125162
0.00951126
-0.00175695
0.0121001
-0.00215457
0.0143547
-0.00243987
0.0162056
-0.00260485
0.0176355
-0.0026537
0.0186879
-0.00259952
0.0194339
-0.00246417
0.0199617
-0.00227131
0.0203591
-0.00204351
0.0206961
-0.00179411
0.0210178
-0.00153493
0.0213505
-0.00127644
0.0216713
-0.00102513
0.0218918
-0.000791872
0.0218399
-0.000595091
0.0212748
-0.000443936
0.0199581
-0.000339207
0.0177788
-0.000254272
0.0148497
-0.000148294
0.0114958
0.0048373
-9.85361e-06
1.19671e-05
-0.00138319
0.0013929
5.65792e-06
3.50456e-05
-0.00068216
0.000737242
5.57145e-06
2.18102e-05
5.04192e-05
4.33134e-05
-7.19612e-05
0.00010736
-5.86556e-05
5.42619e-05
-3.54492e-05
-2.41348e-06
0.00807215
-0.0116699
0.00999353
-0.0114381
0.00444324
0.00456756
-0.00686756
0.00396415
-0.00619314
0.00377857
-0.00921736
0.0023123
0.00198478
-0.00809398
0.00139198
0.00160809
0.00617722
-0.00589245
0.00204694
0.00178109
0.00606845
-0.0050152
-0.00671947
0.000912407
0.000124512
0.000290734
-0.000109921
0.00043024
-5.20978e-06
1.96418e-05
0.000775616
0.000132829
1.59023e-05
0.00317084
0.000685871
0.000119385
0.000160802
-5.388e-05
-2.54986e-05
-0.00036415
0.00583175
-0.000857441
0.00861175
-0.00135326
0.0112988
-0.0018095
0.0137243
-0.00217675
0.0157775
-0.00243014
0.0174119
-0.00255594
0.0186444
-0.00256395
0.0195337
-0.00247569
0.0201661
-0.00231362
0.0206292
-0.00210156
0.0210035
-0.00186285
0.0213457
-0.00160755
0.0216816
-0.00134703
0.0219932
-0.00109106
0.022191
-0.00085336
0.0220982
-0.000646704
0.0214776
-0.000480784
0.0200997
-0.000348703
0.0178732
-0.00022454
0.014926
-9.7495e-05
0.0115579
0.00485136
-1.30287e-05
-3.4476e-06
-0.00140253
0.00139909
-6.40619e-06
2.33599e-06
-0.000767225
0.000775069
-2.20273e-06
1.79435e-08
4.99526e-06
6.79372e-08
-0.000173801
0.000178435
9.37986e-07
-0.000156867
4.87611e-06
0.000128591
2.91892e-05
1.50377e-05
-4.95055e-06
-2.29309e-05
0.00810005
-0.0116981
0.0100062
-0.0105677
0.00912317
-0.00553494
0.00378505
-0.00482007
0.00385267
-0.00673269
0.00131785
0.001285
-0.00541576
0.00121591
0.00124571
-0.00579572
0.00221557
-0.00546699
0.00165605
0.00486566
-0.00422704
0.000753362
0.00100675
-0.00627105
0.00159852
-0.00410279
1.45907e-05
9.38085e-06
2.90226e-05
0.000224967
2.42495e-05
4.44154e-05
-0.000316635
2.81489e-05
0.000958321
3.1941e-05
-4.94705e-05
0.00285617
2.77504e-06
2.49428e-05
-9.41708e-06
-2.34412e-05
-2.1022e-05
-5.89326e-06
-0.000299862
0.00527417
-0.000684266
0.00794277
-0.0011438
0.0106331
-0.00160618
0.0131538
-0.00201164
0.015359
-0.00231352
0.0171695
-0.00249259
0.018573
-0.00254903
0.019607
-0.00249708
0.0203496
-0.0023621
0.0208898
-0.00216668
0.0213074
-0.00193191
0.0216701
-0.00167789
0.0220125
-0.00141352
0.0223156
-0.00115129
0.022489
-0.000906466
0.0223579
-0.000688282
0.0216851
-0.000503347
0.0202543
-0.000339911
0.0179886
-0.000190081
0.0150186
-6.74807e-05
0.0116204
0.00485048
-1.30323e-05
-9.00836e-06
-0.00139824
0.00139282
-7.60335e-06
-2.60139e-06
-0.000777858
0.000774616
-2.04449e-06
-1.11891e-06
4.07873e-07
-8.59096e-07
-0.000182873
0.000181455
-7.84039e-07
-0.000182689
-1.6596e-07
0.000182617
8.13975e-07
-3.64955e-09
-4.9103e-05
5.00411e-05
-4.42269e-05
2.91892e-05
2.15038e-06
-2.7622e-05
0.00812554
-0.0117344
0.0100284
-0.00978562
0.00922402
0.002861
-0.00490636
0.00304531
0.00330316
-0.00396372
0.00115949
0.0011735
0.0014571
0.00129286
-0.00360598
0.000696784
-0.00298759
0.000666615
0.00237353
-0.00175504
0.000597426
0.000631645
-0.00655975
0.00250427
-0.0049037
0.00389695
-0.00314358
-0.00250427
-1.02168e-05
1.10253e-05
2.39541e-05
1.0245e-05
7.23941e-05
-3.85796e-05
-1.15719e-05
2.60213e-06
3.30473e-06
1.51941e-05
0.000909942
-1.62805e-05
9.81519e-05
2.28889e-06
3.89483e-06
-6.98348e-05
0.00262615
-3.93783e-05
3.57475e-06
9.51927e-06
5.89326e-06
-2.69153e-05
-0.000271017
0.00486094
-0.000609809
0.00740879
-0.00103655
0.0100635
-0.00149024
0.0126324
-0.00190562
0.0149511
-0.00223642
0.0169133
-0.00245206
0.018476
-0.00254448
0.0196544
-0.00252473
0.0205122
-0.0024097
0.0211328
-0.00222694
0.0216024
-0.00199911
0.0219913
-0.00174115
0.0223401
-0.00147296
0.0226373
-0.00120581
0.0227883
-0.00094937
0.022619
-0.00071687
0.0218986
-0.000508504
0.0204229
-0.000322769
0.0181213
-0.000165883
0.015117
-5.9026e-05
0.0116816
0.00484681
-1.175e-05
-1.21796e-05
-0.0013878
0.00138273
-7.95477e-06
-3.98979e-06
-0.00077251
0.00076776
-1.71638e-06
-1.13541e-06
6.64217e-08
-5.61109e-07
-0.000180146
0.000178841
-7.39121e-07
-0.000181009
-2.55421e-07
0.000181685
1.78105e-07
-1.82272e-07
-5.06855e-05
4.99016e-05
-5.08515e-05
5.08551e-05
-1.3224e-05
-1.74776e-05
0.00815625
-0.0117953
0.0100618
-0.00919144
0.00943423
-0.00347194
0.00778958
0.00344725
-0.000507799
-0.00155779
0.000897432
0.000766205
0.00417268
0.00257772
-0.0011567
0.000561147
-0.000540343
0.000557144
4.15169e-06
0.000945146
0.000756669
-0.0024468
-0.00178019
0.00114854
-0.000551116
-1.589e-05
-5.64497e-06
-5.39451e-06
-2.60202e-06
-1.5196e-06
4.12178e-06
1.78513e-06
0.000107877
5.10177e-06
3.68635e-07
4.07663e-06
0.000858872
-2.28363e-05
0.000105127
-5.13344e-06
-8.39537e-06
4.07405e-06
8.45436e-06
-4.85283e-07
-8.03827e-05
0.00243553
-1.51978e-06
-0.000273637
0.00452478
-0.000586137
0.00695838
-0.000986771
0.00956004
-0.00142018
0.0121469
-0.00183605
0.0145508
-0.00218251
0.0166438
-0.00242457
0.0183561
-0.00254763
0.0196773
-0.00255203
0.0206545
-0.00245741
0.0213632
-0.00228541
0.0218887
-0.00205832
0.0223085
-0.00180061
0.0226678
-0.00152528
0.0229568
-0.00124735
0.0230863
-0.000981809
0.022884
-0.000731273
0.0221214
-0.000504694
0.0206048
-0.000308538
0.018264
-0.000159063
0.015217
-7.31609e-05
0.0117416
0.004851
-8.04195e-06
-1.36185e-05
-0.00137545
0.0013717
-7.9934e-06
-4.89087e-06
-0.000764357
0.000759233
-1.61981e-06
-1.20681e-06
-8.81434e-08
-4.97349e-07
-0.000177359
0.000176296
-6.52925e-07
-0.000178283
-2.11667e-07
0.000178724
1.84062e-07
-1.20075e-07
-4.96421e-05
4.89031e-05
-4.98975e-05
5.00797e-05
-5.23981e-05
1.54047e-05
0.00819326
-0.0118862
0.0100989
-0.00877553
0.00964591
-0.00290941
0.00887172
-0.00338677
0.00823216
0.00318696
0.00392989
-0.00132384
0.000711185
-0.00147739
0.00237482
-0.000711185
0.000910831
0.000654937
1.00268e-05
0.000567168
1.51978e-06
1.22293e-05
1.32734e-06
1.30724e-05
-4.7384e-07
0.00010387
5.26828e-06
6.60102e-08
-2.45275e-06
0.000807005
-2.60512e-05
0.000104582
-2.35454e-05
1.07819e-05
-2.84261e-06
8.28969e-06
-5.90265e-06
-4.85266e-07
-0.000108612
0.00227052
-0.000295092
0.00423374
-0.00058841
0.00656002
-0.000960174
0.00910003
-0.00137828
0.0116892
-0.00178936
0.0141576
-0.00214385
0.0163631
-0.00240412
0.0182126
-0.00254977
0.0196751
-0.00257753
0.0207747
-0.00249857
0.0215764
-0.00233594
0.0221664
-0.00211276
0.0226206
-0.0018511
0.0229936
-0.00156995
0.0232794
-0.00128283
0.0233873
-0.00100164
0.0231543
-0.000737517
0.0223542
-0.000498134
0.0207944
-0.000301956
0.0184069
-0.000167422
0.0153113
-0.000105788
0.0117949
0.00487489
3.01683e-06
-1.15019e-05
-0.00136331
0.0013625
-7.22251e-06
-5.23374e-06
-0.000755122
0.000749995
-1.56124e-06
-1.30086e-06
-2.54935e-07
-5.2202e-07
-0.000174681
0.00017369
-6.27206e-07
-0.000175671
-2.16175e-07
0.000176049
1.60298e-07
-1.19085e-07
-4.87555e-05
4.81026e-05
-4.89671e-05
4.90872e-05
-0.000117978
8.7455e-05
0.00822378
-0.0120048
0.0101316
-0.00851151
0.00983487
-0.00276576
0.00950224
0.00734309
0.00976078
0.00185911
-0.000540398
0.00227026
-0.000402012
0.00222585
0.00356315
-0.000388953
0.000759386
0.000265984
8.42106e-07
3.68279e-07
8.94838e-06
4.61054e-06
8.49612e-06
5.18755e-07
0.000100258
1.87498e-06
-1.50717e-05
0.00074961
-3.61354e-05
9.5498e-05
-2.12867e-05
4.39456e-07
-1.05582e-05
-3.14885e-06
-1.78039e-06
-2.4743e-06
-8.37683e-06
-0.000144269
0.0021197
-0.000325227
0.00397056
-0.000595891
0.00619574
-0.000950918
0.00867267
-0.00135097
0.0112508
-0.00175334
0.0137671
-0.00211162
0.0160706
-0.00238586
0.0180487
-0.00254922
0.0196468
-0.00259501
0.0208711
-0.00253312
0.0217736
-0.00237812
0.0224317
-0.00215732
0.0229268
-0.00189179
0.0233155
-0.00160258
0.0235991
-0.00130619
0.0236919
-0.00101313
0.02343
-0.000736031
0.0225921
-0.000493016
0.0209855
-0.000303999
0.0185434
-0.000187359
0.0153928
-0.000151325
0.0118283
0.00492
3.86781e-05
3.67113e-06
-0.00135523
0.00136176
-3.51435e-06
-4.22576e-06
-0.000745713
0.00074135
-1.46681e-06
-1.39003e-06
-4.19635e-07
-5.29901e-07
-0.000171861
0.000170916
-6.1525e-07
-0.00017293
-2.3054e-07
0.000173313
1.23025e-07
-1.37435e-07
-4.79279e-05
4.73009e-05
-4.81439e-05
4.8263e-05
-0.000183416
0.000193069
0.00821414
-0.0121511
0.0101623
-0.0083683
0.00998838
-0.00281844
0.00988757
0.00596412
0.0108812
-0.00161753
0.00479353
0.00881062
0.00103755
0.0016584
-0.000180095
-0.000245594
-0.00014119
0.000498565
0.00298317
0.000124794
-2.14906e-06
-1.61663e-06
-1.19053e-06
-5.95166e-06
-2.11022e-06
-6.18889e-07
8.85796e-05
-8.14974e-06
-2.5532e-05
0.000694102
-6.32243e-05
7.97649e-05
-2.7316e-05
-1.5158e-05
-6.61669e-06
-5.46106e-06
4.58752e-06
-7.73626e-06
2.80715e-06
-0.000180588
0.00197506
-0.000345865
0.00372053
-0.000610037
0.00585486
-0.000947174
0.00826888
-0.00133196
0.0108294
-0.0017253
0.0133808
-0.00208292
0.0157676
-0.00236633
0.0178659
-0.00254507
0.0195968
-0.00260702
0.020945
-0.0025563
0.0219518
-0.0024095
0.0226839
-0.00219075
0.0232258
-0.00192368
0.0236366
-0.00162692
0.0239199
-0.00131856
0.0239973
-0.00101418
0.0237081
-0.000730018
0.0228291
-0.000487557
0.021169
-0.000309019
0.0186651
-0.000208705
0.0154502
-0.000180904
0.0118258
0.00493187
0.000118299
6.29064e-05
-0.00136225
0.00138613
1.47954e-05
3.18027e-06
-0.000738164
0.000737268
-1.13071e-06
-1.48556e-06
-5.93529e-07
-4.44539e-07
-0.000168894
0.000168032
-6.04073e-07
-0.000170037
-2.45962e-07
0.00017041
8.77347e-08
-1.56862e-07
-4.70563e-05
4.64413e-05
-4.72867e-05
4.74241e-05
-0.000179163
0.000212825
0.00818048
-0.0123183
0.0101852
-0.00831523
0.0101093
-0.00297389
0.0101438
0.00456027
0.0112914
0.00476131
0.0109134
-0.000940625
0.00283555
0.00751552
-0.000599808
0.000462784
-5.38852e-05
0.00126573
-1.62249e-05
-0.000377765
0.000197669
-0.000124794
0.00250533
-1.61662e-06
-9.84635e-06
-7.62037e-06
-2.84417e-06
-1.95498e-05
-7.16372e-07
-3.03935e-06
6.78478e-05
-1.36128e-05
-0.000118875
0.000632388
4.02329e-05
-3.56065e-05
-2.84674e-05
-9.62086e-06
-8.77643e-06
1.06068e-05
-1.4842e-05
-2.38054e-06
-2.47384e-06
-0.000196089
0.00182529
-0.000371485
0.00348199
-0.000622215
0.00552992
-0.000946044
0.00788297
-0.00131605
0.0104202
-0.00169798
0.0129959
-0.00205449
0.0154558
-0.00234139
0.0176622
-0.00253199
0.0195218
-0.00260797
0.0209967
-0.0025695
0.0221118
-0.0024319
0.0229251
-0.00221525
0.0235174
-0.00194385
0.0239535
-0.00163989
0.0242412
-0.00132141
0.0243045
-0.00100796
0.023986
-0.000720067
0.0230617
-0.000481101
0.0213411
-0.000309569
0.018766
-0.00021073
0.0154801
-0.000158456
0.0118051
0.00491103
0.000101703
0.000131967
-0.00140301
0.0014261
9.52174e-05
4.60301e-05
-0.000740825
0.000755231
1.45034e-06
-1.06047e-06
-6.63924e-07
2.86405e-07
-0.000165891
0.00016533
-5.69103e-07
-0.000167116
-2.59764e-07
0.00016739
4.95173e-08
-1.69714e-07
-4.61264e-05
4.55225e-05
-4.63723e-05
4.65292e-05
-8.66522e-05
9.51941e-05
0.00817196
-0.0125026
0.0102022
-0.00832318
0.0101931
-0.0031818
0.0103172
0.00329715
0.0114069
0.00421269
0.01184
0.0034022
0.0103468
0.00161459
0.00641739
-0.000227677
-0.000288787
-0.000242289
0.00214781
0.000143784
0.00104371
-8.6076e-06
-1.16562e-05
0.000127559
-2.84414e-06
-1.58072e-05
2.49487e-07
-1.66711e-05
-2.17464e-06
-3.15e-05
-4.37882e-06
-6.19858e-06
3.66383e-05
-1.29821e-05
-7.64647e-05
-2.58363e-05
-0.000112534
0.000548832
-3.04658e-05
1.93257e-05
-2.24246e-05
-6.52117e-06
-6.12101e-06
5.31797e-06
-7.69843e-06
-0.00022145
0.00167526
-0.00038871
0.0032485
-0.000634493
0.00521837
-0.000943381
0.00751031
-0.00129873
0.0100209
-0.00167125
0.0126126
-0.00202142
0.0151358
-0.00231273
0.0174429
-0.0025125
0.0194263
-0.00260063
0.0210278
-0.00257396
0.0222539
-0.00244248
0.0231523
-0.00222691
0.0238004
-0.00195211
0.0242657
-0.0016405
0.0245603
-0.00131417
0.0246108
-0.000995078
0.0242611
-0.000704392
0.023285
-0.00046465
0.0214962
-0.000290451
0.0188457
-0.00017361
0.0154952
-7.70604e-05
0.0117955
0.00493178
1.05237e-05
6.39282e-05
-0.00143815
0.00145784
8.20063e-05
0.000119917
-0.000785249
0.000816342
4.16449e-05
2.24816e-05
3.45656e-06
1.25578e-05
-0.000164145
0.000165797
-2.02011e-07
-0.000165023
-1.83135e-07
0.000164633
3.29557e-08
-1.03715e-07
-4.51428e-05
4.45738e-05
-4.54024e-05
4.55721e-05
3.31324e-05
-2.50242e-05
0.00816386
-0.0126955
0.010211
-0.00836368
0.0102427
-0.0034094
0.0104207
0.00221695
0.0113974
0.0034855
0.0121341
0.00335768
0.0118846
0.00242507
0.00953628
0.00115518
0.00584037
-0.000304276
-0.000273885
-0.00194339