/*--------------------------------*- C++ -*----------------------------------*\
| =========                 |                                                 |
| \\      /  F ield         | OpenFOAM: The Open Source CFD Toolbox           |
|  \\    /   O peration     | Version:  v1912                                 |
|   \\  /    A nd           | Website:  www.openfoam.com                      |
|    \\/     M anipulation  |                                                 |
\*---------------------------------------------------------------------------*/
FoamFile
{
    version     2.0;
    format      ascii;
    class       volVectorField;
    location    "230";
    object      U;
}
// * * * * * * * * * * * * * * * * * * * * * * * * * * * * * * * * * * * * * //

dimensions      [0 1 -1 0 0 0 0];


internalField   nonuniform List<vector> 
3753
(
(0.440301 -0.0538299 -7.69137e-21)
(0.790273 -0.0841597 2.13926e-20)
(0.121613 -0.0462945 -9.73446e-21)
(0.927939 -0.0767429 1.15454e-20)
(0.44029 -0.104451 1.08408e-20)
(0.0873144 -0.0395039 0)
(0.977369 -0.0639433 -2.68556e-20)
(0.688832 -0.139927 1.73837e-24)
(0.294898 -0.111443 -1.16295e-24)
(0.0895229 -0.0391161 0)
(0.991507 -0.0551493 -1.08742e-24)
(0.841741 -0.154108 -2.9134e-20)
(0.515116 -0.169448 3.51777e-25)
(0.269352 -0.116026 0)
(0.0966087 -0.0398256 -1.85481e-20)
(0.9938 -0.0494802 -5.94199e-20)
(0.921699 -0.156113 2.7733e-20)
(0.69809 -0.209432 -3.5728e-20)
(0.454211 -0.185568 -3.49391e-20)
(0.276862 -0.116577 0)
(0.0958801 -0.0394766 -1.18399e-20)
(0.993302 -0.0451843 1.29916e-19)
(0.957792 -0.152553 0)
(0.822598 -0.23239 7.84972e-20)
(0.626994 -0.24249 3.20415e-20)
(0.449237 -0.186921 -3.44737e-24)
(0.277468 -0.114652 1.50415e-20)
(0.0940003 -0.0390663 -1.40366e-20)
(0.992706 -0.0414036 -7.06687e-20)
(0.971392 -0.146777 -6.64042e-20)
(0.894584 -0.243072 -4.35724e-20)
(0.764226 -0.284131 -4.33045e-20)
(0.610787 -0.24816 0)
(0.447861 -0.183306 1.50616e-20)
(0.273926 -0.113496 9.1208e-21)
(0.0930841 -0.0385983 0)
(0.992482 -0.037675 -9.91593e-24)
(0.974808 -0.140095 6.64643e-20)
(0.930074 -0.246418 0)
(0.857221 -0.312095 4.17136e-20)
(0.748962 -0.297158 -3.71184e-24)
(0.604461 -0.243978 -1.37795e-20)
(0.443347 -0.181367 -1.50596e-24)
(0.271244 -0.112227 3.75464e-21)
(0.0914808 -0.0379076 0)
(0.992529 -0.0336896 9.90649e-20)
(0.973954 -0.132695 -9.40115e-20)
(0.943827 -0.245862 -1.0174e-23)
(0.911949 -0.330601 6.52566e-20)
(0.853436 -0.333235 6.33731e-24)
(0.740795 -0.294361 0)
(0.598028 -0.241506 0)
(0.439531 -0.179417 8.09422e-22)
(0.267784 -0.110343 3.39711e-26)
(0.0893529 -0.037127 0)
(0.992703 -0.0292494 7.26879e-21)
(0.971191 -0.124257 2.02106e-19)
(0.945496 -0.243189 1.09321e-19)
(0.939942 -0.344149 1.57418e-20)
(0.924147 -0.358694 0)
(0.849353 -0.333163 -2.13518e-24)
(0.732926 -0.292234 -8.49214e-25)
(0.593448 -0.239092 -8.20205e-21)
(0.435059 -0.176709 -1.32338e-25)
(0.263172 -0.108298 -7.16934e-21)
(0.0872806 -0.0363424 9.58075e-21)
(0.99294 -0.0242265 -1.07568e-19)
(0.967264 -0.114263 -1.07954e-19)
(0.940046 -0.238976 -1.10604e-19)
(0.951446 -0.356205 -1.73652e-19)
(0.968754 -0.377253 -4.46068e-24)
(0.928027 -0.361404 0)
(0.842698 -0.332326 0)
(0.728063 -0.289839 4.07994e-21)
(0.588651 -0.235864 8.37369e-22)
(0.429239 -0.173881 6.36392e-22)
(0.258302 -0.106271 -1.18007e-20)
(0.0852853 -0.0355668 1.21573e-20)
(0.993261 -0.0185433 0)
(0.962337 -0.102103 0)
(0.929414 -0.23306 -6.84252e-23)
(0.952818 -0.368952 2.06178e-19)
(0.996577 -0.392328 2.74937e-20)
(0.981382 -0.381818 4.45012e-24)
(0.925064 -0.362175 -1.75671e-24)
(0.838935 -0.330528 -5.04264e-25)
(0.723546 -0.286466 -2.68443e-22)
(0.582548 -0.232592 5.18806e-21)
(0.422852 -0.171097 -9.20767e-21)
(0.25346 -0.104251 -1.48922e-20)
(0.0833615 -0.0348265 0)
(0.993752 -0.0121669 0)
(0.956435 -0.0870937 1.4309e-19)
(0.914014 -0.224918 1.80709e-19)
(0.947047 -0.383602 -1.09626e-19)
(1.01462 -0.406184 -2.67842e-20)
(1.01687 -0.397342 2.02674e-24)
(0.982712 -0.383694 1.77851e-24)
(0.923918 -0.3612 1.76022e-24)
(0.835531 -0.327422 -1.16469e-22)
(0.717859 -0.283053 4.09097e-21)
(0.575724 -0.229416 8.3096e-21)
(0.416294 -0.168311 1.62212e-24)
(0.248703 -0.102311 1.67269e-20)
(0.0815529 -0.0341201 -4.02238e-24)
(0.994534 -0.00512763 6.20274e-20)
(0.949607 -0.0685237 -6.6725e-20)
(0.893833 -0.213765 2.5764e-20)
(0.93467 -0.400644 3.27434e-23)
(1.02641 -0.419651 3.52326e-23)
(1.04055 -0.409893 8.62787e-21)
(1.02115 -0.399103 -1.01409e-20)
(0.984477 -0.383096 -1.26199e-24)
(0.92238 -0.358529 1.1322e-23)
(0.830836 -0.324124 -3.82361e-21)
(0.711394 -0.279746 6.96614e-21)
(0.568519 -0.226231 0)
(0.40971 -0.165622 -2.89646e-20)
(0.244132 -0.100443 -9.17059e-24)
(0.079821 -0.0334373 1.7252e-20)
(0.995687 0.00243354 -1.23918e-19)
(0.942192 -0.0457877 2.75555e-21)
(0.869043 -0.198052 -2.11545e-19)
(0.913418 -0.420081 0)
(1.03134 -0.431202 3.98695e-23)
(1.05413 -0.419455 -8.44932e-21)
(1.04458 -0.409438 9.92063e-21)
(1.0242 -0.397642 -1.78095e-24)
(0.984553 -0.380464 -3.37064e-22)
(0.918947 -0.355374 0)
(0.825208 -0.320824 -6.50372e-21)
(0.70435 -0.276405 -4.53628e-24)
(0.561088 -0.22315 1.279e-20)
(0.403251 -0.162997 -3.75362e-24)
(0.239702 -0.0986145 4.82196e-24)
(0.0781639 -0.0327894 1.81418e-20)
(0.997127 0.0100538 6.17702e-20)
(0.935638 -0.0184212 -7.63851e-20)
(0.839593 -0.174123 4.38529e-22)
(0.87524 -0.43902 0)
(1.02163 -0.435635 1.89499e-20)
(1.05198 -0.422364 4.83147e-21)
(1.05172 -0.413118 9.40517e-21)
(1.04492 -0.404888 4.25408e-25)
(1.02381 -0.393898 4.8364e-25)
(0.981699 -0.37699 3.4645e-21)
(0.914139 -0.351969 6.00206e-21)
(0.818739 -0.317402 -8.5664e-21)
(0.69684 -0.273164 5.43256e-24)
(0.553633 -0.220102 -6.84238e-24)
(0.396907 -0.160385 -1.72474e-20)
(0.235403 -0.0968683 5.26861e-24)
(0.076626 -0.0321839 0)
(0.998805 0.0170294 -5.8513e-20)
(0.933973 0.0133443 3.02708e-21)
(0.803497 -0.134243 -9.43258e-22)
(0.801299 -0.440611 -1.19831e-19)
(0.974398 -0.424496 -1.92318e-20)
(1.01616 -0.408804 -2.38532e-21)
(1.03185 -0.404364 -9.43897e-21)
(1.0423 -0.401964 3.50392e-21)
(1.03967 -0.398025 -9.69482e-25)
(1.01921 -0.388967 -3.37879e-21)
(0.976755 -0.372935 -5.77365e-21)
(0.908058 -0.348273 8.11715e-21)
(0.811495 -0.314057 0)
(0.689106 -0.269907 -1.25365e-20)
(0.546169 -0.217001 1.53945e-20)
(0.390652 -0.157859 -4.37851e-24)
(0.231308 -0.0952289 -1.07378e-23)
(0.0752132 -0.031621 -4.68049e-24)
(1.00048 0.0226714 5.79203e-20)
(0.942902 0.0415731 -7.07513e-20)
(0.752126 -0.0618982 2.5637e-20)
(0.655547 -0.39063 1.18723e-19)
(0.842327 -0.379042 0)
(0.910688 -0.363165 -2.63922e-21)
(0.962203 -0.372279 0)
(1.00285 -0.382303 -6.31414e-21)
(1.02562 -0.389318 1.31327e-21)
(1.02915 -0.389859 3.84558e-21)
(1.01178 -0.383167 1.13378e-24)
(0.969951 -0.368375 -3.73055e-24)
(0.900791 -0.34462 -4.6459e-24)
(0.803786 -0.310622 2.31508e-20)
(0.681157 -0.266498 3.41444e-24)
(0.538661 -0.213956 7.79105e-24)
(0.384579 -0.155465 0)
(0.227462 -0.0936885 5.46763e-24)
(0.0738976 -0.0310912 1.94632e-20)
(1.00199 0.0266152 0)
(0.952782 0.064497 1.3268e-19)
(0.82012 0.0518218 -4.17205e-20)
(0.827227 0.0728971 0)
(0.507591 -0.350075 2.11388e-21)
(0.384559 -0.261875 1.9809e-20)
(0.636472 -0.022135 0)
(0.692114 -0.332033 9.44958e-23)
(0.337799 -0.243917 -2.9555e-20)
(0.509548 -0.223184 1.92162e-21)
(0.68537 -0.267172 5.92501e-22)
(0.564672 -0.211741 0)
(0.812257 -0.304024 0)
(0.905468 -0.337185 2.90055e-21)
(0.968041 -0.361733 -3.06007e-21)
(1.00398 -0.376054 -3.883e-21)
(1.01555 -0.38085 1.19276e-24)
(1.00199 -0.376734 0)
(0.961501 -0.363877 -3.1327e-25)
(0.892788 -0.340792 -1.08866e-20)
(0.795614 -0.306914 0)
(0.67295 -0.263089 -3.43234e-24)
(0.531216 -0.211036 -3.98602e-24)
(0.378764 -0.153186 -1.90965e-20)
(0.223838 -0.0922218 0)
(0.0726516 -0.0305863 1.96112e-20)
(1.00294 0.0288202 -4.87119e-20)
(0.967401 0.080885 -5.09176e-21)
(0.838554 0.10024 0)
(0.854353 0.127177 2.95655e-20)
(0.641063 0.0607967 0)
(0.414272 -0.12719 -1.88867e-21)
(0.167321 -0.192813 -2.54197e-20)
(0.136568 -0.186878 -6.2606e-21)
(0.204831 -0.225262 3.32077e-20)
(0.384261 -0.0733963 0)
(0.320752 -0.157308 -2.91977e-21)
(0.131927 -0.0624422 0)
(0.327464 -0.11893 0)
(0.250651 -0.0832537 -9.21652e-24)
(0.439479 -0.160531 -1.03826e-21)
(0.564669 -0.196095 -3.58196e-22)
(0.376078 -0.134034 -3.14055e-25)
(0.732051 -0.261417 5.03255e-22)
(0.850918 -0.309694 -3.50671e-22)
(0.931757 -0.342775 1.4325e-24)
(0.980466 -0.362682 0)
(0.999735 -0.371376 0)
(0.990286 -0.370571 0)
(0.952116 -0.359162 5.0667e-24)
(0.884079 -0.336563 2.7741e-24)
(0.78692 -0.303141 0)
(0.66462 -0.259781 -1.47189e-20)
(0.523951 -0.208222 1.69225e-20)
(0.373206 -0.150984 -9.45921e-24)
(0.220381 -0.0908118 0)
(0.0714701 -0.0301076 0)
(1.00321 0.0293624 3.8762e-21)
(0.984769 0.0901689 -5.67136e-20)
(0.874202 0.151725 -2.84377e-20)
(0.896441 0.168278 -2.3853e-20)
(0.660529 0.12834 0)
(0.688749 0.186208 -4.02279e-20)
(0.372277 0.0423262 0)
(0.371474 -0.0148859 0)
(0.117864 -0.109892 3.02895e-21)
(0.0546749 -0.0992768 0)
(0.0896133 -0.0292258 8.88749e-23)
(0.0778177 -0.0276347 -1.30857e-22)
(0.22071 -0.0740347 0)
(0.132302 -0.0409794 -1.46585e-21)
(0.33571 -0.111866 3.2185e-25)
(0.487075 -0.1625 -3.60045e-22)
(0.316443 -0.102378 5.61118e-22)
(0.183701 -0.0613914 -8.43675e-25)
(0.666985 -0.233447 1.02746e-21)
(0.802298 -0.287342 -4.12994e-25)
(0.896974 -0.325333 7.55769e-21)
(0.956093 -0.349482 8.82147e-21)
(0.982292 -0.362756 0)
(0.977747 -0.364296 -1.03725e-20)
(0.941888 -0.353955 -1.15599e-20)
(0.874588 -0.33222 1.24361e-20)
(0.777882 -0.299441 1.36157e-20)
(0.656328 -0.256557 -1.49765e-20)
(0.516893 -0.205462 0)
(0.367852 -0.148841 -1.93504e-20)
(0.217069 -0.0894625 0)
(0.070348 -0.0296512 0)
(1.00329 0.0284142 4.5583e-20)
(0.9994 0.0928382 0)
(0.921116 0.182798 2.38636e-20)
(0.944437 0.182602 2.16081e-20)
(0.727939 0.234686 7.20425e-20)
(0.777311 0.265621 -3.19354e-20)
(0.384584 0.101515 0)
(0.403604 0.159152 -1.84476e-20)
(0.455675 0.269059 0)
(0.427265 0.215536 1.77187e-20)
(0.0927233 0.00321375 5.23836e-20)
(0.0999802 -0.0542842 -2.58124e-20)
(0.0387023 -0.0112157 1.42433e-21)
(0.0553691 -0.0166351 1.04954e-22)
(0.0495799 -0.0161321 6.579e-24)
(0.163291 -0.0515261 1.59894e-22)
(0.288991 -0.0941136 -8.78261e-23)
(0.425739 -0.14181 1.89841e-21)
(0.262414 -0.0826505 -4.88178e-22)
(0.195469 -0.0639503 -2.98842e-23)
(0.193379 -0.0615792 -4.57406e-25)
(0.0418121 -0.0137595 0)
(0.0445201 -0.0141041 0)
(0.616027 -0.212756 -1.96153e-24)
(0.759688 -0.268349 -8.22461e-21)
(0.863934 -0.308918 -9.3061e-21)
(0.931258 -0.338203 -9.5233e-21)
(0.964731 -0.354374 1.04265e-20)
(0.964522 -0.357538 1.13786e-20)
(0.930714 -0.348649 -2.40706e-20)
(0.864552 -0.327945 1.27235e-20)
(0.768713 -0.295805 1.38345e-20)
(0.648134 -0.253351 0)
(0.510007 -0.202738 1.70736e-20)
(0.362676 -0.146765 -1.92875e-20)
(0.213887 -0.0881693 0)
(0.0692908 -0.0292203 1.94619e-20)
(1.0031 0.0263906 1.62414e-22)
(1.01178 0.0914306 1.68121e-22)
(0.958216 0.24929 -3.62666e-20)
(0.828722 0.283346 0)
(0.870851 0.308117 -2.55263e-20)
(0.488982 0.318201 -1.40824e-20)
(0.530593 0.357974 1.2722e-20)
(0.637446 0.422873 1.18882e-20)
(0.581439 0.393858 -9.86602e-21)
(0.0983811 0.0670861 -2.63702e-20)
(0.112628 0.134489 2.43494e-20)
(0.166125 0.269203 4.22929e-20)
(0.134919 0.202416 -4.67453e-20)
(0.0384076 -0.011549 -1.58939e-22)
(0.0378963 -0.012038 3.28825e-23)
(0.114695 -0.037614 0)
(0.18386 -0.0589045 1.12726e-22)
(0.175541 -0.0559444 -1.64957e-25)
(0.225686 -0.0737354 -5.93968e-22)
(0.386208 -0.12738 -2.08248e-21)
(0.209063 -0.0669784 2.40641e-22)
(0.163822 -0.053072 3.66871e-23)
(0.145131 -0.0422853 2.70689e-22)
(0.113222 -0.0357085 2.71496e-23)
(0.573563 -0.196079 2.02353e-24)
(0.721139 -0.250481 2.42178e-24)
(0.832264 -0.295856 1.01126e-20)
(0.907816 -0.327753 -2.51463e-24)
(0.947136 -0.345676 0)
(0.950419 -0.350819 1.1913e-20)
(0.918911 -0.343465 -2.45895e-20)
(0.854254 -0.323746 1.29156e-20)
(0.75952 -0.292157 3.38409e-24)
(0.640027 -0.250141 -1.51481e-20)
(0.503269 -0.200061 1.69807e-20)
(0.357654 -0.144759 0)
(0.210849 -0.0869403 2.22507e-20)
(0.0682895 -0.0288065 1.92898e-20)
(1.00256 0.0236454 0)
(1.02079 0.0858878 -1.53582e-22)
(1.01348 0.238801 4.16506e-20)
(0.865965 0.563139 -1.88904e-20)
(0.970704 0.574227 9.11445e-21)
(0.694429 0.447399 -6.53447e-22)
(0.741893 0.460926 9.1378e-21)
(0.765354 0.548138 1.83277e-20)
(0.208133 0.328937 -1.9519e-20)
(0.262721 0.375315 4.13521e-22)
(0.404572 0.501666 -2.23202e-20)
(0.317089 0.404831 1.93258e-20)
(0.0370782 -0.0119518 -8.77073e-26)
(0.108214 -0.0341109 0)
(0.102925 -0.0324579 -2.23065e-23)
(0.120083 -0.0389642 1.11325e-22)
(0.109216 -0.0348667 0)
(0.197139 -0.0632557 1.27847e-21)
(0.354522 -0.116392 0)
(0.190607 -0.0603999 3.78887e-21)
(0.102523 -0.0325436 0)
(0.0994008 -0.0312412 -6.36532e-22)
(0.0947878 -0.0301776 -6.2304e-23)
(0.0660577 -0.0172405 0)
(0.036561 -0.0114176 -1.7692e-23)
(0.533874 -0.178945 0)
(0.685737 -0.237408 0)
(0.804132 -0.284277 0)
(0.885515 -0.317267 0)
(0.929063 -0.337294 0)
(0.93583 -0.344373 1.21593e-20)
(0.906828 -0.338435 -2.49409e-20)
(0.843844 -0.319528 1.30528e-20)
(0.750308 -0.288466 1.39674e-20)
(0.631993 -0.246949 -1.50665e-20)
(0.496668 -0.197454 -4.0481e-24)
(0.352809 -0.142836 -1.90599e-20)
(0.207946 -0.0857558 0)
(0.0673215 -0.0284057 0)
(1.00182 0.0204472 3.43659e-20)
(1.02683 0.0779239 0)
(1.04031 0.209078 0)
(1.13952 0.49831 -5.2821e-21)
(0.835087 0.616288 1.00682e-21)
(0.654416 0.511203 -7.90344e-22)
(0.91253 0.483078 -6.30091e-23)
(0.543275 0.569759 2.46667e-22)
(0.617261 0.578729 -9.57736e-21)
(0.529026 0.451191 -5.67814e-23)
(0.470706 0.456828 1.3257e-21)
(0.155607 0.267133 -1.3538e-21)
(0.0350892 -0.010897 0)
(0.0334479 -0.0104786 1.5215e-23)
(0.0420791 -0.0138452 0)
(0.0364428 -0.0115815 0)
(0.0963096 -0.0304231 -7.41852e-22)
(0.0949818 -0.029736 -8.26775e-22)
(0.181732 -0.0583067 0)
(0.313954 -0.101454 1.995e-21)
(0.17296 -0.0547286 5.10004e-22)
(0.0931703 -0.0292866 -1.94684e-21)
(0.0921439 -0.0287717 0)
(0.0331558 -0.0103817 6.82102e-25)
(0.0320113 -0.00993308 5.54111e-22)
(0.0307393 -0.0100229 6.3245e-23)
(0.0182472 -0.00479191 -2.37778e-22)
(0.499025 -0.167401 0)
(0.656358 -0.226455 0)
(0.778607 -0.27281 0)
(0.86335 -0.307449 -1.3255e-20)
(0.910936 -0.329429 3.05558e-24)
(0.921148 -0.338258 1.23421e-20)
(0.894664 -0.333433 -2.52489e-20)
(0.833354 -0.315253 -3.1856e-24)
(0.741082 -0.284763 1.38733e-20)
(0.624037 -0.24381 3.61365e-24)
(0.490231 -0.194933 8.01988e-26)
(0.348143 -0.140972 1.01941e-25)
(0.205153 -0.0846049 -1.04723e-23)
(0.0663864 -0.0280174 0)
(1.00108 0.0170008 -3.48519e-20)
(1.03068 0.0692365 3.20561e-20)
(1.05062 0.173167 -1.92487e-20)
(1.25956 0.454289 -1.1236e-21)
(0.789865 0.138723 -5.34585e-20)
(1.07462 0.205115 1.42711e-19)
(0.449743 0.268049 -3.50612e-21)
(0.281655 0.249379 0)
(0.594318 0.189869 -2.51063e-20)
(0.26322 0.101695 0)
(0.341135 0.445194 1.09896e-21)
(0.412488 0.452171 -1.5348e-21)
(0.0311495 -0.00966819 0)
(0.0306875 -0.00947294 0)
(0.0899296 -0.0283883 -1.12523e-21)
(0.0885489 -0.0277359 -1.14213e-24)
(0.149669 -0.0465349 6.20911e-22)
(0.283311 -0.0913601 1.85716e-21)
(0.122832 -0.0399821 -2.22333e-21)
(0.0863353 -0.0273105 0)
(0.0828267 -0.0259701 -6.55761e-22)
(0.0300876 -0.00933746 -3.81724e-24)
(0.029747 -0.00919709 0)
(0.473699 -0.159105 0)
(0.631046 -0.215154 0)
(0.753539 -0.262372 1.42449e-20)
(0.841765 -0.298383 0)
(0.893148 -0.322179 2.1396e-26)
(0.906605 -0.332288 1.25181e-20)
(0.882459 -0.328403 0)
(0.822797 -0.310953 3.19527e-24)
(0.731859 -0.281094 1.36779e-20)
(0.616196 -0.240757 -1.46777e-20)
(0.483977 -0.192473 4.00694e-24)
(0.343631 -0.139143 4.53803e-24)
(0.202432 -0.0834767 2.72127e-25)
(0.0654725 -0.0276393 0)
(1.00051 0.0134745 3.11418e-20)
(1.03262 0.0603149 -2.76934e-21)
(1.05426 0.139777 2.00246e-20)
(1.29573 0.394889 1.15697e-21)
(1.18165 0.150633 -8.51995e-20)
(0.221524 0.0073563 -1.31545e-20)
(0.476482 -0.0147044 3.7289e-20)
(0.2759 -0.026505 -3.30296e-20)
(0.636216 -0.00922999 6.936e-20)
(0.0291927 -0.00905513 1.29889e-21)
(0.0286976 -0.0088611 0)
(0.0754192 -0.0240971 -6.9352e-22)
(0.0535014 -0.0138378 1.2349e-21)
(0.111325 -0.034914 -3.93175e-21)
(0.267749 -0.0863701 3.80324e-24)
(0.108654 -0.0339386 -1.32945e-21)
(0.034087 -0.0108082 -3.05081e-22)
(0.0286369 -0.00939179 -6.85415e-22)
(0.0279902 -0.00873071 7.37537e-22)
(0.0267795 -0.00838801 -3.63623e-22)
(0.453407 -0.150471 0)
(0.605155 -0.205226 4.00079e-24)
(0.729574 -0.252701 3.57153e-24)
(0.821138 -0.290299 0)
(0.875935 -0.315257 -6.27668e-24)
(0.892213 -0.326375 1.27157e-20)
(0.870224 -0.323369 0)
(0.812191 -0.306683 -2.57724e-20)
(0.722686 -0.277522 5.53553e-23)
(0.608517 -0.237762 0)
(0.47789 -0.190039 0)
(0.339233 -0.137345 0)
(0.199775 -0.082379 1.03656e-23)
(0.0645997 -0.0272739 1.82131e-20)
(1.00016 0.010006 -3.16275e-20)
(1.0328 0.0511337 -3.0597e-20)
(1.05699 0.111072 -3.32988e-24)
(1.28431 0.326338 -3.01642e-22)
(1.3834 0.15828 0)
(0.658064 -0.0326323 0)
(0.071018 -0.0212917 2.15207e-20)
(0.278756 -0.0121702 1.02556e-22)
(0.12284 -0.0116491 -9.22937e-23)
(0.302286 -0.0546404 -1.12136e-19)
(0.0244041 -0.00808482 -5.55723e-24)
(0.0147173 -0.00382342 -8.6732e-22)
(0.0263457 -0.00817477 1.27369e-25)
(0.0257171 -0.00803152 1.01137e-21)
(0.105531 -0.0332864 1.4098e-21)
(0.304917 -0.101726 -7.10445e-24)
(0.104445 -0.0326136 -1.52183e-21)
(0.20739 -0.0682785 -2.8346e-21)
(0.0255423 -0.00792907 5.04594e-25)
(0.0255271 -0.00785478 2.07197e-21)
(0.428689 -0.141204 -2.24753e-21)
(0.300765 -0.0986235 0)
(0.580314 -0.195733 -4.08874e-24)
(0.707308 -0.244411 0)
(0.801722 -0.28276 -1.37361e-20)
(0.859215 -0.308521 -2.61078e-20)
(0.877952 -0.32052 6.12592e-24)
(0.857967 -0.318388 1.24775e-20)
(0.801602 -0.302549 1.26755e-20)
(0.713654 -0.27401 0)
(0.600989 -0.234778 0)
(0.47193 -0.187632 0)
(0.334928 -0.135587 0)
(0.197189 -0.0813042 -2.05631e-20)
(0.063745 -0.0269207 8.63162e-24)
(1.00001 0.00668899 0)
(1.03166 0.0416513 2.70452e-20)
(1.06044 0.0867505 0)
(1.25381 0.261636 3.13573e-22)
(1.45522 0.157705 0)
(1.08951 -0.0168707 1.57001e-19)
(0.345373 -0.0715546 -1.06762e-19)
(0.199985 -0.0114217 1.0829e-19)
(0.0201809 -0.00684842 4.69515e-20)
(0.0636599 -0.0248421 9.96005e-20)
(0.0250644 -0.00782091 -2.16531e-21)
(0.0250154 -0.00774829 -1.12946e-21)
(0.128599 -0.0421685 7.16978e-23)
(0.0758706 -0.0246958 3.35524e-21)
(0.0247569 -0.00767559 4.48846e-24)
(0.0247568 -0.00762008 1.19857e-21)
(0.20054 -0.0650152 -2.24912e-23)
(0.128429 -0.040782 2.05092e-21)
(0.289683 -0.0939422 3.70677e-21)
(0.403036 -0.131928 -2.36237e-21)
(0.278637 -0.0898599 3.72706e-21)
(0.558219 -0.187982 0)
(0.687088 -0.236896 1.49373e-20)
(0.783219 -0.27555 1.38364e-20)
(0.842887 -0.301921 -6.34065e-24)
(0.863797 -0.314761 -6.15688e-24)
(0.845755 -0.313626 -1.22663e-20)
(0.791161 -0.298492 -1.21571e-23)
(0.704766 -0.2705 1.29872e-20)
(0.593586 -0.231812 0)
(0.466084 -0.185267 1.52496e-20)
(0.330712 -0.133858 0)
(0.194672 -0.0802676 0)
(0.0629048 -0.0265768 1.76008e-20)
(1.00001 0.00356148 -2.95193e-20)
(1.02981 0.0319321 -2.76684e-20)
(1.06391 0.0660444 -1.00903e-20)
(1.22109 0.205081 0)
(1.45322 0.147994 1.65941e-23)
(1.34339 -0.00101003 -1.36636e-19)
(0.7636 -0.0796643 -1.55099e-22)
(0.262021 -0.0600818 0)
(0.129016 -0.0268129 9.22031e-20)
(0.119248 -0.0472975 -1.47099e-21)
(0.0474716 -0.000677944 -8.76577e-20)
(-0.0022368 -0.0102283 -1.44612e-21)
(0.00615482 0.00327799 1.75506e-21)
(0.0757883 -0.0236444 -1.87498e-21)
(0.024686 -0.00789852 -1.08394e-21)
(0.123735 -0.0395302 4.4207e-24)
(0.192616 -0.0615035 -2.24332e-21)
(0.126251 -0.040398 0)
(0.263798 -0.0837203 7.99877e-21)
(0.383018 -0.125231 -2.29244e-21)
(0.251172 -0.0811659 -3.10129e-23)
(0.182185 -0.0581899 1.22374e-23)
(0.539408 -0.181301 -2.10738e-24)
(0.668165 -0.229842 0)
(0.765336 -0.268525 1.41488e-20)
(0.826863 -0.295449 1.26206e-23)
(0.849794 -0.309359 1.22256e-20)
(0.833768 -0.30899 -1.20859e-20)
(0.780881 -0.294442 -1.22481e-20)
(0.695995 -0.267001 6.2935e-24)
(0.586316 -0.228888 -1.36345e-20)
(0.460343 -0.182938 1.03446e-25)
(0.326584 -0.132176 1.68078e-20)
(0.192203 -0.0792613 4.71133e-24)
(0.062112 -0.0262448 8.2939e-24)
(1.00008 0.000620934 2.99753e-20)
(1.02777 0.0221235 2.58921e-20)
(1.06636 0.0479792 9.04826e-22)
(1.19389 0.156419 -4.20724e-21)
(1.41573 0.127999 -6.1821e-20)
(1.4542 0.00912316 2.89453e-23)
(1.11232 -0.0785927 7.16379e-23)
(0.574058 -0.0924695 1.8639e-22)
(0.0721483 -0.0215982 1.27203e-22)
(0.230681 -0.0502466 0)
(0.0459369 -0.0136566 -1.77028e-20)
(0.0196649 -0.0147773 5.69289e-20)
(-0.000313226 0.00933972 5.51137e-20)
(0.00793578 -0.000363629 -2.4225e-20)
(0.0742289 -0.0234024 0)
(0.0246383 -0.00761295 1.26124e-21)
(0.120945 -0.038278 -4.3818e-24)
(0.0725219 -0.022926 1.00222e-21)
(0.118163 -0.0373419 -2.19984e-21)
(0.164024 -0.051013 -4.21339e-21)
(0.242499 -0.077901 -3.84336e-21)
(0.368659 -0.120336 4.70728e-21)
(0.237493 -0.0760504 7.7643e-21)
(0.149939 -0.0477532 1.33284e-23)
(0.107653 -0.0341239 0)
(0.113712 -0.0360857 4.24933e-24)
(0.522168 -0.175214 1.93798e-23)
(0.649854 -0.222945 -1.54535e-20)
(0.747912 -0.261559 1.41146e-20)
(0.811154 -0.289532 -6.2772e-24)
(0.836201 -0.304166 1.20561e-20)
(0.822023 -0.304386 5.86069e-24)
(0.770735 -0.290408 -1.20365e-20)
(0.687348 -0.263535 0)
(0.579148 -0.225999 0)
(0.454702 -0.180658 -1.45999e-20)
(0.322538 -0.130544 -1.23142e-25)
(0.189821 -0.0782868 -1.90627e-20)
(0.0613574 -0.025925 -8.3848e-24)
(1.00017 -0.00215497 0)
(1.02585 0.0123824 -3.9529e-20)
(1.06743 0.0316022 9.80613e-21)
(1.174 0.114806 4.46782e-21)
(1.36846 0.103339 1.02313e-20)
(1.47544 0.0113011 2.36433e-23)
(1.32946 -0.0723338 -8.23867e-23)
(0.914352 -0.109597 -1.29085e-22)
(0.475586 -0.0874447 0)
(0.0727347 -0.0179511 5.44648e-20)
(0.0146819 -0.000400844 -1.82657e-20)
(0.00684541 -0.00904441 -7.46651e-23)
(0.20541 -0.0433648 -2.05697e-19)
(0.0159565 -0.00246045 8.81198e-23)
(0.0116967 -0.00686048 -1.59308e-22)
(-0.0105474 -0.00437821 2.58391e-20)
(0.00207446 -0.000151037 0)
(-0.00725752 0.00232742 -1.31217e-20)
(0.000345854 0.000245977 -9.34031e-22)
(0.0240463 -0.00745266 -6.32142e-24)
(0.0708706 -0.0222209 3.65026e-24)
(0.0234214 -0.00730011 -2.01162e-21)
(0.0692988 -0.0217432 9.29794e-22)
(0.0946515 -0.0273996 1.94245e-23)
(0.0812193 -0.0263974 1.19173e-21)
(0.143827 -0.0454533 -1.63795e-21)
(0.23264 -0.0744384 -7.82678e-21)
(0.356044 -0.116178 -1.59992e-23)
(0.229243 -0.0733477 7.99449e-21)
(0.14075 -0.0443339 -1.64736e-21)
(0.0708885 -0.0224172 2.68317e-23)
(0.0744237 -0.0235511 -1.18125e-21)
(0.06181 -0.0194754 0)
(0.0662858 -0.0208922 9.39258e-22)
(0.505017 -0.169135 -8.6823e-24)
(0.631818 -0.215775 -1.54375e-20)
(0.730944 -0.255409 1.35873e-20)
(0.796173 -0.28393 0)
(0.823014 -0.299056 1.20072e-20)
(0.810469 -0.299822 1.16782e-20)
(0.760727 -0.286414 -2.83112e-24)
(0.678823 -0.260114 1.21552e-20)
(0.572083 -0.223161 1.29185e-20)
(0.449151 -0.178442 0)
(0.3186 -0.128962 1.6053e-20)
(0.187527 -0.0773372 0)
(0.0605881 -0.0256051 0)
(1.00024 -0.00479043 -4.46078e-25)
(1.02419 0.00282743 2.66293e-20)
(1.06731 0.016224 0)
(1.16013 0.0791097 6.69905e-21)
(1.32519 0.078016 1.07384e-19)
(1.45226 0.00763278 -2.45066e-23)
(1.42953 -0.0653721 -9.97041e-20)
(1.18316 -0.113513 5.9678e-23)
(0.775051 -0.115504 1.4528e-22)
(0.414379 -0.0781272 0)
(0.0664511 -0.0154852 2.0591e-19)
(0.0174773 -6.59034e-05 -8.49881e-20)
(0.0162395 -0.00805654 1.68179e-20)
(0.00255349 0.0019175 1.20116e-20)
(0.000955116 -0.000241491 2.13023e-20)
(-3.44866e-05 -1.17051e-05 1.4311e-20)
(-0.00122324 -0.00243382 -1.30511e-20)
(0.00320787 -4.933e-05 1.47838e-22)
(0.18542 -0.0385304 0)
(0.000834753 0.00111141 1.63852e-20)
(-0.00940545 0.000854268 1.50602e-20)
(-0.00288743 0.0018448 0)
(0.0228877 -0.00710929 1.30074e-21)
(0.0224895 -0.00699534 1.27564e-21)
(0.0429381 -0.0108788 5.5341e-22)
(0.0280109 -0.00930117 3.46204e-22)
(0.0691657 -0.0216367 -8.82883e-24)
(0.0683715 -0.0213803 2.25934e-21)
(0.138304 -0.0435647 0)
(0.225112 -0.0720755 -1.5954e-20)
(0.342207 -0.11169 3.83151e-23)
(0.221522 -0.0709163 1.61e-20)
(0.136315 -0.0429549 -4.9279e-21)
(0.0673983 -0.0210407 -2.28872e-21)
(0.0677331 -0.0211391 2.27413e-21)
(0.0227938 -0.00714774 -5.22911e-24)
(0.0245959 -0.0078453 8.03466e-22)
(0.0199163 -0.00655 -8.14213e-23)
(0.0213822 -0.00674061 -1.25418e-21)
(0.487005 -0.162029 -2.60807e-23)
(0.614247 -0.209748 -1.49378e-20)
(0.715198 -0.249693 1.97484e-23)
(0.781857 -0.278488 -1.2384e-20)
(0.810124 -0.294031 0)
(0.799108 -0.295324 0)
(0.750878 -0.282476 -1.14601e-20)
(0.670409 -0.256747 -1.18441e-20)
(0.565118 -0.220401 0)
(0.44374 -0.176297 0)
(0.314775 -0.127412 0)
(0.185254 -0.0764022 0)
(0.0598466 -0.0252935 -7.77515e-24)
(1.00027 -0.00730239 0)
(1.02279 -0.00647475 -1.36339e-20)
(1.06642 0.00143633 0)
(1.15028 0.0479557 -7.04798e-21)
(1.29073 0.0532522 -6.23449e-21)
(1.41423 0.000463978 8.10076e-20)
(1.45283 -0.0606463 5.81234e-21)
(1.34541 -0.109833 5.24284e-23)
(1.05308 -0.129847 5.51178e-23)
(0.676823 -0.110129 0)
(0.370346 -0.0699868 -1.54653e-22)
(0.0614654 -0.0139803 4.73773e-20)
(0.0172569 0.000312878 0)
(0.0148243 -0.00716683 0)
(0.00313299 0.00128074 6.88725e-23)
(0.00340117 -0.00115735 1.99188e-20)
(0.0044516 -0.00058776 -1.91602e-20)
(0.00359449 -0.00238543 0)
(0.000308885 0.000310142 0)
(-0.00113981 -0.000238499 -1.6628e-21)
(0.168626 -0.0341315 0)
(-0.000225506 0.000357874 7.17875e-22)
(0.0118716 -0.00301911 -3.20522e-22)
(0.0221645 -0.00688315 -1.30863e-21)
(0.0219185 -0.00680088 1.31196e-21)
(0.0667487 -0.0208361 -2.27749e-21)
(0.0665013 -0.0207609 0)
(0.134233 -0.0423059 6.58191e-21)
(0.216434 -0.0694396 0)
(0.323756 -0.104736 -3.91646e-23)
(0.210532 -0.0675256 4.04771e-21)
(0.132108 -0.0416582 -6.65249e-21)
(0.0657483 -0.0205299 -9.01064e-24)
(0.0659958 -0.0206146 -2.28331e-21)
(0.0216227 -0.00670293 2.64085e-21)
(0.0217389 -0.00673685 1.32085e-21)
(0.469262 -0.156348 1.75162e-23)
(0.598717 -0.204294 -1.47322e-23)
(0.700489 -0.244241 -1.35159e-20)
(0.768001 -0.273193 -2.96838e-24)
(0.79752 -0.28911 -1.16227e-20)
(0.787961 -0.290896 0)
(0.741163 -0.278599 0)
(0.662108 -0.253475 0)
(0.558291 -0.217724 2.93881e-24)
(0.438451 -0.17419 6.44886e-24)
(0.311035 -0.125896 0)
(0.183052 -0.0754891 4.25221e-24)
(0.0591358 -0.024992 1.54556e-23)
(1.00027 -0.00969853 0)
(1.02159 -0.0154984 0)
(1.06511 -0.012982 5.96935e-21)
(1.14297 0.0200909 0)
(1.26504 0.0292529 -7.01509e-20)
(1.37698 -0.00895415 -7.37924e-21)
(1.43744 -0.0588171 9.49531e-20)
(1.41616 -0.103777 0)
(1.2528 -0.132984 -4.87643e-23)
(0.94464 -0.131725 -5.96397e-23)
(0.604611 -0.1019 -1.28093e-22)
(0.335531 -0.0628271 1.60479e-22)
(0.0560974 -0.0119154 1.13092e-21)
(0.0157897 0.000123474 -5.83423e-22)
(0.0142085 -0.00666675 0)
(-0.000271597 0.00124175 -1.28368e-20)
(0.00353256 -0.000327805 -1.75149e-23)
(0.00224418 -0.00257672 0)
(-0.00120402 0.001161 1.36754e-20)
(-0.000249637 -7.93045e-05 -1.16412e-20)
(0.000404701 3.36467e-05 -1.05723e-20)
(1.28139e-05 -0.000597654 0)
(0.153589 -0.0297376 -1.76254e-19)
(0.0214549 -0.00664916 -2.62936e-24)
(0.0213654 -0.00662311 1.33138e-21)
(0.0651363 -0.020341 -9.01729e-24)
(0.0648881 -0.020259 1.81293e-23)
(0.129406 -0.0408466 6.50495e-23)
(0.201273 -0.0646918 8.14646e-24)
(0.304733 -0.0989553 -2.4379e-21)
(0.188996 -0.059274 4.50023e-21)
(0.125498 -0.0397114 -5.02801e-21)
(0.0640664 -0.0200081 2.34472e-21)
(0.0643732 -0.0201181 -9.08433e-24)
(0.0211254 -0.00654808 1.35316e-21)
(0.0212256 -0.00658098 6.54646e-25)
(0.455152 -0.151486 1.69228e-23)
(0.584762 -0.19927 1.49294e-20)
(0.686422 -0.239005 0)
(0.754522 -0.268041 1.20265e-20)
(0.785208 -0.284279 -2.72559e-24)
(0.776998 -0.286539 5.23753e-24)
(0.731569 -0.274838 0)
(0.653941 -0.250305 0)
(0.551613 -0.215101 -2.94659e-24)
(0.433279 -0.17212 -6.46935e-24)
(0.307396 -0.124406 0)
(0.180913 -0.0745945 -4.27612e-24)
(0.0584326 -0.0246987 -1.51035e-23)
(1.00022 -0.011974 0)
(1.02053 -0.024231 0)
(1.06358 -0.0271601 -6.16297e-21)
(1.13746 -0.00551773 -4.56578e-26)
(1.24645 0.00598306 2.28014e-20)
(1.34652 -0.0198805 -7.9871e-20)
(1.40926 -0.059525 0)
(1.42892 -0.0982917 -2.21712e-23)
(1.36324 -0.129662 0)
(1.16226 -0.141578 3.91188e-24)
(0.856391 -0.127084 0)
(0.548356 -0.093334 1.342e-22)
(0.306118 -0.0561666 1.51878e-19)
(0.0504699 -0.00960843 1.73783e-19)
(0.0130732 0.000860391 1.27994e-19)
(0.0125193 -0.00522826 -6.50886e-20)
(-0.000853418 0.00151257 -6.00272e-20)
(-0.00163447 -0.000319676 1.3089e-20)
(-0.00166518 0.00120689 1.1941e-20)
(-0.000247974 0.000485975 1.00466e-22)
(-0.00130626 -0.000129473 -8.37416e-23)
(-0.00148371 0.00111517 -9.78172e-23)
(0.140338 -0.0257444 0)
(0.0209631 -0.00649691 -2.559e-24)
(0.0208671 -0.00646761 -8.30205e-26)
(0.063408 -0.0198166 0)
(0.0629579 -0.0196659 0)
(0.118293 -0.037666 8.18514e-22)
(0.176197 -0.0561551 4.02159e-21)
(0.293704 -0.095003 4.95448e-21)
(0.170967 -0.0545937 -4.05399e-21)
(0.100135 -0.0306936 -4.79833e-21)
(0.0610629 -0.0191286 0)
(0.0621744 -0.0194763 2.30851e-21)
(0.0206095 -0.00638724 2.65616e-24)
(0.0207275 -0.00642805 0)
(0.443339 -0.147373 -2.56413e-23)
(0.571668 -0.19454 1.50604e-20)
(0.67279 -0.23394 0)
(0.74138 -0.262985 0)
(0.773133 -0.279514 2.73464e-24)
(0.766189 -0.282331 -5.25287e-24)
(0.722143 -0.271218 5.05626e-24)
(0.645948 -0.247204 0)
(0.545071 -0.212514 0)
(0.428225 -0.17008 6.0886e-24)
(0.30382 -0.122936 0)
(0.178814 -0.0737255 0)
(0.0577449 -0.0244103 7.49787e-24)
(1.00012 -0.0141149 -2.26953e-24)
(1.01952 -0.0326636 -1.55383e-24)
(1.06186 -0.041179 8.05487e-21)
(1.13339 -0.0297268 0)
(1.2334 -0.016752 6.97029e-24)
(1.32373 -0.0318549 0)
(1.38175 -0.0622011 4.27905e-20)
(1.41437 -0.0944767 2.18683e-23)
(1.40477 -0.123949 2.29756e-23)
(1.30225 -0.14255 -9.34202e-20)
(1.07933 -0.141874 9.75242e-23)
(0.784111 -0.119819 -1.11416e-19)
(0.501884 -0.0849758 -2.5562e-19)
(0.280535 -0.0500307 0)
(0.0458737 -0.00739652 -1.45401e-22)
(0.00978658 0.00218112 1.18222e-22)
(0.00983804 -0.00379742 0)
(-0.00303646 0.00215447 -4.80173e-20)
(-0.00273519 0.000590162 0)
(-0.00366779 0.00214355 1.54221e-20)
(-0.00284766 0.000578218 2.35924e-22)
(-0.00234577 0.000147449 0)
(-0.00230439 0.00174621 -1.31761e-20)
(-0.000790115 8.27333e-05 -1.15583e-21)
(-0.000541157 0.000329172 -8.49756e-21)
(0.127692 -0.0224338 -3.87003e-23)
(0.0204378 -0.00633641 1.37658e-21)