/*--------------------------------*- C++ -*----------------------------------*\
| =========                 |                                                 |
| \\      /  F ield         | OpenFOAM: The Open Source CFD Toolbox           |
|  \\    /   O peration     | Version:  v1912                                 |
|   \\  /    A nd           | Website:  www.openfoam.com                      |
|    \\/     M anipulation  |                                                 |
\*---------------------------------------------------------------------------*/
FoamFile
{
    version     2.0;
    format      ascii;
    class       surfaceScalarField;
    location    "110";
    object      phi;
}
// * * * * * * * * * * * * * * * * * * * * * * * * * * * * * * * * * * * * * //

dimensions      [0 3 -1 0 0 0 0];
oriented        oriented;


internalField   nonuniform List<scalar> 
7354
(
-3.80933e-06
0.00134661
-1.39728e-05
0.00409805
-3.20251e-06
0.00134919
-3.49297e-05
0.00687436
-1.43371e-05
0.00410856
-4.58056e-06
0.00135261
-6.25983e-05
0.00956774
-3.48297e-05
0.00689426
-1.54835e-05
0.00411843
-3.79292e-06
0.00135527
-9.589e-05
0.0120005
-6.19354e-05
0.00959437
-3.3745e-05
0.00691173
-1.33066e-05
0.00412676
-4.10822e-06
0.00135816
-0.000143531
0.0139747
-9.61215e-05
0.0120343
-5.79555e-05
0.00961789
-3.2646e-05
0.00693009
-1.36062e-05
0.00413535
-3.93398e-06
0.00136161
-0.00018367
0.0152741
-0.000137608
0.0140159
-9.37794e-05
0.0120695
-5.80693e-05
0.00964259
-2.85565e-05
0.00694435
-1.34196e-05
0.00414428
-2.80615e-06
0.0013641
-0.000233917
0.0157554
-0.000185555
0.0153218
-0.000134201
0.0140559
-8.85449e-05
0.0120995
-4.86663e-05
0.00966219
-2.5407e-05
0.00695592
-1.11771e-05
0.00415258
-2.30203e-06
0.00136676
-0.000272336
0.0153232
-0.000228476
0.0157981
-0.000177595
0.0153648
-0.000122563
0.0140894
-7.41576e-05
0.0121246
-4.43847e-05
0.00968094
-2.20682e-05
0.00696683
-8.54994e-06
0.00415916
-1.85972e-06
0.00136899
-0.000309608
0.0140298
-0.000275993
0.0153704
-0.000217844
0.015838
-0.000151876
0.0153938
-0.00010198
0.014117
-6.67488e-05
0.0121469
-3.96588e-05
0.00969863
-1.99538e-05
0.00697848
-7.1015e-06
0.00416483
-1.65022e-06
0.00137093
-0.000333304
0.0119879
-0.000316502
0.0140707
-0.00025649
0.0154089
-0.000186213
0.0158722
-0.000131522
0.0154232
-8.50627e-05
0.0141354
-5.46397e-05
0.0121619
-2.9628e-05
0.0097086
-1.6304e-05
0.00698808
-7.13524e-06
0.00417051
-1.7795e-06
0.0013723
-0.000338581
0.00940023
-0.000347403
0.0120179
-0.000274579
0.014088
-0.000205425
0.0154279
-0.000148933
0.0158895
-0.000105838
0.0154441
-7.11953e-05
0.0141521
-4.43138e-05
0.0121769
-2.84178e-05
0.009721
-1.24992e-05
0.00699349
-4.55953e-06
0.00417291
-1.63583e-06
0.00137327
-0.000114375
0.00647389
-0.000189738
-0.000367615
0.00942118
-0.000283349
0.0120274
-0.000209923
0.014093
-0.000159103
0.0154382
-0.000113636
0.0158975
-8.02201e-05
0.0154533
-5.2626e-05
0.0141607
-3.67229e-05
0.0121854
-1.88833e-05
0.00972741
-1.24048e-05
0.00700108
-6.5114e-06
0.00417707
-1.33838e-06
0.0013739
0.00212914
-8.36453e-05
-0.000200166
0.00648011
-0.000173673
0.00208922
-0.000149883
-0.000257223
0.00939412
-0.000189859
0.0120064
-0.000150751
0.0140842
-0.000110672
0.0154353
-8.79548e-05
0.0159054
-6.5727e-05
0.0154666
-4.60533e-05
0.0141701
-3.13571e-05
0.0121979
-2.32101e-05
0.00973799
-1.20837e-05
0.00700615
-5.56076e-06
0.00418093
-1.93391e-06
0.00137595
0.00136645
-2.44696e-05
0.00207084
-0.000181654
-0.000130353
0.00641108
-5.79186e-05
0.00204865
-0.000151456
0.00130938
-6.12919e-05
-3.16278e-05
-0.000140331
0.00934545
-0.00011864
0.0119753
-9.51994e-05
0.0140695
-7.94433e-05
0.0154271
-6.28249e-05
0.0159027
-4.62897e-05
0.0154669
-3.98118e-05
0.0141786
-2.60742e-05
0.0122006
-1.77881e-05
0.00974342
-1.3038e-05
0.00701345
-6.2528e-06
0.00418537
-2.47787e-06
0.00137869
0.000427715
-9.53197e-06
0.00129236
-8.29379e-05
-8.15769e-05
0.00199963
-8.15617e-05
-4.71543e-05
0.00632754
-9.56407e-06
0.0019775
-3.57761e-05
0.00124885
-3.83525e-05
-6.95907e-05
-0.000413834
0.000387336
-3.48146e-05
-1.781e-05
-6.81839e-05
0.00929428
-6.5838e-05
0.0119453
-6.26681e-05
0.0140523
-5.12174e-05
0.0154155
-4.3537e-05
0.0158999
-3.78271e-05
0.0154649
-3.20338e-05
0.0141845
-2.53807e-05
0.0122081
-2.21242e-05
0.00975248
-1.40368e-05
0.00702133
-8.0323e-06
0.00419126
-1.19319e-06
0.00138014
0.000250782
-1.53992e-06
0.000361945
-5.75463e-05
0.000341096
-6.06775e-05
0.001196
-2.20589e-05
-6.79523e-06
0.00194813
-1.7642e-05
-1.80098e-05
0.00627674
6.6469e-07
0.00194455
-5.94513e-06
0.00116609
-5.33603e-07
-5.36516e-06
-0.000318186
0.000299653
-1.97774e-05
-4.6645e-05
-0.000236885
0.000211681
-9.66957e-06
-3.96055e-06
-3.54172e-05
0.00926491
-3.87763e-05
0.0119225
-3.71687e-05
0.0140389
-3.79102e-05
0.01541
-3.18628e-05
0.015894
-3.3298e-05
0.0154662
-2.63506e-05
0.0141855
-2.87849e-05
0.0122148
-2.13384e-05
0.00975998
-1.57492e-05
0.00702937
-7.49242e-06
0.00419769
-2.89422e-06
0.00138258
7.42418e-05
0.000174703
-2.05692e-05
0.000154089
-4.00302e-05
0.000284266
-6.7127e-06
0.000279493
-2.08082e-06
0.00115016
-2.07948e-06
4.75667e-07
0.00193027
-3.9429e-06
-8.57008e-06
0.00624493
5.17449e-06
0.00193177
-7.75713e-07
0.00114424
1.27285e-06
-1.28281e-06
-0.000274638
0.000274416
-3.50599e-07
-5.45493e-07
-0.000107444
8.76757e-05
-7.02812e-05
6.05969e-05
-1.53315e-05
0.0092408
-2.431e-05
0.0119088
-2.51433e-05
0.0140256
-2.23855e-05
0.0154005
-2.87662e-05
0.0158895
-2.54733e-05
0.0154654
-3.64945e-05
0.0141933
-3.34602e-05
0.0122271
-2.7118e-05
0.00977157
-1.86064e-05
0.00704047
-1.03959e-05
0.00420479
-2.13225e-06
0.001384
4.00302e-05
8.09514e-05
7.88604e-05
0.000272457
-1.05701e-07
0.000273084
-1.02241e-07
0.00114028
-7.75039e-07
6.70663e-07
0.00192464
-1.22629e-06
-5.76393e-06
0.00623074
4.79583e-06
0.00192881
1.10932e-06
0.00113913
5.19335e-07
-1.61769e-07
-0.000271732
0.000272787
2.58783e-07
1.04881e-07
-7.83149e-05
7.79545e-05
-6.5603e-06
0.00922406
-6.75939e-06
0.0118914
-1.21882e-05
0.014016
-1.94152e-05
0.0153913
-2.4569e-05
0.0158888
-3.60543e-05
0.0154652
-3.35273e-05
0.0141936
-3.63393e-05
0.0122365
-3.07113e-05
0.00978366
-2.02966e-05
0.00705008
-1.10144e-05
0.00421286
-3.15928e-06
0.00138616
7.78568e-05
7.7765e-05
0.000272257
-2.84416e-07
0.000272659
2.12778e-07
0.00113789
-3.76708e-07
5.44466e-07
0.00192349
-5.49219e-07
-2.59983e-06
0.00622384
3.15261e-06
0.00192758
8.52644e-07
0.00113898
6.10651e-08
3.0924e-08
-0.000272371
0.000272741
1.16799e-07
9.45451e-08
-7.78699e-05
7.81349e-05
-6.11801e-07
0.00921716
-6.73727e-06
0.0118851
-1.06299e-05
0.0140069
-1.40357e-05
0.015381
-2.65784e-05
0.0158795
-3.9849e-05
0.0154716
-4.96652e-05
0.014207
-4.31936e-05
0.012249
-3.64307e-05
0.00979949
-2.59223e-05
0.00706434
-1.17901e-05
0.00422082
-3.91095e-06
0.00138967
7.78393e-05
7.80424e-05
0.000272438
-4.94409e-08
0.000272941
1.07933e-07
0.00113795
-7.40069e-08
5.12317e-07
0.00192587
-6.34307e-07
-8.57823e-07
0.00622093
3.2566e-06
0.00192752
1.61576e-06
0.00113883
3.82141e-07
-3.43613e-07
-0.000273097
0.000273141
9.03296e-08
-7.91517e-08
-7.81369e-05
7.82457e-05
-2.84365e-07
0.00921172
9.69269e-07
0.0118747
-5.26024e-06
0.0139989
-2.39464e-05
0.0153786
-3.71847e-05
0.015877
-4.83015e-05
0.0154703
-5.73633e-05
0.0142211
-5.70898e-05
0.0122693
-4.65566e-05
0.00981969
-2.76452e-05
0.0070797
-1.19921e-05
0.00422838
-2.91046e-06
0.00139212
7.82073e-05
7.83298e-05
0.000273162
-1.06849e-07
0.000273503
1.47331e-07
0.00113783
2.69806e-08
5.33327e-07
0.00192668
-1.65508e-07
-1.05893e-06
0.00621856
3.29941e-06
0.00192827
1.75745e-06
0.00113961
4.71536e-07
-5.59487e-07
-0.00027303
0.000273415
8.41651e-09
1.18451e-07
-7.82506e-05
7.83566e-05
5.4444e-06
0.00920661
8.03611e-07
0.0118679
-9.31131e-06
0.0139839
-2.3219e-05
0.0153647
-4.76187e-05
0.0158763
-6.50502e-05
0.0154779
-7.1009e-05
0.0142348
-6.73081e-05
0.0122898
-4.97284e-05
0.00984138
-3.02751e-05
0.00709755
-1.50228e-05
0.00424027
-3.42469e-06
0.00139559
7.82443e-05
7.83881e-05
0.000273537
-4.65538e-08
0.000274258
-1.06174e-07
0.00113949
-5.83686e-07
4.68349e-07
0.00192689
5.09345e-07
6.48863e-07
0.00621971
3.83616e-06
0.00192962
6.25973e-07
0.00114066
4.6055e-07
1.38885e-07
-0.000273644
0.0002741
9.54586e-08
1.0589e-07
-7.85066e-05
7.85186e-05
2.62993e-06
0.00920592
-1.65887e-06
0.0118614
-1.78117e-05
0.0139791
-4.06762e-05
0.0153578
-6.73694e-05
0.0158786
-8.90073e-05
0.0154958
-9.46671e-05
0.014262
-7.86557e-05
0.0123184
-5.4696e-05
0.00986554
-3.07572e-05
0.00711315
-1.28675e-05
0.00424965
-3.64713e-06
0.00139936
7.84873e-05
7.83982e-05
0.000273625
-1.25587e-07
0.000273931
1.26177e-07
0.00114125
-4.32932e-07
4.9121e-07
0.00192918
9.5268e-07
4.94408e-07
0.00622028
1.79224e-06
0.00193163
1.50427e-06
0.00114146
4.99813e-07
-4.57667e-08
-0.00027393
0.000274564
-1.89901e-07
1.2044e-07
-7.85041e-05
7.86173e-05
2.29408e-06
0.00920132
-5.39832e-06
0.0118482
-2.17656e-05
0.0139597
-5.65685e-05
0.0153468
-8.8236e-05
0.0158777
-0.000108899
0.0155099
-0.000105198
0.0142883
-8.5648e-05
0.0123492
-5.95371e-05
0.00989424
-3.33264e-05
0.00713362
-1.39456e-05
0.00426027
-2.84708e-06
0.0014029
7.84843e-05
7.86037e-05
0.000274211
-5.46901e-08
0.000274583
1.77129e-07
0.00114232
-5.28724e-07
5.37462e-07
0.00193251
-1.60441e-07
5.69937e-07
0.00621899
3.28218e-06
0.00193277
1.65247e-06
0.00114378
-1.49954e-08
9.57905e-08
-0.000274515
0.000274983
8.65841e-08
6.00723e-08
-7.87241e-05
7.85298e-05
3.16776e-07
0.00919662
-1.20098e-05
0.0118393
-4.34379e-05
0.013947
-8.514e-05
0.0153438
-0.000125266
0.015894
-0.000135607
0.0155402
-0.000127324
0.0143299
-9.47178e-05
0.0123844
-5.90642e-05
0.0099201
-3.22083e-05
0.00715223
-1.14941e-05
0.0042696
-1.69396e-06
0.00140551
7.84859e-05
7.8676e-05
0.000274472
-4.36726e-08
0.000274833
1.37311e-07
0.00114322
4.91621e-08
5.15692e-07
0.00193278
5.02997e-07
3.84746e-07
0.00621719
1.89614e-06
0.00193555
7.11923e-07
0.00114499
4.64735e-08
-7.02752e-08
-0.000274841
0.000275022
-2.09339e-07
6.75697e-08
-7.8736e-05
7.88339e-05
-2.11405e-06
0.00918593
-2.3123e-05
0.0118181
-6.79795e-05
0.0139294
-0.000123358
0.0153417
-0.000159582
0.0159179
-0.000167378
0.0155802
-0.000133962
0.0143693
-9.74583e-05
0.012423
-6.04477e-05
0.00994873
-2.83827e-05
0.00716975
-1.06248e-05
0.00427946
-1.368e-06
0.00140783
7.87815e-05
7.89115e-05
0.00027513
-2.62076e-08
0.000275511
2.06262e-07
0.00114505
7.00271e-08
3.63384e-07
0.00193543
7.51725e-07
6.43735e-07
0.00621261
1.93784e-06
0.00193673
6.81766e-07
0.00114585
4.00857e-07
-3.99106e-07
-0.00027546
0.000275505
8.49438e-08
2.7284e-08
-7.89791e-05
7.8766e-05
-7.84137e-06
0.00917154
-4.35284e-05
0.0117945
-0.000106682
0.0139131
-0.000166863
0.0153491
-0.000201236
0.0159519
-0.00017972
0.0156262
-0.000140569
0.0144127
-9.47863e-05
0.0124577
-5.08993e-05
0.00997188
-2.35598e-05
0.00718354
-8.05096e-06
0.00428713
-9.36443e-07
0.00140952
7.87532e-05
7.89763e-05
0.000275564
1.00314e-08
0.000275833
8.39081e-08
0.00114629
4.21097e-08
4.61689e-07
0.00193658
6.65602e-07
5.67548e-07
0.00620356
6.56085e-07
0.00193789
7.35732e-07
0.00114713
4.82774e-07
-5.69046e-07
-0.000275382
0.000275999
-1.91478e-07
4.92479e-08
-7.90036e-05
7.9109e-05
-1.72766e-05
0.00914449
-7.52797e-05
0.0117623
-0.000158561
0.0139044
-0.000224328
0.0153723
-0.000225953
0.0159983
-0.000193076
0.015679
-0.000139758
0.0144581
-8.45656e-05
0.012492
-4.57242e-05
0.00999482
-1.97049e-05
0.00719599
-4.95298e-06
0.00429177
-4.63011e-08
0.00140987
7.91162e-05
7.91991e-05
0.000276089
3.23668e-09
0.000276487
1.43016e-07
0.00114772
8.30893e-08
-7.05791e-08
0.00193764
9.50155e-07
8.16659e-07
0.00618667
-1.12598e-06
0.00193786
4.49715e-07
0.00114791
4.16937e-07
1.49399e-07
-0.000275916
0.000276451
2.6653e-08
5.03367e-08
-7.92483e-05
7.9064e-05
-3.75523e-05
0.00910766
-0.000127793
0.0117325
-0.000230103
0.0139109
-0.000270224
0.0154169
-0.000243894
0.0160495
-0.000184099
0.0157238
-0.000123646
0.0144978
-7.14038e-05
0.0125184
-3.73813e-05
0.0100132
-1.58782e-05
0.0072075
-2.63758e-06
0.00429477
-4.67991e-08
0.00141008
7.90841e-05
7.92452e-05
0.000276502
1.8644e-08
0.000276253
1.47486e-07
0.00114886
4.78789e-08
5.46331e-08
0.00193844
6.77758e-08
7.14111e-07
0.00615542
-6.94423e-06
0.00193686
5.47001e-07
0.0011493
9.37928e-08
-7.87173e-08
-0.000276563
0.000276846
1.18575e-07
-1.77401e-07
-7.92955e-05
7.93419e-05
-7.59606e-05
0.00905517
-0.000201974
0.0117038
-0.000294033
0.0139346
-0.000290566
0.015464
-0.000229624
0.0160956
-0.000165144
0.0157659
-0.000104518
0.0145315
-6.12127e-05
0.0125428
-3.08381e-05
0.0100287
-8.72612e-06
0.00721394
-2.0128e-06
0.00429687
7.54748e-07
0.00140929
7.93538e-05
7.94948e-05
0.000276953
-4.0221e-08
0.000276976
7.75381e-08
0.00114882
7.97682e-08
3.72575e-07
0.00193754
1.7076e-07
-2.05435e-06
0.00609926
-1.74751e-05
0.00193203
-1.3838e-06
0.00114923
-2.75095e-08
1.6457e-07
-0.00027684
0.00027691
6.14866e-08
8.52882e-08
-7.93173e-05
7.94305e-05
-0.000144354
0.00899873
-0.000307788
0.0117188
-0.000335354
0.0139803
-0.000278718
0.0155137
-0.000204459
0.0161354
-0.000137436
0.0157994
-8.43304e-05
0.0145552
-4.57676e-05
0.0125582
-1.82931e-05
0.0100386
-4.91926e-06
0.00721706
1.75802e-06
0.004296
1.09727e-06
0.00140818
7.93997e-05
7.94883e-05
0.00027699
-3.23222e-08
0.000277187
1.32763e-07
0.00114936
7.65019e-08
7.34795e-08
0.00193175
-1.85622e-06
-1.18812e-05
0.00601166
-4.46121e-05
0.00191832
-3.85856e-06
0.00114796
1.07703e-07
-5.79565e-08
-0.00027749
0.000277327
1.08315e-07
-1.61837e-07
-7.95736e-05
7.96427e-05
-0.000274405
0.0089649
-0.000364455
0.0117475
-0.000312986
0.0140147
-0.000232748
0.0155424
-0.000164656
0.0161631
-0.000103852
0.0158194
-6.11979e-05
0.014571
-3.19188e-05
0.0125722
-9.97125e-06
0.0100439
-2.92636e-07
0.00721926
3.20934e-06
0.00429387
1.40401e-06
0.00140653
7.95999e-05
7.97234e-05
0.000277449
-2.93561e-08
0.000277487
8.28516e-08
0.00114607
7.3054e-08
-6.75573e-08
0.00191424
-7.57925e-06
-5.48486e-05
0.00591238
-0.000119755
0.00188563
-1.5887e-05
0.00114218
-1.74837e-08
1.36328e-07
-0.00027737
0.000277677
-1.43672e-07
8.92649e-08
-7.95615e-05
7.96605e-05
-0.0003812
0.00898318
-0.00033181
0.0117678
-0.000247847
0.0140307
-0.000178723
0.015557
-0.000119476
0.0161792
-7.66361e-05
0.0158352
-3.98736e-05
0.0145793
-1.53417e-05
0.0125778
-3.502e-06
0.0100473
3.69387e-06
0.00721887
3.7145e-06
0.00429145
2.72758e-06
0.00140346
7.96407e-05
7.97361e-05
0.00027777
-3.04937e-08
0.000277559
1.27633e-07
0.00113509
1.12297e-07
-4.23951e-07
0.00186066
-2.98825e-05
-0.000170747
0.00590896
-0.00020656
0.00180399
-6.28049e-05
0.00112075
-1.36424e-06
-9.55463e-08
-0.000277657
0.000277545
1.10836e-07
3.33557e-08
-7.98253e-05
7.96953e-05
-0.000330269
0.00898123
-0.000235859
0.0117554
-0.00017168
0.0140236
-0.000125248
0.0155631
-8.49207e-05
0.0161878
-5.25275e-05
0.0158481
-2.69512e-05
0.0145911
-8.73551e-06
0.0125832
5.02208e-06
0.0100461
7.18353e-06
0.00721539
7.31277e-06
0.00428659
3.29881e-06
0.00139975
7.96605e-05
7.97857e-05
0.000277696
4.32785e-09
0.000277433
-8.77379e-08
0.00109504
-6.77847e-07
-3.46239e-06
0.00176662
-0.000133017
-0.000179902
0.00585567
-9.63228e-05
0.00173624
-0.000175978
0.00104515
-1.06251e-05
-2.14245e-06
-0.000277241
0.000276167
-2.03522e-07
1.38575e-07
-7.98191e-05
7.99345e-05
-0.000180997
0.00892799
-0.000144419
0.0117296
-0.000113561
0.0140127
-8.07425e-05
0.0155593
-5.39478e-05
0.0161895
-2.85536e-05
0.0158499
-1.12264e-05
0.0145938
1.72092e-06
0.0125867
9.18206e-06
0.0100441
1.36265e-05
0.00720888
1.02264e-05
0.00427928
3.72545e-06
0.00139577
7.99551e-05
7.98858e-05
0.000275751
-2.55064e-07
0.000272492
-2.01311e-07
0.000964819
-1.47522e-05
-3.76836e-05
0.00169139
-0.00013496
-6.32254e-05
0.00575538
-1.70484e-05
0.00165274
-5.72762e-05
0.000918489
-6.58186e-05
-6.3644e-05
-0.000270977
0.000262167
-1.76534e-06
-6.21889e-07
-8.00244e-05
7.98455e-05
-8.51046e-05
0.00886814
-8.03652e-05
0.0116957
-6.71571e-05
0.013999
-4.93269e-05
0.0155548
-3.03371e-05
0.0161914
-1.21033e-05
0.015851
2.11905e-06
0.0145936
1.39604e-05
0.012582
1.71797e-05
0.0100405
1.52645e-05
0.00720357
9.78642e-06
0.00427301
4.80256e-06
0.00139101
7.95902e-05
7.93911e-05
0.000251592
-4.10199e-06
0.000224135
-1.01315e-05
0.000852022
-4.88932e-05
-1.95188e-05
0.00161323
-2.33442e-05
-1.9778e-05
0.00569001
8.08171e-07
0.00160359
-7.14432e-06
0.000803079
-1.24316e-06
-6.83904e-06
-0.000182993
0.000157672
-4.03995e-05
-2.24426e-05
-7.87692e-05
7.70211e-05
-4.03045e-05
0.00882966
-4.17512e-05
0.0116716
-3.61153e-05
0.0139864
-2.62141e-05
0.0155509
-1.26141e-05
0.0161921
2.95514e-07
0.015853
1.56204e-05
0.014592
1.79532e-05
0.0125811
2.20584e-05
0.0100334
1.83245e-05
0.00719479
1.38498e-05
0.00426392
5.11538e-06
0.00138608
7.29413e-05
6.28305e-05
0.000108786
8.92803e-05
0.000780849
-9.02795e-07
1.30172e-07
0.00158803
-4.10128e-06
-8.89984e-06
0.00565485
4.12213e-06
0.0015896
-3.32542e-07
0.000773873
4.01181e-07
-4.19058e-07
-8.24412e-05
8.12402e-05
-4.03878e-05
-1.84756e-05
0.00880566
-2.14698e-05
0.0116562
-1.68873e-05
0.0139769
-4.77808e-06
0.0155432
3.71405e-06
0.0161888
1.59241e-05
0.0158527
1.87097e-05
0.0145912
2.74064e-05
0.0125756
2.63155e-05
0.0100252
2.39404e-05
0.00718461
1.59626e-05
0.00425322
6.00875e-06
0.00138034
8.03734e-05
8.05357e-05
0.000769876
-2.14155e-07
2.36005e-07
0.00158258
-1.485e-06
-5.90667e-06
0.00563825
4.71483e-06
0.00158577
1.17829e-06
0.0007697
2.40288e-07
-1.99883e-07
-8.01166e-05
8.05704e-05
-4.68684e-06
0.00879043
-7.37203e-06
0.011648
-1.57489e-06
0.0139743
6.28553e-06
0.0155408
1.74825e-05
0.0161874
2.32636e-05
0.0158481
3.45786e-05
0.0145838
3.46988e-05
0.0125669
3.38437e-05
0.0100151
2.84948e-05
0.00717209
1.77595e-05
0.00424162
6.98879e-06
0.00137358
8.03562e-05
8.05997e-05
0.000768385
-8.73508e-08
2.81055e-07
0.00158028
-3.36857e-07
-3.79058e-06
0.00563325
4.41386e-06
0.00158522
1.69852e-07
0.000769625
3.25895e-07
-2.6835e-07
-8.03998e-05
8.0687e-05
-7.85436e-07
0.00878305
2.45929e-06
0.0116431
7.14578e-06
0.0139731
1.47211e-05
0.0155436
2.7386e-05
0.0161831
3.40451e-05
0.0158484
3.48835e-05
0.0145833
3.83561e-05
0.0125622
3.63118e-05
0.0100073
3.19041e-05
0.00715803
2.11058e-05
0.0042277
8.03486e-06
0.00136574
8.06344e-05
8.0947e-05
0.00076927
-9.10216e-08
2.04814e-07
0.00158191
-1.0736e-07
-2.60053e-06
0.00563216
3.66471e-06
0.00158563
9.5269e-07
0.000769733
1.72348e-07
-2.94888e-07
-8.06786e-05
8.1055e-05
2.65433e-06
0.00878446
9.93774e-06
0.0116416
1.79174e-05
0.0139704
2.62851e-05
0.0155447
3.07444e-05
0.0161862
4.40045e-05
0.0158391
4.91555e-05
0.0145723
5.04792e-05
0.0125479
4.41166e-05
0.00999506
3.67301e-05
0.0071425
2.36202e-05
0.00421224
9.03434e-06
0.00135684
8.09598e-05
8.11681e-05
0.000769938
-1.36172e-07
1.88498e-07
0.00158376
-6.05248e-07
-1.71485e-06
0.00563304
3.8147e-06
0.00158689
9.86971e-07
0.000771127
1.8834e-07
-2.82185e-07
-8.08732e-05
8.10871e-05
6.73023e-06
0.00878677
1.44241e-05
0.0116441
2.03395e-05
0.0139759
3.54008e-05
0.0155398
4.58604e-05
0.0161841
5.05866e-05
0.0158374
5.25601e-05
0.0145701
5.57333e-05
0.0125363
5.20308e-05
0.00997979
4.21834e-05
0.00712402
2.74857e-05
0.00419391
9.95482e-06
0.00134699
8.09855e-05
8.12069e-05
0.000770577
-1.24349e-07
2.07605e-07
0.00158541
1.79971e-07
-1.53963e-06
0.0056382
3.88412e-06
0.00158881
6.93006e-07
0.000771765
8.74761e-08
-7.46699e-08
-8.09248e-05
8.11699e-05
8.59591e-06
0.00879417
1.68188e-05
0.0116488
3.05086e-05
0.0139811
3.89937e-05
0.0155465
4.81377e-05
0.0161864
5.80787e-05
0.0158317
6.46228e-05
0.0145611
6.27934e-05
0.0125255
5.9637e-05
0.00996236
4.61432e-05
0.00710542
3.06428e-05
0.00417329
1.13019e-05
0.00133575
8.10457e-05
8.12612e-05
0.000772276
-1.41135e-07
2.13458e-07
0.00158716
2.48323e-07
-4.75243e-07
0.00564332
4.18602e-06
0.00159076
7.50129e-07
0.000773043
2.00597e-07
-1.16234e-07
-8.11865e-05
8.13262e-05
1.02444e-05
0.00879969
2.08109e-05
0.0116573
3.16497e-05
0.0139878
4.57215e-05
0.0155486
5.92961e-05
0.0161849
6.64876e-05
0.0158297
7.39103e-05
0.0145499
7.22735e-05
0.0125129
6.73109e-05
0.00994123
5.49731e-05
0.00708114
3.32276e-05
0.00415143
1.22191e-05
0.00132359
8.12246e-05
8.14748e-05
0.000773558
-3.16448e-07
2.02131e-07
0.00159044
2.54481e-07
-1.31312e-06
0.00565141
4.17562e-06
0.00159398
9.01184e-07
0.000774424
2.114e-07
-1.13963e-07
-8.13586e-05
8.16234e-05
1.21851e-05
0.00880976
2.3914e-05
0.011666
3.87034e-05
0.013995
5.09172e-05
0.0155568
6.58883e-05
0.0161854
7.60051e-05
0.0158275
8.07377e-05
0.0145414
8.6334e-05
0.0124938
7.69606e-05
0.00991924
6.15758e-05
0.00705281
3.85704e-05
0.00412509
1.24968e-05
0.00131111
8.13082e-05
8.15186e-05
0.000774952
-1.49651e-07
2.76792e-07
0.00159245
3.29712e-07
-3.07184e-07
0.00565963
4.38349e-06
0.0015962
8.7789e-07
0.000776013
2.53662e-07
-2.68112e-07
-8.14046e-05
8.16697e-05
1.21191e-05
0.00882033
2.63099e-05
0.0116772
4.48135e-05
0.0140005
6.29691e-05
0.0155595
7.62597e-05
0.016185
8.93529e-05
0.0158188
9.63894e-05
0.0145313
9.50583e-05
0.0124757
8.76645e-05
0.00989317
6.74963e-05
0.0070239
4.10837e-05
0.00409653
1.09142e-05
0.00130027
8.15595e-05
8.18726e-05
0.000776389
-1.37118e-07
2.34894e-07
0.00159594
3.26045e-07
-1.27885e-06
0.00566952
4.06204e-06
0.00159963
8.96982e-07
0.000777543
2.16376e-07
-2.93477e-07
-8.16044e-05
8.1922e-05
1.44418e-05
0.00883343
3.15554e-05
0.0116913
5.00745e-05
0.0140136
6.95615e-05
0.0155662
8.51149e-05
0.0161892
9.77331e-05
0.0158175
0.000108583
0.0145178
0.000104066
0.0124593
9.69308e-05
0.00986372
7.67282e-05
0.00698827
4.38579e-05
0.00406365
1.34682e-05
0.00128689
8.17848e-05
8.20263e-05
0.000778176
-1.57315e-07
2.32385e-07
0.00159813
2.88241e-07
-7.06326e-07
0.00568167
2.66608e-06
0.00160194
6.58681e-07
0.000779263
6.08049e-08
-1.37339e-07
-8.17328e-05
8.2001e-05
1.77261e-05
0.00884567
3.56725e-05
0.0117044
5.90835e-05
0.0140237
7.59979e-05
0.0155752
9.67744e-05
0.0161901
0.000111704
0.0158143
0.00012025
0.0145016
0.000122471
0.0124338
0.000108676
0.00983179
8.27403e-05
0.00694943
4.45112e-05
0.00403268
3.17725e-05
0.00125517
8.18817e-05
8.2148e-05
0.00077955
-1.48233e-07
2.52219e-07
0.00160194
-5.35094e-07
7.44448e-07
0.00569434
4.42733e-06
0.00160636
-1.6643e-06
0.000780142
2.91667e-07
-9.64301e-08
-8.20107e-05
8.21309e-05
2.24353e-05
0.00886016
4.33047e-05
0.0117212
6.32185e-05
0.0140368
8.73335e-05
0.0155847
0.000110129
0.0161917
0.000127643
0.0158069
0.000136122
0.014488
0.000131413
0.012411
0.000118225
0.00979636
8.82641e-05
0.00690574
7.51201e-05
0.00398938
7.32999e-05
8.19777e-05
8.22306e-05
0.000780018
-1.82914e-07
3.92128e-08
0.0016109
-4.15313e-06
3.30523e-06
0.00570546
7.55691e-06
0.00161022
6.28703e-06
-9.85076e-07
0.000778288
1.89968e-07
-1.84869e-07
-8.21342e-05
8.2464e-05
2.64622e-05
0.00887555
4.47418e-05
0.0117386
7.08093e-05
0.0140529
9.66145e-05
0.0155981
0.000120157
0.0161991
0.000139097
0.0158039
0.000150341
0.0144691
0.00015081
0.0123785
0.000132062
0.00975264
0.000116599
0.0068643
0.000136025
8.23073e-05
8.23642e-05
0.000458567
-1.60129e-07
-5.94577e-08
0.000315583
0.00161186
-7.55438e-07
2.34057e-06
4.47843e-06
0.00572043
7.38328e-06
0.00161521
1.40217e-06
2.78394e-06
0.000483318
-1.86075e-05
0.000489027
-6.64955e-06
-8.21793e-05
8.23851e-05
2.66555e-05
0.008895
5.2476e-05
0.011758
7.93445e-05
0.0140705
0.000112477
0.0156058
0.000140159
0.0161982
0.000159325
0.0157951
0.000169058
0.0144509
0.000165099
0.0123455
0.000157522
0.00971173
0.000180495
8.21933e-05
8.21124e-05
0.000293851
3.08269e-06
0.000490619
-2.3583e-06
0.000493574
-5.81945e-07
0.00161636
1.05065e-06
2.13084e-06
3.56933e-06
0.00573694
6.177e-06
0.00162141
7.73611e-07
1.85571e-06
0.000494328
6.04057e-07
0.00049584
1.35993e-06
0.000288468
-1.32398e-06
2.93743e-05
0.00891667
5.64129e-05
0.0117798
8.97607e-05
0.0140929
0.000122006
0.015624
0.000150956
0.0162067
0.000176423
0.0157879
0.000182105
0.0144341
0.000190458
0.0123127
0.000213043
8.51709e-05
0.0002872
-1.04062e-06
0.000286936
-3.51156e-07
0.00049625
6.33317e-07
0.000497533
8.77727e-07
0.00162292
4.00678e-07
1.59731e-06
4.82164e-06
0.00575534
6.46522e-06
0.00162699
6.07793e-07
1.44518e-06
0.000497981
2.57192e-07
0.000498975
9.39907e-07
0.0002875
7.32022e-08
0.000288738
1.18498e-07
8.38539e-05
3.25715e-05
0.00894179
6.53795e-05
0.0118052
0.000101742
0.0141136
0.0001399
0.0156352
0.000171338
0.0162116
0.000188411
0.0157813
0.000212266
0.0144122
0.000232247
8.28099e-05
8.24632e-05
0.000289179
2.76747e-07
0.000289772
2.5983e-07
0.000498746
6.33439e-07
0.00050008
2.93313e-07
0.00162966
5.43506e-07
1.3927e-06
5.29546e-06
0.00577521
6.938e-06
0.00163409
7.26426e-07
1.56223e-06
0.000500204
4.24929e-07
0.000501045
6.60467e-07
0.000289847
2.0323e-07
0.000290576
1.85111e-07
8.25337e-05
8.26765e-05
3.8022e-05
0.00896778
7.12802e-05
0.0118347
0.000114113
0.0141391
0.000153569
0.0156527
0.000182336
0.0162175
0.000216958
0.0157767
0.000238793
8.29574e-05
8.32224e-05
0.000291106
1.70047e-07
0.000291398
-3.53135e-08
0.000501256
2.92899e-07
0.000502126
5.19261e-07
0.00163718
6.3561e-07
1.47677e-06
5.03551e-06
0.00580104
7.49784e-06
0.00164168
7.84348e-07
1.56981e-06
0.000502277
4.88988e-07
0.000503554
3.45581e-07
0.00029171
1.29536e-07
0.000292205
1.33346e-07
8.34157e-05
8.36166e-05
4.11998e-05
0.00899926
8.44111e-05
0.0118654
0.000129794
0.0141626
0.000167464
0.0156669
0.000206338
0.0162278
0.000228994
8.37851e-05
8.37515e-05
0.000292417
1.29147e-07
0.000292751
1.34082e-07
0.000503416
7.61147e-07
0.000504326
5.75198e-07
0.00164399
7.39615e-07
1.75954e-06
6.84339e-06
0.00582703
8.05624e-06
0.00164928
7.40054e-07
1.7068e-06
0.000504934
1.03323e-07
0.000505819
7.22542e-07
0.000293269
-2.77068e-08
0.000293417
1.57355e-07
8.387e-05
8.40165e-05
4.83414e-05
0.00903392
9.45069e-05
0.0118989
0.000139771
0.014189
0.000182038
0.0156907
0.000205294
8.41388e-05
8.4271e-05
0.000294028
1.98485e-07
0.000294392
1.57616e-07
0.000505755
7.54559e-07
0.000507291
2.11024e-07
0.0016532
9.30071e-07
1.89886e-06
8.31265e-06
0.00585841
9.05621e-06
0.00165848
9.03459e-07
1.84509e-06
0.000507405
5.34926e-07
0.000508354
8.03398e-07
0.00029436
1.35159e-07
0.000295081
-4.45599e-08
8.42278e-05
8.43958e-05
5.76712e-05
0.00907158
0.000111085
0.0119277
0.000152824
0.014218
0.000167493
8.45864e-05
8.47403e-05
0.000295724
1.48531e-07
0.000295743
1.3332e-07
0.000508804
4.59393e-07
0.000510029
6.74093e-07
0.00166346
1.12631e-06
2.07463e-06
9.40983e-06
0.00589526
1.11299e-05
0.0016697
1.14212e-06
2.02127e-06
0.000510244
6.27086e-07
0.000511537
6.06818e-07
0.000296063
2.07843e-07
0.000296824
-7.19636e-09
8.48588e-05
8.48231e-05
7.22708e-05
0.00910929
0.000116936
0.011963
0.000125135
8.49614e-05
8.50906e-05
0.000297151
1.64968e-07
0.0002976
1.70246e-07
0.000511822
8.22571e-07
0.000513152
7.68494e-07
0.00167543
1.93105e-06
1.73227e-06
1.32165e-05
0.00593891
1.57877e-05
0.00168312
1.86221e-06
1.63534e-06
0.000513918
3.23184e-07
0.000514953
1.05547e-06
0.00029805
1.82634e-07
0.000298439
1.90232e-07
8.52799e-05
8.52781e-05
8.54146e-05
0.00914146
8.1192e-05
8.5432e-05
8.55989e-05
0.000299091
2.29634e-07
0.000299807
2.63791e-08
0.000515982
9.23816e-07
0.000517299
4.33395e-07
0.00169126
2.36029e-06
2.63718e-06
1.90139e-05
0.00598136
2.47804e-05
0.00170078
2.87888e-06
3.71212e-06
0.000518364
8.03298e-07
0.000518967
1.10242e-06
0.000299965
1.87746e-07
0.000300807
2.04639e-07
8.57688e-05
8.59746e-05
5.06518e-05
8.62026e-05
8.62386e-05
0.000301552
2.06119e-07
0.000301789
2.0308e-07
0.000520286
1.05886e-06
0.000522274
6.55626e-07
0.00171171
4.02739e-06
4.33802e-06
4.35391e-05
1.87389e-05
0.00172404
5.0181e-06
7.81263e-06
0.000523893
1.24375e-06
0.000525637
2.02653e-06
0.000302591
2.99258e-08
0.000303506
2.08784e-07
8.64205e-05
8.66311e-05
8.68401e-05
8.70535e-05
0.000304375
2.24735e-07
0.000304793
2.39819e-07
0.000527959
1.74318e-06
0.000530017
2.32823e-06
0.00174238
1.02286e-05
1.53418e-05
2.21632e-05
1.00183e-05
0.000532549
2.54595e-06
0.000536597
3.89519e-06
0.000305742
3.04759e-07
0.000307373
3.98424e-07
8.70865e-05
8.73086e-05
8.75373e-05
8.77837e-05
0.000308713
4.32677e-07
0.000310445
6.08781e-07
0.000539851
7.10347e-06
0.000544673
1.06822e-05
0.000551117
1.58455e-05
1.42596e-05
0.000312419
6.20548e-07
0.000315338
1.0292e-06
8.80843e-05
8.84899e-05
8.89246e-05
8.95462e-05
0.000320436
2.10687e-06
0.000326344
4.90568e-06
0.000331927
1.03674e-05
2.12556e-05
9.01763e-05
9.12301e-05
9.33789e-05
9.83352e-05
0.000108725
2.14322e-05
-2.14652e-05
-9.26153e-05
3.27052e-05
8.12763e-05
1.17881e-05
-3.33326e-05
-0.000114669
3.37264e-05
-0.000183948
4.53909e-05
0.000171079
2.60209e-05
5.52131e-05
6.00354e-06
-3.92779e-05
2.10584e-05
-0.000129965
-0.000203918
5.34574e-05
-3.89434e-05
-0.000619573
0.000117213
0.000585957
0.00015816
1.10541e-05
4.4185e-05
2.62885e-06
-4.20202e-05
3.45507e-05
-0.0002176
1.25779e-05
-0.000140043
0.000134663
-0.000666675
-8.2978e-05
-0.00211215
0.00197323
0.000338238
-2.48822e-05
0.0005408
-1.32454e-05
0.000144306
4.37007e-06
3.96975e-05
1.37805e-06
-4.34852e-05
2.7273e-05
-0.00023255
7.52151e-06
-0.000146287
-8.77834e-05
0.000377173
-0.00226837
-1.50755e-05
-0.000712104
-4.56448e-05
0.000233067
-2.95668e-05
-0.00303514
0.00286466
0.000507942
0.00050604
-7.30115e-06
-4.02116e-06
0.000135323
1.53271e-06
3.79302e-05
1.22927e-06
-4.47407e-05
-0.000240067
6.52897e-06
-0.000151439
0.000565859
-0.0032246
-7.63575e-05
0.000330476
-0.00247763
-4.57177e-05
-1.63293e-05
-0.000762441
-9.7095e-06
0.000411937
-3.44872e-06
-0.00361439
0.00342455
0.000697181
0.000129464
-9.0301e-07
0.000126153
3.70132e-05
9.70948e-07
-4.55286e-05
-0.000249841
4.43539e-06
-0.000154862
0.000775301
-0.0038246
0.000567508
-0.00346254
0.000289039
-0.00269018
-2.78367e-05
-5.05024e-05
-0.00079267
-5.79912e-06
-9.76689e-06
-0.000255142
0.000595226
-6.47722e-07
-0.00378127
0.00359611
0.000881576
5.90548e-07
-4.61569e-05
3.49248e-06
-0.000157819
0.000980739
-0.00398735
0.000812874
-0.00407096
0.000547412
-0.00372219
0.000273595
-0.00289572
-3.14389e-05
-3.91739e-05
0.000826721
-0.00084787
1.1357e-06
-7.92917e-06
-7.00077e-06
-9.2697e-06
0.000261417
-2.66334e-06
-0.00026453
0.000765517
-0.00350368
0.0033486
0.001036
5.10091e-07
-4.66083e-05
-0.000159934
0.00115643
-0.00368011
0.00104915
-0.00422446
0.000816724
-0.00434164
0.000525639
-0.00397614
0.000279528
-0.00308591
-4.6408e-05
-4.66188e-05
0.000879449
-0.000900874
-1.04909e-05
-7.63598e-06