/*--------------------------------*- C++ -*----------------------------------*\
| =========                 |                                                 |
| \\      /  F ield         | OpenFOAM: The Open Source CFD Toolbox           |
|  \\    /   O peration     | Version:  v1912                                 |
|   \\  /    A nd           | Website:  www.openfoam.com                      |
|    \\/     M anipulation  |                                                 |
\*---------------------------------------------------------------------------*/
FoamFile
{
    version     2.0;
    format      ascii;
    class       volScalarField;
    location    "470";
    object      p;
}
// * * * * * * * * * * * * * * * * * * * * * * * * * * * * * * * * * * * * * //

dimensions      [0 2 -2 0 0 0 0];


internalField   nonuniform List<scalar> 
3675
(
0.261977
0.259571
0.268445
0.254902
0.265503
0.286863
0.248278
0.259845
0.282398
0.320173
0.240104
0.251927
0.273975
0.312434
0.374455
0.230827
0.242318
0.262532
0.29822
0.35925
0.461211
0.22089
0.231611
0.249137
0.279686
0.332837
0.428761
0.571241
0.552614
0.210706
0.220358
0.23478
0.259112
0.300601
0.378022
0.519278
0.464121
0.669817
0.641552
0.200633
0.209028
0.220249
0.238308
0.267638
0.317984
0.406527
0.587855
0.528189
0.743316
0.729362
0.66811
0.705304
0.190976
0.19801
0.206125
0.218368
0.237034
0.264556
0.295211
0.373087
0.27301
0.630441
0.561513
0.472388
0.776491
0.757898
0.658054
0.710558
0.181984
0.187609
0.192814
0.199888
0.209743
0.221446
0.220943
0.118463
0.195693
0.231989
0.0507698
0.631635
0.531287
0.281154
0.30061
0.173859
0.178065
0.180597
0.183179
0.185907
0.186382
0.170453
0.07581
-0.28871
-0.230505
-0.00560034
0.0023716
-0.23046
-0.209952
0.60422
0.401128
0.222153
0.166761
0.169563
0.169657
0.168379
0.165414
0.157774
0.133102
0.0530859
-0.250275
-0.501546
-0.339169
-0.424956
-0.144429
-0.249125
0.160814
0.162243
0.160113
0.155521
0.148007
0.134561
0.105047
0.0353525
-0.175953
-0.40233
-0.477812
-0.546712
-0.492181
-0.437575
-0.512085
0.156121
0.156212
0.152042
0.144575
0.133382
0.115753
0.0837696
0.0210173
-0.129211
-0.31501
-0.364445
-0.437792
-0.515935
-0.448904
-0.511289
0.15276
0.151555
0.145498
0.13549
0.121249
0.100502
0.0672869
0.0101996
-0.102211
-0.245805
-0.318691
-0.3368
-0.384883
-0.401635
-0.415312
-0.456164
-0.474436
0.150799
0.14834
0.140518
0.128213
0.111356
0.0881506
0.0542476
0.00180849
-0.0868173
-0.200454
-0.276351
-0.312404
-0.321305
-0.350692
-0.364502
-0.388883
-0.43235
-0.419465
0.150291
0.146625
0.137136
0.122706
0.1035
0.0782005
0.0437569
-0.00509096
-0.0782308
-0.170293
-0.242509
-0.285065
-0.309161
-0.307882
-0.324455
-0.333922
-0.354415
-0.373004
-0.396242
-0.392523
0.151283
0.14646
0.135388
0.118947
0.0975383
0.0702892
0.0351974
-0.0110766
-0.0739582
-0.150447
-0.216599
-0.260732
-0.290778
-0.301286
-0.297293
-0.308146
-0.314634
-0.326269
-0.336965
-0.35147
-0.359932
-0.380971
-0.37065
-0.397555
-0.385834
0.153809
0.147889
0.135316
0.116939
0.0933753
0.0641644
0.0281518
-0.0165159
-0.0726009
-0.138035
-0.197869
-0.241508
-0.273006
-0.290293
-0.293075
-0.289408
-0.297166
-0.301842
-0.309477
-0.316428
-0.324651
-0.329753
-0.341843
-0.335239
-0.352238
-0.360443
-0.38118
-0.371182
0.157895
0.150951
0.136966
0.116711
0.0909727
0.0596605
0.0223304
-0.0216561
-0.0733648
-0.131039
-0.185187
-0.22728
-0.258657
-0.278894
-0.286709
-0.286567
-0.282971
-0.289136
-0.292834
-0.298245
-0.303116
-0.30857
-0.311909
-0.319411
-0.31534
-0.32516
-0.330086
-0.342295
-0.335821
0.163551
0.155678
0.140397
0.118324
0.0903468
0.0567003
0.0175445
-0.0266754
-0.0758187
-0.128149
-0.17747
-0.217436
-0.247936
-0.269159
-0.27992
-0.282801
-0.280971
-0.277127
-0.282571
-0.285822
-0.290052
-0.293791
-0.297741
-0.300112
-0.305226
-0.302483
-0.308996
-0.312202
-0.319726
-0.315768
0.170764
0.162089
0.145673
0.121873
0.0915744
0.0552842
0.0136833
-0.0317077
-0.0797759
-0.128581
-0.173948
-0.211486
-0.240611
-0.261695
-0.273941
-0.278828
-0.278733
-0.27555
-0.271223
-0.27668
-0.279783
-0.283406
-0.286594
-0.28976
-0.29162
-0.295427
-0.293405
-0.298128
-0.300398
-0.305522
-0.302861
0.179494
0.170184
0.152865
0.127488
0.094796
0.0554971
0.0107055
-0.0368603
-0.0852029
-0.131931
-0.174117
-0.209099
-0.236465
-0.2567
-0.269399
-0.275406
-0.276571
-0.274266
-0.270076
-0.26554
-0.270625
-0.274006
-0.27752
-0.280441
-0.283203
-0.284836
-0.287987
-0.286324
-0.290134
-0.291909
-0.295719
-0.293765
0.189656
0.179935
0.162042
0.135338
0.10023
0.0575132
0.00863378
-0.0422323
-0.0922102
-0.138084
-0.177717
-0.210061
-0.235332
-0.254193
-0.266587
-0.273014
-0.274888
-0.273338
-0.26954
-0.265038
-0.262312
-0.266219
-0.267213
-0.271701
-0.274816
-0.277276
-0.278873
-0.281711
-0.280178
-0.283575
-0.285122
-0.288278
-0.28668
0.201108
0.191268
0.17326
0.145629
0.108187
0.0616228
0.0075708
-0.0479174
-0.101067
-0.147188
-0.184699
-0.214277
-0.237103
-0.254141
-0.265615
-0.271879
-0.273975
-0.272863
-0.269443
-0.264981
-0.261362
-0.257104
-0.261756
-0.26439
-0.267284
-0.26699
-0.271804
-0.273459
-0.276011
-0.274495
-0.277632
-0.279126
-0.28199
-0.280532
0.213635
0.204048
0.186544
0.158604
0.119085
0.0682512
0.00773372
-0.0539976
-0.112251
-0.159681
-0.195244
-0.221767
-0.24174
-0.256517
-0.266535
-0.272103
-0.273982
-0.272962
-0.269743
-0.265272
-0.260888
-0.256342
-0.251324
-0.256334
-0.258928
-0.262215
-0.265103
-0.267549
-0.268895
-0.269814
-0.265154
-0.272827
-0.273733
-0.276197
-0.274819
0.226926
0.218054
0.201865
0.174519
0.133482
0.0780115
0.00949947
-0.0605322
-0.126541
-0.176345
-0.209767
-0.232684
-0.249272
-0.261315
-0.269382
-0.27376
-0.275
-0.273727
-0.270481
-0.26594
-0.261025
-0.255974
-0.2506
-0.245681
-0.25077
-0.253447
-0.256829
-0.259436
-0.261994
-0.263194
-0.265965
-0.264772
-0.268118
-0.272257
-0.27284
-0.262659
0.24056
0.232943
0.219102
0.193629
0.15205
0.0918096
0.013507
-0.0675839
-0.145202
-0.198409
-0.228939
-0.247307
-0.259797
-0.268564
-0.274183
-0.2769
-0.277096
-0.27523
-0.271703
-0.266985
-0.261692
-0.25616
-0.250372
-0.244955
-0.239261
-0.245123
-0.247906
-0.251343
-0.254042
-0.256637
-0.257925
-0.260494
-0.259273
-0.26228
-0.26353
-0.266358
-0.264975
-0.267846
-0.27185
-0.259156
0.254005
0.248222
0.23797
0.216146
0.175516
0.11088
0.0209282
-0.0753448
-0.170397
-0.227738
-0.253715
-0.266034
-0.273477
-0.278321
-0.280967
-0.281556
-0.280314
-0.27753
-0.27346
-0.268409
-0.262774
-0.256838
-0.250665
-0.244684
-0.239206
-0.234139
-0.234646
-0.241878
-0.245933
-0.248547
-0.251115
-0.252478
-0.255162
-0.25384
-0.256957
-0.258258
-0.260855
-0.259591
-0.26257
-0.263807
-0.266545
-0.265197
0.266637
0.26322
0.25789
0.242061
0.204816
0.136705
0.0337546
-0.0844328
-0.205913
-0.267203
-0.28538
-0.289379
-0.290528
-0.290671
-0.289762
-0.28775
-0.284683
-0.280664
-0.275797
-0.270233
-0.264202
-0.2579
-0.251393
-0.24494
-0.238866
-0.233354
-0.234682
-0.227982
-0.244864
-0.242759
-0.245585
-0.246954
-0.249646
-0.248282
-0.251421
-0.252783
-0.2555
-0.25416
-0.257262
-0.258537
-0.261153
-0.259887
0.277795
0.277115
0.277855
0.270732
0.241272
0.172175
0.0540617
-0.0966944
-0.2582
-0.321142
-0.325665
-0.317982
-0.311214
-0.305719
-0.3006
-0.295489
-0.290213
-0.284654
-0.278742
-0.272479
-0.265953
-0.259264
-0.252446
-0.245636
-0.239084
-0.232972
-0.227398
-0.228544
-0.233701
-0.23731
-0.222477
-0.24189
-0.243506
-0.239163
-0.245958
-0.247218
-0.24995
-0.248576
-0.251706
-0.253037
-0.255782
-0.25445
0.286855
0.289018
0.296423
0.300538
0.285278
0.224022
0.0844624
-0.116875
-0.338121
-0.395223
-0.376726
-0.352615
-0.335884
-0.32359
-0.313502
-0.304766
-0.296895
-0.289501
-0.282309
-0.275165
-0.268022
-0.260884
-0.253741
-0.246636
-0.239725
-0.233174
-0.227124
-0.221774
-0.223299
-0.228005
-0.230779
-0.233282
-0.235044
-0.236706
-0.238289
-0.216993
-0.240101
-0.241977
-0.247083
-0.244628
-0.246134
-0.247416
-0.2502
-0.248835
0.293302
0.298124
0.311977
0.328654
0.333975
0.295697
0.138706
-0.151396
-0.461115
-0.4954
-0.440247
-0.393913
-0.364924
-0.344438
-0.328486
-0.315555
-0.304701
-0.295187
-0.286495
-0.278295
-0.270408
-0.26274
-0.255224
-0.247835
-0.240636
-0.233735
-0.227268
-0.221406
-0.216184
-0.217954
-0.222704
-0.225422
-0.227743
-0.229188
-0.23041
-0.231725
-0.211198
-0.244457
-0.244434
0.296786
0.303837
0.323123
0.351489
0.380696
0.376672
0.241645
-0.196742
-0.628982
-0.622673
-0.51384
-0.441436
-0.398313
-0.36834
-0.34555
-0.327818
-0.313587
-0.301678
-0.291277
-0.28186
-0.273106
-0.26482
-0.256869
-0.24917
-0.241714
-0.234537
-0.227727
-0.221429
-0.215737
-0.210462
-0.212345
-0.217199
-0.220061
-0.222415
-0.223868
-0.225086
-0.226331
-0.205133
0.297144
0.30584
0.328993
0.366204
0.416208
0.460602
0.342266
0.438575
-0.0333895
0.0354081
0.365479
-0.680335
-0.397796
-0.81102
-0.749656
-0.824433
-0.583231
-0.490592
-0.434485
-0.394765
-0.364531
-0.341475
-0.323491
-0.308921
-0.296618
-0.285836
-0.276103
-0.267112
-0.25866
-0.250609
-0.24289
-0.235483
-0.228414
-0.221772
-0.215673
-0.210084
-0.204883
-0.205399
-0.211713
-0.214575
-0.216812
-0.21837
-0.219655
-0.220964
-0.201249
0.294393
0.304106
0.329358
0.37155
0.43465
0.520326
0.511856
0.577897
0.470452
0.21366
0.0723907
-0.283512
-0.224887
0.25342
-0.651683
-0.576485
-0.469674
-1.01885
-0.733348
-0.809145
-0.812211
-0.629009
-0.786313
-0.904165
-0.527647
-0.468342
-0.421408
-0.384613
-0.35626
-0.334303
-0.316847
-0.302466
-0.290187
-0.279373
-0.2696
-0.260585
-0.252133
-0.244125
-0.236497
-0.229223
-0.222334
-0.215909
-0.209999
-0.204624
-0.200347
-0.202229
-0.205972
-0.206595
-0.211803
-0.213074
-0.213978
-0.215322
-0.195904
0.2887
0.298844
0.324555
0.367866
0.435352
0.540318
0.620541
0.654613
0.564103
0.646591
0.446084
0.297252
0.0321001
0.00628666
-0.912144
-0.864556
-0.856017
-0.685537
-0.542885
-0.63224
-0.809238
-0.771575
-0.490936
-0.44333
-0.403505
-0.371308
-0.345708
-0.325327
-0.30875
-0.294863
-0.282881
-0.27226
-0.262627
-0.253729
-0.245401
-0.237537
-0.230076
-0.223
-0.216339
-0.210148
-0.204496
-0.19968
-0.195135
-0.19665
-0.20133
-0.203966
-0.206119
-0.207968
-0.204778
-0.210035
-0.190131
0.280337
0.290429
0.315317
0.356755
0.420667
0.525152
0.656779
0.627796
0.703454
0.680758
0.768494
0.454131
0.550259
0.733461
0.721032
0.645377
0.422373
0.135458
-0.894246
-0.868655
-0.705829
-0.673049
-0.570868
-0.499354
-0.537223
-0.646164
-0.615335
-0.812362
-0.772155
-0.455674
-0.417486
-0.3847
-0.35687
-0.334038
-0.315338
-0.299796
-0.286584
-0.27506
-0.264765
-0.255383
-0.246702
-0.238583
-0.23093
-0.223691
-0.216856
-0.21045
-0.204533
-0.199277
-0.194472
-0.189486
-0.190832
-0.195715
-0.198429
-0.200859
-0.202172
-0.203537
-0.20471
-0.205849
-0.208201
-0.202257
-0.184717
0.269637
0.279315
0.302523
0.34032
0.395991
0.480077
0.60453
0.757144
0.718711
0.782242
0.817812
0.825708
0.781986
-0.700238
-0.67098
-0.581017
-0.55904
-0.509373
-0.459828
-0.487632
-0.545465
-0.528505
-0.643283
-0.613199
-0.424408
-0.393995
-0.366238
-0.342244
-0.321931
-0.304862
-0.290419
-0.277962
-0.266972
-0.257075
-0.248017
-0.23962
-0.231764
-0.224366
-0.217387
-0.210819
-0.204691
-0.199097
-0.193982
-0.188929
-0.184061
-0.185418
-0.190085
-0.192795
-0.195308
-0.196729
-0.198058
-0.199349
-0.201092
-0.202395
-0.203609
-0.204736
-0.179489
0.256953
0.265972
0.287016
0.320428
0.366725
0.428226
0.498071
0.571715
0.48684
0.789419
0.76113
0.670738
0.722295
0.813012
-0.579383
-0.557144
-0.513151
-0.498429
-0.467163
-0.42631
-0.449124
-0.485808
-0.545597
-0.527585
-0.398465
-0.372255
-0.34878
-0.327918
-0.309792
-0.294274
-0.280914
-0.269216
-0.258785
-0.249328
-0.240638
-0.232564
-0.225004
-0.217891
-0.211192
-0.204904
-0.199067
-0.193673
-0.188489
-0.183501
-0.178836
-0.180165
-0.184664
-0.187325
-0.189696
-0.191102
-0.192414
-0.193758
-0.195551
-0.196961
-0.198229
-0.199502
-0.17434
0.242636
0.250846
0.26952
0.298475
0.336076
0.380148
0.417003
0.332091
0.594005
0.365172
0.386764
0.271123
0.735543
0.625226
-0.550976
-0.511868
-0.502964
-0.465569
-0.432281
-0.399482
-0.418498
-0.448227
-0.479868
-0.490981
-0.542261
-0.525746
-0.374807
-0.352751
-0.332474
-0.3141
-0.297921
-0.283819
-0.271453
-0.260484
-0.250618
-0.241622
-0.23332
-0.22559
-0.218345
-0.211531
-0.205119
-0.199112
-0.193503
-0.188167
-0.183055
-0.178256
-0.173701
-0.174993
-0.17938
-0.181999
-0.184271
-0.185643
-0.186919
-0.188236
-0.189912
-0.191298
-0.192556
-0.193879
-0.169287
0.227011
0.234339
0.250603
0.275425
0.305673
0.337182
0.356271
0.289865
0.0910747
0.118921
0.529414
0.277043
0.100008
0.102891
-0.510283
-0.501364
-0.46871
-0.459701
-0.430876
-0.404891
-0.374936
-0.392016
-0.417899
-0.444118
-0.451612
-0.35432
-0.335132
-0.317202
-0.300989
-0.286495
-0.273602
-0.262134
-0.251864
-0.242557
-0.234022
-0.226116
-0.218738
-0.211815
-0.205301
-0.199171
-0.193407
-0.187938
-0.18271
-0.177776
-0.173118
-0.168659
-0.169919
-0.174203
-0.176779
-0.178987
-0.180332
-0.181583
-0.182871
-0.184477
-0.185824
-0.187043
-0.188333
-0.164339
0.21038
0.216788
0.230679
0.251893
0.276308
0.298993
0.307918
0.258452
0.109036
0.0595335
0.0526073
0.0706156
0.103587
0.0652295
-0.433012
-0.427648
-0.403647
-0.379761
-0.354216
-0.36824
-0.391077
-0.413405
-0.42068
-0.33618
-0.318847
-0.303089
-0.288677
-0.275522
-0.26367
-0.253035
-0.243427
-0.234657
-0.226573
-0.21906
-0.212031
-0.205427
-0.199203
-0.193331
-0.187756
-0.182435
-0.177384
-0.172613
-0.168071
-0.163721
-0.164948
-0.169129
-0.171661
-0.173812
-0.175131
-0.176359
-0.177625
-0.179187
-0.180507
-0.1817
-0.182958
-0.159491
0.193037
0.198456
0.209997
0.228219
0.248292
0.265064
0.268538
0.231496
0.129214
0.0704543
0.0621252
0.0402774
0.0506438
0.0698198
0.041354
-0.429558
-0.426588
-0.405814
-0.399365
-0.378832
-0.358177
-0.335528
-0.348441
-0.367301
-0.387186
-0.393422
-0.412578
-0.419611
-0.319354
-0.3041
-0.290131
-0.277017
-0.26498
-0.254079
-0.244207
-0.23521
-0.22695
-0.219302
-0.212171
-0.205483
-0.199184
-0.193232
-0.187581
-0.182189
-0.177052
-0.172179
-0.167543
-0.163126
-0.158882
-0.160077
-0.164158
-0.166647
-0.168741
-0.170034
-0.17124
-0.172484
-0.174004
-0.175298
-0.17647
-0.177707
-0.154738
0.175085
0.179579
0.188611
0.204526
0.221645
0.234762
0.235866
0.208076
0.138389
0.0868984
0.0695682
0.0584393
0.0503017
0.0557665
0.0504558
0.0328614
-0.404831
-0.398742
-0.380814
-0.375055
-0.357412
-0.338812
-0.318819
-0.327416
-0.347868
-0.363598
-0.369653
-0.386566
-0.392578
-0.304253
-0.290827
-0.277943
-0.265929
-0.25492
-0.244859
-0.235663
-0.227235
-0.219458
-0.212227
-0.205462
-0.199098
-0.193086
-0.18738
-0.181937
-0.176741
-0.171792
-0.167075
-0.162578
-0.158283
-0.154131
-0.155304
-0.159286
-0.161734
-0.163773
-0.16504
-0.166223
-0.167445
-0.168925
-0.170193
-0.171343
-0.172559
-0.150067
0.156411
0.160329
0.166378
0.180758
0.196221
0.20744
0.208116
0.18771
0.139401
0.0980789
0.0792383
0.0648723
0.0581097
0.0614072
0.0437468
0.056387
0.0502343
0.0511776
0.0455442
-0.37989
-0.37457
-0.359142
-0.354191
-0.338117
-0.317126
-0.303674
-0.331873
-0.344719
-0.349555
-0.362877
-0.369814
-0.290942
-0.278295
-0.266427
-0.255472
-0.245331
-0.23599
-0.227417
-0.219518
-0.212192
-0.205354
-0.198934
-0.192875
-0.187128
-0.181651
-0.176419
-0.171419
-0.166643
-0.162079
-0.157719
-0.153526
-0.149452
-0.150629
-0.154508
-0.156921
-0.158904
-0.160147
-0.16131
-0.16251
-0.163949
-0.165192
-0.166321
-0.167515
-0.145466
0.140089
0.140082
0.143158
0.156784
0.171829
0.18252
0.184012
0.169683
0.136097
0.103663
0.0854695
0.0697305
0.0591256
0.0576992
0.0598072
0.055342
0.0525222
0.0525693
0.0472124
0.0478606
-0.359307
-0.353692
-0.339362
-0.333725
-0.320755
-0.302432
-0.31244
-0.290578
-0.329974
-0.344146
-0.348908
-0.360628
-0.278182
-0.266484
-0.255701
-0.245576
-0.236158
-0.227479
-0.219474
-0.212059
-0.205153
-0.198684
-0.192587
-0.186812
-0.181313
-0.176059
-0.171032
-0.16622
-0.161608
-0.157191
-0.152951
-0.148848
-0.144839
-0.146086
-0.149812
-0.152204
-0.154131
-0.155352
-0.156494
-0.157674
-0.159074
-0.160293
-0.161402
-0.162574
-0.140817
0.138662
0.11712
0.119155
0.132765
0.148438
0.159609
0.162688
0.153483
0.130403
0.105649
0.0891279
0.0740269
0.06144
0.054483
0.0551882
0.0574235
0.0559584
0.0567822
0.0530911
0.0531422
0.0503152
0.0506968
-0.358125
-0.352977
-0.339129
-0.336294
-0.321693
-0.317719
-0.304679
-0.289727
-0.298513
-0.314016
-0.310706
-0.277667
-0.330922
-0.32636
-0.343568
-0.348183
-0.266168
-0.255648
-0.24559
-0.236146
-0.227405
-0.219321
-0.211826
-0.204857
-0.198342
-0.192215
-0.186419
-0.180908
-0.175645
-0.170608
-0.165778
-0.161141
-0.156689
-0.152411
-0.14828
-0.144262
-0.140309
-0.141378
-0.145254
-0.147594
-0.149434
-0.150644
-0.15177
-0.152935
-0.154296
-0.155493
-0.156582
-0.157733
-0.136514
0.155499
0.0944206
0.0952332
0.109987
0.126602
0.13869
0.143663
0.138836
0.123473
0.105074
0.0908545
0.0773222
0.0644723
0.0558809
0.0499556
0.051744
0.0541537
0.0541878
0.0557943
0.054653
0.0549062
0.0546509
0.0548129
0.051688
0.0517105
-0.338473
-0.335213
-0.305293
-0.303242
-0.292011
-0.276791
-0.285396
-0.299843
-0.296382
-0.2655
-0.255369
-0.245404
-0.23596
-0.227199
-0.219061
-0.211493
-0.204463
-0.197905
-0.191753
-0.185944
-0.180427
-0.175164
-0.170128
-0.165296
-0.160652
-0.156187
-0.151887
-0.147738
-0.143718
-0.139812
-0.136092
-0.136905
-0.140526
-0.143053
-0.144848
-0.146054
-0.14713
-0.148282
-0.149598
-0.15078
-0.151853
-0.152988
-0.13275
0.0855991
0.0737502
0.0913911
0.108021
0.120457
0.126958
0.125691
0.116111
0.10282
0.0910142
0.0792849
0.067345
0.0580338
0.0510726
0.0448023
0.0477516
0.0503828
0.0511187
0.0530932
0.0531283
0.0538515
0.0548824
0.0544426
0.0539589
0.054181
0.0535217
0.0538887
-0.303183
-0.30251
-0.292883
-0.289705
-0.278977
-0.264545
-0.272774
-0.286585
-0.283225
-0.299464
-0.296055
-0.254883
-0.245048
-0.235627
-0.226887
-0.218713
-0.211075
-0.20398
-0.197377
-0.191201
-0.185381
-0.179864
-0.174609
-0.169582
-0.16476
-0.160123
-0.155659
-0.151356
-0.147204
-0.143187
-0.139303
-0.135604
-0.132176
-0.133286
-0.13653
-0.138083
-0.1402
-0.14151
-0.142603
-0.143741
-0.145
-0.146172
-0.147211
-0.148329
-0.128589
0.0588295
0.0792989
0.0951397
0.106381
0.113209
0.114309
0.108925
0.0996427
0.0901033
0.0800904
0.0694522
0.0603061
0.0528908
0.0466522
0.0441697
0.0421762
0.0455997
0.0477742
0.0496843
0.0500898
0.0510952
0.0527251
0.0518905
0.0527242
0.0534105
0.0542709
0.0539488
-0.292202
-0.289205
-0.279812
-0.276776
-0.266464
-0.254174
-0.261128
-0.273962
-0.270808
-0.286298
-0.282981
-0.244525
-0.235155
-0.226503
-0.218315
-0.210605
-0.203431
-0.196774
-0.190565
-0.184731
-0.179216
-0.173972
-0.168962
-0.164158
-0.159538
-0.155088
-0.150796
-0.146653
-0.142647
-0.138779
-0.135081
-0.131592
-0.128079
-0.129033
-0.132483
-0.13457
-0.136256
-0.13723
-0.13833
-0.138239
-0.141246
-0.141797
-0.142717
-0.143749
-0.124413
0.0725804
0.0885016
0.0976933
0.103372
0.10526
0.102487
0.0961453
0.0885691
0.0800927
0.0707795
0.0622029
0.0548523
0.0485452
0.0448592
0.041108
0.0429171
0.0443129
0.0398823
0.0457492
0.0467371
0.0478894
0.0495277
0.0484609
0.0498089
0.0507441
0.0522949
0.0515729
-0.279145
-0.276303
-0.267515
-0.264254
-0.256059
-0.243777
-0.250418
-0.262167
-0.259465
-0.27363
-0.270619
-0.234527
-0.226041
-0.217898
-0.210116
-0.202851
-0.196124
-0.189867
-0.184006
-0.178485
-0.173252
-0.168262
-0.163482
-0.158888
-0.154461
-0.150191
-0.146066
-0.14208
-0.138229
-0.134533
-0.131007
-0.127528
-0.123945
-0.124842
-0.12827
-0.130311
-0.132065
-0.133089
-0.134159
-0.135156
-0.136369
-0.137572
-0.139207
-0.137751
-0.12043
0.0860048
0.0937184
0.0977325
0.0990747
0.0973514
0.092834
0.0867689
0.0795874
0.0714803
0.0636141
0.0565648
0.0502708
0.0456815
0.0417276
0.0376689
0.039465
0.0410009
0.0426129
0.0444981
0.0442278
0.0365643
0.0464369
0.0465671
0.0464766
0.0474206
0.0491351
0.0481995
-0.267542
-0.263605
-0.256781
-0.25406
-0.245458
-0.233729
-0.240426
-0.251157
-0.247527
-0.262455
-0.259265
-0.22547
-0.217452
-0.20963
-0.202281
-0.195475
-0.189144
-0.18323
-0.177687
-0.172455
-0.167483
-0.162729
-0.158165
-0.153769
-0.149527
-0.145429
-0.141468
-0.137641
-0.133955
-0.130414
-0.126951
-0.123441
-0.119965
-0.120858
-0.124166
-0.126167
-0.127898
-0.12893
-0.129944
-0.130952
-0.132169
-0.133205
-0.134212
-0.13524
-0.136395
-0.13744
-0.138908
-0.136154
-0.116575
0.0925103
0.0952491
0.0955919
0.0938295
0.0901063
0.0850013
0.0788083
0.0717152
0.0645589
0.057909
0.0517742
0.0466878
0.0423432
0.0381642
0.034657
0.0364465
0.0378976
0.0390534
0.0405402
0.0416768
0.0424635
0.0445712
0.0438781
0.0330821
0.0454299
0.0471942
-0.262215
-0.25632
-0.253658
-0.244661
-0.235531
-0.22477
-0.230546
-0.239881
-0.251142
-0.249425
-0.261812
-0.258799
-0.21693
-0.209133
-0.201738
-0.194868
-0.188448
-0.182448
-0.176849
-0.171596
-0.16663
-0.161899
-0.157366
-0.153005
-0.148798
-0.144734
-0.140803
-0.137004
-0.133336
-0.129797
-0.126349
-0.122903
-0.11947
-0.116116
-0.11699
-0.120192
-0.122152
-0.123812
-0.124826
-0.125812
-0.126815
-0.128009
-0.129044
-0.130032
-0.131052
-0.132265
-0.133288
-0.1343
-0.135308
-0.112812
0.0943827
0.0939071
0.0917062
0.0881176
0.0834719
0.0779369
0.0716303
0.0651087
0.0588704
0.0529881
0.0477484
0.0431203
0.038781
0.0351087
0.0319515
0.0336567
0.0350343
0.0361487
0.0375874
0.0385162
0.0391641
0.0406317
0.0398991
-0.255893
-0.253352
-0.245609
-0.242983
-0.235015
-0.226309
-0.21625
-0.221965
-0.229907
-0.238243
-0.240744
-0.250783
-0.248724
-0.208585
-0.201194
-0.194318
-0.187823
-0.181712
-0.176019
-0.17071
-0.165725
-0.161001
-0.156494
-0.152168
-0.147999
-0.143973
-0.140079
-0.136311
-0.132667
-0.129144
-0.125718
-0.122327
-0.118947
-0.115627
-0.112367
-0.113214
-0.116323
-0.118242
-0.119842
-0.120833
-0.121792
-0.122775
-0.123917
-0.12493
-0.125895
-0.126906
-0.128098
-0.12912
-0.13013
-0.131144
-0.109145
0.0930029
0.0903928
0.0867048
0.0822177
0.0770707
0.0713344
0.0653428
0.0594871
0.0538805
0.0486925
0.0439648
0.0395304
0.0356566
0.0323772
0.0295808
0.0297903
0.0323907
0.0334956
0.0347858
0.0356377
0.0362869
0.0377471
0.0370125
-0.235647
-0.233339
-0.225917
-0.217705
-0.207917
-0.213437
-0.221519
-0.22823
-0.231206
-0.200603
-0.193795
-0.187277
-0.18106
-0.175248
-0.169845
-0.164802
-0.160057
-0.155557
-0.151259
-0.147128
-0.143143
-0.139289
-0.135558
-0.131945
-0.128447
-0.125048
-0.121705
-0.118384
-0.115109
-0.111887
-0.108708
-0.109544
-0.11255
-0.114429
-0.11598
-0.116948
-0.117882
-0.118843
-0.119944
-0.12093
-0.121868
-0.122854
-0.123999
-0.124996
-0.125985
-0.126987
0.089345
0.0855207
0.0811121
0.0762013
0.0708745
0.0653162
0.0598049
0.0544666
0.0494236
0.0447343
0.0403069
0.0363021
0.0328461
0.0298892
0.027386
0.0286657
0.0298042
0.0286739
0.0264307
0.0327021
0.0329729
0.0335528
0.0349174
0.0342287
-0.226753
-0.224372
-0.217141
-0.209339
-0.199932
-0.20527
-0.212951
-0.220042
-0.222218
-0.227129
-0.193253
-0.186785
-0.180496
-0.174572
-0.169055
-0.163916
-0.159107
-0.15458
-0.150289
-0.146188
-0.142243
-0.138431
-0.134741
-0.131165
-0.127699
-0.12433
-0.121032
-0.117772
-0.114552
-0.111374
-0.108236
-0.110712
-0.112211
-0.11316
-0.114073
-0.11501
-0.11608
-0.117041
-0.117955
-0.118915
-0.120022
-0.120991
-0.121953
-0.122927
0.0843318
0.0799487
0.075249
0.0702331
0.0650391
0.0598473
0.054772
0.0499137
0.0453388
0.0410024
0.0369781
0.0334006
0.0302911
0.0276524
0.0253215
0.0264675
0.0276666
0.0282436
0.0287087
0.0292182
0.0295009
0.0295971
0.0356328
0.0325217
0.0319083
-0.226282
-0.223938
-0.217755
-0.215665
-0.208814
-0.201342
-0.192639
-0.197384
-0.204861
-0.211566
-0.213659
-0.21974
-0.221871
-0.186323
-0.179986
-0.173991
-0.168377
-0.163123
-0.158206
-0.153605
-0.149285
-0.145191
-0.141276
-0.137506
-0.133859
-0.130324
-0.126894
-0.12356
-0.120305
-0.117103
-0.113943
-0.110818
-0.107728
-0.110342
-0.111268
-0.11231
-0.11325
-0.114142
-0.115079
-0.116156
-0.1171
-0.118036
-0.118984
0.0786529
0.0740882
0.0693701
0.0644936
0.0596115
0.054806
0.0501565
0.0457385
0.0415405
0.0375912
0.0339786
0.0307503
0.0279408
0.0254534
0.0231622
0.0244071
0.0256176
0.0260913
0.026635
0.0271762
0.0277798
0.0281575
0.0285828
0.0290152
0.0292874
0.0293394
0.0323504
-0.217417
-0.215399
-0.209421
-0.207402
-0.200913
-0.19383
-0.185545
-0.190194
-0.196942
-0.203513
-0.205529
-0.211302
-0.213344
-0.179519
-0.173467
-0.167807
-0.162458
-0.157406
-0.152685
-0.148288
-0.144166
-0.140258
-0.136517
-0.132911
-0.12942
-0.126032
-0.122737
-0.119524
-0.116375
-0.113273
-0.11021
-0.107177
-0.110416
-0.111335
-0.112383
-0.113308
-0.114222
-0.115145
0.0727291
0.068215
0.0636726
0.0590863
0.0545593
0.0501473
0.0459156
0.0418819
0.038063
0.0345035
0.0312371
0.0283044
0.0256695
0.023159
0.0200575
0.0224798
0.0236564
0.0240015
0.0245916
0.0250854
0.0256954
0.0260413
0.0265546
0.0270694
0.0276448
0.0280862
0.0284811
0.0288993
0.0291149
-0.209093
-0.20715
-0.201503
-0.199549
-0.193431
-0.18648
-0.178907
-0.181827
-0.189883
-0.195571
-0.197671
-0.203247
-0.205206
-0.172959
-0.167303
-0.161914
-0.156737
-0.151872
-0.147355
-0.143157
-0.139216
-0.13548
-0.131903
-0.128453
-0.125109
-0.121857
-0.118687
-0.115587
-0.112542
-0.109541
-0.106571
-0.11049
-0.111398
0.0668319
0.0625324
0.0582766
0.0540266
0.0498742
0.0458579
0.04201
0.0383487
0.034903
0.0316864
0.0287209
0.0260131
0.0234791
0.0209884
0.0206087
0.0190857
0.0210004
0.0221843
0.0228115
0.0230617
0.0236875
0.0239668
0.0245074
0.0249799
0.0255491
0.0259856
0.0264724
0.0270174
0.0275636
-0.201157
-0.199334
-0.19397
-0.192213
-0.186331
-0.177897
-0.172371
-0.183768
-0.188699
-0.190466
-0.19524
-0.197729
-0.166798
-0.161449
-0.156191
-0.151193
-0.146535
-0.142219
-0.138198
-0.134427
-0.130852
-0.12743
-0.124127
-0.12092
-0.117796
-0.114743
-0.11175
-0.108808
-0.105903
0.0611553
0.0571494
0.0532262
0.0493323
0.0455541
0.0419136
0.0384298
0.0351311
0.0320232
0.0291114
0.0264098
0.0239243
0.0217451
0.0208191
0.0193962
0.0201597
0.0204239
0.0202235
0.017814
0.0206171
0.0218384
0.0222995
0.022663
0.0229594
0.0235064
0.0239178
0.0244303
0.0249318
0.0254644
-0.194043
-0.191997
-0.186824
-0.185133
-0.1792
-0.171656
-0.175883
-0.166213
-0.181501
-0.183741
-0.188428
-0.190206
-0.194269
-0.161001
-0.155725
-0.150635
-0.145852
-0.141402
-0.137259
-0.133402
-0.129788
-0.126366
-0.123091
-0.119926
-0.116848
-0.113843
-0.110901
-0.108014
-0.10517
0.0557984
0.0521282
0.0485428
0.0450065
0.0415862
0.0382997
0.0351674
0.0322002
0.029398
0.0267695
0.0243439
0.0222404
0.0209289
0.0195616
0.0175528
0.0185948
0.0192608
0.0196943
0.0199319
0.0203964
0.020573
0.0224056
0.0153436
0.0229103
0.0219396
0.0221875
0.0224957
0.0228967
0.0234125
-0.193555
-0.191668
-0.186582
-0.184883
-0.182279
-0.179782
-0.178081
-0.172728
-0.165553
-0.169589
-0.176548
-0.174807
-0.160504
-0.183334
-0.188163
-0.189897
-0.155272
-0.150153
-0.14529
-0.140729
-0.136447
-0.132461
-0.128757
-0.125295
-0.12202
-0.118881
-0.115845
-0.112888
-0.109997
-0.107162
-0.104374
0.0508198
0.0474776
0.0442361
0.0410362
0.0379577
0.0350065
0.0321973
0.0295326
0.0270188
0.0246781
0.0225999
0.0210375
0.0196012
0.0177361
0.016047
0.0169901
0.0176891
0.0182821
0.018557
0.0189139
0.0192414
0.0195447
0.0198233
0.0202677
0.0209081
0.0123758
0.0227265
0.0214738
-0.186302
-0.184672
-0.181751
-0.173071
-0.171554
-0.166402
-0.15991
-0.163691
-0.170135
-0.16881
-0.154765
-0.183073
-0.149691
-0.144804
-0.140184
-0.135782
-0.131652
-0.127816
-0.124265
-0.120947
-0.117805
-0.114795
-0.11188
-0.109038
-0.106255
-0.103522
0.0462222
0.0432108
0.0402877
0.0374122
0.03465
0.0320108
0.0294955
0.0271152
0.024884
0.0228551
0.0211642
0.0196427
0.0178955
0.0162434
0.0147789
0.0155572
0.0162111
0.0167308
0.0170311
0.0174033
0.0178172
0.0182517
0.018522
0.0188468
0.0191864
-0.166703
-0.165672
-0.160826
-0.154141
-0.157904
-0.164199
-0.162706
-0.1492
-0.144327
-0.139721
-0.135249
-0.13099
-0.127007
-0.123328
-0.119918
-0.116731
-0.113716
-0.110828
-0.108028
-0.105295
-0.102615
0.0420125
0.0393085
0.0366875
0.0341111
0.0316443
0.0292854
0.0270472
0.0249376
0.0229869
0.0212615
0.019689
0.0180287
0.0164222
0.0149899
0.0136137
0.0142912
0.0148963
0.015315
0.0155877
0.0159292
0.0163184
0.0166976
0.0169878
0.0173534
0.0177865
-0.165787
-0.165303
-0.161193
-0.159784
-0.155036
-0.148638
-0.152229
-0.158379
-0.156901
-0.163994
-0.162518
-0.143804
-0.139278
-0.1348
-0.130455
-0.126345
-0.122526
-0.118989
-0.115709
-0.112645
-0.10975
-0.106976
-0.104286
-0.101655
0.038172
0.035752
0.0334143
0.031113
0.0289108
0.0268171
0.0248334
0.0229804
0.0212847
0.0197104
0.0181214
0.0165711
0.0151622
0.0138228
0.0125305
0.0131396
0.0137062
0.0140536
0.0143204
0.0146198
0.0149705
0.0152715
0.0155344
0.0158688
0.0162661
-0.160889
-0.159534
-0.155404
-0.154034
-0.149502
-0.143222
-0.146791
-0.152705
-0.151271
-0.158214
-0.156742
-0.138805
-0.134375
-0.130001
-0.12581
-0.121872
-0.1182
-0.11479
-0.111628
-0.108682
-0.1059
-0.103237
-0.100649
0.0346772
0.0325247
0.0304401
0.0283901
0.0264367
0.0245802
0.0228326
0.0212053
0.0196741
0.0181588
0.0166742
0.015294
0.0139871
0.012733
0.0115294
0.0120696
0.0126126
0.0129186
0.013163
0.0134316
0.0137672
0.014011
0.0142654
0.014559
0.0149093
-0.155108
-0.153797
-0.149842
-0.148505
-0.144078
-0.138291
-0.141441
-0.147241
-0.145851
-0.152537
-0.151112
-0.13392
-0.129576
-0.125357
-0.121347
-0.117562
-0.114013
-0.110716
-0.107672
-0.104839
-0.102168
-0.0996048
0.0315092
0.0295942
0.0277462
0.0259255
0.0241929
0.022553
0.0210128
0.0195522
0.0181232
0.0167179
0.0153821
0.0141095
0.0128883
0.0117257
0.0106003
0.0110768
0.0116004
0.0118638
0.0120905
0.0123538
0.012652
0.0128796
0.01311
0.013368
0.0137047
-0.149548
-0.14827
-0.144433
-0.143124
-0.139078
-0.133386
-0.136565
-0.14178
-0.14066
-0.147054
-0.145673
-0.129126
-0.124933
-0.1209
-0.117054
-0.113388
-0.109946
-0.106769
-0.103838
-0.101116
-0.0985452
0.0286382
0.0269453
0.0253043
0.0236906
0.0221578
0.020711
0.0193337
0.0179981
0.0166855
0.0154159
0.0141893
0.0130007
0.0118658
0.0107813
0.00971536
0.0101376
0.0106587
0.0108796
0.0111027
0.0113471
0.0116276
0.011828
0.0120387
0.012292
0.0125869
-0.144153
-0.143076
-0.139423
-0.138178
-0.134132
-0.128603
-0.131635
-0.136947
-0.135685
-0.141643
-0.140661
-0.124492
-0.120476
-0.116628
-0.112889
-0.109327
-0.106007
-0.102946
-0.100128
-0.0975061
0.026044
0.0245424
0.0230944
0.0216652
0.0203097
0.0190216
0.0177786
0.0165636
0.0153774
0.0142157
0.0130724
0.011964
0.0108943