/*--------------------------------*- C++ -*----------------------------------*\
| =========                 |                                                 |
| \\      /  F ield         | OpenFOAM: The Open Source CFD Toolbox           |
|  \\    /   O peration     | Version:  v1912                                 |
|   \\  /    A nd           | Website:  www.openfoam.com                      |
|    \\/     M anipulation  |                                                 |
\*---------------------------------------------------------------------------*/
FoamFile
{
    version     2.0;
    format      ascii;
    class       volScalarField;
    location    "390";
    object      p;
}
// * * * * * * * * * * * * * * * * * * * * * * * * * * * * * * * * * * * * * //

dimensions      [0 2 -2 0 0 0 0];


internalField   nonuniform List<scalar> 
3675
(
0.258843
0.256433
0.265309
0.251761
0.262363
0.283722
0.245135
0.256702
0.279253
0.317025
0.236961
0.248781
0.270825
0.30928
0.3713
0.227683
0.239171
0.259379
0.295061
0.356087
0.458052
0.217748
0.228465
0.245983
0.276523
0.329665
0.425587
0.568087
0.549447
0.207566
0.217212
0.231625
0.255946
0.297423
0.374835
0.5161
0.460929
0.666668
0.638385
0.197497
0.205886
0.217095
0.235139
0.264454
0.314786
0.403314
0.584669
0.524989
0.740174
0.726207
0.664927
0.702135
0.187845
0.194871
0.202972
0.215199
0.233847
0.261351
0.29198
0.369831
0.26974
0.627247
0.558303
0.469149
0.773348
0.754738
0.654851
0.707373
0.178861
0.184475
0.189664
0.196719
0.206553
0.218234
0.217703
0.115162
0.192381
0.228678
0.0474301
0.628427
0.528052
0.277852
0.297308
0.170745
0.174939
0.177452
0.180012
0.182717
0.183166
0.167207
0.0725124
-0.292127
-0.233898
-0.00896392
-0.000993448
-0.233869
-0.213361
0.600994
0.397848
0.218834
0.163657
0.166445
0.166519
0.165216
0.162224
0.154555
0.129851
0.0497898
-0.253665
-0.505011
-0.342601
-0.428396
-0.147826
-0.252541
0.157723
0.159136
0.156982
0.152362
0.144818
0.13134
0.101792
0.0320547
-0.179322
-0.405764
-0.481266
-0.550186
-0.495648
-0.441018
-0.515556
0.153044
0.153118
0.148921
0.141422
0.130195
0.11253
0.0805099
0.0177155
-0.13257
-0.318425
-0.367871
-0.441232
-0.5194
-0.452346
-0.514749
0.149702
0.148476
0.142388
0.132344
0.118065
0.0972782
0.0640227
0.00689248
-0.105569
-0.249211
-0.322112
-0.340214
-0.388309
-0.405067
-0.418747
-0.459607
-0.477885
0.147761
0.14528
0.137423
0.125077
0.108175
0.0849261
0.0509787
-0.00150533
-0.090179
-0.20386
-0.279775
-0.315821
-0.324705
-0.354105
-0.367923
-0.392311
-0.435789
-0.4229
0.147277
0.143586
0.134058
0.119581
0.100325
0.0749759
0.0404831
-0.0084128
-0.0816002
-0.173704
-0.245943
-0.288494
-0.31257
-0.311265
-0.327852
-0.337327
-0.35783
-0.376427
-0.39967
-0.395952
0.148297
0.143445
0.13233
0.115835
0.0943703
0.0670649
0.0319182
-0.0144079
-0.0773384
-0.153869
-0.220045
-0.264178
-0.294204
-0.304679
-0.300654
-0.311524
-0.318023
-0.329667
-0.340372
-0.354883
-0.36335
-0.384396
-0.374071
-0.400984
-0.389262
0.150855
0.144902
0.13228
0.113843
0.0902155
0.0609409
0.0248667
-0.0198583
-0.075995
-0.141472
-0.201333
-0.244976
-0.276456
-0.293708
-0.296446
-0.292742
-0.300521
-0.30521
-0.312856
-0.319818
-0.328048
-0.333155
-0.345253
-0.338645
-0.355652
-0.363861
-0.384606
-0.374604
0.154977
0.147997
0.133956
0.113633
0.0878229
0.0564384
0.0190389
-0.0250113
-0.0767756
-0.134495
-0.188671
-0.230772
-0.262134
-0.282338
-0.290103
-0.289911
-0.286272
-0.292463
-0.296176
-0.301602
-0.306485
-0.311948
-0.315293
-0.322804
-0.318729
-0.328558
-0.333488
-0.345705
-0.339228
0.160673
0.152761
0.137418
0.115268
0.087209
0.0534801
0.0142456
-0.0300455
-0.0792495
-0.131627
-0.180979
-0.220955
-0.251443
-0.272636
-0.283348
-0.286169
-0.284282
-0.28039
-0.285864
-0.289134
-0.293381
-0.297135
-0.301097
-0.303474
-0.308599
-0.30585
-0.312375
-0.315587
-0.32312
-0.319157
0.167933
0.159214
0.14273
0.118842
0.0884508
0.0520666
0.0103758
-0.0350954
-0.0832306
-0.132087
-0.177486
-0.215037
-0.244152
-0.265208
-0.277408
-0.282233
-0.282069
-0.278822
-0.274443
-0.279934
-0.283058
-0.286702
-0.289907
-0.293087
-0.294955
-0.298776
-0.296747
-0.301485
-0.303761
-0.308896
-0.30623
0.176716
0.167358
0.149963
0.124487
0.0916893
0.0522828
0.00738799
-0.0402688
-0.088686
-0.13547
-0.177689
-0.212685
-0.240044
-0.260253
-0.272907
-0.278854
-0.279945
-0.277563
-0.273305
-0.268712
-0.273834
-0.277239
-0.280776
-0.283718
-0.286497
-0.288139
-0.291306
-0.289635
-0.293462
-0.295245
-0.299069
-0.297108
0.186937
0.177164
0.159186
0.132372
0.0971439
0.0543029
0.00530434
-0.0456657
-0.0957275
-0.141661
-0.181329
-0.213687
-0.238952
-0.257788
-0.27014
-0.276509
-0.278309
-0.276675
-0.272793
-0.268218
-0.265428
-0.269377
-0.270401
-0.274914
-0.278051
-0.28053
-0.282138
-0.284995
-0.283453
-0.28687
-0.288426
-0.291599
-0.289992
0.198456
0.18856
0.170457
0.142704
0.105125
0.0584174
0.00422693
-0.0513811
-0.104626
-0.150811
-0.188359
-0.217949
-0.240769
-0.257783
-0.269215
-0.275422
-0.277447
-0.27625
-0.272738
-0.268185
-0.264487
-0.260161
-0.264859
-0.267522
-0.270445
-0.270182
-0.275014
-0.276679
-0.279254
-0.277727
-0.280887
-0.282392
-0.285275
-0.283808
0.211058
0.20141
0.183803
0.155726
0.116052
0.0650519
0.00437233
-0.0574987
-0.115862
-0.163361
-0.19896
-0.225492
-0.245458
-0.260209
-0.270186
-0.275699
-0.277508
-0.276405
-0.273091
-0.268519
-0.264038
-0.259407
-0.254319
-0.259378
-0.262003
-0.265321
-0.268237
-0.270704
-0.272064
-0.273013
-0.268344
-0.276037
-0.276955
-0.279442
-0.278053
0.224432
0.215495
0.199195
0.171698
0.130484
0.0748199
0.00611677
-0.0640799
-0.130217
-0.180094
-0.213548
-0.236471
-0.253047
-0.265063
-0.273088
-0.27741
-0.278582
-0.277227
-0.273887
-0.269242
-0.264219
-0.259066
-0.253603
-0.24861
-0.25375
-0.256461
-0.259876
-0.262514
-0.265096
-0.26631
-0.269108
-0.267901
-0.271274
-0.275422
-0.276036
-0.265858
0.238157
0.230472
0.216512
0.190874
0.149095
0.0886283
0.0100985
-0.0711911
-0.148963
-0.202246
-0.2328
-0.251166
-0.263638
-0.272373
-0.277948
-0.280608
-0.280736
-0.27879
-0.275171
-0.270349
-0.264943
-0.259297
-0.253402
-0.247892
-0.242124
-0.248036
-0.250854
-0.254327
-0.257058
-0.259679
-0.260982
-0.263582
-0.262345
-0.265383
-0.266648
-0.269503
-0.268106
-0.271005
-0.275016
-0.262358
0.251702
0.245848
0.235474
0.21347
0.172615
0.107714
0.0174891
-0.0790305
-0.174271
-0.231686
-0.257672
-0.269977
-0.277393
-0.282199
-0.284796
-0.285327
-0.284016
-0.281152
-0.276992
-0.271839
-0.266091
-0.260035
-0.253741
-0.247649
-0.242076
-0.236931
-0.237503
-0.244758
-0.248849
-0.251498
-0.254093
-0.255473
-0.258189
-0.256851
-0.260001
-0.261317
-0.263944
-0.262666
-0.265675
-0.266926
-0.269691
-0.26833
0.264441
0.260954
0.255498
0.23948
0.201984
0.133562
0.0302803
-0.0882282
-0.209944
-0.271296
-0.289456
-0.29342
-0.294529
-0.294625
-0.293662
-0.291588
-0.28845
-0.284352
-0.279395
-0.273731
-0.26759
-0.261166
-0.254531
-0.247952
-0.241763
-0.236155
-0.237476
-0.230707
-0.247692
-0.245642
-0.248496
-0.249882
-0.252608
-0.251226
-0.254402
-0.255779
-0.258529
-0.257172
-0.260308
-0.261599
-0.264244
-0.262964
0.275712
0.274964
0.275581
0.268265
0.23853
0.169068
0.0505437
-0.10065
-0.262456
-0.325427
-0.329888
-0.32214
-0.315313
-0.309759
-0.304577
-0.299399
-0.294049
-0.288409
-0.282409
-0.276047
-0.269413
-0.262604
-0.255658
-0.248713
-0.24203
-0.2358
-0.23013
-0.231274
-0.23649
-0.240133
-0.225129
-0.244738
-0.2464
-0.242051
-0.24887
-0.250148
-0.252913
-0.251523
-0.254689
-0.256035
-0.258812
-0.257464
0.284891
0.286989
0.29428
0.298206
0.282657
0.220983
0.0808813
-0.121066
-0.342706
-0.399763
-0.381132
-0.356913
-0.340097
-0.327727
-0.317564
-0.308754
-0.300805
-0.293328
-0.286047
-0.278805
-0.271556
-0.264301
-0.257031
-0.24979
-0.242737
-0.236051
-0.229881
-0.224433
-0.225955
-0.230725
-0.233534
-0.236067
-0.237848
-0.239525
-0.241123
-0.219568
-0.242949
-0.244841
-0.249943
-0.247521
-0.249048
-0.250348
-0.253165
-0.251784
0.291461
0.296224
0.309974
0.326478
0.331518
0.292776
0.135062
-0.155937
-0.466162
-0.500267
-0.444877
-0.398379
-0.369271
-0.348685
-0.332643
-0.319628
-0.30869
-0.29909
-0.290306
-0.282009
-0.274018
-0.266236
-0.258595
-0.251072
-0.243729
-0.236681
-0.230074
-0.22409
-0.218766
-0.220533
-0.225349
-0.228104
-0.230458
-0.231922
-0.23316
-0.234492
-0.213698
-0.247333
-0.247331
0.295069
0.302068
0.321268
0.349486
0.378444
0.373942
0.238008
-0.201792
-0.634587
-0.627903
-0.51872
-0.446094
-0.402814
-0.372713
-0.349813
-0.331983
-0.317661
-0.305661
-0.295166
-0.285651
-0.276793
-0.268395
-0.260322
-0.252492
-0.244894
-0.237567
-0.230605
-0.224164
-0.218346
-0.212967
-0.214848
-0.219768
-0.222667
-0.225054
-0.226528
-0.227763
-0.229026
-0.207558
0.29555
0.304203
0.327288
0.364386
0.414194
0.458171
0.338926
0.435472
-0.0382498
0.0304047
0.361725
-0.686282
-0.403793
-0.817425
-0.755169
-0.8304
-0.588315
-0.495439
-0.43915
-0.399277
-0.368912
-0.345743
-0.327656
-0.312989
-0.300589
-0.289708
-0.27987
-0.270769
-0.262198
-0.254018
-0.24616
-0.238605
-0.231379
-0.224579
-0.218332
-0.212616
-0.20731
-0.207836
-0.214203
-0.217104
-0.219376
-0.220953
-0.222255
-0.223583
-0.203578
0.29292
0.302598
0.327802
0.369917
0.432889
0.518272
0.508986
0.575332
0.466897
0.209144
0.067196
-0.289566
-0.230619
0.248803
-0.657972
-0.582733
-0.475994
-1.02574
-0.739313
-0.815193
-0.817877
-0.634183
-0.791823
-0.910166
-0.532617
-0.473151
-0.426059
-0.38912
-0.360638
-0.338566
-0.321006
-0.306523
-0.294142
-0.283223
-0.273341
-0.264208
-0.255631
-0.247488
-0.239714
-0.232284
-0.225232
-0.218644
-0.212582
-0.207076
-0.202685
-0.20456
-0.208378
-0.209068
-0.214283
-0.215576
-0.216502
-0.217865
-0.198149
0.287345
0.297463
0.323144
0.366412
0.433841
0.538671
0.618293
0.652737
0.560785
0.643617
0.441925
0.292661
0.026643
0.00088889
-0.918144
-0.870331
-0.861678
-0.690819
-0.547889
-0.637396
-0.814782
-0.777019
-0.495823
-0.448089
-0.40813
-0.3758
-0.350077
-0.329582
-0.312897
-0.298906
-0.286817
-0.276087
-0.266338
-0.257317
-0.248857
-0.240852
-0.233238
-0.225998
-0.219168
-0.212809
-0.207001
-0.202048
-0.197389
-0.198899
-0.203647
-0.206326
-0.208513
-0.210379
-0.207259
-0.212499
-0.192299
0.279095
0.289168
0.314041
0.355469
0.419385
0.523895
0.655222
0.626568
0.701229
0.678282
0.766751
0.449891
0.546347
0.730871
0.718028
0.641914
0.417974
0.130191
-0.900037
-0.874316
-0.711139
-0.678284
-0.575912
-0.504257
-0.542192
-0.651341
-0.620449
-0.817896
-0.77759
-0.460483
-0.422194
-0.389293
-0.361344
-0.338394
-0.319582
-0.303931
-0.29061
-0.278976
-0.268566
-0.259063
-0.250254
-0.241996
-0.234194
-0.226796
-0.21979
-0.213208
-0.207118
-0.201701
-0.196756
-0.19166
-0.193005
-0.197953
-0.200707
-0.203171
-0.204506
-0.205891
-0.207086
-0.20825
-0.210612
-0.204756
-0.186805
0.268501
0.278167
0.301374
0.339184
0.394903
0.479117
0.603857
0.755838
0.717812
0.78011
0.816631
0.824087
0.779459
-0.705527
-0.676203
-0.586067
-0.564056
-0.514287
-0.464645
-0.492499
-0.550444
-0.533451
-0.648448
-0.618302
-0.429151
-0.398656
-0.3708
-0.346697
-0.326272
-0.309092
-0.294539
-0.281971
-0.270866
-0.26085
-0.251665
-0.243133
-0.235132
-0.227579
-0.220433
-0.213687
-0.207376
-0.201604
-0.196324
-0.191133
-0.186156
-0.187511
-0.192244
-0.194995
-0.19754
-0.198982
-0.20033
-0.201641
-0.203408
-0.204732
-0.205966
-0.207113
-0.181496
0.255917
0.264929
0.285983
0.319424
0.365797
0.427474
0.497694
0.572068
0.487261
0.788666
0.760505
0.670541
0.721947
0.810883
-0.584419
-0.56216
-0.518068
-0.503323
-0.471988
-0.431057
-0.453913
-0.490665
-0.550567
-0.532527
-0.403154
-0.376874
-0.353314
-0.332352
-0.314119
-0.29849
-0.285019
-0.273206
-0.262656
-0.253075
-0.244252
-0.236037
-0.228326
-0.22105
-0.214177
-0.207705
-0.201679
-0.1961
-0.190751
-0.185625
-0.180849
-0.182177
-0.186743
-0.189446
-0.191849
-0.193276
-0.194607
-0.19597
-0.197786
-0.199217
-0.200502
-0.201795
-0.176266
0.241692
0.2499
0.268591
0.297587
0.335278
0.379536
0.41673
0.332846
0.594482
0.3663
0.387929
0.27241
0.735233
0.625562
-0.555985
-0.516778
-0.507847
-0.470386
-0.437036
-0.404172
-0.423222
-0.45301
-0.484712
-0.495846
-0.547223
-0.530682
-0.379448
-0.357334
-0.336981
-0.318515
-0.302233
-0.288021
-0.275542
-0.264455
-0.254466
-0.24534
-0.2369
-0.229023
-0.22162
-0.214636
-0.208043
-0.201844
-0.19604
-0.190517
-0.185236
-0.180299
-0.175633
-0.176925
-0.181379
-0.184039
-0.186345
-0.187737
-0.189033
-0.190369
-0.192069
-0.193475
-0.194751
-0.196093
-0.171132
0.226152
0.233481
0.249768
0.274637
0.304981
0.336669
0.356047
0.290365
0.0923128
0.11993
0.530095
0.278393
0.101393
0.104312
-0.515189
-0.506248
-0.47353
-0.464503
-0.435625
-0.409587
-0.379578
-0.396687
-0.422617
-0.448887
-0.456397
-0.358921
-0.339684
-0.321686
-0.305387
-0.290794
-0.277792
-0.266208
-0.255816
-0.246382
-0.237711
-0.229661
-0.222129
-0.215041
-0.20835
-0.202032
-0.19607
-0.1904
-0.184981
-0.179877
-0.175079
-0.17051
-0.17177
-0.176121
-0.178738
-0.180981
-0.182347
-0.183616
-0.184924
-0.186554
-0.187922
-0.189159
-0.190467
-0.166103
0.2096
0.216012
0.229928
0.251191
0.275701
0.298552
0.307727
0.258776
0.109827
0.0605087
0.0539307
0.0715144
0.105075
0.0665499
-0.437768
-0.432381
-0.408337
-0.384408
-0.358818
-0.372866
-0.395742
-0.418111
-0.4254
-0.340749
-0.323371
-0.307553
-0.29306
-0.279808
-0.267847
-0.257094
-0.24736
-0.238457
-0.230232
-0.222569
-0.21538
-0.208603
-0.202196
-0.196128
-0.190349
-0.184822
-0.179576
-0.174633
-0.169951
-0.165491
-0.166719
-0.170968
-0.173541
-0.175726
-0.177065
-0.178312
-0.179598
-0.181184
-0.182524
-0.183735
-0.185013
-0.161176
0.192328
0.197753
0.209322
0.227593
0.247756
0.264676
0.268366
0.231701
0.129786
0.071073
0.0629109
0.0412897
0.0517655
0.0705524
0.0425256
-0.43431
-0.431318
-0.410505
-0.404043
-0.383473
-0.362782
-0.340097
-0.35303
-0.371922
-0.39184
-0.398089
-0.417282
-0.424328
-0.323894
-0.308601
-0.294578
-0.281388
-0.269255
-0.258244
-0.24825
-0.239124
-0.230725
-0.222931
-0.215644
-0.208789
-0.202311
-0.196168
-0.190314
-0.184711
-0.179363
-0.174292
-0.169483
-0.164925
-0.160573
-0.161769
-0.165917
-0.168446
-0.170574
-0.171887
-0.173113
-0.174376
-0.175921
-0.177235
-0.178425
-0.179681
-0.156344
0.174441
0.178943
0.188002
0.203965
0.221167
0.234415
0.235702
0.208197
0.13879
0.0873874
0.070038
0.0591003
0.051182
0.0564542
0.0512538
0.0339162
-0.409519
-0.403418
-0.385456
-0.379686
-0.362013
-0.343382
-0.32336
-0.331967
-0.352452
-0.368211
-0.374274
-0.391218
-0.397242
-0.30877
-0.29531
-0.282375
-0.270288
-0.259185
-0.249012
-0.239692
-0.23113
-0.223209
-0.215825
-0.208897
-0.20236
-0.196162
-0.190257
-0.184605
-0.179193
-0.174027
-0.169109
-0.164438
-0.160003
-0.155743
-0.156917
-0.160966
-0.163454
-0.165527
-0.166814
-0.168016
-0.169258
-0.170762
-0.17205
-0.173218
-0.174453
-0.151596
0.155828
0.159754
0.165829
0.180253
0.195791
0.207123
0.207956
0.187768
0.139677
0.0984516
0.0796332
0.0652548
0.0586082
0.0619691
0.044654
0.0569761
0.0509171
0.0519135
0.0463634
-0.384529
-0.379198
-0.363743
-0.358784
-0.342684
-0.32166
-0.308192
-0.336431
-0.349295
-0.35414
-0.367487
-0.374432
-0.295441
-0.282763
-0.270846
-0.259821
-0.249586
-0.240132
-0.231432
-0.223393
-0.215918
-0.208921
-0.202332
-0.196092
-0.190153
-0.18447
-0.179021
-0.173799
-0.168802
-0.164034
-0.159499
-0.155166
-0.150987
-0.152164
-0.15611
-0.158562
-0.160579
-0.161842
-0.163023
-0.164243
-0.165706
-0.166969
-0.168116
-0.169329
-0.146919
0.139562
0.139562
0.142664
0.15633
0.171439
0.182228
0.183852
0.169695
0.136281
0.103944
0.0857919
0.0700734
0.0594479
0.0580901
0.0602426
0.0558574
0.0531485
0.053151
0.0479077
0.0486084
-0.363906
-0.358282
-0.343929
-0.338282
-0.325289
-0.306942
-0.316961
-0.295079
-0.334524
-0.348719
-0.35349
-0.365235
-0.282665
-0.270938
-0.26011
-0.249917
-0.240405
-0.231611
-0.223475
-0.215916
-0.208855
-0.20222
-0.195948
-0.189984
-0.184285
-0.178819
-0.173569
-0.168528
-0.163691
-0.159068
-0.154653
-0.150411
-0.146299
-0.147544
-0.151338
-0.153767
-0.155728
-0.156969
-0.15813
-0.159328
-0.160753
-0.161991
-0.163117
-0.164308
-0.142199
0.138184
0.11665
0.118712
0.132356
0.148082
0.159335
0.162525
0.15346
0.130519
0.105857
0.089387
0.0743215
0.06174
0.0547616
0.0555098
0.057775
0.0563589
0.0572316
0.0535986
0.053685
0.0509493
0.0512864
-0.362721
-0.357565
-0.343693
-0.340854
-0.326225
-0.322245
-0.309186
-0.294223
-0.303016
-0.318537
-0.315224
-0.282151
-0.335471
-0.330902
-0.348139
-0.352762
-0.270637
-0.260092
-0.24999
-0.240478
-0.231644
-0.223443
-0.215813
-0.208695
-0.202019
-0.19572
-0.189742
-0.184035
-0.178565
-0.173309
-0.168249
-0.163377
-0.158697
-0.15421
-0.149903
-0.145748
-0.141694
-0.142769
-0.146702
-0.14908
-0.150955
-0.152184
-0.153328
-0.154511
-0.155896
-0.157112
-0.158219
-0.159389
-0.137817
0.155049
0.0939876
0.0948331
0.109618
0.126277
0.138432
0.143496
0.138784
0.123538
0.105224
0.0910601
0.0775696
0.0647404
0.0561451
0.0502043
0.0520205
0.05445
0.0545149
0.0561531
0.0550471
0.0553234
0.0551225
0.0552549
0.0522016
0.0522583
-0.343035
-0.33977
-0.309798
-0.307749
-0.296505
-0.281271
-0.289882
-0.304345
-0.300881
-0.269969
-0.259827
-0.249839
-0.240353
-0.231524
-0.223292
-0.215605
-0.208436
-0.201724
-0.195405
-0.189417
-0.183711
-0.178246
-0.172995
-0.167937
-0.163057
-0.158351
-0.15382
-0.149461
-0.145264
-0.141222
-0.137397
-0.138221
-0.141907
-0.144464
-0.146293
-0.147518
-0.148612
-0.149782
-0.151122
-0.152323
-0.153413
-0.154566
-0.133962
0.0851829
0.0733773
0.091055
0.107723
0.120213
0.126789
0.125616
0.116135
0.102924
0.0911751
0.0794906
0.0675793
0.0582768
0.0513118
0.0450315
0.0479984
0.0506427
0.0513985
0.0533937
0.0534509
0.054189
0.0552544
0.0547956
0.0543561
0.0546006
0.0539971
0.0543348
-0.307682
-0.307015
-0.297376
-0.294194
-0.283454
-0.269008
-0.277244
-0.29107
-0.287706
-0.303964
-0.300552
-0.259344
-0.249498
-0.240054
-0.231274
-0.223033
-0.2153
-0.208083
-0.201337
-0.195001
-0.189007
-0.183305
-0.177853
-0.172618
-0.167574
-0.162704
-0.157997
-0.153449
-0.149061
-0.144833
-0.140773
-0.136935
-0.133395
-0.134502
-0.137816
-0.139435
-0.141575
-0.142898
-0.144009
-0.145166
-0.146448
-0.147639
-0.148696
-0.149831
-0.129727
0.0584674
0.0789804
0.0948621
0.10615
0.113039
0.114217
0.108918
0.0997095
0.0902273
0.0802604
0.0696551
0.0605257
0.0531156
0.0468741
0.0443805
0.042404
0.0458362
0.0480226
0.0499467
0.0503666
0.0513815
0.0530338
0.052187
0.0530486
0.0537493
0.0546447
0.0543041
-0.296693
-0.293691
-0.284288
-0.281247
-0.270923
-0.258631
-0.265586
-0.278431
-0.275274
-0.290781
-0.287459
-0.248977
-0.239596
-0.230924
-0.222697
-0.214919
-0.207649
-0.200867
-0.194511
-0.188512
-0.182817
-0.177381
-0.172167
-0.167147
-0.162299
-0.157609
-0.153068
-0.148674
-0.14443
-0.140348
-0.136472
-0.132842
-0.129223
-0.130177
-0.133689
-0.135816
-0.137534
-0.13853
-0.139647
-0.139625
-0.142594
-0.14318
-0.144122
-0.145176
-0.125483
0.0722694
0.0882347
0.0974734
0.103206
0.105158
0.102457
0.096183
0.0886628
0.0802328
0.0709548
0.0623999
0.0550606
0.048757
0.0450658
0.0413081
0.0431261
0.0445293
0.0401126
0.0459865
0.0469835
0.0481422
0.0497953
0.0487206
0.0500867
0.0510312
0.0526047
0.0518706
-0.283618
-0.280772
-0.271975
-0.268707
-0.260514
-0.248225
-0.254866
-0.266624
-0.263921
-0.278097
-0.275084
-0.238969
-0.230476
-0.222314
-0.214492
-0.20716
-0.200335
-0.193951
-0.187938
-0.182247
-0.176828
-0.171639
-0.166648
-0.16183
-0.157168
-0.152651
-0.148271
-0.144031
-0.139938
-0.136026
-0.13232
-0.128702
-0.125019
-0.12592
-0.129407
-0.131484
-0.133268
-0.134313
-0.1354
-0.136418
-0.137651
-0.138867
-0.140497
-0.139169
-0.121431
0.0857442
0.0935058
0.0975708
0.0989688
0.0973068
0.0928501
0.0868387
0.079703
0.0716321
0.0637906
0.0567568
0.0504709
0.0458822
0.041925
0.0378628
0.0396644
0.0412052
0.0428228
0.0447148
0.0444528
0.0367995
0.0466774
0.0468013
0.0467238
0.047674
0.0494034
0.0484599
-0.272004
-0.268053
-0.261234
-0.25851
-0.249903
-0.238167
-0.244867
-0.255602
-0.251963
-0.266915
-0.263719
-0.229907
-0.221883
-0.214041
-0.206652
-0.199779
-0.193349
-0.187305
-0.181605
-0.176197
-0.171032
-0.166072
-0.16129
-0.156664
-0.15218
-0.147828
-0.143607
-0.139521
-0.135589
-0.13183
-0.128188
-0.124544
-0.12097
-0.121866
-0.125234
-0.127271
-0.129031
-0.130081
-0.131113
-0.132139
-0.133377
-0.134432
-0.135456
-0.136503
-0.137681
-0.138743
-0.140209
-0.137619
-0.117507
0.0923047
0.0950933
0.0954872
0.0937782
0.0901087
0.0850534
0.0789045
0.0718476
0.0647179
0.0580861
0.0519627
0.0468812
0.0425367
0.0383562
0.0348465
0.0366395
0.0380938
0.0392534
0.040745
0.0418857
0.0426756
0.0447908
0.0440932
0.0333205
0.0456713
0.0474289
-0.266656
-0.260771
-0.258106
-0.249103
-0.239966
-0.229203
-0.234976
-0.244318
-0.255587
-0.253879
-0.26627
-0.263251
-0.221364
-0.213559
-0.206144
-0.199235
-0.192746
-0.186646
-0.180914
-0.1755
-0.170352
-0.165422
-0.160676
-0.15609
-0.151646
-0.147332
-0.143142
-0.139076
-0.135144
-0.131358
-0.127691
-0.124068
-0.120503
-0.117052
-0.117929
-0.12119
-0.123186
-0.124875
-0.125908
-0.12691
-0.127931
-0.129145
-0.130198
-0.131202
-0.132241
-0.133475
-0.134518
-0.135547
-0.136573
-0.113675
0.0942346
0.0938075
0.0916546
0.0881136
0.0835128
0.078019
0.0717475
0.0652533
0.0590347
0.053166
0.0479342
0.0433092
0.0389705
0.035297
0.0321381
0.0338455
0.0352252
0.0363421
0.0377839
0.0387154
0.0393656
0.0408381
0.0401028
-0.260343
-0.257799
-0.250049
-0.247421
-0.239449
-0.230738
-0.220681
-0.226395
-0.23433
-0.242676
-0.245179
-0.255226
-0.25317
-0.213013
-0.205613
-0.198719
-0.192185
-0.186005
-0.180209
-0.174764
-0.169614
-0.164703
-0.159989
-0.155444
-0.151044
-0.146773
-0.142622
-0.138588
-0.134673
-0.130882
-0.127205
-0.123596
-0.12004
-0.11659
-0.113234
-0.114085
-0.117253
-0.119207
-0.120836
-0.121846
-0.122821
-0.123821
-0.124984
-0.126014
-0.126996
-0.128024
-0.129237
-0.130277
-0.131303
-0.132335
-0.109943
0.0929116
0.090346
0.0867003
0.0822536
0.0771441
0.0714408
0.0654762
0.0596411
0.0540493
0.0488711
0.0441487
0.0397168
0.0358432
0.0325629
0.0297653
0.0299778
0.0325782
0.0336845
0.0349768
0.0358306
0.0364812
0.0379444
0.0372081
-0.240079
-0.23777
-0.230346
-0.222132
-0.21234
-0.217861
-0.225946
-0.232646
-0.235636
-0.205024
-0.198211
-0.191674
-0.185417
-0.179534
-0.174027
-0.168845
-0.163931
-0.159237
-0.154727
-0.15037
-0.146146
-0.14204
-0.138047
-0.134162
-0.130387
-0.126716
-0.123121
-0.119582
-0.116133
-0.112781
-0.109508
-0.110349
-0.113413
-0.115326
-0.116906
-0.117892
-0.118843
-0.11982
-0.120942
-0.121945
-0.1229
-0.123902
-0.125068
-0.126082
-0.127088
-0.128107
0.0893067
0.0855211
0.0811483
0.0762711
0.0709745
0.0654419
0.0599511
0.0546282
0.0495961
0.0449136
0.04049
0.0364868
0.0330307
0.0300731
0.0275688
0.0288499
0.0299895
0.0288621
0.0266225
0.0328893
0.0331615
0.0337424
0.035109
0.0344193
-0.231184
-0.2288
-0.221565
-0.213759
-0.204348
-0.209688
-0.217371
-0.224466
-0.226643
-0.231535
-0.197671
-0.191197
-0.184888
-0.178922
-0.173335
-0.16809
-0.163139
-0.158438
-0.153948
-0.149629
-0.14545
-0.141393
-0.137444
-0.133599
-0.129855
-0.126204
-0.122631
-0.119117
-0.115679
-0.112327
-0.109062
-0.111542
-0.113071
-0.114037
-0.114965
-0.115919
-0.11701
-0.117988
-0.118918
-0.119894
-0.121022
-0.122009
-0.122987
-0.123977
0.0843404
0.0799897
0.0753195
0.0703308
0.0651604
0.0599882
0.0549284
0.0500814
0.0455141
0.0411826
0.0371608
0.0335841
0.0304743
0.0278348
0.0255033
0.0266504
0.02785
0.0284277
0.0288933
0.0294034
0.0296871
0.0297845
0.0358156
0.0327094
0.0320953
-0.230713
-0.228363
-0.222176
-0.220085
-0.213231
-0.205755
-0.197053
-0.201795
-0.209276
-0.215982
-0.218077
-0.224162
-0.226294
-0.190738
-0.184392
-0.178377
-0.172722
-0.167397
-0.162371
-0.157625
-0.153127
-0.148828
-0.144689
-0.140678
-0.136778
-0.132979
-0.129273
-0.125655
-0.122114
-0.118634
-0.115218
-0.111876
-0.108614
-0.111168
-0.112111
-0.113173
-0.114129
-0.115037
-0.11599
-0.117088
-0.118049
-0.119001
-0.119965
0.0787015
0.0741632
0.0694688
0.0646137
0.0597497
0.054959
0.0503209
0.045911
0.0417183
0.0377722
0.034161
0.030933
0.028123
0.0256351
0.0233436
0.0245892
0.0257999
0.0262741
0.0268181
0.0273596
0.0279636
0.0283417
0.0287676
0.0292005
0.0294738
0.029527
0.0325361
-0.221837
-0.219818
-0.213836
-0.211816
-0.205324
-0.198239
-0.189953
-0.194603
-0.201347
-0.207925
-0.209941
-0.215717
-0.217761
-0.183927
-0.177866
-0.172187
-0.166797
-0.161672
-0.15684
-0.152295
-0.14799
-0.143872
-0.1399
-0.136048
-0.132297
-0.128637
-0.125061
-0.121558
-0.118118
-0.114736
-0.111417
-0.108166
-0.111245
-0.11218
-0.113249
-0.114189
-0.11512
-0.116059
0.0728111
0.0683179
0.0637941
0.0592242
0.0547109
0.0503098
0.0460862
0.0420581
0.0382428
0.0346851
0.0314193
0.0284865
0.0258511
0.0233405
0.0202401
0.0226614
0.023838
0.0241837
0.0247737
0.0252678
0.025878
0.0262242
0.0267378
0.0272528
0.0278286
0.0282705
0.028666
0.0290848
0.0293015
-0.213507
-0.211562
-0.205914
-0.203958
-0.197839
-0.190883
-0.183312
-0.186212
-0.194291
-0.199969
-0.202077
-0.207656
-0.209616
-0.177359
-0.171696
-0.166289
-0.161069
-0.156129
-0.151499
-0.14715
-0.143022
-0.139071
-0.135257
-0.131554
-0.127943
-0.124414
-0.120956
-0.117561
-0.114221
-0.110937
-0.107709
-0.111322
-0.112246
0.066941
0.0626577
0.058416
0.0541784
0.0500361
0.0460277
0.0421854
0.0385278
0.0350842
0.0318684
0.0289029
0.0261948
0.0236604
0.0211696
0.0207869
0.0192685
0.0211826
0.022366
0.022993
0.0232436
0.0238694
0.024149
0.0246897
0.0251623
0.0257317
0.0261686
0.0266556
0.0272009
0.0277475
-0.205566
-0.203743
-0.198376
-0.196621
-0.190737
-0.182297
-0.176766
-0.18819
-0.193105
-0.194872
-0.199628
-0.202143
-0.171192
-0.165838
-0.160559
-0.155516
-0.150782
-0.146352
-0.142175
-0.138213
-0.134418
-0.130753
-0.12719
-0.12371
-0.120303
-0.116956
-0.113664
-0.110423
-0.107232
0.0612859
0.0572923
0.0533797
0.0494949
0.045724
0.0420889
0.0386088
0.0353122
0.0322054
0.0292936
0.0265916
0.0241054
0.0219254
0.0209969
0.0195729
0.0203378
0.0206033
0.0204046
0.0179986
0.0207994
0.0220201
0.022481
0.0228447
0.0231413
0.0236884
0.0241001
0.0246127
0.0251144
0.0256472
-0.198457
-0.196404
-0.191227
-0.189534
-0.183596
-0.176044
-0.180273
-0.170602
-0.185888
-0.188143
-0.192831
-0.19461
-0.198644
-0.165393
-0.160107
-0.154994
-0.150164
-0.145638
-0.141378
-0.137363
-0.133554
-0.129907
-0.126383
-0.122952
-0.119594
-0.1163
-0.11306
-0.109868
-0.106721
0.0559459
0.0522847
0.048707
0.0451772
0.041762
0.038479
0.0353489
0.0323828
0.0295806
0.0269516
0.0245252
0.0224205
0.0211068
0.0197379
0.0177293
0.0187721
0.0194387
0.0198728
0.0201109
0.0205757
0.0207529
0.0225843
0.0155308
0.0230903
0.0221211
0.0223692
0.0226776
0.0230787
0.0235946
-0.197967
-0.196072
-0.190982
-0.189282
-0.186696
-0.184176
-0.182471
-0.177115
-0.169934
-0.173972
-0.180936
-0.179193
-0.164893
-0.187732
-0.192565
-0.1943
-0.159657
-0.154525
-0.149638
-0.145031
-0.14067
-0.136566
-0.132701
-0.12904
-0.125534
-0.122141
-0.118833
-0.115591
-0.112404
-0.109265
-0.106168
0.0509802
0.0476445
0.0444084
0.041213
0.0381378
0.0351887
0.0323805
0.0297159
0.0272014
0.0248597
0.0227802
0.0212158
0.0197776
0.0179122
0.0162228
0.0171669
0.0178663
0.0184596
0.0187348
0.0190919
0.0194197
0.0197235
0.0200025
0.0204472
0.0210877
0.0125664
0.0229068
0.0216558
-0.190701
-0.189069
-0.186154
-0.177456
-0.175937
-0.170774
-0.164294
-0.168075
-0.174518
-0.1732
-0.159145
-0.18747
-0.154063
-0.149164
-0.144521
-0.140072
-0.135861
-0.131904
-0.12819
-0.124668
-0.121291
-0.118021
-0.114829
-0.111696
-0.108613
-0.105569
0.0463924
0.0433854
0.040466
0.0375934
0.0348331
0.0321949
0.0296796
0.0272987
0.0250663
0.0230359
0.021343
0.0198196
0.0180715
0.0164188
0.0149535
0.0157331
0.0163875
0.0169077
0.0172082
0.0175805
0.0179946
0.0184293
0.0186999
0.0190249
0.0193648
-0.171061
-0.170061
-0.165207
-0.158514
-0.162281
-0.168583
-0.167089
-0.153567
-0.148688
-0.144072
-0.139574
-0.135265
-0.1312
-0.127398
-0.123822
-0.120429
-0.117174
-0.11402
-0.110938
-0.107908
-0.104922
0.0421899
0.0394888
0.03687
0.0342952
0.0318292
0.0294704
0.0272316
0.0251208
0.0231685
0.0214411
0.0198666
0.0182048
0.0165974
0.015164
0.013787
0.0144661
0.0150718
0.0154911
0.015764
0.0161057
0.0164952
0.0168746
0.017165
0.0175308
0.017964
-0.170129
-0.169692
-0.165573
-0.164161
-0.159407
-0.153
-0.156593
-0.162753
-0.161273
-0.168376
-0.166898
-0.148157
-0.143628
-0.139138
-0.134764
-0.130603
-0.126701
-0.123039
-0.119591
-0.116317
-0.113178
-0.110134
-0.107155
-0.104223
0.0383545
0.0359361
0.0335995
0.031299
0.0290968
0.0270025
0.0250175
0.0231629
0.0214652
0.0198888
0.0182979
0.0167463
0.015336
0.0139955
0.0127023
0.0133131
0.0138804
0.0142286
0.0144957
0.0147954
0.0151463
0.0154478
0.0157109
0.0160455
0.016443
-0.165267
-0.16391
-0.159773
-0.1584
-0.153861
-0.147566
-0.151144
-0.157068
-0.155631
-0.162587
-0.161113
-0.143151
-0.138714
-0.134323
-0.130102
-0.126112
-0.122355
-0.118819
-0.115487
-0.112328
-0.109298
-0.106359
-0.103477
0.0348632
0.0327113
0.030627
0.028577
0.026623
0.0247653
0.0230161
0.0213868
0.0198534
0.018336
0.0168496
0.0154678
0.0141594
0.0129042
0.0116995
0.0122416
0.0127854
0.0130922
0.013337
0.013606
0.0139419
0.0141862
0.0144409
0.0147348
0.0150853
-0.159475
-0.158161
-0.1542
-0.152859
-0.148421
-0.14263
-0.145777
-0.151594
-0.1502
-0.156898
-0.155471
-0.138253
-0.133897
-0.129661
-0.12562
-0.121782
-0.118147
-0.114722
-0.111505
-0.108456
-0.105533
-0.10269
0.0316974
0.0297823
0.027934
0.0261125
0.0243788
0.0227374
0.0211953
0.0197324
0.0183011
0.0168938
0.015556
0.0142818
0.013059
0.0118952
0.0107686
0.0112471
0.0117715
0.0120359
0.0122631
0.0125267
0.0128252
0.0130535
0.0132842
0.0135425
0.0138795
-0.153904
-0.152622
-0.148778
-0.147464
-0.143415
-0.137712
-0.140897
-0.146107
-0.145001
-0.151404
-0.150021
-0.133441
-0.129235
-0.125184
-0.121307
-0.117586
-0.114057
-0.11075
-0.107644
-0.104703
-0.101877
0.0288275
0.0271339
0.0254921
0.0238773
0.022343
0.0208942
0.0195148
0.0181769
0.016862
0.0155903
0.0143616
0.0131713
0.0120348
0.0109489
0.00988175
0.0103062
0.0108281
0.01105
0.0112736
0.0115184
0.0117992
0.0120004
0.0122114
0.012465
0.0127603
-0.148498
-0.147429
-0.143761
-0.142513
-0.138456
-0.13291
-0.135945
-0.141277
-0.140012
-0.145956
-0.145013
-0.128787
-0.124758
-0.120892
-0.11712
-0.113501
-0.110092
-0.1069
-0.103905
-0.101062
0.0262337
0.0247309
0.0232816
0.0218509
0.0204937
0.0192035
0.0179581
0.0167408
0.0155522
0.0143883