/*--------------------------------*- C++ -*----------------------------------*\
| =========                 |                                                 |
| \\      /  F ield         | OpenFOAM: The Open Source CFD Toolbox           |
|  \\    /   O peration     | Version:  v1912                                 |
|   \\  /    A nd           | Website:  www.openfoam.com                      |
|    \\/     M anipulation  |                                                 |
\*---------------------------------------------------------------------------*/
FoamFile
{
    version     2.0;
    format      ascii;
    class       volVectorField;
    location    "430";
    object      U;
}
// * * * * * * * * * * * * * * * * * * * * * * * * * * * * * * * * * * * * * //

dimensions      [0 1 -1 0 0 0 0];


internalField   nonuniform List<vector> 
3753
(
(0.440312 -0.0538333 -7.69277e-21)
(0.790286 -0.0841682 2.37257e-20)
(0.121644 -0.046304 -1.11619e-20)
(0.927949 -0.0767552 1.15504e-20)
(0.440335 -0.104472 1.24304e-20)
(0.0873558 -0.0395163 0)
(0.977376 -0.0639598 -2.78815e-20)
(0.688873 -0.139951 1.86198e-24)
(0.29496 -0.11147 -1.27984e-24)
(0.0895689 -0.0391298 0)
(0.991511 -0.0551704 -1.11832e-24)
(0.841778 -0.154134 -3.03807e-20)
(0.515171 -0.169475 3.48286e-25)
(0.269419 -0.116056 0)
(0.096663 -0.0398428 -2.00302e-20)
(0.993802 -0.0495059 -6.04575e-20)
(0.921734 -0.156141 2.89197e-20)
(0.698138 -0.209455 -3.72001e-20)
(0.454266 -0.185597 -3.67028e-20)
(0.27694 -0.116615 0)
(0.0959456 -0.039498 -1.32995e-20)
(0.993301 -0.0452143 1.32012e-19)
(0.957825 -0.152586 0)
(0.822644 -0.232412 8.12487e-20)
(0.627033 -0.242513 3.36593e-20)
(0.449297 -0.186959 -3.66146e-24)
(0.277567 -0.114698 1.68956e-20)
(0.0940698 -0.0390902 -1.68976e-20)
(0.992704 -0.0414375 -7.17291e-20)
(0.971422 -0.146815 -6.75848e-20)
(0.894634 -0.243094 -4.49022e-20)
(0.76426 -0.28415 -4.48321e-20)
(0.610822 -0.248191 0)
(0.447941 -0.183352 1.67472e-20)
(0.274037 -0.113547 1.09267e-20)
(0.0931539 -0.0386232 0)
(0.992479 -0.0377127 -1.00466e-23)
(0.974834 -0.140137 6.76463e-20)
(0.930126 -0.246441 0)
(0.857259 -0.312111 4.31843e-20)
(0.748981 -0.297184 -3.89732e-24)
(0.604507 -0.244014 -1.53219e-20)
(0.443442 -0.181415 -1.70957e-24)
(0.27136 -0.11228 5.52677e-21)
(0.091553 -0.0379328 0)
(0.992526 -0.033731 1.00175e-19)
(0.973977 -0.132742 -9.52195e-20)
(0.943879 -0.245886 -1.03398e-23)
(0.911993 -0.330616 6.67289e-20)
(0.853454 -0.333259 6.68502e-24)
(0.740817 -0.294387 0)
(0.598085 -0.241539 0)
(0.439632 -0.179467 8.171e-22)
(0.267903 -0.110397 2.49131e-25)
(0.0894264 -0.0371523 0)
(0.992699 -0.0292944 7.28227e-21)
(0.971213 -0.124309 2.04547e-19)
(0.945546 -0.243214 1.10679e-19)
(0.939987 -0.344159 1.57541e-20)
(0.924169 -0.358717 0)
(0.849365 -0.333185 -2.30624e-24)
(0.732949 -0.292254 -1.01603e-24)
(0.593508 -0.239126 -1.11072e-20)
(0.435163 -0.176761 -3.25095e-25)
(0.263294 -0.108352 -5.4812e-21)
(0.0873513 -0.0363671 8.2493e-21)
(0.992936 -0.0242752 -1.08706e-19)
(0.967284 -0.114322 -1.09184e-19)
(0.940094 -0.239 -1.11978e-19)
(0.951486 -0.356207 -1.76523e-19)
(0.968774 -0.377272 -4.78174e-24)
(0.928038 -0.361423 0)
(0.842704 -0.332337 0)
(0.728083 -0.289856 5.42673e-21)
(0.588712 -0.235898 -5.75802e-22)
(0.429346 -0.17393 6.42805e-22)
(0.258421 -0.106322 -1.01605e-20)
(0.0853519 -0.0355905 1.0848e-20)
(0.993257 -0.0185959 0)
(0.962357 -0.102168 0)
(0.929463 -0.233082 -6.91268e-23)
(0.952849 -0.368941 2.08999e-19)
(0.996587 -0.392339 2.8824e-20)
(0.981392 -0.381832 4.77042e-24)
(0.925063 -0.36218 -2.059e-24)
(0.83893 -0.330532 -8.09048e-25)
(0.723564 -0.286482 -2.74063e-22)
(0.582612 -0.232623 3.82533e-21)
(0.422956 -0.171142 -7.74175e-21)
(0.253571 -0.1043 -1.32883e-20)
(0.0834258 -0.0348491 0)
(0.993747 -0.0122235 0)
(0.956457 -0.0871674 1.44368e-19)
(0.914067 -0.224938 1.82151e-19)
(0.947066 -0.383573 -1.11003e-19)
(1.01461 -0.406184 -2.80809e-20)
(1.01687 -0.397348 2.04245e-24)
(0.982706 -0.383693 2.07111e-24)
(0.923899 -0.361197 2.06314e-24)
(0.835517 -0.327424 -1.21967e-22)
(0.717877 -0.283065 2.827e-21)
(0.575785 -0.229441 6.98687e-21)
(0.416391 -0.168352 1.45108e-24)
(0.248807 -0.102357 1.51491e-20)
(0.0816162 -0.0341416 -3.72032e-24)
(0.994528 -0.00518845 6.26365e-20)
(0.949631 -0.0686086 -6.73514e-20)
(0.893894 -0.21378 2.57753e-20)
(0.934676 -0.400592 3.27725e-23)
(1.02638 -0.419636 3.5873e-23)
(1.04054 -0.409888 9.85042e-21)
(1.02114 -0.399094 -1.13285e-20)
(0.98445 -0.383085 -1.27255e-24)
(0.92235 -0.358521 5.65909e-24)
(0.83082 -0.324121 -2.64214e-21)
(0.711409 -0.279751 5.74382e-21)
(0.568572 -0.226252 0)
(0.409798 -0.16566 -2.61833e-20)
(0.244232 -0.100486 -8.4201e-24)
(0.0798826 -0.0334573 1.60156e-20)
(0.995677 0.00236848 -1.25149e-19)
(0.94222 -0.0458879 2.76362e-21)
(0.869115 -0.198059 -2.13028e-19)
(0.913411 -0.420002 0)
(1.03128 -0.431172 4.05045e-23)
(1.05409 -0.419437 -9.64711e-21)
(1.04455 -0.40942 1.10825e-20)
(1.02416 -0.397623 -2.06663e-24)
(0.984513 -0.380448 7.96768e-22)
(0.918912 -0.355361 0)
(0.825189 -0.320814 -5.36244e-21)
(0.704358 -0.276405 -3.9576e-24)
(0.561133 -0.223167 1.15396e-20)
(0.403332 -0.163032 -3.41669e-24)
(0.239797 -0.0986545 4.44891e-24)
(0.0782225 -0.0328076 1.69309e-20)
(0.997114 0.00998475 6.23907e-20)
(0.935673 -0.0185413 -7.70258e-20)
(0.83968 -0.174121 4.4155e-22)
(0.875227 -0.438912 0)
(1.02155 -0.435596 2.02421e-20)
(1.05193 -0.42234 6.02336e-21)
(1.05168 -0.413092 1.05564e-20)
(1.04487 -0.404862 6.97169e-25)
(1.02376 -0.393876 2.18317e-25)
(0.981654 -0.376971 2.37261e-21)
(0.9141 -0.351952 4.91309e-21)
(0.818713 -0.317388 -7.45627e-21)
(0.69684 -0.273161 4.87122e-24)
(0.553671 -0.220116 -6.24824e-24)
(0.396981 -0.160416 -1.59278e-20)
(0.235491 -0.0969037 4.91861e-24)
(0.0766813 -0.0322003 0)
(0.998787 0.0169567 -5.9158e-20)
(0.934014 0.0131992 3.04669e-21)
(0.803609 -0.134239 -9.49334e-22)
(0.80129 -0.440465 -1.20519e-19)
(0.974321 -0.424451 -2.05433e-20)
(1.01612 -0.408786 -2.38131e-21)
(1.03181 -0.404341 -1.05944e-20)
(1.04225 -0.401935 4.63794e-21)
(1.03961 -0.397997 -9.80849e-25)
(1.01916 -0.388943 -2.3139e-21)
(0.976708 -0.372913 -4.72608e-21)
(0.908014 -0.348252 7.06528e-21)
(0.811464 -0.314041 0)
(0.689102 -0.269901 -1.14201e-20)
(0.546201 -0.21701 1.42173e-20)
(0.390717 -0.157883 -4.05997e-24)
(0.231387 -0.0952596 -1.00425e-23)
(0.0752654 -0.0316361 -4.40219e-24)
(1.00046 0.0225957 5.85596e-20)
(0.942947 0.041408 -7.14027e-20)
(0.752281 -0.0619309 2.57808e-20)
(0.655541 -0.390421 1.1941e-19)
(0.842273 -0.378995 0)
(0.910694 -0.36317 -3.91665e-21)
(0.962188 -0.372276 0)
(1.00281 -0.382281 -8.62431e-21)
(1.02557 -0.389289 2.0398e-22)
(1.0291 -0.389832 2.78345e-21)
(1.01173 -0.383143 8.77263e-25)
(0.9699 -0.368353 -3.2332e-24)
(0.900744 -0.3446 -4.14749e-24)
(0.803754 -0.310605 2.10731e-20)
(0.681149 -0.266488 3.15623e-24)
(0.538684 -0.213958 7.23226e-24)
(0.384632 -0.155483 0)
(0.227532 -0.0937155 5.12269e-24)
(0.0739467 -0.031105 1.83263e-20)
(1.00197 0.0265384 0)
(0.952807 0.0643221 1.33958e-19)
(0.820224 0.0517559 -4.19568e-20)
(0.827306 0.072853 0)
(0.507582 -0.349645 2.12375e-21)
(0.384479 -0.261422 1.98821e-20)
(0.636543 -0.022009 0)
(0.691983 -0.331984 9.56364e-23)
(0.337697 -0.243805 -2.97088e-20)
(0.509442 -0.223147 1.98443e-21)
(0.685453 -0.267212 4.19179e-22)
(0.564701 -0.211714 0)
(0.812304 -0.304055 0)
(0.905464 -0.337181 4.12081e-21)
(0.968006 -0.361712 -7.72289e-22)
(1.00394 -0.37603 -2.81082e-21)
(1.0155 -0.380826 9.36818e-25)
(1.00194 -0.376712 0)
(0.96145 -0.363856 -3.2184e-25)
(0.892743 -0.340772 -9.90186e-21)
(0.795581 -0.306895 0)
(0.672936 -0.263074 -3.1728e-24)
(0.531228 -0.211032 -3.7101e-24)
(0.378806 -0.153199 -1.78858e-20)
(0.223901 -0.0922458 0)
(0.0726981 -0.0305992 1.84976e-20)
(1.00292 0.0287452 -4.93935e-20)
(0.967393 0.0807029 -5.07992e-21)
(0.838619 0.100213 0)
(0.854407 0.127163 2.97839e-20)
(0.641081 0.0609493 0)
(0.414141 -0.126703 -1.89492e-21)
(0.1672 -0.192355 -2.55107e-20)
(0.136458 -0.186661 -6.28744e-21)
(0.204707 -0.225053 3.33784e-20)
(0.384102 -0.0728827 0)
(0.320662 -0.157278 -3.01514e-21)
(0.131888 -0.0624311 0)
(0.32752 -0.118926 0)
(0.250613 -0.0832418 -8.51118e-24)
(0.439592 -0.160585 -7.34567e-22)
(0.564769 -0.196158 -5.3289e-22)
(0.376192 -0.13407 -1.6574e-25)
(0.732102 -0.261439 1.18133e-21)
(0.850925 -0.30969 -3.47192e-22)
(0.931735 -0.34276 1.16418e-24)
(0.980427 -0.362662 0)
(0.999687 -0.371356 0)
(0.990235 -0.370553 0)
(0.952069 -0.359145 4.60045e-24)
(0.884039 -0.336543 2.53689e-24)
(0.786888 -0.303117 0)
(0.664598 -0.25976 -1.37074e-20)
(0.523951 -0.208213 1.58503e-20)
(0.373237 -0.150993 -8.88597e-24)
(0.220437 -0.0908334 0)
(0.0715146 -0.0301196 0)
(1.0032 0.0292918 3.86742e-21)
(0.984725 0.0899863 -5.73462e-20)
(0.874244 0.151718 -2.86481e-20)
(0.896465 0.168272 -2.40724e-20)
(0.660528 0.128515 0)
(0.688747 0.186402 -4.04405e-20)
(0.372087 0.0428611 0)
(0.371292 -0.0143574 0)
(0.117752 -0.109471 3.03882e-21)
(0.0546169 -0.0991173 0)
(0.0896016 -0.0292194 8.22276e-23)
(0.0778503 -0.0276368 -1.21086e-22)
(0.220812 -0.0740753 0)
(0.132326 -0.0409979 -1.38897e-21)
(0.335807 -0.111927 1.69854e-25)
(0.487149 -0.162532 -1.26105e-21)
(0.316507 -0.102409 7.5786e-22)
(0.183781 -0.0614222 -5.98491e-25)
(0.667039 -0.233459 3.37649e-22)
(0.802319 -0.287344 -3.40184e-25)
(0.896962 -0.325325 6.45381e-21)
(0.956058 -0.349467 7.79002e-21)
(0.982246 -0.362742 0)
(0.977702 -0.364284 -9.42779e-21)
(0.941851 -0.353939 -1.06363e-20)
(0.874553 -0.332196 1.15153e-20)
(0.777847 -0.299412 1.26799e-20)
(0.656297 -0.256531 -1.39969e-20)
(0.516882 -0.20545 0)
(0.367874 -0.148848 -1.82076e-20)
(0.21712 -0.0894822 0)
(0.0703913 -0.0296627 0)
(1.00328 0.0283495 4.62848e-20)
(0.999329 0.0926661 0)
(0.921117 0.182787 2.40836e-20)
(0.944408 0.182571 2.18617e-20)
(0.727948 0.234896 7.24455e-20)
(0.777334 0.265831 -3.21254e-20)
(0.384398 0.102045 0)
(0.403431 0.159669 -1.85141e-20)
(0.455549 0.269543 0)
(0.427114 0.216038 1.77829e-20)
(0.0926463 0.00362643 5.25358e-20)
(0.0998847 -0.0538556 -2.58937e-20)
(0.0387062 -0.0112193 1.35119e-21)
(0.0554022 -0.0166537 9.75933e-23)
(0.049611 -0.0161392 5.64794e-24)
(0.163361 -0.0515585 -8.68078e-23)
(0.289028 -0.094138 -1.52511e-22)
(0.425807 -0.141827 9.5568e-22)
(0.262446 -0.0826545 -9.55621e-23)
(0.195515 -0.0639767 5.68783e-23)
(0.193411 -0.0615938 -8.50334e-23)
(0.0418346 -0.013765 0)
(0.044543 -0.0141138 0)
(0.616092 -0.212774 -1.63013e-24)
(0.75972 -0.268358 -7.0232e-21)
(0.863927 -0.308915 -8.21793e-21)
(0.931224 -0.338195 -8.51034e-21)
(0.964691 -0.354368 9.47673e-21)
(0.964489 -0.357529 1.04694e-20)
(0.930687 -0.34863 -2.22912e-20)
(0.86452 -0.327917 1.18324e-20)
(0.768673 -0.295774 1.29295e-20)
(0.648094 -0.253324 0)
(0.509987 -0.202723 1.60659e-20)
(0.362691 -0.146769 -1.81765e-20)
(0.213934 -0.088188 0)
(0.0693335 -0.0292316 1.84162e-20)
(1.0031 0.0263327 1.65249e-22)
(1.01169 0.0912756 1.70751e-22)
(0.958163 0.249325 -3.68306e-20)
(0.82874 0.283547 0)
(0.870878 0.308313 -2.57682e-20)
(0.488885 0.318667 -1.41457e-20)
(0.530524 0.358425 1.27792e-20)
(0.637449 0.423291 1.19516e-20)
(0.581403 0.394298 -9.92015e-21)
(0.0983194 0.0674806 -2.6441e-20)
(0.112581 0.134854 2.44204e-20)
(0.166101 0.269494 4.24329e-20)
(0.134884 0.202748 -4.68871e-20)
(0.0384281 -0.01156 -4.88669e-23)
(0.0379171 -0.0120433 2.51276e-22)
(0.114726 -0.0376284 0)
(0.18388 -0.058918 1.95923e-22)
(0.175555 -0.0559509 4.62585e-25)
(0.225714 -0.0737479 -2.50338e-22)
(0.386287 -0.127403 -1.70832e-21)
(0.209098 -0.0669815 1.75246e-22)
(0.16383 -0.053075 -4.57474e-23)
(0.145143 -0.0422847 1.83449e-22)
(0.113241 -0.0357182 -4.50574e-23)
(0.57364 -0.196104 1.68164e-24)
(0.721177 -0.250494 2.12379e-24)
(0.832259 -0.295859 9.03689e-21)
(0.907787 -0.327755 -2.26889e-24)
(0.947109 -0.345674 0)
(0.9504 -0.350807 1.10339e-20)
(0.918891 -0.343443 -2.2866e-20)
(0.854223 -0.323717 1.20519e-20)
(0.759476 -0.292126 3.16573e-24)
(0.639981 -0.250114 -1.42297e-20)
(0.503242 -0.200046 1.60032e-20)
(0.357664 -0.144763 0)
(0.210894 -0.0869585 2.10307e-20)
(0.0683318 -0.0288178 1.8266e-20)
(1.00256 0.0235952 0)
(1.0207 0.0857444 -1.56272e-22)
(1.01343 0.238823 4.22552e-20)
(0.866105 0.563406 -1.90777e-20)
(0.970869 0.574517 9.31244e-21)
(0.694476 0.447795 -6.57574e-22)
(0.741987 0.461334 9.2155e-21)
(0.765463 0.548434 1.85033e-20)
(0.208116 0.329186 -1.95874e-20)
(0.262705 0.375539 4.15401e-22)
(0.404566 0.501896 -2.24311e-20)
(0.317077 0.405046 1.94214e-20)
(0.0370897 -0.0119557 -2.78103e-25)
(0.108227 -0.0341165 0)
(0.102932 -0.0324607 -9.12553e-23)
(0.120094 -0.0389694 2.1126e-23)
(0.109226 -0.0348697 0)
(0.197176 -0.0632749 1.00658e-21)
(0.354609 -0.116421 0)
(0.190652 -0.0604068 3.11597e-21)
(0.102534 -0.0325465 0)
(0.099416 -0.0312425 -4.6484e-22)
(0.0947893 -0.0301787 -1.28903e-22)
(0.0660616 -0.0172425 0)
(0.0365684 -0.0114209 7.78356e-23)
(0.533957 -0.178973 0)
(0.685775 -0.237426 0)
(0.804128 -0.284291 0)
(0.885499 -0.317274 0)
(0.929051 -0.33729 0)
(0.935821 -0.344359 1.13065e-20)
(0.906813 -0.338414 -2.32687e-20)
(0.843814 -0.319502 1.22169e-20)
(0.750261 -0.288437 1.31204e-20)
(0.631942 -0.246923 -1.41769e-20)
(0.496636 -0.197439 -3.81993e-24)
(0.352817 -0.14284 -1.8016e-20)
(0.20799 -0.0857739 0)
(0.0673634 -0.0284168 0)
(1.00182 0.0204046 3.51291e-20)
(1.02674 0.0777881 0)
(1.04027 0.209096 0)
(1.13959 0.49849 -5.39868e-21)
(0.835159 0.616404 1.08306e-21)
(0.654449 0.511266 -8.50218e-22)
(0.912561 0.48313 -5.6716e-23)
(0.543302 0.570027 2.46888e-22)
(0.617321 0.578968 -9.64959e-21)
(0.529046 0.451248 -5.86241e-23)
(0.470722 0.45689 1.38753e-21)
(0.155613 0.267196 -1.3668e-21)
(0.0350946 -0.0108984 0)
(0.0334505 -0.0104792 6.17865e-23)
(0.0420838 -0.0138474 0)
(0.0364456 -0.0115822 0)
(0.0963256 -0.0304324 -5.7475e-22)
(0.0949974 -0.0297411 -6.60294e-22)
(0.181777 -0.0583304 0)
(0.314047 -0.101484 1.80891e-21)
(0.173008 -0.0547384 4.48717e-22)
(0.0931867 -0.0292918 -1.61672e-21)
(0.0921652 -0.028775 0)
(0.0331582 -0.0103825 4.90182e-25)
(0.0320163 -0.00993378 4.09626e-22)
(0.0307397 -0.0100228 1.56282e-22)
(0.018247 -0.00479206 -1.96987e-22)
(0.499107 -0.167433 0)
(0.656395 -0.226486 0)
(0.778614 -0.272831 0)
(0.86335 -0.307454 -1.23244e-20)
(0.910935 -0.329421 2.8467e-24)
(0.921146 -0.338244 1.15125e-20)
(0.894653 -0.333415 -2.36281e-20)
(0.833325 -0.31523 -2.99218e-24)
(0.741034 -0.284736 1.30539e-20)
(0.623983 -0.243785 3.40739e-24)
(0.490196 -0.194919 7.22979e-26)
(0.348149 -0.140976 9.33615e-26)
(0.205197 -0.0846229 -9.91755e-24)
(0.0664274 -0.0280284 0)
(1.00109 0.0169651 -3.56255e-20)
(1.0306 0.0691089 3.27804e-20)
(1.05057 0.173171 -1.98979e-20)
(1.25964 0.454449 -1.61145e-21)
(0.789772 0.138742 -5.32632e-20)
(1.07455 0.205152 1.4216e-19)
(0.449744 0.268039 -3.48469e-21)
(0.281657 0.249373 0)
(0.594249 0.189856 -2.50161e-20)
(0.26319 0.101685 0)
(0.341152 0.445287 1.1045e-21)
(0.412505 0.45225 -1.60637e-21)
(0.0311557 -0.00967073 0)
(0.0306924 -0.00947411 0)
(0.0899512 -0.0284003 -9.64597e-22)
(0.0885698 -0.027743 -9.85518e-25)
(0.149715 -0.0465549 5.55065e-22)
(0.2834 -0.0913921 1.66635e-21)
(0.122881 -0.0399921 -2.01573e-21)
(0.0863545 -0.0273174 0)
(0.0828487 -0.0259743 -5.77358e-22)
(0.0300919 -0.00933895 -3.75341e-24)
(0.0297543 -0.00919856 0)
(0.473778 -0.15915 0)
(0.631089 -0.215192 0)
(0.753561 -0.262388 1.32446e-20)
(0.841774 -0.298383 0)
(0.893154 -0.322172 2.80936e-26)
(0.90661 -0.332279 1.17126e-20)
(0.882454 -0.32839 0)
(0.82277 -0.310935 3.00124e-24)
(0.73181 -0.281071 1.28786e-20)
(0.616141 -0.240735 -1.38419e-20)
(0.483943 -0.192461 3.78448e-24)
(0.343638 -0.139148 4.29228e-24)
(0.202476 -0.0834943 2.54039e-25)
(0.0655121 -0.02765 0)
(1.00051 0.0134446 3.19365e-20)
(1.03255 0.0601987 -2.76434e-21)
(1.05419 0.139761 2.07002e-20)
(1.29583 0.39504 1.65928e-21)
(1.18153 0.150733 -8.48631e-20)
(0.22146 0.00735296 -1.31182e-20)
(0.476284 -0.0146572 3.71614e-20)
(0.275754 -0.0264689 -3.29165e-20)
(0.635953 -0.00913232 6.91011e-20)
(0.0292013 -0.0090585 1.11452e-21)
(0.0287045 -0.00886294 0)
(0.07544 -0.0241074 -6.20214e-22)
(0.0535185 -0.0138433 1.14074e-21)
(0.111368 -0.0349345 -3.53137e-21)
(0.267841 -0.0864099 3.53837e-24)
(0.108699 -0.0339487 -1.20034e-21)
(0.0341008 -0.010813 -2.79861e-22)
(0.0286494 -0.00939367 -6.21539e-22)
(0.0279958 -0.0087327 6.47398e-22)
(0.0267868 -0.00838971 -3.20197e-22)
(0.453474 -0.150515 0)
(0.605205 -0.205253 3.73266e-24)
(0.729601 -0.252711 3.32718e-24)
(0.821152 -0.290298 0)
(0.875948 -0.315254 -5.87284e-24)
(0.892225 -0.326371 1.19306e-20)
(0.870224 -0.323362 0)
(0.812168 -0.30667 -2.42611e-20)
(0.722639 -0.277504 6.03504e-23)
(0.608464 -0.237743 0)
(0.477857 -0.190029 0)
(0.33924 -0.13735 0)
(0.199817 -0.0823958 9.82021e-24)
(0.0646377 -0.0272842 1.72655e-20)
(1.00016 0.0099808 -3.24344e-20)
(1.03274 0.0510307 -3.13569e-20)
(1.05689 0.111038 -3.67824e-24)
(1.28442 0.326482 2.39555e-22)
(1.38338 0.15842 0)
(0.657595 -0.0325236 0)
(0.0709553 -0.0212791 2.14481e-20)
(0.278528 -0.0120727 1.04076e-22)
(0.122684 -0.0115887 -9.21098e-23)
(0.301883 -0.0545493 -1.11604e-19)
(0.0244119 -0.00808754 -4.89683e-24)
(0.0147207 -0.00382447 -8.05441e-22)
(0.0263564 -0.00818019 1.14768e-25)
(0.025728 -0.0080355 9.10112e-22)
(0.105573 -0.033307 1.28067e-21)
(0.304968 -0.101773 -6.58797e-24)
(0.10449 -0.032624 -1.39544e-21)
(0.207426 -0.0683073 -2.62396e-21)
(0.025553 -0.00793223 4.5568e-25)
(0.0255384 -0.00785641 1.87152e-21)
(0.428749 -0.141233 -2.10082e-21)
(0.300806 -0.0986394 0)
(0.580362 -0.195751 -3.81478e-24)
(0.707335 -0.244418 0)
(0.80174 -0.282761 -1.2861e-20)
(0.859235 -0.308521 -2.45004e-20)
(0.87797 -0.320521 5.76145e-24)
(0.857972 -0.318387 1.17432e-20)
(0.801582 -0.302541 1.19454e-20)
(0.713611 -0.273996 0)
(0.600939 -0.234762 0)
(0.471898 -0.187622 0)
(0.334935 -0.13559 0)
(0.197228 -0.0813202 -1.94938e-20)
(0.0637818 -0.0269306 8.18583e-24)
(1.00001 0.00666762 0)
(1.03162 0.0415624 2.78304e-20)
(1.06034 0.0867044 0)
(1.25389 0.261757 -2.63887e-22)
(1.45531 0.157872 0)
(1.08917 -0.0167235 1.5611e-19)
(0.344832 -0.0714168 -1.06041e-19)
(0.199645 -0.01132 1.07711e-19)
(0.020122 -0.00682828 4.67766e-20)
(0.0634103 -0.0247726 9.91251e-20)
(0.0250751 -0.00782607 -1.96678e-21)
(0.025026 -0.00775225 -1.03019e-21)
(0.128622 -0.0421872 7.23283e-23)
(0.0758873 -0.0247048 3.08896e-21)
(0.0247677 -0.00767889 4.10024e-24)
(0.0247688 -0.00762142 1.09905e-21)
(0.200562 -0.0650249 -2.08656e-23)
(0.128442 -0.0407903 1.8992e-21)
(0.289712 -0.0939645 3.46175e-21)
(0.403086 -0.131945 -2.21391e-21)
(0.278662 -0.0898638 3.48386e-21)
(0.558263 -0.187996 0)
(0.687117 -0.236903 1.39857e-20)
(0.783243 -0.275555 1.29871e-20)
(0.842912 -0.301926 -5.96569e-24)
(0.863819 -0.314767 -5.79051e-24)
(0.845764 -0.313631 -1.15499e-20)
(0.791146 -0.298491 -1.14644e-23)
(0.704728 -0.270491 1.22624e-20)
(0.59354 -0.231798 0)
(0.466055 -0.185256 1.44274e-20)
(0.330717 -0.133861 0)
(0.194709 -0.0802828 0)
(0.0629408 -0.0265863 1.66919e-20)
(1.00001 0.00354328 -3.03615e-20)
(1.02977 0.0318566 -2.84712e-20)
(1.0638 0.0659922 -1.0854e-20)
(1.22114 0.20517 0)
(1.45337 0.148167 1.63149e-23)
(1.34325 -0.000832495 -1.35844e-19)
(0.763045 -0.079504 -1.53949e-22)
(0.261497 -0.0599146 0)
(0.128669 -0.0267037 9.15493e-20)
(0.118885 -0.0472094 -1.47066e-21)
(0.0472687 -0.000621343 -8.71742e-20)
(-0.0023069 -0.0102135 -1.43911e-21)
(0.00608357 0.00330378 1.74656e-21)
(0.0757958 -0.0236485 -1.7458e-21)
(0.024694 -0.00790079 -9.95842e-22)
(0.123739 -0.0395304 4.13514e-24)
(0.192628 -0.0615134 -2.09417e-21)
(0.126255 -0.0404041 0)
(0.263817 -0.0837285 7.50295e-21)
(0.383062 -0.125244 -2.14771e-21)
(0.251192 -0.0811683 -2.9049e-23)
(0.182191 -0.0581908 1.14766e-23)
(0.539452 -0.181314 -1.97788e-24)
(0.668199 -0.229851 0)
(0.765364 -0.268532 1.33188e-20)
(0.826891 -0.295458 1.18778e-23)
(0.849819 -0.309371 1.15114e-20)
(0.833782 -0.309002 -1.13912e-20)
(0.780873 -0.294447 -1.15641e-20)
(0.695963 -0.266995 5.94542e-24)
(0.586274 -0.228874 -1.28993e-20)
(0.460314 -0.182927 9.73959e-26)
(0.326588 -0.132178 1.59151e-20)
(0.192239 -0.0792758 4.46549e-24)
(0.0621476 -0.0262539 7.86513e-24)
(1.00008 0.000605434 3.08304e-20)
(1.02773 0.0220603 2.67206e-20)
(1.06626 0.0479262 9.03685e-22)
(1.19388 0.15648 -3.53537e-21)
(1.4159 0.128161 -6.11681e-20)
(1.45424 0.00931867 2.87389e-23)
(1.11194 -0.078415 7.11761e-23)
(0.573438 -0.0922892 1.85023e-22)
(0.0718226 -0.0214864 1.26268e-22)
(0.230135 -0.0500701 0)
(0.0457195 -0.0135918 -1.75769e-20)
(0.0194393 -0.0147108 5.65557e-20)
(-0.000414062 0.00937245 5.47965e-20)
(0.00785677 -0.00034434 -2.40958e-20)
(0.0742292 -0.0234043 0)
(0.0246424 -0.00761384 1.17435e-21)
(0.120945 -0.0382834 -4.09875e-24)
(0.0725229 -0.0229265 9.38566e-22)
(0.11816 -0.037342 -2.0575e-21)
(0.164031 -0.0510144 -3.95444e-21)
(0.242516 -0.0779107 -3.59548e-21)
(0.368705 -0.120349 4.4157e-21)
(0.237514 -0.0760527 7.26884e-21)
(0.149948 -0.0477549 1.24987e-23)
(0.107649 -0.0341206 0)
(0.113705 -0.0360861 3.97564e-24)
(0.522216 -0.175228 1.82349e-23)
(0.649892 -0.222955 -1.45469e-20)
(0.747942 -0.261568 1.33044e-20)
(0.811183 -0.289546 -5.90957e-24)
(0.836229 -0.304185 1.13629e-20)
(0.822043 -0.304404 5.52751e-24)
(0.770735 -0.290417 -1.13701e-20)
(0.687323 -0.26353 0)
(0.579109 -0.225985 0)
(0.454673 -0.180647 -1.3825e-20)
(0.32254 -0.130545 -1.166e-25)
(0.189856 -0.0783007 -1.80616e-20)
(0.0613928 -0.0259338 -7.95133e-24)
(1.00016 -0.00216798 0)
(1.02582 0.01233 -4.0803e-20)
(1.06734 0.0315527 1.06206e-20)
(1.17396 0.114846 3.75425e-21)
(1.3686 0.10348 1.02306e-20)
(1.4756 0.0115015 2.34599e-23)
(1.3293 -0.072141 -8.17571e-23)
(0.913821 -0.109414 -1.27977e-22)
(0.474947 -0.0872496 0)
(0.0723607 -0.0178249 5.39583e-20)
(0.0145316 -0.000348432 -1.81089e-20)
(0.00672303 -0.00900511 -7.40945e-23)
(0.204818 -0.0431759 -2.03625e-19)
(0.0158286 -0.0024179 8.7444e-23)
(0.0115753 -0.00682992 -1.59663e-22)
(-0.0106573 -0.00434371 2.56689e-20)
(0.00195848 -0.000113952 0)
(-0.0072909 0.00233842 -1.30449e-20)
(0.000324936 0.000251063 -9.28834e-22)
(0.0240471 -0.00745289 -5.90057e-24)
(0.0708709 -0.0222227 3.4138e-24)
(0.0234227 -0.00730041 -1.88411e-21)
(0.0692954 -0.0217428 8.69857e-22)
(0.0946496 -0.0273996 1.82625e-23)
(0.0812206 -0.0263954 1.11699e-21)
(0.143835 -0.0454574 -1.53453e-21)
(0.232659 -0.0744491 -7.34196e-21)
(0.356093 -0.116193 -1.88724e-23)
(0.229267 -0.07335 7.51149e-21)
(0.14076 -0.0443356 -1.54473e-21)
(0.0708907 -0.022417 2.51132e-23)
(0.0744236 -0.0235521 -1.10535e-21)
(0.0618051 -0.0194741 0)
(0.0662793 -0.0208915 8.79755e-22)
(0.505067 -0.16915 -8.15248e-24)
(0.631855 -0.215785 -1.45515e-20)
(0.730972 -0.255421 1.27961e-20)
(0.796202 -0.283949 0)
(0.823047 -0.299081 1.13311e-20)
(0.810496 -0.299844 1.10313e-20)
(0.760734 -0.286425 -2.67617e-24)
(0.678803 -0.26011 1.1493e-20)
(0.572046 -0.223147 1.22195e-20)
(0.449122 -0.178431 0)
(0.318601 -0.128964 1.52108e-20)
(0.187561 -0.0773506 0)
(0.0606234 -0.0256137 0)
(1.00023 -0.00480113 -4.59633e-25)
(1.02416 0.00278464 2.75024e-20)
(1.06723 0.0161805 0)
(1.16007 0.0791357 5.94407e-21)
(1.32527 0.0781352 1.05945e-19)
(1.45245 0.00782658 -2.42968e-23)
(1.42957 -0.0651676 -9.88819e-20)
(1.18283 -0.113324 5.92072e-23)
(0.774443 -0.115309 1.44043e-22)
(0.413709 -0.0779165 0)
(0.0660208 -0.0153445 2.03822e-19)
(0.017276 1.03134e-05 -8.41807e-20)
(0.0160603 -0.00800459 1.66643e-20)
(0.00249908 0.00193675 1.19073e-20)
(0.000915962 -0.000228267 2.11218e-20)
(-6.61258e-05 -9.05582e-07 1.41929e-20)
(-0.00125061 -0.00242562 -1.2947e-20)
(0.00313599 -2.53268e-05 1.46753e-22)
(0.1848 -0.0383446 0)
(0.000779208 0.00112715 1.62683e-20)
(-0.00944198 0.000867337 1.49602e-20)
(-0.00292854 0.00185828 0)
(0.0228894 -0.00710972 1.21758e-21)
(0.0224893 -0.00699496 1.19396e-21)
(0.0429371 -0.01088 5.28087e-22)
(0.0280118 -0.00930091 3.26159e-22)
(0.0691677 -0.021639 -8.26597e-24)
(0.0683733 -0.0213801 2.11668e-21)
(0.138315 -0.0435696 0)
(0.225134 -0.0720874 -1.50076e-20)
(0.342257 -0.111706 3.61874e-23)
(0.221547 -0.0709196 1.51606e-20)
(0.136328 -0.042957 -4.62958e-21)
(0.067402 -0.0210403 -2.14716e-21)
(0.0677345 -0.0211403 2.13245e-21)
(0.0227946 -0.00714782 -4.8979e-24)
(0.0245956 -0.0078455 7.51685e-22)
(0.0199151 -0.0065493 -7.66884e-23)
(0.0213804 -0.00674011 -1.17498e-21)
(0.487056 -0.162043 -2.46051e-23)
(0.61428 -0.209759 -1.4068e-20)
(0.715222 -0.249708 1.86124e-23)
(0.781887 -0.278511 -1.16867e-20)
(0.810162 -0.294059 0)
(0.799142 -0.295348 0)
(0.750891 -0.282487 -1.08352e-20)
(0.670392 -0.256743 -1.12028e-20)
(0.565083 -0.220388 0)
(0.443711 -0.176286 0)
(0.314776 -0.127414 0)
(0.185288 -0.0764151 0)
(0.0598818 -0.0253019 -7.37193e-24)
(1.00027 -0.00731091 0)
(1.02277 -0.00650914 -1.40817e-20)
(1.06635 0.00140005 0)
(1.1502 0.0479741 -6.25382e-21)
(1.29075 0.0533519 -6.23352e-21)
(1.41441 0.000643955 8.0229e-20)
(1.45299 -0.0604354 5.80702e-21)
(1.34529 -0.109634 5.19925e-23)
(1.05262 -0.129653 5.45858e-23)
(0.67616 -0.109915 0)
(0.369645 -0.0697736 -1.52855e-22)
(0.0610071 -0.0138416 4.68329e-20)
(0.0169997 0.000411952 0)
(0.0145921 -0.00710222 0)
(0.00302672 0.0013198 6.90228e-23)
(0.00330565 -0.00112548 1.97297e-20)
(0.00436666 -0.000558767 -1.89841e-20)
(0.00351609 -0.00236315 0)
(0.000295277 0.000314536 0)
(-0.00116258 -0.000230861 -1.65043e-21)
(0.167981 -0.0339493 0)
(-0.000239741 0.000362178 7.12564e-22)
(0.0118705 -0.00301912 -3.04181e-22)
(0.0221657 -0.00688363 -1.22625e-21)
(0.0219191 -0.00680058 1.22998e-21)
(0.0667523 -0.0208389 -2.13832e-21)
(0.0665044 -0.020761 0)
(0.134245 -0.0423116 6.19225e-21)
(0.216457 -0.069452 0)
(0.323807 -0.10475 -3.69899e-23)
(0.210558 -0.0675288 3.82101e-21)
(0.132121 -0.0416609 -6.26633e-21)
(0.0657531 -0.0205296 -8.47162e-24)
(0.0659983 -0.0206162 -2.14613e-21)
(0.0216241 -0.00670291 2.47764e-21)
(0.0217391 -0.006737 1.23903e-21)
(0.469308 -0.156362 1.6525e-23)
(0.598745 -0.204308 -1.38834e-23)
(0.700511 -0.24426 -1.27623e-20)
(0.768033 -0.27322 -2.8058e-24)
(0.797562 -0.289139 -1.09886e-20)
(0.788 -0.29092 0)
(0.74118 -0.278611 0)
(0.662094 -0.253473 0)
(0.558257 -0.217712 2.78026e-24)
(0.438422 -0.17418 6.10457e-24)
(0.311035 -0.125897 0)
(0.183085 -0.0755016 4.02954e-24)
(0.0591709 -0.0250002 1.46534e-23)
(1.00027 -0.00970504 0)
(1.02157 -0.0155252 0)
(1.06505 -0.0130108 6.41803e-21)
(1.14289 0.0201064 0)
(1.26502 0.0293376 -6.89659e-20)
(1.3771 -0.00879094 -7.37527e-21)
(1.43765 -0.0586064 9.41158e-20)
(1.41622 -0.103565 0)
(1.25254 -0.132783 -4.82855e-23)
(0.944076 -0.131512 -5.90675e-23)
(0.603899 -0.101673 -1.26599e-22)
(0.334793 -0.0626131 1.58624e-22)
(0.0556198 -0.0117798 1.13441e-21)
(0.0155069 0.000220043 -5.85342e-22)
(0.0139296 -0.0065915 0)
(-0.000402761 0.00129053 -1.26959e-20)
(0.00340076 -0.000281511 -1.73305e-23)
(0.00211853 -0.00254515 0)
(-0.00124365 0.00117545 1.35413e-20)
(-0.000281366 -6.88481e-05 -1.15304e-20)
(0.000378009 4.28206e-05 -1.04739e-20)
(-1.20179e-05 -0.000590399 0)
(0.152925 -0.0295418 -1.73899e-19)
(0.0214567 -0.00664978 -2.60099e-24)
(0.0213665 -0.00662288 1.25087e-21)
(0.0651409 -0.0203442 -8.48872e-24)
(0.0648921 -0.0202594 1.70719e-23)
(0.129419 -0.0408526 6.13671e-23)
(0.201296 -0.064701 7.71164e-24)
(0.304784 -0.0989699 -2.2997e-21)
(0.189025 -0.059276 4.27094e-21)
(0.125512 -0.0397141 -4.74649e-21)
(0.0640716 -0.020008 2.21062e-21)
(0.0643763 -0.0201199 -8.55705e-24)
(0.0211272 -0.00654812 1.2727e-21)
(0.0212262 -0.00658122 6.15262e-25)
(0.455194 -0.151502 1.59776e-23)
(0.584786 -0.199288 1.40971e-20)
(0.686443 -0.239028 0)
(0.754555 -0.268069 1.13705e-20)
(0.785254 -0.284308 -2.57762e-24)
(0.777041 -0.286563 4.9511e-24)
(0.73159 -0.274851 0)
(0.653931 -0.250304 0)
(0.551581 -0.215091 -2.7876e-24)
(0.433252 -0.17211 -6.12396e-24)
(0.307396 -0.124407 0)
(0.180946 -0.0746068 -4.0522e-24)
(0.0584677 -0.0247068 -1.43183e-23)
(1.00022 -0.0119786 0)
(1.02051 -0.0242509 0)
(1.06352 -0.0271815 -6.62613e-21)
(1.13739 -0.00550162 -7.19971e-26)
(1.2464 0.00605766 2.23885e-20)
(1.34658 -0.0197337 -7.90385e-20)
(1.40945 -0.0593207 0)
(1.4291 -0.0980701 -2.19563e-23)
(1.36318 -0.129448 0)
(1.16186 -0.14136 3.9214e-24)
(0.855739 -0.126849 0)
(0.547586 -0.0930953 1.32643e-22)
(0.305337 -0.0559368 1.49867e-19)
(0.0499881 -0.00945915 1.71437e-19)
(0.0127798 0.000953434 1.26351e-19)
(0.012225 -0.00515061 -6.42814e-20)
(-0.0010179 0.00156826 -5.93062e-20)
(-0.0017874 -0.000274994 1.29377e-20)
(-0.00169961 0.00122063 1.18103e-20)
(-0.000320241 0.00051264 9.94323e-23)
(-0.00133714 -0.000119791 -8.28332e-23)
(-0.00154121 0.00113285 -9.68073e-23)
(0.139655 -0.0255385 0)
(0.0209654 -0.00649766 -2.40774e-24)
(0.0208686 -0.00646748 -7.81701e-26)
(0.0634127 -0.01982 0)
(0.062962 -0.0196664 0)
(0.118306 -0.0376705 7.73251e-22)
(0.176223 -0.056166 3.79361e-21)
(0.293753 -0.0950192 4.67929e-21)
(0.170996 -0.0545987 -3.82613e-21)
(0.100153 -0.0306958 -4.55209e-21)
(0.0610678 -0.0191286 0)
(0.0621773 -0.0194783 2.17936e-21)
(0.0206115 -0.0063873 2.60113e-24)
(0.0207283 -0.00642837 0)
(0.443376 -0.147392 -2.42208e-23)
(0.571688 -0.194561 1.42454e-20)
(0.67281 -0.233963 0)
(0.741414 -0.26301 0)
(0.773181 -0.279541 2.58617e-24)
(0.766235 -0.282355 -4.9656e-24)
(0.722168 -0.271233 4.77878e-24)
(0.645941 -0.247205 0)
(0.545042 -0.212505 0)
(0.428199 -0.170071 5.76282e-24)
(0.303821 -0.122936 0)
(0.178847 -0.0737376 0)
(0.05778 -0.0244185 7.10765e-24)
(1.00012 -0.0141177 -2.32744e-24)
(1.01951 -0.032677 -1.61331e-24)
(1.06182 -0.0411932 8.53375e-21)
(1.13331 -0.0297077 0)
(1.23333 -0.0166831 6.86387e-24)
(1.32374 -0.0317221 0)
(1.38188 -0.0620073 4.23546e-20)
(1.41458 -0.0942505 2.16501e-23)
(1.40486 -0.12372 2.2754e-23)
(1.30204 -0.142319 -9.24474e-20)
(1.0788 -0.141626 9.64309e-23)
(0.783367 -0.119558 -1.10056e-19)
(0.501041 -0.0847127 -2.52225e-19)
(0.279711 -0.0497835 0)
(0.0453657 -0.0072373 -1.43412e-22)
(0.0094865 0.00229967 1.16518e-22)
(0.00953967 -0.00371615 0)
(-0.00321136 0.00220789 -4.73869e-20)
(-0.00290617 0.00064139 0)
(-0.00374613 0.00217287 1.52359e-20)
(-0.00292122 0.000601078 2.33098e-22)
(-0.00238712 0.00015943 0)
(-0.00235923 0.00176499 -1.30243e-20)
(-0.000813364 9.07861e-05 -1.14387e-21)
(-0.00055528 0.000333632 -8.41089e-21)
(0.126985 -0.0222363 -3.80827e-23)
(0.0204401 -0.00633719 1.29877e-21)