/*--------------------------------*- C++ -*----------------------------------*\
| =========                 |                                                 |
| \\      /  F ield         | OpenFOAM: The Open Source CFD Toolbox           |
|  \\    /   O peration     | Version:  v1912                                 |
|   \\  /    A nd           | Website:  www.openfoam.com                      |
|    \\/     M anipulation  |                                                 |
\*---------------------------------------------------------------------------*/
FoamFile
{
    version     2.0;
    format      ascii;
    class       volScalarField;
    location    "460";
    object      p;
}
// * * * * * * * * * * * * * * * * * * * * * * * * * * * * * * * * * * * * * //

dimensions      [0 2 -2 0 0 0 0];


internalField   nonuniform List<scalar> 
3675
(
0.261589
0.259183
0.268057
0.254513
0.265115
0.286474
0.24789
0.259457
0.282009
0.319784
0.239716
0.251538
0.273585
0.312044
0.374064
0.230439
0.241929
0.262142
0.297829
0.358859
0.46082
0.220503
0.231223
0.248748
0.279295
0.332445
0.428368
0.570851
0.552222
0.210318
0.21997
0.234391
0.258722
0.300209
0.377628
0.518886
0.463727
0.669428
0.641161
0.200246
0.208641
0.21986
0.237917
0.267245
0.31759
0.406131
0.587462
0.527795
0.742927
0.728973
0.667718
0.704913
0.19059
0.197623
0.205736
0.217978
0.236641
0.264162
0.294814
0.372688
0.272609
0.630048
0.561119
0.47199
0.776102
0.757508
0.65766
0.710166
0.1816
0.187223
0.192426
0.199498
0.20935
0.22105
0.220545
0.118059
0.195288
0.231585
0.0503621
0.631241
0.530891
0.280751
0.300207
0.173476
0.17768
0.18021
0.182789
0.185514
0.185986
0.170054
0.0754058
-0.289127
-0.230919
-0.00601034
0.00196152
-0.230876
-0.210368
0.603824
0.400727
0.221748
0.166379
0.169179
0.169271
0.16799
0.165022
0.157378
0.132702
0.0526815
-0.25069
-0.50197
-0.339587
-0.425376
-0.144843
-0.249541
0.160434
0.16186
0.159727
0.155133
0.147615
0.134165
0.104647
0.0349477
-0.176366
-0.40275
-0.478234
-0.547136
-0.492604
-0.437996
-0.512508
0.155742
0.155831
0.151658
0.144188
0.13299
0.115357
0.083369
0.0206118
-0.129623
-0.315428
-0.364866
-0.438214
-0.516359
-0.449325
-0.511713
0.152384
0.151177
0.145115
0.135103
0.120858
0.100106
0.0668857
0.00979343
-0.102623
-0.246223
-0.319111
-0.33722
-0.385303
-0.402056
-0.415733
-0.456586
-0.474858
0.150425
0.147964
0.140137
0.127828
0.110965
0.0877542
0.0538459
0.00140147
-0.0872299
-0.200872
-0.276771
-0.312824
-0.321723
-0.351112
-0.364922
-0.389304
-0.432772
-0.419886
0.149921
0.146252
0.136758
0.122322
0.10311
0.0778043
0.0433547
-0.00549897
-0.0786445
-0.170711
-0.242931
-0.285486
-0.309581
-0.308298
-0.324873
-0.33434
-0.354835
-0.373424
-0.396662
-0.392943
0.150916
0.14609
0.135013
0.118565
0.0971491
0.0698931
0.0347946
-0.0114858
-0.0743733
-0.150867
-0.217022
-0.261155
-0.291199
-0.301703
-0.297707
-0.308562
-0.315051
-0.326687
-0.337384
-0.351889
-0.360352
-0.381392
-0.37107
-0.397976
-0.386254
0.153447
0.147522
0.134943
0.116559
0.0929872
0.0637684
0.0277483
-0.0169264
-0.0730177
-0.138457
-0.198294
-0.241934
-0.27343
-0.290714
-0.29349
-0.289819
-0.29758
-0.302257
-0.309893
-0.316845
-0.325069
-0.330172
-0.342262
-0.335658
-0.352658
-0.360862
-0.381601
-0.371602
0.157537
0.150589
0.136596
0.116333
0.0905859
0.0592648
0.0219262
-0.0220681
-0.0737836
-0.131463
-0.185615
-0.227709
-0.259084
-0.279318
-0.287127
-0.286979
-0.283378
-0.289546
-0.293246
-0.298659
-0.303531
-0.308986
-0.312326
-0.319828
-0.315757
-0.325578
-0.330504
-0.342714
-0.33624
0.163198
0.15532
0.140031
0.117949
0.0899616
0.0563049
0.0171395
-0.0270892
-0.0762399
-0.128576
-0.177901
-0.217869
-0.248367
-0.269587
-0.280342
-0.283216
-0.28138
-0.27753
-0.282977
-0.286231
-0.290462
-0.294203
-0.298155
-0.300526
-0.305641
-0.302898
-0.309412
-0.312619
-0.320144
-0.316185
0.170417
0.161736
0.145312
0.121501
0.091191
0.0548892
0.0132772
-0.0321236
-0.0802
-0.129012
-0.174382
-0.211922
-0.241046
-0.262127
-0.274368
-0.279248
-0.279145
-0.275954
-0.271621
-0.277083
-0.280188
-0.283813
-0.287003
-0.29017
-0.292031
-0.29584
-0.293817
-0.298542
-0.300813
-0.305938
-0.303276
0.179153
0.169838
0.15251
0.12712
0.0944148
0.0551026
0.0102983
-0.0372787
-0.0856304
-0.132366
-0.174555
-0.209539
-0.236905
-0.257137
-0.26983
-0.275831
-0.276987
-0.274673
-0.270476
-0.265933
-0.271022
-0.274406
-0.277922
-0.280846
-0.28361
-0.285244
-0.288396
-0.286733
-0.290545
-0.29232
-0.296132
-0.294177
0.189323
0.179596
0.161692
0.134974
0.0998518
0.0571193
0.00822519
-0.0426537
-0.092642
-0.138523
-0.17816
-0.210506
-0.235777
-0.254635
-0.267024
-0.273445
-0.27531
-0.27375
-0.269942
-0.265432
-0.262699
-0.266611
-0.267608
-0.272099
-0.275216
-0.277679
-0.279277
-0.282117
-0.280583
-0.283982
-0.28553
-0.288688
-0.287089
0.200783
0.190936
0.172916
0.14527
0.107812
0.0612296
0.0071605
-0.0483425
-0.101503
-0.147632
-0.185149
-0.214727
-0.237553
-0.254589
-0.266057
-0.272315
-0.274403
-0.273281
-0.26985
-0.265378
-0.26175
-0.257484
-0.262141
-0.264779
-0.267676
-0.267385
-0.272202
-0.273857
-0.276412
-0.274895
-0.278034
-0.27953
-0.282396
-0.280937
0.21332
0.203725
0.186209
0.158251
0.118713
0.0678588
0.00732132
-0.0544272
-0.112694
-0.160133
-0.1957
-0.222224
-0.242197
-0.25697
-0.266984
-0.272546
-0.274417
-0.273387
-0.270157
-0.265674
-0.261278
-0.256723
-0.251697
-0.256713
-0.25931
-0.262601
-0.265492
-0.26794
-0.269288
-0.270211
-0.265549
-0.273225
-0.274132
-0.276599
-0.27522
0.226621
0.217741
0.201538
0.174174
0.133114
0.0776202
0.00908451
-0.0609675
-0.126992
-0.176805
-0.210231
-0.233149
-0.249735
-0.261775
-0.269838
-0.274209
-0.275441
-0.274158
-0.270902
-0.266349
-0.261421
-0.256358
-0.250974
-0.246047
-0.251141
-0.253822
-0.257208
-0.259819
-0.262379
-0.26358
-0.266354
-0.26516
-0.268509
-0.272649
-0.273236
-0.263056
0.240267
0.232641
0.218785
0.193291
0.151688
0.0914196
0.0130889
-0.0680265
-0.145664
-0.19888
-0.229413
-0.24778
-0.260269
-0.269031
-0.274646
-0.277356
-0.277544
-0.275668
-0.272131
-0.267401
-0.262094
-0.256549
-0.250749
-0.245321
-0.239619
-0.245486
-0.248274
-0.251715
-0.254417
-0.257015
-0.258305
-0.260878
-0.259654
-0.262665
-0.263917
-0.266748
-0.265364
-0.268238
-0.272243
-0.259552
0.253724
0.247932
0.237665
0.215818
0.17516
0.110492
0.0205064
-0.0757971
-0.170872
-0.228222
-0.2542
-0.266518
-0.273958
-0.278797
-0.281437
-0.282019
-0.28077
-0.277976
-0.273896
-0.268833
-0.263184
-0.257234
-0.251048
-0.245054
-0.239564
-0.234489
-0.235003
-0.242238
-0.246297
-0.248915
-0.251486
-0.252851
-0.255539
-0.254215
-0.257336
-0.258638
-0.261238
-0.259973
-0.262955
-0.264194
-0.266935
-0.265586
0.266369
0.262944
0.257598
0.241745
0.204469
0.13632
0.0333285
-0.0848986
-0.206408
-0.267705
-0.285881
-0.289874
-0.291019
-0.291156
-0.290241
-0.288221
-0.285146
-0.281118
-0.27624
-0.270664
-0.264621
-0.258304
-0.251782
-0.245315
-0.239228
-0.233704
-0.235032
-0.228323
-0.245217
-0.243119
-0.245949
-0.247319
-0.250015
-0.248649
-0.251793
-0.253156
-0.255877
-0.254535
-0.257641
-0.258918
-0.261537
-0.260269
0.277541
0.276852
0.277577
0.270431
0.240937
0.171795
0.0536302
-0.09718
-0.258723
-0.321668
-0.326183
-0.318492
-0.311717
-0.306215
-0.301088
-0.295969
-0.290684
-0.285116
-0.279194
-0.272919
-0.266381
-0.259677
-0.252844
-0.246018
-0.239452
-0.233326
-0.22774
-0.228886
-0.23405
-0.237663
-0.22281
-0.242246
-0.243867
-0.239524
-0.246322
-0.247584
-0.250319
-0.248943
-0.252078
-0.25341
-0.256159
-0.254825
0.286616
0.288771
0.296162
0.300254
0.284957
0.22365
0.084023
-0.11739
-0.338684
-0.39578
-0.377266
-0.353142
-0.336401
-0.324098
-0.314
-0.305255
-0.297375
-0.289971
-0.282769
-0.275613
-0.268458
-0.261307
-0.254148
-0.247027
-0.2401
-0.233533
-0.227469
-0.222108
-0.223632
-0.228347
-0.231124
-0.23363
-0.235395
-0.237058
-0.238643
-0.217317
-0.240457
-0.242335
-0.24744
-0.244989
-0.246497
-0.247782
-0.250569
-0.249202
0.293079
0.297893
0.311734
0.328388
0.333675
0.295339
0.138259
-0.151954
-0.461736
-0.495998
-0.440815
-0.394461
-0.365457
-0.344959
-0.328996
-0.316054
-0.305191
-0.295667
-0.286963
-0.278752
-0.270853
-0.263172
-0.255641
-0.248236
-0.24102
-0.234102
-0.227619
-0.221742
-0.216509
-0.218279
-0.223036
-0.225758
-0.228083
-0.229531
-0.230755
-0.232072
-0.211514
-0.244816
-0.244795
0.296578
0.303622
0.322898
0.351245
0.380421
0.376338
0.241199
-0.197364
-0.629672
-0.623315
-0.514439
-0.442007
-0.398865
-0.368876
-0.346073
-0.328328
-0.314087
-0.302167
-0.291755
-0.282326
-0.27356
-0.265261
-0.257295
-0.249582
-0.242108
-0.234915
-0.228086
-0.221772
-0.216066
-0.210778
-0.212661
-0.217523
-0.220389
-0.222746
-0.224202
-0.225422
-0.226669
-0.20544
0.296951
0.305642
0.328786
0.365984
0.415963
0.460305
0.341856
0.438195
-0.0339877
0.0347917
0.365018
-0.681067
-0.398535
-0.811809
-0.750333
-0.825167
-0.583855
-0.491186
-0.435057
-0.395318
-0.365068
-0.341998
-0.324002
-0.30942
-0.297105
-0.286312
-0.276566
-0.267563
-0.259096
-0.25103
-0.243295
-0.235871
-0.228784
-0.222123
-0.216007
-0.210404
-0.20519
-0.205707
-0.212028
-0.214894
-0.217135
-0.218695
-0.219982
-0.221294
-0.201544
0.294215
0.303924
0.32917
0.371353
0.434436
0.520076
0.511505
0.577583
0.470015
0.213104
0.0717505
-0.284259
-0.225594
0.252851
-0.652458
-0.577254
-0.470454
-1.0197
-0.734081
-0.809889
-0.812906
-0.629643
-0.786989
-0.904903
-0.528256
-0.468932
-0.421978
-0.385165
-0.356797
-0.334825
-0.317357
-0.302963
-0.290673
-0.279846
-0.270061
-0.261031
-0.252564
-0.244541
-0.236896
-0.229604
-0.222696
-0.216252
-0.210324
-0.204934
-0.200644
-0.202525
-0.206277
-0.206907
-0.212116
-0.213389
-0.214296
-0.215643
-0.19619
0.288537
0.298678
0.324385
0.36769
0.435169
0.540119
0.620267
0.654385
0.563696
0.646226
0.445572
0.296687
0.0314268
0.00562144
-0.912881
-0.865265
-0.856711
-0.686185
-0.543498
-0.632871
-0.809918
-0.772242
-0.491535
-0.443912
-0.404072
-0.371858
-0.346243
-0.325848
-0.309258
-0.295359
-0.283364
-0.27273
-0.263083
-0.254171
-0.245828
-0.237948
-0.230468
-0.223373
-0.216693
-0.210482
-0.204812
-0.19998
-0.195422
-0.196937
-0.201624
-0.204265
-0.206422
-0.208273
-0.205092
-0.210347
-0.190408
0.280188
0.290277
0.315163
0.356601
0.420513
0.525001
0.656591
0.627648
0.703183
0.680455
0.768283
0.453609
0.549778
0.733145
0.720664
0.644951
0.421831
0.134808
-0.894957
-0.869349
-0.706479
-0.673691
-0.571486
-0.499954
-0.537831
-0.646798
-0.615962
-0.81304
-0.772821
-0.456262
-0.418063
-0.385262
-0.357418
-0.334571
-0.315858
-0.300303
-0.287078
-0.275541
-0.265232
-0.255836
-0.24714
-0.239005
-0.231334
-0.224077
-0.217222
-0.210796
-0.204859
-0.199584
-0.194762
-0.189763
-0.19111
-0.196
-0.198718
-0.201153
-0.202468
-0.203836
-0.205011
-0.206153
-0.208506
-0.202572
-0.184984
0.269501
0.279178
0.302385
0.340184
0.395861
0.479963
0.604452
0.756987
0.718604
0.781982
0.817671
0.825512
0.781678
-0.700886
-0.67162
-0.581635
-0.559654
-0.509975
-0.460418
-0.488228
-0.546075
-0.52911
-0.643916
-0.613824
-0.424988
-0.394565
-0.366796
-0.342789
-0.322462
-0.30538
-0.290924
-0.278454
-0.26745
-0.257539
-0.248466
-0.240054
-0.23218
-0.224765
-0.217766
-0.211177
-0.205028
-0.199413
-0.194279
-0.189211
-0.18433
-0.185686
-0.190361
-0.193076
-0.195592
-0.197016
-0.198347
-0.19964
-0.201386
-0.202691
-0.203908
-0.205037
-0.179747
0.256829
0.265847
0.286893
0.320308
0.366614
0.428138
0.49803
0.571765
0.486898
0.789332
0.761058
0.670719
0.722257
0.812752
-0.58
-0.557759
-0.513753
-0.499029
-0.467753
-0.426891
-0.44971
-0.486403
-0.546206
-0.528191
-0.399039
-0.37282
-0.349335
-0.32846
-0.310322
-0.29479
-0.281417
-0.269705
-0.25926
-0.249789
-0.241083
-0.232993
-0.225415
-0.218283
-0.211563
-0.205254
-0.199396
-0.19398
-0.188777
-0.183773
-0.179095
-0.180424
-0.18493
-0.187597
-0.189971
-0.191379
-0.192694
-0.19404
-0.195836
-0.197248
-0.198518
-0.199794
-0.174589
0.242524
0.250733
0.26941
0.29837
0.335982
0.380077
0.416974
0.332191
0.594071
0.365319
0.386916
0.27129
0.73551
0.625274
-0.551589
-0.512469
-0.503561
-0.466159
-0.432863
-0.400056
-0.419076
-0.448812
-0.480461
-0.491577
-0.542869
-0.52635
-0.375374
-0.353312
-0.333025
-0.31464
-0.298449
-0.284333
-0.271953
-0.260971
-0.251091
-0.242079
-0.233761
-0.226014
-0.218751
-0.211917
-0.205484
-0.199454
-0.193823
-0.188465
-0.183333
-0.178519
-0.17395
-0.175243
-0.179637
-0.182261
-0.184537
-0.185911
-0.18719
-0.188509
-0.190188
-0.191576
-0.192836
-0.194162
-0.169526
0.226909
0.234237
0.250504
0.275332
0.305593
0.337123
0.356248
0.289933
0.0912346
0.119052
0.529505
0.277217
0.100186
0.103074
-0.510883
-0.501962
-0.4693
-0.460289
-0.431457
-0.405466
-0.375503
-0.392587
-0.418476
-0.444702
-0.452198
-0.354882
-0.335689
-0.31775
-0.301526
-0.287021
-0.274115
-0.262633
-0.252349
-0.243027
-0.234476
-0.226553
-0.219157
-0.212215
-0.20568
-0.199528
-0.193742
-0.188249
-0.182999
-0.178045
-0.17337
-0.168899
-0.170159
-0.17445
-0.177032
-0.179244
-0.180591
-0.181844
-0.183135
-0.184743
-0.186093
-0.187314
-0.188606
-0.164569
0.210289
0.216697
0.23059
0.251811
0.276238
0.298944
0.3079
0.258498
0.10914
0.0596603
0.0527779
0.0707329
0.103778
0.0653996
-0.433594
-0.428227
-0.404221
-0.380329
-0.354778
-0.368806
-0.391648
-0.41398
-0.421257
-0.336738
-0.3194
-0.303635
-0.289213
-0.276046
-0.264181
-0.253532
-0.243909
-0.235123
-0.227023
-0.219492
-0.212445
-0.20582
-0.199576
-0.193681
-0.188082
-0.182737
-0.177664
-0.172872
-0.168314
-0.163951
-0.165179
-0.169367
-0.171905
-0.17406
-0.175381
-0.176611
-0.177879
-0.179444
-0.180766
-0.181961
-0.183222
-0.159712
0.192954
0.198374
0.209919
0.228147
0.248231
0.265021
0.268522
0.231526
0.129291
0.0705365
0.0622283
0.0404089
0.050789
0.0699163
0.0415054
-0.430139
-0.427167
-0.406388
-0.399937
-0.3794
-0.35874
-0.336086
-0.349002
-0.367866
-0.387755
-0.393992
-0.413154
-0.420188
-0.319908
-0.30465
-0.290674
-0.277551
-0.265502
-0.254589
-0.244702
-0.23569
-0.227413
-0.219749
-0.2126
-0.205892
-0.199572
-0.193598
-0.187924
-0.182507
-0.177345
-0.172449
-0.167793
-0.16336
-0.159104
-0.160299
-0.164387
-0.166881
-0.168979
-0.170274
-0.171482
-0.172728
-0.174252
-0.175548
-0.176722
-0.177961
-0.15495
0.17501
0.179506
0.18854
0.204462
0.221591
0.234724
0.23585
0.208096
0.138445
0.0869644
0.0696317
0.0585267
0.0504166
0.0558573
0.0505604
0.0329982
-0.405405
-0.399314
-0.381382
-0.375621
-0.357974
-0.33937
-0.319373
-0.327972
-0.348428
-0.364162
-0.370218
-0.387135
-0.393148
-0.304804
-0.291374
-0.278484
-0.266461
-0.255441
-0.245367
-0.236156
-0.227713
-0.219919
-0.21267
-0.205885
-0.199502
-0.193468
-0.187739
-0.182272
-0.177051
-0.172076
-0.167336
-0.162819
-0.158508
-0.154344
-0.155517
-0.159506
-0.161959
-0.164002
-0.165271
-0.166457
-0.167681
-0.169164
-0.170434
-0.171586
-0.172804
-0.15027
0.156344
0.160263
0.166315
0.1807
0.196173
0.207405
0.208102
0.187722
0.139441
0.0981304
0.0792924
0.0649248
0.0581767
0.0614822
0.0438651
0.0564655
0.0503245
0.0512744
0.0456515
-0.380457
-0.375136
-0.359705
-0.354752
-0.338675
-0.31768
-0.304226
-0.332429
-0.345278
-0.350115
-0.36344
-0.370378
-0.291491
-0.27884
-0.266966
-0.256003
-0.245851
-0.236496
-0.227908
-0.219993
-0.212649
-0.205793
-0.199353
-0.193273
-0.187504
-0.182003
-0.176746
-0.17172
-0.166919
-0.162331
-0.157951
-0.153741
-0.149656
-0.150832
-0.154719
-0.157137
-0.159124
-0.160369
-0.161534
-0.162736
-0.164178
-0.165424
-0.166555
-0.167751
-0.14566
0.140028
0.140022
0.143102
0.156733
0.171786
0.182489
0.183997
0.169689
0.136125
0.103703
0.0855146
0.0697781
0.0591705
0.0577528
0.0598663
0.0554112
0.0526053
0.0526468
0.0473041
0.047959
-0.359869
-0.354253
-0.33992
-0.334282
-0.321309
-0.302982
-0.312992
-0.291127
-0.33053
-0.344704
-0.349468
-0.361191
-0.278729
-0.267027
-0.256238
-0.246106
-0.236676
-0.227984
-0.219963
-0.212532
-0.205608
-0.199119
-0.193002
-0.187205
-0.181683
-0.176404
-0.171352
-0.166513
-0.161875
-0.157435
-0.153174
-0.149055
-0.145034
-0.14628
-0.150014
-0.152411
-0.154341
-0.155565
-0.156709
-0.157891
-0.159294
-0.160515
-0.161626
-0.1628
-0.141003
0.138608
0.117067
0.119105
0.132719
0.148399
0.15958
0.162673
0.153486
0.130422
0.10568
0.0891651
0.0740684
0.0614821
0.0545223
0.055233
0.057472
0.0560132
0.0568431
0.0531593
0.0532149
0.0503993
0.0507753
-0.358687
-0.353538
-0.339687
-0.336851
-0.322246
-0.318272
-0.305229
-0.290276
-0.299063
-0.314568
-0.311258
-0.278214
-0.331478
-0.326915
-0.344127
-0.348743
-0.266713
-0.256189
-0.246126
-0.236674
-0.227923
-0.219825
-0.212314
-0.205327
-0.198793
-0.192647
-0.18683
-0.181295
-0.176009
-0.170946
-0.16609
-0.161425
-0.156947
-0.152645
-0.148494
-0.144459
-0.140495
-0.141565
-0.145447
-0.147792
-0.149635
-0.150847
-0.151976
-0.153143
-0.154507
-0.155706
-0.156797
-0.15795
-0.13669
0.155448
0.0943719
0.0951886
0.109946
0.126567
0.138663
0.143647
0.138834
0.123487
0.105097
0.090885
0.0773578
0.0645105
0.0559184
0.0499911
0.0517831
0.0541953
0.0542333
0.0558438
0.0547069
0.054963
0.0547146
0.0548728
0.051757
0.0517838
-0.33903
-0.33577
-0.305843
-0.303792
-0.292559
-0.277338
-0.285943
-0.300392
-0.296931
-0.266045
-0.255912
-0.245944
-0.236495
-0.227726
-0.219577
-0.211995
-0.204949
-0.198373
-0.192202
-0.186371
-0.180833
-0.175547
-0.170486
-0.165628
-0.160956
-0.156463
-0.152137
-0.147963
-0.143923
-0.140001
-0.136268
-0.137083
-0.140711
-0.143241
-0.145041
-0.146249
-0.147327
-0.148481
-0.1498
-0.150984
-0.15206
-0.153196
-0.132915
0.0855525
0.0737089
0.0913544
0.107989
0.120432
0.126942
0.125687
0.116119
0.102838
0.0910391
0.0793153
0.0673789
0.0580687
0.051107
0.0448353
0.0477869
0.0504198
0.0511582
0.0531353
0.0531732
0.0538983
0.0549336
0.0544913
0.0540132
0.0542381
0.0535859
0.0539492
-0.303732
-0.30306
-0.293432
-0.290253
-0.279523
-0.265089
-0.273319
-0.287133
-0.283772
-0.300013
-0.296604
-0.255427
-0.245591
-0.236166
-0.227422
-0.21924
-0.211591
-0.204481
-0.197862
-0.191667
-0.185826
-0.180288
-0.17501
-0.169959
-0.165111
-0.160448
-0.155955
-0.151624
-0.147444
-0.143403
-0.139499
-0.135784
-0.132342
-0.133452
-0.136704
-0.138265
-0.140385
-0.141696
-0.142791
-0.143932
-0.145193
-0.146368
-0.147409
-0.148528
-0.128746
0.0587896
0.0792644
0.0951102
0.106357
0.113193
0.114302
0.108929
0.0996559
0.0901236
0.0801163
0.0694822
0.0603381
0.0529233
0.0466843
0.0442004
0.042209
0.0456336
0.0478097
0.0497216
0.0501289
0.0511355
0.0527683
0.0519321
0.0527693
0.0534575
0.0543223
0.0539979
-0.29275
-0.289752
-0.280358
-0.277321
-0.267008
-0.254717
-0.261671
-0.274507
-0.271353
-0.286845
-0.283527
-0.245067
-0.235696
-0.227041
-0.218849
-0.21113
-0.203945
-0.197273
-0.191047
-0.185194
-0.179658
-0.174392
-0.169358
-0.164529
-0.159883
-0.155406
-0.151085
-0.146912
-0.142879
-0.138986
-0.135267
-0.131762
-0.128237
-0.12919
-0.132648
-0.13474
-0.136429
-0.137406
-0.138508
-0.138425
-0.141427
-0.141982
-0.142905
-0.143939
-0.124562
0.0725468
0.0884735
0.097671
0.103357
0.105252
0.102488
0.0961549
0.0885856
0.0801149
0.070806
0.062232
0.0548827
0.0485761
0.0448893
0.0411372
0.0429475
0.0443443
0.0399155
0.0457833
0.0467723
0.0479255
0.0495656
0.0484978
0.0498482
0.0507845
0.0523382
0.0516147
-0.27969
-0.276848
-0.268059
-0.264797
-0.256602
-0.244318
-0.25096
-0.26271
-0.260008
-0.274175
-0.271163
-0.235068
-0.22658
-0.218435
-0.210649
-0.203375
-0.196637
-0.190366
-0.184487
-0.178946
-0.173692
-0.168678
-0.163874
-0.159254
-0.1548
-0.150501
-0.146346
-0.142331
-0.138453
-0.134732
-0.131184
-0.127689
-0.124094
-0.124992
-0.128427
-0.130472
-0.132229
-0.133256
-0.134328
-0.135328
-0.136543
-0.137748
-0.139382
-0.137941
-0.120571
0.0859774
0.093697
0.0977174
0.0990665
0.0973507
0.0928408
0.0867824
0.0796065
0.0715038
0.0636406
0.0565933
0.0503001
0.0457109
0.0417565
0.0376973
0.0394941
0.0410307
0.0426434
0.0445295
0.0442603
0.036598
0.0464714
0.0466007
0.046512
0.0474567
0.0491732
0.0482365
-0.268086
-0.264147
-0.257324
-0.254603
-0.245999
-0.23427
-0.240967
-0.251699
-0.248068
-0.262999
-0.259808
-0.22601
-0.217991
-0.210167
-0.202813
-0.195999
-0.189656
-0.183727
-0.178166
-0.172913
-0.167919
-0.163141
-0.158552
-0.154129
-0.14986
-0.145732
-0.141741
-0.137884
-0.13417
-0.130603
-0.12712
-0.123594
-0.120106
-0.120999
-0.124315
-0.12632
-0.128054
-0.129088
-0.130105
-0.131115
-0.132334
-0.133372
-0.134381
-0.135412
-0.136569
-0.137616
-0.139084
-0.136349
-0.116708
0.0924898
0.0952347
0.0955838
0.0938279
0.0901114
0.0850125
0.078825
0.0717363
0.0645833
0.0579355
0.0518021
0.0467162
0.0423715
0.0381923
0.0346848
0.0364747
0.0379263
0.0390826
0.04057
0.0417072
0.0424944
0.044603
0.0439093
0.0331163
0.0454645
0.0472279
-0.262757
-0.256862
-0.2542
-0.245202
-0.236071
-0.225309
-0.231086
-0.240422
-0.251684
-0.249967
-0.262356
-0.259342
-0.217469
-0.209671
-0.202274
-0.195399
-0.188971
-0.182959
-0.177345
-0.172073
-0.167086
-0.162332
-0.157774
-0.153387
-0.149153
-0.14506
-0.141099
-0.137269
-0.133571
-0.130004
-0.12653
-0.123064
-0.119615
-0.116249
-0.117124
-0.120332
-0.122297
-0.12396
-0.124977
-0.125964
-0.12697
-0.128166
-0.129203
-0.130192
-0.131215
-0.13243
-0.133456
-0.134469
-0.135479
-0.112936
0.0943692
0.0938996
0.0917046
0.0881219
0.0834817
0.0779518
0.0716495
0.0651312
0.0588953
0.0530147
0.0477759
0.0431481
0.0388088
0.0351363
0.0319788
0.0336843
0.0350623
0.036177
0.0376162
0.0385453
0.0391935
0.0406618
0.0399288
-0.256436
-0.253894
-0.24615
-0.243524
-0.235555
-0.226848
-0.216789
-0.222504
-0.230446
-0.238783
-0.241284
-0.251324
-0.249266
-0.209123
-0.201731
-0.194852
-0.188353
-0.182234
-0.176529
-0.171204
-0.1662
-0.161455
-0.156923
-0.152572
-0.148377
-0.144322
-0.140398
-0.1366
-0.132925
-0.129371
-0.125916
-0.122499
-0.119098
-0.115763
-0.112492
-0.113339
-0.116456
-0.118379
-0.119982
-0.120976
-0.121936
-0.122921
-0.124066
-0.12508
-0.126048
-0.127061
-0.128255
-0.12928
-0.130291
-0.131308
-0.109262
0.0929964
0.0903918
0.086709
0.0822269
0.0770845
0.0713522
0.0653639
0.0595107
0.0539059
0.048719
0.043992
0.0395578
0.035684
0.0324044
0.0296078
0.0298177
0.0324182
0.0335232
0.0348137
0.0356659
0.0363153
0.0377759
0.0370411
-0.236187
-0.233878
-0.226456
-0.218244
-0.208455
-0.213975
-0.222058
-0.228768
-0.231746
-0.20114
-0.194332
-0.187811
-0.181589
-0.175769
-0.170354
-0.165295
-0.16053
-0.156008
-0.151685
-0.147529
-0.143515
-0.139632
-0.135871
-0.132227
-0.128697
-0.125267
-0.121894
-0.118548
-0.115253
-0.112015
-0.108825
-0.109662
-0.112675
-0.114557
-0.116112
-0.117083
-0.118019
-0.118981
-0.120085
-0.121073
-0.122013
-0.123
-0.124148
-0.125147
-0.126138
-0.127142
0.0893451
0.0855255
0.0811213
0.0762146
0.0708915
0.0653363
0.0598275
0.0544911
0.0494494
0.0447609
0.0403338
0.0363292
0.0328731
0.0299161
0.0274126
0.0286926
0.0298313
0.0287013
0.0264587
0.0327295
0.0330005
0.0335806
0.0349454
0.0342566
-0.227293
-0.224911
-0.21768
-0.209876
-0.200469
-0.205807
-0.213488
-0.220581
-0.222757
-0.227665
-0.19379
-0.187321
-0.181029
-0.1751
-0.169575
-0.164424
-0.159598
-0.155051
-0.150737
-0.146611
-0.142639
-0.138799
-0.135079
-0.131472
-0.127974
-0.124572
-0.121243
-0.117953
-0.114707
-0.111509
-0.108356
-0.110832
-0.112335
-0.113287
-0.114201
-0.11514
-0.116213
-0.117176
-0.118091
-0.119053
-0.120163
-0.121134
-0.122098
-0.123073
0.0843376
0.0799585
0.0752624
0.0702499
0.0650587
0.0598692
0.0547958
0.0499388
0.0453648
0.041029
0.037005
0.0334274
0.0303178
0.027679
0.0253479
0.0264941
0.0276934
0.0282704
0.0287356
0.0292452
0.0295281
0.0296244
0.0356596
0.0325491
0.0319356
-0.226822
-0.224476
-0.218293
-0.216203
-0.209351
-0.201878
-0.193175
-0.19792
-0.205398
-0.212103
-0.214196
-0.220278
-0.222409
-0.186859
-0.180521
-0.174523
-0.168904
-0.163642
-0.158712
-0.154095
-0.149754
-0.145637
-0.141696
-0.137898
-0.134221
-0.130656
-0.127195
-0.123828
-0.12054
-0.117306
-0.114116
-0.110966
-0.107856
-0.110462
-0.111391
-0.112435
-0.113376
-0.11427
-0.115209
-0.116288
-0.117235
-0.118173
-0.119122
0.0786636
0.0741021
0.0693869
0.064513
0.0596331
0.0548294
0.0501812
0.0457642
0.0415667
0.0376178
0.0340053
0.030777
0.0279674
0.0254798
0.0231885
0.0244336
0.0256442
0.0261179
0.0266617
0.0272029
0.0278066
0.0281844
0.0286098
0.0290422
0.0293146
0.0293668
0.0323776
-0.217955
-0.215937
-0.209958
-0.207939
-0.201449
-0.194366
-0.18608
-0.190729
-0.197478
-0.20405
-0.206065
-0.211839
-0.213881
-0.180054
-0.174001
-0.168339
-0.162985
-0.157924
-0.15319
-0.148776
-0.144633
-0.1407
-0.136933
-0.133299
-0.129778
-0.126358
-0.123031
-0.119784
-0.116602
-0.113468
-0.110375
-0.107316
-0.110537
-0.111458
-0.112508
-0.113435
-0.114351
-0.115275
0.0727439
0.0682323
0.0636922
0.0591079
0.0545825
0.0501718
0.045941
0.0419079
0.0380894
0.0345301
0.0312637
0.0283309
0.0256959
0.0231853
0.0200839
0.0225061
0.0236828
0.024028
0.024618
0.025112
0.025722
0.0260679
0.0265813
0.0270961
0.0276716
0.0281131
0.0285081
0.0289264
0.0291422
-0.20963
-0.207686
-0.202039
-0.200085
-0.193966
-0.187014
-0.179441
-0.182359
-0.190418
-0.196105
-0.198206
-0.203783
-0.205742
-0.173492
-0.167836
-0.162444
-0.157262
-0.152389
-0.147859
-0.143644
-0.139681
-0.13592
-0.132316
-0.128837
-0.125462
-0.122178
-0.118975
-0.115841
-0.112761
-0.109728
-0.106727
-0.110611
-0.111521
0.06685
0.0625524
0.0582983
0.0540498
0.0498985
0.0458832
0.042036
0.038375
0.0349295
0.0317129
0.0287474
0.0260395
0.0235054
0.0210146
0.0206345
0.0191121
0.0210268
0.0222106
0.0228378
0.0230881
0.0237139
0.0239933
0.0245339
0.0250064
0.0255757
0.0260123
0.0264991
0.0270441
0.0275905
-0.201692
-0.19987
-0.194505
-0.192749
-0.186866
-0.178431
-0.172904
-0.184305
-0.189234
-0.191001
-0.195773
-0.198265
-0.167331
-0.161981
-0.156721
-0.151717
-0.14705
-0.142721
-0.138682
-0.134889
-0.131289
-0.127839
-0.124505
-0.121267
-0.11811
-0.115024
-0.111997
-0.10902
-0.106082
0.061176
0.0571715
0.0532496
0.0493568
0.0455794
0.0419395
0.0384561
0.0351576
0.0320498
0.0291379
0.0264362
0.0239506
0.0217711
0.0208448
0.0194218
0.0201854
0.0204498
0.0202497
0.0178406
0.0206435
0.0218647
0.0223258
0.0226893
0.0229858
0.0235328
0.0239443
0.0244568
0.0249584
0.0254911
-0.194579
-0.192532
-0.187359
-0.185667
-0.179733
-0.172188
-0.176415
-0.166745
-0.182033
-0.184275
-0.188963
-0.19074
-0.194801
-0.161534
-0.156256
-0.151163
-0.146374
-0.141916
-0.137759
-0.133884
-0.130248
-0.1268
-0.123496
-0.1203
-0.11719
-0.114152
-0.111176
-0.108253
-0.105374
0.0558211
0.0521519
0.0485675
0.0450319
0.0416121
0.038326
0.0351939
0.0322268
0.0294246
0.0267959
0.0243702
0.0222665
0.0209546
0.0195871
0.0175783
0.0186204
0.0192865
0.0197201
0.0199578
0.0204223
0.0205991
0.0224315
0.0153706
0.0229364
0.0219659
0.0222138
0.0225221
0.0229231
0.023439
-0.194091
-0.192203
-0.187116
-0.185417
-0.182815
-0.180316
-0.178613
-0.17326
-0.166084
-0.170121
-0.17708
-0.175339
-0.161036
-0.183868
-0.188698
-0.190432
-0.155803
-0.150682
-0.145817
-0.14125
-0.136959
-0.13296
-0.129237
-0.125752
-0.122451
-0.119282
-0.116215
-0.113225
-0.1103
-0.10743
-0.104606
0.050844
0.0475026
0.0442617
0.0410622
0.0379841
0.0350331
0.032224
0.0295593
0.0270452
0.0247044
0.022626
0.0210633
0.0196266
0.0177615
0.0160722
0.0170156
0.0177147
0.0183077
0.0185827
0.0189396
0.0192671
0.0195705
0.0198492
0.0202936
0.0209341
0.0124032
0.0227526
0.0215002
-0.186836
-0.185205
-0.182285
-0.173603
-0.172085
-0.166932
-0.160441
-0.164222
-0.170666
-0.169342
-0.155296
-0.183606
-0.15022
-0.145331
-0.140709
-0.136301
-0.132162
-0.128312
-0.124743
-0.121401
-0.118232
-0.115192
-0.112245
-0.10937
-0.106553
-0.103783
0.0462476
0.0432367
0.040314
0.0374387
0.0346767
0.0320376
0.0295222
0.0271418
0.0249103
0.0228812
0.02119
0.0196682
0.0179208
0.0162686
0.0148039
0.0155824
0.0162365
0.0167563
0.0170566
0.0174288
0.0178427
0.0182774
0.0185477
0.0188725
0.0192121
-0.167231
-0.166204
-0.161357
-0.15467
-0.158434
-0.164731
-0.163238
-0.149728
-0.144855
-0.140247
-0.135772
-0.131507
-0.127515
-0.123822
-0.120392
-0.117182
-0.11414
-0.111221
-0.108389
-0.105622
-0.102906
0.0420387
0.039335
0.0367142
0.0341379
0.0316711
0.0293122
0.0270738
0.0249641
0.0230131
0.0212874
0.0197146
0.0180541
0.0164474
0.0150149
0.0136385
0.0143163
0.0149215
0.0153403
0.015613
0.0159546
0.0163438
0.0167231
0.0170133
0.017379
0.0178121
-0.166314
-0.165835
-0.161724
-0.160314
-0.155565
-0.149166
-0.152757
-0.158909
-0.157431
-0.164525
-0.163049
-0.14433
-0.139804
-0.135324
-0.130975
-0.12686
-0.123031
-0.11948
-0.116181
-0.113093
-0.11017
-0.107364
-0.104641
-0.101976
0.0381987
0.0357789
0.0334412
0.03114
0.0289377
0.0268439
0.0248599
0.0230067
0.0213107
0.0197361
0.0181468
0.0165963
0.0151871
0.0138475
0.012555
0.0131645
0.0137311
0.0140787
0.0143456
0.014645
0.0149957
0.0152968
0.0155598
0.0158942
0.0162916
-0.161419
-0.160065
-0.155933
-0.154562
-0.15003
-0.143747
-0.147317
-0.153233
-0.151799
-0.158744
-0.157272
-0.139331
-0.134899
-0.130523
-0.126329
-0.122385
-0.118702
-0.115278
-0.112097
-0.109127
-0.106316
-0.103621
-0.101
0.0347043
0.0325518
0.0304671
0.0284171
0.0264636
0.0246068
0.0228591
0.0212314
0.0196999
0.0181843
0.0166994
0.015319
0.0140118
0.0127575
0.0115537
0.0120942
0.0126373
0.0129434
0.0131879
0.0134566
0.0137922
0.0140361
0.0142905
0.0145842
0.0149345
-0.155637
-0.154325
-0.15037
-0.149032
-0.144603
-0.138816
-0.141965
-0.147768
-0.146377
-0.153065
-0.15164
-0.134443
-0.130098
-0.125877
-0.121863
-0.118072
-0.114513
-0.111202
-0.108138
-0.10528
-0.102581
-0.0999849
0.0315365
0.0296214
0.0277733
0.0259525
0.0242196
0.0225795
0.021039
0.0195781
0.0181487
0.0167431
0.015407
0.0141342
0.0129127
0.0117499
0.0106243
0.0111011
0.0116248
0.0118884
0.0121152
0.0123786
0.0126768
0.0129045
0.013135
0.013393
0.0137298
-0.150076
-0.148797
-0.144959
-0.143649
-0.139602
-0.133908
-0.137088
-0.142304
-0.141185
-0.14758
-0.146199
-0.129647
-0.125452
-0.121417
-0.117567
-0.113895
-0.110443
-0.107251
-0.1043
-0.101553
-0.0989532
0.0286655
0.0269725
0.0253314
0.0237174
0.0221844
0.0207373
0.0193596
0.0180238
0.0167108
0.0154409
0.0142139
0.0130251
0.01189
0.0108052
0.00973906
0.0101617
0.0106829
0.0109039
0.0111271
0.0113715
0.0116521
0.0118527
0.0120634
0.0123167
0.0126117
-0.144678
-0.143603
-0.139947
-0.138702
-0.134654
-0.129123
-0.132156
-0.13747
-0.136208
-0.142164
-0.141187
-0.125011
-0.120993
-0.117142
-0.113399
-0.10983
-0.1065
-0.103425
-0.100586
-0.0979394
0.0260713
0.0245695
0.0231213
0.0216918
0.0203361
0.0190477
0.0178043
0.016589
0.0154024
0.0142404
0.0130968
0.0119881