/*--------------------------------*- C++ -*----------------------------------*\
| =========                 |                                                 |
| \\      /  F ield         | OpenFOAM: The Open Source CFD Toolbox           |
|  \\    /   O peration     | Version:  v1912                                 |
|   \\  /    A nd           | Website:  www.openfoam.com                      |
|    \\/     M anipulation  |                                                 |
\*---------------------------------------------------------------------------*/
FoamFile
{
    version     2.0;
    format      ascii;
    class       surfaceScalarField;
    location    "460";
    object      phi;
}
// * * * * * * * * * * * * * * * * * * * * * * * * * * * * * * * * * * * * * //

dimensions      [0 3 -1 0 0 0 0];
oriented        oriented;


internalField   nonuniform List<scalar> 
7200
(
-8.46275e-05
0.0100461
-0.000172744
0.0100534
2.37594e-05
0.0100209
-0.000267964
0.0100664
3.64261e-05
0.0100407
0.00017143
0.00984718
-0.000372279
0.0100836
2.58867e-05
0.010077
0.000316486
0.00989563
0.000404087
0.0094397
-0.000486498
0.0101022
-1.41811e-05
0.0101237
0.000410813
0.00998263
0.000748453
0.00955127
0.00082861
0.00860639
-0.000610383
0.0101201
-8.59746e-05
0.010174
0.000442597
0.0100919
0.000986778
0.00974431
0.00149976
0.00888012
0.00167439
0.00342024
0.00350537
-0.0007427
0.0101355
-0.0001878
0.0102219
0.000410581
0.010206
0.00109924
0.00997944
0.001935
0.00930907
0.00286658
0.00374277
0.00394516
0.000810159
0.0026061
0.00152576
0.00278977
-0.000882388
0.0101483
-0.000316612
0.0102643
0.00032043
0.0103121
0.00109245
0.0102128
0.00211175
0.00980268
0.00359621
0.00857943
0.00215512
0.0031134
0.00265555
0.00344473
0.00123253
0.000674965
0.000694004
0.0023209
0.000921451
0.000779953
-0.00102807
0.010158
-0.000467687
0.0102994
0.000181575
0.0104032
0.000987744
0.0104168
0.00207547
0.0102491
0.00372643
0.00967246
-0.00363694
0.00705176
0.00363343
0.00418672
0.00306932
0.00113706
0.00122793
0.00287711
0.00039484
0.000278045
0.000789325
0.000299518
-0.00119337
0.00150793
0.000606897
0.000375906
-0.00117881
0.0101652
-0.000637163
0.0103275
3.35311e-06
0.0104776
0.000808279
0.0105826
0.00189198
0.0106003
0.00350173
0.0104738
0.00651023
0.010214
0.00573268
-0.00518065
0.00169642
0.00138498
0.00559421
0.00432519
0.00183072
0.000814262
0.00208635
0.000972299
-0.00210094
0.00104581
0.000837948
0.000276958
0.000576476
-0.000952382
0.00155928
-0.00133235
0.010169
-0.000820852
0.0103489
-0.000205105
0.0105359
0.000573819
0.010712
0.00161175
0.0108629
0.00310331
0.0109987
0.0055809
0.0114031
-0.00534823
0.00993896
0.00527525
0.00594222
-0.00260596
0.00277964
0.00152274
-0.0021863
0.000965325
-0.00209995
0.00211361
0.00174295
0.00173847
0.000635076
0.000609822
-0.00208285
0.000942352
-0.0012449
-0.00149061
0.0101733
-0.00101669
0.0103649
-0.00043642
0.0105802
0.000299744
0.01081
0.00126945
0.0110543
0.00261647
0.0113497
0.00462195
0.0119576
0.00806653
0.0132756
0.00440855
-0.00198622
0.00438575
-0.00153283
0.00444117
0.00590959
-0.00190768
0.00133046
-0.000942352
-0.0016592
0.00178658
-0.00133046
0.00141422
0.000635076
-0.00165043
0.0101748
-0.00122079
0.0103774
-0.00068585
0.0106143
-2.77399e-06
0.0108828
0.000888925
0.0111905
0.00208884
0.011582
0.00373893
0.0122327
0.0062901
0.0137341
-0.00314478
0.0072048
0.0136567
0.00247625
0.00315455
-0.000540559
-0.000704491
-0.000977401
0.00123115
0.00524106
0.000436816
-0.0018113
0.0101749
-0.00143116
0.0103852
-0.000947003
0.0106385
-0.000324107
0.0109356
0.000485098
0.0112866
0.00154694
0.0117324
0.00293073
0.0123902
0.00482702
0.0136958
0.00600178
0.0149371
-0.00187816
0.00439935
0.0123585
-0.00122299
0.00111029
-0.000140844
0.00226326
-7.81534e-05
-0.00096348
0.000422921
-0.000436816
0.00447319
-0.00197484
0.0101765
-0.0016483
0.010392
-0.0012197
0.0106579
-0.000658802
0.0109732
6.85631e-05
0.0113522
0.00100621
0.0118273
0.00218273
0.0124804
0.00365147
0.0135657
0.0047428
0.0149548
0.00435558
0.0149808
0.00231006
0.0107501
-0.000238565
-0.000463095
-0.00050475
0.00375495
0.000282077
0.00179473
-1.01444e-05
-2.60672e-05
0.000203923
-0.00213875
0.0101769
-0.00186908
0.0103973
-0.00149963
0.0106719
-0.00100427
0.0110034
-0.000356986
0.0113988
0.000469851
0.0118885
0.0014839
0.0125261
0.00267377
0.0134581
0.00363518
0.0146733
0.00373496
0.0155754
0.00288991
0.014401
0.00121581
0.00966727
-0.000104537
-2.84312e-05
-0.00333699
0.00302152
7.69088e-05
-4.51413e-05
0.00164989
2.32716e-05
7.64184e-05
-0.000177856
0.000167712
-0.0023048
0.010177
-0.00209369
0.0104015
-0.00178629
0.010684
-0.00135714
0.0110248
-0.000787413
0.0114338
-5.91562e-05
0.0119278
0.000824124
0.0125483
0.00182474
0.0133752
0.0026824
0.0144109
0.00298621
0.0154221
0.00274219
0.0157231
0.00190944
0.0137074
0.000754855
0.00906272
-9.92853e-05
-5.10206e-05
-0.00293001
0.00283671
-1.12368e-05
6.30741e-05
0.00155403
7.45067e-05
9.82683e-05
0.000190983
0.000267402
-0.00247079
0.010177
-0.00232148
0.0104048
-0.0020776
0.0106928
-0.00171722
0.0110441
-0.00122306
0.0114605
-0.000581112
0.0119557
0.000196099
0.0125558
0.00106404
0.013309
0.00184445
0.0142131
0.00225568
0.0151414
0.00228963
0.0158747
0.0020083
0.0156243
0.0013171
0.0131451
0.000535053
0.00867241
-8.12553e-05
-6.34957e-05
-0.00279357
0.00272268
-2.84018e-05
-7.8757e-06
-0.00157827
0.00157365
-8.03466e-06
1.42073e-06
3.63831e-05
2.44487e-06
-0.000299502
0.000345912
2.80965e-05
6.61677e-05
-0.00263853
0.0101767
-0.00255187
0.0104074
-0.0023749
0.0107021
-0.00208508
0.0110607
-0.00166322
0.0114842
-0.00110181
0.0119812
-0.000412261
0.0125641
0.000360153
0.0132597
0.00108509
0.0140684
0.0015632
0.0149056
0.00175443
0.0156766
0.00174996
0.016133
0.00149355
0.0154478
0.000966806
0.0127134
0.000404253
0.00839496
-6.44362e-05
-6.23669e-05
-0.00267908
0.00262565
-2.78239e-05
-1.98968e-05
-0.00156714
0.00154509
-4.34548e-06
-2.00876e-06
1.03539e-06
-2.40334e-06
-0.000376811
0.000370802
-2.02643e-06
-0.000375297
-9.33311e-08
0.000373416
8.8791e-06
5.64722e-07
-6.61677e-05
9.42641e-05
-0.00280579
0.0101763
-0.00278325
0.0104081
-0.00267451
0.010707
-0.00245757
0.0110746
-0.00211025
0.0115077
-0.00162322
0.0120056
-0.00100747
0.0125764
-0.000304929
0.0132292
0.000381409
0.0139634
0.00090689
0.0147247
0.00121132
0.0154487
0.00135315
0.0160734
0.00134985
0.0162767
0.00115033
0.0152643
0.000742522
0.0123751
0.000311287
0.00819354
-5.07887e-05
-5.90755e-05
-0.00258546
0.00254609
-2.50632e-05
-2.21723e-05
-0.00152857
0.00150672
-3.39792e-06
-2.58362e-06
-1.14143e-06
-2.22695e-06
-0.00036694
0.000363594
-9.98661e-07
-0.000368693
-2.55756e-07
0.000371104
7.33729e-07
7.1179e-09
-0.000103615
0.000101588
-0.000103708
0.000103143
-0.00297325
0.0101765
-0.00301686
0.0104099
-0.00297978
0.0107134
-0.00283785
0.0110873
-0.00256586
0.0115302
-0.00215213
0.0120366
-0.00160057
0.0125987
-0.000949929
0.0132214
-0.000286948
0.0138975
0.000275446
0.0145948
0.000668279
0.0152677
0.00091554
0.0158863
0.00105155
0.0163717
0.00106911
0.0163579
0.000918108
0.0150887
0.000578246
0.0121081
0.00022283
0.00805522
-3.11542e-05
-5.33523e-05
-0.00250936
0.0024813
-2.27231e-05
-2.23516e-05
-0.00148877
0.00146937
-2.93391e-06
-2.72631e-06
-1.95007e-06
-2.26748e-06
-0.000358181
0.00035561
-8.27619e-07
-0.000360344
-4.20279e-07
0.000362361
9.10435e-08
-2.09867e-07
-0.000102073
0.000101075
-0.000102329
0.000102322
-0.00314047
0.0101752
-0.00324957
0.0104092
-0.00328555
0.0107156
-0.00322378
0.0110993
-0.003032
0.0115534
-0.0026914
0.0120695
-0.0021983
0.0126343
-0.00158775
0.0132366
-0.000933601
0.013868
-0.000336373
0.0145094
0.000131921
0.0151312
0.000467246
0.015716
0.000695239
0.0162426
0.00083604
0.0166048
0.000877443
0.0163986
0.000745375
0.0149216
0.000437348
0.0118936
0.000103331
0.00796567
1.84505e-05
-3.22347e-05
-0.00244875
0.00243463
-1.70323e-05
-2.0811e-05
-0.00145185
0.00143486
-2.74172e-06
-2.99655e-06
-2.46666e-06
-2.36448e-06
-0.000349704
0.00034752
-7.50007e-07
-0.000351954
-4.76213e-07
0.00035387
-2.09737e-07
-3.51841e-07
-0.000100535
9.97078e-05
-0.000100956
0.000101166
-0.00330784
0.0101754
-0.00348182
0.0104075
-0.00359314
0.0107168
-0.0036167
0.0111085
-0.00350932
0.0115766
-0.00324751
0.0121095
-0.0028108
0.012682
-0.00223176
0.0132784
-0.00157668
0.0138796
-0.000941523
0.0144732
-0.000402918
0.0150442
1.29229e-05
0.0155855
0.000322536
0.0160887
0.000542044
0.0165366
0.000692559
0.0167897
0.000739048
0.0164049
0.000602166
0.0147568
0.000297245
0.0116997
-6.07862e-05
0.0078454
0.000137171
4.38849e-05
-0.00241342
0.00242543
6.43897e-06
-1.10232e-05
-0.0014193
0.00140778
-2.27653e-06
-3.24231e-06
-2.9202e-06
-2.32799e-06
-0.000341126
0.000339128
-7.44567e-07
-0.000343556
-5.66669e-07
0.000345463
-4.09042e-07
-4.57546e-07
-9.867e-05
9.792e-05
-9.91463e-05
9.94981e-05
-0.00347248
0.0101726
-0.00370933
0.0104029
-0.00389881
0.0107131
-0.00401177
0.0111118
-0.00400018
0.0115994
-0.003826
0.0121551
-0.00344761
0.0127463
-0.00289519
0.0133454
-0.00222747
0.0139292
-0.00154431
0.0144824
-0.000935644
0.0150059
-0.000442549
0.0154997
-5.96361e-05
0.0159677
0.000226256
0.0164045
0.000446697
0.0167825
0.00059927
0.0169295
0.000630747
0.0163763
0.000476938
0.0145771
0.000165543
0.0114734
-0.000148429
0.00764131
0.000176872
0.000175643
-0.0024291
0.00245341
0.000112865
4.02151e-05
-0.00140134
0.0014102
5.43561e-07
-2.96759e-06
-3.16784e-06
-1.40707e-06
-0.000332353
0.0003308
-7.23591e-07
-0.000334966
-6.29656e-07
0.00033676
-5.51473e-07
-5.34207e-07
-9.64868e-05
9.57422e-05
-9.70534e-05
9.7511e-05
-0.00363422
0.0101687
-0.00393096
0.0103943
-0.00419736
0.0107014
-0.00440774
0.0111091
-0.00450565
0.0116173
-0.00443208
0.0122055
-0.00411892
0.0128264
-0.00359396
0.0134451
-0.00290118
0.0140191
-0.00215649
0.0145413
-0.00147148
0.0150182
-0.000902294
0.0154656
-0.000447556
0.0158876
-9.68445e-05
0.0162908
0.000178848
0.0166724
0.000392539
0.0169892
0.000533997
0.0170262
0.000544104
0.0163092
0.000378502
0.0143641
0.000108382
0.0112166
-3.52819e-05
0.00753481
2.54043e-05
0.000116379
-0.00244505
0.00244368
0.00017824
0.000183998
-0.00144078
0.00148836
4.75119e-05
1.7777e-05
-8.14469e-08
9.71205e-06
-0.000324941
0.00032584
-3.56019e-07
-0.000327332
-5.76433e-07
0.00032825
-6.17843e-07
-4.88839e-07
-9.40268e-05
9.33032e-05
-9.46565e-05
9.51907e-05
-0.00379253
0.0101633
-0.00414247
0.0103803
-0.00448478
0.0106817
-0.00480002
0.0110937
-0.00502102
0.0116245
-0.00506908
0.0122543
-0.00483551
0.0129221
-0.00434376
0.0135762
-0.00360904
0.014153
-0.00278482
0.0146475
-0.00201466
0.0150845
-0.00136408
0.01548
-0.000836693
0.0158548
-0.000423917
0.0162147
-9.82759e-05
0.0165679
0.000161052
0.0169039
0.000366064
0.0171571
0.000490215
0.0170801
0.000483243
0.0162044
0.000337267
0.0141352
0.000163145
0.0110181
0.000119123
0.00746315
-4.70737e-05
-3.91748e-07
-0.00246784
0.00246719
2.60584e-05
9.22196e-05
-0.00150235
0.00152956
5.42028e-05
9.68267e-05
7.44253e-05
9.55816e-05
-0.000344177
0.000369346
2.23428e-05
-0.000333439
7.0392e-06
0.000325661
9.75457e-08
1.93409e-06
-9.16201e-05
9.12641e-05
-9.21965e-05
9.26854e-05
-0.00394546
0.0101549
-0.00433735
0.0103582
-0.00475171
0.0106472
-0.00517671
0.0110584
-0.00554238
0.0116151
-0.00573846
0.0122938
-0.00560833
0.0130271
-0.00516427
0.0137426
-0.00437278
0.01434
-0.00344244
0.0148106
-0.00256775
0.0152006
-0.00182879
0.0155492
-0.0012284
0.0158717
-0.000753564
0.0161844
-0.000377216
0.0164936
-7.52504e-05
0.0168042
0.000168464
0.0171015
0.000357154
0.0172902
0.000466499
0.0170969
0.000462411
0.0160793
0.000360993
0.0139374
0.000265905
0.0108714
0.00021064
0.00736034
-6.33063e-05
-4.45259e-05
-0.00247092
0.00244765
-2.38044e-05
-4.12095e-06
-0.00157553
0.00159683
-3.31204e-06
8.07134e-06
3.5944e-05
1.0306e-05
-0.000446686
0.000466848
3.40407e-05
-0.000415102
6.52433e-05
0.00039211
5.16611e-05
7.25894e-05
-0.000100335
0.000122678
-9.32957e-05
9.13616e-05
-0.00408977
0.0101413
-0.00450985
0.0103274
-0.00498915
0.0105956
-0.00552874
0.0109992
-0.00605993
0.0115759
-0.00643683
0.0123134
-0.00645048
0.013136
-0.0060865
0.0139494
-0.00521131
0.0145811
-0.00413607
0.0150336
-0.00313531
0.0153781
-0.00229797
0.0156697
-0.00162152
0.0159423
-0.00108338
0.0162016
-0.000657502
0.0164647
-0.000316524
0.0167349
-3.85133e-05
0.0170112
0.000190007
0.0172686
0.00036477
0.0173919
0.000468047
0.0170912
0.000479104
0.0159612
0.000423214
0.0137801
0.000349834
0.0107322
0.000249267
0.0072263
-5.94125e-05
-5.58106e-05
-0.00243109
0.00240066
-3.28724e-05
-2.79682e-05
-0.00160003
0.00158871
-7.77452e-06
-4.70658e-06
-8.66137e-07
-6.45993e-06
-0.00049731
0.000495231
-1.23398e-06
-0.000491287
2.0491e-06
0.000486813
1.59783e-05
5.83209e-06
-0.000242558
0.00026765
8.94901e-06
-0.000200814
2.3499e-05
0.000174339
4.61141e-05
-0.00422115
0.0101224
-0.00465142
0.0102829
-0.00518286
0.0105211
-0.00583655
0.0109034
-0.00655304
0.0114923
-0.00715357
0.0122927
-0.00738005
0.013243
-0.00715575
0.0142052
-0.00615361
0.0148917
-0.00487781
0.0153229
-0.00371879
0.0156171
-0.00277016
0.0158503
-0.00201182
0.01606
-0.00141119
0.0162702
-0.000935454
0.0164795
-0.000553748
0.0167019
-0.000244981
0.0169413
1.01625e-05
0.017191
0.000221453
0.0174119
0.000388125
0.0174719
0.000492246
0.0170781
0.000521342
0.015863
0.000486078
0.0136438
0.000396638
0.0105848
0.000266644
0.00709106
-7.77484e-05
-5.36599e-05
-0.00237505
0.00234313
-2.74942e-05
-3.02057e-05
-0.00157347
0.00155402
-7.20224e-06
-6.22385e-06
-5.50469e-06
-7.22347e-06
-0.000489804
0.000485463
-3.43331e-06
-0.000491915
-2.59599e-06
0.000495878
-1.51241e-06
-2.49711e-06
-0.0002878
0.000287072
-5.06521e-07
-0.000285731
-1.94481e-08
0.000280648
2.98027e-06
7.48975e-07
-6.96131e-05
7.85621e-05
-4.61141e-05
-0.00433878
0.0101006
-0.00475391
0.0102249
-0.00531584
0.0104159
-0.00607264
0.0107572
-0.0069942
0.0113446
-0.00787285
0.0122116
-0.00844127
0.0133539
-0.00845068
0.0145379
-0.00724261
0.0152942
-0.00568406
0.0156979
-0.0043243
0.0159284
-0.00324712
0.016094
-0.00240058
0.0162391
-0.00173604
0.0163849
-0.00121003
0.0165447
-0.000790142
0.0167159
-0.000452039
0.016909
-0.000172962
0.0171245
6.21732e-05
0.0173503
0.000261333
0.0175387
0.000423249
0.0175409
0.000531399
0.017068
0.000570081
0.015779
0.000528372
0.0135121
0.000415821
0.0104356
0.000258796
-0.000133095
0.00696536
-0.00230541
0.00216597
6.16899e-05
-1.59359e-05
-0.00153556
0.00151733
-4.13933e-06
-5.12637e-06
-5.72119e-06
-6.02208e-06
-0.000475139
0.000471205
-3.26843e-06
-0.000478527
-2.836e-06
0.000482779
-2.82085e-06
-2.97092e-06
-0.0002823
0.000279719
-8.51571e-07
-0.000284185
-7.11715e-07
0.000285998
-4.38301e-07
-6.83863e-07
-8.22719e-05
8.17654e-05
-8.22913e-05
8.15424e-05
-0.00444103
0.0100782
-0.00480952
0.0101562
-0.00536636
0.0102754
-0.00620288
0.0105461
-0.00734186
0.0111049
-0.00857927
0.012051
-0.00970384
0.0134742
-0.0100791
0.0149823
-0.00853204
0.0158274
-0.00657456
0.0161847
-0.00495856
0.0163322
-0.00372966
0.0164109
-0.00278591
0.0164794
-0.00205485
0.0165579
-0.00147877
0.0166536
-0.00102212
0.0167767
-0.00065475
0.0169186
-0.000352974
0.017089
-9.89807e-05
0.0172856
0.000118545
0.0174931
0.000308135
0.0176538
0.000465471
0.0176068
0.000573157
0.0170649
0.000605607
0.0157018
0.000547086
0.0133808
0.000409414
0.010285
-0.00160257
0.0036543
-8.40155e-06
-1.04546e-05
0.000241766
-0.000118433
0.00684203
-0.00151211
-2.87676e-05
-1.87683e-06
-8.83383e-06
-0.00046125
0.000458268
-1.15724e-06
-0.000464508
-1.8684e-06
0.000468104
-2.62023e-06
-2.42645e-06
-0.000273112
0.000270631
-7.87585e-07
-0.000275252
-6.95794e-07
0.000277491
-5.93374e-07
-7.31659e-07
-7.99315e-05
7.90799e-05
-8.06432e-05
8.13271e-05
-0.00452979
0.0100608
-0.00481822
0.0100869
-0.00532096
0.0101108
-0.0061849
0.0102574
-0.00752072
0.010725
-0.00922424
0.0117499
-0.0111996
0.0135468
-0.0120928
0.0154879
-0.00999777
0.016448
-0.00751862
0.0167714
-0.00560907
0.0168352
-0.00421713
0.0168196
-0.00316971
0.0167947
-0.00236498
0.0167895
-0.00173877
0.0168179
-0.00124816
0.0168797
-0.000852792
0.0169748
-0.000531033
0.0170967
-0.000262294
0.0172523
-3.03773e-05
0.0174345
0.000175272
0.0176259
0.000357841
0.0177615
0.000508762
0.0176712
0.000609743
0.0170608
0.00062507
0.0156238
0.000541616
0.0132486
0.000382098
0.0101447
0.00355752
-9.94688e-06
-1.17154e-05
-0.000677789
0.000670043
-3.6344e-07
-2.92796e-07
-0.000687028
-4.29211e-07
-7.86716e-07
0.000197555
-9.4726e-05
0.0067392
-0.000423584
-8.32412e-07
-8.18921e-07
-0.00029056
0.000453116
3.27542e-06
2.06979e-05
-0.000265249
0.000264375
-2.83368e-07
-0.000266691
-4.26229e-07
0.000268529
-5.185e-07
-5.88436e-07
-7.70591e-05
7.62715e-05
-7.77549e-05
7.84865e-05
-0.00460843
0.0100496
-0.00478699
0.0100295
-0.00517971
0.00994569
-0.00597796
0.0099039
-0.00742257
0.0101593
-0.00963189
0.0111326
-0.0127927
0.0133429
-0.0142986
0.0157526
-0.0113578
0.0168479
-0.00832062
0.01725
-0.00617155
0.0173339
-0.00466168
0.0172798
-0.0035312
0.0171811
-0.00266432
0.0170941
-0.00199248
0.0170432
-0.00146668
0.0170364
-0.00104626
0.0170731
-0.000704547
0.0171483
-0.00042049
0.0172549
-0.000177
0.0173989
3.55302e-05
0.0175743
0.000228953
0.0177548
0.000403011
0.0178672
0.000548321
0.0177326
0.000632478
0.0170534
0.000624997
0.0155404
0.000514162
0.0131166
0.000329206
0.010013
0.00348571
-9.55871e-06
-1.33549e-05
-0.000659202
0.000650417
-5.95981e-07
-5.65721e-07
-3.78286e-07
-4.96297e-07
-6.90827e-05
6.87192e-05
-6.93755e-05
-6.98047e-05
-7.05915e-05
0.000116579
-3.6383e-05
0.006659
-7.14239e-05
-7.22429e-05
-0.000267062
-2.79993e-06
5.87875e-07
-7.47383e-05
7.44549e-05
-7.51645e-05
7.5753e-05
-0.00468136
0.0100459
-0.00473064
0.00999329
-0.00496739
0.00981721
-0.00558512
0.00955285
-0.00694333
0.00942465
-0.00950194
0.0100293
-0.0139907
0.0123306
-0.0159247
0.014969
-0.0118096
0.0162044
-0.00844443
0.0169717
-0.00633045
0.0174089
-0.00489722
0.0175695
-0.00379671
0.0175453
-0.0029204
0.0174372
-0.00222439
0.017326
-0.00167339
0.0172499
-0.00123122
0.0172214
-0.000872445
0.017241
-0.000575482
0.0173033
-0.00032286
0.0174007
-0.000102407
0.0175369
9.74896e-05
0.0177057
0.000279224
0.0178786
0.000444604
0.0179709
0.000576804
0.0177883
0.000640039
0.0170384
0.000604991
0.0154496
0.000465499
0.0129803
0.000250794
0.00987879
0.00346218
-8.35875e-07
-1.20106e-05
-0.000638265
0.000630043
-6.49633e-07
-6.86891e-07
-5.35449e-07
-6.68338e-07
-6.72789e-05
6.66829e-05
-6.78446e-05
-6.82229e-05
3.16464e-07
9.89121e-05
0.00655977
-7.50428e-05
-0.00475231
0.01005
-0.00466334
0.00997863
-0.00471783
0.00974373
-0.00507118
0.00930328
-0.00606777
0.00867729
-0.00858459
0.00443676
0.00407054
-0.00643521
0.00532806
0.00468292
-0.00753714
-0.00880376
0.00655994
-0.00680624
0.00545594
-0.00587371
0.0131526
-0.00411945
-0.00701789
0.0147779
-0.00556383
0.0162051
-0.00460226
0.017114
-0.00378772
0.0175605
-0.00304587
0.0176708
-0.0024
0.0176128
-0.00185547
0.017508
-0.00140458
0.0174233
-0.00103353
0.0173825
-0.000725607
0.0173912
-0.000464587
0.017445
-0.000236697
0.017535
-3.3947e-05
0.0176683
0.000151492
0.0178335
0.000324613
0.0179986
0.000479547
0.0180682
0.000592749
0.0178356
0.000632708
0.0170106
0.000567811
0.0153473
0.00040135
0.0128297
0.000163808
0.0097153
0.00348233
6.80152e-05
1.07383e-05
-0.000619288
0.00061956
-4.15409e-07
-6.92751e-07
-5.07668e-07
-7.47762e-07
-6.47922e-05
6.41425e-05
-6.54791e-05
-6.60145e-05
-6.67817e-05
0.000215277
0.00641128
-0.00482482
0.0100575
-0.00459697
0.00998359
-0.00446166
0.00972246
-0.00451746
0.00919001
-0.00500019
0.00823569
-0.00673142
0.00355289
0.00327123
-0.00601585
0.00401739
-0.00540575
0.00346044
-0.00874533
0.00526963
-0.00415501
-0.00336083
0.0015002
0.00195322
-0.00704459
0.00188936
0.00163548
-0.00502601
0.00571224
-0.00311928
0.00182165
0.00154628
-0.00178526
-0.00200946
-0.00135846
0.00182275
0.00197511
-0.0020002
0.00953566
-0.00140074
-0.00147282
0.00404648
-0.000980879
-0.00348395
0.012698
-0.00342949
0.0150323
-0.00324735
0.0165736
-0.00287187
0.0173865
-0.00242322
0.017694
-0.00196824
0.0177256
-0.00154974
0.0176532
-0.00118315
0.0175729
-0.000869088
0.0175259
-0.000600425
0.017527
-0.000368729
0.017577
-0.000163714
0.0176648
2.44503e-05
0.0177954
0.000199184
0.0179589
0.000362382
0.0181158
0.000502379
0.0181585
0.000596173
0.0178721
0.000611967
0.0169665
0.000523166
0.0152255
0.000339537
0.012654
0.000122939
0.00952558
0.00344105
0.000121282
0.000135282
-0.000629913
0.000679907
1.46073e-05
3.41429e-06
9.0026e-07
-5.14337e-07
-6.21944e-05
6.1779e-05
-6.28871e-05
-6.33948e-05
8.77978e-06
7.58713e-05
0.00632663
-0.00490173
0.0100699
-0.00454513
0.0100057
-0.00422981
0.00975174
-0.00399402
0.00919903
-0.00395169
0.00814151
-0.00453928
0.00305034
0.00299322
-0.00459612
0.00274326
-0.00352339
0.00219849
-0.00623206
0.00126173
0.00138618
0.00163086
-0.0038965
-0.00318109
0.00145112
0.00295132
-0.00145112
0.00178526
-0.00343168
0.00117066
-0.00154628
0.00135846
0.00107775
0.000744998
0.00158004
0.0027363
-0.00038953
-0.000300481
-0.000432264
0.00675009
-0.000266121
0.0016731
-0.000177117
-0.000160429
-0.000426996
0.00102615
-0.00148401
0.0107525
-0.00208117
0.0138661
-0.0022437
0.0159454
-0.00215882
0.0171221
-0.00192281
0.0176486
-0.00161548
0.0177913
-0.00129623
0.0177663
-0.000998323
0.0177021
-0.000730965
0.0176565
-0.000496632
0.0176549
-0.000287425
0.0177007
-9.86561e-05
0.0177879
7.49986e-05
0.0179195
0.000239544
0.0180817
0.000389978
0.0182282
0.000517271
0.0182374
0.000592814
0.0178913
0.000585442
0.0169042
0.000482225
0.0150828
0.000311255
0.0124657
0.000159305
0.00937506
0.00346381
5.09564e-07
5.26014e-05
-0.000727787
0.000775894
2.24895e-05
5.06863e-05
5.05943e-05
3.68073e-05
-6.55792e-05
8.01866e-05
-6.21649e-05
-6.12646e-05
0.000109624
-4.16236e-05
0.00625863
-0.00498504
0.0100823
-0.00451228
0.0100371
-0.0040404
0.00981625
-0.00355496
0.00931268
-0.00304199
0.00828933
-0.00261785
0.00303845
0.00318163
-0.00256701
0.00103644
0.00105752
-0.00149631
0.00192251
-0.0048951
0.000875454
0.000530846
-0.00174264
-0.00159619
0.000303095
0.000339134
0.00298549
-0.0027942
0.00107044
0.000939985
-0.00201042
0.000318003
0.000759291
-0.000122669
0.000534863
-7.60523e-05
0.00130121
-3.55356e-05
-2.48292e-05
6.15095e-05
0.00515688
4.76873e-05
0.00107104
-2.66349e-05
-9.32185e-06
0.000396877
-3.91309e-05
0.000275319
-3.88718e-05
-0.000711499
0.00938288
-0.00123769
0.0128601
-0.00154354
0.0153301
-0.00162337
0.0168226
-0.00152814
0.0175612
-0.00133076
0.0178259
-0.00109074
0.0178587
-0.000845883
0.017817
-0.000617662
0.0177775
-0.000408624
0.0177761
-0.000220148
0.0178222
-4.57332e-05
0.0179086
0.000118405
0.0180407
0.000271621
0.0182001
0.000411681
0.0183338
0.000523012
0.0183072
0.000581081
0.0178956
0.000561142
0.0168253
0.000462459
0.0149316
0.000326815
0.0122982
0.000229723
0.00925496
0.0034456
-1.8461e-05
-4.94935e-06
-0.000816349
0.00081971
-2.92595e-06
7.44525e-08
1.19788e-06
1.09487e-05
-0.000170928
0.000186978
6.43957e-06
-0.000137049
1.6807e-05
-0.000116994
3.05394e-05
0.000175394
-8.91774e-05
0.00617241
-0.00507488
0.0100938
-0.00450353
0.0100736
-0.00390206
0.00989872
-0.00322614
0.00948743
-0.00237608
0.00864677
-0.00106832
0.0067398
-0.00054731
0.00208945
0.00025801
0.00237631
0.00140361
-0.00101947
0.000652304
0.000718492
-0.000398504
0.000778709
0.000271219
0.000251621
-0.00191874
-0.0013879
-0.00116202
0.000284319
0.00104876
-0.000745667
0.00107044
0.000195334
0.000119281
0.000236551
3.23267e-06
0.000215788
-4.06625e-06
0.00102152
4.9736e-05
6.12956e-05
1.36159e-06
0.00448367
-3.96474e-05
0.000999788
4.75526e-05
2.18658e-05
0.000195645
-6.49212e-06
0.000187606
-1.28229e-06
8.01504e-05
4.12786e-05
-0.000317107
0.00846229
-0.000733118
0.0120497
-0.00106749
0.0147743
-0.00122406
0.0165186
-0.00122009
0.0174505
-0.00110249
0.0178376
-0.000921763
0.0179346
-0.000720368
0.0179197
-0.00052259
0.0178915
-0.000336541
0.0178925
-0.000162444
0.0179389
-1.11561e-06
0.0180282
0.000152668
0.0181596
0.000297187
0.0183146
0.000426381
0.0184304
0.000525066
0.0183633
0.000571617
0.0178851
0.000549496
0.0167383
0.000467386
0.014791
0.000370708
0.0121572
0.000289928
0.00914043
0.00338638
-1.75125e-05
-1.24435e-05
-0.00081848
0.000805422
-3.04513e-06
-2.35777e-06
-2.48684e-06
-1.23183e-06
-0.000197657
0.000195477
-7.46463e-07
-0.000197124
-4.58142e-07
-0.000196022
9.61112e-08
1.90497e-06
-4.73464e-05
5.3786e-05
-3.05394e-05
0.000207285
-0.000104725
0.00606986
-0.00517264
0.0101058
-0.00451929
0.0101096
-0.00381661
0.00998811
-0.00300639
0.00967898
-0.00196078
0.00907213
-0.000317952
0.0078964
-0.00146231
0.00327932
0.00228665
0.00289414
0.000749708
0.000401978
0.000539258
0.000877839
0.000785873
0.000268993
-5.92654e-05
0.000330484
0.000192355
-0.000461348
4.45113e-05
4.0445e-05
0.000203943
3.3399e-05
0.000224783
4.04555e-05
0.000986713
1.64516e-05
-2.01425e-06
-1.00485e-05
0.00414261
3.39963e-05
0.000977966
-3.09008e-05
0.000243558
2.87776e-05
0.00025186
1.35635e-05
3.39529e-05
3.26706e-05
-0.000107449
0.00783662
-0.000440676
0.0114229
-0.000738075
0.0142883
-0.000931381
0.0162299
-0.000982146
0.0173302
-0.000918287
0.0178341
-0.000785384
0.0179996
-0.000619783
0.0180169
-0.000446582
0.0180015
-0.00027677
0.0180068
-0.00011687
0.0180547
3.61808e-05
0.0181446
0.000179792
0.018277
0.00031531
0.0184257
0.000434316
0.0185211
0.00052485
0.01841
0.000568113
0.0178665
0.000552396
0.0166532
0.000492294
0.0146694
0.000415259
0.0120318
0.000327057
0.00902065
0.00331169
-1.63909e-05
-1.36535e-05
-0.000796508
0.000783533
-2.43784e-06
-2.09905e-06
-1.95621e-06
-1.57347e-06
-0.000191001
0.000188719
-7.63522e-07
-0.000192624
-7.34371e-07
-0.00019453
-5.80271e-07
-2.85002e-07
-5.5329e-05
5.45826e-05
-5.57871e-05
-5.5691e-05
0.000219172
-0.000108943
0.00595963
-0.00527711
0.0101145
-0.00455709
0.0101435
-0.00377815
0.0100711
-0.00287849
0.00986021
-0.00173976
0.00945796
-6.47671e-05
0.00881894
0.00313876
0.00803696
0.00325136
-0.00129229
-0.00114401
0.000897983
0.000573614
0.00327865
0.00286685
0.000732462
0.000878569
0.000393151
-0.00111061
0.000696165
0.000553829
6.60696e-05
8.94089e-05
1.71162e-05
0.000255226
1.30854e-05
0.00023458
1.86319e-05
0.000958909
9.00857e-06
6.15042e-05
0.00393287
4.0787e-05
0.000947287
4.5618e-05
-0.000149781
0.000355935
-1.49532e-06
-9.79386e-07
0.000110484
7.70304e-06
0.000121198
2.84906e-06
-3.52512e-05
0.0074312
-0.000248435
0.0109333
-0.000518234
0.0138751
-0.000714215
0.0159619
-0.000795253
0.0172072
-0.000770816
0.0178196
-0.000672841
0.0180527
-0.000534573
0.0181049
-0.000381444
0.0181062
-0.000227444
0.0181174
-7.80738e-05
0.0181689
6.5695e-05
0.0182587
0.000201687
0.0183907
0.000330342
0.0185296
0.000443515
0.0186025
0.000527666
0.0184505
0.000571192
0.0178477
0.000567283
0.0165783
0.000522864
0.0145618
0.000447643
0.0119113
0.000343566
0.00889626
0.0032326
-1.56073e-05
-1.4243e-05
-0.00077318
0.000761038
-2.21727e-06
-2.03121e-06
-1.74741e-06
-1.553e-06
-0.000184316
0.00018249
-6.11889e-07
-0.00018581
-6.04853e-07
-0.000187349
-4.17008e-07
-2.03437e-07
-5.2983e-05
5.22195e-05
-5.37173e-05
-5.42976e-05
0.000219733
-0.000107981
0.00584788
-0.00538576
0.0101206
-0.00461748
0.0101749
-0.00378221
0.0101476
-0.00282701
0.0100197
-0.00165635
0.00977679
-6.08806e-05
0.00945407
0.00255211
0.0094056
-0.00237573
0.00536251
0.00382273
0.0045061
-0.00094698
0.000499132
-0.00107275
0.000999447
0.000971281
-0.000499132
-0.000681687
0.00128228
0.00088997
0.000393151
1.71162e-05
0.000130552
3.73175e-06
-5.97569e-07
0.000363214
-8.60849e-08
1.81557e-06
0.00093789
7.09009e-05
2.58471e-05
0.00384909
2.26859e-05
0.000944229
3.44482e-05
0.000385217
1.78893e-05
5.72574e-06
-2.9823e-05
2.83277e-05
-3.08024e-05
2.48192e-05
2.76683e-05
4.63432e-05
0.00713642
-0.000137829
0.0105529
-0.000368307
0.0135292
-0.000552491
0.0157192
-0.000651557
0.0170879
-0.000653609
0.0178003
-0.000580608
0.0180987
-0.000465661
0.0181891
-0.000328955
0.0182077
-0.000188179
0.0182275
-4.76411e-05
0.0182823
8.82002e-05
0.0183722
0.000218851
0.0185021
0.00034126
0.0186319
0.00044937
0.0186808
0.000533385
0.0184883
0.000582153
0.0178329
0.000585756
0.0165154
0.000546544
0.0144629
0.000463855
0.011791
0.000345263
0.00877073
0.00315364
-1.47161e-05
-1.42978e-05
-0.000750078
0.000738571
-2.0981e-06
-2.00137e-06
-1.6854e-06
-1.59755e-06
-0.000178288
0.000176643
-5.7206e-07
-0.000179745
-5.73589e-07
-0.000181119
-3.73452e-07
-1.8193e-07
-5.09942e-05
5.03824e-05
-5.15991e-05
-5.20161e-05
0.000212755
-0.000104076
0.0057392
-0.00550149
0.0101277
-0.00469865
0.0102018
-0.00382014
0.0102128
-0.00283192
0.0101525
-0.0016665
0.0100298
-0.000185173
0.00990108
0.00192962
0.0100766
0.00429269
0.0104754
0.00176547
-0.000650244
0.00323591
-0.000528404
0.00190981
0.00436176
0.000289594
-0.000493971
0.00112601
-0.000289594
0.000685593
3.14e-05
2.82416e-05
3.00572e-05
0.000409216
2.58017e-05
2.10993e-05
0.000953004
1.70717e-05
4.90666e-05
0.00377784
6.85278e-05
0.000963479
1.22109e-05
0.000433333
9.78235e-07
9.35374e-06
-3.57829e-05
5.36722e-05
7.4724e-05
0.00692387
-7.39168e-05
0.0102585
-0.000257445
0.0132342
-0.000431987
0.0154996
-0.000537714
0.016972
-0.000559167
0.0177789
-0.000508326
0.0181414
-0.00040959
0.0182698
-0.00028633
0.0183059
-0.000155399
0.0183353
-2.19682e-05
0.0183924
0.000107007
0.0184841
0.000233043
0.0186104
0.000349695
0.0187316
0.000457827
0.0187563
0.000543486
0.018527
0.00059442
0.0178242
0.000602742
0.0164592
0.0005588
0.014368
0.000465331
0.0116709
0.000335566
0.00864792
0.00307736
-1.37321e-05
-1.40657e-05
-0.000727481
0.000716671
-1.97236e-06
-1.93376e-06
-1.61433e-06
-1.59335e-06
-0.000172476
0.000170927
-5.48516e-07
-0.000173915
-5.62647e-07
-0.000175232
-3.68222e-07
-1.86298e-07
-4.92535e-05
4.86815e-05
-4.98271e-05
-5.02005e-05
0.000199561
-9.78613e-05
0.0056375
-0.00562642
0.0101359
-0.00480076
0.0102298
-0.00388981
0.0102715
-0.0028813
0.0102622
-0.00173872
0.0102247
-0.000373444
0.0102181
0.00137016
0.0104605
0.00325572
0.0111135
-0.00140081
0.00346152
0.0103245
0.00100204
0.00267267
-0.000172494
-0.000266311
-0.000324664
0.000922269
0.00396299
0.000360929
6.62782e-05
1.31957e-05
8.10091e-05
6.36841e-06
0.000448778
1.80165e-06
-1.75562e-07
0.000970719
4.18264e-05
7.01043e-05
0.00373753
4.49205e-05
0.000975895
6.33517e-05
0.00046132
6.87303e-07
-1.01843e-06
-8.85467e-05
8.9709e-05
-1.84095e-07