/*--------------------------------*- C++ -*----------------------------------*\
| =========                 |                                                 |
| \\      /  F ield         | OpenFOAM: The Open Source CFD Toolbox           |
|  \\    /   O peration     | Version:  v1912                                 |
|   \\  /    A nd           | Website:  www.openfoam.com                      |
|    \\/     M anipulation  |                                                 |
\*---------------------------------------------------------------------------*/
FoamFile
{
    version     2.0;
    format      ascii;
    class       volVectorField;
    location    "460";
    object      U;
}
// * * * * * * * * * * * * * * * * * * * * * * * * * * * * * * * * * * * * * //

dimensions      [0 1 -1 0 0 0 0];


internalField   nonuniform List<vector> 
3675
(
(0.999101 0.00116491 1.19112e-25)
(0.999149 0.00345775 0)
(0.990321 0.00375014 3.39463e-23)
(0.999239 0.00552028 -5.9357e-23)
(0.991011 0.0111015 0)
(0.969812 0.00728883 -1.07852e-21)
(0.999355 0.00723726 3.6422e-21)
(0.992273 0.0176541 -3.9315e-21)
(0.972144 0.0214419 1.10803e-21)
(0.932726 0.0129365 -7.55083e-23)
(0.999483 0.00854193 -7.05524e-21)
(0.993906 0.0230186 7.78479e-21)
(0.976383 0.0337751 0)
(0.938844 0.0376918 2.37414e-21)
(0.869197 0.0234228 -2.13213e-22)
(0.999609 0.0094138 3.41466e-21)
(0.995696 0.0269857 -9.95912e-23)
(0.981806 0.0434915 -1.29818e-22)
(0.949578 0.058496 -2.32288e-21)
(0.883467 0.0669644 0)
(0.754657 0.0449235 2.20011e-22)
(0.999725 0.00986863 0)
(0.997461 0.0295182 3.32238e-21)
(0.987629 0.0502714 0)
(0.9627 0.0737952 1.26691e-22)
(0.907388 0.100878 3.30384e-22)
(0.793514 0.122986 -3.29433e-21)
(0.586708 0.0431331 -2.44951e-22)
(0.607352 0.118606 -3.93532e-22)
(0.999827 0.00994575 0)
(0.999081 0.030704 -6.93343e-21)
(0.99323 0.0541892 6.94043e-21)
(0.976155 0.0832796 3.67865e-21)
(0.936206 0.122646 -2.78297e-22)
(0.850041 0.177909 5.03768e-21)
(0.647365 0.192468 7.01002e-22)
(0.699895 0.240404 3.46829e-22)
(0.393918 0.0623712 8.14401e-22)
(0.432992 0.180554 -4.72341e-22)
(0.999916 0.00969587 0)
(1.0005 0.0307016 -4.93298e-23)
(0.998247 0.0555639 -6.85373e-21)
(0.988518 0.087606 -3.55232e-21)
(0.963711 0.133036 0)
(0.909645 0.205452 -1.82573e-21)
(0.763381 0.35557 -2.21085e-21)
(0.504801 0.2783 -1.44307e-21)
(0.591908 0.357888 1.15402e-21)
(0.183934 0.0397969 -1.81725e-22)
(0.197411 0.118389 3.76856e-22)
(0.270596 0.26622 1.89011e-21)
(0.224922 0.193897 -3.25867e-22)
(0.999994 0.0091722 0)
(1.00168 0.029695 0)
(1.00253 0.0548108 1.09929e-24)
(0.999136 0.0878124 -1.0096e-22)
(0.986885 0.134777 -2.04438e-22)
(0.959572 0.209789 0)
(0.897043 0.366136 4.55711e-21)
(0.636775 0.56002 1.717e-22)
(0.772429 0.591955 4.31779e-23)
(0.329647 0.339043 3.5141e-23)
(0.403902 0.408307 0)
(0.481557 0.490329 -7.41825e-22)
(0.03668 0.031674 -1.53851e-21)
(0.0486999 0.0946231 -7.04484e-22)
(0.113467 0.206715 -7.15057e-21)
(0.0756979 0.153621 -2.42151e-21)
(1.00006 0.00842436 0)
(1.00266 0.0278638 0)
(1.00606 0.0523442 0)
(1.00786 0.0848793 4.69669e-23)
(1.00545 0.130716 0)
(0.997365 0.201201 9.35477e-23)
(0.981966 0.33226 -2.99833e-21)
(0.979064 0.55576 -4.85502e-22)
(0.621097 0.553825 -8.79691e-24)
(0.48853 0.487282 -8.96629e-23)
(0.769297 0.536238 1.16449e-22)
(0.166508 0.308379 8.78904e-21)
(0.289884 0.400625 -6.06871e-22)
(0.332469 0.383788 1.70474e-21)
(0.23385 0.280016 -1.61531e-21)
(1.00013 0.00749651 -4.65212e-24)
(1.00344 0.0253708 0)
(1.0089 0.0485356 -5.25567e-21)
(1.01482 0.0796095 0)
(1.01989 0.122866 -7.58151e-23)
(1.025 0.186797 0)
(1.03343 0.290466 -4.11937e-23)
(1.10093 0.483884 3.26269e-22)
(0.913886 0.447283 -3.60318e-22)
(1.09695 0.503411 -3.0512e-23)
(0.462175 0.344033 -1.60589e-23)
(0.287669 0.247298 1.51294e-23)
(0.714199 0.422816 6.28557e-22)
(0.466177 0.288228 0)
(0.057525 0.132805 2.72102e-21)
(0.161634 0.244855 -6.25496e-21)
(0.13242 0.164423 0)
(1.00019 0.00642453 0)
(1.00407 0.0223535 -4.50591e-24)
(1.01114 0.0436933 5.22446e-21)
(1.02023 0.0726389 -4.11731e-23)
(1.03084 0.112553 0)
(1.04476 0.169535 7.14489e-23)
(1.06658 0.253244 0)
(1.14359 0.395893 7.03784e-22)
(1.22892 0.41943 -1.64107e-21)
(0.692618 0.205407 1.57546e-22)
(0.567339 0.273892 -1.27866e-21)
(1.01604 0.298607 -9.016e-22)
(0.193629 0.133896 2.77813e-21)
(0.264338 0.154337 1.26013e-21)
(1.00025 0.00523816 0)
(1.00457 0.0189241 -8.86844e-24)
(1.0129 0.0380592 9.4699e-24)
(1.0244 0.0644518 1.69823e-23)
(1.03898 0.100675 -2.98479e-23)
(1.05865 0.150908 3.40887e-21)
(1.08833 0.220161 2.33997e-21)
(1.15721 0.323125 6.11067e-22)
(1.28774 0.37939 2.16077e-21)
(1.15317 0.260465 0)
(0.449353 0.0577999 5.15607e-22)
(0.19378 0.0362837 0)
(0.363236 0.0932441 4.25643e-23)
(0.848621 0.170125 -3.13349e-22)
(0.122971 0.0330468 -1.55914e-22)
(1.00032 0.00396013 -8.36587e-21)
(1.00497 0.0151694 4.20997e-24)
(1.01428 0.0318188 1.70393e-23)
(1.02759 0.0553982 -1.53366e-23)
(1.04499 0.0878295 -1.66299e-23)
(1.06831 0.131856 -6.4104e-21)
(1.10209 0.189971 -4.34066e-21)
(1.16311 0.267466 -6.41986e-22)
(1.27931 0.322494 0)
(1.33551 0.287632 0)
(1.00168 0.142178 6.48679e-21)
(0.686177 0.0996288 -4.01529e-23)
(0.1199 0.00564793 1.11051e-22)
(0.320244 0.021119 -1.08087e-23)
(0.0924925 0.00388309 -3.16052e-22)
(1.00039 0.00260747 8.30169e-21)
(1.0053 0.0111545 -2.12288e-24)
(1.01537 0.025108 -4.21019e-24)
(1.03006 0.0457114 -2.21222e-23)
(1.04944 0.074394 6.86969e-21)
(1.07503 0.112875 3.03318e-21)
(1.11054 0.162183 1.98464e-21)
(1.16609 0.223137 -1.60718e-23)
(1.25932 0.270993 0)
(1.35786 0.267617 -4.79723e-21)
(1.29109 0.204485 -7.92896e-21)
(0.889249 0.0705886 8.00838e-23)
(0.5534 0.0437712 -5.46577e-21)
(0.594199 0.055559 2.79956e-24)
(0.275956 0.00788171 1.15061e-23)
(0.0659305 0.00218511 9.45765e-23)
(0.0705658 -0.000916582 0)
(1.00046 0.00119382 0)
(1.00557 0.00692827 0)
(1.01624 0.0180227 -3.61929e-24)
(1.032 0.0355438 0)
(1.05281 0.0605766 -5.00548e-22)
(1.07978 0.09415 7.40471e-24)
(1.11571 0.136435 1.33238e-21)
(1.16696 0.186229 -6.69909e-24)
(1.24322 0.227908 -1.91083e-21)
(1.33441 0.237512 4.95646e-21)
(1.37558 0.214015 -5.75883e-21)
(1.22319 0.142143 0)
(0.810603 0.0393079 -4.90985e-21)
(0.511947 0.0181658 -8.55809e-23)
(0.531497 0.0233775 7.95157e-23)
(0.287301 0.0126214 1.00023e-20)
(0.0612914 -0.00176918 -1.0098e-22)
(0.0666923 0.00229026 6.48845e-21)
(1.00054 -0.000270152 0)
(1.0058 0.00252684 -8.0986e-21)
(1.01696 0.0106268 0)
(1.03359 0.024986 3.59356e-24)
(1.05547 0.046477 -3.86751e-22)
(1.08331 0.075698 -4.25428e-21)
(1.11903 0.112329 -1.36107e-21)
(1.16662 0.154368 0)
(1.23143 0.191382 3.86526e-21)
(1.30822 0.206899 -1.15984e-23)
(1.37267 0.200949 6.6947e-22)
(1.3621 0.169963 0)
(1.15692 0.100737 1.19476e-20)
(0.753986 0.0275213 -1.23052e-21)
(0.476154 0.0116562 -1.20608e-21)
(0.491211 0.0110603 4.90527e-24)
(0.284336 0.00495812 0)
(0.29365 0.00593535 -1.24222e-21)
(0.132368 0.00366396 -3.58182e-21)
(0.0946053 0.00816119 -1.63631e-20)
(1.00063 -0.00177453 0)
(1.006 -0.0020204 1.60545e-20)
(1.01757 0.00296266 0)
(1.03493 0.0140808 0)
(1.05769 0.0321142 -1.0822e-20)
(1.08618 0.0574281 4.12886e-21)
(1.12149 0.0894717 1.76232e-21)
(1.16597 0.125973 -7.62534e-22)
(1.2226 0.159564 -1.91474e-21)
(1.28795 0.178483 -8.14391e-24)
(1.34941 0.181079 5.29468e-21)
(1.38734 0.170138 -2.96026e-24)
(1.33509 0.13543 -7.07791e-21)
(1.09724 0.0755962 1.61912e-23)
(0.711856 0.0226458 -6.06401e-22)
(0.449084 0.00953666 1.15442e-21)
(0.460506 0.00838921 1.17222e-21)
(0.268635 0.00282857 1.1152e-21)
(0.275275 0.00229443 -2.15856e-22)
(0.130666 0.0018024 -3.20809e-24)
(0.132501 0.000461037 2.69582e-23)
(0.134914 0.000932936 2.63065e-21)
(0.135668 0.00192852 4.05861e-22)
(0.0414579 -0.00074691 1.70442e-21)
(0.0256607 0.00220767 4.86992e-21)
(1.00072 -0.00330853 0)
(1.00615 -0.0066855 -7.95323e-21)
(1.01806 -0.00493892 7.33497e-21)
(1.0361 0.0028416 6.29801e-21)
(1.05969 0.0174551 1.01349e-20)
(1.08879 0.0391921 0)
(1.12376 0.0674477 -1.7191e-21)
(1.16574 0.0999483 7.72059e-22)
(1.21624 0.131102 0)
(1.273 0.152342 -2.59074e-23)
(1.32781 0.160634 4.55753e-21)
(1.37352 0.159081 5.17327e-24)
(1.38864 0.145112 -1.018e-25)
(1.3015 0.111032 -6.8742e-21)
(1.04638 0.060774 0)
(0.679141 0.0203683 -4.88853e-21)
(0.427597 0.00840677 1.13548e-21)
(0.436735 0.00747517 5.78694e-22)
(0.256684 0.00246068 6.75069e-23)
(0.262178 0.00198813 -5.83223e-25)
(0.124924 0.00098773 -4.88033e-23)
(0.125974 0.000128081 -2.49236e-23)
(0.128043 -0.00026435 3.07834e-22)
(0.127559 0.00077503 1.25084e-22)
(0.0397257 0.000203008 1.65918e-23)
(0.040381 -8.51579e-05 0)
(0.0408195 -0.000349215 -5.58788e-22)
(0.0412151 0.000182549 -2.7833e-22)
(1.00082 -0.0048587 0)
(1.00626 -0.0114369 -7.60267e-24)
(1.01844 -0.0130498 -7.24348e-21)
(1.03712 -0.00873621 3.75072e-23)
(1.06156 0.00242641 -9.66323e-21)
(1.09139 0.0207969 3.0753e-21)
(1.1263 0.0458667 -1.32184e-25)
(1.16646 0.0754459 2.58245e-24)
(1.21231 0.105006 4.6995e-24)
(1.26236 0.127978 -6.6355e-21)
(1.31119 0.140836 -9.12377e-21)
(1.35429 0.145049 4.34241e-24)
(1.38723 0.14138 0)
(1.38055 0.126491 6.60679e-21)
(1.26643 0.0947844 6.97573e-21)
(1.00396 0.0520849 4.12406e-21)
(0.652546 0.01926 -4.69006e-24)
(0.409608 0.00790959 0)
(0.417353 0.00707599 5.6426e-22)
(0.246364 0.00230912 1.96988e-22)
(0.251189 0.0020119 -5.93166e-22)
(0.120369 0.000791092 -4.67535e-23)
(0.121286 0.000244108 -9.40314e-23)
(0.123223 -1.75895e-06 9.58298e-23)
(0.12264 0.000662708 -1.42762e-22)
(0.0387194 9.68659e-05 3.1427e-23)
(0.0390577 -6.02368e-05 2.00677e-24)
(0.0391428 -0.000177318 -8.21796e-23)
(0.0393312 4.97623e-05 -2.00111e-24)
(1.00092 -0.00640639 0)
(1.0063 -0.0162317 0)
(1.01867 -0.0213341 7.45695e-24)
(1.03797 -0.0206622 -6.0997e-21)
(1.06335 -0.013065 4.69267e-21)
(1.09417 0.00201348 -5.88111e-21)
(1.12945 0.0243238 -9.71143e-25)
(1.16849 0.0517824 1.2914e-25)
(1.21093 0.0804792 -4.11377e-21)
(1.2556 0.104987 6.74544e-21)
(1.29914 0.121632 -4.28803e-21)
(1.33829 0.130512 -1.08692e-23)
(1.37207 0.13266 5.48e-24)
(1.3929 0.128126 0)
(1.36647 0.113511 -6.62359e-21)
(1.23279 0.0840984 -7.03005e-21)
(0.968334 0.0470422 0)
(0.630974 0.0186943 -6.11182e-22)
(0.394104 0.00770859 -1.03832e-21)
(0.400692 0.0069406 1.04029e-21)
(0.236954 0.00229983 -6.44923e-23)
(0.241434 0.00208544 -4.52159e-22)
(0.116116 0.000694222 -1.36199e-22)
(0.11697 0.000313733 -9.11205e-23)
(0.11889 0.000172687 -4.62805e-23)
(0.118223 0.00062475 0)
(0.0376956 7.05425e-05 1.51373e-23)
(0.0380146 -2.66614e-05 0)
(0.0383507 -8.42806e-05 0)
(0.0383142 4.93307e-05 3.06356e-23)
(1.00101 -0.00792562 0)
(1.00625 -0.0210095 -8.67192e-21)
(1.01869 -0.0297359 0)
(1.03857 -0.0329351 0)
(1.065 -0.0291229 -8.82272e-24)
(1.09717 -0.017409 2.80896e-21)
(1.13338 0.00240725 0)
(1.17211 0.0283396 0)
(1.21224 0.0568458 3.98819e-21)
(1.25264 0.0829986 5.12172e-24)
(1.29139 0.102974 1.77851e-20)
(1.3265 0.115931 0)
(1.35748 0.122491 5.76162e-21)
(1.38312 0.123537 0)
(1.39242 0.118978 0)
(1.34926 0.10463 6.61312e-21)
(1.2015 0.0771405 0)
(0.938413 0.0441819 0)
(0.616289 0.0185641 -9.53863e-21)
(0.381936 0.00758779 1.09272e-21)
(0.386568 0.00683702 1.0991e-21)
(0.22818 0.00231849 -3.86979e-25)
(0.232333 0.00217257 6.33966e-23)
(0.111916 0.00066352 -4.44615e-23)
(0.112765 0.000371059 8.91196e-23)
(0.114733 0.000282946 4.50773e-23)
(0.114002 0.00062157 -8.96868e-23)
(0.0365777 5.64568e-05 1.47039e-23)
(0.0368798 -1.03358e-05 0)
(0.0373399 -4.2598e-05 4.48242e-23)
(0.0371952 4.73163e-05 0)
(1.0011 -0.00937969 -1.77187e-23)
(1.00606 -0.0256826 2.67122e-20)
(1.0184 -0.0381651 1.30125e-23)
(1.03877 -0.0455235 0)
(1.06638 -0.045851 0)
(1.10034 -0.0377497 5.04751e-24)
(1.13819 -0.0203239 3.91326e-25)
(1.17755 0.00451849 -1.96671e-21)
(1.21642 0.0334883 0)
(1.25351 0.0616431 0)
(1.28791 0.0848083 -8.71498e-21)
(1.3189 0.101476 0)
(1.34641 0.111881 -5.85799e-21)
(1.37049 0.116863 -3.21119e-24)
(1.38876 0.117548 0)
(1.38778 0.112955 0)
(1.33054 0.0986419 0)
(1.17282 0.0727339 0)
(0.914058 0.0428268 8.19475e-21)
(0.61193 0.0194229 -2.36524e-21)
(0.378242 0.00770185 -4.25939e-21)
(0.37769 0.00662618 -2.16725e-21)
(0.220795 0.00229691 -9.32686e-22)
(0.224049 0.00221718 -6.27316e-23)
(0.107706 0.000655324 -8.74454e-23)
(0.108538 0.000405302 2.20012e-23)
(0.110552 0.000354206 2.20337e-23)
(0.109774 0.000635138 -4.40243e-23)
(0.0353547 5.12102e-05 4.30881e-23)
(0.0356647 3.82759e-07 -3.62091e-24)
(0.0362154 -1.8457e-05 -1.44817e-23)
(0.036005 4.78003e-05 3.61192e-24)
(1.00117 -0.0107193 3.72765e-23)
(1.00569 -0.0301275 1.10066e-21)
(1.01768 -0.0464783 -1.68724e-20)
(1.03837 -0.0583481 -2.78e-23)
(1.06723 -0.0633296 7.65809e-24)
(1.10352 -0.059307 0)
(1.14384 -0.0443488 -1.47626e-24)
(1.18495 -0.0203146 1.90547e-21)
(1.2237 0.00981132 0)
(1.25836 0.0405471 0)
(1.28882 0.0670494 0)
(1.31558 0.0872636 0)
(1.33926 0.101174 1.16096e-20)
(1.36032 0.109527 6.16158e-24)
(1.37849 0.11357 6.07618e-24)
(1.39047 0.114044 0)
(1.38029 0.10914 0)
(1.31117 0.0947353 0)
(1.1469 0.0701437 3.41824e-24)
(0.894823 0.0426928 7.93716e-24)
(0.606241 0.0199844 -5.83965e-21)
(0.393251 0.00817604 -4.03588e-21)
(0.384087 0.00838059 4.05657e-21)
(0.220175 0.00196905 3.93981e-21)
(0.218568 0.00207163 2.48459e-21)
(0.103809 0.000642263 0)
(0.104447 0.000414785 -4.33498e-23)
(0.106369 0.000389574 4.35646e-23)
(0.105625 0.00064743 0)
(0.0340506 4.97886e-05 0)
(0.0343637 6.14199e-06 0)
(0.0349778 -4.82709e-06 -1.43479e-23)
(0.0347234 4.99956e-05 0)
(1.00121 -0.0118789 3.9359e-23)
(1.00508 -0.0341736 -1.88672e-20)
(1.01634 -0.0544599 1.67273e-20)
(1.03703 -0.071254 0)
(1.06715 -0.0816039 -5.41096e-21)
(1.10637 -0.08238 -7.35465e-24)
(1.15014 -0.0702037 0)
(1.1944 -0.0468838 0)
(1.23436 -0.0147966 0)
(1.26741 0.0193524 7.8821e-24)
(1.29428 0.0495837 9.46968e-24)
(1.31673 0.0733708 1.07223e-23)
(1.33624 0.0905908 -2.30316e-20)
(1.35369 0.102004 6.16509e-24)
(1.36934 0.108798 -1.24174e-23)
(1.38273 0.112181 3.14766e-24)
(1.38929 0.112288 -6.36758e-21)
(1.37075 0.106881 0)
(1.29176 0.0923057 0)
(1.12349 0.0687687 -5.60295e-26)
(0.876605 0.042148 1.81081e-23)
(0.592613 0.0204575 -4.64558e-21)
(0.39493 0.00945084 -2.1034e-21)
(0.396341 0.00831988 8.36048e-23)
(0.252178 0.00281456 3.65565e-21)
(0.232827 0.00361895 0)
(0.106805 0.000291925 0)
(0.103221 -5.92827e-05 -6.89433e-22)
(0.102743 0.000332962 -1.29286e-22)
(0.102794 0.000513383 -6.44272e-22)
(0.0327724 4.93778e-05 1.39745e-23)
(0.0330428 9.31882e-06 2.98259e-23)
(0.0336665 2.251e-06 -2.8198e-23)
(0.0334028 5.29494e-05 -1.75467e-24)
(1.00121 -0.0127749 0)
(1.00414 -0.0375936 -3.97894e-23)
(1.01416 -0.0617999 0)
(1.03435 -0.0839721 -6.20538e-23)
(1.06559 -0.100637 5.28406e-21)
(1.10835 -0.107239 3.32475e-21)
(1.15666 -0.0984865 -1.1695e-24)
(1.20591 -0.0760681 0)
(1.24869 -0.0410055 5.37268e-21)
(1.281 -0.00228048 0)
(1.3045 0.0323224 1.93677e-24)
(1.32253 0.0598579 -9.35425e-24)
(1.33755 0.080306 1.13906e-20)
(1.35092 0.0945678 -1.24043e-20)
(1.3632 0.103835 -1.28783e-20)
(1.37456 0.109391 -1.30187e-20)
(1.3842 0.112124 1.28678e-20)
(1.3859 0.11171 -6.33495e-21)
(1.35977 0.105671 6.28789e-21)
(1.27262 0.0908027 0)
(1.10112 0.067401 9.83214e-25)
(0.856048 0.0415981 1.20043e-20)
(0.575007 0.0202137 -4.55754e-21)
(0.384623 0.00993726 1.00762e-21)
(0.390155 0.00922582 -3.99074e-24)
(0.257584 0.00404568 -5.805e-23)
(0.25835 0.00351037 -3.6235e-21)
(0.154353 0.000784894 -1.29354e-21)
(0.147598 0.000868199 0)
(0.114589 7.66368e-05 -2.73984e-21)
(0.129858 0.00332119 5.23619e-21)
(0.0350324 -0.000401224 0)
(0.0328512 -0.000177207 4.54277e-22)
(0.0324712 -8.02658e-06 4.35967e-23)
(0.0324689 5.91217e-06 -1.75413e-24)
(1.00115 -0.0133068 0)
(1.00281 -0.040099 0)
(1.01091 -0.0680738 0)
(1.02982 -0.0960803 0)
(1.06178 -0.120217 0)
(1.10853 -0.134041 -3.22215e-21)
(1.16253 -0.129902 0)
(1.21931 -0.109002 2.76189e-21)
(1.2671 -0.069573 -5.1751e-21)
(1.29953 -0.0246588 3.11342e-24)
(1.31976 0.0152152 -1.00765e-23)
(1.33317 0.0468081 -1.10485e-20)
(1.3434 0.0704809 -1.18156e-23)
(1.35227 0.0874376 1.22173e-20)
(1.36063 0.0989821 1.27396e-20)
(1.36884 0.106424 1.30311e-20)
(1.37697 0.110879 -6.50632e-21)
(1.38355 0.112928 6.37695e-21)
(1.3808 0.111877 2.58273e-23)
(1.3478 0.105071 6.2113e-21)
(1.2535 0.0895032 1.27488e-20)
(1.07822 0.0661439 -1.37831e-20)
(0.833701 0.0409965 7.43926e-24)
(0.555947 0.0195059 -4.25528e-24)
(0.371215 0.00951911 -6.24026e-23)
(0.377677 0.00908656 6.21876e-23)
(0.249834 0.00422845 -7.39769e-22)
(0.254251 0.0040771 5.72213e-23)
(0.157144 0.00171041 0)
(0.157919 0.00146392 3.25213e-22)
(0.157371 0.00114256 6.48338e-22)
(0.158508 0.0014859 3.24769e-22)
(0.0885422 0.000232342 1.73402e-21)
(0.0835497 0.00069639 0)
(0.0387115 -0.000355889 2.05806e-21)
(0.0563361 0.00414356 -3.54014e-21)
(1.00102 -0.0133653 2.41176e-20)
(1.00102 -0.0413459 2.38588e-20)
(1.00633 -0.0727092 0)
(1.02285 -0.106915 1.90156e-20)
(1.05467 -0.139834 -1.47003e-20)
(1.10537 -0.162718 0)
(1.16634 -0.16544 1.40021e-21)
(1.23452 -0.147355 3.09326e-22)
(1.29027 -0.101408 6.56123e-21)
(1.32366 -0.0480483 7.71017e-24)
(1.34042 -0.00172401 1.05824e-23)
(1.34886 0.0343417 1.07959e-20)
(1.35393 0.0612907 -1.22219e-20)
(1.35794 0.0808256 3.66948e-23)
(1.36193 0.0944682 1.22824e-23)
(1.36637 0.103609 0)
(1.37155 0.109449 1.32063e-20)
(1.37727 0.11289 0)
(1.38127 0.114233 -6.29026e-21)
(1.3744 0.112428 -1.23044e-20)
(1.33502 0.104628 -1.22137e-20)
(1.23389 0.0883166 6.2725e-21)
(1.05465 0.0650588 3.38735e-21)
(0.810666 0.0401509 0)
(0.538058 0.0193865 -5.63553e-22)
(0.357279 0.0087198 -9.20213e-22)
(0.363913 0.00848552 9.23104e-22)
(0.240134 0.00396278 -5.66109e-23)
(0.244995 0.00396737 5.3922e-23)
(0.151116 0.00176306 -2.40834e-22)
(0.152601 0.0015481 -1.00439e-22)
(0.155604 0.00148607 2.02365e-22)
(0.154346 0.00171194 -2.03138e-23)
(0.0906232 0.000539177 -2.27722e-24)
(0.0912722 0.000474235 -2.19113e-22)
(0.0910412 0.000308266 -5.81915e-22)
(0.0916076 0.000456938 -2.92204e-22)
(0.0281002 -0.000185817 -4.12756e-22)
(0.0273921 -0.000458506 -8.06277e-22)
(0.0156738 0.00123778 4.20895e-22)
(1.00081 -0.0128526 -4.92373e-20)
(0.998791 -0.0409683 -2.38469e-20)
(1.00028 -0.0749598 0)
(1.01279 -0.115429 -1.90129e-20)
(1.04277 -0.15862 -2.21378e-21)
(1.09668 -0.193082 0)
(1.16643 -0.206835 -1.35485e-21)
(1.25236 -0.1939 -9.10149e-21)
(1.32014 -0.137853 -1.37301e-20)
(1.35485 -0.07272 0)
(1.36726 -0.0184219 -1.14311e-20)
(1.36991 0.0226239 1.2098e-20)
(1.36931 0.0529357 1.19082e-20)
(1.36807 0.074948 0)
(1.36728 0.0905142 -2.48627e-23)
(1.36752 0.10117 0)
(1.36908 0.108205 -1.31302e-20)
(1.37207 0.112635 6.39858e-24)
(1.37598 0.115147 1.28528e-20)
(1.37774 0.115751 -3.7608e-23)
(1.36693 0.113047 1.20763e-20)
(1.32137 0.104205 0)
(1.21369 0.0872755 -2.97277e-24)
(1.03083 0.0639428 0)
(0.787691 0.0396611 0)
(0.520163 0.0188195 -4.64678e-21)
(0.345357 0.00556397 0)
(0.349098 0.00743658 9.70598e-22)
(0.230731 0.00340794 0)
(0.235365 0.00361551 -1.12269e-22)
(0.14466 0.00164174 9.89639e-23)
(0.146098 0.00143342 2.18203e-22)
(0.149269 0.00144635 -7.96469e-23)
(0.147843 0.00165489 -7.96903e-23)
(0.0868796 0.000557086 7.2122e-23)
(0.0878828 0.000513581 -7.23173e-23)
(0.0897232 0.000477974 -1.4299e-22)
(0.0888707 0.000536277 0)
(0.0287126 3.37707e-05 1.68387e-24)
(0.0289686 2.05175e-05 -5.54408e-23)
(0.0290491 -1.72606e-05 -5.01555e-24)
(0.0291475 2.08545e-05 -1.68162e-24)
(1.00052 -0.0117078 2.51309e-20)
(0.996225 -0.038646 2.65577e-20)
(0.992852 -0.0739583 9.50314e-23)
(0.998991 -0.120089 0)
(1.02408 -0.175129 3.63043e-20)
(1.07982 -0.225258 6.13834e-23)
(1.16147 -0.257265 -3.36977e-21)
(1.27549 -0.25316 5.9339e-21)
(1.36064 -0.180889 7.07704e-21)
(1.3962 -0.0991222 1.13331e-23)
(1.40212 -0.0348167 2.34861e-20)
(1.39725 0.0118417 -1.17839e-20)
(1.38993 0.0456338 2.3772e-23)
(1.38282 0.0700315 2.46795e-23)
(1.37685 0.0873387 0)
(1.37248 0.0993143 -2.61041e-23)
(1.36999 0.107363 0)
(1.36952 0.11258 0)
(1.37097 0.115782 -1.29139e-20)
(1.37349 0.117434 6.26183e-21)
(1.37322 0.117248 -6.0553e-21)
(1.3585 0.113595 -5.92278e-21)
(1.30692 0.103805 0)
(1.19315 0.0862551 6.9674e-26)
(1.00709 0.0628523 0)
(0.765275 0.0386888 3.77265e-21)
(0.274697 0.00400642 0)
(0.50242 0.0186696 0)
(0.221896 0.000346948 -6.33965e-23)
(0.228413 0.00272755 5.55957e-23)
(0.138719 0.00123464 0)
(0.140046 0.00116953 0)
(0.142936 0.00130291 5.91373e-23)
(0.141642 0.00147971 2.54978e-22)
(0.0830068 0.000512566 -1.06544e-22)
(0.0839502 0.000474567 -7.12333e-23)
(0.0858263 0.000467907 -7.16675e-23)
(0.0849208 0.000514315 7.14569e-23)
(0.0274322 3.60727e-05 1.6591e-23)
(0.0277822 2.93163e-05 -3.32596e-24)
(0.0284166 1.9584e-05 0)
(0.0281316 3.51728e-05 0)
(1.00018 -0.00993309 0)
(0.993568 -0.0342123 1.27256e-21)
(0.984491 -0.0689332 5.09816e-23)
(0.981442 -0.118996 2.02231e-22)
(0.99661 -0.186541 -1.96041e-20)
(1.05142 -0.25877 -1.61107e-20)
(1.14938 -0.321843 8.28126e-21)
(1.30585 -0.330688 2.94852e-23)
(1.41461 -0.232092 1.18527e-23)
(1.45024 -0.127428 -2.67318e-20)
(1.44717 -0.0507869 -1.20258e-20)
(1.43257 0.00218114 2.4217e-23)
(1.41682 0.0396159 -1.3789e-20)
(1.40269 0.0663046 0)
(1.39084 0.0851599 2.65239e-23)
(1.38143 0.0982409 2.6402e-23)
(1.37452 0.10711 2.60828e-23)
(1.37015 0.11294 0)
(1.36829 0.116613 1.31539e-20)
(1.36868 0.118749 0)
(1.3701 0.11959 1.23407e-20)
(1.36784 0.118607 5.91725e-21)
(1.34922 0.114056 0)
(1.29186 0.103367 5.74242e-21)
(1.17246 0.0852317 2.92477e-24)
(0.983785 0.0617477 0)
(0.743812 0.0379878 0)
(0.262397 0.00488695 0)
(0.099944 0.000902322 6.42976e-23)
(0.100989 0.000121055 -6.42024e-23)
(0.486507 0.0182662 -4.3775e-24)
(0.104427 0.000702062 0)
(0.137129 0.000449478 0)
(0.136438 -0.000417129 0)
(0.0797726 0.000267492 0)
(0.080446 0.000358596 -1.75749e-23)
(0.0820437 0.000417134 -7.0532e-23)
(0.0812482 0.000445594 -5.27598e-23)
(0.0261548 3.23591e-05 2.61983e-23)
(0.0264772 2.6664e-05 0)
(0.0271011 2.0113e-05 -1.32737e-23)
(0.0268093 3.31741e-05 0)
(0.999811 -0.00760235 0)
(0.991126 -0.0277497 -2.79075e-20)
(0.976093 -0.0595333 -2.95844e-20)
(0.961533 -0.110306 2.9697e-20)
(0.960648 -0.188026 -1.93476e-22)
(1.00576 -0.288002 -5.25562e-21)
(1.12094 -0.40383 -1.28339e-20)
(1.3333 -0.429247 0)
(1.47093 -0.288977 -3.18739e-23)
(1.50815 -0.155005 5.73665e-20)
(1.49813 -0.0651736 -2.84901e-23)
(1.47509 -0.00581741 0)
(1.4507 0.0352015 2.79663e-20)
(1.42853 0.0640244 -1.43213e-20)
(1.40978 0.084192 0)
(1.39464 0.0981425 -1.39716e-20)
(1.38287 0.107617 -2.642e-23)
(1.37425 0.113881 0)
(1.36863 0.117861 1.67872e-22)
(1.36585 0.120235 1.29488e-20)
(1.36552 0.12144 -2.4965e-20)
(1.366 0.121529 -2.89541e-24)
(1.36175 0.1198 -6.3461e-26)
(1.33924 0.114396 -5.60742e-21)
(1.27636 0.102856 0)
(1.15186 0.0842039 -5.80719e-21)
(0.961293 0.0607641 -3.05335e-24)
(0.723952 0.0372696 7.32354e-21)
(0.252223 0.00500384 1.72972e-22)
(0.0960381 0.000981066 -6.27235e-23)
(0.0974843 0.000178679 -3.15378e-23)
(0.0228662 0.00015083 1.18379e-23)
(0.0229213 -6.80351e-06 1.70287e-24)
(0.0231288 7.96496e-05 -2.75033e-23)
(0.0233051 -0.000157567 2.75988e-23)
(0.472744 0.0177651 -4.49368e-21)
(0.0238034 0.000282931 0)
(0.0239012 4.96087e-06 0)
(0.0787014 -0.00105667 0)
(0.0799576 -0.000245327 3.47066e-23)
(0.0251134 2.09007e-05 -3.23558e-24)
(0.0253457 1.58132e-05 3.22967e-24)
(0.0258582 1.70377e-05 0)
(0.0256087 2.72877e-05 0)
(0.999445 -0.00485151 -5.56505e-23)
(0.989192 -0.0196112 0)
(0.968836 -0.0460687 3.00229e-20)
(0.942135 -0.0929979 -3.03427e-20)
(0.919963 -0.174134 -3.2309e-20)
(0.936988 -0.300206 2.15808e-20)
(1.04917 -0.490225 7.98593e-21)
(1.31744 -0.539577 -2.98147e-24)
(1.48212 -0.338911 3.58012e-20)
(1.52791 -0.172613 7.98674e-21)
(1.52723 -0.0734889 -6.38636e-23)
(1.5106 -0.0101128 2.92029e-23)
(1.48629 0.0332742 -1.41616e-20)
(1.45932 0.0636245 -9.64247e-22)
(1.43401 0.0847029 0)
(1.41254 0.0992139 -5.09346e-22)
(1.39533 0.109051 0)
(1.38204 0.11555 0)
(1.37232 0.119674 -2.65028e-20)
(1.3659 0.122127 -1.2851e-20)
(1.36255 0.123412 2.52724e-20)
(1.36171 0.123811 -5.87004e-24)
(1.36132 0.12323 2.87976e-24)
(1.35507 0.120806 -5.48387e-24)
(1.32871 0.114586 0)
(1.26057 0.102257 -1.61291e-23)
(1.13159 0.0831757 0)
(0.939987 0.059777 -6.23904e-21)
(0.706098 0.0365352 -7.23502e-21)
(0.243381 0.00488196 5.76327e-21)
(0.0918306 0.00103599 -3.09193e-23)
(0.0934603 0.000297103 -2.16524e-22)
(0.022005 0.00014196 1.33952e-23)
(0.0221358 9.77885e-06 2.6782e-23)
(0.0224136 4.93744e-05 2.69182e-23)
(0.022532 -0.000126074 -1.35572e-23)
(0.462313 0.017311 -8.83143e-21)
(0.0247351 -0.000330043 1.60859e-24)
(0.0252651 -9.23389e-05 -2.72863e-23)
(0.999108 -0.00185316 2.81807e-20)
(0.987962 -0.0103492 1.80198e-22)
(0.963721 -0.0295079 2.67683e-22)
(0.926573 -0.0677846 -3.53593e-20)
(0.879661 -0.142088 7.28044e-20)
(0.847919 -0.282382 -7.22673e-22)
(0.897124 -0.541845 5.50359e-21)
(1.17701 -0.627813 -1.36095e-21)
(1.34749 -0.348294 -2.43084e-20)
(1.41517 -0.162762 -9.30663e-20)
(1.46372 -0.0662969 0)
(1.49436 -0.00620499 1.34115e-22)
(1.49945 0.0360494 0)
(1.48458 0.0660847 -1.03486e-21)
(1.46021 0.0871712 5.68304e-23)
(1.43467 0.101728 1.39783e-20)
(1.41213 0.111592 0)
(1.3938 0.118089 -2.63826e-23)
(1.3796 0.122177 2.66835e-20)
(1.36921 0.124563 1.3157e-20)
(1.36232 0.125766 -2.53995e-20)
(1.35864 0.126145 1.23452e-20)
(1.35743 0.125861 1.15366e-23)
(1.3562 0.124689 1.13674e-20)
(1.34792 0.12161 2.69847e-24)
(1.31775 0.114614 5.31777e-21)
(1.24468 0.101569 0)
(1.11191 0.0821168 0)
(0.920141 0.0587979 7.13123e-24)
(0.690778 0.0359689 0)
(0.237472 0.00442078 1.19266e-20)
(0.0879239 0.00104195 -3.04139e-23)
(0.0892684 0.000294963 -4.72152e-22)
(0.0209618 0.000151748 0)
(0.0211168 1.57867e-05 2.63251e-23)
(0.0214442 5.83345e-05 0)
(0.0216079 -0.000109163 -1.32045e-23)
(0.457898 0.0180919 -8.57706e-21)
(0.998812 0.00121345 -5.60919e-20)
(0.9875 -0.000599832 -3.03397e-20)
(0.961259 -0.0112336 3.26904e-20)
(0.917199 -0.0372893 -1.61429e-21)
(0.849414 -0.0943277 -8.41407e-20)
(0.760871 -0.224017 4.04673e-22)
(0.781563 -0.456339 7.35211e-22)
(0.697887 -0.427666 0)
(0.960616 -0.74279 2.47979e-21)
(0.767681 -0.690011 1.76659e-22)
(0.692182 -0.605789 -1.04647e-20)
(1.16701 -0.393298 -6.41811e-23)
(0.806519 -0.496141 3.32108e-23)
(0.823453 -0.262648 0)
(1.03677 -0.0987098 9.73466e-20)
(0.899721 -0.166043 -3.44703e-20)
(1.20092 -0.0308572 5.40696e-20)
(1.34686 0.0112098 0)
(1.43594 0.0464566 3.72212e-20)
(1.4726 0.0729731 1.57853e-20)
(1.47308 0.0924018 0)
(1.45523 0.106133 -5.74443e-23)
(1.43178 0.115505 -2.73393e-23)
(1.40943 0.121667 2.65951e-23)
(1.3907 0.125495 -1.32419e-20)
(1.37604 0.127652 -1.3015e-20)
(1.36529 0.128639 1.26495e-20)
(1.35816 0.128827 -1.23637e-20)
(1.35431 0.128462 -1.20071e-20)
(1.35281 0.127607 -1.14402e-20)
(1.35075 0.125904 -5.36807e-24)
(1.34038 0.122205 -2.55371e-24)
(1.30647 0.114484 -5.19547e-21)
(1.22885 0.10079 0)
(1.09301 0.0810421 5.48177e-21)
(0.901944 0.0579426 -2.92077e-24)
(0.678393 0.0360436 0)
(0.246125 0.00527097 9.96991e-21)
(0.0866946 0.00102967 5.89435e-23)
(0.0859855 7.90524e-05 -2.03659e-21)
(0.0199213 0.000156145 0)
(0.0200473 1.75643e-05 2.58604e-23)
(0.020376 6.43472e-05 -3.25653e-24)
(0.0205459 -0.0001129 -9.77973e-24)
(0.453446 0.0178576 -8.40114e-24)
(0.998564 0.00418925 2.7876e-20)
(0.987739 0.00903664 3.02541e-20)
(0.961404 0.00728653 -3.3268e-20)
(0.914699 -0.00496559 7.71335e-20)
(0.83579 -0.0385905 4.59037e-20)
(0.708252 -0.128059 5.68123e-20)
(0.620922 -0.366203 7.41266e-23)
(0.557663 -0.291166 2.2464e-20)
(0.559231 -0.550945 0)
(0.654803 -0.680591 0)
(0.45812 -0.471549 0)
(0.38035 -0.323784 7.51637e-21)
(0.596554 -0.476022 -5.55706e-21)
(0.549134 -0.6314 -3.01544e-21)
(0.610056 -0.279794 -5.42568e-23)
(0.23628 -0.120366 -5.53465e-21)
(0.208366 -0.138832 0)
(0.196252 -0.0518404 -4.78728e-21)
(0.312406 -0.0778493 0)
(0.658235 -0.16677 0)
(0.605156 -0.0137993 -2.55233e-20)
(0.674063 0.0334513 -5.35268e-20)
(0.370352 0.0179999 -3.90427e-20)
(0.460662 -0.051282 -4.70599e-22)
(0.995432 0.0437131 5.5941e-20)
(1.22566 0.0644285 -4.21078e-20)
(1.36778 0.0846862 1.43849e-22)
(1.43653 0.100879 3.36998e-20)
(1.45503 0.112868 1.5547e-20)
(1.44608 0.121127 0)
(1.42629 0.126515 6.31829e-25)
(1.40509 0.129782 -1.36513e-20)
(1.3865 0.131504 -2.595e-23)
(1.37171 0.132129 0)
(1.36083 0.131999 -1.2498e-20)
(1.35362 0.13137 1.2031e-20)
(1.3497 0.130402 -1.16338e-20)
(1.34796 0.129062 0)
(1.34503 0.126879 7.04648e-26)
(1.33253 0.122597 5.14041e-21)
(1.29497 0.114197 0)
(1.21322 0.0999267 0)
(1.07497 0.079997 0)
(0.885328 0.057315 2.95303e-24)
(0.66656 0.0353489 -6.93853e-21)
(0.251751 0.00594272 2.50588e-21)
(0.114923 0.000542358 0)
(0.0980198 0.000699065 -1.90559e-21)
(0.0205746 0.000105046 0)
(0.0194071 -0.00015088 -6.50179e-24)
(0.0195211 3.92158e-06 1.08818e-22)
(0.0195281 -0.000140166 0)
(0.444152 0.0175678 0)
(0.998363 0.00695229 0)
(0.988523 0.0180779 2.87968e-23)
(0.963663 0.024805 -1.35891e-22)
(0.918355 0.0258989 -7.75277e-20)
(0.838934 0.0168602 0)
(0.701571 -0.0206178 -6.22791e-20)
(0.514827 -0.196196 -2.45124e-20)
(0.490098 -0.0964753 4.32735e-22)
(0.42353 -0.460381 -2.18692e-20)
(0.317539 -0.347206 2.25254e-20)
(0.277359 -0.469856 3.7095e-21)
(0.432905 -0.581348 -1.06173e-21)
(0.344151 -0.370169 0)
(0.186421 -0.213334 1.24861e-22)
(0.179141 -0.0101076 1.05492e-20)
(0.31746 0.0143887 0)
(0.231724 0.0240894 -1.43538e-20)
(0.234871 0.0473688 1.95628e-20)
(0.48158 0.0736598 -7.88172e-20)
(0.193579 0.0283219 -4.86186e-20)
(0.15911 0.0225953 -1.44914e-23)
(0.117816 0.0100213 0)
(0.84446 0.0814108 8.40507e-24)
(1.11889 0.0966718 0)
(1.29961 0.110571 -3.64522e-20)
(1.3966 0.121264 -1.60435e-20)
(1.43312 0.128418 0)
(1.43407 0.132802 -5.4641e-23)
(1.41894 0.135216 -2.57358e-22)
(1.39955 0.136255 -5.15401e-23)
(1.38153 0.136335 0)
(1.36688 0.135754 2.4946e-20)
(1.35602 0.134738 1.21306e-20)
(1.34884 0.133458 1.1681e-20)
(1.34492 0.131999 -1.11278e-23)
(1.34295 0.130246 5.18384e-24)
(1.33911 0.127624 1.03582e-20)
(1.32443 0.12279 0)
(1.28336 0.113757 0)
(1.19786 0.0989932 0)
(1.05773 0.0789848 0)
(0.869338 0.0562667 5.88037e-21)
(0.652806 0.0345035 0)
(0.246244 0.00613364 -3.0536e-22)
(0.118103 0.00199359 -6.20346e-23)
(0.118705 0.00114649 -3.75982e-21)
(0.0550557 0.000104783 1.86322e-23)
(0.0509407 0.000722506 -3.24073e-23)
(0.0336375 0.00252895 3.21565e-21)
(0.0231136 -0.000342013 -1.79779e-21)