/*--------------------------------*- C++ -*----------------------------------*\
| =========                 |                                                 |
| \\      /  F ield         | OpenFOAM: The Open Source CFD Toolbox           |
|  \\    /   O peration     | Version:  v1912                                 |
|   \\  /    A nd           | Website:  www.openfoam.com                      |
|    \\/     M anipulation  |                                                 |
\*---------------------------------------------------------------------------*/
FoamFile
{
    version     2.0;
    format      ascii;
    class       volScalarField;
    location    "290";
    object      p;
}
// * * * * * * * * * * * * * * * * * * * * * * * * * * * * * * * * * * * * * //

dimensions      [0 2 -2 0 0 0 0];


internalField   nonuniform List<scalar> 
3754
(
0.236015
0.232701
0.269669
0.226345
0.262536
0.376112
0.21756
0.24935
0.353657
0.553618
0.538631
0.207138
0.233004
0.311773
0.505503
0.449839
0.664264
0.672617
0.613386
0.642079
0.195808
0.215679
0.264331
0.38369
0.316896
0.513966
0.567193
0.459131
0.502713
0.184137
0.198567
0.221843
0.237748
0.378043
0.426461
0.219887
0.203903
0.376071
0.172544
0.182156
0.186954
0.175644
-0.322838
-0.265719
0.13412
0.122106
-0.203977
-0.223159
0.161337
0.166721
0.158512
0.133533
-0.339043
-0.522564
-0.466667
-0.483713
-0.169378
-0.453788
0.150745
0.152475
0.135029
0.102488
-0.270785
-0.419248
-0.439875
-0.547811
-0.530608
-0.437914
-0.552514
0.140947
0.139572
0.115379
0.0752558
-0.22086
-0.378051
-0.348548
-0.425653
-0.464598
-0.42659
-0.441449
-0.555585
0.132081
0.128107
0.0988281
0.0519797
-0.186987
-0.339543
-0.335228
-0.316505
-0.34954
-0.373306
-0.46608
-0.377134
-0.421351
-0.4353
-0.446518
0.124251
0.118125
0.0848699
0.0329015
-0.163281
-0.30777
-0.321178
-0.312751
-0.307161
-0.314513
-0.327791
-0.352819
-0.388494
-0.372178
-0.425431
-0.437487
0.117541
0.109653
0.0731159
0.0174175
-0.147296
-0.282043
-0.307894
-0.306926
-0.305497
-0.29607
-0.305146
-0.311123
-0.314882
-0.329561
-0.348089
-0.359904
-0.387933
-0.373674
0.112017
0.102712
0.0632583
0.00492186
-0.137322
-0.262476
-0.296776
-0.300984
-0.302788
-0.295574
-0.285761
-0.292212
-0.299683
-0.305902
-0.312352
-0.310887
-0.320812
-0.3348
-0.326395
-0.349009
-0.359655
0.107739
0.0973178
0.0550786
-0.00503819
-0.131883
-0.248572
-0.288442
-0.296282
-0.300031
-0.294558
-0.284736
-0.286733
-0.274339
-0.298428
-0.300345
-0.304928
-0.307797
-0.315027
-0.310765
-0.309174
-0.323083
-0.334241
-0.327128
0.104757
0.0934801
0.0484266
-0.0128565
-0.129963
-0.239633
-0.282839
-0.293131
-0.29784
-0.293731
-0.284089
-0.27368
-0.275471
-0.284542
-0.290654
-0.263649
-0.294036
-0.29818
-0.301854
-0.299521
-0.305286
-0.308017
-0.31749
-0.310898
-0.308087
0.103126
0.0912154
0.0431968
-0.0188344
-0.130934
-0.235154
-0.279826
-0.291515
-0.296434
-0.293212
-0.283911
-0.273466
-0.263563
-0.263878
-0.273942
-0.278973
-0.283538
-0.286769
-0.289201
-0.292315
-0.298031
-0.257631
-0.297637
-0.302105
-0.299769
-0.305617
-0.308146
-0.317075
-0.310936
0.102895
0.0905439
0.0393265
-0.023147
-0.134469
-0.234824
-0.279359
-0.291416
-0.295935
-0.29307
-0.28404
-0.273566
-0.263549
-0.256547
-0.258733
-0.264294
-0.265682
-0.273475
-0.276202
-0.277851
-0.280171
-0.296804
-0.247852
-0.297733
-0.302305
-0.300113
0.104122
0.091487
0.0368153
-0.0258535
-0.140519
-0.238486
-0.281432
-0.292821
-0.296396
-0.293386
-0.284432
-0.273854
-0.263657
-0.255686
-0.247029
-0.248671
-0.257063
-0.261241
-0.263852
-0.26672
-0.262774
-0.270054
-0.237662
0.106867
0.0940777
0.0357267
-0.0269409
-0.149343
-0.246136
-0.286043
-0.295702
-0.297831
-0.294208
-0.285081
-0.274286
-0.263852
-0.255077
-0.246256
-0.236888
-0.238441
-0.2468
-0.251736
-0.256211
-0.25865
-0.260568
-0.262091
-0.263758
-0.267256
-0.261414
-0.228174
0.111194
0.0983481
0.0362035
-0.0263471
-0.161508
-0.257932
-0.293204
-0.300036
-0.300232
-0.295559
-0.285978
-0.274834
-0.264095
-0.254661
-0.24556
-0.236168
-0.227375
-0.229021
-0.236645
-0.241526
-0.245924
-0.248601
-0.250804
-0.253064
-0.256706
-0.258994
-0.260694
-0.262028
-0.218646
0.117163
0.104342
0.0384917
-0.0240144
-0.177919
-0.274174
-0.302936
-0.305806
-0.303585
-0.297449
-0.287121
-0.275481
-0.264361
-0.25437
-0.244937
-0.235497
-0.22665
-0.218155
-0.219128
-0.227257
-0.231887
-0.235796
-0.238367
-0.240531
-0.242845
-0.246416
-0.248922
-0.250935
-0.25295
-0.211132
0.124826
0.112114
0.0429829
-0.0199977
-0.199931
-0.29533
-0.315276
-0.313002
-0.307869
-0.299875
-0.288505
-0.276217
-0.264638
-0.254148
-0.244367
-0.234843
-0.225944
-0.217591
-0.2104
-0.211837
-0.217054
-0.22234
-0.226415
-0.22889
-0.230864
-0.23306
-0.236236
-0.238646
-0.240618
-0.242698
-0.203201
0.134199
0.121753
0.0502961
-0.0145013
-0.229523
-0.322017
-0.330277
-0.321618
-0.313059
-0.302817
-0.290119
-0.277032
-0.264917
-0.253954
-0.243827
-0.234178
-0.225217
-0.216931
-0.209613
-0.202506
-0.203782
-0.210285
-0.214345
-0.215378
-0.219444
-0.221427
-0.223727
-0.226825
-0.229119
-0.230925
-0.232906
-0.195029
0.14527
0.1334
0.061362
-0.00795754
-0.269564
-0.354961
-0.348002
-0.331654
-0.319123
-0.306238
-0.291939
-0.277912
-0.265189
-0.253754
-0.243289
-0.233489
-0.224444
-0.216169
-0.208758
-0.201709
-0.194414
-0.19557
-0.202075
-0.206123
-0.209451
-0.211564
-0.213492
-0.215826
-0.214799
-0.220706
-0.22163
-0.223554
-0.187326
0.157971
0.147322
0.0772758
-0.0016587
-0.323443
-0.394957
-0.368439
-0.3431
-0.326018
-0.310091
-0.293935
-0.278839
-0.265443
-0.253526
-0.242725
-0.232759
-0.223621
-0.215312
-0.207827
-0.20081
-0.193708
-0.186742
-0.187844
-0.193691
-0.197997
-0.201275
-0.203356
-0.20524
-0.207163
-0.209701
-0.211772
-0.213542
-0.216885
-0.213987
-0.180059
0.172105
0.164131
0.0989261
0.00160776
-0.393453
-0.442339
-0.391319
-0.355858
-0.333662
-0.314307
-0.296066
-0.279788
-0.265661
-0.253247
-0.242115
-0.231972
-0.222737
-0.214374
-0.206821
-0.199811
-0.192884
-0.186069
-0.179493
-0.180543
-0.186322
-0.190047
-0.192054
-0.194984
-0.197108
-0.199048
-0.201552
-0.203548
-0.205312
-0.207145
-0.209879
-0.211829
-0.213534
-0.216622
-0.173066
0.187203
0.184758
0.12769
0.00268964
-0.482267
-0.495213
-0.415799
-0.369548
-0.341862
-0.318772
-0.298277
-0.280729
-0.265825
-0.252898
-0.241435
-0.231113
-0.221783
-0.21336
-0.205747
-0.198727
-0.191936
-0.185289
-0.178847
-0.172519
-0.173565
-0.179082
-0.182687
-0.186599
-0.190141
-0.194734
-0.195308
-0.197196
-0.199023
-0.201746
-0.203625
-0.205463
-0.207198
-0.166242
0.202636
0.207987
0.168607
0.0140565
-0.600544
-0.548113
-0.439997
-0.383236
-0.350176
-0.323285
-0.300485
-0.281623
-0.265908
-0.252457
-0.240667
-0.230167
-0.220746
-0.21227
-0.204611
-0.197577
-0.190882
-0.184394
-0.178112
-0.171928
-0.165805
-0.166667
-0.172132
-0.175624
-0.179357
-0.182806
-0.185902
-0.18773
-0.191308
-0.189264
-0.194151
-0.195296
-0.197335
-0.199066
-0.15995
0.217455
0.23002
0.227925
0.0307068
-0.744759
-0.594287
-0.460407
-0.395389
-0.357779
-0.327496
-0.302559
-0.282419
-0.265885
-0.251903
-0.239791
-0.229118
-0.219613
-0.211096
-0.203408
-0.196369
-0.189746
-0.183395
-0.177273
-0.171266
-0.165321
-0.159602
-0.16026
-0.165195
-0.168757
-0.172392
-0.175713
-0.178662
-0.180449
-0.183767
-0.181996
-0.15444
0.23071
0.252616
0.242739
0.276525
0.179506
0.238676
0.320897
-0.731982
-0.207952
-0.872542
-0.628265
-0.87137
-0.471967
-0.404279
-0.363584
-0.330908
-0.304306
-0.283049
-0.265729
-0.251222
-0.238794
-0.227954
-0.218373
-0.209827
-0.202131
-0.195103
-0.188542
-0.182307
-0.176333
-0.170508
-0.164757
-0.159175
-0.153978
-0.154853
-0.159456
-0.16168
-0.165581
-0.168943
-0.171695
-0.173438
-0.176632
-0.174914
-0.148553
0.241543
0.272615
0.303694
0.330418
0.351855
0.308756
0.028874
0.0425327
-0.755269
-0.725347
-0.431408
-1.04222
-0.920853
-0.898687
-0.683439
-0.473885
-0.60582
-0.859118
-0.408649
-0.366879
-0.333052
-0.305509
-0.283434
-0.265422
-0.250414
-0.237676
-0.226668
-0.217017
-0.208453
-0.200767
-0.193771
-0.187277
-0.181148
-0.175306
-0.169652
-0.164096
-0.158667
-0.153488
-0.148181
-0.148885
-0.15356
-0.156549
-0.15985
-0.161508
-0.165458
-0.166616
-0.169803
-0.168128
-0.142786
0.249141
0.286591
0.352927
0.371048
0.395159
0.439557
0.381201
0.329535
0.0373986
-0.0339979
0.356043
-0.18124
-0.949496
-0.86211
-0.676713
-0.504994
-0.408655
-0.454989
-0.606061
-0.367943
-0.333852
-0.306061
-0.283521
-0.264968
-0.249509
-0.236464
-0.225277
-0.215547
-0.206969
-0.199308
-0.19236
-0.185946
-0.179924
-0.174209
-0.168709
-0.163337
-0.158072
-0.152965
-0.147776
-0.142462
-0.1431
-0.147652
-0.150562
-0.153701
-0.156634
-0.159226
-0.160723
-0.16146
-0.162255
-0.137304
0.252819
0.294981
0.377717
0.377383
0.47349
0.499816
0.43441
0.477228
0.537733
0.504146
0.41201
0.0728272
-0.863538
-0.712774
-0.649476
-0.499619
-0.405664
-0.367435
-0.458221
-0.577415
-0.628882
-0.333677
-0.306061
-0.283335
-0.264412
-0.248573
-0.235225
-0.22383
-0.213993
-0.205386
-0.19775
-0.190864
-0.18454
-0.178634
-0.173048
-0.167696
-0.162492
-0.157394
-0.152397
-0.147339
-0.142134
-0.137006
-0.137599
-0.141944
-0.144763
-0.147825
-0.15066
-0.15312
-0.154564
-0.157409
-0.155957
-0.159237
-0.160672
-0.160545
-0.162299
-0.132021
0.252271
0.29309
0.445794
0.522214
0.534149
0.566878
0.592725
0.627076
0.611628
0.475277
0.457767
0.579077
0.510204
0.140095
-0.510988
-0.483101
-0.416949
-0.36559
-0.392373
-0.332794
-0.44615
-0.467674
-0.57386
-0.620618
-0.305653
-0.282961
-0.263827
-0.247698
-0.234062
-0.22242
-0.212424
-0.203746
-0.196113
-0.189283
-0.183057
-0.177274
-0.171824
-0.166619
-0.161577
-0.156642
-0.15178
-0.146869
-0.141803
-0.136728
-0.131753
-0.132297
-0.136473
-0.139201
-0.14212
-0.14487
-0.147249
-0.148683
-0.151467
-0.150031
-0.15324
-0.154598
-0.157402
-0.156038
-0.126893
0.24778
0.284163
0.412763
0.626451
0.56883
0.635769
0.635639
0.609808
0.627218
0.626878
0.671607
0.722059
0.698666
0.386296
-0.503172
-0.482996
-0.445415
-0.421225
-0.407357
-0.373115
-0.33137
-0.354789
-0.397846
-0.387944
-0.304842
-0.467319
-0.282416
-0.263255
-0.246953
-0.233076
-0.221162
-0.210946
-0.20213
-0.194447
-0.187643
-0.181501
-0.175841
-0.170535
-0.165483
-0.160602
-0.15583
-0.151118
-0.146364
-0.141462
-0.13648
-0.131525
-0.126649
-0.127157
-0.131195
-0.133845
-0.136643
-0.1393
-0.141558
-0.142947
-0.145654
-0.144248
-0.14736
-0.14871
-0.151482
-0.150122
-0.121901
0.23975
0.270165
0.371676
0.443657
0.704059
0.493655
0.557884
0.407138
0.732088
0.729679
0.718887
-0.443394
-0.375802
-0.366886
-0.337546
-0.3036
-0.322597
-0.358999
-0.349928
-0.387011
-0.281635
-0.462523
-0.262658
-0.24633
-0.232309
-0.220147
-0.209679
-0.200653
-0.192842
-0.186001
-0.179904
-0.174348
-0.169181
-0.164287
-0.159572
-0.154967
-0.150414
-0.145827
-0.141103
-0.136255
-0.131357
-0.12647
-0.121675
-0.12216
-0.126077
-0.128663
-0.13136
-0.133939
-0.136101
-0.137442
-0.140051
-0.138695
-0.14166
-0.142968
-0.145662
-0.144332
-0.117011
0.228608
0.252371
0.330084
0.368209
0.034853
0.0572164
0.64711
0.0908453
0.0953848
-0.372955
-0.365727
-0.340035
-0.331915
-0.30864
-0.280533
-0.296364
-0.321895
-0.358933
-0.350799
-0.261928
-0.24575
-0.231714
-0.21939
-0.208695
-0.199425
-0.191414
-0.184454
-0.17833
-0.17283
-0.167779
-0.163034
-0.158487
-0.154055
-0.149672
-0.145259
-0.140725
-0.136044
-0.13125
-0.126389
-0.121549
-0.116809
-0.117286
-0.121096
-0.123631
-0.126239
-0.128752
-0.130836
-0.132138
-0.134663
-0.133352
-0.136198
-0.137462
-0.140057
-0.138774
-0.112197
0.214767
0.231839
0.2907
0.309239
0.00689292
-0.0368743
-0.0191549
-0.0331001
-0.0154621
-0.339415
-0.331325
-0.307115
-0.284837
-0.260868
-0.274317
-0.295924
-0.31798
-0.325252
-0.245096
-0.231182
-0.218816
-0.207984
-0.198498
-0.190259
-0.18311
-0.176876
-0.171356
-0.166367
-0.161743
-0.157354
-0.153097
-0.148893
-0.144663
-0.140325
-0.135833
-0.131187
-0.126407
-0.12156
-0.116749
-0.112067
-0.112435
-0.116242
-0.118728
-0.121255
-0.123714
-0.125731
-0.126999
-0.129454
-0.12818
-0.13093
-0.132158
-0.134671
-0.133428
-0.107643
0.198593
0.209381
0.253783
0.261478
0.025594
-0.00364853
-0.00752211
-0.0375387
-0.0387601
-0.00683314
-0.0409577
-0.337498
-0.330867
-0.309311
-0.303622
-0.283542
-0.264547
-0.24417
-0.255155
-0.273886
-0.2924
-0.298412
-0.230592
-0.218308
-0.207458
-0.197843
-0.18941
-0.18205
-0.175643
-0.170019
-0.165014
-0.160456
-0.156192
-0.152099
-0.148076
-0.144037
-0.139902
-0.135613
-0.131151
-0.126505
-0.121711
-0.116866
-0.112097
-0.107567
-0.107823
-0.111397
-0.113893
-0.116408
-0.1188
-0.120759
-0.122003
-0.124399
-0.123155
-0.125822
-0.12702
-0.129464
-0.128255
-0.103398
0.180401
0.185604
0.21915
0.219592
0.0375264
0.00264121
0.00830995
-0.00931687
-0.0155166
-0.0123587
-0.0106502
-0.302814
-0.285272
-0.28013
-0.263523
-0.242861
-0.229839
-0.255216
-0.271132
-0.275819
-0.292115
-0.297541
-0.217751
-0.207001
-0.197361
-0.188818
-0.181288
-0.174692
-0.168907
-0.163809
-0.159241
-0.155046
-0.151082
-0.147228
-0.14338
-0.139453
-0.135379
-0.13112
-0.126653
-0.121978
-0.117161
-0.112326
-0.107653
-0.103286
-0.103617
-0.107021
-0.109047
-0.11157
-0.114022
-0.11591
-0.117139
-0.119474
-0.118249
-0.120849
-0.122024
-0.12441
-0.123229
-0.0989855
0.160453
0.160962
0.186693
0.182975
0.0423446
0.0067739
0.011033
0.00146588
0.00252857
0.00309323
0.00121574
-0.0134582
-0.0147774
-0.284325
-0.279858
-0.265072
-0.260487
-0.246058
-0.228889
-0.238406
-0.217062
-0.254781
-0.271569
-0.275374
-0.206504
-0.196939
-0.188385
-0.180765
-0.17402
-0.168069
-0.162827
-0.158177
-0.153976
-0.150086
-0.146368
-0.142699
-0.138977
-0.135124
-0.131086
-0.126825
-0.122323
-0.117605
-0.112765
-0.107965
-0.103376
-0.0989234
-0.0991647
-0.102647
-0.104894
-0.107227
-0.109053
-0.111157
-0.112335
-0.114687
-0.113485
-0.115994
-0.117155
-0.119486
-0.118323
-0.0945875
0.138952
0.135814
0.156339
0.151298
0.0437215
0.010065
0.0131198
0.00264971
-0.00295993
-0.00213541
0.00307978
0.000930679
-0.00104616
-0.00321271
0.00103723
0.00422563
-0.264271
-0.260139
-0.247084
-0.243719
-0.23134
-0.216225
-0.22485
-0.239988
-0.23634
-0.20589
-0.256397
-0.252031
-0.270557
-0.196483
-0.188006
-0.180383
-0.173563
-0.167487
-0.162101
-0.157326
-0.153053
-0.149169
-0.145533
-0.14201
-0.138481
-0.134845
-0.131037
-0.127002
-0.122709
-0.118154
-0.113386
-0.108527
-0.103744
-0.0990799
-0.0945586
-0.0947614
-0.0982204
-0.100431
-0.102754
-0.104989
-0.106799
-0.107883
-0.109252
-0.109041
-0.111735
-0.1124
-0.114679
-0.113574
-0.0903082
0.116053
0.110504
0.128055
0.123903
0.0428758
0.0129363
0.0148498
0.00417798
-0.00245886
-0.00710147
-0.00472427
-0.0021327
-0.00584616
0.000992564
0.00182466
0.0032079
0.000631762
0.00219756
-0.263347
-0.260124
-0.242985
-0.23223
-0.228986
-0.218507
-0.205124
-0.212536
-0.226076
-0.223199
-0.239722
-0.236418
-0.195924
-0.187594
-0.180043
-0.173227
-0.167095
-0.161605
-0.156706
-0.152328
-0.148388
-0.144772
-0.141344
-0.137977
-0.134547
-0.130968
-0.127172
-0.12311
-0.118762
-0.11414
-0.109314
-0.104415
-0.0995417
-0.094783
-0.0902992
-0.0904769
-0.093866
-0.0960426
-0.0983478
-0.100523
-0.102309
-0.103404
-0.105589
-0.104487
-0.106844
-0.107965
-0.109013
-0.109514
-0.0861334
0.0921614
0.0854597
0.101966
0.100269
0.0404951
0.0150085
0.0158359
0.00560794
-0.00200143
-0.00667497
-0.0108572
-0.0088573
-0.00668508
-0.00557252
-0.00459289
-0.0033501
-0.000967407
-0.00834793
0.00261146
0.0015222
0.0026931
0.000273591
-0.231362
-0.228534
-0.21934
-0.216368
-0.207019
-0.195235
-0.201952
-0.212039
-0.225942
-0.223771
-0.187088
-0.179671
-0.172924
-0.166803
-0.161269
-0.156288
-0.151808
-0.147785
-0.144132
-0.140742
-0.137487
-0.134237
-0.130878
-0.127324
-0.12351
-0.119398
-0.114976
-0.110271
-0.105362
-0.100349
-0.0953527
-0.0905724
-0.0861406
-0.0862925
-0.0895997
-0.0917444
-0.0940042
-0.0961488
-0.0979096
-0.0990045
-0.101146
-0.100052
-0.102377
-0.103448
-0.105632
-0.104542
-0.10689
-0.107908
-0.108365
-0.109411
-0.0820518
0.0685989
0.0614026
0.0784895
0.0801466
0.0373139
0.0162974
0.0160746
0.00662729
-0.0015036
-0.00630835
-0.0106413
-0.0154023
-0.0120486
-0.0103431
-0.00949544
-0.00878342
-0.00775605
-0.00652828
-0.0057094
-0.00475268
-0.00359962
0.000851209
-0.00892516
0.00218708
0.00115505
0.00218903
-0.218486
-0.215685
-0.206294
-0.196958
-0.186462
-0.192344
-0.201739
-0.210441
-0.213331
-0.223134
-0.17922
-0.172592
-0.166533
-0.161015
-0.156006
-0.151458
-0.147358
-0.143643
-0.140241
-0.137046
-0.13393
-0.130769
-0.127452
-0.123894
-0.120038
-0.115852
-0.111335
-0.106521
-0.101475
-0.0963107
-0.0912344
-0.0864577
-0.0820597
-0.0820755
-0.0854154
-0.0875283
-0.0897419
-0.0918516
-0.0935722
-0.0946556
-0.0967705
-0.0956833
-0.0979799
-0.0990486
-0.101199
-0.100124
-0.102446
-0.103479
-0.105659
-0.104609
-0.078056
0.0464503
0.0397948
0.0584407
0.0635728
0.0339689
0.0170313
0.0158087
0.00722315
-0.000968066
-0.00583151
-0.0101512
-0.014139
-0.0131511
-0.0152765
-0.0159688
-0.0122769
-0.0117555
-0.0113278
-0.010251
-0.00950339
-0.00892225
-0.00798489
-0.00679317
-0.217816
-0.215728
-0.207008
-0.204548
-0.196283
-0.187978
-0.178654
-0.18391
-0.192002
-0.1998
-0.203238
-0.172183
-0.166225
-0.160771
-0.155786
-0.151217
-0.147071
-0.143299
-0.139861
-0.13668
-0.133648
-0.130645
-0.127548
-0.124247
-0.120662
-0.116739
-0.112457
-0.107818
-0.102851
-0.0976339
-0.0923377
-0.0872061
-0.0824185
-0.0780709
-0.0781928
-0.0804446
-0.0833092
-0.0855894
-0.0876384
-0.0893189
-0.0903846
-0.0924631
-0.0913919
-0.0936419
-0.0946978
-0.0968215
-0.0957552
-0.0980502
-0.0990787
-0.101234
-0.100194
-0.0741699
0.021847
0.0232215
0.0429626
0.0508402
0.0309735
0.0174024
0.0152435
0.00746456
-0.000461591
-0.005294
-0.00950766
-0.0130959
-0.0129587
-0.0150332
-0.0139248
-0.0137508
-0.0153568
-0.0145802
-0.0194632
-0.0124355
-0.0122421
-0.0120241
-0.0115805
-0.0105192
-0.196956
-0.194744
-0.187442
-0.180046
-0.171637
-0.176194
-0.183663
-0.190614
-0.192862
-0.199468
-0.20278
-0.165844
-0.160488
-0.155569
-0.151021
-0.146869
-0.143066
-0.139595
-0.136402
-0.13341
-0.13052
-0.127609
-0.124552
-0.121245
-0.117609
-0.113598
-0.109192
-0.104396
-0.0992449
-0.0938582
-0.0884446
-0.0832501
-0.0784715
-0.0742037
-0.0782571
-0.0743285
-0.0821797
-0.0834685
-0.0851626
-0.0862031
-0.088237
-0.0871852
-0.0893884
-0.0904265
-0.0925125
-0.0914632
-0.0937107
-0.0947265
-0.0968553
-0.0958245
-0.0703972
-0.00743553
0.0148346
0.0329912
0.0422219
0.0286872
0.0175429
0.0145089
0.00741867
-5.98883e-05
-0.00479572
-0.00886209
-0.012298
-0.0129209
-0.0152509
-0.0162176
-0.0158796
-0.0149159
-0.0199249
-0.0142968
-0.0142012
-0.0140133
-0.0142994
-0.0205131
-0.0121785
-0.196525
-0.194594
-0.188053
-0.186008
-0.179582
-0.170905
-0.165367
-0.175738
-0.18219
-0.184648
-0.190442
-0.192584
-0.160135
-0.15531
-0.15082
-0.146699
-0.142897
-0.139413
-0.136205
-0.133229
-0.130407
-0.127637
-0.124795
-0.121762
-0.118427
-0.11472
-0.110595
-0.106035
-0.101051
-0.0957086
-0.090154
-0.0846214
-0.0793761
-0.0746251
-0.0704295
-0.0745024
-0.0775543
-0.0796413
-0.0705697
-0.0818809
-0.0839982
-0.0825466
-0.085237
-0.0862409
-0.0882863
-0.0872549
-0.0894564
-0.0904553
-0.0925457
-0.0915318
-0.0666861
0.0156358
0.0281487
0.0374586
0.0272083
0.0175184
0.0136929
0.00715358
0.00019527
-0.00441144
-0.00830121
-0.0116331
-0.012852
-0.0151389
-0.0186886
-0.0184991
-0.0196972
-0.0184483
-0.0163765
-0.0158732
-0.0156727
-0.015434
-0.0148627
-0.0197065
-0.187668
-0.185732
-0.180162
-0.178388
-0.171992
-0.164795
-0.169089
-0.159695
-0.175584
-0.181865
-0.184816
-0.154989
-0.150577
-0.146517
-0.142745
-0.139272
-0.136064
-0.133096
-0.130312
-0.127639
-0.124971
-0.122186
-0.119155
-0.115776
-0.111975
-0.10771
-0.10297
-0.0977843
-0.0922438
-0.0865182
-0.0808693
-0.0755834
-0.0708581
-0.0667127
-0.0708028
-0.0737949
-0.0756554
-0.0771993
-0.0782233
-0.0791604
-0.0801608
-0.0668648
-0.0812565
-0.0823041
-0.0836813
-0.0841498
-0.0852954
-0.0862676
-0.0883198
-0.0873225
-0.0630293
0.0261353
0.0354488
0.0262695
0.0173053
0.0128428
0.0067291
0.000291039
-0.004178
-0.00788646
-0.0110949
-0.0127268
-0.0149083
-0.017688
-0.0183908
-0.0190317
-0.0200072
-0.0195123
-0.0190372
-0.016845
-0.0187408
-0.179818
-0.177807
-0.17238
-0.170772
-0.165779
-0.159163
-0.162863
-0.16944
-0.168584
-0.154595
-0.176299
-0.174494
-0.181614
-0.184436
-0.150275
-0.146295
-0.142576
-0.139138
-0.13595
-0.132993
-0.130234
-0.127624
-0.125084
-0.122504
-0.119757
-0.116715
-0.113273
-0.109357
-0.104928
-0.0999899
-0.0945928
-0.0888462
-0.0829454
-0.0771861
-0.0718613
-0.0671478
-0.0630474
-0.0671093
-0.0700896
-0.0719337
-0.0734645
-0.0744176
-0.0752408
-0.0761517
-0.0632188
-0.0834193
-0.0841421
-0.0594343
0.0348034
0.0253862
0.0168161
0.0119662
0.00618067
0.000221319
-0.00410816
-0.00764827
-0.0107116
-0.0125839
-0.0146701
-0.0171588
-0.0180006
-0.0185176
-0.0189454
-0.0193266
-0.0190616
-0.0192944
-0.0201386
-0.019714
-0.0190237
-0.179541
-0.1779
-0.166003
-0.164675
-0.160028
-0.154134
-0.157435
-0.163428
-0.161986
-0.168506
-0.149898
-0.146017
-0.142367
-0.138982
-0.135833
-0.132898
-0.130162
-0.127597
-0.125143
-0.122716
-0.12021
-0.117489
-0.114424
-0.110902
-0.10685
-0.10224
-0.0970913
-0.0914709
-0.0855073
-0.0794335
-0.0735624
-0.0681929
-0.06349
-0.0594453
-0.0634675
-0.066404
-0.0682325
-0.0697567
-0.0707042
-0.0715274
-0.0724254
-0.059645
-0.0559114
0.0243147
0.0159629
0.0110402
0.00551994
-2.35217e-05
-0.00420646
-0.00759159
-0.0104994
-0.0124748
-0.0144449
-0.0166552
-0.0176023
-0.0180049
-0.0178416
-0.0183553
-0.0193411
-0.0195521
-0.0200058
-0.019028
-0.0191718
-0.0193896
-0.0203051
-0.0198219
-0.165447
-0.164474
-0.160367
-0.159048
-0.154984
-0.149434
-0.15253
-0.157896
-0.156555
-0.163348
-0.161961
-0.145676
-0.142105
-0.138786
-0.135688
-0.132791
-0.130084
-0.127555
-0.125158
-0.12284
-0.120518
-0.118071
-0.115368
-0.112265
-0.108646
-0.104443
-0.0996394
-0.0942657
-0.0884088
-0.0822238
-0.0759713
-0.0699878
-0.0645751
-0.0598986
-0.0559289
-0.0599081
-0.0627763
-0.0645767
-0.0660738
-0.0670095
-0.067827
-0.06872
-0.0561326
-0.0524973
0.0148795
0.0100145
0.00474365
-0.000447626
-0.00447408
-0.00770853
-0.0104567
-0.0124403
-0.0142707
-0.0161932
-0.0171636
-0.017551
-0.0175506
-0.0180724
-0.0182231
-0.0181617
-0.0184064
-0.0197639
-0.0215585
-0.0187323
-0.0178729
-0.0193391
-0.0195153
-0.160015
-0.158831
-0.155505
-0.153896
-0.150119
-0.145276
-0.147962
-0.152982
-0.151886
-0.157778
-0.156349
-0.14178
-0.138539
-0.135503
-0.132655
-0.129985
-0.127493
-0.125139
-0.122893
-0.120701
-0.118465
-0.116075
-0.113376
-0.110222
-0.106495
-0.10213
-0.097116
-0.0915033
-0.0853996
-0.0789849
-0.0725529
-0.0664584
-0.0610207
-0.0563947
-0.0525402
-0.0564427
-0.0592225
-0.0609934
-0.0624526
-0.0633704
-0.0641763
-0.065056
-0.0526602
-0.0493227
0.00897174
0.00381039
-0.00105297
-0.00490149
-0.00798383
-0.0105698
-0.0125028
-0.0141839
-0.0158385
-0.0167788
-0.017184
-0.0173209
-0.0177863
-0.0182581
-0.0184278
-0.0183279
-0.018464
-0.018358
-0.0184591
-0.0185723
-0.0230172
-0.0176912
-0.0180476
-0.019625
-0.155613
-0.15354
-0.149692
-0.145891
-0.141391
-0.143998
-0.147711
-0.152833
-0.151337
-0.138232
-0.135272
-0.132481
-0.129855
-0.127405
-0.125087
-0.122894
-0.120787
-0.118702
-0.116551
-0.114201
-0.111498
-0.108285
-0.10444
-0.0998967
-0.0946598
-0.0887956
-0.0824332
-0.0757847
-0.0691726
-0.0629839
-0.0575474
-0.0530135
-0.0493246
-0.0528945
-0.0557723
-0.0574915
-0.0589051
-0.0598068
-0.0605996
-0.0614631
-0.0495355
0.00280797
-0.00186196
-0.00547562
-0.00839396
-0.0108199
-0.0126672
-0.0142018
-0.0156191
-0.0164935
-0.0169105
-0.0171283
-0.0175529
-0.0180125
-0.0184105
-0.018565
-0.0184634
-0.0186187
-0.0185217
-0.0186141
-0.0186615
-0.0185713
-0.0185782
-0.0186313
-0.0185387
-0.0237059
-0.155411
-0.153405
-0.150046
-0.148984
-0.145556
-0.141984
-0.137863
-0.140144
-0.143896
-0.147019
-0.14811
-0.152695
-0.151437
-0.13499
-0.132265
-0.129687
-0.127283
-0.125002
-0.122851
-0.120803
-0.118817
-0.116834
-0.114753
-0.112439
-0.109724
-0.106444
-0.102466
-0.0977342
-0.0922609
-0.0861322
-0.0795025
-0.0726168
-0.0658356
-0.0595771
-0.0541793
-0.0497666
-0.0498054
-0.0523108
-0.0538656
-0.0554835
-0.0563423
-0.0570878
-0.0579413
-0.00276306
-0.00620981
-0.0089208
-0.0111842
-0.0129274
-0.0143246
-0.0155383
-0.0163242
-0.0167291
-0.0169767
-0.0173486
-0.0177709
-0.0181595
-0.0187727
-0.0186505
-0.0185316
-0.0187332
-0.018653
-0.0187622
-0.0187472
-0.0186495
-0.0186841
-0.0187058
-0.018747
-0.0186816
-0.0187011
-0.145752
-0.144733
-0.141642
-0.138397
-0.134661
-0.136727
-0.139934
-0.142842
-0.14461
-0.132005
-0.129476
-0.127124
-0.124884
-0.122771
-0.120768
-0.118846
-0.116973
-0.115079
-0.113064
-0.110776
-0.108042
-0.104684
-0.100567
-0.0956329
-0.0899085
-0.0835042
-0.0766004
-0.0694817
-0.0625506
-0.0562524
-0.0509162
-0.0491582
-0.0507688
-0.0520263
-0.052892
-0.0534367
-0.0545352
-0.00699957
-0.00957526
-0.0116459
-0.0132693
-0.0145418
-0.0155849
-0.0162743
-0.0166444
-0.0168787
-0.0171813
-0.0175283
-0.0178471
-0.0181892
-0.0172196
-0.0194436
-0.0187109
-0.0186912
-0.0187066
-0.018893
-0.0188484
-0.0187695
-0.0188261
-0.0188414
-0.0188241
-0.0187283
-0.0187592
-0.141853
-0.140983
-0.13812
-0.135197
-0.131723
-0.133585
-0.136521
-0.139347
-0.140238
-0.14265
-0.144527
-0.129216
-0.126926
-0.124729
-0.122656
-0.120692
-0.118815
-0.117012
-0.11524
-0.113431
-0.11147
-0.109203
-0.106443
-0.103
-0.0987305
-0.0935806
-0.0875939
-0.0809033
-0.0737235
-0.0663821
-0.059323
-0.0530066
-0.0488564
-0.0496602
-0.0504284
-0.051211
-0.0520762
-0.0529158
-0.0531341
-0.0102652
-0.0122168
-0.0136845
-0.0148363
-0.0157386
-0.0163352
-0.0166564
-0.0168481
-0.0170662
-0.0173152
-0.0175335
-0.0176841
-0.0169749
-0.0170358
-0.0173718
-0.0175762
-0.0203149
-0.0185679
-0.0188864
-0.0188212
-0.018841
-0.0189147
-0.0189719
-0.0189312
-0.018854
-0.0188966
-0.141672
-0.140904
-0.13835
-0.137518
-0.135014
-0.132196
-0.128878
-0.130773
-0.133403
-0.13593
-0.136751
-0.139251
-0.140105
-0.126688
-0.124537
-0.122506
-0.12058
-0.118741
-0.116985
-0.115288
-0.11361
-0.111873
-0.109962
-0.107712
-0.104918
-0.10138
-0.0969464
-0.0915683
-0.0853076
-0.0783233
-0.0708696
-0.0633188
-0.0561489
-0.0489509
-0.048015
-0.0497352
-0.0504457
-0.0512016
-0.012813
-0.0141858
-0.0151959
-0.0159765
-0.0164882
-0.0167549
-0.0168905
-0.0170164
-0.0171561
-0.0172669
-0.017296
-0.0167736
-0.0167456
-0.0169392
-0.0172728
-0.0174076
-0.0175507
-0.0174613
-0.0185477
-0.0218245
-0.0186698
-0.0181484
-0.0189898
-0.0189532
-0.0189415
-0.0189967
-0.138186
-0.13742
-0.135035
-0.134631
-0.131986
-0.128419
-0.126424
-0.1302
-0.132878
-0.13363
-0.135789
-0.13661
-0.124305
-0.12232
-0.120436
-0.11863
-0.116911
-0.115264
-0.113666
-0.112069
-0.110399
-0.108533
-0.106291
-0.103457
-0.0998151
-0.0952062
-0.0895872
-0.0830409
-0.0757582
-0.0680354
-0.0602859
-0.0480186
-0.0146991
-0.0156316
-0.0162833
-0.0167108
-0.0169224
-0.0169994
-0.0170362
-0.0170672
-0.0170712
-0.0170075
-0.0166039
-0.0165115
-0.0166579
-0.0167022
-0.0170882
-0.0172121
-0.0174591
-0.0175891
-0.0177148
-0.017766
-0.0177309
-0.0175064
-0.0225927
-0.0190231
-0.017901
-0.134732
-0.134832
-0.132205
-0.131612
-0.128846
-0.126152
-0.127566
-0.124028
-0.130195
-0.132776
-0.13331
-0.122095
-0.120259
-0.118489
-0.116803
-0.115192
-0.113644
-0.11213
-0.11061
-0.109003
-0.107175
-0.104936
-0.102055
-0.0982978
-0.0935009
-0.087627
-0.0807862
-0.0732027
-0.0652136
-0.0160736
-0.0166613
-0.0169872
-0.0171393
-0.0171617
-0.0171205
-0.0170535
-0.0169572
-0.0168111
-0.016467
-0.0163193
-0.0164014
-0.0164086
-0.0163049
-0.0173078
-0.0168996
-0.01725
-0.0173579
-0.0175325
-0.0176266
-0.0177264
-0.0176716
-0.134815
-0.132026
-0.131
-0.129023
-0.128366
-0.126598
-0.123698
-0.125184
-0.127764
-0.127111
-0.121827
-0.130509
-0.129814
-0.132712
-0.13315
-0.120052
-0.118318
-0.116666
-0.115086
-0.113572
-0.112109
-0.110677
-0.109228
-0.107676
-0.105882
-0.103642
-0.100702
-0.0968196
-0.091819
-0.0856794
-0.0785358
-0.070647
-0.017041
-0.01732
-0.0173939
-0.0173619
-0.0172568
-0.0171084
-0.0169247
-0.0167037
-0.0163736
-0.0161736
-0.0161762
-0.0161545
-0.0160657
-0.0159495
-0.0164667
-0.0166314
-0.0175981
-0.0184611
-0.0168662
-0.0173283
-0.0174252
-0.0174883
-0.0174415
-0.131908
-0.131136
-0.12644
-0.126398
-0.123998
-0.121517
-0.1229
-0.125263
-0.124741
-0.119824
-0.118119
-0.116501
-0.114951
-0.113468
-0.112038
-0.110656
-0.109298
-0.107914
-0.106415
-0.104649
-0.102397
-0.0993927
-0.0953726
-0.0901539
-0.0837357
-0.0762784
-0.0176465
-0.0176895
-0.0175911
-0.0174301
-0.0172182
-0.0169643
-0.0166779
-0.016333
-0.0160772
-0.0159906
-0.01592
-0.0158266
-0.0157565
-0.0158889
-0.0161114
-0.0162335
-0.0165401
-0.0166406
-0.0167152
-0.0169047
-0.0175239
-0.015782
-0.0171039
-0.0170052
-0.126419
-0.124113
-0.123563
-0.121807
-0.119584
-0.120769
-0.123084
-0.122532
-0.125125
-0.124733
-0.117887
-0.116306
-0.114788
-0.113337
-0.111934
-0.110585
-0.109278
-0.107988
-0.106666
-0.105212
-0.103469
-0.101201
-0.0981226
-0.0939462
-0.0884951
-0.0817842
-0.0179704
-0.0178534
-0.0176316
-0.0173678
-0.0170605
-0.0167204
-0.0163464
-0.0160324
-0.0158532
-0.0157175
-0.0155908
-0.0155226
-0.0156002
-0.0155115
-0.0160675
-0.0159469
-0.0161949
-0.0162548
-0.0163565
-0.0163966
-0.0166208
-0.0167241
-0.0168121
-0.0170118
-0.0176049
-0.0166918
-0.123956
-0.123464
-0.121926
-0.121406
-0.119811
-0.117616
-0.118912
-0.120922
-0.120406
-0.123027
-0.122487
-0.116075
-0.114596
-0.113183
-0.111806
-0.110483
-0.109207
-0.107969
-0.106742
-0.105475
-0.104065
-0.102339
-0.100048
-0.0968805
-0.0925313
-0.086832
-0.0180975
-0.0178637
-0.0175465
-0.017195
-0.0168145
-0.0164079
-0.0160384
-0.0157713
-0.0155594
-0.0153798
-0.015268
-0.0152488
-0.0150318
-0.014228
-0.015259
-0.0162152
-0.0159786
-0.0160262
-0.0160547
-0.0160476
-0.0162621
-0.0163432
-0.0164309
-0.0164798
-0.0166878
-0.0167928
-0.0168846
-0.0171061
-0.12178
-0.121306
-0.119876
-0.119383
-0.117867
-0.115812
-0.11693
-0.11921
-0.11841
-0.120866
-0.120344
-0.114375
-0.113006
-0.111657
-0.110358
-0.109106
-0.107897
-0.106722
-0.105556
-0.104341
-0.10297
-0.101256
-0.0989317
-0.0956576
-0.09112
-0.018077
-0.0177533
-0.0173567
-0.0169428
-0.0165065
-0.0160901
-0.0157449
-0.0154543
-0.0152089
-0.0150314
-0.0149178
-0.0146296
-0.0140003
-0.0139158
-0.0143648
-0.014703
-0.0152073
-0.0154285
-0.01556
-0.0171004