/*--------------------------------*- C++ -*----------------------------------*\
| =========                 |                                                 |
| \\      /  F ield         | OpenFOAM: The Open Source CFD Toolbox           |
|  \\    /   O peration     | Version:  v1912                                 |
|   \\  /    A nd           | Website:  www.openfoam.com                      |
|    \\/     M anipulation  |                                                 |
\*---------------------------------------------------------------------------*/
FoamFile
{
    version     2.0;
    format      ascii;
    class       surfaceScalarField;
    location    "180";
    object      phi;
}
// * * * * * * * * * * * * * * * * * * * * * * * * * * * * * * * * * * * * * //

dimensions      [0 3 -1 0 0 0 0];
oriented        oriented;


internalField   nonuniform List<scalar> 
7354
(
-3.43191e-06
0.00134024
-1.28654e-05
0.00411833
-2.70195e-06
0.0013429
-3.32335e-05
0.00693765
-1.31758e-05
0.00412876
-3.7819e-06
0.00134661
-6.06376e-05
0.00968566
-3.29685e-05
0.0069574
-1.3941e-05
0.00413885
-2.76836e-06
0.00134931
-9.42373e-05
0.0121803
-5.96918e-05
0.00971236
-3.15279e-05
0.00697494
-1.13556e-05
0.00414737
-2.82643e-06
0.00135206
-0.000143144
0.0142147
-9.4143e-05
0.0122147
-5.53066e-05
0.00973609
-2.9967e-05
0.00699349
-1.13473e-05
0.00415583
-2.79898e-06
0.00135483
-0.000185018
0.0155599
-0.000136642
0.0142572
-9.13132e-05
0.0122507
-5.50082e-05
0.00976108
-2.55767e-05
0.00700767
-1.11931e-05
0.00416419
-1.78555e-06
0.00135659
-0.000237315
0.0160611
-0.000186286
0.0156096
-0.000132699
0.0142986
-8.56783e-05
0.0122813
-4.53166e-05
0.00978079
-2.24239e-05
0.00701888
-9.18709e-06
0.00417158
-1.69348e-06
0.00135829
-0.00027759
0.0156166
-0.000231098
0.0161059
-0.000177669
0.0156545
-0.000120522
0.0143334
-7.09278e-05
0.0123069
-4.10838e-05
0.00979943
-1.94125e-05
0.0070291
-7.08608e-06
0.00417699
-1.56109e-06
0.00135987
-0.000315229
0.014282
-0.000280235
0.0156657
-0.000219611
0.0161478
-0.000151069
0.015685
-9.95163e-05
0.014362
-6.36488e-05
0.0123295
-3.67739e-05
0.0098168
-1.78613e-05
0.00703988
-6.16337e-06
0.00418161
-1.59689e-06
0.00136147
-0.000340013
0.0121795
-0.000322138
0.014324
-0.000259904
0.015706
-0.000187007
0.0161837
-0.00013034
0.0157158
-8.26004e-05
0.0143809
-5.1877e-05
0.0123446
-2.72603e-05
0.00982621
-1.48503e-05
0.00704858
-6.6322e-06
0.00418664
-1.62651e-06
0.00136308
-0.000343331
0.0095252
-0.000352627
0.0122099
-0.000278213
0.0143422
-0.000207212
0.0157262
-0.000148948
0.0162023
-0.000104456
0.0157377
-6.9087e-05
0.0143981
-4.21372e-05
0.0123594
-2.67457e-05
0.00983811
-1.14607e-05
0.00705341
-4.0396e-06
0.00418903
-1.26061e-06
0.0013643
-0.000114067
0.00653695
-0.000193247
-0.00037252
0.00954512
-0.000287439
0.0122191
-0.000212512
0.0143475
-0.000160189
0.0157374
-0.000113298
0.0162111
-7.89889e-05
0.0157476
-5.09335e-05
0.0144069
-3.51131e-05
0.0123678
-1.75455e-05
0.00984419
-1.15197e-05
0.00706087
-5.78383e-06
0.00419352
-6.67787e-07
0.00136492
0.00214681
-8.39059e-05
-0.000200468
0.00654163
-0.000176741
0.0021051
-0.000151546
-0.000259804
0.00951743
-0.000191447
0.012198
-0.00015173
0.014339
-0.000110892
0.015735
-8.76533e-05
0.0162198
-6.49069e-05
0.0157616
-4.49413e-05
0.0144168
-3.01882e-05
0.0123805
-2.21598e-05
0.00985482
-1.10621e-05
0.00706612
-4.59156e-06
0.00419742
-1.39005e-06
0.00136631
0.00137455
-2.48625e-05
0.00208727
-0.000182628
-0.000129915
0.00647129
-5.95586e-05
0.00206344
-0.000152918
0.00131657
-6.1962e-05
-3.16144e-05
-0.000141352
0.00946737
-0.000119761
0.0121661
-9.59317e-05
0.0143241
-7.97621e-05
0.0157271
-6.26979e-05
0.0162176
-4.57816e-05
0.0157624
-3.90907e-05
0.0144257
-2.50601e-05
0.0123833
-1.66701e-05
0.00986041
-1.19546e-05
0.00707347
-5.37405e-06
0.0042014
-2.14196e-06
0.00136847
0.000429748
-9.65967e-06
0.00129925
-8.30768e-05
-8.22224e-05
0.00201511
-8.15955e-05
-4.57478e-05
0.00638649
-1.08064e-05
0.00199177
-3.62279e-05
0.00125478
-3.87603e-05
-6.96901e-05
-0.000415965
0.000389084
-3.50835e-05
-1.78361e-05
-6.81505e-05
0.00941572
-6.56704e-05
0.0121358
-6.26868e-05
0.014307
-5.13105e-05
0.0157157
-4.35852e-05
0.0162154
-3.76127e-05
0.0157609
-3.14899e-05
0.0144321
-2.45318e-05
0.0123912
-2.11709e-05
0.00986962
-1.30704e-05
0.00708116
-7.41228e-06
0.00420668
-1.10761e-06
0.00136958
0.000251656
-1.55066e-06
0.000363693
-5.76873e-05
0.000342478
-6.10053e-05
0.00120203
-2.18606e-05
-6.99809e-06
0.00196321
-1.71782e-05
-1.65979e-05
0.00633545
-5.11087e-07
0.0019586
-6.19475e-06
0.00117179
-7.92045e-07
-5.19174e-06
-0.000319533
0.000300653
-1.98791e-05
-4.67428e-05
-0.000237762
0.000212388
-9.71425e-06
-3.94564e-06
-3.53703e-05
0.00938546
-3.91366e-05
0.0121123
-3.76635e-05
0.0142934
-3.8455e-05
0.0157106
-3.21779e-05
0.01621
-3.34062e-05
0.0157629
-2.5981e-05
0.0144335
-2.81918e-05
0.0123982
-2.05695e-05
0.00987712
-1.50894e-05
0.00708885
-7.16355e-06
0.00421274
-2.78479e-06
0.00137234
7.43441e-05
0.000175276
-2.05754e-05
0.000154379
-4.01078e-05
0.000285444
-6.65462e-06
0.000280545
-2.10343e-06
0.00115608
-1.7947e-06
3.2983e-07
0.00194548
-3.49412e-06
-6.99176e-06
0.00630311
3.96474e-06
0.00194604
-1.06429e-06
0.00114989
1.04646e-06
-1.05341e-06
-0.000275851
0.000275458
-4.01444e-07
-4.99835e-07
-0.000107637
8.77577e-05
-7.03985e-05
6.06831e-05
-1.50071e-05
0.0093613
-2.41088e-05
0.0120987
-2.53489e-05
0.0142803
-2.28767e-05
0.0157013
-2.94053e-05
0.016206
-2.57521e-05
0.0157626
-3.66292e-05
0.014442
-3.3249e-05
0.0124109
-2.67059e-05
0.00988875
-1.81684e-05
0.00709985
-1.00819e-05
0.00422002
-1.88784e-06
0.00137419
4.01078e-05
8.11023e-05
7.89982e-05
0.000273706
-4.26076e-08
0.000274171
-1.33178e-07
0.00114642
-5.09642e-07
4.7998e-07
0.00193981
-7.57669e-07
-4.34129e-06
0.00628884
3.60773e-06
0.00194293
8.46515e-07
0.00114508
2.60565e-07
1.3789e-08
-0.000272975
0.00027382
2.02907e-07
1.43973e-07
-7.84984e-05
7.80962e-05
-6.58109e-06
0.00934381
-7.28237e-06
0.0120807
-1.30472e-05
0.0142705
-2.04482e-05
0.0156924
-2.55459e-05
0.0162058
-3.69435e-05
0.015763
-3.39326e-05
0.0144427
-3.64078e-05
0.0124206
-3.04662e-05
0.00990104
-1.98964e-05
0.00710965
-1.05331e-05
0.00422862
-2.61749e-06
0.00137675
7.80539e-05
7.79212e-05
0.000273534
-2.26006e-07
0.000273823
1.87177e-07
0.00114403
-1.00177e-07
3.99104e-07
0.00193871
-1.28551e-07
-1.04904e-06
0.00628147
1.8413e-06
0.00194176
5.62047e-07
0.00114478
-1.59855e-07
2.58128e-07
-0.000273701
0.000273894
6.52451e-08
1.34251e-07
-7.80652e-05
7.82682e-05
-5.6512e-07
0.00933705
-6.93984e-06
0.0120745
-1.13673e-05
0.0142614
-1.5182e-05
0.015682
-2.79561e-05
0.0161968
-4.11184e-05
0.0157701
-5.06064e-05
0.0144569
-4.35021e-05
0.0124336
-3.62466e-05
0.00991737
-2.53731e-05
0.00712445
-1.1037e-05
0.004237
-3.38594e-06
0.00138011
7.80415e-05
7.82281e-05
0.000273786
8.85855e-09
0.000274111
7.66489e-08
0.00114411
1.9903e-07
3.30427e-07
0.00194092
-1.94315e-07
4.81661e-07
0.0062785
1.93087e-06
0.00194144
1.32649e-06
0.0011447
1.40369e-07
-1.59322e-07
-0.000274416
0.000274225
3.43722e-08
-4.48653e-08
-7.83623e-05
7.8427e-05
-7.11205e-07
0.00933087
-6.78036e-08
0.0120633
-6.71542e-06
0.0142529
-2.58138e-05
0.0156799
-3.91046e-05
0.0161948
-4.99725e-05
0.0157695
-5.85143e-05
0.0144719
-5.75337e-05
0.0124549
-4.63242e-05
0.0099383
-2.6919e-05
0.00714031
-1.11262e-05
0.0042447
-2.33081e-06
0.00138241
7.84363e-05
7.85136e-05
0.000274473
-5.0018e-08
0.000274681
1.20586e-07
0.00114381
3.17536e-07
3.88091e-07
0.00194172
1.89572e-07
3.422e-07
0.00627558
1.86602e-06
0.00194225
1.40831e-06
0.00114521
2.50891e-07
-3.30797e-07
-0.000274364
0.000274547
-4.26904e-08
1.56555e-07
-7.84688e-05
7.85037e-05
5.13768e-06
0.00932563
1.69575e-07
0.0120564
-1.06369e-05
0.0142377
-2.51402e-05
0.0156659
-4.9884e-05
0.0161947
-6.70643e-05
0.015778
-7.2341e-05
0.0144867
-6.78045e-05
0.0124764
-4.93927e-05
0.00996075
-2.94221e-05
0.00715858
-1.41507e-05
0.00425651
-3.02827e-06
0.00138543
7.84533e-05
7.85736e-05
0.000274855
1.15147e-08
0.000275386
-1.3911e-07
0.00114545
-3.21158e-07
2.71157e-07
0.00194174
8.60707e-07
1.88206e-06
0.00627639
2.44538e-06
0.00194334
2.61165e-07
0.00114634
1.9756e-07
3.15825e-07
-0.000274917
0.000275131
3.97736e-08
1.40436e-07
-7.87302e-05
7.86875e-05
1.92659e-06
0.00932392
-3.14252e-06
0.0120489
-1.99311e-05
0.0142325
-4.32267e-05
0.0156592
-7.00845e-05
0.0161977
-9.14685e-05
0.0157972
-9.63319e-05
0.0145152
-7.91849e-05
0.0125061
-5.43127e-05
0.00998562
-2.99258e-05
0.00717434
-1.211e-05
0.00426558
-3.33687e-06
0.00138877
7.86997e-05
7.85614e-05
0.00027488
-7.15632e-08
0.000275052
9.72397e-08
0.00114705
-1.68341e-07
3.23024e-07
0.00194397
1.2413e-06
1.85488e-06
0.00627612
3.53286e-07
0.0019453
1.11896e-06
0.00114689
2.59998e-07
1.66576e-07
-0.000275209
0.000275649
-2.43515e-07
1.57066e-07
-7.87018e-05
7.87422e-05
1.77926e-06
0.00931896
-6.42005e-06
0.0120354
-2.36005e-05
0.0142129
-5.92828e-05
0.0156484
-9.12938e-05
0.0161975
-0.000111639
0.0158125
-0.000106974
0.0145429
-8.62817e-05
0.0125381
-5.92787e-05
0.010015
-3.26433e-05
0.00719486
-1.34163e-05
0.00427567
-2.78251e-06
0.00139158
7.86702e-05
7.8767e-05
0.000275483
-1.19884e-09
0.000275665
1.4327e-07
0.00114808
-2.85606e-07
3.30474e-07
0.00194701
1.62922e-07
1.81955e-06
0.00627416
1.92856e-06
0.00194604
1.31884e-06
0.00114922
-2.80495e-07
2.63013e-07
-0.000275741
0.000275974
2.93425e-08
9.15561e-08
-7.8924e-05
7.86801e-05
-5.37635e-07
0.00931312
-1.38267e-05
0.0120256
-4.61027e-05
0.0141997
-8.85113e-05
0.0156456
-0.000129021
0.0162149
-0.00013886
0.0158443
-0.000129531
0.0145862
-9.55687e-05
0.0125744
-5.8962e-05
0.0100413
-3.18042e-05
0.00721326
-1.12923e-05
0.00428421
-1.85088e-06
0.00139347
7.86793e-05
7.88231e-05
0.00027568
6.09406e-09
0.000275902
1.06672e-07
0.00114872
3.11161e-07
3.53176e-07
0.00194704
8.14491e-07
1.73122e-06
0.00627144
4.52125e-07
0.00194861
3.69122e-07
0.00115007
-1.74233e-07
1.47003e-07
-0.000276062
0.000276043
-2.62559e-07
1.01311e-07
-7.89146e-05
7.89443e-05
-2.80624e-06
0.00930206
-2.4516e-05
0.012004
-7.0607e-05
0.0141818
-0.000127252
0.0156439
-0.00016397
0.01624
-0.00017128
0.0158861
-0.00013642
0.014627
-9.86078e-05
0.012614
-6.07159e-05
0.0100702
-2.8337e-05
0.00723034
-1.08005e-05
0.0042932
-1.68926e-06
0.00139521
7.89499e-05
7.90561e-05
0.00027633
2.56384e-08
0.000276512
1.73507e-07
0.00115038
3.308e-07
1.74756e-07
0.00194926
1.0919e-06
1.80743e-06
0.00626631
5.19502e-07
0.00194937
3.50499e-07
0.00115081
1.62007e-07
-2.16474e-07
-0.000276603
0.0002764
3.16491e-08
5.86257e-08
-7.91574e-05
7.88945e-05
-8.88638e-06
0.00928646
-4.57794e-05
0.0119792
-0.000110311
0.0141649
-0.000171687
0.0156516
-0.000206534
0.0162753
-0.000184057
0.0159337
-0.000143445
0.0146719
-9.62773e-05
0.0126496
-5.14852e-05
0.0100934
-2.3932e-05
0.00724351
-8.566e-06
0.00430013
-1.33622e-06
0.00139658
7.89207e-05
7.90949e-05
0.000276669
6.11666e-08
0.000276787
5.57723e-08
0.00115128
3.18593e-07
3.05116e-07
0.00195023
9.31876e-07
1.78421e-06
0.00625648
-8.38737e-07
0.0019504
3.52859e-07
0.00115172
2.64136e-07
-3.48849e-07
-0.000276486
0.00027689
-2.40737e-07
8.39967e-08
-7.91535e-05
7.91859e-05
-1.81549e-05
0.0092588
-7.73286e-05
0.0119462
-0.000162626
0.0141558
-0.000230156
0.0156752
-0.000231898
0.0163231
-0.000197967
0.0159883
-0.000143039
0.0147187
-8.63876e-05
0.0126845
-4.67513e-05
0.0101162
-2.04609e-05
0.00725544
-5.61302e-06
0.00430443
-2.99186e-07
0.00139689
7.92469e-05
7.93025e-05
0.000277154
5.61506e-08
0.000277351
1.11512e-07
0.00115259
3.32956e-07
-2.74283e-07
0.00195098
1.20984e-06
1.88437e-06
0.00623899
-2.55117e-06
0.00195007
7.15157e-08
0.00115246
1.56267e-07
3.20436e-07
-0.000276922
0.000277215
-2.54138e-08
8.25467e-08
-7.93865e-05
7.91459e-05
-3.88202e-05
0.00922032
-0.000131097
0.0119147
-0.000235808
0.0141615
-0.000277205
0.0157205
-0.000250501
0.0163757
-0.000189241
0.0160345
-0.000127137
0.0147594
-7.3532e-05
0.0127114
-3.87408e-05
0.0101346
-1.68558e-05
0.00726671
-3.26039e-06
0.00430741
-1.58998e-07
0.00139706
7.92028e-05
7.93151e-05
0.000277479
6.71777e-08
0.000277085
1.18424e-07
0.00115351
2.93581e-07
-1.25745e-07
0.00195168
2.70611e-07
1.8878e-06
0.00620667
-8.39009e-06
0.00194897
1.55328e-07
0.00115361
-1.45581e-07
1.18189e-07
-0.00027755
0.000277636
6.84039e-08
-1.45499e-07
-7.93977e-05
7.9373e-05
-7.73056e-05
0.0091665
-0.000205756
0.0118846
-0.00030055
0.0141848
-0.000298035
0.0157681
-0.00023628
0.0164227
-0.000170369
0.0160777
-0.000108159
0.0147941
-6.36215e-05
0.0127363
-3.24036e-05
0.0101501
-9.69427e-06
0.00727316
-2.47139e-06
0.00430973
8.25646e-07
0.00139622
7.94398e-05
7.95578e-05
0.000277923
7.16628e-09
0.000277755
4.40453e-08
0.00115341
2.99683e-07
1.63956e-07
0.00195045
4.13855e-07
-9.75838e-07
0.0061492
-1.88573e-05
0.00194378
-1.72019e-06
0.00115353
-2.86692e-07
3.17441e-07
-0.00027776
0.000277608
8.00004e-09
1.14138e-07
-7.94123e-05
7.94802e-05
-0.000146656
0.00910745
-0.000313745
0.0118978
-0.000343093
0.0142299
-0.000286303
0.0158181
-0.000210999
0.0164634
-0.000142573
0.0161122
-8.80243e-05
0.0148185
-4.82405e-05
0.0127521
-1.98257e-05
0.0101603
-5.78788e-06
0.00727649
1.48608e-06
0.00430907
1.20309e-06
0.00139501
7.94877e-05
7.95322e-05
0.000277895
1.04135e-08
0.000277953
1.03334e-07
0.00115374
3.05372e-07
-9.51591e-08
0.00194442
-1.61924e-06
-1.07402e-05
0.00605946
-4.6162e-05
0.00192975
-4.18355e-06
0.00115199
-1.04835e-07
1.32499e-07
-0.000278403
0.000278055
5.93123e-08
-1.33593e-07
-7.96463e-05
7.96545e-05
-0.000277887
0.00907156
-0.000370668
0.0119254
-0.000319989
0.0142636
-0.000239556
0.0158467
-0.000170736
0.0164916
-0.000108694
0.0161329
-6.47748e-05
0.0148351
-3.43454e-05
0.0127667
-1.14154e-05
0.0101659
-1.01166e-06
0.00727899
3.06025e-06
0.0043072
1.54004e-06
0.00139345
7.96643e-05
7.97671e-05
0.000278346
1.46389e-08
0.0002782
5.24839e-08
0.00115032
2.96946e-07
-2.46545e-07
0.00192633
-7.309e-06
-5.40784e-05
0.00595737
-0.000121699
0.00189637
-1.61989e-05
0.00114608
-2.34514e-07
2.98772e-07
-0.000278217
0.000278306
-1.91766e-07
1.16996e-07
-7.96335e-05
7.96922e-05
-0.000386234
0.00908719
-0.000337976
0.0119434
-0.00025414
0.0142782
-0.000184839
0.0158608
-0.000124976
0.0165079
-8.12419e-05
0.0161494
-4.32673e-05
0.014844
-1.75953e-05
0.0127728
-4.85138e-06
0.0101698
3.07578e-06
0.00727897
3.58091e-06
0.00430515
2.82977e-06
0.0013906
7.97072e-05
7.97601e-05
0.000278589
1.23866e-08
0.000278239
1.03161e-07
0.00113898
3.55593e-07
-5.64326e-07
0.001872
-2.97046e-05
-0.000170766
0.00595107
-0.000209153
0.00181362
-6.33141e-05
0.00112423
-1.54918e-06
1.06563e-07
-0.000278475
0.000278172
6.86243e-08
6.23531e-08
-7.98771e-05
7.96858e-05
-0.000333987
0.00908318
-0.000239817
0.0119291
-0.00017635
0.0142697
-0.000130445
0.0158663
-8.99716e-05
0.0165166
-5.68788e-05
0.016163
-3.02666e-05
0.0148567
-1.09524e-05
0.012779
3.78244e-06
0.0101691
6.58567e-06
0.00727596
7.16452e-06
0.00430079
3.37627e-06
0.00138719
7.96979e-05
7.98008e-05
0.000278478
5.03216e-08
0.00027803
-1.13084e-07
0.00109859
-4.4126e-07
-3.62638e-06
0.00177622
-0.000133345
-0.000179924
0.0058947
-9.76595e-05
0.00174418
-0.000177114
0.00104809
-1.08376e-05
-1.96562e-06
-0.00027797
0.00027667
-2.45658e-07
1.6805e-07
-7.98632e-05
7.99318e-05
-0.000183039
0.00902648
-0.000147657
0.0119005
-0.000117767
0.0142571
-8.54176e-05
0.0158618
-5.86192e-05
0.0165184
-3.2626e-05
0.0161653
-1.43871e-05
0.0148601
-4.1289e-07
0.0127832
7.92963e-06
0.0101677
1.30327e-05
0.00727008
1.00531e-05
0.00429409
3.77937e-06
0.00138339
7.99828e-05
7.98704e-05
0.000276438
-2.09515e-07
0.000273033
-2.21361e-07
0.00096714
-1.45013e-05
-3.78871e-05
0.0016995
-0.000135234
-6.20983e-05
0.00579162
-1.78453e-05
0.00165937
-5.75166e-05
0.000919753
-6.61517e-05
-6.35682e-05
-0.000271655
0.00026262
-1.80074e-06
-5.88438e-07
-8.00385e-05
7.97937e-05
-8.56577e-05
0.00896444
-8.21215e-05
0.0118648
-7.03385e-05
0.014242
-5.34945e-05
0.0158567
-3.47356e-05
0.0165205
-1.60398e-05
0.016167
-9.4984e-07
0.0148607
1.19012e-05
0.0127792
1.59174e-05
0.0101648
1.45938e-05
0.00726551
9.54424e-06
0.0042883
4.79205e-06
0.00137859
7.95841e-05
7.93627e-05
0.000252166
-4.04418e-06
0.000224429
-1.01456e-05
0.000852882
-4.87546e-05
-1.96052e-05
0.00162025
-2.29563e-05
-1.8413e-05
0.00572433
7.83452e-08
0.00160958
-7.17109e-06
0.000803431
-1.34421e-06
-6.7102e-06
-0.000183257
0.000157502
-4.03933e-05
-2.23934e-05
-7.87743e-05
7.69742e-05
-4.08528e-05
0.00892325
-4.3759e-05
0.0118383
-3.93403e-05
0.0142279
-3.02679e-05
0.0158522
-1.69003e-05
0.0165213
-3.61701e-06
0.0161697
1.26179e-05
0.01486
1.57999e-05
0.0127793
2.07486e-05
0.0101586
1.76086e-05
0.00725743
1.35852e-05
0.0042795
5.03763e-06
0.00137355
7.29309e-05
6.27862e-05
0.000108747
8.91427e-05
0.000781193
-7.32508e-07
2.91248e-08
0.00159486
-3.68037e-06
-7.40065e-06
0.00568768
3.21088e-06
0.00159534
-3.87866e-07
0.000774023
2.83178e-07
-2.79144e-07
-8.24325e-05
8.10901e-05
-4.03928e-05
-1.85498e-05
0.008898
-2.26657e-05
0.0118216
-1.95857e-05
0.0142172
-8.55704e-06
0.0158439
-4.84624e-07
0.0165182
1.21089e-05
0.0161702
1.55724e-05
0.0148602
2.52549e-05
0.0127748
2.49372e-05
0.0101513
2.32031e-05
0.0072478
1.56224e-05
0.00426891
5.83999e-06
0.00136772
8.03592e-05
8.03897e-05
0.000770275
-4.96364e-08
1.22422e-07
0.00158902
-1.05834e-06
-4.52401e-06
0.00566989
3.7962e-06
0.00159116
1.08011e-06
0.000769842
1.16844e-07
-6.29871e-08
-8.01106e-05
8.0396e-05
-5.11042e-06
0.00888052
-9.1939e-06
0.0118112
-4.62297e-06
0.0142133
2.35853e-06
0.015841
1.32942e-05
0.016517
1.93504e-05
0.0161664
3.15488e-05
0.0148539
3.25147e-05
0.0127672
3.24604e-05
0.010142
2.771e-05
0.00723571
1.73228e-05
0.00425743
6.75096e-06
0.00136098
8.03461e-05
8.04688e-05
0.000768544
9.19166e-08
1.64502e-07
0.0015866
3.13439e-08
-2.28217e-06
0.00566368
3.3918e-06
0.00159038
4.02047e-08
0.000769557
1.93233e-07
-1.21561e-07
-8.04058e-05
8.05247e-05
-8.55233e-07
0.00887213
1.28678e-06
0.0118053
4.39947e-06
0.0142112
1.0786e-05
0.0158435
2.31532e-05
0.0165132
3.01369e-05
0.0161678
3.16634e-05
0.0148547
3.60725e-05
0.0127635
3.4825e-05
0.0101349
3.10163e-05
0.00722201
2.05477e-05
0.00424364
7.71647e-06
0.00135327
8.06182e-05
8.07841e-05
0.000769436
7.7364e-08
7.79559e-08
0.00158782
2.92167e-07
-1.16064e-06
0.00566135
2.67885e-06
0.0015904
8.30569e-07
0.000769602
3.58665e-08
-1.54448e-07
-8.06626e-05
8.0858e-05
2.11989e-06
0.00887138
8.00381e-06
0.0118017
1.47166e-05
0.0142073
2.22032e-05
0.0158445
2.63021e-05
0.016517
4.00503e-05
0.0161594
4.60041e-05
0.0148448
4.82249e-05
0.0127501
4.25683e-05
0.0101233
3.57138e-05
0.00720685
2.29214e-05
0.00422844
8.65638e-06
0.00134462
8.09349e-05
8.10129e-05
0.000769802
4.72865e-08
6.34714e-08
0.00158948
-2.34696e-07
-1.44933e-07
0.0056609
2.72623e-06
0.00159132
8.55179e-07
0.000770717
5.05116e-08
-1.2924e-07
-8.08584e-05
8.08961e-05
6.55949e-06
0.00887277
1.30527e-05
0.0118033
1.73017e-05
0.0142122
3.12856e-05
0.0158395
4.14478e-05
0.0165156
4.65151e-05
0.0161589
4.92395e-05
0.0148437
5.3348e-05
0.0127394
5.03684e-05
0.0101087
4.09933e-05
0.00718878
2.6626e-05
0.00421048
9.49949e-06
0.00133512
8.09451e-05
8.10101e-05
0.000770362
5.23424e-08
7.41155e-08
0.00159061
5.89651e-07
-5.09987e-08
0.00566472
2.82357e-06
0.00159278
5.67747e-07
0.000771207
-5.3409e-08
7.43403e-08
-8.08809e-05
8.09341e-05
7.90455e-06
0.008878
1.45665e-05
0.0118061
2.69419e-05
0.0142165
3.45064e-05
0.0158464
4.34391e-05
0.0165187
5.38822e-05
0.0161542
6.12847e-05
0.0148358
6.02573e-05
0.0127295
5.77913e-05
0.0100919
4.47114e-05
0.0071707
2.96063e-05
0.00419037
1.07869e-05
0.00132434
8.09862e-05
8.10606e-05
0.000771683
5.34635e-08
8.05648e-08
0.00159211
6.25609e-07
1.12999e-06
0.0056685
3.00835e-06
0.00159435
6.05322e-07
0.000772155
5.61408e-08
4.75041e-08
-8.1135e-05
8.10842e-05
9.86247e-06
0.00888264
1.90173e-05
0.011814
2.81071e-05
0.0142229
4.10908e-05
0.0158487
5.45252e-05
0.016518
6.21795e-05
0.0161533
7.04394e-05
0.0148256
6.9538e-05
0.0127177
6.51876e-05
0.0100714
5.32992e-05
0.007147
3.19785e-05
0.00416918
1.16258e-05
0.00131271
8.11396e-05
8.12221e-05
0.000772857
-1.28861e-07
5.92215e-08
0.00159485
6.60976e-07
1.88746e-07
0.0056752
3.01054e-06
0.0015971
7.61303e-07
0.000773367
6.12647e-08
4.505e-08
-8.12696e-05
8.13289e-05
1.11741e-05
0.00889055
2.10878e-05
0.011821
3.44522e-05
0.0142295
4.59073e-05
0.0158573
6.09143e-05
0.0165193
7.1542e-05
0.0161522
7.69881e-05
0.0148182
8.33925e-05
0.0126995
7.45253e-05
0.0100502
5.95869e-05
0.0071194
3.71168e-05
0.00414369
1.18132e-05
0.0013009
8.11999e-05
8.12595e-05
0.000773861
5.44876e-08
1.33708e-07
0.0015966
6.97283e-07
1.27362e-06
0.00568202
3.07319e-06
0.00159893
7.07704e-07
0.000774624
9.90103e-08
-9.45428e-08
-8.13045e-05
8.13685e-05
1.12271e-05
0.00890034
2.36856e-05
0.0118317
4.05744e-05
0.0142348
5.79419e-05
0.0158603
7.11734e-05
0.0165196
8.47584e-05
0.0161444
9.24439e-05
0.0148091
9.16952e-05
0.0126823
8.48321e-05
0.0100249
6.51272e-05
0.00709139
3.93551e-05
0.00411615
1.00558e-05
0.00129085
8.14251e-05
8.15606e-05
0.000775188
5.89976e-08
8.08747e-08
0.00159951
7.08877e-07
1.34161e-07
0.00569043
2.71648e-06
0.00160187
7.22159e-07
0.000775975
5.56037e-08
-1.25498e-07
-8.14661e-05
8.15683e-05
1.26211e-05
0.00891146
2.77656e-05
0.0118446
4.51873e-05
0.0142476
6.42482e-05
0.0158672
7.97813e-05
0.0165246
9.27474e-05
0.0161441
0.000104215
0.0147966
0.000100186
0.012667
9.3625e-05
0.00999644
7.39607e-05
0.00705678
4.17579e-05
0.00408445
1.23466e-05
0.0012785
8.16271e-05
8.17081e-05
0.000776572
5.38557e-08
7.81086e-08
0.0016014
6.09616e-07
6.74627e-07
0.00570123
1.12365e-06
0.0016037
4.31992e-07
0.00077736
-1.04396e-07
4.37355e-08
-8.15827e-05
8.16408e-05
1.57763e-05
0.00892337
3.22313e-05
0.0118575
5.44036e-05
0.0142574
7.04988e-05
0.0158765
9.11617e-05
0.0165262
0.000106357
0.016142
0.000115359
0.0147814
0.000118145
0.0126425
0.000104825
0.00996558
7.94103e-05
0.00701913
4.17824e-05
0.00405502
3.03929e-05
0.00124811
8.16966e-05
8.17764e-05
0.000777836
4.98345e-08
8.76798e-08
0.00160458
-1.93836e-07
1.85232e-06
0.00571256
2.59211e-06
0.00160753
-1.82393e-06
0.000778081
1.19478e-07
7.28637e-08
-8.18202e-05
8.17187e-05
1.95855e-05
0.00893607
3.90174e-05
0.0118729
5.79485e-05
0.01427
8.15247e-05
0.0158861
0.000104138
0.0165284
0.000121796
0.0161355
0.000130631
0.0147689
0.000126341
0.0126209
0.000113668
0.00993132
8.41538e-05
0.00697676
7.15455e-05
0.00401387
7.2193e-05
8.17681e-05
8.18556e-05
0.000777999
2.00332e-08
-1.19131e-07
0.00161291
-3.55173e-06
4.04378e-06
0.00572256
5.51473e-06
0.00161051
6.44976e-06
-1.44941e-06
0.000776174
1.70217e-08
-2.12583e-08
-8.19284e-05
8.20496e-05
2.40216e-05
0.00895099
4.09675e-05
0.0118898
6.56646e-05
0.0142858
9.04854e-05
0.0158998
0.000113582
0.0165366
0.000132527
0.0161336
0.0001441
0.0147512
0.000145068
0.0125895
0.000126719
0.00988876
0.000111276
0.00693703
0.000132381
8.20708e-05
8.19524e-05
0.000458059
-2.5626e-08
-2.44672e-07
0.000314822
0.0016131
-5.64792e-07
2.01302e-06
5.12711e-06
0.00573596
5.51237e-06
0.00161488
1.39747e-06
2.33671e-06
0.00048313
-1.86288e-05
0.000488508
-6.82611e-06
-8.19312e-05
8.19487e-05
2.36922e-05
0.00896833
4.79347e-05
0.0119076
7.35955e-05
0.0143027
0.000105896
0.0159075
0.00013302
0.0165361
0.000152011
0.0161257
0.000162005
0.0147342
0.000158509
0.0125578
0.000150996
0.00984904
0.00017467
8.19213e-05
8.16753e-05
0.000293142
3.04831e-06
0.000490309
-2.36644e-06
0.000493013
-6.90187e-07
0.0016169
1.23925e-06
1.86036e-06
4.27941e-06
0.00575103
4.32701e-06
0.00162023
7.67936e-07
1.42787e-06
0.000493847
5.61422e-07
0.000494974
1.21384e-06
0.000287672
-1.35949e-06
2.69235e-05
0.00898927
5.23623e-05
0.0119288
8.39865e-05
0.0143246
0.000114798
0.0159257
0.000142853
0.0165453
0.00016811
0.0161196
0.000174013
0.0147187
0.000182839
0.0125259
0.000205817
8.47222e-05
0.000286364
-1.05678e-06
0.000286039
-3.66638e-07
0.000495557
6.55063e-07
0.000496617
8.0163e-07
0.00162256
6.00239e-07
1.34456e-06
5.47211e-06
0.00576774
4.74899e-06
0.0016252
6.37193e-07
1.05149e-06
0.000497154
2.27526e-07
0.000497787
7.98139e-07
0.000286545
5.63774e-08
0.000287664
9.41795e-08
8.3363e-05
2.96118e-05
0.00901209
6.04985e-05
0.0119523
9.51633e-05
0.0143443
0.000131858
0.0159367
0.000162314
0.0165511
0.000179148
0.0161145
0.000203625
0.0146979
0.000223998
8.23059e-05
8.19394e-05
0.000288058
2.64917e-07
0.000288609
2.49795e-07
0.000497736
6.5092e-07
0.000498862
2.20744e-07
0.00162879
7.28734e-07
1.14327e-06
5.93691e-06
0.00578621
5.18799e-06
0.00163167
7.20357e-07
1.15943e-06
0.000499092
4.0354e-07
0.00049961
5.3562e-07
0.000288648
1.88608e-07
0.000289283
1.61672e-07
8.19955e-05
8.20909e-05
3.54686e-05
0.00903705
6.66688e-05
0.0119808
0.000107135
0.014369
0.000144537
0.0159545
0.000172148
0.0165581
0.000207081
0.016111
0.000229495
8.23559e-05
8.26059e-05
0.000289779
1.58712e-07
0.000290041
-4.34463e-08
0.000500019
3.17909e-07
0.00050071
4.51955e-07
0.00163556
8.0805e-07
1.22651e-06
5.55377e-06
0.00581029
5.85067e-06
0.00163877
7.92826e-07
1.18838e-06
0.000500967
4.5919e-07
0.000501919
2.10226e-07
0.000290328
1.17562e-07
0.000290747
1.13951e-07
8.27939e-05
8.29563e-05
3.80363e-05
0.00906575
7.87818e-05
0.0120092
0.000121661
0.0143918
0.000157288
0.0159693
0.000195544
0.0165696
0.00021846
8.31149e-05
8.30715e-05
0.000290946
1.21359e-07
0.000291267
1.28496e-07
0.000501958
7.67911e-07
0.000502686
4.99192e-07
0.00164192
8.8406e-07
1.50661e-06
7.33346e-06
0.00583455
6.41815e-06
0.00164576
7.0692e-07
1.31419e-06
0.0005034
7.43458e-08
0.000503994
5.96704e-07
0.000291766
-3.94361e-08
0.000291839
1.34896e-07
8.31884e-05
8.3303e-05
4.54842e-05
0.00909898
8.88699e-05
0.0120419
0.000130849
0.0144182
0.000170934
0.0159939
0.000193534
8.34239e-05
8.35523e-05
0.000292424
1.85032e-07
0.000292772
1.48127e-07
0.000504112
7.63157e-07
0.000505478
1.39334e-07
0.00165038
1.05586e-06
1.6527e-06
8.72643e-06
0.00586376
7.56974e-06
0.0016544
8.96488e-07
1.50318e-06
0.000505687
4.93584e-07
0.000506338
6.65185e-07
0.000292724
1.22018e-07
0.000293381
-6.26696e-08
8.3512e-05
8.36474e-05
5.40176e-05
0.00913387
0.000103827
0.0120689
0.000142219
0.0144469
0.0001548
8.38321e-05
8.398e-05
0.000294008
1.38682e-07
0.000294018
1.25993e-07
0.00050694
4.52405e-07
0.000507993
5.993e-07
0.00166
1.25594e-06
1.8636e-06
9.7462e-06
0.00589841
9.60533e-06
0.00166478
1.11956e-06
1.68675e-06
0.000508292
5.94926e-07
0.000509302
4.95823e-07
0.000294318
1.92798e-07
0.00029501
-2.91835e-08
8.41012e-05
8.40389e-05
6.80447e-05
0.00916959
0.000108094
0.012103
0.000112236
8.4177e-05
8.43027e-05
0.000295312
1.51398e-07
0.000295747
1.62244e-07
0.000509723
8.34317e-07
0.000510873
7.13793e-07
0.00167095
2.04583e-06
1.52901e-06
1.32514e-05
0.00593907
1.41537e-05
0.00167736
1.86164e-06
1.33681e-06
0.000511693
2.9748e-07
0.00051244
9.42973e-07
0.000296171
1.71057e-07
0.000296492
1.73614e-07
8.44946e-05
8.44656e-05
7.90423e-05
0.00919868
6.88994e-05
8.46165e-05
8.47785e-05
0.000297108
2.21036e-07
0.000297795
2.48492e-08
0.000513567
9.19699e-07
0.000514708
3.89455e-07
0.00168577
2.43021e-06
2.40677e-06
1.84292e-05
0.00597731
2.24096e-05
0.0016938
2.78676e-06
3.34764e-06
0.000515792
7.77854e-07
0.000516126
1.00651e-06
0.000297917
1.76894e-07
0.000298676
1.83272e-07
8.49489e-05
8.51232e-05
4.01325e-05
8.53442e-05
8.53694e-05
0.000299396
2.01707e-07
0.000299587
1.98638e-07
0.000517509
1.04833e-06
0.000519316
6.00582e-07
0.00170431
3.94767e-06
3.98616e-06
4.10522e-05
1.41046e-05
0.0017148
4.72089e-06
7.21833e-06
0.000520916
1.18611e-06
0.000522374
1.89301e-06
0.000300342
2.40615e-08
0.00030116
1.89483e-07
8.55461e-05
8.57296e-05
8.59315e-05
8.61307e-05
0.000301992
2.19067e-07
0.00030236
2.32973e-07
0.000524656
1.66767e-06
0.000526448
2.19674e-06
0.0017319
9.62828e-06
1.43426e-05
2.0795e-05
8.23686e-06
0.000528793
2.37906e-06
0.00053241
3.60894e-06
0.000303254
2.9255e-07
0.000304774
3.73372e-07
8.6155e-05
8.63452e-05
8.65646e-05
8.6798e-05
0.000306029
4.15272e-07
0.00030764
5.86788e-07
0.000535325
6.71963e-06
0.000539632
1.00446e-05
0.000545627
1.48063e-05
1.27955e-05
0.000309439
5.82567e-07
0.000312092
9.5887e-07
8.70905e-05
8.74644e-05
8.788e-05
8.84676e-05
0.000316829
1.98796e-06
0.000322242
4.63934e-06
0.000327261
9.79355e-06
2.01224e-05
8.90507e-05
9.0011e-05
9.20013e-05
9.66434e-05
0.000106438
1.24574e-05
-1.24564e-05
-5.31307e-05
1.79716e-05
4.7612e-05
6.28319e-06
-1.87415e-05
-6.3725e-05
1.68745e-05
-0.000105748
2.39492e-05
9.97656e-05
1.4591e-05
3.30135e-05
3.10409e-06
-2.18559e-05
1.03704e-05
-7.09924e-05
-0.000114142
2.52675e-05
-2.00839e-05
-0.000369415
5.48961e-05
0.000358522
9.42689e-05
6.1283e-06
2.68748e-05
1.37624e-06
-2.32304e-05
1.61529e-05
-0.000119925
6.07107e-06
-7.56849e-05
5.3737e-05
-0.000381729
-3.21618e-05
-0.001301
0.00128047
0.000107543
-1.29685e-05
0.000344627
-5.33035e-06
8.74236e-05
1.94212e-06
2.492e-05
7.48592e-07
-2.397e-05
1.22563e-05
-0.000126111
3.63e-06
-7.85579e-05
-3.6448e-05
0.00011427
-0.0013251
-6.85611e-06
-0.000399053
-2.08676e-05
7.29081e-05
-5.95492e-06
-0.00180956
0.00178754
0.00012955
0.000329019
-4.01039e-06
-1.28636e-06
8.40295e-05
9.83115e-07
2.39252e-05
1.2886e-07
-2.40865e-05
-0.000129333
1.54842e-06
-7.99631e-05
0.00013869
-0.00183395
-2.13801e-05
8.93211e-05
-0.00137787
-1.51295e-05
-4.49337e-06
-0.000413302
-2.61904e-06
0.000111547
-9.90323e-07
-0.00208602
0.00206119
0.000154397
8.09982e-05
-3.88222e-07
8.00937e-05
2.35366e-05
2.27231e-07
-2.43027e-05
-0.000132273
1.13315e-06
-8.0856e-05
0.000165566
-0.00211286
0.000136188
-0.00188077
7.92326e-05
-0.00143534
-1.23709e-05
-9.38799e-06
-0.000423626
-2.14461e-06
-2.63116e-06
-0.000133757
0.000144195
-1.08864e-07
-0.00211876
0.00209671
0.000176477
2.06515e-07
-2.44997e-05
1.06969e-06
-8.17092e-05
0.000187845
-0.00214099
0.000176872
-0.00215348
0.000141848
-0.00194336
9.43352e-05
-0.00150075
-1.79441e-05
-1.10355e-05
0.000430046
-0.000438477
-1.23783e-06
-2.66726e-06
-1.92546e-06
-1.01406e-06
0.000135318
-9.98419e-07
-0.000136444
0.000170116
-0.00188464
0.0018727
0.000188457
2.32162e-07
-2.47171e-05
-8.24694e-05
0.000197416
-0.00189416
0.000205792
-0.00216987
0.000196939
-0.00220855
0.000168713
-0.00201781
0.000131358
-0.00158462
-3.09329e-05
-1.6741e-05
0.000444847
-0.000456264
-6.51909e-06
-4.63542e-06
0.000137878
-0.000130833
-8.25813e-06
0.000137948
-2.72906e-06