/*--------------------------------*- C++ -*----------------------------------*\
| =========                 |                                                 |
| \\      /  F ield         | OpenFOAM: The Open Source CFD Toolbox           |
|  \\    /   O peration     | Version:  v1912                                 |
|   \\  /    A nd           | Website:  www.openfoam.com                      |
|    \\/     M anipulation  |                                                 |
\*---------------------------------------------------------------------------*/
FoamFile
{
    version     2.0;
    format      ascii;
    class       surfaceScalarField;
    location    "70";
    object      phi;
}
// * * * * * * * * * * * * * * * * * * * * * * * * * * * * * * * * * * * * * //

dimensions      [0 3 -1 0 0 0 0];
oriented        oriented;


internalField   nonuniform List<scalar> 
7194
(
-2.05886e-06
0.00131525
0.00392418
-2.15807e-06
0.00131741
-9.92044e-06
0.00393194
-2.26626e-06
0.00131968
-2.59863e-05
0.00648908
-1.00883e-05
0.00393977
-2.23784e-06
0.00132192
-4.78011e-05
0.0089078
-2.54108e-05
0.00650441
-9.88757e-06
0.00394742
-2.09273e-06
0.00132402
-7.91109e-05
0.0110826
-5.03236e-05
0.00893272
-2.44905e-05
0.00651901
-9.57475e-06
0.00395491
-2.09444e-06
0.00132612
-0.000120387
0.012883
-8.2154e-05
0.0111144
-4.69368e-05
0.00895517
-2.46463e-05
0.00653409
-9.76283e-06
0.00396258
-1.72546e-06
0.00132785
-0.000166537
0.0141874
-0.000122897
0.0129238
-8.10667e-05
0.0111486
-4.71532e-05
0.00897768
-2.18033e-05
0.00654613
-7.93001e-06
0.00396879
-1.52679e-06
0.00132938
-0.000211627
0.0148892
-0.000168203
0.0142327
-0.000120097
0.0129628
-7.4458e-05
0.0111759
-4.15289e-05
0.00899741
-1.91548e-05
0.00655736
-6.88144e-06
0.00397414
-1.33633e-06
0.00133071
-0.000250985
0.0149241
-0.000216407
0.0149374
-0.000164292
0.0142769
-0.000113644
0.013002
-7.08077e-05
0.0112052
-3.7126e-05
0.00901538
-1.73218e-05
0.0065678
-6.00353e-06
0.00397881
-9.2165e-07
0.00133164
-0.000279069
0.0142635
-0.000258431
0.0149662
-0.000212112
0.0149852
-0.000156532
0.0143198
-0.000101023
0.0130322
-6.08448e-05
0.0112289
-3.20968e-05
0.00903016
-1.41223e-05
0.00657592
-3.6796e-06
0.00398157
-8.48122e-07
0.00133248
-0.000290369
0.0129461
-0.000298173
0.0143033
-0.000257025
0.0150111
-0.000197344
0.015026
-0.000136611
0.0143554
-9.08708e-05
0.0130622
-5.23294e-05
0.0112491
-2.7629e-05
0.00904366
-1.22193e-05
0.00658446
-4.01504e-06
0.00398474
-4.41889e-07
0.00133293
-0.000282031
0.0110542
-0.000325994
0.0129739
-0.000292989
0.0143393
-0.000235138
0.0150489
-0.000172083
0.0150615
-0.000120844
0.0143854
-7.60068e-05
0.0130859
-4.43982e-05
0.0112659
-2.24821e-05
0.00905393
-8.40904e-06
0.00658886
-3.12471e-06
0.00398742
-2.90575e-07
0.00133322
-0.000241215
0.00871533
-0.000343654
0.0110719
-0.000320769
0.0130017
-0.000259643
0.0143638
-0.000198349
0.0150751
-0.000146847
0.0150875
-9.94328e-05
0.0144088
-6.1961e-05
0.0131035
-3.51407e-05
0.0112785
-1.73766e-05
0.0090629
-8.29952e-06
0.00659403
-2.4662e-06
0.0039896
-2.86806e-07
0.0013335
-4.97444e-05
0.00607017
-0.000107075
-0.00034867
0.00872035
-0.000335942
0.0110871
-0.000270529
0.0130126
-0.000213349
0.0143788
-0.000163276
0.0150916
-0.000116107
0.0151042
-7.97959e-05
0.0144266
-5.25965e-05
0.0131209
-3.06704e-05
0.0112918
-1.56119e-05
0.00907021
-6.62147e-06
0.00659819
-2.07837e-06
0.00399139
-2.48478e-07
0.00133375
0.00205964
-0.00207755
-3.1832e-05
-0.000137944
0.00605556
-0.000196113
0.00201476
-6.21891e-05
-0.000339767
0.00872418
-0.000262051
0.0110786
-0.000206524
0.0130057
-0.000162915
0.0143784
-0.000125482
0.0151009
-9.62568e-05
0.0151206
-6.74937e-05
0.0144415
-4.08646e-05
0.0131311
-2.33146e-05
0.0112995
-1.14947e-05
0.00907508
-4.56214e-06
0.00660067
-1.7598e-06
0.0039929
-3.02591e-07
0.00133405
-1.98771e-05
0.00135797
-0.00138237
-9.33955e-07
-6.50011e-06
0.00198484
-0.000108023
-0.000189666
0.00604113
-0.000135664
0.00195779
-0.000169054
0.00131567
-1.50849e-05
-4.79828e-06
-0.000221363
0.0086835
-0.000178429
0.0110505
-0.000149577
0.0129924
-0.000124267
0.0143772
-0.000100041
0.0151047
-7.42217e-05
0.0151274
-4.97228e-05
0.0144504
-3.37342e-05
0.0131416
-1.9426e-05
0.0113075
-1.19287e-05
0.00908245
-5.58378e-06
0.00660449
-1.14602e-06
0.00399374
-5.3427e-07
0.00133459
-3.55876e-06
-1.24593e-07
0.000433371
-0.000433537
-7.67355e-07
0.000428595
-1.72276e-06
0.00126268
-1.63939e-05
-3.86427e-05
0.00193462
-0.000166502
-9.74286e-05
0.0059573
-4.01026e-05
0.00190491
-0.000105948
0.0012295
-8.44178e-05
-5.14547e-05
-0.000426379
0.000416639
-5.34427e-06
-2.58247e-06
-0.000120552
0.00862563
-0.000113041
0.011014
-0.000103291
0.0129714
-9.10112e-05
0.0143682
-7.36469e-05
0.0151042
-5.57204e-05
0.0151334
-4.23865e-05
0.014459
-2.81042e-05
0.0131502
-1.74641e-05
0.011313
-9.45414e-06
0.00908632
-5.68015e-06
0.00660903
-2.5471e-06
0.00399575
-5.8451e-07
0.00133517
-0.000436042
-1.05338e-06
-4.7912e-08
0.000253826
-0.000254527
-6.61633e-08
0.000252374
-2.70373e-07
0.000409178
-8.93217e-06
0.000388282
-1.7746e-05
0.0012024
-7.76889e-05
-6.17035e-05
0.00186023
-5.2747e-05
-3.53297e-05
0.00587971
-7.62513e-06
0.00184357
-2.34405e-05
0.00115221
-1.64908e-05
-3.92729e-05
-0.000369073
0.000342879
-5.82234e-05
-3.2245e-05
-0.000250199
0.000245598
-7.42465e-07
-4.07444e-07
-6.4227e-05
0.00857682
-7.11801e-05
0.0109819
-7.16922e-05
0.0129521
-6.64692e-05
0.014361
-5.69497e-05
0.0151054
-4.78071e-05
0.0151388
-3.51032e-05
0.014466
-2.46922e-05
0.0131575
-1.81758e-05
0.0113217
-1.19864e-05
0.00909262
-5.16058e-06
0.00661164
-2.75927e-06
0.00399793
-6.37435e-07
0.00133581
-0.000255466
-1.13515e-07
-5.16309e-08
7.35679e-05
-7.36339e-05
7.32977e-05
0.000238347
-1.68088e-06
0.000224277
-3.6756e-06
0.000321943
-5.67519e-05
0.000302522
-4.22823e-05
0.00111203
-1.01076e-05
-2.45656e-06
0.0018203
-1.20582e-05
-1.46965e-05
0.00583038
-2.02144e-07
0.00181778
-5.10495e-06
0.00109175
-1.20814e-07
-3.03844e-06
-0.000281402
0.000271043
-6.13175e-06
-1.81524e-05
-0.000201492
0.000163972
-2.07036e-05
-9.45917e-06
-7.28902e-05
7.2148e-05
-3.49692e-05
0.00854061
-4.54469e-05
0.0109556
-4.91999e-05
0.0129348
-4.74471e-05
0.0143515
-4.43673e-05
0.0151019
-3.68732e-05
0.0151405
-2.94918e-05
0.0144708
-2.4223e-05
0.0131635
-1.73581e-05
0.0113271
-1.11067e-05
0.00909857
-7.8178e-06
0.0066167
-3.50987e-06
0.0040008
-9.37256e-07
0.00133674
-7.37473e-05
7.04672e-05
6.67917e-05
0.00014385
-3.6629e-05
0.000101568
0.000263151
-2.21516e-06
0.000261339
-6.43925e-07
0.00108061
-1.16322e-06
2.49347e-07
0.00180638
-3.29888e-06
-7.41921e-06
0.00580145
1.38148e-06
0.00180697
-7.85903e-07
0.00107553
5.79863e-07
-6.10594e-07
-0.000258661
0.000258618
-7.76931e-08
-3.6054e-07
-8.34152e-05
7.72836e-05
-5.73325e-05
3.6629e-05
-1.98099e-05
0.00851497
-2.96537e-05
0.0109361
-3.46449e-05
0.012922
-3.79789e-05
0.0143451
-3.59251e-05
0.015101
-3.24428e-05
0.0151435
-3.01585e-05
0.0144768
-2.52217e-05
0.0131714
-1.92911e-05
0.0113353
-1.51725e-05
0.00910592
-9.04843e-06
0.00662223
-4.20503e-06
0.00400406
-9.53476e-07
0.00133769
7.50685e-05
7.44247e-05
0.000257621
-1.66006e-07
0.000257838
3.261e-08
0.0010723
-3.22621e-07
2.54228e-07
0.00180076
-1.21611e-06
-4.545e-06
0.00578407
2.11754e-06
0.00180254
-3.96537e-07
0.00107138
4.38034e-07
-3.0383e-07
-0.000257169
0.00025768
6.91685e-08
5.86357e-08
-7.40641e-05
7.39866e-05
-1.16281e-05
0.00849695
-2.049e-05
0.0109219
-2.49539e-05
0.012909
-2.74922e-05
0.0143367
-3.0715e-05
0.0150993
-3.12705e-05
0.0151446
-3.16068e-05
0.0144831
-2.83914e-05
0.0131805
-2.49978e-05
0.0113451
-1.80663e-05
0.00911494
-1.07412e-05
0.00662877
-4.99949e-06
0.00400811
-1.29165e-06
0.00133898
7.38206e-05
7.38533e-05
0.00025744
-8.25826e-08
0.000257633
6.18306e-08
0.00107016
-1.78604e-07
1.85665e-07
0.00179845
-4.49514e-07
-2.66532e-06
0.00577358
1.52536e-06
0.00180036
2.11057e-07
0.0010696
3.04748e-07
-1.43704e-07
-0.000257247
0.000257641
4.36322e-08
8.19325e-08
-7.39119e-05
7.39811e-05
-7.43018e-06
0.00848389
-1.21777e-05
0.0109091
-1.91485e-05
0.0129007
-2.34975e-05
0.0143294
-2.80377e-05
0.015096
-3.4813e-05
0.0151478
-3.61592e-05
0.0144909
-3.5801e-05
0.0131913
-2.99694e-05
0.011357
-2.3094e-05
0.00912729
-1.40046e-05
0.00663777
-6.52976e-06
0.00401334
-1.38363e-06
0.00134036
7.38985e-05
7.39604e-05
0.000257528
-6.49241e-08
0.000257674
3.97859e-08
0.00106921
-1.39515e-07
8.67033e-08
0.001798
-3.07743e-07
-1.32647e-06
0.00576609
1.39092e-06
0.00179903
4.93037e-07
0.0010692
2.97402e-07
-7.57121e-08
-0.000257462
0.000257745
2.23685e-08
6.8023e-08
-7.40423e-05
7.4086e-05
-3.94142e-06
0.00847565
-8.37516e-06
0.0108984
-1.53483e-05
0.0128925
-2.24868e-05
0.0143239
-3.13421e-05
0.0150926
-3.84815e-05
0.0151501
-4.4485e-05
0.0144996
-4.38083e-05
0.0132051
-3.73879e-05
0.0113713
-2.47514e-05
0.00913803
-1.43253e-05
0.00664556
-6.10554e-06
0.00401806
-1.20457e-06
0.00134156
7.40211e-05
7.40609e-05
0.00025768
-7.49053e-08
0.000257742
2.49314e-08
0.00106888
-7.23927e-08
7.82157e-08
0.00179782
-1.16257e-07
-8.55314e-07
0.00576111
1.89189e-06
0.00179872
4.89518e-07
0.00106924
2.14672e-07
-8.28618e-08
-0.000257592
0.000257869
2.06842e-08
7.40651e-08
-7.4129e-05
7.41513e-05
-2.32705e-06
0.0084696
-6.20441e-06
0.0108892
-1.3005e-05
0.012883
-2.63637e-05
0.0143189
-4.08636e-05
0.0150949
-5.28975e-05
0.0151585
-5.65098e-05
0.0145123
-5.2446e-05
0.0132202
-4.22318e-05
0.0113888
-2.98007e-05
0.00915351
-1.65018e-05
0.00665595
-6.08057e-06
0.00402293
-1.29876e-06
0.00134285
7.40764e-05
7.41014e-05
0.000257871
-7.48101e-08
0.000257926
2.2946e-08
0.00106912
-6.19984e-10
5.22408e-09
0.00179777
1.00748e-07
-4.56301e-07
0.00575744
1.80138e-06
0.00179908
5.75582e-07
0.00106941
2.17141e-07
-1.38414e-08
-0.000257771
0.00025797
1.54565e-08
7.25273e-08
-7.41754e-05
7.41961e-05
-4.79625e-08
0.00846345
-4.99316e-06
0.0108812
-1.60134e-05
0.0128727
-2.98375e-05
0.0143079
-4.89089e-05
0.015091
-6.49562e-05
0.015167
-7.28977e-05
0.0145327
-6.52747e-05
0.0132432
-4.96349e-05
0.0114086
-3.21456e-05
0.00916915
-1.61779e-05
0.00666605
-6.87878e-06
0.0040285
-1.91434e-06
0.00134476
7.41213e-05
7.41443e-05
0.000258043
-7.3291e-08
0.00025803
1.84435e-08
0.00106949
7.20603e-09
1.54442e-08
0.00179845
1.7349e-07
1.72294e-07
0.00575546
1.75697e-06
0.00179963
6.27635e-07
0.00106983
2.2513e-07
4.02097e-09
-0.000257914
0.000258111
1.96805e-08
1.01867e-07
-7.42168e-05
7.42322e-05
-4.60385e-07
0.00845891
-6.43477e-06
0.0108716
-2.03916e-05
0.0128632
-4.54868e-05
0.0143045
-7.01555e-05
0.0150962
-8.66608e-05
0.0151808
-8.75545e-05
0.014555
-7.51426e-05
0.0132687
-5.45783e-05
0.011431
-3.35937e-05
0.00918656
-1.67663e-05
0.00667593
-5.31948e-06
0.0040319
-2.30006e-07
0.00134498
7.41589e-05
7.41774e-05
0.000258194
-7.53091e-08
0.000258182
2.70009e-08
0.00106998
2.10174e-08
1.01274e-08
0.00179938
4.12347e-07
5.70585e-07
0.00575296
1.46777e-06
0.00180043
7.08096e-07
0.00107035
2.28177e-07
1.94526e-08
-0.000258114
0.000258318
2.11805e-08
7.23758e-08
-7.42792e-05
7.42989e-05
7.31457e-07
0.00845175
-1.06459e-05
0.0108619
-3.26649e-05
0.0128504
-6.34402e-05
0.0142977
-9.27773e-05
0.0151023
-0.000108911
0.0152021
-0.000103557
0.0145834
-8.43459e-05
0.0132985
-5.84129e-05
0.0114559
-3.14649e-05
0.00920125
-1.57328e-05
0.00668634
-4.52869e-06
0.0040362
-2.29667e-07
0.00134521
7.42236e-05
7.42506e-05
0.000258417
-7.82331e-08
0.000258309
1.18157e-07
0.00107071
3.24445e-08
2.47159e-08
0.0018005
5.04511e-07
1.1884e-06
0.00575209
4.06443e-07
0.00180135
6.17842e-07
0.00107115
2.36835e-07
3.21874e-08
-0.000258331
0.00025855
9.85005e-09
-3.08878e-09
-7.43229e-05
7.4344e-05
-1.91687e-06
0.00844302
-1.71144e-05
0.0108463
-4.8029e-05
0.012835
-9.05597e-05
0.0142955
-0.000123748
0.0151171
-0.000134496
0.015233
-0.000117933
0.014617
-8.87877e-05
0.0133289
-5.62105e-05
0.0114806
-3.11085e-05
0.00921663
-1.23501e-05
0.00669416
-4.27919e-06
0.00404024
-5.50121e-08
0.00134527
7.42658e-05
7.43839e-05
0.000258618
-3.62911e-08
0.00025852
1.22574e-07
0.00107157
4.94565e-08
3.51259e-08
0.00180195
5.86639e-07
2.14055e-06
0.00574784
1.98384e-07
0.00180168
6.71824e-07
0.0010719
2.41998e-07
4.12942e-08
-0.000258552
0.000258777
1.20237e-08
3.00003e-10
-7.43808e-05
7.43906e-05
-5.05657e-06
0.00843096
-2.89369e-05
0.0108272
-7.67576e-05
0.0128212
-0.000126753
0.0142985
-0.000159087
0.0151417
-0.00015589
0.015271
-0.000127935
0.0146562
-8.93483e-05
0.013362
-5.29558e-05
0.0115024
-2.72007e-05
0.00923147
-1.14294e-05
0.00670131
-1.40959e-06
0.0040416
9.59024e-08
0.00134518
7.43543e-05
7.44768e-05
0.000258892
-6.6446e-08
0.000258803
1.24549e-07
0.00107238
5.57964e-08
4.7952e-08
0.00180312
7.0359e-07
2.55161e-06
0.0057409
-6.75369e-07
0.00180294
3.80985e-07
0.00107277
2.4203e-07
4.10953e-08
-0.000258841
0.00025907
1.27777e-08
2.91926e-09
-7.44771e-05
7.4489e-05
-1.16461e-05
0.00841366
-5.17987e-05
0.0108023
-0.000115346
0.0128098
-0.000172746
0.0143122
-0.000193015
0.0151788
-0.000167516
0.0153106
-0.000127134
0.0146939
-8.1234e-05
0.0133903
-4.68773e-05
0.0115221
-2.27068e-05
0.00924275
-6.83469e-06
0.00670674
-1.44167e-06
0.00404315
3.97796e-07
0.00134479
7.44225e-05
7.4547e-05
0.000259156
-3.07397e-08
0.000259111
9.32907e-08
0.00107337
5.86212e-08
4.6518e-08
0.00180446
1.02469e-06
2.1513e-06
0.00572914
-2.03053e-06
0.00180359
1.95332e-07
0.00107342
2.58934e-07
6.91781e-08
-0.000259116
0.000259347
1.10649e-08
3.59296e-08
-7.45499e-05
7.45626e-05
-2.35963e-05
0.00838546
-8.67296e-05
0.0107737
-0.000169796
0.0128068
-0.000220746
0.0143399
-0.000210529
0.0152218
-0.000171118
0.0153546
-0.000117309
0.01473
-7.33976e-05
0.0134168
-3.90159e-05
0.0115384
-1.57064e-05
0.00925162
-3.33274e-06
0.00670864
1.69505e-06
0.00404185
1.85171e-06
0.00134291
7.45318e-05
7.46251e-05
0.000259473
-6.871e-08
0.000259414
1.05766e-07
0.0010743
8.19223e-08
6.7043e-08
0.00180461
1.13121e-06
2.91618e-06
0.005707
-4.38094e-06
0.00180259
-4.98452e-09
0.00107422
1.924e-07
7.76691e-08
-0.000259458
0.000259695
2.25054e-08
2.47485e-08
-7.4661e-05
7.46719e-05
-4.74056e-05
0.00834613
-0.000145431
0.0107493
-0.000236178
0.0128223
-0.000252247
0.0143816
-0.000215127
0.0152658
-0.000156105
0.0153933
-0.000102694
0.0147593
-5.95312e-05
0.0134373
-2.99553e-05
0.0115527
-9.69298e-06
0.00925798
-6.03164e-07
0.00671091
2.26837e-06
0.00404141
2.11263e-06
0.0013408
7.46031e-05
7.47089e-05
0.000259838
-6.15776e-08
0.000259793
1.11759e-07
0.00107517
1.6028e-07
1.92321e-08
0.00180492
5.83506e-07
1.17275e-06
0.00566882
-1.03934e-05
0.00180082
-2.8789e-07
0.00107488
1.37595e-07
1.5382e-07
-0.000259842
0.000260015
1.89905e-08
2.80476e-08
-7.47336e-05
7.4756e-05
-9.51943e-05
0.00829589
-0.000224913
0.010738
-0.000285759
0.0128558
-0.000259058
0.0144256
-0.00019497
0.0153047
-0.000132756
0.0154234
-8.18221e-05
0.0147816
-4.576e-05
0.0134531
-1.90284e-05
0.011562
-4.53394e-06
0.00926189
2.72303e-06
0.00671045
5.52625e-06
0.004038
2.45488e-06
0.00133833
7.46943e-05
7.4806e-05
0.000260204
-2.89241e-08
0.000260138
8.54223e-08
0.00107525
2.45789e-07
-4.06036e-08
0.00180215
-1.54599e-07
-3.74229e-06
0.00560337
-2.60089e-05
0.00179393
-2.17191e-06
0.0010747
8.93606e-08
1.7444e-07
-0.00026023
0.00026034
2.65673e-08
6.18746e-08
-7.48341e-05
7.48528e-05
-0.000181331
0.00825231
-0.000310573
0.0107628
-0.000297637
0.0128944
-0.00022879
0.0144594
-0.000161254
0.0153332
-0.000105218
0.0154468
-6.25236e-05
0.0147983
-3.00279e-05
0.0134641
-1.04358e-05
0.0115679
1.25525e-06
0.00926333
4.68968e-06
0.00671126
7.25985e-06
0.00403318
2.79556e-06
0.00133555
7.48238e-05
7.49092e-05
0.000260641
-5.51574e-08
0.000260481
1.18941e-07
0.00107437
2.63122e-07
-8.32627e-08
0.00179278
-2.59317e-06
-2.41964e-05
0.00551459
-6.83551e-05
0.00177472
-7.94765e-06
0.00107224
-2.17326e-07
1.74958e-07
-0.000260623
0.00026072
-7.93161e-09
3.28119e-08
-7.4971e-05
7.49975e-05
-0.000309835
0.00825157
-0.000329043
0.0107942
-0.000252391
0.012918
-0.000181018
0.0144791
-0.000122151
0.0153501
-7.72728e-05
0.0154615
-4.12484e-05
0.0148095
-1.7576e-05
0.0134712
-2.22955e-06
0.0115713
6.41415e-06
0.00926161
1.11065e-05
0.00670743
7.36897e-06
0.00402862
3.23451e-06
0.00133232
7.49422e-05
7.50611e-05
0.000260993
-1.0544e-08
0.000260814
9.49095e-08
0.00106953
5.13467e-07
-3.98663e-07
0.00176371
-1.31968e-05
-9.24877e-05
0.00546759
-0.000170354
0.00172523
-2.98735e-05
0.00106205
-7.03313e-07
2.34517e-07
-0.00026092
0.000260715
-1.21876e-08
6.89134e-08
-7.50939e-05
7.50858e-05
-0.000348869
0.00827139
-0.000257945
0.0107998
-0.000185271
0.0129222
-0.000130965
0.0144879
-8.55923e-05
0.0153584
-4.96078e-05
0.0154698
-2.42544e-05
0.0148162
-4.31729e-06
0.0134732
7.46278e-06
0.0115703
1.27611e-05
0.00925994
1.16809e-05
0.0067031
8.69647e-06
0.00402316
3.73576e-06
0.0013286
7.50751e-05
7.517e-05
0.000261258
-2.94945e-08
0.000260764
9.50365e-08
0.00104997
2.11001e-07
-1.33293e-06
0.00169086
-5.8117e-05
-0.000191111
0.00546647
-0.000156648
0.00164386
-0.000123358
0.00102372
-3.44776e-06
-1.71285e-07
-0.000260955
0.000260306
-5.41283e-08
4.25036e-08
-7.52389e-05
7.52265e-05
-0.000228731
0.00824216
-0.00016429
0.0107788
-0.000120699
0.0129119
-8.30002e-05
0.0144853
-5.36848e-05
0.0153624
-2.92673e-05
0.0154748
-7.92523e-06
0.0148198
3.89587e-06
0.0134768
1.38708e-05
0.0115692
1.56395e-05
0.009256
1.85805e-05
0.00669325
1.00571e-05
0.00401685
4.42422e-06
0.00132418
7.51969e-05
7.52919e-05
0.000260599
-8.3132e-08
0.000259275
-8.69549e-09
0.000977924
-2.06946e-06
-1.02564e-05
0.00161799
-0.000165243
-0.000104147
0.00538289
-4.10041e-05
0.0015861
-0.000124754
0.000905011
-3.64276e-05
-1.40179e-05
-0.000259154
0.0002562
-4.93526e-07
-5.10686e-08
-7.53344e-05
7.528e-05
-0.000113103
0.00819095
-9.39535e-05
0.010752
-7.30669e-05
0.0129019
-5.08407e-05
0.0144824
-3.03833e-05
0.0153635
-9.76121e-06
0.0154766
3.71264e-06
0.0148199
1.38637e-05
0.0134768
1.97038e-05
0.0115651
2.09059e-05
0.00925367
1.62229e-05
0.00668707
1.42726e-05
0.004007
6.08743e-06
0.0013181
7.51967e-05
7.51879e-05
0.000254712
-5.82218e-07
0.000246148
-1.69243e-06
0.000860957
-5.86063e-05
-6.25868e-05
0.0015356
-5.36416e-05
-3.03815e-05
0.00530445
-4.30403e-06
0.00151406
-1.94624e-05
0.000798897
-1.83789e-05
-4.4315e-05
-0.000235881
0.000209266
-9.8125e-06
-3.75072e-06
-7.51369e-05
7.46431e-05
-5.01083e-05
0.00814707
-4.79611e-05
0.0107269
-3.8335e-05
0.0128894
-2.44666e-05
0.0144765
-7.45471e-06
0.0153612
5.60097e-06
0.0154748
1.50175e-05
0.0148188
2.42682e-05
0.0134722
2.59973e-05
0.01156
2.67059e-05
0.0092432
2.37772e-05
0.00667759
1.43393e-05
0.00399877
5.53686e-06
0.00131257
7.40608e-05
7.23684e-05
0.000172431
-2.1772e-05
0.000146876
-3.7033e-05
0.000752742
-6.27224e-06
-1.21032e-06
0.00149173
-8.05785e-06
-1.00626e-05
0.00526175
2.63789e-06
0.00148968
-2.25408e-06
0.00073402
1.18469e-07
-8.56865e-07
-0.000102561
8.41821e-05
-6.86177e-05
5.88051e-05
-2.16096e-05
0.00812071
-2.29497e-05
0.0107115
-1.51487e-05
0.0128801
-4.6524e-06
0.0144737
4.81228e-06
0.015362
1.499e-05
0.0154748
2.3296e-05
0.0148198
2.93971e-05
0.0134689
3.06293e-05
0.0115561
3.0532e-05
0.00923645
2.58864e-05
0.00666603
1.7971e-05
0.00398633
6.33594e-06
0.00130624
3.7033e-05
7.79103e-05
7.67003e-05
0.000725986
-1.83875e-07
1.6211e-07
0.00148067
-1.05543e-06
-4.14291e-06
0.00524029
3.97312e-06
0.00148289
4.11498e-07
0.000723638
1.65063e-07
-7.28879e-08
-7.58434e-05
7.59628e-05
-6.2018e-06
0.00810394
-4.94228e-06
0.0107013
-3.00059e-07
0.0128757
8.89266e-06
0.0144696
1.84158e-05
0.0153585
2.67939e-05
0.0154713
3.35857e-05
0.0148156
3.59378e-05
0.0134635
3.77918e-05
0.0115488
3.83025e-05
0.00922405
2.95152e-05
0.00665451
2.03142e-05
0.00397236
8.24031e-06
0.00129799
7.57792e-05
7.59413e-05
0.000722447
-1.03192e-08
1.42027e-07
0.00147858
1.62749e-07
-2.01547e-06
0.00523242
3.68772e-06
0.00148181
7.28168e-07
0.000722757
1.16147e-07
-1.95761e-08
-7.58685e-05
7.60337e-05
1.30997e-06
0.0080977
4.81709e-06
0.0106961
1.15646e-05
0.012873
1.9927e-05
0.0144681
2.89976e-05
0.0153563
3.50457e-05
0.0154698
4.11409e-05
0.0148104
4.32779e-05
0.0134581
4.55734e-05
0.0115416
4.02743e-05
0.00921329
3.47561e-05
0.00664006
2.04258e-05
0.00396017
7.84873e-06
0.00129014
7.60229e-05
7.61641e-05
0.000722827
-2.15029e-08
1.07929e-07
0.0014794
3.96274e-07
-4.70112e-07
0.00523073
3.46818e-06
0.00148227
8.15373e-07
0.000723475
8.48718e-08
-8.87336e-09
-7.61446e-05
7.62599e-05
6.10361e-06
0.00809641
1.10764e-05
0.0106966
1.87988e-05
0.0128742
2.65142e-05
0.0144705
3.48715e-05
0.0153565
4.33186e-05
0.0154676
4.68781e-05
0.0148068
5.20981e-05
0.0134515
5.19688e-05
0.0115299
4.6063e-05
0.009202
3.82787e-05
0.00662222
2.32998e-05
0.00394473
8.82598e-06
0.00128131
7.62373e-05
7.6344e-05
0.000723764
3.90184e-09
1.00286e-07
0.00148121
5.94922e-07
3.92005e-07
0.00523271
3.75171e-06
0.00148382
8.54487e-07
0.000724524
7.3488e-08
-1.7386e-08
-7.63352e-05
7.64195e-05
8.17314e-06
0.00809933
1.55798e-05
0.0106998
2.50933e-05
0.0128756
3.45094e-05
0.0144709
4.26834e-05
0.0153571
5.03436e-05
0.0154642
5.61892e-05
0.0148027
5.80597e-05
0.0134455
5.37504e-05
0.0115222
5.136e-05
0.00918891
4.01148e-05
0.0066054
2.8924e-05
0.00392462
9.39179e-06
0.00127191
7.64229e-05
7.65224e-05
0.000725019
3.51569e-08
6.68094e-08
0.00148355
6.70655e-07
4.94141e-07
0.00523679
3.58988e-06
0.00148646
8.4839e-07
0.000725737
5.2965e-08
8.5758e-08
-7.6505e-05
7.65789e-05
1.09702e-05
0.00810393
2.01187e-05
0.0107048
2.96568e-05
0.0128804
4.0818e-05
0.0144728
5.11805e-05
0.0153563
5.76417e-05
0.0154627
6.25934e-05
0.0147982
6.58584e-05
0.0134334
6.76772e-05
0.0115059
5.90906e-05
0.00916995
5.05577e-05
0.00658378
2.99045e-05
0.00390411
1.02647e-05
0.00126165
7.66141e-05
7.66807e-05
0.000726301
3.67598e-08
7.14931e-08
0.0014863
6.62269e-07
1.34265e-06
0.00524335
3.083e-06
0.00148903
8.5314e-07
0.000727107
3.97261e-08
6.70671e-09
-7.67665e-05
7.68205e-05
1.21004e-05
0.00811196
2.21397e-05
0.0107123
3.36345e-05
0.0128876
4.66511e-05
0.0144773
5.61825e-05
0.0153578
6.60073e-05
0.0154593
7.34126e-05
0.0147906
7.5346e-05
0.0134257
7.70676e-05
0.0114879
6.88428e-05
0.00915166
5.26035e-05
0.00656107
3.41559e-05
0.00388021
1.42038e-05
0.00124746
7.68575e-05
7.69288e-05
0.000727702
1.16908e-08
5.86219e-08
0.00148956
8.17011e-07
1.55855e-06
0.0052508
3.09235e-06
0.00149177
8.80057e-07
0.00072848
4.26143e-08
3.53993e-08
-7.69355e-05
7.69763e-05
1.3165e-05
0.00812093
2.54697e-05
0.0107205
3.88725e-05
0.0128954
5.16275e-05
0.0144818
6.40315e-05
0.0153597
7.47933e-05
0.0154579
8.02156e-05
0.0147857
8.35762e-05
0.0134192
8.05278e-05
0.0114763
7.6956e-05
0.00912732
6.01086e-05
0.00653513
3.84524e-05
0.00385598
2.90125e-05
0.00121846
7.69883e-05
7.70469e-05
0.00072919
3.62862e-08
7.23362e-08
0.00149249
8.40411e-07
1.6525e-06
0.00525955
2.77037e-06
0.00149446
1.11945e-06
0.000730018
4.53447e-08
1.03217e-08
-7.70823e-05
7.71262e-05
1.39419e-05
0.00813246
2.88546e-05
0.0107305
4.59808e-05
0.012901
5.96604e-05
0.0144862
7.41392e-05
0.0153604
8.22613e-05
0.0154559
9.09922e-05
0.0147783
9.39399e-05
0.0134058
9.23631e-05
0.0114609
8.34917e-05
0.00910394
6.76669e-05
0.00650592
6.00969e-05
0.00382491
5.60558e-05
7.71627e-05
7.72349e-05
0.000730751
3.66448e-08
7.26841e-08
0.00149521
9.05743e-07
1.44465e-06
0.00527008
1.96253e-06
0.00149729
7.02919e-07
0.000731742
1.21267e-07
9.91265e-09
-7.72453e-05
7.72917e-05
1.51595e-05
0.00814615
3.15774e-05
0.0107449
4.92826e-05
0.0129114
6.69187e-05
0.0144934
8.11027e-05
0.0153615
9.36057e-05
0.0154533
0.000100572
0.0147717
0.000103041
0.0133951
0.000100725
0.0114436
8.98746e-05
0.00908174
8.87396e-05
0.00647729
0.000101889
7.73286e-05
7.74012e-05
0.000732533
7.21233e-08
4.41085e-08
0.00149832
4.13725e-07
9.49051e-07
0.00528291
1.38323e-06
0.00150039
-1.11357e-07
0.000733163
4.59871e-08
2.90339e-08
-7.74111e-05
7.75335e-05
1.91504e-05
0.00815859
3.72075e-05
0.010757
5.51109e-05
0.0129232
7.29184e-05
0.0145016
8.8736e-05
0.0153664
0.000102578
0.0154512
0.000110375
0.0147644
0.000116722
0.0133791
0.000114316
0.0114192
0.000113636
0.00905685
0.0001315
7.76057e-05
7.76496e-05
0.000733505
1.45896e-08
5.94917e-08
0.00150266
-1.32372e-06
1.65286e-06
0.00529501
5.39398e-06
0.00150606
-2.00791e-06
0.000733435
1.05681e-08
-5.02929e-08
-7.76787e-05
7.77254e-05
2.27773e-05
0.00817301
4.02289e-05
0.0107719
6.17597e-05
0.0129344
8.18395e-05
0.0145085
0.000100165
0.0153688
0.00011105
0.0154506
0.000121446
0.0147596
0.000126075
0.0133674
0.000132443
0.0114004
0.000151927
7.77402e-05
7.77997e-05
0.000732066
1.81109e-08
2.88257e-08
0.0015043
5.12657e-06
-1.71571e-06
5.5524e-06
0.00530665
5.58809e-06
0.00150882
-3.84436e-07
1.26007e-06
0.000432781
-1.97372e-07
0.000297472
2.68212e-09
-7.77494e-05
7.77608e-05
2.4416e-05
0.00818884
4.56294e-05
0.010788
6.70553e-05
0.0129492
9.03276e-05
0.0145184
0.000106995
0.0153729
0.000122026
0.01545
0.000129485
0.0147562
0.000141759
0.0133581
0.000159712
7.77791e-05
7.78079e-05
0.000453501
-1.55922e-05
0.00045853
-6.74571e-06
0.00151125
1.25955e-06
1.85764e-06
4.94817e-06
0.00532121
4.91854e-06
0.00151398
1.28809e-06
1.57784e-06
0.000461176
-3.03034e-06
0.000463334
-8.98251e-07
-7.78106e-05
7.76135e-05
0.000279053
2.82667e-06
2.64225e-05
0.00820805
5.00925e-05
0.010805
7.55134e-05
0.012964
9.86034e-05
0.0145267
0.000116662
0.0153782
0.000131408
0.0154481
0.000146097
0.0147519
0.000164331
0.000273176
-8.68471e-07
0.000464281
3.13199e-07
0.000465602
5.35896e-07
0.00151649
1.07999e-06
1.35867e-06
5.24252e-06
0.00533739
5.00894e-06
0.00151939
8.45027e-07
1.1712e-06
0.000466225
6.64393e-07
0.000466958
8.45338e-07
0.000271177
-1.031e-06
0.000270782
-5.03749e-07
8.04402e-05
2.99899e-05
0.00822817
5.51749e-05
0.0108253
8.32692e-05
0.0129793
0.000105599
0.0145378
0.000124409
0.0153853
0.000141038
0.0154531
0.000158966
7.95718e-05
0.000271093
1.95935e-09
0.000271522
1.06397e-07
0.000467415
6.23646e-07
0.000468325
4.48045e-07
0.00152268
8.60188e-07
1.09133e-06
5.66534e-06
0.00535625
5.47591e-06
0.00152562
1.14701e-06
9.28337e-07
0.000468721
4.50262e-07
0.000469279
6.12655e-07
0.000272022
1.645e-07
0.000272712
1.54893e-07
7.85407e-05
7.8037e-05
3.30812e-05
0.00825027
6.21883e-05
0.0108464
9.03606e-05
0.0129946
0.000111843
0.0145504
0.000131977
0.0153943
0.000144592
7.80388e-05
7.81452e-05
0.000273146
1.9002e-07
0.000273454
1.40543e-07
0.000469687
4.54325e-07
0.000470279
4.98652e-07
0.00152925
1.13706e-06
9.07273e-07
6.42068e-06
0.00537698
5.94169e-06
0.0015326
1.22111e-06
9.09023e-07
0.000471005
4.21542e-07
0.000471509
4.24764e-07
0.000273799
1.05794e-07
0.0002743
1.11491e-07
7.83095e-05
7.84645e-05
3.7995e-05
0.00827448
6.96492e-05
0.0108672
9.67377e-05
0.0130097
0.00011764
0.0145647
0.000123668
7.86545e-05
7.87952e-05
0.000274652
1.02502e-07
0.000275016
1.35189e-07
0.000472025
6.23238e-07
0.000472507
4.24525e-07
0.00153667
1.33659e-06
1.01164e-06
7.25914e-06
0.00540088
6.84094e-06
0.00154027
1.33451e-06
1.01139e-06
0.000473346
3.83684e-07
0.000473796
4.59543e-07
0.000275372
6.64869e-08
0.000275691
1.06264e-07
7.8901e-05
7.90127e-05
4.41496e-05
0.00829999
7.75592e-05
0.0108863
9.89468e-05
0.0130284
9.99758e-05
7.91153e-05
7.92507e-05
0.00027618
1.34799e-07
0.000276502
1.02734e-07
0.000474463
6.70091e-07
0.000475013
4.62044e-07
0.00154463
1.48976e-06
1.41085e-06
8.79723e-06
0.00542837
7.88161e-06
0.00154878
1.26376e-06
1.42705e-06
0.00047592
4.2782e-07
0.000476256
6.75712e-07
0.000276778
1.07793e-07
0.000277122
1.15743e-07
7.93172e-05
7.94238e-05
5.37821e-05
0.00832378
8.0158e-05
0.0109051
7.47332e-05
7.95587e-05
7.96616e-05
0.000277686
1.07022e-07
0.00027793
2.18166e-07
0.000477174
5.72906e-07
0.000478055
5.29084e-07
0.0015545
1.45997e-06
1.61779e-06
1.14924e-05
0.00545939
1.12756e-05
0.00155914
1.5904e-06
1.66242e-06
0.000478766
5.53388e-07
0.000479442
7.5141e-07
0.000278263
9.48876e-08
0.00027881
1.2808e-07
7.97694e-05
7.98854e-05
6.00048e-05
0.00834393
5.21667e-05
7.99924e-05
8.02107e-05
0.000279227
1.56692e-07
0.000279627
1.29067e-07
0.00048025
6.53096e-07
0.000481242
6.26101e-07
0.00156655
1.92912e-06
2.14934e-06
1.61122e-05
0.00548579
1.75011e-05
0.00157284
2.39403e-06
2.59416e-06
0.000482238
5.94108e-07
0.000482976
9.24531e-07
0.000280049
1.31636e-07
0.000280703
9.69471e-08
8.03055e-05
8.04336e-05
3.6789e-05
8.05902e-05
8.07193e-05
0.000281189
1.67574e-07
0.000281665
1.49797e-07
0.0004841
8.06957e-07
0.000485419
8.29811e-07
0.0015822
3.07687e-06
3.67845e-06
3.37923e-05
1.53333e-05
0.00159005
4.23838e-06
5.41916e-06
0.000486754
1.0592e-06
0.000487918
1.43058e-06
0.000282104
1.55097e-07
0.000282863
1.64701e-07
8.08508e-05
8.09479e-05
8.11153e-05
8.12651e-05
0.000283465
2.05776e-07
0.000284099
1.9497e-07
0.000489456
1.5401e-06
0.000491385
1.74929e-06
0.00160355
8.74492e-06
1.15435e-05
1.7147e-05
8.96552e-06
0.000493622
2.00142e-06
0.000495971
3.06983e-06
0.000284919
2.39505e-07
0.000286031
3.1855e-07
8.142e-05
8.15847e-05
8.17903e-05
8.19852e-05
0.000287191
3.79671e-07
0.000288523
4.17597e-07
0.000499449
5.26694e-06
0.000503031
7.96131e-06
0.000507779
1.23997e-05
1.21716e-05
0.000289996
5.27628e-07
0.000292273
7.92488e-07
8.22245e-05
8.2543e-05
8.29225e-05
8.334e-05
0.000295964
1.57569e-06
0.000300377
3.54789e-06
0.000305014
7.76362e-06
1.59058e-05
8.38674e-05
8.46598e-05
8.62353e-05
8.97833e-05
9.7547e-05
-8.38437e-06
8.38931e-06
4.84988e-06
-1.32439e-05
-3.66727e-05
1.15614e-05
3.35207e-05
1.03677e-05
-4.21559e-05
2.23224e-06
-1.54687e-05
2.25466e-05
0.000161684
-0.000162249
9.28393e-06
2.42221e-05
6.47602e-06
-4.63993e-05
8.27203e-07
-1.62887e-05
-1.2468e-05
0.000445443
7.56176e-06
-0.000417959
-4.05777e-06
1.94419e-05
0.000155642
-2.00111e-06
-0.000166215
2.01762e-05
-4.75628e-05
2.21682e-07
-1.64951e-05
-1.00264e-05
0.000447711
2.74924e-05
-0.000151492
-3.06694e-05
0.000191023
-7.04607e-06
-4.046e-06
-0.000407301
8.75529e-07
-1.47323e-06
0.000147538
-4.59302e-07
-1.52543e-06
-0.000171847
1.23525e-07
1.87007e-05
-4.88661e-05
-1.80324e-08
-1.64827e-05
-6.67648e-06
0.00041532
4.41068e-05
-5.6419e-06
-0.000125567
1.13466e-06
-0.00143973
-9.07752e-05
0.00149959
-4.51345e-05
0.000232071
-1.32732e-05
-0.000398263
3.92083e-06
3.38717e-07
-0.000171232
5.4242e-07
-2.75354e-07
0.000141405
-2.49231e-07
-3.02103e-07
1.82331e-05
-4.87646e-05
1.00767e-07
-1.65926e-05
0.000368555
5.89738e-05
-5.51424e-06
-6.43041e-06
-0.000117839
3.71672e-05
0.000136119
-1.74631e-07
-2.83696e-07