/*--------------------------------*- C++ -*----------------------------------*\
| =========                 |                                                 |
| \\      /  F ield         | OpenFOAM: The Open Source CFD Toolbox           |
|  \\    /   O peration     | Version:  v1912                                 |
|   \\  /    A nd           | Website:  www.openfoam.com                      |
|    \\/     M anipulation  |                                                 |
\*---------------------------------------------------------------------------*/
FoamFile
{
    version     2.0;
    format      ascii;
    class       volScalarField;
    location    "70";
    object      p;
}
// * * * * * * * * * * * * * * * * * * * * * * * * * * * * * * * * * * * * * //

dimensions      [0 2 -2 0 0 0 0];


internalField   nonuniform List<scalar> 
3754
(
0.183522
0.180182
0.217024
0.173824
0.209847
0.323065
0.165054
0.196639
0.300487
0.500615
0.485488
0.154675
0.180294
0.258486
0.452173
0.396261
0.61151
0.619988
0.560258
0.589148
0.143407
0.163001
0.210934
0.329852
0.262811
0.460326
0.513823
0.405249
0.448979
0.13183
0.145946
0.16838
0.183175
0.323746
0.372414
0.16488
0.148564
0.321464
0.120355
0.129624
0.133469
0.120883
-0.381356
-0.323848
0.0785359
0.0664356
-0.261713
-0.281099
0.1093
0.114307
0.105048
0.0786977
-0.397795
-0.583294
-0.526206
-0.544005
-0.227064
-0.513304
0.0988857
0.100218
0.0816102
0.0475928
-0.32908
-0.480274
-0.50072
-0.608832
-0.591178
-0.498783
-0.613203
0.0893067
0.0875036
0.0620306
0.0202884
-0.278923
-0.438834
-0.409792
-0.486802
-0.525485
-0.487682
-0.502364
-0.616579
0.080689
0.0762684
0.0455705
-0.00304565
-0.244965
-0.400264
-0.396552
-0.377749
-0.410821
-0.434575
-0.526981
-0.43844
-0.482508
-0.496341
-0.507441
0.0731549
0.0665519
0.031728
-0.0221671
-0.221283
-0.368589
-0.382794
-0.374185
-0.368222
-0.375688
-0.389122
-0.414124
-0.4498
-0.433522
-0.4866
-0.498549
0.0667763
0.0583962
0.020107
-0.0376741
-0.205406
-0.343072
-0.369939
-0.36877
-0.366775
-0.356557
-0.366038
-0.372309
-0.376081
-0.390918
-0.409418
-0.421235
-0.449259
-0.435032
0.0616406
0.0518151
0.0104049
-0.0501743
-0.195618
-0.323809
-0.359334
-0.363404
-0.364528
-0.356273
-0.345292
-0.352438
-0.360368
-0.366837
-0.373559
-0.372054
-0.382112
-0.396193
-0.387747
-0.410349
-0.420994
0.0577948
0.0468387
0.0023993
-0.0601195
-0.19044
-0.310307
-0.351575
-0.359388
-0.362442
-0.355749
-0.344467
-0.346264
-0.332585
-0.358718
-0.361041
-0.365827
-0.36885
-0.376303
-0.371922
-0.370335
-0.384417
-0.395645
-0.388502
0.0553143
0.0434713
-0.00405558
-0.067917
-0.188858
-0.30187
-0.346615
-0.356985
-0.361056
-0.355669
-0.344322
-0.332114
-0.333727
-0.343879
-0.350578
-0.320418
-0.354287
-0.35864
-0.362656
-0.360147
-0.366213
-0.369084
-0.378804
-0.372079
-0.369245
0.0542386
0.0417471
-0.00906855
-0.0738567
-0.190261
-0.298018
-0.344312
-0.35618
-0.360529
-0.356063
-0.344935
-0.332404
-0.320486
-0.320707
-0.331935
-0.337685
-0.342786
-0.346358
-0.349025
-0.35239
-0.358282
-0.312594
-0.358113
-0.362927
-0.360431
-0.366567
-0.369226
-0.378398
-0.37214
0.0546486
0.0416778
-0.0126943
-0.0781207
-0.19434
-0.298448
-0.344645
-0.356951
-0.360965
-0.356918
-0.346063
-0.333331
-0.320965
-0.311696
-0.313719
-0.320685
-0.323095
-0.33136
-0.334484
-0.336433
-0.339065
-0.357092
-0.300972
-0.358226
-0.363148
-0.360809
0.0565885
0.0433082
-0.0149358
-0.0807598
-0.201085
-0.303032
-0.34762
-0.359301
-0.362416
-0.358289
-0.347558
-0.33469
-0.32192
-0.311351
-0.300309
-0.301836
-0.3117
-0.316799
-0.320103
-0.323408
-0.320107
-0.327587
-0.28891
0.0601531
0.0466567
-0.0157142
-0.0817772
-0.210806
-0.311789
-0.353259
-0.363202
-0.364907
-0.360207
-0.349374
-0.336324
-0.323245
-0.311621
-0.300039
-0.288274
-0.289747
-0.299626
-0.305483
-0.310711
-0.313638
-0.315953
-0.317892
-0.320124
-0.323969
-0.318747
-0.277516
0.0653928
0.0517891
-0.0148866
-0.0811113
-0.224143
-0.324923
-0.361582
-0.368655
-0.368428
-0.362709
-0.351471
-0.338146
-0.324778
-0.312394
-0.300234
-0.288032
-0.27684
-0.278417
-0.287608
-0.29342
-0.298606
-0.301773
-0.304375
-0.307053
-0.311298
-0.314039
-0.316102
-0.317806
-0.26618
0.0724129
0.0587303
-0.0121827
-0.0787527
-0.242101
-0.342772
-0.372647
-0.375649
-0.372986
-0.365799
-0.353855
-0.340095
-0.326418
-0.313476
-0.300843
-0.288243
-0.276571
-0.265759
-0.266777
-0.276303
-0.281888
-0.286614
-0.289676
-0.292248
-0.294987
-0.299187
-0.302151
-0.304526
-0.306914
-0.256743
0.0812474
0.0675807
-0.00720177
-0.0748003
-0.26617
-0.365889
-0.386506
-0.384208
-0.378562
-0.369491
-0.356514
-0.342163
-0.328095
-0.314721
-0.301718
-0.288842
-0.276735
-0.265612
-0.256121
-0.257506
-0.26439
-0.270501
-0.275325
-0.27829
-0.280693
-0.283324
-0.287143
-0.290014
-0.292355
-0.294816
-0.247181
0.0919645
0.0784095
0.00072795
-0.0695746
-0.298539
-0.394952
-0.403272
-0.394338
-0.385159
-0.373765
-0.359453
-0.344333
-0.329798
-0.316022
-0.302732
-0.289674
-0.277274
-0.265801
-0.25577
-0.246574
-0.24785
-0.2556
-0.260551
-0.262741
-0.26696
-0.26938
-0.272122
-0.275827
-0.278584
-0.280774
-0.283147
-0.23762
0.104532
0.0914364
0.0125615
-0.0636308
-0.342348
-0.430809
-0.423041
-0.406087
-0.39275
-0.378608
-0.362646
-0.346606
-0.331505
-0.317337
-0.303782
-0.290615
-0.278044
-0.266312
-0.255772
-0.246192
-0.237067
-0.238257
-0.245881
-0.25072
-0.254652
-0.25721
-0.259493
-0.262189
-0.262536
-0.268134
-0.26959
-0.271935
-0.228622
0.118951
0.106923
0.0294494
-0.0585416
-0.401273
-0.47431
-0.445856
-0.419464
-0.401326
-0.383971
-0.366086
-0.348959
-0.333224
-0.318629
-0.304826
-0.29156
-0.27892
-0.267035
-0.256132
-0.246135
-0.236737
-0.228091
-0.229234
-0.23624
-0.241132
-0.244963
-0.247457
-0.249677
-0.251986
-0.254993
-0.257471
-0.259573
-0.26301
-0.261795
-0.220151
0.13501
0.125585
0.0521357
-0.0574099
-0.477623
-0.525774
-0.471408
-0.434389
-0.410804
-0.389813
-0.369729
-0.351392
-0.334932
-0.319894
-0.305825
-0.292471
-0.279796
-0.267862
-0.256746
-0.246428
-0.236721
-0.227775
-0.21964
-0.22072
-0.227495
-0.231909
-0.234766
-0.237777
-0.240102
-0.242378
-0.245316
-0.247695
-0.249771
-0.251956
-0.255227
-0.257549
-0.259637
-0.262768
-0.212141
0.152288
0.148367
0.0819638
-0.0589416
-0.574046
-0.582945
-0.498717
-0.450394
-0.42097
-0.396002
-0.373541
-0.353872
-0.336635
-0.321108
-0.306775
-0.293315
-0.280631
-0.268693
-0.257502
-0.246994
-0.237049
-0.227781
-0.219342
-0.211645
-0.212713
-0.219079
-0.223271
-0.227878
-0.232023
-0.236808
-0.2381
-0.240205
-0.242339
-0.245558
-0.247787
-0.249958
-0.252016
-0.204524
0.170098
0.174072
0.124563
-0.0496775
-0.701861
-0.639595
-0.52556
-0.466345
-0.431259
-0.402294
-0.37741
-0.356376
-0.338303
-0.322274
-0.307654
-0.294091
-0.281394
-0.269486
-0.258293
-0.247729
-0.237657
-0.228147
-0.219375
-0.211375
-0.204098
-0.205044
-0.211146
-0.215122
-0.219448
-0.22342
-0.227049
-0.229246
-0.233415
-0.231013
-0.236556
-0.238132
-0.240376
-0.242388
-0.197529
0.187521
0.19879
0.187126
-0.0371453
-0.856605
-0.68809
-0.547937
-0.480358
-0.440626
-0.408204
-0.381151
-0.358811
-0.339918
-0.323367
-0.308469
-0.294787
-0.282086
-0.270212
-0.259068
-0.248526
-0.238448
-0.228818
-0.219782
-0.211441
-0.203881
-0.197154
-0.197967
-0.2035
-0.207376
-0.21149
-0.215249
-0.218656
-0.220741
-0.224558
-0.222475
-0.19125
0.203553
0.224428
0.205664
0.242214
0.123912
0.181369
0.280761
-0.848244
-0.307267
-1.00096
-0.722843
-0.98454
-0.560333
-0.490395
-0.4477
-0.413033
-0.384422
-0.361039
-0.341403
-0.324372
-0.309197
-0.295409
-0.282695
-0.270873
-0.259792
-0.249325
-0.239315
-0.229694
-0.220515
-0.211891
-0.203981
-0.196947
-0.190805
-0.191737
-0.19681
-0.199836
-0.203899
-0.207556
-0.210737
-0.212713
-0.216323
-0.214351
-0.185015
0.217362
0.247846
0.271302
0.300619
0.312306
0.252933
-0.0622427
-0.04044
-0.881089
-0.852951
-0.556878
-1.17593
-1.03652
-1.0144
-0.781313
-0.56224
-0.698901
-0.968104
-0.495182
-0.451635
-0.416115
-0.386829
-0.362827
-0.342652
-0.325226
-0.309829
-0.295942
-0.283232
-0.27146
-0.260464
-0.250089
-0.240193
-0.23066
-0.221475
-0.212686
-0.204463
-0.197037
-0.19053
-0.184596
-0.185458
-0.19045
-0.19365
-0.197175
-0.19984
-0.203497
-0.205066
-0.20857
-0.206689
-0.179095
0.228044
0.265596
0.325748
0.346833
0.357078
0.404497
0.331358
0.277306
-0.0608829
-0.134392
0.292852
-0.292544
-1.06508
-0.970471
-0.773494
-0.594221
-0.495207
-0.542682
-0.699354
-0.452853
-0.417347
-0.388127
-0.363963
-0.343513
-0.325857
-0.310318
-0.29638
-0.283684
-0.27198
-0.261075
-0.250813
-0.241042
-0.231644
-0.222543
-0.21373
-0.205305
-0.197507
-0.190554
-0.184322
-0.178683
-0.179527
-0.184269
-0.187299
-0.19068
-0.19378
-0.196537
-0.198193
-0.200488
-0.199727
-0.173569
0.234895
0.27799
0.356048
0.358811
0.441942
0.472307
0.386754
0.43108
0.495364
0.459005
0.350285
-0.0281472
-0.97215
-0.811496
-0.744199
-0.588309
-0.491982
-0.452261
-0.545897
-0.668927
-0.723509
-0.417253
-0.388443
-0.364386
-0.343896
-0.326179
-0.310615
-0.296684
-0.284045
-0.272425
-0.26163
-0.251486
-0.241853
-0.2326
-0.223638
-0.2149
-0.206417
-0.198355
-0.190968
-0.184327
-0.178403
-0.173159
-0.173988
-0.178429
-0.181282
-0.184503
-0.187437
-0.190082
-0.191648
-0.194665
-0.193099
-0.196633
-0.198195
-0.199861
-0.199774
-0.168393
0.237538
0.280219
0.434018
0.499877
0.517487
0.527962
0.557918
0.600843
0.580798
0.415384
0.389601
0.522243
0.445621
0.0384737
-0.599919
-0.571127
-0.503447
-0.45026
-0.47816
-0.416277
-0.533473
-0.555765
-0.665071
-0.714802
-0.388067
-0.364241
-0.343828
-0.326169
-0.310671
-0.296819
-0.284281
-0.272783
-0.262116
-0.252111
-0.242618
-0.23352
-0.224709
-0.216107
-0.207675
-0.199502
-0.191786
-0.184712
-0.178387
-0.172863
-0.167989
-0.168796
-0.172957
-0.175637
-0.178652
-0.181422
-0.183924
-0.185422
-0.188306
-0.186799
-0.190223
-0.191695
-0.194675
-0.193213
-0.163544
0.236223
0.275314
0.408358
0.627516
0.5732
0.614089
0.618352
0.599935
0.613277
0.577058
0.631294
0.698439
0.665479
0.302533
-0.591696
-0.5709
-0.532451
-0.507807
-0.49348
-0.458004
-0.414712
-0.438971
-0.483681
-0.473665
-0.387155
-0.555477
-0.363689
-0.343434
-0.325885
-0.3105
-0.296758
-0.284362
-0.273021
-0.262517
-0.252669
-0.243338
-0.234392
-0.225742
-0.217292
-0.208986
-0.200827
-0.192939
-0.18551
-0.178743
-0.172813
-0.167681
-0.163147
-0.16393
-0.167828
-0.170342
-0.173164
-0.175768
-0.178102
-0.179512
-0.18224
-0.180812
-0.184049
-0.185462
-0.188326
-0.186908
-0.159007
0.231256
0.265034
0.372858
0.469712
0.706664
0.534528
0.59493
0.453755
0.715893
0.721903
0.718584
-0.530419
-0.460738
-0.451451
-0.421103
-0.385766
-0.405508
-0.443305
-0.4339
-0.472735
-0.362795
-0.55053
-0.342814
-0.325413
-0.310157
-0.296522
-0.284271
-0.273106
-0.262793
-0.253138
-0.243989
-0.235219
-0.226726
-0.218438
-0.210279
-0.202224
-0.194307
-0.186668
-0.179517
-0.173125
-0.1676
-0.162832
-0.15862
-0.159376
-0.163022
-0.165382
-0.16802
-0.170464
-0.172647
-0.173969
-0.176532
-0.175192
-0.178214
-0.179547
-0.182256
-0.180909
-0.154763
0.223059
0.250603
0.335574
0.39419
0.0935843
0.110508
0.672295
0.149489
0.15391
-0.457726
-0.450232
-0.423716
-0.415184
-0.390981
-0.361545
-0.378116
-0.404726
-0.443212
-0.43473
-0.341972
-0.324805
-0.309697
-0.296159
-0.284032
-0.273025
-0.262912
-0.253475
-0.244543
-0.235971
-0.22766
-0.219532
-0.211534
-0.203615
-0.195776
-0.188071
-0.180674
-0.173862
-0.167866
-0.162727
-0.158306
-0.154391
-0.155122
-0.15852
-0.160736
-0.1632
-0.165495
-0.167533
-0.168772
-0.171179
-0.169922
-0.172748
-0.174001
-0.176546
-0.175279
-0.1508
0.211987
0.233116
0.299508
0.334856
0.0566803
0.0128819
0.0415064
0.0161637
0.0455832
-0.423101
-0.41439
-0.389365
-0.366007
-0.340767
-0.354944
-0.377607
-0.400625
-0.408186
-0.324044
-0.309136
-0.295706
-0.283685
-0.272799
-0.262857
-0.253637
-0.244948
-0.236614
-0.228514
-0.220571
-0.212734
-0.204972
-0.197256
-0.189604
-0.182108
-0.175
-0.168556
-0.162953
-0.158187
-0.154089
-0.150463
-0.15113
-0.154313
-0.156393
-0.158683
-0.160838
-0.162741
-0.163902
-0.166162
-0.164982
-0.167625
-0.168801
-0.171192
-0.170001
-0.147182
0.198423
0.213373
0.265169
0.286498
0.0700747
0.0309238
0.0318347
0.0109669
0.0138273
0.0319489
0.0126467
-0.421116
-0.413955
-0.391556
-0.385743
-0.364606
-0.344613
-0.322979
-0.334647
-0.354465
-0.373902
-0.380157
-0.30844
-0.295162
-0.28326
-0.272466
-0.262649
-0.25361
-0.24516
-0.237087
-0.229244
-0.221523
-0.213875
-0.206275
-0.198709
-0.191168
-0.1837
-0.176448
-0.169663
-0.163596
-0.15838
-0.153968
-0.150188
-0.146876
-0.147475
-0.150354
-0.152324
-0.154465
-0.156481
-0.158253
-0.159341
-0.161461
-0.160355
-0.162823
-0.163928
-0.166173
-0.165054
-0.143907
0.182653
0.192023
0.232546
0.244126
0.0773747
0.035796
0.0374809
0.0244747
0.0267732
0.0220956
0.027479
-0.384916
-0.366409
-0.36098
-0.343496
-0.32152
-0.307551
-0.334653
-0.351571
-0.356441
-0.373599
-0.379217
-0.294497
-0.282751
-0.272049
-0.262324
-0.253415
-0.24516
-0.237342
-0.22978
-0.222337
-0.214921
-0.207515
-0.200112
-0.192717
-0.185346
-0.178084
-0.171108
-0.164664
-0.158978
-0.154139
-0.150073
-0.146616
-0.1436
-0.144197
-0.1468
-0.148516
-0.150505
-0.15242
-0.154064
-0.155083
-0.157066
-0.156027
-0.158327
-0.159364
-0.161471
-0.16042
-0.140802
0.164965
0.169527
0.20168
0.207132
0.0786368
0.038628
0.0397656
0.029168
0.0313583
0.0338989
0.0322302
0.0202641
0.0211847
-0.365405
-0.360675
-0.345115
-0.340276
-0.32493
-0.306455
-0.316662
-0.293669
-0.334179
-0.352053
-0.355929
-0.282133
-0.271549
-0.261911
-0.253095
-0.244973
-0.237362
-0.230077
-0.222937
-0.215816
-0.208653
-0.201452
-0.194222
-0.186989
-0.179801
-0.172772
-0.166093
-0.160004
-0.154698
-0.150226
-0.146499
-0.143337
-0.140514
-0.14107
-0.143565
-0.145181
-0.146938
-0.148582
-0.150121
-0.151085
-0.152973
-0.151989
-0.154134
-0.155104
-0.157075
-0.156087
-0.137893
0.145553
0.146286
0.172576
0.175103
0.0771389
0.0406571
0.0412728
0.030225
0.0235461
0.0252823
0.0311565
0.0295839
0.0284242
0.0286662
0.0313762
0.033693
-0.344223
-0.33984
-0.325988
-0.32242
-0.309093
-0.292688
-0.302024
-0.318354
-0.314432
-0.281372
-0.335891
-0.331233
-0.35099
-0.270953
-0.261423
-0.252684
-0.244649
-0.23718
-0.230114
-0.223271
-0.216476
-0.209631
-0.202685
-0.195664
-0.188596
-0.18153
-0.174544
-0.167769
-0.161409
-0.155678
-0.150747
-0.146628
-0.143209
-0.140263
-0.137618
-0.138147
-0.140488
-0.142002
-0.143674
-0.145257
-0.146601
-0.147444
-0.149044
-0.148214
-0.150266
-0.151107
-0.15298
-0.152046
-0.135171
0.124604
0.122656
0.145286
0.147365
0.0739468
0.0423393
0.0423892
0.0314806
0.0239228
0.0183178
0.0215886
0.0246784
0.021508
0.0285727
0.0296965
0.0314813
0.0293762
0.0316462
-0.343238
-0.339837
-0.32164
-0.310054
-0.306505
-0.295184
-0.280451
-0.288583
-0.303352
-0.300246
-0.318055
-0.31452
-0.270233
-0.260849
-0.252199
-0.244232
-0.23685
-0.229931
-0.223323
-0.21685
-0.210358
-0.20375
-0.196998
-0.190142
-0.183234
-0.176346
-0.169583
-0.163083
-0.157047
-0.151676
-0.147103
-0.143309
-0.140133
-0.137378
-0.134912
-0.135414
-0.13761
-0.139031
-0.140598
-0.142075
-0.143358
-0.144157
-0.145719
-0.144905
-0.146647
-0.147474
-0.149156
-0.148317
-0.132637
0.102526
0.0991062
0.120001
0.123407
0.069681
0.0433783
0.042836
0.0325751
0.024219
0.0186133
0.0135862
0.0164289
0.0190463
0.0206814
0.0218852
0.0233552
0.0259732
0.0190619
0.0301968
0.029402
0.0309585
0.0290509
-0.309098
-0.306006
-0.29609
-0.29281
-0.282553
-0.269383
-0.276857
-0.288037
-0.303192
-0.30089
-0.260169
-0.251646
-0.24375
-0.236426
-0.229593
-0.223145
-0.216924
-0.210779
-0.204552
-0.198156
-0.191582
-0.184882
-0.178138
-0.171446
-0.164922
-0.158704
-0.152996
-0.147973
-0.143736
-0.140213
-0.13725
-0.134684
-0.13239
-0.132868
-0.134908
-0.136246
-0.137717
-0.139103
-0.140296
-0.141048
-0.142516
-0.141746
-0.143404
-0.144182
-0.14575
-0.144956
-0.146696
-0.147474
-0.14895
-0.148315
-0.130283
0.0806531
0.0763711
0.0972133
0.102993
0.0649884
0.0438022
0.0426335
0.0332585
0.0245304
0.0188396
0.0136959
0.00821391
0.0122764
0.0143871
0.0157395
0.016652
0.0178954
0.0193589
0.0206056
0.0217589
0.0231173
0.0277494
0.0185591
0.0297997
0.0290678
0.0304576
-0.295133
-0.292047
-0.281722
-0.271333
-0.25937
-0.266049
-0.276622
-0.286253
-0.289473
-0.300196
-0.25101
-0.243211
-0.235942
-0.229163
-0.222808
-0.216755
-0.210887
-0.205032
-0.199044
-0.192839
-0.186425
-0.179881
-0.173313
-0.166829
-0.160549
-0.15462
-0.149233
-0.144541
-0.140597
-0.137314
-0.134558
-0.132174
-0.130041
-0.130488
-0.132387
-0.133646
-0.135011
-0.136313
-0.137431
-0.138142
-0.139516
-0.138793
-0.140338
-0.141068
-0.142547
-0.141796
-0.143449
-0.144196
-0.145767
-0.145005
-0.128056
0.0599895
0.0559156
0.0777758
0.0862023
0.0604695
0.0438317
0.0420079
0.0335396
0.0248643
0.0191659
0.0140608
0.00934587
0.0095181
0.00819182
0.00792338
0.0120001
0.0127015
0.0133436
0.0146331
0.0157844
0.0165426
0.0176782
0.0191034
-0.294391
-0.292097
-0.282521
-0.279753
-0.270551
-0.26112
-0.250261
-0.256353
-0.265665
-0.274444
-0.278314
-0.242603
-0.235406
-0.228679
-0.222383
-0.216423
-0.210741
-0.205184
-0.199593
-0.193819
-0.187786
-0.181527
-0.175142
-0.168755
-0.162481
-0.15645
-0.150806
-0.14573
-0.141338
-0.137659
-0.134607
-0.132052
-0.129836
-0.127837
-0.128248
-0.129881
-0.131212
-0.132491
-0.133708
-0.134741
-0.135407
-0.136699
-0.136017
-0.13747
-0.138159
-0.139543
-0.138838
-0.140378
-0.14108
-0.142562
-0.14184
-0.125947
0.0364588
0.0402544
0.062842
0.0733612
0.05661
0.0436486
0.0411604
0.0335009
0.0251666
0.0195511
0.0145713
0.0102514
0.00960465
0.006944
0.00863816
0.00921218
0.00806586
0.00899751
0.00440832
0.011517
0.0120874
0.012468
0.0131052
0.0143815
-0.271322
-0.268784
-0.260481
-0.251889
-0.241863
-0.247259
-0.256066
-0.264078
-0.266659
-0.274079
-0.277789
-0.234809
-0.228153
-0.221911
-0.216003
-0.210428
-0.20507
-0.199801
-0.194448
-0.188865
-0.182993
-0.176883
-0.170653
-0.164445
-0.158384
-0.152601
-0.147237
-0.142453
-0.138338
-0.134914
-0.132086
-0.12972
-0.127655
-0.125769
-0.128344
-0.126123
-0.1302
-0.131302
-0.132239
-0.132863
-0.134069
-0.13343
-0.134777
-0.135422
-0.136723
-0.136059
-0.137505
-0.138167
-0.139554
-0.138876
-0.123975
0.00770609
0.0324565
0.053302
0.0647463
0.0537534
0.0433847
0.0402151
0.0332187
0.0253774
0.0199041
0.0150888
0.0109217
0.00953886
0.0066203
0.00524104
0.00600134
0.00728113
0.0016515
0.00822231
0.00849686
0.00887583
0.00882276
0.00340299
0.0117927
-0.270831
-0.268618
-0.261195
-0.2588
-0.251325
-0.24094
-0.234133
-0.246793
-0.254353
-0.257214
-0.263887
-0.266335
-0.227575
-0.221403
-0.215539
-0.210027
-0.204785
-0.199734
-0.194722
-0.189588
-0.184179
-0.178449
-0.172472
-0.16639
-0.160363
-0.154514
-0.148978
-0.143883
-0.139375
-0.135529
-0.132352
-0.129741
-0.127552
-0.125622
-0.123841
-0.12627
-0.12795
-0.129113
-0.124117
-0.130299
-0.13163
-0.131031
-0.132273
-0.132876
-0.134089
-0.13347
-0.13481
-0.13543
-0.136733
-0.136095
-0.122114
0.033567
0.0487445
0.0600598
0.0519497
0.0430985
0.0392575
0.0327657
0.0254627
0.0201584
0.0155323
0.0114722
0.00951239
0.00662114
0.0025623
0.00315002
0.00146512
0.00295139
0.00546281
0.0061131
0.00591389
0.00669119
0.00744655
0.00140968
-0.26075
-0.258495
-0.252017
-0.249888
-0.242299
-0.233377
-0.238667
-0.226929
-0.246604
-0.25399
-0.257395
-0.220851
-0.215045
-0.209587
-0.204409
-0.199487
-0.194708
-0.189944
-0.185003
-0.179739
-0.174122
-0.168265
-0.162329
-0.156483
-0.150849
-0.145555
-0.140722
-0.136481
-0.132898
-0.129966
-0.127562
-0.125536
-0.12373
-0.122027
-0.124253
-0.125846
-0.126905
-0.127746
-0.128318
-0.128834
-0.129416
-0.122214
-0.130038
-0.13063
-0.131051
-0.131646
-0.132306
-0.132884
-0.134098
-0.133503
-0.120316
0.0469343
0.0581841
0.0508973
0.0427549
0.0383267
0.0322012
0.0254139
0.0202779
0.0158431
0.0119111
0.00955206
0.0067595
0.00345606
0.00222156
0.00182526
0.0010929
0.00176541
0.00239323
0.00477718
0.00210352
-0.251615
-0.249246
-0.242779
-0.240792
-0.234632
-0.226205
-0.230921
-0.239153
-0.238021
-0.220249
-0.247457
-0.24527
-0.253697
-0.256936
-0.214516
-0.20912
-0.203991
-0.199141
-0.194507
-0.189994
-0.185448
-0.180663
-0.175505
-0.169979
-0.164234
-0.158445
-0.152784
-0.147366
-0.142311
-0.137733
-0.133758
-0.130438
-0.127742
-0.125536
-0.123661
-0.121955
-0.120277
-0.122324
-0.123848
-0.124859
-0.125652
-0.126195
-0.126644
-0.127176
-0.120358
-0.131146
-0.131665
-0.118494
0.0577266
0.0500668
0.0422309
0.0374109
0.0315531
0.0252227
0.0202505
0.0159905
0.0122068
0.00962229
0.0069203
0.00391279
0.00256636
0.00165394
0.0015391
0.0016478
0.00146722
0.00147794
0.00100264
0.00157017
0.00243043
-0.251286
-0.249348
-0.23494
-0.233237
-0.22735
-0.219596
-0.223934
-0.231663
-0.22982
-0.237915
-0.213934
-0.208618
-0.203545
-0.198752
-0.1942
-0.189839
-0.185565
-0.181201
-0.176523
-0.171432
-0.165984
-0.16035
-0.154717
-0.149246
-0.144044
-0.139227
-0.134906
-0.131197
-0.128135
-0.125668
-0.123644
-0.121897
-0.120244
-0.118523
-0.120433
-0.121928
-0.122917
-0.123671
-0.124193
-0.124613
-0.125122
-0.118494
-0.116617
0.0491494
0.0414255
0.0364851
0.0308281
0.0248791
0.0200682
0.0159677
0.0123433
0.00966755
0.00708749
0.0043629
0.0029325
0.0021248
0.00191279
0.00169842
0.00101992
0.00142236
0.000363848
0.00144491
0.00147816
0.00140648
0.000876551
0.00147291
-0.234256
-0.232987
-0.227798
-0.226075
-0.220736
-0.213275
-0.217437
-0.224571
-0.2228
-0.231562
-0.229798
-0.208073
-0.203066
-0.198331
-0.193834
-0.18956
-0.185458
-0.181394
-0.177146
-0.172523
-0.167481
-0.162104
-0.156591
-0.151122
-0.145847
-0.140868
-0.136292
-0.132229
-0.128783
-0.125972
-0.123715
-0.121851
-0.120185
-0.118512
-0.116674
-0.118515
-0.120027
-0.121017
-0.121757
-0.122273
-0.122679
-0.123178
-0.116543
-0.114511
0.0404305
0.0354871
0.030005
0.0243691
0.0197256
0.0157802
0.0123176
0.00964729
0.007212
0.00478278
0.00334948
0.00255292
0.00216971
0.00126832
0.00144046
0.00175496
0.00168425
0.00122316
-0.00107868
0.00153928
0.00260387
0.00131667
0.00130972
-0.227349
-0.225803
-0.221404
-0.219305
-0.214248
-0.207477
-0.211229
-0.218064
-0.21655
-0.224424
-0.222574
-0.202543
-0.197874
-0.193431
-0.189214
-0.185204
-0.181333
-0.1774
-0.173212
-0.16862
-0.163608
-0.158315
-0.152935
-0.147644
-0.142578
-0.137827
-0.133496
-0.129689
-0.126497
-0.123914
-0.121844
-0.120094
-0.118443
-0.116674
-0.1146
-0.116534
-0.118067
-0.11909
-0.119857
-0.120377
-0.120781
-0.121281
-0.11441
-0.112087
0.0344828
0.0290476
0.0236952
0.0192287
0.0154381
0.0121423
0.00953566
0.00726144
0.00510707
0.00371915
0.00290788
0.00238129
0.00151484
0.000621803
0.000827299
0.00117453
0.0012378
0.00156379
0.00159417
0.00161695
-0.00253627
0.00256659
0.00247312
0.00104428
-0.221512
-0.218871
-0.213682
-0.208382
-0.201961
-0.205638
-0.210907
-0.217877
-0.215922
-0.197371
-0.19299
-0.18882
-0.184865
-0.181101
-0.177371
-0.173518
-0.169351
-0.164757
-0.159786
-0.154589
-0.149368
-0.144276
-0.139433
-0.134918
-0.130829
-0.127263
-0.124302
-0.121917
-0.119981
-0.118269
-0.116547
-0.114584
-0.11219
-0.114388
-0.116032
-0.117042
-0.117881
-0.118422
-0.118849
-0.119365
-0.11192
0.0280331
0.0228303
0.0185802
0.0149601
0.0118323
0.00932796
0.00720774
0.00530006
0.00399245
0.00317402
0.00256297
0.00172111
0.000815881
-4.32272e-05
0.00023658
0.00058782
0.000674229
0.000992471
0.00105063
0.00113151
0.00142843
0.00129128
0.00145093
0.00165264
-0.00318026
-0.221221
-0.218695
-0.214187
-0.212688
-0.207919
-0.202859
-0.19681
-0.20014
-0.205502
-0.209943
-0.211484
-0.21769
-0.216035
-0.192511
-0.188394
-0.18447
-0.180765
-0.177145
-0.173512
-0.169684
-0.165494
-0.160899
-0.155985
-0.150923
-0.145892
-0.141024
-0.136416
-0.132135
-0.128271
-0.12492
-0.12215
-0.119908
-0.118032
-0.116268
-0.114371
-0.112135
-0.111808
-0.113815
-0.11502
-0.115778
-0.116287
-0.116768
-0.117317
0.0218795
0.0177696
0.0143567
0.0114049
0.00902495
0.00705454
0.00535844
0.00414714
0.00334492
0.00270133
0.00189999
0.00101286
0.000143074
-0.000951422
-0.000354875
1.95225e-05
0.0001093
0.000422197
0.000497913
0.000636345
0.000942186
0.000783611
0.000982824
0.00105067
0.00131901
0.00118979
-0.20823
-0.206778
-0.202383
-0.197654
-0.191992
-0.195098
-0.199867
-0.204077
-0.206492
-0.187945
-0.184039
-0.180361
-0.176795
-0.173285
-0.169687
-0.165823
-0.161599
-0.15702
-0.152212
-0.147328
-0.142527
-0.137905
-0.133533
-0.129465
-0.125792
-0.122607
-0.119961
-0.117773
-0.115856
-0.113948
-0.111813
-0.111118
-0.112414
-0.113486
-0.114101
-0.114944
-0.115237
0.0169003
0.013616
0.0108744
0.00864195
0.00680634
0.00528802
0.00417877
0.00341171
0.00277674
0.00203585
0.00120688
0.000388079
-0.000456029
-3.77857e-05
-0.00168067
-0.000701351
-0.000354106
-0.000119428
-8.03915e-05
8.78556e-05
0.000388398
0.000210346
0.000442244
0.000567778
0.000867661
0.000730916
-0.202716
-0.201424
-0.197253
-0.192851
-0.187483
-0.190325
-0.194832
-0.19902
-0.200343
-0.203827
-0.206331
-0.183573
-0.17991
-0.176364
-0.172916
-0.169451
-0.165812
-0.161891
-0.157645
-0.153137
-0.14849
-0.143843
-0.139306
-0.134937
-0.130779
-0.126883
-0.123342
-0.120252
-0.117647
-0.115405
-0.113341
-0.111218
-0.110754
-0.111439
-0.112098
-0.112734
-0.11349
-0.114055
-0.114926
0.0128296
0.01022
0.00817029
0.00647643
0.00511032
0.00409417
0.00337276
0.00277398
0.00210772
0.00136376
0.000625321
-4.56434e-05
0.0001141
-0.000478466
-0.000254214
-0.000182764
-0.00249245
-0.000524538
-0.000575999
-0.000386385
-0.000164285
-0.000360339
-0.000134892
1.81728e-05
0.000313716
0.000164007
-0.202463
-0.201319
-0.197622
-0.196353
-0.192561
-0.188269
-0.183025
-0.185908
-0.190095
-0.193959
-0.195227
-0.198895
-0.200146
-0.179434
-0.17589
-0.17246
-0.169063
-0.165554
-0.16185
-0.157878
-0.153663
-0.149289
-0.144882
-0.140523
-0.136265
-0.132127
-0.128134
-0.124339
-0.120844
-0.117742
-0.115063
-0.112683
-0.110413
-0.110769
-0.109841
-0.111451
-0.112031
-0.112649
0.00952431
0.00759449
0.00607813
0.00484605
0.00391418
0.00323873
0.00268589
0.00210324
0.00145534
0.000807727
0.000238909
0.000212955
-0.000296172
-0.00102414
-0.000774986
-0.000626531
-0.000384113
-2.41509e-05
-0.000795348
-0.00388647
-0.000528906
-0.000146492
-0.000653989
-0.000499928
-0.000248912
-0.000416072
-0.197384
-0.196225
-0.19266
-0.191935
-0.187955
-0.182318
-0.178941
-0.185259
-0.189302
-0.190499
-0.19378
-0.195019
-0.17538
-0.171949
-0.16858
-0.165139
-0.16157
-0.157797
-0.15382
-0.149705
-0.145565
-0.141469
-0.137424
-0.133427
-0.129464
-0.125554
-0.121769
-0.118227
-0.115
-0.112132
-0.109543
-0.109807
0.00698446
0.00558452
0.00450745
0.0036624
0.00302966
0.00252085
0.00201644
0.0014684
0.00091111
0.000417995
0.000267332
-0.000179865
-0.000858327
-0.00143933
-0.00123165
-0.0010695
-0.000909777
-0.000753806
-0.000573385
-0.000498526
-0.000189322
-0.000102838
-0.00461149
-0.000855042
0.000126243
-0.192247
-0.192227
-0.188328
-0.187334
-0.183125
-0.178467
-0.180888
-0.174843
-0.185265
-0.189182
-0.190059
-0.171409
-0.168047
-0.164633
-0.161145
-0.157504
-0.153699
-0.149784
-0.145885
-0.142069
-0.138327
-0.134586
-0.130788
-0.126903
-0.122962
-0.119057
-0.11535
-0.111938
-0.108844
0.00506053
0.00408153
0.0033539
0.00276893
0.00229444
0.001855
0.00139626
0.000929161
0.00050085
0.000281573
-0.00011666
-0.000728832
-0.00126773
-0.00171261
-0.00209267
-0.00139481
-0.00133919
-0.00115848
-0.00100948
-0.000974177
-0.000793539
-0.000870713
-0.192169
-0.188073
-0.186542
-0.183443
-0.18231
-0.17928
-0.174251
-0.176821
-0.181314
-0.180151
-0.170823
-0.185779
-0.184608
-0.189096
-0.189817
-0.167475
-0.164072
-0.160633
-0.15708
-0.153396
-0.149621
-0.145895
-0.142322
-0.138899
-0.135514
-0.132013
-0.128305
-0.124378
-0.120294
-0.116157
-0.112177
-0.108525
0.00363078
0.00297546
0.00246983
0.00202782
0.00163275
0.00124763
0.000860588
0.000495956
0.000249557
-0.000104311
-0.000639887
-0.00114502
-0.00158843
-0.00199716
-0.00194402
-0.00180463
-0.00240455
-0.00308826
-0.00129638
-0.00144202
-0.00140907
-0.00118646
-0.00127488
-0.187901
-0.186738
-0.179121
-0.178861
-0.174888
-0.170211
-0.172778
-0.177084
-0.176097
-0.166907
-0.163488
-0.160078
-0.156584
-0.152991
-0.149315
-0.145699
-0.142286
-0.139134
-0.136127
-0.133036
-0.129654
-0.125885
-0.121751
-0.117401
-0.113012
-0.108777
0.0025838
0.00212121
0.00173348
0.00137064
0.00103583
0.000715976
0.000410119
0.000168872
-0.00014031
-0.000591895
-0.00104692
-0.00147386
-0.00191078
-0.00252189
-0.00222585
-0.00205599
-0.00204879
-0.00200449
-0.00192256
-0.00194624
-0.00229539
-0.000432521
-0.00143554
-0.00146997
-0.178855
-0.175132
-0.1741
-0.170827
-0.166359
-0.168748
-0.173214
-0.172123
-0.176875
-0.176113
-0.162876
-0.159482
-0.156041
-0.152526
-0.148931
-0.145391
-0.142064
-0.13908
-0.136399
-0.133763
-0.130848
-0.127423
-0.12344
-0.118967
-0.114253
-0.109596
0.00177337
0.00140293
0.00108253
0.000780834
0.000508777
0.000256593
3.88119e-05
-0.000220698
-0.000587562
-0.00097824
-0.0013652
-0.00179078
-0.00232879
-0.00267311
-0.00277032
-0.00237188
-0.00233771
-0.0022599
-0.00221349
-0.00209921
-0.00209511
-0.00205795
-0.00199642
-0.0020201
-0.00234617
-0.00130725
-0.174845
-0.173938
-0.171076
-0.170054
-0.166889
-0.162247
-0.164945
-0.169133
-0.168063
-0.173122
-0.172078
-0.158852
-0.155469
-0.152036
-0.148514
-0.145039
-0.141755
-0.138845
-0.136368
-0.13414
-0.131758
-0.128821
-0.125138
-0.120786
-0.115964
-0.110957
0.00108296
0.000764703
0.000498589
0.000259681
4.85204e-05
-0.000134932
-0.000343438
-0.000628829
-0.000945862
-0.00127626
-0.00165046
-0.00208246
-0.00228728
-0.00188951
-0.00248797
-0.00318227
-0.00271467
-0.00262714
-0.00251529
-0.00236061
-0.00236934
-0.0023194
-0.0022675
-0.00215607
-0.0021332
-0.00210777
-0.00204487
-0.00208857
-0.170802
-0.169889
-0.167052
-0.166036
-0.162833
-0.158195
-0.160726
-0.165554
-0.164011
-0.169041
-0.16798
-0.154854
-0.151521
-0.148084
-0.144677
-0.141428
-0.13853
-0.136134
-0.134181
-0.132307
-0.129982
-0.126809
-0.122684
-0.117841
-0.112681
0.000463776
0.000190984
-1.58574e-05
-0.000196667
-0.00034582
-0.000504462
-0.000714525
-0.000955065
-0.0012173
-0.0015214
-0.00185445
-0.00198251
-0.00174662
-0.00202356
-0.00208147
-0.00217703
-0.00245624
-0.00255993
-0.00257825
-0.00396828
-0.00188594
-0.00265377
-0.00252875
-0.00244846
-0.00240498
-0.00236787
-0.00230685
-0.00220027
-0.166745
-0.165609
-0.163039
-0.161991
-0.158849
-0.154219
-0.156667
-0.161072
-0.160039
-0.165867
-0.163685
-0.150995
-0.147649
-0.144329
-0.141124
-0.138218