/*--------------------------------*- C++ -*----------------------------------*\
| =========                 |                                                 |
| \\      /  F ield         | OpenFOAM: The Open Source CFD Toolbox           |
|  \\    /   O peration     | Version:  v1912                                 |
|   \\  /    A nd           | Website:  www.openfoam.com                      |
|    \\/     M anipulation  |                                                 |
\*---------------------------------------------------------------------------*/
FoamFile
{
    version     2.0;
    format      ascii;
    class       surfaceScalarField;
    location    "190";
    object      phi;
}
// * * * * * * * * * * * * * * * * * * * * * * * * * * * * * * * * * * * * * //

dimensions      [0 3 -1 0 0 0 0];
oriented        oriented;


internalField   nonuniform List<scalar> 
7354
(
-3.67883e-05
0.00993343
-0.000161811
0.0100948
0.000760073
0.00916948
-0.000366755
0.0102382
0.00120715
0.00964792
0.00285141
0.00313553
0.00317731
-0.000602184
0.0102812
0.00133741
0.0101079
0.00465469
0.00358521
0.00425962
0.00195327
0.000584668
0.00059748
0.00395852
0.000604788
0.000567332
-0.000867034
0.0102954
0.00133242
0.0102863
0.0053581
0.00460112
0.00480335
0.00558128
0.00122964
0.000732802
0.00639698
0.0017767
0.00166726
-0.000598798
0.00118347
-0.0017508
0.00235558
-0.0011667
0.010313
0.00119726
0.0104306
0.00533122
0.0103133
0.0070883
0.00203438
0.00187542
0.00713801
0.00475368
-0.00308838
0.00431803
-0.00431833
0.00473626
0.00135879
0.00166697
-0.00149911
0.0103346
0.00093118
0.0105791
0.00479682
0.0109649
-0.00980938
0.0160635
0.00532172
0.00587552
-0.00515786
0.00525362
0.00193863
0.00145383
-0.00425794
0.00231124
0.00214462
-0.00166697
0.00302577
-0.00185744
0.0103559
0.000548091
0.0107177
0.00403478
0.0113413
0.0139598
0.0130687
0.00599114
-0.00313368
0.0041875
-0.00172324
0.00621664
0.00565001
-0.0044796
0.00216031
-0.00265052
0.00182808
-0.00216031
0.00165441
-0.00223579
0.0103752
7.19427e-05
0.0108322
0.0032009
0.0115515
0.0114275
0.0138735
-0.00319149
0.00989183
0.012585
0.00218616
0.00291766
-0.000371042
-0.000545296
-0.00112873
0.00123356
0.00464469
0.000525684
-0.00262979
0.0103924
-0.000472805
0.01092
0.00234134
0.0116918
0.00898046
0.0139986
0.00897401
0.0147913
-0.00161631
0.0044879
0.0110126
-0.00129912
0.000862228
-0.000110883
0.00224008
-7.37662e-05
-0.000930901
0.000667833
-0.000107977
-0.000242637
0.00389061
0.000283047
-0.00303459
0.0104054
-0.00106492
0.0109846
0.00146355
0.0117978
0.00677579
0.0138965
0.00747169
0.0155009
0.00476082
0.0145184
0.00163854
0.00987469
-9.86506e-05
-0.000401975
-0.000638153
0.00322965
0.000576011
-1.90604e-05
0.00177178
-8.15519e-05
-8.82992e-05
0.000515148
-1.29018e-05
0.00017507
-0.00344865
0.0104171
-0.00169007
0.0110306
0.000570371
0.0118778
0.00482449
0.0137491
0.00583445
0.0155337
0.0042183
0.0160435
0.00227357
0.0138834
0.000316099
0.00916732
0.000236566
0.000154724
-0.00298893
0.00289966
-9.37513e-06
-0.000161254
0.00015601
0.00163985
-2.28772e-05
-6.44465e-06
-0.000447078
0.000388154
-2.26259e-05
-2.02274e-05
0.000143108
-0.00387076
0.0104271
-0.00233811
0.0110653
-0.000334666
0.0119356
0.00308183
0.0136205
0.00423323
0.0153503
0.00331128
0.0164407
0.00224785
0.0160692
0.000979566
0.0132199
-9.45355e-06
0.00883553
0.000110762
0.000230501
-0.00287508
0.00286188
0.000249775
0.000179294
0.00163195
3.88244e-06
-5.35616e-06
0.000367173
-1.89607e-06
0.000361777
-1.04835e-06
-0.000122881
0.000100255
-0.00429749
0.0104338
-0.00300289
0.0110919
-0.00124698
0.0119776
0.00149549
0.0135219
0.00271023
0.0151435
0.00228485
0.0163768
0.00178521
0.0169033
0.0011998
0.015849
0.000444161
0.0127662
8.70858e-05
0.00872997
-2.99885e-05
4.84895e-05
-0.00285917
0.00287161
9.83272e-05
0.000233201
-0.00171273
0.00174452
0.000112787
0.000105206
2.89328e-05
6.95785e-05
-0.000356832
0.000361318
-6.0205e-07
-4.09538e-07
9.83587e-05
9.73104e-05
-0.00473115
0.0104417
-0.00368435
0.0111153
-0.00216428
0.0120093
2.1552e-05
0.0134516
0.0012608
0.0149714
0.00123661
0.0161917
0.00111634
0.0170457
0.00100591
0.0170972
0.000678453
0.0156148
0.000319992
0.0125333
0.000106756
-6.97721e-05
0.00869301
-0.00288035
0.00271231
0.000138049
3.97516e-05
-0.0017944
0.00184976
8.11271e-06
3.48581e-05
0.000124099
5.92209e-05
-0.00045377
0.000481352
8.52048e-05
-0.000419003
7.04413e-05
0.000379562
1.06888e-05
3.01376e-05
-9.69009e-05
9.62989e-05
-0.00516724
0.0104472
-0.00437707
0.0111345
-0.00308551
0.0120366
-0.00137467
0.0134055
-0.000131957
0.0148444
0.000194137
0.0160139
0.000373544
0.0169345
0.000570142
0.0174815
0.000603285
0.0171724
0.000483085
0.0154517
0.000269243
0.0123708
-0.00204009
0.0047198
-1.10945e-05
-2.60803e-05
9.29352e-06
0.000127893
0.00855586
-0.00188447
-1.23694e-05
-5.19835e-06
7.31073e-06
-2.27129e-06
-0.000568035
0.00057292
3.22932e-06
-0.000548172
1.49952e-05
0.000524264
8.11881e-05
3.53134e-05
-0.000207567
0.000236496
5.62754e-05
-0.000137125
0.000106988
-0.00560794
0.0104537
-0.0050848
0.011155
-0.0040135
0.0120625
-0.00272607
0.0133881
-0.00148801
0.0147616
-0.000839723
0.0158782
-0.000391045
0.0167786
2.34512e-05
0.0174812
0.000300715
0.0177842
0.000440362
0.0172151
0.000403955
0.015317
0.000205737
0.0121744
0.00472863
0.000107345
1.17169e-05
-0.000872264
0.000863585
-1.49933e-06
-9.14763e-07
-0.000527273
-2.59822e-07
-1.19537e-06
-0.000369616
-2.13685e-05
0.000244109
0.00833318
-0.000571854
3.22121e-05
-0.000576778
-2.73473e-07
0.000578437
1.79367e-06
-6.11618e-07
-0.00032918
0.000332437
-2.71849e-08
-0.000316519
2.33469e-06
0.000289768
2.79167e-05
8.56369e-06
5.62754e-05
-0.00605469
0.0104608
-0.00580564
0.0111746
-0.004945
0.0120865
-0.00406272
0.0133991
-0.00282367
0.0147237
-0.00186914
0.015791
-0.00115916
0.0166463
-0.000561986
0.0173641
-0.000117375
0.0178993
0.000211148
0.0180134
0.000389337
0.0172297
0.000357722
0.0151651
0.000202359
0.0119506
0.00462676
0.000166284
0.000179709
-0.000875381
0.000955372
2.23289e-05
5.02467e-06
1.15115e-06
-1.22917e-06
-8.86373e-05
8.7138e-05
-8.9552e-05
-8.98118e-05
-9.10072e-05
-0.000334302
-3.10102e-06
6.5267e-05
4.04581e-05
0.00822752
-0.000333833
-7.41497e-07
0.000333985
2.46048e-07
-4.59932e-07
-9.50906e-05
9.50635e-05
-9.27559e-05
8.41922e-05
-0.00650653
0.0104669
-0.00653727
0.0111925
-0.0058844
0.0121141
-0.00542062
0.0134445
-0.00415898
0.0147345
-0.00289672
0.0157513
-0.00192608
0.016558
-0.00115855
0.0172429
-0.000582871
0.0178296
-0.000133045
0.0182435
0.00020762
0.0181952
0.000371301
0.0172161
0.000355063
0.0150125
0.00021966
0.0117962
0.00463926
-2.06819e-05
4.86527e-05
-0.00100716
0.00107531
2.52247e-05
7.29239e-05
7.0367e-05
5.75544e-05
-9.20847e-05
0.000114414
-8.706e-05
-8.59088e-05
-9.41081e-05
0.000140988
-8.07881e-05
0.00816738
-9.48496e-05
9.53096e-05
-0.00696662
0.0104762
-0.00728239
0.011212
-0.00683594
0.0121441
-0.00682857
0.013522
-0.00551041
0.0147959
-0.0039278
0.0157656
-0.00269169
0.0165169
-0.00175571
0.0171553
-0.00106373
0.0177238
-0.000524879
0.0182215
-8.44973e-05
0.0185356
0.000228977
0.0183376
0.000376353
0.0171948
0.000340125
0.0148921
0.000235933
0.0117013
0.00460728
-3.00823e-05
-1.87059e-05
-0.00111598
0.00110666
-7.65292e-06
-3.70294e-06
-1.4566e-06
9.44055e-06
-0.000245683
0.000263939
6.97351e-06
-0.000196224
2.34659e-05
-0.000171968
4.6112e-05
0.000127853
-7.32726e-05
0.00811284
-0.00743408
0.0104845
-0.0080329
0.0112268
-0.00780242
0.0121785
-0.00832187
0.0136375
-0.00689362
0.0149052
-0.00496203
0.0158302
-0.00345301
0.016527
-0.00235089
0.0171121
-0.00154553
0.0176371
-0.000932728
0.0181316
-0.00043135
0.0185684
-2.77491e-05
0.0187923
0.000252677
0.0184613
0.000356448
0.0171785
0.000315948
0.0148121
0.00020688
0.0116222
0.00457136
-1.66278e-05
-2.07184e-05
-0.0010941
0.00107456
-6.04957e-06
-4.48314e-06
-3.23561e-06
-2.9131e-06
-0.000269043
0.000263504
-2.10993e-06
-0.00027113
-1.61376e-06
-0.000271808
-7.77927e-07
1.57176e-06
-6.95779e-05
7.65516e-05
-4.6112e-05
2.35525e-05
3.86202e-05
0.00805067
-0.00790873
0.0104938
-0.00878403
0.0112356
-0.00879513
0.0122195
-0.00994622
0.0138028
-0.00833385
0.0150777
-0.00600734
0.0159506
-0.00421434
0.0165915
-0.00294094
0.0171172
-0.00202221
0.0175888
-0.00134071
0.0180452
-0.000795589
0.0184958
-0.000343329
0.0188841
1.86888e-05
0.0190263
0.000246661
0.0185711
0.000319637
0.0171748
0.000272128
0.0147469
0.00012217
0.0115236
0.0045867
3.06438e-05
-7.37208e-06
-0.00105828
0.00104939
-4.17168e-06
-3.56037e-06
-1.87369e-06
-2.56364e-06
-0.000255273
0.000250964
-1.73731e-06
-0.000258354
-1.40024e-06
-0.000260764
-8.25232e-07
-1.72321e-07
-7.57318e-05
7.36221e-05
-7.73455e-05
-7.81234e-05
-8.26095e-05
0.000203044
0.00793024
-0.0083897
0.010501
-0.00952635
0.0112362
-0.00983051
0.0122711
-0.0117554
0.0140288
-0.00985035
0.0153194
-0.00706765
0.016138
-0.00497589
0.0167123
-0.00352704
0.0171776
-0.00249766
0.0175927
-0.00174737
0.0179955
-0.00116126
0.0184109
-0.000680213
0.0188327
-0.00027866
0.0191815
2.92822e-05
0.0192436
0.000214655
0.0186762
0.000271655
0.0171752
0.000200078
0.014669
4.70412e-05
0.0113939
0.00454791
0.000150712
9.1115e-05
-0.00104428
0.00107199
4.29929e-06
-1.36819e-06
-4.3561e-08
-2.21716e-06
-0.000244497
0.00024169
-1.36262e-06
-0.000246947
-1.10941e-06
-0.000248321
-4.97629e-07
8.09758e-08
-7.12243e-05
6.94873e-05
-7.26246e-05
-7.34497e-05
-9.28073e-05
0.000190812
0.00783228
-0.00886917
0.0105036
-0.0102479
0.0112225
-0.0109409
0.0123467
-0.0138187
0.0143343
-0.0114666
0.0156451
-0.00814934
0.0164012
-0.00573933
0.0169015
-0.00410946
0.0172948
-0.00296787
0.0176478
-0.00214742
0.0179928
-0.00152597
0.0183602
-0.00102469
0.0187555
-0.000603066
0.0191571
-0.00025262
0.0194634
1.1244e-05
0.019447
0.000170091
0.0187778
0.000205486
0.0171698
0.000136027
0.01458
1.67563e-05
0.0112843
0.00452409
5.76263e-05
0.000157018
-0.00110961
0.00113257
6.85297e-05
5.9221e-05
3.83981e-05
1.50963e-05
-0.000238881
0.000243007
1.7293e-07
-0.000239537
-7.11858e-07
-0.000239317
-2.63733e-07
1.55844e-07
-6.79614e-05
6.65989e-05
-6.90707e-05
-6.95683e-05
-1.18088e-05
3.50982e-05
0.00780905
-0.00934279
0.0105046
-0.0109427
0.0111985
-0.0121697
0.0124513
-0.0162035
0.0147315
-0.0131901
0.0160579
-0.0092492
0.016745
-0.00649955
0.0171615
-0.00468427
0.0174763
-0.00343175
0.0177587
-0.00254459
0.018045
-0.00188675
0.0183536
-0.00136562
0.0187011
-0.000933293
0.0190857
-0.000564857
0.0194693
-0.000259214
0.0197339
-2.45588e-05
0.0196416
0.000113962
0.0188693
0.000144696
0.0171611
8.85518e-05
0.0145083
3.57241e-05
0.0112368
0.00455193
-1.64626e-05
2.37391e-05
-0.0011724
0.00120359
3.83699e-06
2.25941e-05
3.99402e-05
7.72469e-05
-0.000291694
0.000307435
5.27881e-05
-0.000272962
4.04879e-05
-0.000252147
1.75826e-05
5.95602e-06
-6.57792e-05
6.59521e-05
-6.6491e-05
-6.67548e-05
4.51887e-05
-3.84666e-05
0.00780242
-0.00980421
0.0105046
-0.0116054
0.0111672
-0.0135584
0.0125874
-0.0189548
0.0152026
-0.0149781
0.0165194
-0.0103203
0.017129
-0.00722734
0.0174727
-0.00523778
0.0177151
-0.00388388
0.0179284
-0.00293703
0.0181512
-0.00224531
0.0184035
-0.00170626
0.0186943
-0.00126541
0.0190332
-0.000888887
0.0194098
-0.000562902
0.019773
-0.000284257
0.0199937
-7.1682e-05
0.0198273
5.61121e-05
0.0189579
8.77414e-05
0.0171619
6.57434e-05
0.0144783
5.45604e-05
0.0112274
0.00454613
-2.29784e-05
-9.67729e-06
-0.00122268
0.00121734
-7.55214e-06
-3.57334e-06
-1.25019e-06
5.90456e-06
-0.000363967
0.000366256
1.54922e-06
-0.000350436
9.06278e-06
-0.000333931
2.34349e-05
5.07503e-05
-0.000129978
0.000148198
3.45674e-05
-8.94907e-05
-7.19081e-05
4.796e-05
-4.73115e-05
0.00780177
-0.0102516
0.0105073
-0.0122263
0.0111257
-0.0151086
0.0127175
-0.0220259
0.0156585
-0.0166803
0.016905
-0.0112404
0.0174395
-0.00784063
0.0177424
-0.00571891
0.0179539
-0.0042992
0.0181305
-0.00331442
0.0183058
-0.00259795
0.0185039
-0.00204496
0.0187422
-0.00159521
0.0190242
-0.00121316
0.0193574
-0.000879579
0.0197265
-0.000582839
0.0200715
-0.000326565
0.0202486
-0.000126317
0.0200097
-6.78081e-06
0.0190525
3.81889e-05
0.0171894
4.78149e-05
0.0144851
3.9921e-05
0.0112354
0.00453206
-1.85152e-05
-1.47225e-05
-0.00121121
0.00119971
-9.24012e-06
-2.22468e-06
-1.96392e-06
-1.57701e-06
-0.000368262
0.000364558
-3.84375e-06
-0.000369117
-2.71829e-06
-0.000369724
-6.41865e-07
2.43614e-06
-0.000207004
0.000208965
-4.11649e-07
-0.000199318
1.37699e-06
-0.000181681
5.7965e-06
1.72674e-05
3.45674e-05
9.16718e-07
-1.33128e-05
0.00781414
-0.0106887
0.0105053
-0.0127907
0.0110717
-0.0167273
0.0127446
-0.0252133
0.0159049
-0.0179814
0.0169595
-0.0117624
0.0174271
-0.00816975
0.0177686
-0.00602158
0.0180451
-0.00461214
0.0182668
-0.00363904
0.0184551
-0.00292669
0.0186345
-0.00237379
0.0188328
-0.00192253
0.0190695
-0.00153893
0.01935
-0.00120373
0.0196815
-0.000898443
0.0200422
-0.000619657
0.0203646
-0.000376181
0.0204985
-0.000187292
0.0201902
-6.80917e-05
0.0191588
-5.62826e-06
0.0172428
1.09426e-05
0.0145141
-1.47936e-05
0.0112511
0.0045386
-5.70143e-06
-1.41623e-05
-0.00119518
0.00118646
-9.79308e-06
-1.01874e-05
-0.000358567
0.000330168
1.91666e-05
-0.000361561
7.75543e-07
-0.00036289
-6.31998e-07
9.30695e-08
-0.000208546
0.000205997
-1.2923e-06
-0.000210492
-7.71795e-07
-0.000210853
-2.81756e-07
5.47609e-07
-5.90082e-05
5.85965e-05
-5.76313e-05
-5.18348e-05
-9.10468e-05
7.34476e-05
0.00783182
-0.0110967
0.0104499
-0.013253
0.010968
-0.0181603
0.0125047
-0.0281203
0.0156515
-0.0183323
0.0162558
-0.0114873
0.0166844
-0.00794538
0.0172027
-0.00596485
0.0177119
-0.00470781
0.0181409
-0.00384102
0.0184687
-0.00319243
0.0187209
-0.00267362
0.0189343
-0.00223763
0.0191479
-0.00186091
0.0193915
-0.00152625
0.0196725
-0.0012198
0.0200029
-0.000934558
0.0203571
-0.000670548
0.0206589
-0.000437704
0.0207489
-0.000254071
0.0203761
-0.000126527
0.0192798
-5.80436e-05
0.0173118
-4.6699e-05
0.0145461
-9.72641e-05
0.0112574
0.00458358
2.92083e-05
-6.97558e-07
-0.0011766
0.00117664
-5.74196e-06
-4.31491e-06
-0.000546761
0.00053833
-7.21561e-07
-6.38742e-07
-0.000227109
1.95661e-07
1.33879e-07
-0.000205984
-1.95259e-06
-0.000205333
1.28966e-07
-0.000205802
-1.6091e-07
2.88548e-07
-5.80905e-05
5.67984e-05
-5.88624e-05
-5.91442e-05
-0.000196428
0.000215071
0.00781331
-0.0113966
0.0102571
-0.0136034
0.0108002
-0.0190786
0.0118864
-0.0299758
0.0143603
-0.0168973
0.0142166
-0.00992802
0.0146966
-0.00685948
0.0155985
-0.00534151
0.0165795
-0.0044378
0.0174418
-0.00381099
0.0181109
-0.00331765
0.0185939
-0.00289319
0.0189405
-0.00251238
0.0192091
-0.00216583
0.0194529
-0.00184349
0.0197087
-0.00154197
0.0199948
-0.0012566
0.0203249
-0.00098332
0.0206699
-0.000728366
0.0209496
-0.000502597
0.0209975
-0.000319614
0.0205692
-0.000188314
0.0194101
-0.000119621
0.0173847
-0.000120454
0.0145693
-0.000175608
0.0112366
0.00460742
0.00012909
6.22125e-05
-0.00117514
0.00119712
7.25911e-06
8.13783e-07
-0.000534241
0.000529657
-5.71519e-07
-5.87056e-07
-1.63537e-07
-6.75934e-08
-5.47946e-05
5.40729e-05
-5.54334e-05
5.52995e-05
-5.51033e-05
-5.70553e-05
-5.69262e-05
-5.7087e-05
-0.000225179
0.000256305
0.00778233
-0.0115556
0.0100188
-0.0136012
0.00520807
0.00504727
-0.00876909
0.00568577
0.00534336
-0.0105384
-0.0153776
0.00629045
-0.014258
0.00525566
-0.00848811
0.0102944
-0.00434325
-0.00677146
0.01106
-0.0047727
0.0126099
-0.00403876
0.0142957
-0.00368424
0.0158259
-0.00343918
0.01707
-0.0032099
0.0180032
-0.00296345
0.0186642
-0.00269899
0.0191272
-0.00242339
0.0194666
-0.00214005
0.0197495
-0.00185794
0.0200246
-0.00157937
0.0203176
-0.0013066
0.0206481
-0.00104279
0.0209844
-0.000794561
0.0212415
-0.000571275
0.0212493
-0.00038401
0.0207649
-0.000251566
0.0195421
-0.000187222
0.0174515
-0.000184108
0.0145779
-0.000202407
0.0112138
0.00460179
0.00011298
0.000149009
-0.00122137
0.00125291
9.75891e-05
3.79845e-05
-0.000530535
0.00053854
-1.5893e-07
-5.69392e-07
-1.55877e-07
9.43692e-08
-5.32542e-05
5.26828e-05
-5.38415e-05
5.39091e-05
-0.000157707
0.000137014
0.00780317
-0.0115941
0.00985371
-0.0131723
0.00492808
0.00466171
-0.00848224
0.00492131
-0.00820035
0.00476529
-0.0157587
0.00606685
-0.0156157
0.00245317
0.00274719
-0.00988286
0.00426574
-0.00700439
0.00480672
-0.00781472
0.00219287
0.00257914
-0.0051484
-0.00300916
-0.0014086
0.00112622
0.00154281
-0.00143562
0.00595673
-0.000998122
-0.00123543
0.00259275
-0.000893803
-0.00207941
0.00836679
-0.00225762
0.0108288
-0.00250671
0.0131182
-0.00269799
0.0150848
-0.00279845
0.0166586
-0.00280386
0.0178436
-0.00272729
0.0186925
-0.00257947
0.0192833
-0.00237849
0.019705
-0.00214458
0.0200362
-0.00189147
0.0203367
-0.00163114
0.0206422
-0.00136812
0.0209734
-0.00111005
0.0213
-0.00086266
0.0215329
-0.000636145
0.0215014
-0.00044824
0.0209616
-0.000316848
0.0196718
-0.000244773
0.0175122
-0.000212178
0.0145877
-0.000170273
0.0112265
0.00465938
1.27703e-05
6.673e-05
-0.00127335
0.00130735
7.90004e-05
0.000128586
-0.000571721
0.000622369
3.41662e-05
1.28013e-05
5.78167e-07
4.23809e-06
-5.20523e-05
5.18948e-05
-5.26215e-05
5.25271e-05
-7.2069e-05
3.50258e-05
0.00784036
-0.0116182
0.00988798
-0.0123052
0.00453421
0.00445273
-0.00796437
0.00469221
-0.0074253
0.00412252
-0.00960027
0.00233021
0.00215262
-0.00653728
0.00105196
0.00170645
-0.00757103
0.00732603
-0.00776274
0.00288989
0.00225851
-0.00257914
0.00176284
-0.00288989
0.000354241
0.000780689
-0.000229314
0.000574882
0.00108807
0.00158695
-0.000429808
-2.02003e-05
0.00386643
3.11172e-05
0.000937071
-0.000348217
-0.000392214
0.000586503
-0.000646787
0.00675598
-0.0012353
0.0095574
-0.00172969
0.0121499
-0.00211383
0.0144002
-0.00238446
0.0162392
-0.00253521
0.0176516
-0.00257169
0.0186846
-0.00250774
0.0194126
-0.00236578
0.0199262
-0.00216915
0.0203139
-0.00194006
0.0206456
-0.00169092
0.0209651
-0.0014332
0.0212966
-0.00117693
0.0216143
-0.000928941
0.0218257
-0.000700533
0.0217538
-0.000510906
0.0211556
-0.000369396
0.0197965
-0.000276457
0.0175765
-0.00020451
0.014622
-0.000112208
0.0112667
0.00469678
-1.17561e-05
9.44407e-06
-0.0013411
0.0013495
4.40833e-06
3.29973e-05
-0.000660416
0.000713237
5.25495e-06
2.09431e-05
4.87156e-05
4.18298e-05
-6.9514e-05
0.000103682
-5.67118e-05
5.24737e-05
-1.28869e-05
-1.40865e-05
0.0078675
-0.0116694
0.00999334
-0.0114276
0.00444293
0.00456736
-0.00685423
0.00396329
-0.00617953
0.00377798
-0.00920134
0.00231032
0.0019829
-0.00807645
0.00139109
0.00160664
0.00616441
-0.00587876
0.00204457
0.00177975
0.00605629
-0.00500435
-0.0067025
0.000911244
0.000124928
0.000292489
-0.000109805
0.000434461
-5.10887e-06
1.98407e-05
0.000783242
0.000133642
2.07446e-05
0.00319894
0.000693433
0.000120946
0.000165139
-5.3612e-05
-2.52646e-05
-0.000354562
0.00587526
-0.000840452
0.00866819
-0.00132569
0.0113617
-0.00176859
0.0137844
-0.00212116
0.0158251
-0.00235982
0.0174397
-0.0024723
0.0186492
-0.00246957
0.0195165
-0.00237395
0.0201309
-0.00220767
0.0205816
-0.00199421
0.0209489
-0.00175598
0.0212879
-0.00150255
0.0216222
-0.00124476
0.0219302
-0.000992647
0.0221178
-0.00076032
0.0220033
-0.000561274
0.0213475
-0.00040537
0.0199254
-0.000285407
0.0176574
-0.000174753
0.0146846
-6.19605e-05
0.0113158
0.00470316
-1.49034e-05
-5.48081e-06
-0.00135761
0.00135315
-7.2696e-06
1.35082e-06
-0.000741557
0.000748411
-2.28022e-06
-1.4263e-07
4.71192e-06
-2.56833e-08
-0.000167851
0.000172246
8.65589e-07
-0.000151574
4.67169e-06
0.000124237
2.81628e-05
1.44959e-05
1.71245e-05
-3.4217e-05
0.00788473
-0.0116975
0.0100059
-0.0105566
0.00912251
-0.005521
0.00378448
-0.00480622
0.00385249
-0.00671458
0.00131707
0.00128425
-0.00539662
0.0012151
0.0012449
-0.00578054
0.00221211
-0.00545059
0.00165298
0.0048491
-0.00421064
0.000752636
0.00100515
-0.00625339
0.00159544
-0.00409311
1.51236e-05
1.0015e-05
2.9857e-05
0.00022966
2.44854e-05
4.46414e-05
-0.000322163
2.9076e-05
0.000974487
3.28174e-05
-4.40905e-05
0.0028885
3.16054e-06
2.52935e-05
-1.02918e-05
-2.23996e-05
-2.0917e-05
-5.69178e-06
-0.000289632
0.00532444
-0.000666584
0.00800912
-0.0011158
0.0107089
-0.00156547
0.0132287
-0.0019565
0.0154218
-0.00224321
0.0172107
-0.00240825
0.0185878
-0.00245309
0.0195957
-0.00239298
0.0203162
-0.00225323
0.0208407
-0.00205617
0.021249
-0.00182193
0.0216074
-0.00157004
0.0219475
-0.0013088
0.0222464
-0.00105088
0.0224084
-0.00081188
0.0222539
-0.000601699
0.0215439
-0.000427111
0.0200672
-0.00027617
0.0177589
-0.000140361
0.0147631
-3.21918e-05
0.0113652
0.00469487
-1.49872e-05
-1.0878e-05
-0.00135111
0.0013447
-8.45167e-06
-3.41427e-06
-0.000750394
0.000746504
-2.12807e-06
-1.22945e-06
2.94724e-07
-9.16926e-07
-0.000176256
0.000174785
-8.0133e-07
-0.000176197
-1.94615e-07
0.000176192
7.70542e-07
-2.74659e-08
-4.7331e-05
4.81975e-05
-4.26589e-05
2.8163e-05
2.42347e-05
-3.8852e-05
0.00789946
-0.0117335
0.0100282
-0.00977437
0.00922363
0.00284198
-0.0048757
0.00304656
0.00330359
-0.00394423
0.0011588
0.00117323
0.00145728
0.00129295
-0.00358979
0.000696207
-0.00297151
0.000665978
0.00235762
-0.00173929
0.000596739
0.000630999
-0.00653897
0.00249769
-0.00488597
0.00388082
-0.00312819
-0.00249769
-9.0244e-06
1.11118e-05
2.51961e-05
1.04241e-05
7.55032e-05
-3.99448e-05
-1.25359e-05
2.66707e-06
3.39621e-06
1.64038e-05
0.00092904
-1.50347e-05
0.000101688
2.53065e-06
4.11452e-06
-6.42374e-05
0.00266313
-4.07176e-05
3.93701e-06
9.77654e-06
5.69178e-06
-2.66084e-05
-0.000260229
0.00491811
-0.00059151
0.0074849
-0.00100871
0.0101522
-0.00145028
0.0127226
-0.00185132
0.0150298
-0.0021668
0.0169693
-0.00236793
0.0185027
-0.00244798
0.0196508
-0.00241925
0.0204822
-0.0022988
0.0210834
-0.00211399
0.0215411
-0.00188657
0.021924
-0.00163085
0.0222696
-0.00136607
0.0225617
-0.00110357
0.0227001
-0.000853345
0.0225056
-0.000629184
0.021746
-0.000431498
0.0202226
-0.000258662
0.0178772
-0.000116115
0.014847
-2.36273e-05
0.0114131
0.00468378
-1.37236e-05
-1.39828e-05
-0.00133861
0.00133248
-8.8231e-06
-4.77412e-06
-0.000743765
0.000738401
-1.82174e-06
-1.23938e-06
-2.70473e-08
-6.35024e-07
-0.000173262
0.000171898
-7.57319e-07
-0.000174207
-2.78005e-07
0.000174922
1.61688e-07
-1.97726e-07
-4.87471e-05
4.7947e-05
-4.89411e-05
4.89686e-05
9.46798e-06
-2.90557e-05
0.00791918
-0.0117944
0.0100617
-0.00918031
0.00943436
-0.00344488
0.0077927
0.00347077
-0.000521187
-0.00156949
0.00089873
0.00076759
0.00419407
0.00258027
-0.00114111
0.000560612
-0.000525156
0.000557262
-1.00503e-05
0.000946133
0.000757742
-0.00243199
-0.00176601
0.00113501
-0.000538288
-1.54964e-05
-5.07182e-06
-6.07471e-06
-2.52151e-06
-1.22124e-06
3.88863e-06
2.17535e-06
0.000112135
5.39732e-06
5.64168e-07
5.27763e-06
0.000881036
-2.14954e-05
0.000110033
-4.90641e-06
-8.02023e-06
4.70655e-06
9.15257e-06
-3.28222e-07
-7.42461e-05
0.00247719
-1.36724e-06
-0.000262285
0.00458891
-0.000568053
0.0070443
-0.000959657
0.00966153
-0.00138116
0.0122525
-0.00178304
0.0146461
-0.0021143
0.0167158
-0.00234152
0.0183962
-0.00245155
0.0196831
-0.00244616
0.0206296
-0.00234534
0.0213148
-0.00217068
0.0218252
-0.0019437
0.0222369
-0.00168818
0.0225917
-0.00141643
0.0228746
-0.00114342
0.0229902
-0.000884398
0.0227609
-0.000642504
0.021957
-0.000426965
0.0203909
-0.000244037
0.0180052
-0.000109003
0.0149324
-3.71616e-05
0.0114598
0.00468024
-1.00808e-05
-1.53485e-05
-0.00132417
0.00131931
-8.83871e-06
-5.65873e-06
-0.000734397
0.000728639
-1.73685e-06
-1.30717e-06
-1.70521e-07
-5.86911e-07
-0.00017022
0.000169083
-6.76017e-07
-0.000171217
-2.34541e-07
0.000171708
1.69003e-07
-1.38915e-07
-4.76341e-05
4.68781e-05
-4.79115e-05
4.81092e-05
-2.83933e-05
2.61772e-06
0.0079451
-0.0118851
0.0100988
-0.00876505
0.00964633
-0.00288574
0.00887541
-0.00339313
0.00825784
0.00318916
0.00393276
-0.00133725
0.000713841
-0.00148143
0.00238015
-0.000713841
0.000911701
0.00065559
2.22852e-05
0.000579508
1.36724e-06
1.31292e-05
1.42318e-06
1.4116e-05
-4.22025e-07
0.000109272
5.62259e-06
4.2119e-07
-9.49731e-07
0.000832234
-2.44664e-05
0.00011066
-2.28756e-05
1.19617e-05
-2.75078e-06
9.61752e-06
-5.67317e-06
-3.28133e-07
-0.000101987
0.00231696
-0.000284085
0.00430497
-0.000571032
0.00665571
-0.00093378
0.00921414
-0.00134053
0.01181
-0.00173817
0.0142699
-0.00207768
0.016452
-0.00232296
0.0182676
-0.00245505
0.0196921
-0.00247218
0.0207564
-0.00238611
0.0215303
-0.00222005
0.0221016
-0.00199651
0.0225453
-0.00173683
0.0229121
-0.0014593
0.0231905
-0.00117727
0.0232831
-0.000902857
0.0230213
-0.000647684
0.0221778
-0.000419694
0.0205666
-0.000236971
0.0181332
-0.000116795
0.0150121
-6.87132e-05
0.0115001
0.00469572
5.0702e-07
-1.32953e-05
-0.00130995
0.00130797
-8.05515e-06
-5.96515e-06
-0.000723932
0.000718182
-1.66544e-06
-1.40416e-06
-3.33822e-07
-6.10508e-07
-0.000167269
0.000166192
-6.52779e-07
-0.000168331
-2.38918e-07
0.000168771
1.46671e-07
-1.41255e-07
-4.66751e-05
4.60006e-05
-4.69089e-05
4.70478e-05
-9.17644e-05
7.19223e-05
0.00796506
-0.0120038
0.0101316
-0.00850156
0.00983547
-0.00274543
0.00950597
0.00736695
0.00976628
0.00186153
-0.000541051
0.00227132
-0.000402643
0.0022291
0.00356518
-0.00038938
0.000760029
0.00026621
1.09507e-06
6.73104e-07
1.03845e-05
4.85836e-06
9.94006e-06
8.67042e-07
0.000106915
2.80437e-06
-1.33612e-05
0.000778098
-3.44569e-05
0.000102793
-2.0329e-05
-5.48798e-07
-7.57383e-06
-3.07129e-06
-1.73673e-06
-2.07747e-06
-7.75033e-06
-0.00013815
0.00217109
-0.000314897
0.00404884
-0.000578958
0.00630093
-0.000925519
0.00879914
-0.00131487
0.0113868
-0.00170439
0.0138966
-0.00204809
0.0161772
-0.00230737
0.0181199
-0.00245668
0.0196767
-0.00249095
0.0208613
-0.00242093
0.0217313
-0.00226161
0.0223667
-0.0020398
0.0228483
-0.00177591
0.0232288
-0.00149024
0.0235035
-0.00119904
0.0235793
-0.000912996
0.0232866
-0.000645171
0.0224033
-0.000413847
0.0207435
-0.000238404
0.0182548
-0.00013593
0.0150793
-0.000112781
0.0115212
0.00473196
3.45488e-05
1.2122e-06
-0.0012997
0.00130477
-4.52579e-06
-5.00441e-06
-0.000713332
0.000708354
-1.56939e-06
-1.47941e-06
-5.00053e-07
-6.0135e-07
-0.000164156
0.000163135
-6.37253e-07
-0.000165302
-2.54117e-07
0.000165751
1.10087e-07
-1.59111e-07
-4.57686e-05
4.5117e-05
-4.60068e-05
4.6148e-05
-0.000154884
0.000173477
0.00794661
-0.01215
0.0101623
-0.00835918
0.00998907
-0.00280083
0.00989105
0.00598524
0.0108876
-0.00162107
0.0048026
0.00881379
0.00103932
0.00165802
-0.000180137
-0.000245908
-0.000141375
0.000498762
0.00298343
0.000124835
-1.43343e-06
-1.45688e-06
-1.11428e-06
-2.49525e-06
-1.8856e-06
-3.82771e-07
9.6594e-05
-7.14757e-06
-2.3853e-05
0.000725943
-6.21106e-05
8.83799e-05
-2.62196e-05
-1.11178e-05
-6.48937e-06
-5.20665e-06
4.30779e-06
-7.37877e-06
2.57113e-06
-0.00017503
0.00203125
-0.000335643
0.00380553
-0.00059376
0.00596924
-0.000923063
0.00840735
-0.00129781
0.0109803
-0.00167901
0.0135275
-0.00202263
0.0158925
-0.00229116
0.0179544
-0.00245538
0.0196412
-0.0025049
0.0209453
-0.00244499
0.0219147
-0.00229283
0.0226198
-0.00207227
0.0231447
-0.00180635
0.0235449
-0.00151296
0.0238175
-0.00120986
0.0238762
-0.000912731
0.0235542
-0.000638152
0.0226276
-0.000407658
0.0209128
-0.000242778
0.0183617
-0.000156427
0.015123
-0.000141238
0.0115076
0.00473709
0.000110584
5.78389e-05
-0.00130398
0.00132569
1.28766e-05
2.03206e-06
-0.000704558
0.00070288
-1.24762e-06
-1.57301e-06
-6.63132e-07
-5.29746e-07
-0.000160938
0.000160002
-6.23985e-07
-0.000162143
-2.66204e-07
0.000162566
7.50137e-08
-1.73417e-07
-4.48146e-05
4.41786e-05
-4.50683e-05
4.52275e-05
-0.000150267
0.000191955
0.00790502
-0.0123174
0.0101852
-0.00830672
0.01011
-0.00295873
0.0101469
0.00457852
0.0112978
0.00477105
0.0109191
-0.00094169
0.00283836
0.00751681
-0.000599529
0.000463134
-5.38981e-05
0.00126503
-1.61987e-05
-0.000377686
0.000197549
-0.000124835
0.00250488
-1.45685e-06
-9.26414e-06
-6.94999e-06
-2.69533e-06
-1.48434e-05
-5.67467e-07
-2.846e-06
7.70198e-05
-1.24783e-05
-0.000116177
0.000667119
4.93438e-05
-3.44114e-05
-2.33343e-05
-9.28521e-06
-8.43559e-06
9.76251e-06
-1.38966e-05
-2.35158e-06
-2.39123e-06
-0.000190284
0.00188594
-0.000361628
0.00357346
-0.000606795
0.00565307
-0.000923368
0.00803293
-0.00128411
0.0105855
-0.0016548
0.0131597
-0.0019979
0.0155994
-0.00226997
0.017769
-0.00244562
0.019582
-0.00250831
0.0210086
-0.00245952
0.0220814
-0.00231543
0.022863
-0.00209606
0.0234345
-0.0018252
0.0238572
-0.00152435
0.024132
-0.00121117
0.0241747
-0.000905219
0.0238213
-0.000627232
0.0228472
-0.000400515
0.0210705
-0.000242792
0.0184481
-0.00015802
0.0151398
-0.000118957
0.0114764
0.00471106
9.43525e-05
0.000123691
-0.00134074
0.00136195
8.94141e-05
4.28084e-05
-0.000705494
0.000718375
1.18267e-06
-1.16031e-06
-7.29863e-07
1.61039e-07
-0.000157686
0.000157037
-5.89669e-07
-0.000158971
-2.79885e-07
0.000159308
3.80073e-08
-1.88023e-07
-4.38157e-05
4.31935e-05
-4.4081e-05
4.42545e-05
-6.00335e-05
7.78808e-05
0.0078873
-0.0125015
0.0102022
-0.00831545
0.0101938
-0.00316854
0.0103199
0.00331262
0.0114127
0.00422186
0.0118469
0.00340644
0.0103511
0.00161476
0.00641792
-0.000227374
-0.000288408
-0.000242061
0.00214744
0.000143652
0.00104322
-8.5848e-06
-1.16461e-05
0.000127453
-2.69521e-06
-1.47506e-05
2.88887e-07
-1.54943e-05
-2.09886e-06
-2.58491e-05
-3.96559e-06
-5.9873e-06
3.00644e-05
-1.22117e-05
-5.95386e-05
-2.51272e-05
-0.000109437
0.0005863
-3.01781e-05
1.8028e-05
-2.10111e-05
-6.2972e-06
-5.89725e-06
5.08644e-06
-7.43772e-06
-0.000215851
0.00174024
-0.000379333
0.00334605
-0.000619964
0.00534975
-0.00092228
0.00767111
-0.0012694
0.0102002
-0.00163152
0.0127934
-0.00196877
0.0152983
-0.00224539
0.0175688
-0.00242986
0.0195036
-0.00250382
0.021053
-0.00246566
0.0222317
-0.00232646
0.0230934
-0.00210716
0.0237165
-0.00183222
0.0241651
-0.00152345
0.0244443
-0.00120245
0.024472
-0.000891104
0.0240852
-0.000610682
0.0230574
-0.000383573
0.0212113
-0.00022354
0.0185137
-0.000121336
0.0151422
-3.92642e-05
0.0114557
0.004724
6.87262e-06
5.81426e-05
-0.0013726
0.00139044
7.65373e-05
0.000113059
-0.000746273
0.000775387
3.92224e-05
2.11049e-05
3.17065e-06
1.17542e-05
-0.000155636
0.000157075
-2.47074e-07
-0.000156584
-2.06383e-07
0.000156292
2.13282e-08
-1.26628e-07
-4.27654e-05
4.21774e-05
-4.30444e-05
4.32324e-05
5.63521e-05
-3.82194e-05
0.00786928
-0.0126945
0.0102109
-0.0083565
0.0102433
-0.00339789
0.0104231
0.00223005
0.0114025
0.00349366
0.012141
0.00336241
0.011891
0.00242649
0.00953947
0.00115524