/*--------------------------------*- C++ -*----------------------------------*\
| =========                 |                                                 |
| \\      /  F ield         | OpenFOAM: The Open Source CFD Toolbox           |
|  \\    /   O peration     | Version:  v1912                                 |
|   \\  /    A nd           | Website:  www.openfoam.com                      |
|    \\/     M anipulation  |                                                 |
\*---------------------------------------------------------------------------*/
FoamFile
{
    version     2.0;
    format      ascii;
    class       volScalarField;
    location    "70";
    object      p;
}
// * * * * * * * * * * * * * * * * * * * * * * * * * * * * * * * * * * * * * //

dimensions      [0 2 -2 0 0 0 0];


internalField   nonuniform List<scalar> 
3675
(
0.204373
0.202136
0.210793
0.197654
0.208028
0.229081
0.191234
0.202564
0.224807
0.262215
0.183281
0.194855
0.216588
0.25469
0.316347
0.174241
0.18547
0.20536
0.240694
0.301395
0.403083
0.164559
0.175005
0.192192
0.222379
0.275219
0.370943
0.513234
0.494863
0.154648
0.16401
0.178073
0.202025
0.243193
0.320456
0.461747
0.406752
0.612155
0.584207
0.14487
0.152958
0.163793
0.181442
0.210421
0.260575
0.34939
0.530735
0.471245
0.685846
0.672157
0.611284
0.648325
0.135531
0.142237
0.149935
0.161731
0.180002
0.207265
0.237959
0.316406
0.216074
0.573759
0.504871
0.415921
0.719183
0.700927
0.601484
0.653847
0.126885
0.132157
0.136909
0.143489
0.152894
0.164259
0.16361
0.0612328
0.138781
0.175165
-0.00649708
0.575205
0.474958
0.224388
0.243841
0.119134
0.122961
0.124997
0.127032
0.129246
0.129297
0.113076
0.0182956
-0.347728
-0.289326
-0.0630299
-0.0551041
-0.2891
-0.268524
0.547892
0.344531
0.165333
0.112444
0.114837
0.114387
0.1125
0.108947
0.100795
0.0757049
-0.00462682
-0.309321
-0.562363
-0.398371
-0.485208
-0.202654
-0.307878
0.106944
0.10793
0.105199
0.099929
0.0917448
0.0776929
0.0476451
-0.0225265
-0.23481
-0.463139
-0.538941
-0.60769
-0.552768
-0.498452
-0.572701
0.10274
0.10235
0.0975171
0.0892911
0.0773391
0.0590029
0.026373
-0.0369925
-0.188089
-0.37534
-0.425734
-0.498898
-0.577143
-0.510062
-0.57263
0.0999181
0.0981912
0.0913977
0.0805394
0.0654406
0.0438789
0.00990015
-0.0479167
-0.161185
-0.30595
-0.379725
-0.398375
-0.446346
-0.462909
-0.476626
-0.517406
-0.535655
0.098553
0.095524
0.086886
0.0736269
0.0558005
0.0316625
-0.00312483
-0.0564045
-0.14592
-0.260613
-0.337345
-0.373879
-0.383103
-0.412455
-0.426158
-0.450313
-0.493676
-0.480874
0.0987031
0.0944163
0.0840198
0.0685197
0.0482185
0.0218558
-0.0136033
-0.0634038
-0.137489
-0.230557
-0.303609
-0.346613
-0.371
-0.369816
-0.38632
-0.395727
-0.41618
-0.434709
-0.457857
-0.453813
0.100427
0.0949232
0.0828438
0.0651989
0.0425537
0.0140949
-0.0221503
-0.0694989
-0.133399
-0.210886
-0.277874
-0.322485
-0.352756
-0.363327
-0.359284
-0.370092
-0.376546
-0.388133
-0.398775
-0.413248
-0.421678
-0.442655
-0.432384
-0.459182
-0.447077
0.103764
0.097102
0.0834049
0.0636764
0.0387131
0.00812879
-0.0291933
-0.0750676
-0.132261
-0.19871
-0.259386
-0.303539
-0.335258
-0.352546
-0.355192
-0.351385
-0.359146
-0.363818
-0.371428
-0.378346
-0.386533
-0.391607
-0.403646
-0.397071
-0.414018
-0.422192
-0.442863
-0.432911
0.108756
0.100998
0.085763
0.0639856
0.0366649
0.00379024
-0.0350242
-0.0803651
-0.133283
-0.192017
-0.247014
-0.28965
-0.321266
-0.341492
-0.349087
-0.348672
-0.344855
-0.351084
-0.354814
-0.360235
-0.365099
-0.37054
-0.373861
-0.381323
-0.377277
-0.387046
-0.391945
-0.404104
-0.397657
0.115418
0.106658
0.0899837
0.0662001
0.0364275
0.00100313
-0.0398442
-0.0855864
-0.136053
-0.189495
-0.239682
-0.280209
-0.310964
-0.332184
-0.342702
-0.345193
-0.34298
-0.338835
-0.344412
-0.347736
-0.352016
-0.355782
-0.359748
-0.362114
-0.367214
-0.364483
-0.370971
-0.374161
-0.381646
-0.377708
0.123757
0.114109
0.0961475
0.0704201
0.038087
-0.000234055
-0.0437645
-0.090873
-0.1404
-0.19038
-0.236627
-0.274733
-0.304118
-0.325205
-0.33721
-0.341658
-0.34104
-0.337379
-0.332674
-0.338333
-0.34155
-0.345269
-0.348522
-0.351736
-0.35361
-0.357435
-0.355409
-0.360142
-0.36241
-0.367519
-0.364868
0.133738
0.123371
0.104335
0.0767933
0.0417884
0.000164618
-0.0468441
-0.0963549
-0.146313
-0.194289
-0.237362
-0.272901
-0.30052
-0.320751
-0.333209
-0.338765
-0.339334
-0.336392
-0.331645
-0.32667
-0.332008
-0.335546
-0.3392
-0.342228
-0.345072
-0.34674
-0.349945
-0.348259
-0.352122
-0.353911
-0.357738
-0.355779
0.145298
0.134426
0.114636
0.0854986
0.0477644
0.00237123
-0.049065
-0.102149
-0.153933
-0.201131
-0.241648
-0.274519
-0.300015
-0.318848
-0.330989
-0.336958
-0.338207
-0.335928
-0.331399
-0.326278
-0.323075
-0.327275
-0.328448
-0.333121
-0.336382
-0.338957
-0.340609
-0.343542
-0.341965
-0.345459
-0.347041
-0.35025
-0.348628
0.158301
0.14722
0.12712
0.0967666
0.0563349
0.00667774
-0.05035
-0.108386
-0.163572
-0.211094
-0.249463
-0.279508
-0.302508
-0.319475
-0.330665
-0.336453
-0.337909
-0.336027
-0.331768
-0.326502
-0.32222
-0.31742
-0.322421
-0.325273
-0.328376
-0.328249
-0.333218
-0.334951
-0.337635
-0.336054
-0.33933
-0.340879
-0.343836
-0.342336
0.172551
0.16163
0.141841
0.11086
0.067943
0.0135077
-0.0504908
-0.115184
-0.175771
-0.224673
-0.261025
-0.287918
-0.307979
-0.322616
-0.3323
-0.337357
-0.338573
-0.336762
-0.332653
-0.327254
-0.322011
-0.316743
-0.311139
-0.316544
-0.319378
-0.322909
-0.32601
-0.328622
-0.330067
-0.331152
-0.326389
-0.334265
-0.335243
-0.337838
-0.336398
0.187741
0.177455
0.158788
0.128075
0.0831695
0.0234799
-0.0491424
-0.122669
-0.191401
-0.24272
-0.276797
-0.299931
-0.31648
-0.328284
-0.335939
-0.339751
-0.340291
-0.338202
-0.33404
-0.328508
-0.322596
-0.316632
-0.310493
-0.304961
-0.310477
-0.313415
-0.31707
-0.319912
-0.322665
-0.323971
-0.326945
-0.325651
-0.329213
-0.333457
-0.334209
-0.323916
0.203462
0.194361
0.177874
0.1487
0.102731
0.0375136
-0.0456806
-0.130987
-0.211867
-0.266572
-0.297512
-0.315864
-0.328136
-0.336525
-0.341625
-0.343695
-0.343136
-0.340418
-0.335949
-0.330211
-0.323847
-0.317258
-0.310512
-0.304305
-0.297986
-0.304288
-0.307352
-0.311083
-0.31404
-0.31685
-0.318257
-0.321054
-0.31972
-0.322973
-0.324329
-0.327358
-0.325876
-0.328959
-0.333057
-0.320399
0.219173
0.211867
0.198841
0.173006
0.127394
0.0568857
-0.0389614
-0.140505
-0.239562
-0.298243
-0.324207
-0.336164
-0.343142
-0.34742
-0.349401
-0.349237
-0.347163
-0.343472
-0.338427
-0.332332
-0.325591
-0.318517
-0.311235
-0.304268
-0.297988
-0.292265
-0.293276
-0.300767
-0.305132
-0.308023
-0.310823
-0.312316
-0.315251
-0.313804
-0.317193
-0.318612
-0.321436
-0.320061
-0.323285
-0.324624
-0.327562
-0.326119
0.234247
0.229299
0.221138
0.201041
0.158186
0.0831314
-0.0269833
-0.152155
-0.278665
-0.340834
-0.358281
-0.361408
-0.36175
-0.361078
-0.359317
-0.35641
-0.352408
-0.347411
-0.34152
-0.334881
-0.327724
-0.320245
-0.312542
-0.304943
-0.297865
-0.29154
-0.292842
-0.285531
-0.303417
-0.301684
-0.304749
-0.306257
-0.309219
-0.30772
-0.311153
-0.312643
-0.315611
-0.314147
-0.31752
-0.318911
-0.321754
-0.320379
0.247996
0.245826
0.243772
0.232241
0.196585
0.119291
-0.00779664
-0.168279
-0.336235
-0.399024
-0.401625
-0.392327
-0.384281
-0.377638
-0.37142
-0.365235
-0.358893
-0.352262
-0.345261
-0.337882
-0.330204
-0.322319
-0.314266
-0.306213
-0.29849
-0.291365
-0.284984
-0.286141
-0.291821
-0.295731
-0.279417
-0.300559
-0.302533
-0.298099
-0.305143
-0.306543
-0.309545
-0.308037
-0.31146
-0.312916
-0.315913
-0.314459
0.259772
0.260527
0.265297
0.26506
0.243238
0.172481
0.020926
-0.19419
-0.423924
-0.478835
-0.456588
-0.429816
-0.411159
-0.397266
-0.385759
-0.375721
-0.366621
-0.358036
-0.349672
-0.341356
-0.333026
-0.324674
-0.316277
-0.307888
-0.2997
-0.29196
-0.284898
-0.278744
-0.280289
-0.285528
-0.2886
-0.291366
-0.293287
-0.295088
-0.296809
-0.27331
-0.298756
-0.300772
-0.305903
-0.303663
-0.305343
-0.306761
-0.309815
-0.30832
0.269016
0.27256
0.284047
0.2967
0.295508
0.246579
0.0733113
-0.237334
-0.557771
-0.586206
-0.524913
-0.474595
-0.442859
-0.420176
-0.402385
-0.387862
-0.375577
-0.364728
-0.354758
-0.345313
-0.336192
-0.327283
-0.3185
-0.309811
-0.301287
-0.293084
-0.285421
-0.278551
-0.272527
-0.27432
-0.279611
-0.282636
-0.285226
-0.286831
-0.288188
-0.289645
-0.266898
-0.303369
-0.303498
0.275339
0.281272
0.298562
0.323479
0.346837
0.331542
0.175693
-0.295782
-0.738605
-0.721021
-0.603626
-0.526086
-0.479357
-0.446491
-0.421335
-0.401644
-0.38573
-0.37231
-0.360505
-0.349752
-0.339703
-0.330137
-0.3209
-0.311893
-0.303097
-0.294564
-0.286433
-0.278939
-0.272246
-0.266179
-0.268093
-0.273483
-0.276652
-0.279281
-0.280897
-0.282255
-0.283645
-0.260233
0.278527
0.286293
0.307875
0.342408
0.387763
0.42211
0.282545
0.384055
-0.128574
-0.0645153
0.295522
-0.798649
-0.520706
-0.940553
-0.853288
-0.940883
-0.676645
-0.578913
-0.518775
-0.475598
-0.442456
-0.417014
-0.397039
-0.380742
-0.366882
-0.354656
-0.34355
-0.33323
-0.323463
-0.314091
-0.305028
-0.296248
-0.287797
-0.279825
-0.272532
-0.265953
-0.259972
-0.260596
-0.267362
-0.270536
-0.273059
-0.274775
-0.276201
-0.277657
-0.255633
0.278562
0.287534
0.311665
0.352024
0.412069
0.490554
0.462445
0.535548
0.404409
0.125434
-0.0328888
-0.409416
-0.341691
0.161271
-0.779064
-0.703211
-0.601097
-1.1607
-0.849914
-0.927791
-0.919299
-0.723567
-0.88901
-1.02038
-0.617951
-0.555181
-0.504795
-0.464801
-0.433686
-0.409404
-0.389968
-0.373849
-0.359996
-0.347716
-0.336549
-0.326179
-0.316387
-0.30703
-0.298026
-0.289351
-0.281062
-0.273302
-0.266206
-0.259851
-0.254762
-0.256649
-0.260958
-0.262073
-0.267382
-0.26883
-0.2699
-0.271395
-0.249658
0.275565
0.285159
0.310176
0.352481
0.418574
0.520129
0.585456
0.628174
0.502985
0.593423
0.364101
0.204728
-0.0809037
-0.103097
-1.02828
-0.974311
-0.962471
-0.782535
-0.633489
-0.726109
-0.912755
-0.872484
-0.578809
-0.528428
-0.485682
-0.450639
-0.422473
-0.399861
-0.381342
-0.365729
-0.352172
-0.340079
-0.329038
-0.31877
-0.30908
-0.299841
-0.290978
-0.282478
-0.274404
-0.266879
-0.260051
-0.254252
-0.248913
-0.250451
-0.255652
-0.25861
-0.261021
-0.26301
-0.260294
-0.265472
-0.243309
0.269782
0.279496
0.304073
0.345226
0.409189
0.514069
0.637778
0.616984
0.667814
0.639753
0.74405
0.36907
0.472975
0.688733
0.665817
0.578987
0.335032
0.0264465
-1.00414
-0.975034
-0.803495
-0.768867
-0.662256
-0.587297
-0.626759
-0.74059
-0.708231
-0.915623
-0.872879
-0.541321
-0.500858
-0.465595
-0.435244
-0.410045
-0.389222
-0.371794
-0.356882
-0.343793
-0.332025
-0.32123
-0.311166
-0.301667
-0.292616
-0.283953
-0.275677
-0.267851
-0.260604
-0.254178
-0.248404
-0.242673
-0.244063
-0.249436
-0.252453
-0.255144
-0.256623
-0.258136
-0.259469
-0.260807
-0.263243
-0.257892
-0.237317
0.261518
0.270972
0.294184
0.332265
0.389053
0.47608
0.607307
0.743685
0.715647
0.748278
0.807164
0.803998
0.738263
-0.797319
-0.766489
-0.672509
-0.649808
-0.597629
-0.545435
-0.574595
-0.635285
-0.6175
-0.737446
-0.705856
-0.508116
-0.475751
-0.445858
-0.419621
-0.397129
-0.378051
-0.361785
-0.34766
-0.335119
-0.323755
-0.313281
-0.303491
-0.294238
-0.285423
-0.277001
-0.26898
-0.261429
-0.254511
-0.248239
-0.242254
-0.236669
-0.238072
-0.243224
-0.246228
-0.248986
-0.250562
-0.252034
-0.253475
-0.255403
-0.256868
-0.258227
-0.259508
-0.231522
0.251116
0.260037
0.281331
0.315429
0.363513
0.429163
0.507855
0.599052
0.515648
0.789625
0.764392
0.684322
0.732374
0.7787
-0.67047
-0.647998
-0.601524
-0.586261
-0.553049
-0.509915
-0.534001
-0.572557
-0.635149
-0.616491
-0.480427
-0.452522
-0.427172
-0.4043
-0.38417
-0.366751
-0.351628
-0.338295
-0.326331
-0.315414
-0.305307
-0.29583
-0.286859
-0.278313
-0.270156
-0.262406
-0.255147
-0.248438
-0.242125
-0.236236
-0.230872
-0.232252
-0.237227
-0.240176
-0.242791
-0.244347
-0.245798
-0.247284
-0.249252
-0.250813
-0.252216
-0.253635
-0.225822
0.238915
0.24713
0.266228
0.296131
0.335865
0.384359
0.429196
0.369124
0.624547
0.411627
0.43437
0.321644
0.746084
0.652366
-0.641751
-0.600048
-0.590318
-0.551242
-0.516201
-0.481297
-0.501393
-0.532946
-0.566288
-0.577975
-0.631628
-0.614565
-0.455212
-0.431643
-0.409702
-0.38952
-0.371488
-0.355579
-0.341505
-0.328934
-0.317554
-0.307106
-0.297388
-0.288246
-0.279578
-0.271315
-0.263434
-0.255959
-0.248931
-0.2423
-0.236088
-0.230414
-0.225184
-0.226531
-0.231381
-0.234279
-0.236791
-0.23831
-0.239723
-0.24118
-0.24303
-0.244563
-0.245951
-0.247412
-0.220239
0.225242
0.232653
0.249457
0.27537
0.307875
0.343637
0.369553
0.320446
0.139654
0.161666
0.564426
0.32905
0.152461
0.156243
-0.598355
-0.588828
-0.554511
-0.544967
-0.514679
-0.486925
-0.455216
-0.47324
-0.500624
-0.528394
-0.536418
-0.433297
-0.412764
-0.393349
-0.375493
-0.359266
-0.344647
-0.331523
-0.319683
-0.308881
-0.298903
-0.289579
-0.280782
-0.272424
-0.264448
-0.256839
-0.249605
-0.242728
-0.236229
-0.230222
-0.224715
-0.219609
-0.220926
-0.225658
-0.228503
-0.230946
-0.232434
-0.233817
-0.235242
-0.237019
-0.238511
-0.239858
-0.241284
-0.214778
0.210402
0.21695
0.231444
0.253806
0.280452
0.307048
0.321875
0.284595
0.146126
0.100924
0.103152
0.110107
0.158725
0.115681
-0.517135
-0.510841
-0.485512
-0.460231
-0.43306
-0.448
-0.472164
-0.495795
-0.503506
-0.41387
-0.395334
-0.378239
-0.362304
-0.347513
-0.334008
-0.321766
-0.310619
-0.300369
-0.290852
-0.281919
-0.273465
-0.265412
-0.257716
-0.250356
-0.243315
-0.236604
-0.230305
-0.224489
-0.219129
-0.214158
-0.215442
-0.220056
-0.222848
-0.225227
-0.226683
-0.228039
-0.229437
-0.231166
-0.232626
-0.233945
-0.235336
-0.209439
0.194695
0.200295
0.212465
0.231823
0.254008
0.274277
0.282811
0.254655
0.160858
0.102604
0.0985509
0.0825666
0.095864
0.104904
0.0878579
-0.513652
-0.509666
-0.487769
-0.48091
-0.459151
-0.437201
-0.413085
-0.426761
-0.446968
-0.467971
-0.474608
-0.494908
-0.502348
-0.395896
-0.379554
-0.364341
-0.349798
-0.336212
-0.323724
-0.312289
-0.301781
-0.292059
-0.282984
-0.274432
-0.266309
-0.258548
-0.251111
-0.24397
-0.237122
-0.230615
-0.22452
-0.21887
-0.213666
-0.208827
-0.210078
-0.214576
-0.217314
-0.219628
-0.221054
-0.222384
-0.223755
-0.225438
-0.226867
-0.22816
-0.229526
-0.204214
0.178244
0.182944
0.192595
0.209589
0.228638
0.244821
0.250209
0.229047
0.165746
0.115856
0.0976955
0.091568
0.0891957
0.0895915
0.0871664
0.076265
-0.486693
-0.48022
-0.46118
-0.455055
-0.436291
-0.416499
-0.395229
-0.404498
-0.426059
-0.443052
-0.449331
-0.467279
-0.47368
-0.379761
-0.365311
-0.351252
-0.337898
-0.325417
-0.313828
-0.30311
-0.293197
-0.283974
-0.27532
-0.267128
-0.259315
-0.251827
-0.244627
-0.2377
-0.231065
-0.224767
-0.218857
-0.213379
-0.208327
-0.203605
-0.204831
-0.209216
-0.211901
-0.214153
-0.215546
-0.21685
-0.218194
-0.21983
-0.22123
-0.222497
-0.223838
-0.199097
0.160965
0.165088
0.171726
0.187087
0.20426
0.218119
0.222403
0.207041
0.163636
0.124192
0.105516
0.090572
0.0869036
0.0919321
0.083319
0.0876024
0.0839078
0.0862756
0.0828078
-0.460159
-0.454472
-0.438077
-0.432768
-0.415679
-0.393304
-0.379082
-0.408693
-0.422656
-0.427831
-0.442407
-0.449328
-0.365462
-0.351858
-0.338882
-0.326664
-0.315117
-0.304302
-0.294245
-0.284884
-0.276126
-0.267864
-0.260006
-0.252481
-0.245245
-0.238276
-0.231572
-0.225152
-0.219052
-0.213324
-0.208015
-0.203096
-0.198481
-0.199704
-0.203973
-0.206609
-0.208798
-0.210161
-0.211438
-0.212756
-0.214346
-0.215715
-0.216957
-0.218271
-0.194075
0.145959
0.146124
0.149753
0.16423
0.180732
0.193655
0.198162
0.187762
0.158031
0.127521
0.109971
0.0944442
0.0830403
0.0835519
0.0869105
0.0845736
0.0847224
0.0835697
0.0812189
0.0832602
-0.438062
-0.432194
-0.416992
-0.4111
-0.397046
-0.377673
-0.38826
-0.364987
-0.40677
-0.422014
-0.427103
-0.44016
-0.351772
-0.339176
-0.327345
-0.316022
-0.30526
-0.295155
-0.285699
-0.276845
-0.268514
-0.260612
-0.253061
-0.245803
-0.238811
-0.232075
-0.225595
-0.219383
-0.213472
-0.207922
-0.202767
-0.19797
-0.193449
-0.194731
-0.198834
-0.201435
-0.203561
-0.204896
-0.206147
-0.207439
-0.208984
-0.210323
-0.21154
-0.212827
-0.189052
0.145664
0.124305
0.126906
0.141222
0.158074
0.171076
0.17665
0.170573
0.150597
0.127698
0.112065
0.0975381
0.0847767
0.0770005
0.0790336
0.0821597
0.0820657
0.0842421
0.0821058
0.0831134
0.0827153
0.0819101
-0.436778
-0.431429
-0.41666
-0.413381
-0.398026
-0.393785
-0.380056
-0.363951
-0.373319
-0.389861
-0.386306
-0.351154
-0.407817
-0.402987
-0.421377
-0.426303
-0.338883
-0.327512
-0.316465
-0.305879
-0.29585
-0.286382
-0.277466
-0.269073
-0.261131
-0.253558
-0.246288
-0.239286
-0.232537
-0.226035
-0.219772
-0.213756
-0.20803
-0.202651
-0.197638
-0.192955
-0.188522
-0.189666
-0.193848
-0.19639
-0.198426
-0.199741
-0.200971
-0.202241
-0.203741
-0.205051
-0.206243
-0.207505
-0.184345
0.163136
0.102442
0.10397
0.119363
0.136889
0.150421
0.157419
0.155122
0.142317
0.125659
0.112451
0.0996433
0.0869922
0.0780031
0.071411
0.0741621
0.0772175
0.0781893
0.0807257
0.0805803
0.0814831
0.0827131
0.0820652
0.0808695
0.0818129
-0.415941
-0.412351
-0.380821
-0.378292
-0.366321
-0.350111
-0.359235
-0.374688
-0.370986
-0.33812
-0.327249
-0.316482
-0.306106
-0.296252
-0.286872
-0.277957
-0.26953
-0.261556
-0.253967
-0.246693
-0.23969
-0.23294
-0.226434
-0.220158
-0.2141
-0.208275
-0.202729
-0.197511
-0.192639
-0.188093
-0.18389
-0.184815
-0.188766
-0.191438
-0.193422
-0.194725
-0.195903
-0.197154
-0.198604
-0.199892
-0.201063
-0.202302
-0.180116
0.0939963
0.0831004
0.101497
0.118889
0.132437
0.140542
0.141321
0.133885
0.122216
0.111478
0.100544
0.0889971
0.0795979
0.0722545
0.0654626
0.0691116
0.0722265
0.0736401
0.0762807
0.0769984
0.078165
0.0801934
0.0792096
0.0799774
0.0808251
0.0816829
0.0812538
-0.378688
-0.377477
-0.367228
-0.363804
-0.352366
-0.337018
-0.345737
-0.360472
-0.356881
-0.374266
-0.370625
-0.326662
-0.31614
-0.305963
-0.296338
-0.287112
-0.278272
-0.269862
-0.261879
-0.254283
-0.247011
-0.240017
-0.233275
-0.226775
-0.220505
-0.214443
-0.208581
-0.202939
-0.197568
-0.192512
-0.1878
-0.183471
-0.179545
-0.180683
-0.184275
-0.186179
-0.188402
-0.189772
-0.190957
-0.192195
-0.193589
-0.19486
-0.195994
-0.19721
-0.175613
0.068406
0.0897844
0.106441
0.118614
0.126702
0.129437
0.125851
0.11807
0.109616
0.100431
0.0902944
0.081256
0.0736834
0.0670999
0.0640895
0.0627529
0.0665395
0.0691984
0.0716124
0.0725148
0.0738359
0.0761701
0.0749567
0.0766513
0.0777645
0.0796362
0.0787814
-0.366471
-0.363243
-0.353226
-0.349962
-0.339024
-0.325793
-0.333249
-0.346947
-0.343585
-0.360139
-0.356596
-0.315521
-0.305508
-0.296135
-0.287095
-0.278369
-0.270027
-0.262079
-0.254498
-0.247238
-0.24026
-0.233536
-0.227051
-0.220795
-0.214748
-0.208888
-0.203212
-0.197751
-0.192554
-0.187671
-0.183161
-0.179047
-0.175095
-0.176103
-0.179841
-0.182109
-0.183951
-0.185041
-0.186214
-0.186528
-0.18927
-0.190024
-0.191067
-0.192218
-0.171151
0.0832057
0.10001
0.110131
0.116871
0.120066
0.118775
0.113795
0.107289
0.0996525
0.0909003
0.082556
0.0752006
0.0687076
0.0646403
0.0604805
0.0627556
0.0644659
0.0605324
0.0667261
0.0680916
0.0694778
0.0716401
0.070299
0.0722726
0.0735126
0.0757749
0.0746816
-0.352486
-0.349428
-0.340071
-0.336658
-0.32775
-0.314618
-0.321686
-0.334325
-0.331403
-0.346563
-0.343335
-0.304792
-0.295688
-0.286847
-0.278242
-0.269995
-0.262128
-0.254599
-0.247369
-0.240417
-0.233719
-0.227257
-0.221021
-0.214995
-0.209156
-0.203487
-0.197993
-0.192713
-0.187695
-0.183003
-0.178679
-0.174619
-0.170663
-0.171625
-0.17531
-0.177516
-0.179409
-0.180529
-0.181676
-0.182771
-0.184081
-0.185343
-0.186921
-0.186231
-0.166879
0.0976262
0.106285
0.111293
0.113729
0.113221
0.109896
0.104848
0.0984926
0.0909773
0.0834223
0.0764688
0.0701082
0.0652768
0.0609895
0.0565937
0.0587805
0.0605718
0.0624925
0.0646848
0.0647351
0.0573709
0.0675523
0.0674492
0.0678611
0.0690332
0.0712732
0.0700677
-0.340001
-0.336021
-0.3285
-0.325555
-0.31634
-0.303857
-0.310949
-0.32246
-0.318622
-0.33453
-0.331152
-0.295032
-0.286416
-0.277915
-0.269769
-0.26201
-0.254563
-0.24739
-0.240482
-0.233821
-0.227392
-0.221182
-0.215181
-0.209368
-0.203722
-0.198236
-0.192926
-0.187826
-0.182992
-0.178472
-0.174247
-0.170217
-0.166397
-0.167348
-0.170904
-0.17306
-0.174917
-0.176033
-0.177123
-0.178216
-0.179529
-0.180655
-0.181743
-0.182861
-0.184131
-0.185256
-0.186686
-0.184929
-0.162746
0.105203
0.108904
0.110223
0.109482
0.106777
0.102593
0.0971854
0.0906879
0.0838911
0.0774023
0.071281
0.0660599
0.061468
0.0570013
0.0531815
0.0553119
0.0569785
0.0584018
0.0601469
0.0615163
0.0624467
0.064875
0.0640091
0.0539782
0.0665816
0.0681062
-0.334615
-0.32797
-0.325097
-0.315423
-0.305707
-0.294199
-0.300384
-0.310312
-0.322391
-0.320425
-0.333821
-0.330638
-0.285808
-0.277427
-0.269373
-0.261732
-0.254385
-0.24729
-0.240446
-0.233838
-0.227452
-0.221278
-0.215303
-0.209517
-0.2039
-0.19844
-0.193136
-0.188008
-0.183086
-0.178415
-0.174017
-0.169862
-0.165954
-0.162274
-0.163199
-0.166638
-0.168743
-0.170526
-0.171619
-0.172677
-0.173757
-0.175039
-0.176156
-0.177218
-0.178321
-0.179632
-0.180744
-0.181843
-0.18294
-0.158721
0.108182
0.108614
0.107301
0.104582
0.100739
0.0959163
0.0901808
0.0840398
0.0780044
0.0721863
0.0668832
0.0620829
0.0575077
0.053555
0.0501023
0.0521318
0.0536944
0.0550407
0.0566956
0.057827
0.0585938
0.0603211
0.0594567
-0.327487
-0.324749
-0.316407
-0.313604
-0.305094
-0.295798
-0.284993
-0.2911
-0.299675
-0.308525
-0.31121
-0.321987
-0.31972
-0.276796
-0.268834
-0.261321
-0.254079
-0.247065
-0.240299
-0.233762
-0.227435
-0.221304
-0.215363
-0.209603
-0.204013
-0.198583
-0.193306
-0.188184
-0.18323
-0.178469
-0.173933
-0.169635
-0.165597
-0.161834
-0.158266
-0.15916
-0.162494
-0.164548
-0.166265
-0.16733
-0.168358
-0.169413
-0.170641
-0.171731
-0.172767
-0.173853
-0.175135
-0.176236
-0.177323
-0.178418
-0.154808
0.107866
0.106056
0.103111
0.0993133
0.0947865
0.0895686
0.083952
0.0783195
0.072808
0.0676004
0.0627537
0.0581305
0.0540118
0.0504535
0.0473542
0.047932
0.0506846
0.0519926
0.053471
0.0545004
0.0552487
0.0569259
0.0560817
-0.305735
-0.303252
-0.295321
-0.286504
-0.275996
-0.28189
-0.290574
-0.297897
-0.300974
-0.268159
-0.260801
-0.253665
-0.246727
-0.240041
-0.233586
-0.227332
-0.221257
-0.215357
-0.209627
-0.204062
-0.198659
-0.193413
-0.188319
-0.183373
-0.178581
-0.17396
-0.169538
-0.16536
-0.161474
-0.157837
-0.154363
-0.15524
-0.158463
-0.160466
-0.16213
-0.163167
-0.164165
-0.165192
-0.166377
-0.167436
-0.168441
-0.169497
-0.170731
-0.171803
-0.172864
-0.17394
0.105166
0.101995
0.0981676
0.0937812
0.0889006
0.0836855
0.0783964
0.0731674
0.0681303
0.0633558
0.0587745
0.0545582
0.0508448
0.0476028
0.0448113
0.0463912
0.0477119
0.0468111
0.0447457
0.0510239
0.0514455
0.0521116
0.0536648
0.0528827
-0.296168
-0.29361
-0.28585
-0.277471
-0.267364
-0.273072
-0.281325
-0.288947
-0.2913
-0.296763
-0.260176
-0.253172
-0.246293
-0.239679
-0.233312
-0.22714
-0.221132
-0.215281
-0.209587
-0.204048
-0.198668
-0.19345
-0.18839
-0.183475
-0.178694
-0.174043
-0.169544
-0.165247
-0.161224
-0.157476
-0.153943
-0.156497
-0.158106
-0.159117
-0.16009
-0.16109
-0.16224
-0.163269
-0.164245
-0.165271
-0.166462
-0.167502
-0.168533
-0.169577
0.100956
0.0970705
0.092798
0.088152
0.0832515
0.0782602
0.0732927
0.0684514
0.0638112
0.0593434
0.055133
0.0513208
0.0479425
0.0450245
0.0424257
0.0438543
0.0452132
0.0459471
0.0464994
0.0471018
0.0474913
0.0477303
0.053749
0.0508918
0.0502028
-0.295628
-0.293132
-0.286485
-0.284221
-0.27686
-0.268829
-0.259437
-0.264552
-0.272586
-0.279797
-0.282061
-0.288605
-0.290905
-0.252622
-0.245775
-0.239229
-0.232947
-0.226859
-0.22092
-0.215125
-0.209475
-0.203968
-0.198611
-0.193416
-0.188388
-0.183513
-0.178769
-0.174132
-0.169607
-0.165235
-0.16109
-0.157215
-0.153589
-0.156113
-0.157095
-0.158213
-0.159216
-0.160167
-0.161167
-0.162322
-0.163333
-0.164334
-0.165347
0.095911
0.0916982
0.0872695
0.0826278
0.0779086
0.073194
0.0685601
0.0640855
0.0597693
0.0556503
0.051822
0.0483419
0.0452631
0.0425122
0.0399654
0.0414776
0.0428357
0.0434582
0.0440785
0.0447025
0.045389
0.045876
0.0463897
0.046913
0.047296
0.0474888
0.0505413
-0.286099
-0.283916
-0.277486
-0.275298
-0.268321
-0.260684
-0.251688
-0.25671
-0.264039
-0.271095
-0.273276
-0.279495
-0.281701
-0.245217
-0.238696
-0.232505
-0.2265
-0.220618
-0.214878
-0.20928
-0.203817
-0.198487
-0.193314
-0.188313
-0.183479
-0.178782
-0.174188
-0.16968
-0.165281
-0.161052
-0.157062
-0.153325
-0.156192
-0.157169
-0.158293
-0.159279
-0.160254
-0.16124
0.090457
0.0861664
0.0817916
0.0773249
0.0728612
0.0684519
0.0641631
0.060017
0.0560378
0.0522752
0.0487712
0.0455803
0.0426861
0.0399291
0.0366118
0.0392429
0.040564
0.0410548
0.0417149
0.0422873
0.0429732
0.0434214
0.0440125
0.0446062
0.0452668
0.0458179
0.046299
0.0468114
0.0471374
-0.277111
-0.275007
-0.268922
-0.26681
-0.260212
-0.252649
-0.24446
-0.247551
-0.256329
-0.262533
-0.264787
-0.270788
-0.272906
-0.238093
-0.231985
-0.22607
-0.220234
-0.214538
-0.208995
-0.203585
-0.198293
-0.193144
-0.188167
-0.183369
-0.178723
-0.174186
-0.169723
-0.165338
-0.161073
-0.156999
-0.153159
-0.156274
-0.157239
0.0848808
0.0806948
0.0765069
0.0722857
0.0681138
0.0640315
0.0600705
0.0562531
0.052612
0.0491672
0.0459525
0.0429892
0.0402077
0.037485
0.0368218
0.035602
0.0376282
0.0389297
0.0396248
0.039957
0.0406543
0.0410323
0.041645
0.0421919
0.04284
0.0433785
0.0439411
0.0445661
0.0451972
-0.268524
-0.266551
-0.260772
-0.258848
-0.252437
-0.243258
-0.237368
-0.249604
-0.254998
-0.256937
-0.262168
-0.264819
-0.23138
-0.22558
-0.219781
-0.214116
-0.208619
-0.203266
-0.198022
-0.192908
-0.187955
-0.183188
-0.17859
-0.174115
-0.169714
-0.165371
-0.161111
-0.156994
-0.153077
0.0793946
0.0754125
0.0714756
0.067537
0.0636779
0.0599177
0.0562779
0.0527877
0.0494576
0.046302
0.0433473
0.040611
0.0381864
0.0369899
0.0353374
0.0363446
0.0367454
0.036683
0.0344092
0.0372256
0.0385029
0.0390565
0.0394938
0.0398654
0.0404874
0.040996
0.0415786
0.0421557
0.0427672
-0.260816
-0.258585
-0.252948
-0.251082
-0.244585
-0.236497
-0.241015
-0.230652
-0.247073
-0.249543
-0.25468
-0.256626
-0.26112
-0.225027
-0.219272
-0.213627
-0.208166
-0.202867
-0.197677
-0.192604
-0.187682
-0.182943
-0.178387
-0.173972
-0.169641
-0.165359
-0.161132
-0.15701
-0.153049
0.0741188
0.0704009
0.0667394
0.0631024
0.0595508
0.0561041
0.0527812
0.0495952
0.0465527
0.0436722
0.0409931
0.0386379
0.0370643
0.0354566
0.0332428
0.0345206
0.0353156
0.0358744
0.0361764
0.0367037
0.0369469
0.0388181
0.0320029
0.0394712
0.0386151
0.0389606
0.0393406
0.0398152
0.0404056
-0.260261
-0.258206
-0.252657
-0.250787
-0.247916
-0.245184
-0.243354
-0.237603
-0.229843
-0.234206
-0.24171
-0.239834
-0.224393
-0.249078
-0.25437
-0.256268
-0.218707
-0.213091
-0.207662
-0.202413
-0.197268
-0.192238
-0.187351
-0.182643
-0.178125
-0.173763
-0.169502
-0.165289
-0.161115
-0.157014
-0.153039
0.069132
0.065687
0.0623193
0.0589749
0.055729
0.0525851
0.049559
0.0466567
0.0438917
0.041295
0.0389615
0.0371412
0.0354589
0.0333797
0.0314704
0.0326534
0.033481
0.0341959
0.0345348
0.0349569
0.0353494
0.0357426
0.0360843
0.0365902
0.0372889
0.0291311
0.0393152
0.0381752
-0.252331
-0.250537
-0.247318
-0.237952
-0.236302
-0.230719
-0.223656
-0.227773
-0.234768
-0.23336
-0.21806
-0.248776
-0.212517
-0.207126
-0.201933
-0.196826
-0.191831
-0.186977
-0.182302
-0.177814
-0.173497
-0.169299
-0.165159
-0.161047
-0.156985
-0.153023
0.0644553
0.0612987
0.058213
0.0551599
0.0521998
0.0493435
0.0465924
0.0439623
0.0414737
0.0391862
0.0372378
0.0354673
0.0334945
0.0316191
0.0299258
0.0309517
0.0317365
0.0323816
0.0327449
0.0331814
0.0336585
0.0341796
0.0345126
0.0348987
0.0353046
-0.23102
-0.229937
-0.224616
-0.21729
-0.22139
-0.22831
-0.22667
-0.2119
-0.206554
-0.201447
-0.196383
-0.191412
-0.186583
-0.181936
-0.177473
-0.173189
-0.169042
-0.16497
-0.160925
-0.156913
-0.152977
0.0601105
0.0572294
0.0544164
0.0516361
0.0489502
0.0463564
0.0438704
0.0415036
0.0392921
0.0373072
0.0354827
0.0335872
0.0317516
0.0300866
0.0284809
0.029411
0.030149
0.0306974
0.0310344
0.0314417
0.0318952
0.0323632
0.0327152
0.0331405
0.0336376
-0.229995
-0.229519
-0.225
-0.22344
-0.21823
-0.21121
-0.215122
-0.221891
-0.220264
-0.228067
-0.226446
-0.205914
-0.200938
-0.195944
-0.190999
-0.186191
-0.181565
-0.177121
-0.172857
-0.168745
-0.164729
-0.16075
-0.156793
-0.152892
0.0560911
0.0534702
0.0509191
0.0483943
0.045956
0.043616
0.0413764
0.039262
0.0373047
0.0354747
0.0336429
0.0318573
0.0302116
0.0286383
0.0271164
0.027981
0.0286817
0.0291617
0.0294936
0.0298602
0.0302767
0.0306698
0.0309958
0.0313912
0.031854
-0.22465
-0.223152
-0.218618
-0.217097
-0.21212
-0.205211
-0.209123
-0.21563
-0.214047
-0.221697
-0.220079
-0.200381
-0.195486
-0.190591
-0.185814
-0.18121
-0.176779
-0.172521
-0.168423
-0.164445
-0.160524
-0.156625
-0.152764
0.0523835
0.0500115
0.0476961
0.0454083
0.0432092
0.0410984
0.0390906
0.0372007
0.0354105
0.0336456
0.0319197
0.0302994
0.028754
0.0272657
0.0258315
0.0266304
0.0273082
0.0277485
0.0280587
0.0283955
0.0287976
0.0291356
0.0294537
0.02981
0.0302275
-0.218279
-0.216826
-0.212477
-0.210993
-0.206131
-0.199768
-0.203216
-0.209604
-0.208071
-0.215435
-0.213865
-0.19496
-0.190153
-0.185432
-0.180866
-0.176454
-0.172192
-0.16809
-0.16413
-0.160252
-0.156408
-0.152591
0.0489757
0.0468277
0.0447378
0.0426697
0.0406831
0.0387847
0.0369825
0.0352609
0.0335768
0.0319242
0.0303449
0.0288306
0.0273706
0.0259731
0.0246163
0.0253548
0.0260136
0.0264134
0.0267065
0.027038
0.0274038
0.0277263
0.0280214
0.0283431
0.0287478
-0.21214
-0.210724
-0.206513
-0.205073
-0.200622
-0.194324
-0.197814
-0.203563
-0.202378
-0.209385
-0.207869
-0.189646
-0.185011
-0.180503
-0.176132
-0.171871
-0.167751
-0.16379
-0.159938
-0.156141
-0.15237
0.0458441
0.0439083
0.0420168
0.0401491
0.038359
0.0366515
0.0350131
0.0334191
0.0318537
0.0303362
0.0288651
0.0274349
0.026061
0.0247413
0.023444
0.0241308
0.0247873
0.0251466
0.0254362
0.0257495
0.0260982
0.0263946
0.0266707
0.0269879
0.027352
-0.206199
-0.205058
-0.201003
-0.199607
-0.195124
-0.189022
-0.192303
-0.198234
-0.196821
-0.203372
-0.202409
-0.184513
-0.180072
-0.175776
-0.171532
-0.1674
-0.163425
-0.159584
-0.155822
-0.152097
0.0429735
0.0412229
0.0395196
0.0378323
0.0362166
0.0346683
0.0331654
0.0316937
0.0302551
0.0288456
0.0274585
0.0261088
0.0248011