/*--------------------------------*- C++ -*----------------------------------*\
| =========                 |                                                 |
| \\      /  F ield         | OpenFOAM: The Open Source CFD Toolbox           |
|  \\    /   O peration     | Version:  v1912                                 |
|   \\  /    A nd           | Website:  www.openfoam.com                      |
|    \\/     M anipulation  |                                                 |
\*---------------------------------------------------------------------------*/
FoamFile
{
    version     2.0;
    format      ascii;
    class       volScalarField;
    location    "40";
    object      p;
}
// * * * * * * * * * * * * * * * * * * * * * * * * * * * * * * * * * * * * * //

dimensions      [0 2 -2 0 0 0 0];


internalField   nonuniform List<scalar> 
3753
(
0.000920285
0.00111163
0.000744297
0.00132003
0.000926437
0.000652708
0.00149232
0.00111829
0.000824308
0.000619867
0.00160173
0.00126461
0.000998215
0.000779775
0.000629094
0.00167252
0.00135324
0.00112026
0.00094366
0.000777412
0.000648721
0.00171817
0.0014115
0.0011886
0.00105608
0.000931734
0.000784704
0.000648152
0.00175647
0.00146741
0.00123758
0.0011108
0.00103468
0.000931329
0.000772663
0.000616805
0.00177007
0.00152885
0.0012984
0.00114607
0.0010799
0.0010328
0.000912454
0.000731231
0.00054353
0.001765
0.00157577
0.0013768
0.0011988
0.00110465
0.00107788
0.00101532
0.000863116
0.000651817
0.000428923
0.00174489
0.00159985
0.00145133
0.00127521
0.00114417
0.00109421
0.00106343
0.000964059
0.000778645
0.000537172
0.000283193
0.00171032
0.0015916
0.0015058
0.00134862
0.00120188
0.00111639
0.00107764
0.00101499
0.000880836
0.000661295
0.000393597
0.00012522
0.00168426
0.00154133
0.00154046
0.00139608
0.00124835
0.00115014
0.00108762
0.00103171
0.00093667
0.000759592
0.000519547
0.000240983
-3.81746e-05
0.00143423
0.00156201
0.00179795
0.00153839
0.00140641
0.0012577
0.00116701
0.00109771
0.00103662
0.000956341
0.000818974
0.000621816
0.000369116
8.38974e-05
-0.000192124
0.00148676
0.00146405
0.00132809
0.00161263
0.0018187
0.00138794
0.0012334
0.00114751
0.0010856
0.00103317
0.00096059
0.000847288
0.000682353
0.00046681
0.000214888
-6.48198e-05
-0.000334077
0.00131922
0.00138512
0.00144952
0.00139257
0.00114861
0.00158264
0.00169774
0.00173679
0.00117757
0.00108874
0.00103388
0.00100023
0.000948807
0.000857153
0.000712178
0.000523997
0.000311128
6.67413e-05
-0.000200494
-0.000459923
0.00110148
0.00119129
0.00124385
0.00131636
0.00143071
0.0014075
0.00142509
0.00150821
0.000760592
0.00164913
0.00167548
0.00172204
0.0010122
0.000956867
0.000928859
0.000903942
0.000847643
0.000728823
0.000555961
0.000362899
0.000155997
-6.76791e-05
-0.000323286
-0.000559112
0.000924293
0.000993916
0.00105235
0.00112456
0.00120212
0.00124286
0.001265
0.00137669
0.00135183
0.00145156
0.00194606
0.00193943
0.000207993
0.00154999
0.00163077
0.0016973
0.000862404
0.00082851
0.000819591
0.000802632
0.000727221
0.000579585
0.000392536
0.000198008
1.55582e-05
-0.000187694
-0.000419009
-0.000644954
0.000765713
0.000823959
0.000880215
0.000933902
0.00101153
0.00107439
0.00109376
0.00118044
0.00115161
0.00120468
0.00124893
0.00136528
0.0013005
0.00186959
-0.000496446
0.000728728
0.000719189
0.000719075
0.000690274
0.000591498
0.000421429
0.000221654
4.68198e-05
-0.000107931
-0.000283515
-0.000502536
-0.000715117
0.000628967
0.000662958
0.000717492
0.000763725
0.000839332
0.000882695
0.000906242
0.00099143
0.000965418
0.00104551
0.00108469
0.00116731
0.00112458
0.000614136
0.000611759
0.000613925
0.000571647
0.000445678
0.00025407
6.21077e-05
-8.70894e-05
-0.000209312
-0.000362886
-0.000572256
-0.000778297
0.000515674
0.000530682
0.000580968
0.000604803
0.000675901
0.000710944
0.000736727
0.000824805
0.000786599
0.000861891
0.000886965
0.000976983
0.000944605
0.00051106
0.000522764
0.00051391
0.000443131
0.00029425
9.59184e-05
-8.15798e-05
-0.000197167
-0.000288658
-0.000433055
-0.000637033
-0.000845141
0.000416794
0.000420094
0.000461931
0.000479501
0.000536386
0.00055478
0.00057877
0.000657617
0.000623832
0.000692055
0.000713125
0.000806438
0.000763907
0.00042957
0.000431983
0.000404224
0.000313835
0.000144888
-5.17055e-05
-0.000203255
-0.000285759
-0.000361917
-0.000498977
-0.000702585
-0.000902998
0.000340882
0.000326997
0.00036831
0.000369777
0.000413041
0.000433448
0.000451189
0.000518473
0.000481695
0.000534097
0.000558517
0.000635906
0.000604099
0.000349102
0.000342777
0.000295893
0.000180731
1.39058e-06
-0.000184041
-0.000306535
-0.000366708
-0.000430192
-0.000565159
-0.000764909
-0.0009555
0.000261831
0.000252038
0.000286965
0.000278875
0.000321273
0.000319183
0.00034146
0.00039037
0.000367012
0.000412183
0.000430683
0.000497103
0.000457806
0.000267272
0.000245693
0.000180147
4.52446e-05
-0.000136312
-0.000302989
-0.000401253
-0.000442383
-0.000500146
-0.000633555
-0.000820225
-0.00100206
0.000185611
0.00017518
0.000211308
0.00019962
0.000235785
0.000233854
0.00024719
0.000295249
0.000272531
0.000297227
0.000318841
0.000370391
0.000347982
0.000180509
0.000144682
5.35029e-05
-9.43118e-05
-0.000271358
-0.000416225
-0.00048882
-0.000517039
-0.000573488
-0.000696391
-0.000872375
-0.00104079
9.7614e-05
9.39975e-05
0.000133302
0.000122085
0.000162595
0.000146122
0.000170881
0.000205553
0.000185708
0.000211682
0.000221643
0.000273622
0.00024916
8.06435e-05
2.39208e-05
-8.51574e-05
-0.000240937
-0.000403508
-0.000520509
-0.000573785
-0.000596384
-0.000644824
-0.00075819
-0.000916179
-0.00107206
6.8642e-07
4.26423e-06
4.9508e-05
3.81961e-05
8.24314e-05
6.99164e-05
8.80183e-05
0.000131601
0.000109408
0.000122494
0.000150608
0.000184285
0.0001568
-3.09102e-05
-0.000108571
-0.000236956
-0.000390918
-0.00053011
-0.000620154
-0.000658138
-0.000674168
-0.000718092
-0.000812069
-0.000951892
-0.00109503
-0.000108531
-9.14269e-05
-4.61147e-05
-5.00591e-05
-4.91295e-07
-1.55836e-05
6.60588e-06
4.77665e-05
2.90146e-05
4.54511e-05
6.27328e-05
0.000104502
8.00867e-05
-0.00015981
-0.000260925
-0.000401325
-0.000541882
-0.00064625
-0.000711639
-0.000740557
-0.000754611
-0.000783603
-0.000858135
-0.000979022
-0.00111126
-0.000229163
-0.000199319
-0.000146398
-0.000141201
-9.66377e-05
-9.96117e-05
-8.14237e-05
-3.61856e-05
-5.36647e-05
-4.30949e-05
-1.41511e-05
1.67564e-05
3.05319e-06
-0.000301195
-0.000428203
-0.000573136
-0.000677238
-0.000747077
-0.000796612
-0.000823152
-0.000827613
-0.000841377
-0.000893959
-0.000997852
-0.001115
-0.000363128
-0.000316581
-0.000259458
-0.000244969
-0.000191683
-0.000189446
-0.000172914
-0.000127151
-0.000147361
-0.000125671
-0.000103111
-6.80496e-05
-7.96779e-05
-0.000463556
-0.000614075
-0.000730148
-0.000787751
-0.000833287
-0.000879169
-0.000899599
-0.000893035
-0.000887836
-0.000920248
-0.0010029
-0.00110913
-0.000508811
-0.00045028
-0.00037958
-0.000356472
-0.000297845
-0.000291869
-0.000266844
-0.000216175
-0.000242492
-0.000216105
-0.000194931
-0.00015607
-0.000168114
-0.000639932
-0.000796958
-0.000849495
-0.000870948
-0.000915112
-0.000955991
-0.000966148
-0.000948619
-0.000925797
-0.000931044
-0.000999108
-0.00108714
-0.000663639
-0.000593644
-0.000514129
-0.000481661
-0.000413906
-0.000397152
-0.000374609
-0.000318045
-0.000340053
-0.00031524
-0.000285165
-0.000238841
-0.000264353
-0.000852786
-0.000933077
-0.000919388
-0.000949885
-0.000994132
-0.00102235
-0.00102441
-0.000994375
-0.000947008
-0.000932219
-0.000980614
-0.00105328
-0.000859641
-0.000748751
-0.000656095
-0.00061634
-0.000545544
-0.0005215
-0.00048858
-0.000427088
-0.000457505
-0.000416064
-0.000390819
-0.000336821
-0.000355696
-0.00103705
-0.000967881
-0.000991035
-0.00103418
-0.00106193
-0.00107862
-0.00107278
-0.00102629
-0.000954981
-0.000919584
-0.000949081
-0.0010067
-0.00115184
-0.000916396
-0.00081428
-0.000763688
-0.000686578
-0.000650508
-0.000617747
-0.000551529
-0.000582464
-0.000539413
-0.000499226
-0.000443347
-0.000473607
-0.00102219
-0.00102453
-0.00108424
-0.0011081
-0.00111687
-0.00112601
-0.00111065
-0.00104246
-0.000950942
-0.000893138
-0.000907757
-0.000945163
-0.00108419
-0.00130629
-0.00105782
-0.00088651
-0.000834877
-0.000798884
-0.000756255
-0.000686716
-0.000727854
-0.000662266
-0.00062515
-0.000562983
-0.00059132
-0.00104012
-0.00113006
-0.00116808
-0.00116534
-0.00116299
-0.00116497
-0.00113475
-0.00104785
-0.000932869
-0.000859101
-0.000852674
-0.000870555
-0.00107726
-0.00105617
-0.00113653
-0.00150273
-0.000975278
-0.000950669
-0.000895155
-0.000833414
-0.000881611
-0.000801651
-0.000764287
-0.000695832
-0.000735361
-0.00116261
-0.00122821
-0.00123197
-0.00121469
-0.00120475
-0.00119633
-0.00114856
-0.00103998
-0.000907055
-0.000811454
-0.000782979
-0.000783753
-0.00119532
-0.00116162
-0.00113343
-0.00105803
-0.00115158
-0.00187949
-0.00088047
-0.000933052
-0.000946554
-0.000961146
-0.000917875
-0.000840696
-0.000882292
-0.00127227
-0.00129772
-0.00128818
-0.00126161
-0.0012417
-0.0012189
-0.00115287
-0.00102192
-0.000868231
-0.000749798
-0.000703599
-0.000685327
-0.00131092
-0.00125535
-0.00122696
-0.00119495
-0.0011553
-0.00112664
-0.00111187
-0.000825769
-0.00106749
-0.00252288
-0.000905739
-0.000988598
-0.000974076
-0.00135563
-0.00136688
-0.00134579
-0.00130604
-0.00127428
-0.00123481
-0.00114466
-0.00099557
-0.000818292
-0.000679597
-0.000610785
-0.000573322
-0.00140456
-0.00135679
-0.00132183
-0.00127939
-0.00124133
-0.00121199
-0.00121029
-0.00118025
-0.00119171
-0.00143022
-0.00143427
-0.00139952
-0.00135
-0.00130248
-0.00124084
-0.00113226
-0.000958484
-0.000758986
-0.000594653
-0.000506098
-0.000451814
-0.00149125
-0.00145832
-0.0014192
-0.00138293
-0.00133509
-0.00129936
-0.00128262
-0.00124035
-0.00125876
-0.00151234
-0.00150142
-0.00145573
-0.00139189
-0.00132516
-0.00124361
-0.00110919
-0.000910683
-0.000683813
-0.000497318
-0.000392341
-0.000317928
-0.00157771
-0.00155245
-0.0015126
-0.00148671
-0.00143742
-0.00141026
-0.00138879
-0.00133089
-0.00135823
-0.00158485
-0.00156392
-0.00150764
-0.00142945
-0.00134355
-0.00123611
-0.00107615
-0.000848304
-0.000595085
-0.000391248
-0.000268254
-0.000172448
-0.00165403
-0.00164055
-0.0016037
-0.00158102
-0.00153509
-0.00151067
-0.00148998
-0.00143837
-0.00146394
-0.00165427
-0.00162575
-0.00155975
-0.00146279
-0.00135411
-0.00122043
-0.00102864
-0.000769759
-0.000495264
-0.000276438
-0.000134737
-1.07285e-05
-0.00172215
-0.00171523
-0.00167944
-0.00166842
-0.00162893
-0.00160579
-0.00158679
-0.00153723
-0.00156307
-0.00171586
-0.00168355
-0.0016033
-0.00148986
-0.00135454
-0.00118789
-0.000962146
-0.000676243
-0.000386447
-0.000153834
1.07978e-05
0.000164882
-0.00178394
-0.00178094
-0.00174875
-0.00173973
-0.00170475
-0.00169763
-0.00167229
-0.00162995
-0.00165542
-0.00177838
-0.00173725
-0.00164577
-0.00150621
-0.00133846
-0.00113621
-0.00087637
-0.000569649
-0.000269426
-2.39826e-05
0.000169434
0.000354253
-0.0018438
-0.00184046
-0.0018083
-0.00180481
-0.00177491
-0.00176201
-0.00174501
-0.00170893
-0.00173104
-0.00183269
-0.00178628
-0.00167388
-0.00150521
-0.00130131
-0.0010621
-0.000773397
-0.000454323
-0.000147395
0.000117703
0.000340395
0.000552966
-0.00190072
-0.00189962
-0.0018679
-0.00186535
-0.00183349
-0.00182668
-0.0018101
-0.0017805
-0.00179888
-0.00189121
-0.00182969
-0.00168807
-0.0014828
-0.00124176
-0.000967524
-0.000659369
-0.000331329
-1.59563e-05
0.00027134
0.000524178
0.000750303
-0.00196036
-0.00195809
-0.00192496
-0.00192406
-0.00189293
-0.00188838
-0.00187229
-0.0018393
-0.00185815
-0.0019413
-0.00185522
-0.00167815
-0.0014378
-0.00116056
-0.000857512
-0.000533856
-0.000200335
0.000127916
0.000438914
0.000715654
0.000948733
-0.00202112
-0.00201779
-0.00198483
-0.00198341
-0.00195202
-0.00194461
-0.00193018
-0.00189914
-0.00191796
-0.00198399
-0.00186002
-0.00164746
-0.00137408
-0.00106182
-0.000735567
-0.000400114
-5.98678e-05
0.000284672
0.000624215
0.000913597
0.00110721
-0.00207206
-0.00208311
-0.00204221
-0.00204251
-0.00201234
-0.00200702
-0.00198641
-0.00195705
-0.00197772
-0.00199768
-0.00183527
-0.00159982
-0.00129084
-0.000950023
-0.000604669
-0.000260367
9.38556e-05
0.000466208
0.00081241
0.00117146
0.000450244
-0.00209196
-0.00227041
-0.00213045
-0.00208605
-0.00206802
-0.00207052
-0.00204984
-0.00201773
-0.00204019
-0.00197962
-0.00180381
-0.00153618
-0.00119677
-0.000830099
-0.000467691
-0.000109619
0.000270331
0.000643485
0.00112823
0.000518849
-0.00207988
-0.00216447
-0.00214948
-0.00250153
-0.00296486
-0.00209306
-0.00213372
-0.00211301
-0.00207939
-0.0021034
-0.00195211
-0.00175373
-0.00145952
-0.0010917
-0.0007036
-0.000325985
5.8472e-05
0.000437448
0.000969393
0.000522068
-0.00205562
-0.00216211
-0.0021541
-0.00223571
-0.00224979
-0.00226346
-0.00231105
-0.00222335
-0.00144602
-0.00214879
-0.00218342
-0.0019141
-0.00169583
-0.0013743
-0.00098366
-0.000576543
-0.000171156
0.00021341
0.000748161
0.00044013
-0.00202109
-0.00214117
-0.00213517
-0.00222035
-0.00222513
-0.00222281
-0.00222443
-0.0022857
-0.00229569
-0.00230641
-0.00231597
-0.00228885
-0.00204939
-0.0018658
-0.00162558
-0.00128399
-0.000872898
-0.000439757
-3.06301e-05
0.000491259
0.000310443
-0.00197979
-0.00211114
-0.00210653
-0.00220591
-0.00220562
-0.00221097
-0.00220594
-0.00226754
-0.00227292
-0.00227227
-0.00227674
-0.00231321
-0.00232196
-0.0023358
-0.00234419
-0.00180928
-0.00155531
-0.00119255
-0.000756527
-0.000312882
0.000205813
0.000158336
-0.00192995
-0.00207333
-0.0020705
-0.00218324
-0.00218256
-0.00218947
-0.00218689
-0.00225614
-0.00225916
-0.00226581
-0.00226239
-0.00229183
-0.00229563
-0.00229741
-0.00230033
-0.00174906
-0.00147738
-0.00109394
-0.000638132
-0.000114346
-6.67003e-07
-0.00187521
-0.00202798
-0.00202825
-0.0021512
-0.00215342
-0.0021601
-0.00215723
-0.00223892
-0.00224391
-0.00224761
-0.00225066
-0.00228253
-0.00228633
-0.00229208
-0.00228952
-0.00168363
-0.00139555
-0.000979609
-0.000469659
-0.000161295
-0.00181395
-0.0019743
-0.00197559
-0.00211205
-0.0021155
-0.00212856
-0.0021244
-0.00221421
-0.00221934
-0.00222437
-0.00222786
-0.00226634
-0.00227487
-0.00227675
-0.00228014
-0.00161381
-0.00128199
-0.000832542
-0.000321308
-0.00175342
-0.00191568
-0.0019163
-0.00206429
-0.00206751
-0.00208053
-0.00208225
-0.00218245
-0.0021888
-0.00220089
-0.00220134
-0.00224606
-0.00225065
-0.00225635
-0.00226427
-0.00150953
-0.00115473
-0.000471849
-0.0016695
-0.0018601
-0.00185743
-0.00201087
-0.00201623
-0.00202886
-0.00203006
-0.002142
-0.00214952
-0.0021603
-0.00216791
-0.00222033
-0.0022258
-0.00223474
-0.00223812
-0.00140525
-0.000598382
-0.00161706
-0.00178105
-0.00179007
-0.00196965
-0.00196751
-0.0019843
-0.00197769
-0.00209749
-0.00210699
-0.00211817
-0.00212567
-0.00218334
-0.00219277
-0.00220175
-0.00220874
-0.000691458
-0.000821669
-0.00172853
-0.00170844
-0.00190695
-0.00191292
-0.00193824
-0.001932
-0.00206947
-0.00207547
-0.00208318
-0.0020856
-0.00214646
-0.00215422
-0.00216576
-0.00217541
-0.000764007
-0.00156404
-0.00178691
-0.00181306
-0.00185204
-0.00185688
-0.0020309
-0.00204518
-0.00205821
-0.00205905
-0.00212788
-0.00213387
-0.00213563
-0.00214022
-0.00061926
-0.00149409
-0.00168747
-0.00167533
-0.00184232
-0.00192171
-0.00197341
-0.00200541
-0.00210505
-0.00211874
-0.0021252
-0.00212593
-0.000560404
-0.00162878
-0.00168283
-0.00172329
-0.00185683
-0.00196904
-0.00203887
-0.00208145
-0.000631166
-0.00167135
-0.00159172
-0.00170152
-0.100655
-0.0981801
-0.10096
-0.0987089
-0.0970076
-0.101652
-0.100985
-0.0992341
-0.0973525
-0.0957138
-0.10203
-0.102748
-0.101943
-0.0990235
-0.0978086
-0.0960673
-0.0943274
-0.103193
-0.103954
-0.103902
-0.1043
-0.0984342
-0.0962576
-0.0964246
-0.0946663
-0.092776
-0.104373
-0.105617
-0.10923
-0.104918
-0.107075
-0.0994094
-0.0928902
-0.0933555
-0.0950461
-0.0931284
-0.0915276
-0.105929
-0.106981
-0.110364
-0.105967
-0.107248
-0.100417
-0.0939194
-0.0876138
-0.0907697
-0.0935133
-0.092222
-0.0918338
-0.0902609
-0.108212
-0.111467
-0.106959
-0.108556
-0.101379
-0.0949256
-0.0886583
-0.0880179
-0.0827364
-0.0854618
-0.0909233
-0.0896177
-0.0905959
-0.0889285
-0.112494
-0.107844
-0.102239
-0.0958744
-0.0896551
-0.0837692
-0.088162
-0.0868794
-0.0828551
-0.0783265
-0.0808251
-0.0855523
-0.0841648
-0.0892548
-0.0874581
-0.113409
-0.108574
-0.102954
-0.0967235
-0.0905882
-0.0847262
-0.0792794
-0.087789
-0.0864921
-0.082093
-0.078559
-0.0741786
-0.0765559
-0.0802199
-0.0851744
-0.0836003
-0.0862095
-0.114163
-0.109108
-0.103499
-0.0974351
-0.0914249
-0.0856088
-0.0801612
-0.0750401
-0.0822702
-0.0813937
-0.0780404
-0.0743932
-0.0701967
-0.0725194
-0.0759943
-0.0794065
-0.0803957
-0.0848918
-0.0834733
-0.114711
-0.109436
-0.103862
-0.0979909
-0.0921265
-0.0863964
-0.0809627
-0.0758453
-0.0709576
-0.0781323
-0.077177
-0.0738703
-0.0705208
-0.0661852
-0.0686373
-0.071971
-0.075146
-0.0761274
-0.11504
-0.109576
-0.104061
-0.098388
-0.0926744
-0.0870589
-0.0816707
-0.0765728
-0.0716954
-0.0669376
-0.0739432
-0.0730152
-0.0701469
-0.0665052
-0.0623039
-0.0645902
-0.0681818
-0.0711149
-0.0720157
-0.115175
-0.109582
-0.104134
-0.0986433
-0.0930715
-0.0875785
-0.0822664
-0.0772059
-0.0723657
-0.0676516
-0.0630606
-0.0701301
-0.0695531
-0.066038
-0.0625741
-0.0586757
-0.06079
-0.0640898
-0.0672623
-0.0682691
-0.115175
-0.109518
-0.104132
-0.098786
-0.0933368
-0.087957
-0.0827362
-0.0777333
-0.0729426
-0.0682957
-0.063762
-0.0594073
-0.0693313
-0.0661271
-0.0651822
-0.0621335
-0.0589163
-0.055283
-0.0572517
-0.0603174
-0.0632815
-0.0642083
-0.066943
-0.0678996
-0.115111
-0.109457
-0.104118
-0.0988578
-0.0935001
-0.088213
-0.0830823
-0.0781483
-0.0734176
-0.0688452
-0.0643893
-0.0600849
-0.0559816
-0.0658516
-0.0649214
-0.0622214
-0.0613325
-0.0584962
-0.0555022
-0.0520915
-0.0539347
-0.0568044
-0.0595376
-0.0604103
-0.063023
-0.0639627
-0.115064
-0.109465
-0.10415
-0.098907
-0.0935975
-0.0883757
-0.0833224
-0.0784579
-0.0737901
-0.0692921
-0.0649245
-0.0606917
-0.0566299
-0.0527544
-0.0619741
-0.0610825
-0.0585579
-0.0577342
-0.0551047
-0.0522876
-0.0490769
-0.0508086
-0.0535099
-0.0560721
-0.0568821
-0.0592851
-0.0601724
-0.115104
-0.109593
-0.104272
-0.0989809
-0.0936708
-0.0884784
-0.0834823
-0.0786778
-0.0740692
-0.0696405
-0.0653583
-0.0612121
-0.0572117
-0.0533711
-0.0496919
-0.058319
-0.0574954
-0.0551638
-0.0543893
-0.0519079
-0.04925
-0.0461797
-0.0478654
-0.050399
-0.0528202
-0.0535845
-0.0558348
-0.0566556
-0.115284
-0.109875
-0.10452
-0.099119
-0.0937605
-0.0885598
-0.0835905
-0.0788312
-0.0742712
-0.0699018
-0.0656967
-0.0616364
-0.0577139
-0.053928
-0.0502742
-0.0467412
-0.0549407
-0.0541645
-0.0519641
-0.0512329
-0.048883
-0.0463896
-0.043282
-0.0450552
-0.0474736
-0.0497498
-0.0504707
-0.0525969
-0.0533718
-0.115636
-0.110324
-0.104908
-0.0993538
-0.0939019
-0.0886552
-0.08368
-0.0789427
-0.0744177
-0.0700941
-0.0659523
-0.0619694
-0.0581285
-0.0544139
-0.050808
-0.0472956
-0.0438332
-0.0517547
-0.0510209
-0.0489376
-0.048243
-0.0460851
-0.0435313
-0.0403955
-0.0421132
-0.0447428
-0.0468433
-0.0475189
-0.0495383
-0.0502702
-0.116175
-0.110938
-0.105438
-0.0997027
-0.0941242
-0.0887959
-0.0837818
-0.0790399
-0.0745306
-0.0702378
-0.0661433
-0.0622243
-0.058458
-0.0548206
-0.0512805
-0.0478133
-0.0443835
-0.0409669
-0.0487396
-0.048039
-0.0460941
-0.0455117
-0.043233
-0.0406005
-0.0376524
-0.0392321
-0.0417457
-0.0441764
-0.0448516
-0.046617
-0.0473182
-0.116892
-0.111711
-0.106102
-0.100166
-0.0944439
-0.0890083
-0.0839253
-0.0791499
-0.0746332
-0.0703529
-0.0662895
-0.0624186
-0.0587144
-0.0551484
-0.0516815
-0.0482773
-0.0449036
-0.0415333
-0.0382339
-0.0458776
-0.0453544
-0.0433246
-0.0425921
-0.0402667
-0.0378017
-0.0350593
-0.0364689
-0.0388684
-0.0411276
-0.0418342
-0.0439808
-0.0447609
-0.117786
-0.112624
-0.106882
-0.100736
-0.0948617
-0.0893083
-0.084134
-0.0792986
-0.0747492
-0.0704602
-0.0664093
-0.0625703
-0.0589137
-0.0554075
-0.0520106
-0.048678
-0.0453734
-0.0420708
-0.0388066
-0.0357024
-0.0431207
-0.0423748
-0.0403498
-0.039668
-0.0374666
-0.035044
-0.0328651
-0.0335973
-0.0361058
-0.0382851
-0.0389574
-0.0409249
-0.0416454
-0.0437061
-0.0444883
-0.118832
-0.11365
-0.107752
-0.101398
-0.0953714
-0.0896979
-0.0844221
-0.0795068
-0.0749022
-0.0705809
-0.0665217
-0.0626964
-0.0590718
-0.0556123
-0.0522752
-0.049013
-0.0457836
-0.0425595
-0.0393562
-0.0362681
-0.0334667
-0.0428893
-0.0421874
-0.0401787
-0.0394786
-0.0375393
-0.0368709
-0.034674
-0.0321222
-0.0310105
-0.0335053
-0.0354881
-0.0361741
-0.0380878
-0.0387818
-0.0407464
-0.0414573
-0.120003
-0.114748
-0.108676
-0.102129
-0.0959614
-0.0901716
-0.0847933
-0.0797878
-0.0751109
-0.0707369
-0.0666466
-0.0628141
-0.059204
-0.055777
-0.0524875
-0.0492868
-0.04613
-0.0429873
-0.0398602
-0.0368122
-0.0339907
-0.0315081
-0.0400001
-0.0393087
-0.0373669
-0.0366768
-0.0346921
-0.0338853
-0.0322616
-0.0304811
-0.0315034
-0.029197
-0.0331217
-0.0352822
-0.0359866
-0.0379136
-0.0386023
-0.121254
-0.115861
-0.109605
-0.1029
-0.0966142
-0.09072
-0.0852432
-0.0801469
-0.075388
-0.070946
-0.0668049
-0.0629425
-0.0593266
-0.055915
-0.0526599
-0.0495095
-0.0464176
-0.0433512
-0.0403029
-0.0373127
-0.0344901
-0.0319572
-0.0296481
-0.0371908
-0.0365099
-0.0345296
-0.0338995
-0.032317
-0.0319681
-0.0306019
-0.0287202
-0.0297762
-0.0315747
-0.031166
-0.0273835
-0.0331967
-0.0327821
-0.0351151
-0.035811
-0.122524
-0.116924
-0.110492
-0.103673
-0.0973034
-0.0913285
-0.0857633
-0.0805804
-0.0757392
-0.0712203
-0.0670136
-0.0631016
-0.0594578
-0.0560419
-0.0528041
-0.0496913
-0.0466535
-0.0436549
-0.040682
-0.0377573
-0.0349556
-0.0323851
-0.0300529
-0.0278127
-0.0343789
-0.0337406
-0.0306354
-0.0302502
-0.0288075
-0.0269396
-0.0279551
-0.0298129
-0.0293785
-0.025556
-0.123737
-0.11787
-0.111287
-0.104414
-0.0979997
-0.0919743
-0.0863406
-0.0810798
-0.0761616
-0.0715662
-0.067285
-0.0633086
-0.0596162
-0.0561744
-0.0529348
-0.0498431
-0.0468469
-0.0439057
-0.0410002
-0.0381406
-0.0353758
-0.0327904
-0.030426
-0.0282002
-0.0259845
-0.0288166
-0.0284172
-0.0269883
-0.0251276
-0.0261584
-0.0279701
-0.0275274
-0.023736
-0.124814
-0.118643
-0.111958
-0.105095
-0.0986768
-0.0926302
-0.0869527
-0.0816337
-0.0766478
-0.0719814
-0.0676259
-0.0635756
-0.0598192
-0.0563305
-0.0530683
-0.0499784
-0.0470074
-0.0441116
-0.0412644
-0.038465
-0.0357446
-0.0331653
-0.0307759
-0.0285456
-0.0263696
-0.0241655
-0.026969
-0.0265665
-0.025208
-0.0232891
-0.0243726
-0.0261276
-0.0257124
-0.021928
-0.125682
-0.119214
-0.11249
-0.105696
-0.0993075
-0.0932709
-0.0875762
-0.0822217
-0.0771872
-0.0724589
-0.0680348
-0.0639102
-0.0600794
-0.0565277
-0.0532211
-0.0501128
-0.0471483
-0.0442818
-0.0414814
-0.0387363
-0.0360624
-0.0335031
-0.0311024
-0.0288591
-0.0267039
-0.0245517
-0.0223643
-0.0252386
-0.0248344
-0.0233298
-0.0214569
-0.0224193
-0.024356
-0.0238585
-0.0202111
-0.126305
-0.119592
-0.112882
-0.106203
-0.0998751
-0.0938719
-0.0881868
-0.0828207
-0.0777594
-0.0729891
-0.0685056
-0.0643114
-0.0604048
-0.0567786
-0.0534113
-0.0502628
-0.0472847
-0.0444288
-0.0416598
-0.0389595
-0.0363308
-0.0337999
-0.0314013
-0.0291472
-0.0269976
-0.024882
-0.0227497
-0.02063
-0.0245736
-0.0232786
-0.0228234
-0.0214565
-0.0197591
-0.0206238
-0.0223409
-0.0218883
-0.02414
-0.023614
-0.0186213
-0.126684
-0.11981
-0.113139
-0.106605
-0.100362
-0.0944135
-0.0887598
-0.0834074
-0.0783434
-0.0735526
-0.0690287
-0.0647739
-0.0607953
-0.0570917
-0.0536512
-0.0504458
-0.0474328
-0.0445681
-0.0418129
-0.0391435
-0.0365535
-0.0340547
-0.0316703
-0.0294119
-0.0272597
-0.0251628
-0.0230746
-0.020996
-0.019003
-0.0230624
-0.0226009
-0.0213836
-0.0209709
-0.0197538
-0.0182047
-0.0189801
-0.0205425
-0.020125
-0.0221477
-0.0216765
-0.0171631
-0.126879
-0.119898
-0.11326
-0.106884
-0.10075
-0.0948768
-0.0892773
-0.0839601
-0.0789168
-0.0741279
-0.0695847
-0.0652883
-0.0612462
-0.0574678
-0.0539498
-0.0506743
-0.0476096
-0.0447153
-0.0419547
-0.0392995
-0.0367377
-0.0342694
-0.0319055
-0.0296527
-0.0274979
-0.0254073
-0.0233443
-0.0213008
-0.0193308
-0.0175013
-0.0211724
-0.0207569
-0.019675
-0.0192949
-0.0181971
-0.016784
-0.0174816
-0.0189067
-0.0185214
-0.020352
-0.0199232
-0.0158326
-0.126934
-0.119881
-0.113261
-0.107024
-0.101022
-0.0952486
-0.0897234
-0.0844609
-0.0794562
-0.0746917
-0.0701526
-0.0658361
-0.0617488
-0.0579032
-0.0543086
-0.0509575
-0.0478278
-0.0448878
-0.0421025
-0.039444
-0.0368946
-0.0344489
-0.0321066
-0.0298666
-0.0277149
-0.0256259
-0.0235732
-0.0215508
-0.0195977
-0.0177793
-0.0161271
-0.0194699
-0.0190949
-0.0181236
-0.0177731
-0.0167806
-0.0154923
-0.0161235
-0.0174238
-0.0170706
-0.0187288
-0.0183396
-0.0146232
-0.126896
-0.118202
-0.121442
-0.107034
-0.111673
-0.114717
-0.101164
-0.0955145
-0.0900844
-0.0848929
-0.0799436
-0.0752214
-0.0707091
-0.0663957
-0.0622849
-0.0583897
-0.0547252
-0.0512978
-0.0480964
-0.0450972
-0.0422713
-0.0395908
-0.0370383
-0.0346026
-0.0322775
-0.0300525
-0.0279097
-0.0258237
-0.0237743
-0.0217602
-0.0198136
-0.017998
-0.0163569
-0.0148781
-0.0179348
-0.0175942
-0.0167202
-0.0163994
-0.0154984
-0.0143179
-0.0148961
-0.0160873
-0.0157635
-0.0172669
-0.0169141
-0.0135198
-0.125123
-0.128545
-0.11733
-0.118917
-0.120555
-0.122211
-0.10118
-0.105535
-0.108397
-0.110842
-0.112336
-0.113878
-0.115431
-0.0956597
-0.0903467
-0.0852442
-0.0803635
-0.0756979
-0.0712298
-0.0669434
-0.0628336
-0.0589107
-0.0551924
-0.0516939
-0.0484187
-0.0453535
-0.0424748
-0.0397583
-0.0371848
-0.0347441
-0.0324259
-0.0302134
-0.0280818
-0.0260032
-0.023957
-0.0219437
-0.0199935
-0.0181691
-0.0165247
-0.0150654
-0.0137429
-0.016553
-0.0162459
-0.015455
-0.0151621
-0.0143365
-0.0132458
-0.0137819
-0.0148813
-0.0145864
-0.0159526
-0.0156344
-0.012501
-0.124217
-0.125886
-0.127606
-0.117326
-0.118926
-0.120453
-0.122118
-0.0956827
-0.0997703
-0.102461
-0.104749
-0.10615
-0.1076
-0.109062
-0.110832
-0.11234
-0.11378
-0.115345
-0.0904945
-0.0855014
-0.0807037
-0.0761052
-0.0716957
-0.0674552
-0.0633715
-0.0594457
-0.0556948
-0.05214
-0.0487945
-0.0456597
-0.0427203
-0.0399557
-0.0373489
-0.0348882
-0.0325636
-0.0303554
-0.0282334
-0.026164
-0.0241236
-0.0221102
-0.0201526
-0.0183106
-0.0166478
-0.0151895
-0.0138989
-0.0126991
-0.0153106
-0.0150343
-0.0143118
-0.0140432
-0.0132744
-0.0122601
-0.0127601
-0.0137884
-0.0135162
-0.01477
-0.0144822
-0.011529
-0.124221
-0.125898
-0.127497
-0.0905234
-0.0943589
-0.0968864
-0.0990309
-0.100347
-0.10171
-0.103083
-0.104735
-0.106151
-0.107506
-0.108981
-0.0856483
-0.0809527
-0.0764333
-0.0720914
-0.0679109
-0.0638739
-0.0599719
-0.0562142
-0.0526228
-0.0492197
-0.0460172
-0.043014
-0.0401941
-0.0375421
-0.0350488
-0.0327042
-0.0304889
-0.0283698
-0.0263083
-0.0242751
-0.0222645
-0.0203007
-0.0184394
-0.0167485
-0.0152709
-0.0139939
-0.0128388
-0.0117195
-0.0141906
-0.0139383
-0.0132677
-0.0130184
-0.012293
-0.0113174
-0.0118234
-0.0127831
-0.0125296
-0.0136988
-0.0134338
-0.0105974
-0.0856811
-0.0892803
-0.0916563
-0.093665
-0.0949015
-0.0961815
-0.0974718
-0.0990173
-0.100348
-0.101623
-0.103009
-0.0810966
-0.0766734
-0.072408
-0.0682958
-0.064321
-0.060466
-0.0567292
-0.0531257
-0.0496823
-0.0464219
-0.0433545
-0.0404757
-0.0377728
-0.0352369
-0.0328603
-0.0306256
-0.0284996
-0.0264404
-0.0244136
-0.0224073
-0.020441
-0.0185641
-0.0168437
-0.0153349
-0.0140478
-0.0129208
-0.011859
-0.0107817
-0.013168
-0.012934
-0.0122982
-0.0120663
-0.0113875
-0.0104116
-0.0109554
-0.0118507
-0.0116181
-0.012711
-0.0124656
-0.00966036
-0.081132
-0.0845134
-0.086748
-0.0886284
-0.0897914
-0.0909942
-0.0922068
-0.0936518
-0.0949019
-0.0961008
-0.0974033
-0.0768136
-0.072639
-0.0686026
-0.0646984
-0.0609075
-0.0572163
-0.0536288
-0.0501687
-0.0468663
-0.043742
-0.0408032
-0.0380453
-0.0354601
-0.0330417
-0.0307764
-0.0286325
-0.0265672
-0.0245421
-0.0225399
-0.0205734
-0.018687
-0.0169423
-0.0153992
-0.0140845
-0.012962
-0.011945
-0.0109295
-0.00984948
-0.0122161
-0.0119977
-0.0114047
-0.0112045
-0.010531
-0.00946543
-0.0100533
-0.0110195
-0.0108082
-0.0117892
-0.0115611
-0.00871409
-0.0768512
-0.0800337
-0.0821392
-0.083902
-0.0849956
-0.086125
-0.0872653
-0.088616
-0.0897919
-0.0909195
-0.0921438
-0.0727753
-0.0688264
-0.0649983
-0.0612807
-0.057655
-0.0541109
-0.0506615
-0.0473368
-0.0441683
-0.0411742
-0.0383595
-0.0357223
-0.0332562
-0.0309505
-0.0287779
-0.0266967
-0.0246661
-0.0226642
-0.0206984
-0.0188061
-0.0170447
-0.015472
-0.014124
-0.0129867
-0.0119917
-0.0110329
-0.0100148
-0.00891334
-0.011331
-0.0111564
-0.0106122
-0.0103927
-0.0095642
-0.00851477
-0.00907863
-0.0101401
-0.00988808
-0.0110597
-0.0107759
-0.00779292
-0.0728146
-0.0758166
-0.0778036
-0.0794592
-0.0804906
-0.0815537
-0.0826271
-0.0838908
-0.084996
-0.086056
-0.0872071
-0.0689595
-0.0652167
-0.0615774
-0.0580288
-0.0545508
-0.05114
-0.0478193
-0.0446241
-0.0415844
-0.0387155
-0.0360237
-0.0335071
-0.0311541
-0.0289431
-0.0268364
-0.0247922
-0.0227847
-0.0208166
-0.0189202
-0.0171471
-0.0155527
-0.0141749
-0.013013
-0.0120188
-0.0110978
-0.0101445
-0.00909937
-0.00798666
-0.0106462
-0.0103704
-0.0096433
-0.0094071
-0.00861461
-0.00760935
-0.00816323
-0.00917545
-0.00894047
-0.0101226
-0.00987506
-0.0106002
-0.00690654
-0.0690006
-0.0718377
-0.0737177
-0.0752763
-0.07625
-0.0772519
-0.0782644
-0.0794494
-0.0804914
-0.0814902
-0.0825734
-0.0653474
-0.061793
-0.0583264
-0.0549295
-0.0515834
-0.0482946
-0.0450962
-0.0420249
-0.0391091
-0.0363637
-0.0337929
-0.0313901
-0.0291341
-0.0269928
-0.0249264
-0.0229065
-0.0209315
-0.019029
-0.0172469
-0.0156366
-0.0142354
-0.0130491
-0.0120428
-0.0111393
-0.0102389
-0.00925942
-0.00818222
-0.00708621
-0.0105383
-0.0102873
-0.00963225
-0.00940435
-0.00871222
-0.00849265
-0.00772189
-0.00673894
-0.00728616
-0.00827627
-0.00805528
-0.0091868
-0.00895679
-0.0100594
-0.00982658
-0.00605135
-0.0653897
-0.0680764
-0.069858
-0.0713276
-0.07225
-0.0731973
-0.0741542
-0.0752676
-0.0762509
-0.0771932
-0.0782148
-0.0619217
-0.0585414
-0.0552324
-0.0519708
-0.0487427
-0.0455666
-0.0424829
-0.0395311
-0.0367373
-0.0341131
-0.0316574
-0.0293536
-0.0271702
-0.0250735
-0.0230346
-0.0210474
-0.0191353
-0.0173428
-0.0157195
-0.0143005
-0.0130938
-0.0120721
-0.0111718
-0.0103061
-0.00938652
-0.00836509
-0.00727762
-0.00621327
-0.00959044
-0.0093739
-0.00872771
-0.00851273
-0.00783504
-0.00762225