/*--------------------------------*- C++ -*----------------------------------*\
| =========                 |                                                 |
| \\      /  F ield         | OpenFOAM: The Open Source CFD Toolbox           |
|  \\    /   O peration     | Version:  v1912                                 |
|   \\  /    A nd           | Website:  www.openfoam.com                      |
|    \\/     M anipulation  |                                                 |
\*---------------------------------------------------------------------------*/
FoamFile
{
    version     2.0;
    format      ascii;
    class       volScalarField;
    location    "290";
    object      p;
}
// * * * * * * * * * * * * * * * * * * * * * * * * * * * * * * * * * * * * * //

dimensions      [0 2 -2 0 0 0 0];


internalField   nonuniform List<scalar> 
3675
(
0.255376
0.252959
0.26184
0.24828
0.258887
0.280248
0.241649
0.253219
0.27577
0.313546
0.233469
0.245292
0.267334
0.305789
0.367813
0.224189
0.235676
0.255881
0.291559
0.352584
0.454559
0.214252
0.224966
0.242479
0.273011
0.326147
0.422069
0.5646
0.545938
0.204069
0.213712
0.228116
0.252426
0.293892
0.371294
0.512571
0.457377
0.663182
0.634868
0.194001
0.202384
0.213583
0.231614
0.260913
0.311228
0.399729
0.581123
0.521419
0.736697
0.722704
0.661379
0.698609
0.184352
0.19137
0.199459
0.211669
0.230298
0.257779
0.288372
0.366175
0.266069
0.623681
0.554713
0.465515
0.769866
0.751225
0.651268
0.70382
0.175372
0.180977
0.186151
0.193187
0.202998
0.214653
0.214084
0.111454
0.188646
0.224942
0.043662
0.624836
0.524418
0.274129
0.293581
0.167263
0.171446
0.173941
0.176478
0.179157
0.179578
0.163581
0.0688146
-0.295977
-0.237715
-0.0127657
-0.00479819
-0.237714
-0.217209
0.597376
0.394152
0.215088
0.160184
0.162959
0.163011
0.161682
0.158661
0.150961
0.126218
0.0460979
-0.25747
-0.5089
-0.346472
-0.432257
-0.151661
-0.256394
0.154261
0.155658
0.15348
0.14883
0.141253
0.127741
0.0981523
0.0283631
-0.183099
-0.409602
-0.485129
-0.554084
-0.499543
-0.44487
-0.519459
0.149597
0.149652
0.145427
0.137894
0.12663
0.108927
0.076864
0.0140203
-0.136333
-0.322244
-0.371684
-0.445072
-0.523278
-0.456189
-0.518617
0.146271
0.145025
0.138905
0.128821
0.1145
0.0936706
0.0603702
0.00319109
-0.109328
-0.253019
-0.325923
-0.344002
-0.392121
-0.408892
-0.422574
-0.46345
-0.481737
0.144351
0.141846
0.133952
0.121562
0.104613
0.0813153
0.0473191
-0.00521508
-0.0939418
-0.207668
-0.283593
-0.319616
-0.328467
-0.357889
-0.371721
-0.396125
-0.439622
-0.426726
0.143891
0.140172
0.130603
0.116076
0.0967661
0.0713624
0.0368157
-0.0121329
-0.0853721
-0.177519
-0.249773
-0.292307
-0.316344
-0.314996
-0.331607
-0.341098
-0.361615
-0.380226
-0.403481
-0.399772
0.144938
0.140056
0.128894
0.112342
0.090816
0.0634493
0.0282427
-0.0181404
-0.0811236
-0.157697
-0.223892
-0.268013
-0.298001
-0.308423
-0.304349
-0.315247
-0.321763
-0.333424
-0.344144
-0.358667
-0.367141
-0.388201
-0.377869
-0.404795
-0.393081
0.147529
0.141542
0.128867
0.110364
0.0866678
0.0573236
0.0211822
-0.0236052
-0.0797973
-0.145318
-0.205201
-0.248838
-0.280285
-0.29748
-0.300153
-0.296394
-0.304206
-0.308916
-0.316581
-0.32356
-0.331803
-0.336918
-0.349029
-0.342414
-0.359437
-0.367652
-0.388411
-0.378403
0.151688
0.14467
0.13057
0.110173
0.0842836
0.05282
0.0153445
-0.0287748
-0.0805988
-0.138364
-0.192565
-0.234664
-0.265998
-0.286148
-0.293841
-0.293575
-0.289874
-0.296103
-0.299841
-0.305289
-0.310192
-0.315671
-0.319024
-0.326551
-0.322468
-0.332314
-0.337252
-0.349482
-0.342998
0.157428
0.149473
0.134063
0.111829
0.0836803
0.0498613
0.0105403
-0.0338284
-0.0830976
-0.135525
-0.184904
-0.224883
-0.255346
-0.27649
-0.287129
-0.289864
-0.287895
-0.283934
-0.289453
-0.292751
-0.297024
-0.300802
-0.304782
-0.307169
-0.312313
-0.309555
-0.316099
-0.319319
-0.326868
-0.322898
0.164738
0.155971
0.139411
0.115429
0.0849353
0.0484479
0.00665836
-0.0389005
-0.087108
-0.136017
-0.181447
-0.219003
-0.248098
-0.269109
-0.281239
-0.285975
-0.285715
-0.282379
-0.277925
-0.283465
-0.28662
-0.290294
-0.293526
-0.296727
-0.298607
-0.30245
-0.30041
-0.305171
-0.307458
-0.312611
-0.309936
0.173576
0.164167
0.146687
0.121105
0.0881901
0.048665
0.0036567
-0.0440998
-0.092598
-0.13944
-0.181692
-0.216695
-0.244036
-0.264204
-0.276792
-0.282652
-0.283641
-0.281152
-0.276799
-0.272125
-0.277301
-0.28074
-0.284311
-0.287283
-0.290086
-0.291741
-0.294934
-0.29325
-0.297105
-0.298899
-0.302744
-0.300773
0.183862
0.174031
0.15596
0.129025
0.0936644
0.0506869
0.00155702
-0.0495275
-0.0996808
-0.145678
-0.185381
-0.217747
-0.242996
-0.261793
-0.274082
-0.280368
-0.282065
-0.280316
-0.276318
-0.271641
-0.268761
-0.272769
-0.273838
-0.278385
-0.281554
-0.284061
-0.285683
-0.28857
-0.287013
-0.290461
-0.292031
-0.295228
-0.293609
0.195453
0.185494
0.167288
0.139399
0.10167
0.0548044
0.000460892
-0.0552795
-0.108628
-0.154883
-0.192467
-0.222066
-0.24487
-0.261845
-0.273218
-0.279345
-0.28127
-0.279956
-0.276317
-0.27164
-0.267831
-0.263411
-0.268173
-0.270877
-0.27384
-0.273624
-0.278479
-0.280162
-0.282769
-0.281226
-0.28442
-0.28594
-0.288852
-0.287371
0.208135
0.19842
0.180701
0.152472
0.112627
0.0614432
0.000584167
-0.0614415
-0.119926
-0.1675
-0.203134
-0.229673
-0.249622
-0.264334
-0.274253
-0.279688
-0.2814
-0.280183
-0.276739
-0.272029
-0.267416
-0.262668
-0.257482
-0.262609
-0.265279
-0.268639
-0.271594
-0.274091
-0.275472
-0.276463
-0.271783
-0.279504
-0.280439
-0.282959
-0.281555
0.221599
0.21259
0.196168
0.168504
0.127095
0.0712174
0.00230242
-0.0680776
-0.134357
-0.184315
-0.217801
-0.240726
-0.257282
-0.269257
-0.277224
-0.281469
-0.282546
-0.28108
-0.277613
-0.272826
-0.267655
-0.262361
-0.256778
-0.251682
-0.256893
-0.25965
-0.263112
-0.265792
-0.268408
-0.269643
-0.272478
-0.271251
-0.274663
-0.278824
-0.279483
-0.269309
0.235423
0.227663
0.213574
0.187752
0.145753
0.0850352
0.00625308
-0.0752577
-0.1532
-0.206568
-0.237147
-0.255506
-0.267952
-0.276643
-0.282158
-0.284741
-0.284776
-0.282721
-0.278977
-0.274015
-0.268456
-0.262653
-0.256611
-0.250976
-0.245106
-0.251085
-0.253952
-0.257474
-0.260251
-0.262908
-0.264233
-0.266874
-0.265616
-0.268698
-0.269983
-0.272875
-0.27146
-0.274398
-0.278419
-0.265816
0.249076
0.243145
0.232635
0.210435
0.169331
0.104135
0.0136076
-0.0831868
-0.178637
-0.236137
-0.262133
-0.274417
-0.281797
-0.286552
-0.289086
-0.289538
-0.288135
-0.285164
-0.280882
-0.275592
-0.269691
-0.263471
-0.257013
-0.250768
-0.245067
-0.239814
-0.240475
-0.247762
-0.251902
-0.254599
-0.257232
-0.258636
-0.261396
-0.260035
-0.263233
-0.26457
-0.267239
-0.265939
-0.268993
-0.270263
-0.273065
-0.271687
0.261932
0.258367
0.252774
0.236548
0.198774
0.130007
0.0263579
-0.092508
-0.214488
-0.275911
-0.294054
-0.297976
-0.299035
-0.299072
-0.298039
-0.295883
-0.292653
-0.288448
-0.283372
-0.277573
-0.271283
-0.264696
-0.257887
-0.251135
-0.24479
-0.239051
-0.240361
-0.2335
-0.250623
-0.248649
-0.251541
-0.252952
-0.255724
-0.254319
-0.257544
-0.258944
-0.261738
-0.26036
-0.263542
-0.264854
-0.26754
-0.26624
0.273327
0.272503
0.272986
0.265457
0.235418
0.165552
0.0465713
-0.105108
-0.267252
-0.330261
-0.334655
-0.326833
-0.319936
-0.31431
-0.30905
-0.303785
-0.29834
-0.292594
-0.286474
-0.279982
-0.273202
-0.266233
-0.259112
-0.251984
-0.245121
-0.238732
-0.232931
-0.234073
-0.239371
-0.243059
-0.227822
-0.247697
-0.249424
-0.245066
-0.251918
-0.25322
-0.256032
-0.254618
-0.257834
-0.259202
-0.262024
-0.260655
0.282636
0.284663
0.291827
0.295545
0.279679
0.217541
0.0768384
-0.125786
-0.347869
-0.404887
-0.38611
-0.36177
-0.344856
-0.332395
-0.322141
-0.313237
-0.305189
-0.297604
-0.290205
-0.282834
-0.275443
-0.268032
-0.26059
-0.253164
-0.24592
-0.239049
-0.232717
-0.227135
-0.228653
-0.233511
-0.236367
-0.238942
-0.240746
-0.242444
-0.244064
-0.222157
-0.24591
-0.247822
-0.252919
-0.250543
-0.252099
-0.253423
-0.256286
-0.254883
0.28934
0.294038
0.307675
0.323988
0.328718
0.289465
0.13095
-0.161044
-0.471842
-0.505762
-0.450115
-0.403431
-0.374187
-0.353485
-0.337336
-0.324217
-0.313174
-0.303463
-0.294561
-0.286136
-0.278005
-0.270071
-0.262263
-0.254558
-0.24702
-0.239773
-0.232977
-0.226826
-0.221365
-0.223127
-0.228032
-0.230838
-0.233236
-0.234726
-0.235986
-0.237341
-0.216184
-0.250331
-0.250358
0.293083
0.300025
0.31913
0.347187
0.375871
0.370844
0.233907
-0.207456
-0.640891
-0.633817
-0.524247
-0.45137
-0.407911
-0.377663
-0.354634
-0.336687
-0.322251
-0.310136
-0.299522
-0.289879
-0.280884
-0.272337
-0.264101
-0.256094
-0.248304
-0.240774
-0.233605
-0.226968
-0.22098
-0.215462
-0.217339
-0.222347
-0.225298
-0.22773
-0.22923
-0.230489
-0.231776
-0.209943
0.2937
0.302304
0.325315
0.362288
0.411881
0.4554
0.335155
0.431963
-0.0437002
0.0248056
0.3575
-0.692961
-0.410496
-0.82461
-0.761415
-0.837126
-0.594085
-0.500939
-0.444443
-0.404394
-0.373876
-0.350572
-0.332361
-0.317573
-0.30505
-0.294041
-0.284067
-0.274819
-0.266089
-0.257738
-0.249693
-0.241936
-0.234497
-0.227483
-0.221035
-0.215145
-0.209698
-0.210236
-0.216676
-0.219628
-0.221949
-0.223551
-0.224877
-0.22623
-0.205831
0.291203
0.300842
0.325993
0.368023
0.430854
0.515916
0.505734
0.572415
0.462894
0.204079
0.0613907
-0.296319
-0.237026
0.243637
-0.665021
-0.589734
-0.483046
-1.03347
-0.746035
-0.822007
-0.824295
-0.640069
-0.798077
-0.916942
-0.538269
-0.478617
-0.431343
-0.394236
-0.365604
-0.343395
-0.325704
-0.311094
-0.298584
-0.287529
-0.277503
-0.268215
-0.25947
-0.251146
-0.243175
-0.235534
-0.22826
-0.221449
-0.215181
-0.209497
-0.204952
-0.206816
-0.210736
-0.211518
-0.216742
-0.218066
-0.21902
-0.220408
-0.200289
0.285757
0.295844
0.321492
0.364714
0.43208
0.536759
0.615724
0.650575
0.557043
0.640252
0.437265
0.287528
0.0205578
-0.00514685
-0.924919
-0.87687
-0.868099
-0.696824
-0.553583
-0.643265
-0.821072
-0.783202
-0.501387
-0.453506
-0.41339
-0.380906
-0.355036
-0.334404
-0.317586
-0.303462
-0.291237
-0.280363
-0.270462
-0.261278
-0.252641
-0.244445
-0.236624
-0.229163
-0.222102
-0.215513
-0.209493
-0.204355
-0.199541
-0.201043
-0.205884
-0.208622
-0.210854
-0.212746
-0.209719
-0.214936
-0.194334
0.27763
0.28768
0.312539
0.353953
0.417872
0.52241
0.653408
0.625116
0.698686
0.675462
0.764734
0.445148
0.541961
0.727928
0.714633
0.638017
0.413046
0.124319
-0.906595
-0.880736
-0.717175
-0.684239
-0.581652
-0.509843
-0.547851
-0.65723
-0.62627
-0.824177
-0.783764
-0.465966
-0.427561
-0.394526
-0.366434
-0.343344
-0.324394
-0.308607
-0.295148
-0.283372
-0.272811
-0.263148
-0.254166
-0.245723
-0.237721
-0.230105
-0.222869
-0.216046
-0.209719
-0.204083
-0.198949
-0.193705
-0.195046
-0.200082
-0.202892
-0.205402
-0.206767
-0.208179
-0.209402
-0.210602
-0.212978
-0.207242
-0.188732
0.267152
0.276803
0.30001
0.337833
0.393604
0.477956
0.603008
0.754296
0.716716
0.777667
0.815221
0.822199
0.776584
-0.71154
-0.682143
-0.591817
-0.569765
-0.519885
-0.47014
-0.498046
-0.556112
-0.539084
-0.654325
-0.624112
-0.434564
-0.403976
-0.376005
-0.351771
-0.331211
-0.313893
-0.2992
-0.286489
-0.275235
-0.265062
-0.255708
-0.246996
-0.2388
-0.231036
-0.223663
-0.216677
-0.210117
-0.204099
-0.198595
-0.193218
-0.188093
-0.189444
-0.194268
-0.197073
-0.199662
-0.201132
-0.202506
-0.203844
-0.205643
-0.206997
-0.208256
-0.209432
-0.183313
0.254677
0.263681
0.284746
0.318219
0.364673
0.426541
0.497169
0.572331
0.487601
0.78772
0.7597
0.670208
0.721446
0.808444
-0.590154
-0.567868
-0.523669
-0.508896
-0.47749
-0.436477
-0.459377
-0.496201
-0.556227
-0.538154
-0.40851
-0.382152
-0.358491
-0.337409
-0.319045
-0.303278
-0.289664
-0.277704
-0.266999
-0.257253
-0.248253
-0.239849
-0.231933
-0.224437
-0.217327
-0.210604
-0.20432
-0.19849
-0.192914
-0.1876
-0.182676
-0.184001
-0.188659
-0.191416
-0.193865
-0.195319
-0.196676
-0.198065
-0.199912
-0.20137
-0.20268
-0.203999
-0.177974
0.240553
0.248758
0.267469
0.296508
0.334298
0.378758
0.41632
0.33355
0.594877
0.367404
0.389072
0.273687
0.734774
0.625803
-0.561684
-0.522372
-0.513412
-0.475878
-0.442462
-0.409534
-0.428618
-0.458465
-0.490233
-0.501389
-0.552874
-0.536304
-0.384756
-0.362577
-0.342135
-0.323557
-0.307148
-0.292798
-0.280172
-0.268932
-0.258781
-0.249482
-0.240858
-0.232782
-0.225165
-0.21795
-0.21111
-0.20465
-0.198579
-0.1928
-0.187291
-0.182165
-0.17735
-0.17864
-0.183186
-0.185901
-0.188252
-0.189673
-0.190994
-0.192357
-0.194089
-0.195522
-0.196822
-0.198189
-0.172731
0.225107
0.232437
0.248749
0.273669
0.304116
0.335999
0.355692
0.290797
0.0935453
0.120915
0.530715
0.279742
0.102783
0.105741
-0.520777
-0.511812
-0.479026
-0.469979
-0.441045
-0.414953
-0.38489
-0.402028
-0.428006
-0.454328
-0.461855
-0.364191
-0.344897
-0.326819
-0.310415
-0.295698
-0.282557
-0.270823
-0.260272
-0.250668
-0.241817
-0.233574
-0.225834
-0.218523
-0.211591
-0.205015
-0.198783
-0.192838
-0.187158
-0.181823
-0.176834
-0.172118
-0.173378
-0.17782
-0.180491
-0.18278
-0.184174
-0.185469
-0.186804
-0.188466
-0.189861
-0.191123
-0.192456
-0.167595
0.20864
0.215056
0.229001
0.250318
0.274931
0.297961
0.30741
0.259017
0.110579
0.0614616
0.0552565
0.0723846
0.106575
0.0678727
-0.443193
-0.437787
-0.413696
-0.389723
-0.36409
-0.37816
-0.401077
-0.423488
-0.430791
-0.345987
-0.328559
-0.312668
-0.298078
-0.284703
-0.272601
-0.261694
-0.251795
-0.242714
-0.234301
-0.226436
-0.21903
-0.21202
-0.205362
-0.199025
-0.192967
-0.187159
-0.181646
-0.176469
-0.171597
-0.166991
-0.168219
-0.172558
-0.175186
-0.177416
-0.178784
-0.180057
-0.181369
-0.182988
-0.184355
-0.185591
-0.186894
-0.162561
0.191446
0.196878
0.208477
0.226802
0.247063
0.264145
0.268071
0.231817
0.130302
0.0716422
0.0636601
0.0422829
0.0528754
0.0712443
0.0436892
-0.439729
-0.436719
-0.415866
-0.409391
-0.388783
-0.368056
-0.345337
-0.358288
-0.377209
-0.397163
-0.403424
-0.422655
-0.429715
-0.329106
-0.313768
-0.299681
-0.286396
-0.274142
-0.262988
-0.252836
-0.243537
-0.234954
-0.226963
-0.219464
-0.212382
-0.205661
-0.199257
-0.193125
-0.187234
-0.181598
-0.176255
-0.171211
-0.166463
-0.161966
-0.163162
-0.167401
-0.169983
-0.172158
-0.173499
-0.174749
-0.176039
-0.177616
-0.178958
-0.180172
-0.181454
-0.157624
0.173632
0.178142
0.18723
0.203245
0.220538
0.233929
0.235417
0.208221
0.139119
0.0878166
0.0704481
0.0597158
0.052033
0.0570984
0.0520165
0.0349549
-0.414876
-0.408762
-0.390766
-0.384985
-0.367282
-0.348622
-0.328573
-0.337186
-0.357705
-0.373489
-0.379562
-0.396538
-0.402573
-0.31396
-0.300464
-0.287468
-0.275289
-0.264065
-0.253747
-0.244263
-0.235522
-0.227409
-0.219819
-0.21267
-0.205896
-0.199445
-0.193269
-0.187329
-0.181619
-0.176159
-0.170965
-0.166058
-0.161433
-0.157031
-0.158205
-0.162344
-0.164885
-0.167003
-0.168318
-0.169546
-0.170813
-0.172349
-0.173665
-0.174857
-0.176117
-0.152772
0.155085
0.159019
0.165124
0.179596
0.195215
0.206672
0.207675
0.187726
0.139872
0.0987549
0.0799624
0.065572
0.0590495
0.062478
0.0455338
0.0575144
0.0515561
0.0526093
0.047149
-0.389834
-0.384494
-0.369013
-0.364045
-0.34792
-0.326866
-0.313383
-0.341663
-0.35454
-0.359392
-0.372762
-0.379718
-0.300617
-0.287906
-0.275931
-0.264816
-0.254461
-0.244859
-0.235989
-0.227764
-0.220088
-0.212876
-0.206057
-0.199571
-0.193368
-0.187404
-0.181658
-0.176129
-0.170831
-0.165784
-0.161011
-0.156491
-0.152171
-0.153348
-0.157384
-0.159888
-0.16195
-0.16324
-0.164446
-0.165691
-0.167187
-0.168477
-0.169648
-0.170886
-0.147995
0.138881
0.138889
0.142019
0.155727
0.170908
0.181804
0.183571
0.169603
0.136378
0.104149
0.0860427
0.0703479
0.0597018
0.0584168
0.0606165
0.0563168
0.0537267
0.0536815
0.0485602
0.0493171
-0.369173
-0.36354
-0.349163
-0.343505
-0.330492
-0.312126
-0.322153
-0.300259
-0.339746
-0.353961
-0.358739
-0.370504
-0.287828
-0.276071
-0.265188
-0.254908
-0.245274
-0.236329
-0.228018
-0.220266
-0.212996
-0.206136
-0.199624
-0.193404
-0.187431
-0.181674
-0.176118
-0.170762
-0.165618
-0.160713
-0.156059
-0.151633
-0.147383
-0.148626
-0.15251
-0.154989
-0.156995
-0.158262
-0.159448
-0.160672
-0.162128
-0.163393
-0.164543
-0.165759
-0.143181
0.137556
0.116032
0.118122
0.131803
0.147589
0.158932
0.162243
0.15333
0.130543
0.105983
0.0895696
0.074544
0.0619699
0.05497
0.0557632
0.0580598
0.0566957
0.0576205
0.0540498
0.0541737
0.051536
0.0518254
-0.367985
-0.36282
-0.348926
-0.346086
-0.331426
-0.32744
-0.314364
-0.299399
-0.308194
-0.323727
-0.320413
-0.287318
-0.34069
-0.336113
-0.353378
-0.358008
-0.27579
-0.26522
-0.255065
-0.245467
-0.23651
-0.228154
-0.220343
-0.213023
-0.206129
-0.199597
-0.193369
-0.187396
-0.181642
-0.176084
-0.170708
-0.165514
-0.160521
-0.15575
-0.151206
-0.146868
-0.142679
-0.143761
-0.147772
-0.1502
-0.15212
-0.153375
-0.154543
-0.155751
-0.157167
-0.15841
-0.159539
-0.160734
-0.138696
0.15445
0.093409
0.0942908
0.109111
0.125818
0.138046
0.143211
0.138623
0.123506
0.105287
0.0911849
0.0777412
0.064936
0.0563382
0.0503822
0.0522269
0.0546769
0.0547741
0.0564456
0.0553772
0.055678
0.0555352
0.0556361
0.0526593
0.0527524
-0.348265
-0.344996
-0.314969
-0.31293
-0.301677
-0.286433
-0.295047
-0.309521
-0.306055
-0.275124
-0.264977
-0.254965
-0.245425
-0.236512
-0.228155
-0.220309
-0.212953
-0.206031
-0.199485
-0.193254
-0.187288
-0.181547
-0.176003
-0.170633
-0.165427
-0.160392
-0.155542
-0.150897
-0.146464
-0.14224
-0.138276
-0.139115
-0.142888
-0.145483
-0.147359
-0.148608
-0.149726
-0.150921
-0.152292
-0.153517
-0.154631
-0.155808
-0.134717
0.0846229
0.072865
0.0905833
0.107294
0.119843
0.126501
0.125432
0.11606
0.102937
0.0912518
0.0796173
0.0677385
0.0584473
0.0514795
0.0451901
0.0481744
0.050832
0.0516083
0.053625
0.0537054
0.0544591
0.055561
0.0550822
0.0546894
0.0549578
0.0544137
0.0547202
-0.312845
-0.312195
-0.302546
-0.299359
-0.288612
-0.274158
-0.282397
-0.296232
-0.292865
-0.309138
-0.305723
-0.264498
-0.254645
-0.245177
-0.236346
-0.22802
-0.22016
-0.212779
-0.20584
-0.199286
-0.193056
-0.187103
-0.181381
-0.175859
-0.170511
-0.165319
-0.160278
-0.155394
-0.150683
-0.146167
-0.14187
-0.137848
-0.134161
-0.135263
-0.138671
-0.140378
-0.142547
-0.143888
-0.145021
-0.146203
-0.147518
-0.148733
-0.149813
-0.150971
-0.130385
0.0579671
0.0785283
0.0944552
0.105795
0.112752
0.114015
0.10881
0.0996827
0.0902642
0.0803488
0.0697806
0.0606711
0.0532681
0.047025
0.0445209
0.0425613
0.046002
0.0482004
0.0501386
0.0505732
0.0515981
0.0532737
0.0524142
0.0533049
0.0540207
0.0549533
0.0545929
-0.30186
-0.298854
-0.289444
-0.2864
-0.276066
-0.263782
-0.270733
-0.283582
-0.280423
-0.295941
-0.292617
-0.254128
-0.244739
-0.236046
-0.227769
-0.219905
-0.212506
-0.205556
-0.199
-0.192776
-0.186835
-0.181137
-0.175644
-0.170327
-0.165164
-0.160143
-0.15526
-0.150522
-0.145952
-0.14158
-0.137466
-0.133647
-0.129888
-0.130843
-0.134438
-0.136617
-0.138376
-0.139404
-0.140542
-0.140613
-0.14353
-0.144162
-0.145134
-0.146217
-0.126053
0.0718254
0.0878398
0.0971304
0.102922
0.104945
0.102324
0.096125
0.0886672
0.0802891
0.0710507
0.062521
0.0551956
0.0488971
0.0452019
0.0414386
0.0432646
0.0446749
0.0402725
0.0461531
0.0471593
0.0483243
0.0499926
0.0489098
0.0502945
0.0512486
0.0528456
0.0520991
-0.288772
-0.285923
-0.277119
-0.273843
-0.26566
-0.253372
-0.260007
-0.271767
-0.269067
-0.283245
-0.280232
-0.244115
-0.235619
-0.227437
-0.219566
-0.212145
-0.205189
-0.198633
-0.192414
-0.186489
-0.180815
-0.175354
-0.170073
-0.164949
-0.159962
-0.155104
-0.150373
-0.145783
-0.14136
-0.137156
-0.133209
-0.129406
-0.125594
-0.126498
-0.130063
-0.13219
-0.134013
-0.135085
-0.136194
-0.137239
-0.138498
-0.139734
-0.141357
-0.140198
-0.121911
0.0853563
0.0931712
0.0972926
0.0987525
0.0971584
0.092769
0.0868174
0.0797329
0.0717028
0.0638899
0.0568743
0.0505987
0.0460122
0.0420526
0.037988
0.0397944
0.0413394
0.0429621
0.0448609
0.0446071
0.0369647
0.0468471
0.0469648
0.0469002
0.0478566
0.0496013
0.0486499
-0.277153
-0.27318
-0.266378
-0.263652
-0.255045
-0.243308
-0.250007
-0.260738
-0.257088
-0.272064
-0.268863
-0.235055
-0.227029
-0.219165
-0.211726
-0.204764
-0.1982
-0.191979
-0.186066
-0.180416
-0.174988
-0.169746
-0.164664
-0.159721
-0.154903
-0.150201
-0.14562
-0.141178
-0.136912
-0.132858
-0.128976
-0.125154
-0.121455
-0.122355
-0.125799
-0.127884
-0.129681
-0.130757
-0.131811
-0.132861
-0.134127
-0.135207
-0.136255
-0.137326
-0.138536
-0.139619
-0.141082
-0.138711
-0.117896
0.0919779
0.0948218
0.0952725
0.093623
0.090013
0.0850133
0.0789136
0.0718977
0.0647985
0.0581877
0.0520782
0.0470035
0.0426605
0.0384798
0.0349687
0.036764
0.0382209
0.0393839
0.0408798
0.0420242
0.0428171
0.0449395
0.0442376
0.0334891
0.045842
0.0475927
-0.271773
-0.265913
-0.263245
-0.254243
-0.245104
-0.234348
-0.240109
-0.249455
-0.260725
-0.259032
-0.271417
-0.268392
-0.226515
-0.218705
-0.211268
-0.20431
-0.197731
-0.191494
-0.18558
-0.179947
-0.174549
-0.169346
-0.164308
-0.159412
-0.154641
-0.149983
-0.145434
-0.141001
-0.136707
-0.132581
-0.128619
-0.124761
-0.121022
-0.117446
-0.118329
-0.121666
-0.123708
-0.125434
-0.126492
-0.127516
-0.12856
-0.1298
-0.130877
-0.131903
-0.132966
-0.134228
-0.135295
-0.136349
-0.1374
-0.113978
0.0939719
0.0935986
0.0914992
0.0880113
0.0834609
0.0780132
0.0717815
0.0653185
0.0591229
0.0532703
0.0480484
0.0434282
0.0390915
0.0354182
0.0322589
0.0339671
0.0353483
0.0364669
0.0379112
0.0388451
0.0394972
0.0409741
0.0402364
-0.265482
-0.262936
-0.255186
-0.252555
-0.244584
-0.235876
-0.225829
-0.231537
-0.239455
-0.247809
-0.250312
-0.260362
-0.258311
-0.218163
-0.210759
-0.203845
-0.197262
-0.190989
-0.185053
-0.179422
-0.174045
-0.168876
-0.16388
-0.159033
-0.154313
-0.149705
-0.145201
-0.140799
-0.136509
-0.132351
-0.128332
-0.124428
-0.12064
-0.117018
-0.113541
-0.114398
-0.117641
-0.11964
-0.121306
-0.122339
-0.123336
-0.124359
-0.125548
-0.126602
-0.127604
-0.128655
-0.129895
-0.130958
-0.132007
-0.133062
-0.110161
0.0927121
0.0901961
0.086598
0.0821967
0.0771292
0.0714634
0.0655297
0.0597183
0.0541441
0.0489778
0.0442626
0.0398347
0.0359629
0.032683
0.0298854
0.0300998
0.0326993
0.0338061
0.0350999
0.0359549
0.0366066
0.0380725
0.0373348
-0.245213
-0.242904
-0.235483
-0.227273
-0.217488
-0.223003
-0.231086
-0.23776
-0.24077
-0.210173
-0.20336
-0.196802
-0.190494
-0.184517
-0.178867
-0.173495
-0.168347
-0.163387
-0.158585
-0.153917
-0.149363
-0.14491
-0.140553
-0.136291
-0.132135
-0.128091
-0.124152
-0.12032
-0.116641
-0.113121
-0.10973
-0.110577
-0.113716
-0.115671
-0.117289
-0.118297
-0.119269
-0.120268
-0.121416
-0.122443
-0.123418
-0.124442
-0.125636
-0.126672
-0.1277
-0.128741
0.0891663
0.0854242
0.0810919
0.0762526
0.0709904
0.0654872
0.0600201
0.0547155
0.0496965
0.0450228
0.0406047
0.0366046
0.0331499
0.0301929
0.0276889
0.02897
0.0301099
0.0289849
0.0267487
0.0330098
0.0332829
0.0338645
0.0352326
0.034542
-0.236325
-0.233938
-0.226702
-0.2189
-0.209493
-0.21483
-0.222508
-0.229602
-0.231779
-0.236637
-0.202825
-0.196349
-0.190017
-0.183999
-0.178316
-0.172926
-0.167779
-0.162838
-0.158073
-0.153453
-0.148953
-0.144556
-0.140251
-0.136033
-0.131904
-0.127865
-0.123914
-0.120055
-0.116325
-0.112746
-0.109315
-0.111802
-0.113368
-0.114356
-0.115305
-0.11628
-0.117396
-0.118397
-0.119347
-0.120345
-0.1215
-0.122509
-0.123508
-0.12452
0.0842528
0.0799388
0.0753021
0.0703444
0.0652013
0.0600518
0.0550102
0.0501769
0.0456194
0.0412945
0.0372769
0.0337023
0.0305937
0.0279548
0.025624
0.0267708
0.0279702
0.0285478
0.0290136
0.0295238
0.0298082
0.0299064
0.0359318
0.0328303
0.0322159
-0.235854
-0.233496
-0.227311
-0.22522
-0.218369
-0.210895
-0.202204
-0.206934
-0.214414
-0.221117
-0.223211
-0.229296
-0.231427
-0.195896
-0.189544
-0.183505
-0.177797
-0.172376
-0.167201
-0.162254
-0.157509
-0.152928
-0.148478
-0.144136
-0.139887
-0.135721
-0.131635
-0.127624
-0.123688
-0.119827
-0.116065
-0.112432
-0.108945
-0.111424
-0.112387
-0.113474
-0.114452
-0.11538
-0.116354
-0.117477
-0.118461
-0.119434
-0.120419
0.0786593
0.074151
0.069484
0.0646534
0.0598107
0.0550375
0.0504131
0.0460134
0.041828
0.0378867
0.0342784
0.031052
0.028243
0.0257559
0.0234655
0.0247103
0.0259205
0.0263946
0.0269384
0.0274798
0.0280838
0.0284619
0.0288879
0.0293211
0.0295951
0.0296491
0.0326555
-0.22697
-0.224951
-0.218971
-0.21695
-0.210461
-0.203382
-0.195104
-0.199751
-0.20648
-0.21306
-0.215076
-0.22085
-0.222894
-0.189085
-0.183017
-0.177316
-0.171873
-0.166648
-0.161664
-0.156912
-0.152355
-0.147945
-0.143655
-0.139461
-0.135352
-0.131316
-0.12735
-0.123447
-0.119606
-0.11584
-0.112174
-0.108633
-0.111503
-0.112459
-0.113553
-0.114515
-0.115465
-0.116425
0.0728069
0.0683379
0.0638356
0.059285
0.0547881
0.0504003
0.0461869
0.0421663
0.0383562
0.0348019
0.0315382
0.0286065
0.025972
0.0234627
0.0203648
0.0227836
0.0239595
0.024305
0.0248947
0.0253887
0.0259986
0.0263447
0.0268581
0.0273731
0.0279488
0.0283907
0.0287863
0.0292055
0.0294229
-0.21864
-0.216694
-0.21105
-0.209094
-0.20298
-0.196026
-0.188468
-0.191333
-0.199438
-0.205094
-0.207212
-0.21279
-0.214749
-0.182513
-0.176847
-0.171419
-0.166143
-0.161101
-0.156315
-0.151755
-0.147367
-0.143117
-0.138975
-0.134922
-0.130943
-0.127029
-0.123173
-0.11937
-0.115624
-0.111952
-0.108378
-0.111584
-0.112528
0.0669681
0.0627037
0.0584788
0.0542562
0.0501263
0.0461278
0.0422931
0.0386408
0.0352008
0.0319873
0.0290232
0.0263159
0.0237825
0.0212931
0.0209082
0.0193936
0.0213064
0.0224884
0.0231149
0.0233655
0.0239908
0.0242703
0.0248107
0.0252832
0.0258524
0.0262891
0.026776
0.0273211
0.0278677
-0.2107
-0.208881
-0.203515
-0.201765
-0.195886
-0.187448
-0.181916
-0.193367
-0.198249
-0.200014
-0.204738
-0.207288
-0.176347
-0.170992
-0.165689
-0.160587
-0.155748
-0.151158
-0.146766
-0.142538
-0.138436
-0.134434
-0.130512
-0.126655
-0.122854
-0.119101
-0.115394
-0.111742
-0.108161
0.0613382
0.0573592
0.0534595
0.0495861
0.0458245
0.0421967
0.038722
0.0354291
0.0323246
0.0294143
0.0267131
0.0242276
0.022048
0.021118
0.0196939
0.0204592
0.0207254
0.0205279
0.0181256
0.0209235
0.0221429
0.0226033
0.0229667
0.0232632
0.02381
0.0242214
0.0247337
0.0252352
0.0257678
-0.203608
-0.201547
-0.196369
-0.194677
-0.18874
-0.181185
-0.185411
-0.175751
-0.191015
-0.193289
-0.197973
-0.199751
-0.203735
-0.170554
-0.165261
-0.160119
-0.155229
-0.150596
-0.146174
-0.141939
-0.137857
-0.133896
-0.130026
-0.126226
-0.122483
-0.118787
-0.115132
-0.111519
-0.107957
0.0560181
0.0523682
0.0488003
0.045279
0.0418706
0.0385929
0.0354665
0.0325027
0.029702
0.0270737
0.0246477
0.022543
0.0212282
0.0198588
0.0178515
0.0188939
0.0195605
0.0199946
0.0202329
0.0206976
0.0208752
0.022705
0.0156606
0.0232117
0.0222437
0.0224915
0.0227998
0.0232006
0.0237163
-0.203116
-0.201211
-0.196122
-0.194421
-0.191867
-0.189316
-0.187608
-0.182253
-0.175074
-0.179107
-0.186071
-0.184327
-0.170052
-0.192874
-0.197703
-0.199439
-0.164816
-0.159673
-0.154758
-0.15009
-0.14562
-0.14135
-0.13726
-0.13332
-0.129492
-0.125745
-0.12206
-0.118423
-0.114826
-0.111266
-0.107741
0.0510683
0.047741
0.0445122
0.041323
0.0382527
0.0353072
0.0325014
0.0298383
0.0273245
0.0249829
0.0229032
0.0213378
0.0198989
0.0180342
0.0163456
0.0172894
0.0179887
0.0185817
0.0188569
0.019214
0.0195417
0.0198455
0.0201247
0.0205694
0.0212097
0.0126997
0.0230284
0.0217788
-0.195839
-0.194206
-0.191304
-0.182589
-0.181071
-0.175899
-0.169448
-0.173223
-0.179655
-0.178348
-0.164301
-0.192609
-0.159216
-0.154306
-0.149636
-0.145123
-0.1408
-0.136674
-0.13273
-0.128924
-0.125218
-0.121585
-0.118008
-0.114472
-0.11097
-0.107498
0.0464928
0.043492
0.0405779
0.0377097
0.0349529
0.032317
0.0298031
0.0274229
0.0251905
0.0231597
0.0214659
0.0199415
0.0181935
0.0165414
0.0150765
0.0158562
0.0165105
0.0170305
0.0173309
0.0177031
0.0181169
0.0185515
0.0188221
0.019147
0.0194869
-0.176165
-0.175214
-0.170356
-0.163663
-0.167427
-0.17373
-0.172237
-0.158715
-0.153833
-0.149209
-0.144682
-0.140306
-0.136126
-0.132152
-0.128341
-0.124658
-0.121067
-0.117543
-0.114067
-0.110626
-0.107214
0.0422998
0.0396031
0.036988
0.0344164
0.0319527
0.0295952
0.027357
0.0252462
0.0232934
0.021565
0.0199895
0.0183273
0.0167199
0.0152867
0.0139099
0.0145894
0.0151951
0.0156144
0.0158873
0.0162289
0.0166182
0.0169975
0.0172878
0.0176534
0.0180863
-0.175208
-0.174843
-0.170718
-0.169306
-0.164549
-0.15814
-0.161732
-0.167895
-0.166415
-0.17352
-0.172042
-0.153295
-0.148771
-0.144269
-0.139862
-0.135632
-0.131612
-0.127775
-0.124088
-0.120518
-0.117037
-0.113614
-0.110234
-0.106883
0.0384716
0.0360563
0.0337222
0.0314237
0.0292229
0.0271292
0.0251442
0.023289
0.0215903
0.0200127
0.0184211
0.016869
0.0154585
0.014118
0.0128249
0.0134364
0.0140037
0.0143521
0.0146193
0.014919
0.0152697
0.0155712
0.0158344
0.0161688
0.0165661
-0.170411
-0.169053
-0.164913
-0.163537
-0.158997
-0.152692
-0.156276
-0.162204
-0.160765
-0.167727
-0.166253
-0.148288
-0.14385
-0.139443
-0.135186
-0.131126
-0.12725
-0.123535
-0.11996
-0.116499
-0.11312
-0.109796
-0.106506
0.0349857
0.0328359
0.0307531
0.0287043
0.0267509
0.0248932
0.0231435
0.0215132
0.0199786
0.0184601
0.0169729
0.0155905
0.0142817
0.0130263
0.0118216
0.0123646
0.0129085
0.0132157
0.0134605
0.0137296
0.0140654
0.0143099
0.0145646
0.0148584
0.0152088
-0.164614
-0.163298
-0.159332
-0.15799
-0.153543
-0.147761
-0.150895
-0.156724
-0.155329
-0.162033
-0.160604
-0.143384
-0.139021
-0.134767
-0.130689
-0.12678
-0.123024
-0.119416
-0.115952
-0.112596
-0.109318
-0.106083
0.0318239
0.02991
0.0280625
0.0262416
0.0245079
0.022866
0.021323
0.0198589
0.0184264
0.0170179
0.0156792
0.0144042
0.013181
0.0120168
0.01089
0.0113696
0.0118942
0.012159
0.0123863
0.0126501
0.0129486
0.0131771
0.0134079
0.0136662
0.0140032
-0.159034
-0.15775
-0.153903
-0.152586
-0.14854
-0.142835
-0.146022
-0.15121
-0.15013
-0.156532
-0.155149
-0.138559
-0.134343
-0.130275
-0.126361
-0.122566
-0.118912
-0.115419
-0.112062
-0.10881
-0.105622
0.0289569
0.0272638
0.0256222
0.0240074
0.0224727
0.0210231
0.0196425
0.0183033
0.0169871
0.0157141
0.0144843
0.0132932
0.0121562
0.0110698
0.0100024
0.010428
0.0109502
0.0111727
0.0113964
0.0116413
0.0119222
0.0121237
0.0123349
0.0125885
0.0128839
-0.153626
-0.152569
-0.148887
-0.147639
-0.143574
-0.138018
-0.141049
-0.146398
-0.145131
-0.151039
-0.150157
-0.133888
-0.12985
-0.125968
-0.122156
-0.118459
-0.114922
-0.111542
-0.108293
-0.105134
0.0263649
0.0248622
0.0234127
0.0219816
0.0206236
0.0193324
0.0180856
0.0168669
0.0156768