/*--------------------------------*- C++ -*----------------------------------*\
| =========                 |                                                 |
| \\      /  F ield         | OpenFOAM: The Open Source CFD Toolbox           |
|  \\    /   O peration     | Version:  v1912                                 |
|   \\  /    A nd           | Website:  www.openfoam.com                      |
|    \\/     M anipulation  |                                                 |
\*---------------------------------------------------------------------------*/
FoamFile
{
    version     2.0;
    format      ascii;
    class       volScalarField;
    location    "160";
    object      p;
}
// * * * * * * * * * * * * * * * * * * * * * * * * * * * * * * * * * * * * * //

dimensions      [0 2 -2 0 0 0 0];


internalField   nonuniform List<scalar> 
3753
(
-0.0113172
0.0181099
0.0109916
0.0430048
0.0102793
0.0206741
0.0655516
0.0188327
0.0227484
0.0287208
0.0895685
0.0356546
0.0276764
0.0294231
0.017637
0.113944
0.0575739
0.0377687
0.031477
0.0187563
0.00794085
0.137366
0.0819835
0.0533953
0.0362658
0.0196615
0.00905687
0.00196039
0.159426
0.107427
0.0736051
0.0448873
0.0205721
0.00993423
0.00302474
-0.00421329
0.179981
0.133184
0.0972623
0.0575908
0.0219646
0.0104221
0.00407274
-0.00319936
-0.00973549
0.19882
0.15884
0.123561
0.0741071
0.0240913
0.0106008
0.00501236
-0.00225314
-0.00883274
-0.0138835
0.215694
0.184053
0.152107
0.094151
0.0268498
0.0105541
0.00588967
-0.00147031
-0.00801813
-0.0130982
-0.017049
0.230277
0.208479
0.182789
0.117698
0.0298742
0.010302
0.00672421
-0.000813268
-0.00740952
-0.012363
-0.0163679
-0.019485
0.242209
0.23166
0.215663
0.144999
0.0326478
0.00978004
0.00750544
-0.000279263
-0.00698638
-0.011787
-0.0157167
-0.0189004
-0.0212472
0.25106
0.253008
0.250819
0.17658
0.0345151
0.00885413
0.00818516
0.000117438
-0.00674791
-0.0113594
-0.015192
-0.0183358
-0.0207481
-0.0224878
0.256404
0.271702
0.28841
0.213087
0.0347213
0.00733055
0.00867359
0.000340918
-0.00669092
-0.0110921
-0.014784
-0.0178787
-0.0202556
-0.0220617
-0.0233145
0.257809
0.286699
0.328656
0.254831
0.0325569
0.00497625
0.00884123
0.000330134
-0.00680712
-0.010996
-0.0145106
-0.0175199
-0.0198472
-0.0216364
-0.0229529
-0.0237725
0.254984
0.296712
0.371359
0.302432
0.026765
0.00178011
0.00847863
1.80194e-05
-0.00709132
-0.0110712
-0.0143956
-0.0172743
-0.0195118
-0.021285
-0.0225871
-0.0234659
-0.0239442
0.248219
0.299712
0.41389
0.361316
0.0135607
-0.00185316
0.00733886
-0.000660344
-0.00753057
-0.011315
-0.0144554
-0.0171649
-0.0192573
-0.0209993
-0.0222899
-0.0231468
-0.023685
-0.0239205
0.238191
0.292388
0.448852
0.436615
-0.00658738
-0.00632898
0.00543307
-0.00177086
-0.00808109
-0.011716
-0.0146991
-0.017211
-0.0190971
-0.0207896
-0.0220616
-0.022881
-0.0234047
-0.0236992
-0.0237495
0.225693
0.279414
0.382355
0.383527
0.567748
0.626115
0.538389
0.0427471
0.394097
0.018889
-0.0129987
-0.0463326
0.00318697
-0.0032942
-0.00866281
-0.0122371
-0.015123
-0.0174274
-0.0190378
-0.0206732
-0.0219169
-0.0226686
-0.0231617
-0.0234535
-0.0235603
-0.0234644
0.211586
0.260331
0.377534
0.360207
0.527904
0.612127
0.70304
0.547344
0.482168
0.630584
0.0748515
0.0794707
-0.0502324
-0.0355575
-0.0173581
0.000353821
-0.0184479
-0.0048993
-0.00920539
-0.0128013
-0.015697
-0.0178164
-0.0190751
-0.0206605
-0.0218786
-0.0225248
-0.0229554
-0.0232371
-0.0233459
-0.0233022
-0.0230861
0.196814
0.238554
0.338413
0.312384
0.506893
0.481655
0.641178
0.639923
0.718426
0.639769
-0.0319842
-0.0505559
-0.0181947
-0.0529429
-0.00529224
-0.00611828
-0.00532452
-0.0216715
-0.00970392
-0.0133048
-0.0163591
-0.0183627
-0.0191867
-0.0207518
-0.0219672
-0.0224727
-0.0227973
-0.0230484
-0.0231583
-0.0231141
-0.0229459
-0.0226423
0.182325
0.217248
0.285744
0.252704
0.448685
0.405158
0.633642
0.619362
0.576707
0.601488
0.735718
0.73113
-0.0554135
-0.026987
-0.020963
-0.00721504
-0.00460701
-0.010239
-0.00963534
-0.00907537
-0.00687736
-0.0225555
-0.0245188
-0.0136969
-0.0170199
-0.0190381
-0.0193324
-0.0209304
-0.0221945
-0.0225308
-0.0227072
-0.0228958
-0.0229975
-0.0229504
-0.0227782
-0.0225213
-0.0221482
0.168737
0.194684
0.238899
0.362306
0.331536
0.548442
0.51554
0.446408
0.488846
0.727556
0.706662
0.639268
0.681459
-0.0118681
-0.00720041
-0.00380419
-0.00452351
-0.00580121
-0.0095011
-0.0141486
-0.0119415
-0.00656581
-0.0133296
-0.00719916
-0.0175256
-0.0198492
-0.0194609
-0.0211603
-0.0225577
-0.0227089
-0.022703
-0.0227952
-0.0228718
-0.0228144
-0.0226323
-0.0223707
-0.0220423
-0.0216282
0.156526
0.174652
0.180513
0.253132
0.193523
0.39384
0.342912
0.322782
0.593315
0.526537
0.490138
0.475043
-0.00582306
-0.00503435
-0.0061081
-0.00836732
-0.0106782
-0.0138106
-0.0177545
-0.0158624
-0.0118629
-0.0127724
-0.00494953
-0.0158474
-0.00756099
-0.0209085
-0.0195335
-0.0214035
-0.0230296
-0.0230036
-0.0227959
-0.0227604
-0.0227966
-0.0227163
-0.0225124
-0.0222364
-0.0219057
-0.0215358
-0.0210908
0.145894
0.158362
0.140065
0.0478
0.0632903
0.0518955
-0.182747
0.427415
0.37181
-0.00838698
0.0624032
0.407412
-0.00553937
-0.00648606
-0.00653449
-0.0109302
-0.0136826
-0.0148463
-0.0172986
-0.0221901
-0.0189095
-0.0158307
-0.0164872
-0.0120294
-0.0129256
-0.00537909
-0.0164453
-0.0195768
-0.0216401
-0.0235439
-0.0233994
-0.022986
-0.0227986
-0.0227851
-0.022672
-0.0224292
-0.0221236
-0.0217817
-0.0214126
-0.0210086
-0.0205386
0.136915
0.144898
0.111608
0.0302492
-0.840066
-0.702651
-0.399098
-0.153006
-0.723488
-0.693036
0.166195
0.0986299
-0.0139408
-0.0150778
-0.0172248
-0.0182549
-0.022811
-0.0197791
-0.022025
-0.0186501
-0.0191257
-0.0159737
-0.0165061
-0.0217595
-0.0240852
-0.0238502
-0.0232698
-0.022905
-0.0228434
-0.0226953
-0.0224014
-0.0220433
-0.021674
-0.0213013
-0.0208976
-0.0204659
-0.0199764
0.129607
0.133659
0.0902792
0.0185719
-0.716572
-1.00855
-0.869924
-0.892139
-0.843291
-0.0174857
-0.0185093
-0.0192757
-0.0262906
-0.0204359
-0.0215487
-0.0205225
-0.0213565
-0.0220951
-0.018922
-0.0190996
-0.0251052
-0.0242609
-0.0236491
-0.0230663
-0.0229677
-0.0227943
-0.0224452
-0.0220136
-0.02159
-0.0212059
-0.0208011
-0.0203656
-0.0199117
-0.0194043
0.123958
0.124389
0.0746651
0.0169781
-0.574834
-0.605106
-0.920836
-0.83222
-0.835364
-0.659428
-0.0190123
-0.0273528
-0.0210084
-0.0206701
-0.0214746
-0.0264069
-0.0223666
-0.022662
-0.0208333
-0.0208853
-0.024665
-0.0260985
-0.0241175
-0.0232702
-0.0231459
-0.0229642
-0.0225709
-0.0220516
-0.0215422
-0.0211337
-0.0207246
-0.0202798
-0.0198186
-0.0193477
-0.0188373
0.119919
0.116951
0.0638505
0.0133028
-0.458772
-0.571087
-0.45214
-0.583051
-0.836692
-0.652991
-0.0214383
-0.0219697
-0.0249761
-0.0221323
-0.0223889
-0.0228552
-0.0261021
-0.0248882
-0.0250759
-0.0246469
-0.0251879
-0.0235136
-0.0233627
-0.0231897
-0.022779
-0.0221715
-0.0215418
-0.0210967
-0.020676
-0.020216
-0.0197393
-0.0192632
-0.0187864
-0.0182703
0.117435
0.111264
0.0567451
0.00682651
-0.371676
-0.525193
-0.450149
-0.387199
-0.433342
-0.48311
-0.583207
-0.688531
-0.626302
-0.0254878
-0.0233125
-0.0263978
-0.02537
-0.025944
-0.0255303
-0.0238213
-0.0244501
-0.0253175
-0.0236109
-0.0234457
-0.0230598
-0.0223811
-0.0215956
-0.0211049
-0.0206673
-0.0201825
-0.0196821
-0.0191909
-0.0187058
-0.0182248
-0.0177023
0.116445
0.107274
0.0524357
0.000254783
-0.303102
-0.472943
-0.438618
-0.387184
-0.384256
-0.346345
-0.436588
-0.477871
-0.555029
-0.605677
-0.0261448
-0.0254791
-0.0256908
-0.0265347
-0.025612
-0.0262013
-0.0241974
-0.0239146
-0.024175
-0.0245129
-0.0252684
-0.0254614
-0.0237024
-0.0233893
-0.0226843
-0.0217024
-0.021164
-0.0207096
-0.020194
-0.0196584
-0.0191402
-0.0186365
-0.0181496
-0.0176627
-0.0171535
0.11689
0.10494
0.0503086
-0.00519764
-0.250355
-0.420892
-0.418453
-0.382802
-0.346829
-0.34452
-0.371064
-0.395523
-0.311872
-0.424566
-0.445939
-0.489206
-0.461478
-0.551559
-0.59753
-0.0262537
-0.0259163
-0.0267065
-0.0257141
-0.0277855
-0.024903
-0.0243983
-0.0242247
-0.0239654
-0.0242428
-0.0244293
-0.0245533
-0.0247102
-0.0241129
-0.0256289
-0.0237177
-0.0230885
-0.0218538
-0.0212748
-0.0208075
-0.0202593
-0.0196826
-0.0191223
-0.018587
-0.0180827
-0.0175931
-0.0171173
-0.0166218
0.118719
0.104232
0.0499796
-0.00913506
-0.211148
-0.374312
-0.394654
-0.373991
-0.345734
-0.312747
-0.310459
-0.333799
-0.352
-0.366631
-0.376546
-0.386002
-0.399787
-0.423938
-0.283992
-0.445555
-0.481482
-0.461414
-0.0261308
-0.0258467
-0.0292471
-0.023861
-0.0246371
-0.0246027
-0.0244228
-0.0242242
-0.0239852
-0.0242457
-0.0244466
-0.0245675
-0.0246571
-0.0247326
-0.0246776
-0.024296
-0.0259176
-0.0236123
-0.0220389
-0.0214358
-0.020961
-0.0203819
-0.0197613
-0.0191519
-0.0185696
-0.01803
-0.0175285
-0.0170531
-0.0165893
-0.0160898
0.121879
0.105118
0.0512034
-0.0113709
-0.182148
-0.335005
-0.370628
-0.362048
-0.342431
-0.312913
-0.284799
-0.282763
-0.301741
-0.316591
-0.328971
-0.337985
-0.34584
-0.354688
-0.36569
-0.421903
-0.260825
-0.44078
-0.0299469
-0.0247487
-0.0247327
-0.0245753
-0.0245692
-0.024418
-0.0241585
-0.0242166
-0.0241989
-0.0244264
-0.0245786
-0.0246045
-0.024666
-0.0247439
-0.022257
-0.0216441
-0.0211634
-0.0205576
-0.0198984
-0.0192414
-0.0185994
-0.0180031
-0.0174765
-0.016995
-0.0165273
-0.0160599
-0.0155804
0.126321
0.107579
0.0538418
-0.0118633
-0.16056
-0.302623
-0.348193
-0.348667
-0.3367
-0.312112
-0.285205
-0.261602
-0.259733
-0.27557
-0.287781
-0.301053
-0.311007
-0.31905
-0.329867
-0.337924
-0.344691
-0.351883
-0.241116
-0.0246552
-0.0246512
-0.0245588
-0.0245756
-0.0243378
-0.0242062
-0.0225201
-0.0248654
-0.0242518
-0.0245752
-0.0245705
-0.0246646
-0.0246828
-0.0218956
-0.0214059
-0.0207782
-0.0200875
-0.0193957
-0.0186908
-0.0180174
-0.0174458
-0.0169486
-0.016473
-0.0160035
-0.015553
-0.0150798
0.131994
0.111596
0.0578308
-0.0106797
-0.144451
-0.276392
-0.328147
-0.335315
-0.329262
-0.309999
-0.285211
-0.262145
-0.241846
-0.240056
-0.253531
-0.264032
-0.275134
-0.286263
-0.297157
-0.310506
-0.304396
-0.318418
-0.224286
-0.0246446
-0.0246531
-0.0244962
-0.0245309
-0.0240662
-0.0229306
-0.022205
-0.0226488
-0.0257529
-0.0244366
-0.0244104
-0.0246609
-0.0246549
-0.0216805
-0.0210307
-0.0203174
-0.0196085
-0.0188533
-0.0180849
-0.0174454
-0.0169214
-0.0164341
-0.0159557
-0.0155008
-0.0150547
-0.0145903
0.138842
0.117153
0.0631735
-0.00788271
-0.132501
-0.255598
-0.310752
-0.322875
-0.321165
-0.306673
-0.284681
-0.262522
-0.242447
-0.22494
-0.223363
-0.234338
-0.24373
-0.253092
-0.262752
-0.271616
-0.277627
-0.288497
-0.28276
-0.310024
-0.316503
-0.209809
-0.0245983
-0.0246199
-0.0241929
-0.0236302
-0.0228211
-0.0226296
-0.0219811
-0.0224194
-0.0228412
-0.0239687
-0.0272915
-0.024547
-0.0245443
-0.0213033
-0.0205724
-0.0198643
-0.0190874
-0.0182134
-0.017485
-0.0169261
-0.0164179
-0.0159235
-0.0154567
-0.0150031
-0.0145675
-0.014113
0.146798
0.124242
0.0699315
-0.00348777
-0.123827
-0.239647
-0.296024
-0.311706
-0.313195
-0.302592
-0.283533
-0.262723
-0.243027
-0.225522
-0.210396
-0.222062
-0.209064
-0.234438
-0.242713
-0.25032
-0.255044
-0.264478
-0.259357
-0.271325
-0.27677
-0.28194
-0.196973
-0.0245493
-0.0233906
-0.023118
-0.0228517
-0.0228168
-0.0223045
-0.0216163
-0.0221074
-0.0226187
-0.022995
-0.0230862
-0.0280673
-0.0208302
-0.0201367
-0.0193871
-0.0184057
-0.0175698
-0.01697
-0.0164351
-0.0159143
-0.0154262
-0.0149593
-0.0145185
-0.0140924
-0.0136466
0.155779
0.132849
0.0782114
0.00256645
-0.117881
-0.228082
-0.283914
-0.301908
-0.305767
-0.298232
-0.281874
-0.262674
-0.243627
-0.226152
-0.210925
-0.197527
-0.208123
-0.217655
-0.225229
-0.196289
-0.233993
-0.244267
-0.239661
-0.250733
-0.254624
-0.263533
-0.259087
-0.185723
-0.0229795
-0.0228847
-0.0224556
-0.0218644
-0.0210895
-0.0222006
-0.0222815
-0.022682
-0.0228151
-0.0203898
-0.0197409
-0.0186614
-0.0176985
-0.0170576
-0.0164935
-0.0159387
-0.0154204
-0.0149338
-0.014478
-0.0140463
-0.0136277
-0.0131937
0.165682
0.142954
0.0881631
0.0104544
-0.114417
-0.220612
-0.274372
-0.293493
-0.299068
-0.293919
-0.279908
-0.26235
-0.244211
-0.22691
-0.211521
-0.198034
-0.186217
-0.195458
-0.204099
-0.210567
-0.215592
-0.219235
-0.222884
-0.226283
-0.185115
-0.231249
-0.235596
-0.239362
-0.243492
-0.249709
-0.175705
-0.022611
-0.0225252
-0.0218364
-0.0214691
-0.0206035
-0.0212295
-0.023389
-0.0224837
-0.02235
-0.0224849
-0.020112
-0.0189874
-0.017863
-0.0171899
-0.0165992
-0.0160052
-0.0154506
-0.0149352
-0.0144557
-0.0140083
-0.0135821
-0.0131756
-0.0127569
0.176371
0.154531
0.100008
0.0204775
-0.113491
-0.217088
-0.26737
-0.286469
-0.293176
-0.289847
-0.277812
-0.261799
-0.244706
-0.227808
-0.212294
-0.198608
-0.186673
-0.176158
-0.184354
-0.191788
-0.197718
-0.202424
-0.205331
-0.208235
-0.211455
-0.215659
-0.218979
-0.22214
-0.175152
-0.239323
-0.242565
-0.166816
-0.0220972
-0.0219598
-0.0207044
-0.0217638
-0.0215359
-0.0209405
-0.0204182
-0.0207446
-0.0214328
-0.021295
-0.0224182
-0.0194109
-0.0180501
-0.0173649
-0.0167516
-0.0161173
-0.0155228
-0.0149719
-0.0144584
-0.0139823
-0.0135408
-0.0131319
-0.0127419
-0.0123311
0.187665
0.167536
0.114049
0.0330255
-0.115437
-0.217519
-0.262888
-0.280846
-0.288138
-0.286126
-0.27571
-0.261087
-0.24507
-0.228777
-0.213295
-0.199369
-0.187198
-0.176575
-0.167223
-0.17447
-0.181197
-0.18624
-0.19129
-0.195573
-0.198553
-0.202968
-0.205217
-0.207785
-0.210591
-0.166316
-0.1589
-0.0216178
-0.0218708
-0.0216365
-0.0211249
-0.0210477
-0.0205263
-0.0199122
-0.0205761
-0.0209167
-0.0208205
-0.0215206
-0.0213844
-0.0225052
-0.0182528
-0.0175747
-0.0169477
-0.0162732
-0.0156392
-0.0150518
-0.0144992
-0.0139824
-0.0135144
-0.0130927
-0.0126999
-0.0123152
-0.0119257
0.199338
0.181874
0.130678
0.0485523
-0.120882
-0.222068
-0.260919
-0.27664
-0.283987
-0.282824
-0.27368
-0.260279
-0.24529
-0.229726
-0.214482
-0.200394
-0.187912
-0.177054
-0.167597
-0.159266
-0.165697
-0.171596
-0.176181
-0.180972
-0.185524
-0.189697
-0.194935
-0.192569
-0.197725
-0.20232
-0.158454
-0.151848
-0.0219691
-0.0217152
-0.0212084
-0.0211256
-0.0206478
-0.0206196
-0.0206661
-0.0185017
-0.0196408
-0.0205603
-0.0204825
-0.0210097
-0.0208961
-0.0215925
-0.0214575
-0.0178089
-0.0171807
-0.0164684
-0.0157965
-0.015177
-0.014588
-0.0140243
-0.0135115
-0.0130625
-0.0126622
-0.0122758
-0.0119118
-0.0115232
0.211081
0.197392
0.150399
0.0676639
-0.130849
-0.231049
-0.261467
-0.273867
-0.280753
-0.279992
-0.271779
-0.25942
-0.24538
-0.230582
-0.215752
-0.201668
-0.188903
-0.17771
-0.168026
-0.159601
-0.152173
-0.157889
-0.16316
-0.167202
-0.171247
-0.175516
-0.179073
-0.182429
-0.186232
-0.183805
-0.194958
-0.197052
-0.151446
-0.145529
-0.0212791
-0.0211936
-0.0207603
-0.020657
-0.0215728
-0.0199988
-0.0190264
-0.0180693
-0.018621
-0.0198381
-0.0195829
-0.0206177
-0.0196817
-0.02108
-0.0209675
-0.0174377
-0.0166958
-0.0159883
-0.0153405
-0.0147246
-0.0141144
-0.0135412
-0.0130501
-0.0126337
-0.0122407
-0.0118735
-0.0115105
-0.0111391
0.222476
0.213878
0.173949
0.0909649
-0.146811
-0.244966
-0.264541
-0.272556
-0.278456
-0.277667
-0.270047
-0.25855
-0.245363
-0.231316
-0.217001
-0.203101
-0.190183
-0.17864
-0.168617
-0.159977
-0.152467
-0.145826
-0.150904
-0.155437
-0.159262
-0.162904
-0.166671
-0.169862
-0.172096
-0.176183
-0.173986
-0.178741
-0.181964
-0.145158
-0.139839
-0.0208574
-0.0207346
-0.0225542
-0.0192678
-0.0193131
-0.0190762
-0.0184448
-0.0177018
-0.0181832
-0.0189171
-0.0186944
-0.0198223
-0.0197471
-0.0208177
-0.0198062
-0.0169479
-0.0162085
-0.0155332
-0.0149022
-0.0142588
-0.0136193
-0.0130654
-0.0126172
-0.0122161
-0.0118425
-0.0114759
-0.0111271
-0.0107569
0.232955
0.231057
0.20245
0.11821
-0.170472
-0.26452
-0.27019
-0.272732
-0.277113
-0.275867
-0.268518
-0.257698
-0.245265
-0.231923
-0.218162
-0.204576
-0.191678
-0.179878
-0.169467
-0.160497
-0.152794
-0.146085
-0.14011
-0.150178
-0.14469
-0.155014
-0.158799
-0.161452
-0.163859
-0.167273
-0.165254
-0.169686
-0.171821
-0.175751
-0.173828
-0.139496
-0.134712
-0.0233104
-0.0193901
-0.0191727
-0.0185985
-0.0184824
-0.0180159
-0.0172163
-0.0177782
-0.0183834
-0.0182315
-0.0190002
-0.0187894
-0.0164528
-0.0157436
-0.0151065
-0.0144569
-0.0137527
-0.0131147
-0.0126246
-0.0122104
-0.0118242
-0.011449
-0.0110905
-0.0107458
-0.01039
0.241791
0.248443
0.237389
0.149266
-0.204273
-0.290205
-0.278556
-0.274413
-0.276733
-0.2746
-0.267212
-0.25689
-0.245111
-0.232418
-0.219202
-0.206
-0.193269
-0.181367
-0.170627
-0.161257
-0.153242
-0.146363
-0.140341
-0.134958
-0.144129
-0.148383
-0.151253
-0.139066
-0.154844
-0.159372
-0.157599
-0.161136
-0.164007
-0.166892
-0.164994
-0.134401
-0.130036
-0.0186398
-0.0185362
-0.018146
-0.0180597
-0.0175467
-0.0167172
-0.0172946
-0.0179696
-0.0178165
-0.0184498
-0.0183061
-0.0159695
-0.0153177
-0.0146964
-0.0139451
-0.0132036
-0.0126617
-0.012229
-0.0118247
-0.0114364
-0.0110638
-0.0107149
-0.0103807
-0.0100262
0.248189
0.264846
0.279914
0.191382
-0.254092
-0.321901
-0.289689
-0.277618
-0.277304
-0.273854
-0.266144
-0.256145
-0.244921
-0.232822
-0.220123
-0.20732
-0.194849
-0.183
-0.172064
-0.162318
-0.153906
-0.146741
-0.140579
-0.135161
-0.130265
-0.138546
-0.142227
-0.145095
-0.147862
-0.148744
-0.150061
-0.151634
-0.134017
-0.153759
-0.15554
-0.157058
-0.159034
-0.160881
-0.163619
-0.129745
-0.125813
-0.0181882
-0.0181164
-0.0176929
-0.0175901
-0.017046
-0.0162206
-0.0168005
-0.0174866
-0.0173321
-0.0180415
-0.0178962
-0.0155242
-0.0149476
-0.0142002
-0.0133321
-0.0127297
-0.0122772
-0.0118527
-0.0114442
-0.0110546
-0.0106919
-0.0103482
-0.0100172
-0.0096706
0.25154
0.278079
0.327395
0.253441
-0.322183
-0.360283
-0.302971
-0.282359
-0.278768
-0.273607
-0.265316
-0.255477
-0.244711
-0.233155
-0.220937
-0.208522
-0.196346
-0.184659
-0.17368
-0.163665
-0.154853
-0.147309
-0.140897
-0.135363
-0.130451
-0.126022
-0.133564
-0.136848
-0.139392
-0.141352
-0.142773
-0.144013
-0.145324
-0.147768
-0.129379
-0.157134
-0.158755
-0.125546
-0.121949
-0.0177434
-0.0176478
-0.0171981
-0.0170894
-0.0165409
-0.0157486
-0.0163135
-0.0169806
-0.0168389
-0.0175577
-0.0174093
-0.0151496
-0.0145278
-0.0134952
-0.0128284
-0.0123566
-0.0119126
-0.0114821
-0.0110704
-0.0106817
-0.0103238
-0.00998697
-0.00966344
-0.00932548
0.285254
0.369321
0.332551
0.399327
-0.249112
0.235605
-0.306139
-0.401312
-0.466238
-0.316994
-0.288324
-0.281007
-0.273813
-0.264735
-0.254896
-0.244495
-0.233439
-0.221664
-0.209611
-0.197733
-0.186264
-0.175359
-0.165218
-0.156084
-0.148135
-0.141375
-0.135625
-0.130626
-0.126187
-0.122145
-0.128926
-0.131987
-0.134392
-0.13598
-0.137293
-0.138432
-0.139722
-0.14132
-0.142692
-0.143808
-0.144781
-0.125216
-0.1217
-0.118438
-0.0172528
-0.0171464
-0.0166928
-0.0165879
-0.01605
-0.0152746
-0.0158672
-0.0164831
-0.0163547
-0.0170493
-0.0169132
-0.0149374
-0.0136878
-0.0129525
-0.0124691
-0.0120076
-0.0115541
-0.0111175
-0.0106977
-0.0103153
-0.00996433
-0.0096346
-0.00932001
-0.00898504
0.391826
0.465458
0.521119
0.441975
0.39363
-0.187554
-0.206685
0.14992
-0.504928
-0.449621
-0.42008
-0.330263
-0.407583
-0.294154
-0.283798
-0.274387
-0.264405
-0.254412
-0.244279
-0.233694
-0.222323
-0.210598
-0.199006
-0.187771
-0.177011
-0.166865
-0.157536
-0.149235
-0.142082
-0.13602
-0.130844
-0.126337
-0.122297
-0.118619
-0.124825
-0.127486
-0.129589
-0.13133
-0.132419
-0.133343
-0.134892
-0.135787
-0.137176
-0.138216
-0.139376
-0.121387
-0.118204
-0.115229
-0.0167459
-0.0166427
-0.0161998
-0.016105
-0.0155667
-0.0153563
-0.0153378
-0.0160192
-0.0159176
-0.0165502
-0.0164251
-0.0139224
-0.0130973
-0.0126145
-0.0121328
-0.0116596
-0.0112031
-0.0107491
-0.0103292
-0.00995486
-0.00961062
-0.00929059
-0.00898058
0.554273
0.569305
0.518181
0.474613
0.582628
0.529388
0.137913
-0.43675
-0.15298
-0.530044
-0.422047
-0.513086
-0.355076
-0.297911
-0.331147
-0.408549
-0.286526
-0.275259
-0.264332
-0.254042
-0.244075
-0.233945
-0.222937
-0.2115
-0.200174
-0.189171
-0.178585
-0.168514
-0.159109
-0.150562
-0.143044
-0.136615
-0.131168
-0.126513
-0.122427
-0.118757
-0.115398
-0.121009
-0.123574
-0.125424
-0.127234
-0.129171
-0.130819
-0.132273
-0.133001
-0.134984
-0.11791
-0.115011
-0.112283
-0.0162528
-0.016159
-0.015753
-0.0156603
-0.0151324
-0.0141937
-0.0157934
-0.0154965
-0.015409
-0.0160789
-0.0159786
-0.0132628
-0.0127886
-0.0122833
-0.0117936
-0.0113282
-0.0108441
-0.010378
-0.00996678
-0.0095991
-0.00926764
-0.00895436
0.657525
0.628846
0.688151
0.67976
0.391626
0.219626
-0.534952
-0.446794
-0.537839
-0.423572
-0.358889
-0.309255
-0.288208
-0.295841
-0.334434
-0.403267
-0.417322
-0.276308
-0.264556
-0.253811
-0.243892
-0.234222
-0.223526
-0.212332
-0.201249
-0.190469
-0.180064
-0.170104
-0.160707
-0.152027
-0.14423
-0.137439
-0.131658
-0.12677
-0.12257
-0.118869
-0.115523
-0.112439
-0.117554
-0.119796
-0.121582
-0.123462
-0.1251
-0.126556
-0.127617
-0.129511
-0.128481
-0.130902
-0.132136
-0.132863
-0.134773
-0.11474
-0.11208
-0.109562
-0.0158191
-0.015727
-0.0152009
-0.0151348
-0.0145873
-0.0134827
-0.0141265
-0.0147618
-0.0167076
-0.015575
-0.0154836
-0.0129818
-0.0124529
-0.0119474
-0.0114861
-0.0109853
-0.0104661
-0.0100085
-0.00960952
-0.00925809
-0.00893367
-0.448273
-0.428647
-0.370288
-0.353892
-0.311017
-0.292252
-0.27683
-0.286127
-0.29623
-0.329671
-0.341562
-0.407352
-0.419504
-0.265235
-0.253761
-0.243754
-0.234566
-0.224117
-0.21311
-0.202244
-0.191675
-0.18145
-0.171612
-0.162264
-0.153537
-0.145563
-0.138475
-0.13235
-0.127163
-0.122771
-0.118983
-0.115618
-0.112554
-0.10971
-0.114422
-0.116452
-0.118065
-0.119583
-0.121253
-0.122456
-0.124133
-0.12529
-0.124307
-0.111831
-0.109369
-0.107074
-0.0153412
-0.0152355
-0.0142398
-0.0144591
-0.0138853
-0.0131936
-0.0136134
-0.0143857
-0.014238
-0.0147477
-0.0175556
-0.0126358
-0.0121096
-0.0116666
-0.0111729
-0.0105957
-0.0100855
-0.00964904
-0.00926618
-0.00892158
-0.36972
-0.355392
-0.316289
-0.307817
-0.293471
-0.280515
-0.266272
-0.272931
-0.286889
-0.292223
-0.302176
-0.330597
-0.341313
-0.254011
-0.243693
-0.235028
-0.224734
-0.213846
-0.20317
-0.192799
-0.182751
-0.173036
-0.163751
-0.155023
-0.146957
-0.139662
-0.133236
-0.127727
-0.123076
-0.119132
-0.115703
-0.112637
-0.109818
-0.10721
-0.111554
-0.113385
-0.11493
-0.116245
-0.117798
-0.11901
-0.119873
-0.121455
-0.120612
-0.122267
-0.124043
-0.109125
-0.106899
-0.104768
-0.0140816
-0.0139097
-0.0134697
-0.0128357
-0.0132686
-0.013795
-0.0136586
-0.012256
-0.0118691
-0.0113882
-0.0107678
-0.0101991
-0.00972187
-0.00930406
-0.00893014
-0.315729
-0.308552
-0.296178
-0.291848
-0.281175
-0.267247
-0.254689
-0.279094
-0.285882
-0.288824
-0.290551
-0.304431
-0.243742
-0.235671
-0.225398
-0.214557
-0.204037
-0.193849
-0.18398
-0.174384
-0.165162
-0.15645
-0.148343
-0.14092
-0.134266
-0.128462
-0.123519
-0.119358
-0.115808
-0.112702
-0.109891
-0.107306
-0.104893
-0.108802
-0.110632
-0.111997
-0.113199
-0.114752
-0.115671
-0.116464
-0.118017
-0.117215
-0.118913
-0.119744
-0.121278
-0.120529
-0.106681
-0.104605
-0.102651
-0.0135798
-0.0134902
-0.0131051
-0.0123857
-0.0128976
-0.0134103
-0.0133023
-0.0120687
-0.0116171
-0.0109763
-0.0103469
-0.00982757
-0.00937771
-0.0089669
-0.298612
-0.291987
-0.28272
-0.280315
-0.271218
-0.255822
-0.265021
-0.243851
-0.27471
-0.278905
-0.286244
-0.289041
-0.289459
-0.236549
-0.226122
-0.215249
-0.20485
-0.194825
-0.185144
-0.175668
-0.1665
-0.157806
-0.149681
-0.142182
-0.135373
-0.12933
-0.124107
-0.119687
-0.115963
-0.11277
-0.10994
-0.107367
-0.104981
-0.102762
-0.108363
-0.106433
-0.110098
-0.111795
-0.112689
-0.11341
-0.11478
-0.114373
-0.115532
-0.116329
-0.117858
-0.117117
-0.104403
-0.102505
-0.100705
-0.013216
-0.0131305
-0.0126925
-0.0120348
-0.0124602
-0.0130451
-0.0129343
-0.0121266
-0.0111583
-0.0105292
-0.00995942
-0.00948686
-0.00903755
-0.298193
-0.292032
-0.282967
-0.280565
-0.278665
-0.272902
-0.26974
-0.259355
-0.244092
-0.254251
-0.267269
-0.263998
-0.237635
-0.278365
-0.286578
-0.289169
-0.22691
-0.215946
-0.205613
-0.195717
-0.186246
-0.176895
-0.167774
-0.159095
-0.150957
-0.143408
-0.136493
-0.130273
-0.124808
-0.120129
-0.116188
-0.112861
-0.109978
-0.107399
-0.105035
-0.10284
-0.100801
-0.106175
-0.107552
-0.108759
-0.10415
-0.110077
-0.111997
-0.111427
-0.112582
-0.113112
-0.114498
-0.114548
-0.102317
-0.100576
-0.0989097
-0.0128252
-0.0127246
-0.0122439
-0.0134565
-0.012105
-0.0110129
-0.0126218
-0.0125002
-0.0113169
-0.0124856
-0.0107264
-0.0101198
-0.00962187
-0.00914626
-0.283164
-0.280911
-0.277458
-0.260571
-0.258208
-0.245944
-0.238731
-0.244437
-0.256523
-0.253763
-0.227736
-0.278459
-0.21668
-0.206342
-0.196509
-0.187279
-0.178063
-0.168988
-0.160319
-0.15217
-0.14458
-0.137587
-0.131236
-0.125579
-0.120661
-0.116492
-0.11299
-0.110015
-0.107409
-0.105057
-0.102884
-0.100868
-0.0989932
-0.103845
-0.105269
-0.106583
-0.107117
-0.10773
-0.108306
-0.108922
-0.102085
-0.109707
-0.110365
-0.110862
-0.111828
-0.112514
-0.112958
-0.114522
-0.100415
-0.098798
-0.0972662
-0.012381
-0.0122857
-0.0127781
-0.0111259
-0.0122473
-0.0122125
-0.0122891
-0.0121211
-0.0118006
-0.0109055
-0.0114441
-0.0103044
-0.00977122
-0.00928701
-0.250299
-0.243041
-0.241274
-0.228549
-0.237023
-0.24687
-0.243968
-0.217455
-0.207079
-0.19719
-0.18823
-0.179163
-0.170134
-0.16148
-0.153321
-0.145694
-0.138634
-0.13218
-0.12637
-0.121251
-0.116857
-0.113162
-0.110059
-0.107401
-0.105046
-0.102895
-0.100903
-0.0990506
-0.0973365
-0.101807
-0.103107
-0.104116
-0.104846
-0.105332
-0.106385
-0.106446
-0.100225
-0.110979
-0.111712
-0.0986528
-0.0971713
-0.095761
-0.0123388
-0.0118435
-0.0123713
-0.012023
-0.0123617
-0.0112093
-0.0104894
-0.0109729
-0.0116252
-0.00992817
-0.00944692
-0.241686
-0.242143
-0.240575
-0.231632
-0.218227
-0.226648
-0.238623
-0.236153
-0.247401
-0.243885
-0.207878
-0.197765
-0.189096
-0.180173
-0.171196
-0.162569
-0.154412
-0.146749
-0.139629
-0.133086
-0.127149
-0.121857
-0.117259
-0.113362
-0.110108
-0.10737
-0.104999
-0.102867
-0.100905
-0.0990785
-0.0973846
-0.0958207
-0.100017
-0.101124
-0.102068
-0.102759
-0.103262
-0.103714
-0.104221
-0.104829
-0.105205
-0.106395
-0.0984706
-0.0970465
-0.0956797
-0.0943929
-0.012446
-0.0123587
-0.0121823
-0.0124245
-0.0120425
-0.0113373
-0.0107404
-0.0100936
-0.010542
-0.0110846
-0.0116671
-0.0118315
-0.00960374
-0.242073
-0.240696
-0.232969
-0.230681
-0.221324
-0.208718
-0.216403
-0.228454
-0.225758
-0.238966
-0.236651
-0.19826
-0.189887
-0.181075
-0.172147
-0.16357
-0.155432
-0.147745
-0.140569
-0.133947
-0.127898
-0.122453
-0.117667
-0.113572
-0.110149
-0.107307
-0.104901
-0.102786
-0.100861
-0.0990722
-0.0974063
-0.0958613
-0.0944424
-0.0982434
-0.0994122
-0.100219
-0.100788
-0.101255
-0.101705
-0.102177
-0.102711
-0.103208
-0.103618
-0.104077
-0.0968794
-0.0955681
-0.0943258
-0.093147
-0.0124689
-0.0122598
-0.0124913
-0.0121108
-0.0115036
-0.0113591
-0.0108451
-0.0103212
-0.00974669
-0.0101618
-0.0106402
-0.0111011
-0.0112292
-0.011735
-0.011909
-0.232848
-0.230807
-0.22265
-0.220312
-0.211592
-0.198741
-0.206926
-0.218129
-0.215541
-0.228775
-0.226251
-0.190615
-0.181867
-0.17297
-0.164463
-0.156366
-0.148671
-0.141453
-0.134761
-0.12861
-0.123025
-0.118062
-0.113774
-0.11017
-0.107196
-0.104733
-0.102629
-0.100753
-0.0990168
-0.0973938
-0.0958771
-0.0944768
-0.0931899
-0.0966758
-0.0976582
-0.0984556
-0.0989562
-0.0996676
-0.0998332
-0.100284
-0.100727
-0.101203
-0.10161
-0.102045
-0.0954214
-0.0942348
-0.0930897
-0.0920182
-0.0123417
-0.012191
-0.0115657
-0.0114148
-0.0109768
-0.0108623
-0.0104265
-0.00994654
-0.00981577
-0.0102514
-0.0106626
-0.0107597
-0.0111548
-0.0112795
-0.0118024
-0.0119766
-0.222498
-0.220396
-0.212772
-0.210555
-0.201959
-0.191313
-0.196647
-0.208561
-0.206071
-0.218408
-0.215982
-0.182552
-0.173668
-0.165239
-0.157199
-0.149513
-0.142269
-0.135526
-0.129285
-0.123567
-0.118435
-0.113956
-0.11016
-0.107028
-0.104477
-0.102368
-0.100545
-0.098883
-0.0973284
-0.09586
-0.0944895
-0.0932208
-0.0920575
-0.0952393
-0.09614
-0.0969501
-0.0973973
-0.0977682
-0.0981215
-0.0985214
-0.0987562
-0.0998338
-0.0995853
-0.100146
-0.0941178
-0.093009
-0.0919666
-0.0909909
-0.0116211
-0.0114664
-0.0110255
-0.0109119
-0.0105469
-0.0104572
-0.0100528
-0.00988526
-0.0102821
-0.0103582
-0.0107109
-0.0108077
-0.0112057
-0.0113231
-0.212615
-0.210613
-0.203348
-0.201032
-0.193846
-0.183124
-0.189722
-0.199033
-0.194967
-0.20879
-0.20648
-0.174272
-0.165905
-0.157928
-0.150259
-0.143003
-0.136235
-0.129926
-0.12408
-0.118782
-0.114114
-0.110118
-0.106802
-0.104124
-0.101975
-0.100196
-0.0986272
-0.0971746
-0.0957866
-0.0944699
-0.0932325
-0.0920875
-0.0910315
-0.0939769
-0.0947424
-0.0954219
-0.0959857
-0.0968278
-0.0970556
-0.0973457
-0.0977175
-0.0980441
-0.0984024
-0.098682
-0.0998677
-0.0928963
-0.0918931
-0.0909395
-0.0900535
-0.0110711
-0.0109593
-0.0105978
-0.0105028
-0.0101672
-0.010097
-0.00993419
-0.00998781
-0.0103261
-0.0104077
-0.0107581
-0.0108484
-0.203171
-0.201227
-0.195338
-0.192971
-0.185485
-0.174801
-0.181385
-0.191009
-0.188868
-0.200287
-0.194401
-0.166479
-0.158567
-0.150911
-0.143645
-0.136876
-0.13053
-0.124567
-0.119104
-0.114249
-0.11005
-0.10653
-0.103682
-0.101441
-0.0996712
-0.0981989
-0.0968777
-0.0956144
-0.0943904
-0.0932122
-0.0921004
-0.0910643
-0.090099
-0.092747
-0.093497
-0.0941914
-0.0946017
-0.0952884
-0.09577
-0.0962659
-0.0961198
-0.0969255
-0.0972887
-0.0976536
-0.0979974
-0.0983384
-0.0917884
-0.0908693
-0.0899996
-0.0891906
-0.0106435
-0.0105469
-0.0102213
-0.0101394
-0.0098019
-0.00997597
-0.0100456
-0.0103706
-0.0104496
-0.196383
-0.193015
-0.186537
-0.184585
-0.177243
-0.166986
-0.172887
-0.182672
-0.180568
-0.191216
-0.189116
-0.193589
-0.159126
-0.151493
-0.144195
-0.137441
-0.131096
-0.12503
-0.119407
-0.114364
-0.10996
-0.106223
-0.103171
-0.10078
-0.0989598
-0.0975495
-0.0963725
-0.0952781
-0.0942021
-0.0931284
-0.0920811
-0.0910813
-0.0901384
-0.089245
-0.0916494
-0.0923373
-0.0929055
-0.0933767
-0.0941646
-0.094338
-0.0946828
-0.0953725
-0.0950361
-0.0964008
-0.0968564
-0.0907712
-0.0899298
-0.0891295
-0.0883916
-0.0102687
-0.0101791
-0.00987242
-0.0100194
-0.0100899
-0.196112
-0.193005
-0.186517
-0.184653
-0.178305
-0.176338
-0.169189
-0.159602
-0.165443
-0.174187
-0.171232
-0.182864
-0.180844
-0.191271
-0.189295
-0.152034
-0.144669
-0.13793
-0.131623
-0.12547
-0.119695
-0.114469
-0.109856
-0.105896
-0.102616
-0.100026
-0.0980803
-0.0966646