/*--------------------------------*- C++ -*----------------------------------*\
| =========                 |                                                 |
| \\      /  F ield         | OpenFOAM: The Open Source CFD Toolbox           |
|  \\    /   O peration     | Version:  v1912                                 |
|   \\  /    A nd           | Website:  www.openfoam.com                      |
|    \\/     M anipulation  |                                                 |
\*---------------------------------------------------------------------------*/
FoamFile
{
    version     2.0;
    format      ascii;
    class       volVectorField;
    location    "220";
    object      U;
}
// * * * * * * * * * * * * * * * * * * * * * * * * * * * * * * * * * * * * * //

dimensions      [0 1 -1 0 0 0 0];


internalField   nonuniform List<vector> 
3754
(
(0.0491799 -0.0207927 0)
(0.15064 -0.0620586 -1.71788e-23)
(0.0486792 -0.0205874 8.01341e-24)
(0.253106 -0.102218 0)
(0.149134 -0.0614474 8.44976e-24)
(0.0482008 -0.0203844 -8.0613e-24)
(0.352405 -0.139512 6.01543e-21)
(0.250616 -0.101218 6.5943e-24)
(0.147683 -0.0608503 8.14434e-21)
(0.0477372 -0.0201862 0)
(0.442316 -0.171639 -5.29231e-21)
(0.348951 -0.13814 5.77977e-21)
(0.248176 -0.100232 -6.67311e-21)
(0.146245 -0.0602594 -7.56004e-24)
(0.0472717 -0.0199898 0)
(0.515296 -0.195949 4.59332e-24)
(0.437944 -0.169922 -5.09268e-21)
(0.345551 -0.136792 0)
(0.245778 -0.0992706 2.4362e-25)
(0.144824 -0.059674 7.57817e-24)
(0.046821 -0.0197991 0)
(0.563782 -0.210006 -1.8252e-25)
(0.510098 -0.193934 -4.61647e-21)
(0.433637 -0.168247 -4.67573e-24)
(0.342212 -0.135476 5.35199e-21)
(0.243396 -0.0983086 6.12736e-24)
(0.143437 -0.0591025 0)
(0.0463667 -0.0196078 0)
(0.581815 -0.212196 4.29003e-24)
(0.557876 -0.207748 4.34994e-21)
(0.504991 -0.191979 0)
(0.429416 -0.166608 -4.71055e-21)
(0.338899 -0.134163 5.15731e-24)
(0.241048 -0.0973588 0)
(0.142058 -0.0585355 0)
(0.0459108 -0.019416 0)
(0.566598 -0.202217 0)
(0.575346 -0.209753 -4.33105e-21)
(0.552085 -0.205565 0)
(0.499978 -0.190063 -8.15733e-24)
(0.425225 -0.164979 1.3162e-23)
(0.335611 -0.13286 0)
(0.238722 -0.0964218 0)
(0.14068 -0.057968 0)
(0.0454658 -0.0192272 -6.30725e-24)
(0.519287 -0.181247 -4.99351e-24)
(0.5597 -0.199644 4.4032e-21)
(0.569003 -0.207405 0)
(0.546401 -0.203434 -4.02728e-21)
(0.495008 -0.188167 8.16533e-24)
(0.421069 -0.163363 -3.42379e-25)
(0.332362 -0.131575 0)
(0.236415 -0.0954886 0)
(0.139314 -0.057406 0)
(0.0450342 -0.0190471 6.33767e-24)
(0.444749 -0.15172 0)
(0.512067 -0.178583 0)
(0.552948 -0.1972 -4.24689e-21)
(0.562817 -0.205134 3.9473e-21)
(0.540805 -0.201336 -3.88232e-21)
(0.490089 -0.186289 0)
(0.416959 -0.161764 -8.33268e-24)
(0.329133 -0.130294 0)
(0.234133 -0.0945692 0)
(0.137986 -0.0568581 6.25626e-21)
(0.0446004 -0.0188668 0)
(0.350313 -0.116755 3.36051e-21)
(0.437209 -0.14896 -2.05108e-23)
(0.505036 -0.17611 4.51546e-21)
(0.546458 -0.194872 -1.62313e-23)
(0.556785 -0.202913 3.79201e-21)
(0.535284 -0.199266 0)
(0.485224 -0.184429 0)
(0.412874 -0.160176 0)
(0.325952 -0.129034 0)
(0.231879 -0.0936533 -5.08884e-21)
(0.136661 -0.0563145 -6.01655e-21)
(0.0441757 -0.0186865 0)
(0.244441 -0.0795777 -4.76873e-21)
(0.342253 -0.113854 3.20924e-24)
(0.429968 -0.146498 1.0331e-24)
(0.498453 -0.173807 0)
(0.540224 -0.192618 0)
(0.550881 -0.200742 1.46569e-23)
(0.529841 -0.197225 -3.59887e-21)
(0.480401 -0.182591 0)
(0.408842 -0.158607 3.85491e-21)
(0.322784 -0.127775 0)
(0.229652 -0.0927567 4.8885e-21)
(0.13537 -0.0557812 -2.77669e-24)
(0.043756 -0.0185067 0)
(0.163578 -0.0525043 1.66097e-21)
(0.234722 -0.0762578 1.89424e-21)
(0.159427 -0.0510908 -1.64915e-21)
(0.334737 -0.111374 0)
(0.42354 -0.144302 -4.96784e-21)
(0.492304 -0.171626 4.29939e-21)
(0.534215 -0.190451 0)
(0.545098 -0.198615 3.52644e-21)
(0.524472 -0.195216 -6.60586e-24)
(0.475643 -0.180774 -7.02351e-21)
(0.404849 -0.157055 0)
(0.319684 -0.126548 -4.06761e-21)
(0.227469 -0.0918706 9.73751e-26)
(0.134089 -0.0552513 2.78136e-24)
(0.0433431 -0.0183302 0)
(0.108461 -0.034398 5.85191e-25)
(0.15313 -0.0486267 -1.64507e-21)
(0.22648 -0.073557 -8.35946e-22)
(0.146533 -0.0470859 -1.60832e-21)
(0.104773 -0.0332921 1.10077e-21)
(0.328739 -0.109327 5.79233e-21)
(0.417817 -0.142309 -4.78071e-21)
(0.486516 -0.169577 1.5774e-23)
(0.528398 -0.188354 0)
(0.539438 -0.196538 6.80004e-24)
(0.519189 -0.19324 3.32202e-21)
(0.470957 -0.178988 3.35816e-24)
(0.400927 -0.155528 3.57168e-21)
(0.316626 -0.12533 -1.87334e-24)
(0.225328 -0.0910027 2.23556e-24)
(0.132831 -0.0547283 0)
(0.0429581 -0.0181669 0)
(0.0667605 -0.0210277 5.12565e-22)
(0.0971818 -0.0302806 0)
(0.141916 -0.0453867 0)
(0.221447 -0.0717187 -1.87051e-21)
(0.139344 -0.0445064 3.0982e-21)
(0.0879774 -0.0280892 3.71084e-22)
(0.0631508 -0.0199195 2.29418e-24)
(0.0654046 -0.0207253 0)
(0.32387 -0.107656 -2.26461e-23)
(0.41263 -0.140509 6.68432e-25)
(0.481015 -0.167638 -5.92897e-25)
(0.522761 -0.186328 0)
(0.533894 -0.194505 0)
(0.513995 -0.191297 0)
(0.466345 -0.177226 0)
(0.397064 -0.154021 1.70524e-24)
(0.313639 -0.124143 1.87481e-24)
(0.223231 -0.0901486 2.05088e-24)
(0.131635 -0.0542299 -5.09222e-21)
(0.0425628 -0.0180015 0)
(0.0390234 -0.0122137 0)
(0.0592728 -0.0185787 0)
(0.0524911 -0.0155535 -2.99759e-22)
(0.0836286 -0.0264462 3.63134e-22)
(0.137532 -0.0437286 6.02242e-21)
(0.218031 -0.0705715 1.74712e-21)
(0.136419 -0.0434156 -2.99755e-21)
(0.0819191 -0.0257584 -1.7547e-21)
(0.0420979 -0.0135088 -4.7814e-22)
(0.045499 -0.0144395 -1.63251e-23)
(0.0365134 -0.0115246 4.34959e-22)
(0.0382121 -0.0120264 -4.71088e-22)
(0.31967 -0.10624 0)
(0.407818 -0.138853 4.59143e-21)
(0.47576 -0.165789 -1.52759e-23)
(0.517277 -0.184359 0)
(0.528463 -0.192515 -3.02131e-24)
(0.508895 -0.189388 -3.07451e-21)
(0.461801 -0.175491 3.10546e-21)
(0.393287 -0.152549 -3.26959e-21)
(0.310716 -0.122976 -3.588e-21)
(0.221199 -0.0893174 4.13031e-21)
(0.13045 -0.0537389 -4.87878e-21)
(0.0421878 -0.0178435 0)
(0.0125876 -0.00391515 0)
(0.0338283 -0.0102335 4.42155e-22)
(0.0231009 -0.00553832 2.20389e-22)
(0.0402884 -0.0126658 -5.21605e-22)
(0.0394668 -0.012387 7.69971e-24)
(0.0809661 -0.0254203 -3.45566e-21)
(0.135368 -0.0430326 -2.95297e-21)
(0.215265 -0.069716 -1.64425e-21)
(0.134614 -0.0428796 -2.86968e-21)
(0.080365 -0.0252249 2.70149e-21)
(0.0389347 -0.0121455 -3.70664e-24)
(0.0391486 -0.0122059 1.45358e-21)
(0.0139177 -0.00453564 3.30296e-22)
(0.0154423 -0.0050804 0)
(0.0116884 -0.00374875 -3.2596e-22)
(0.0123507 -0.00385412 3.3356e-22)
(0.315894 -0.104981 -5.30377e-21)
(0.403274 -0.137293 -4.411e-21)
(0.470687 -0.164012 -7.07893e-24)
(0.51194 -0.182447 -3.30783e-21)
(0.523143 -0.190565 3.02519e-21)
(0.503876 -0.187513 -2.9401e-21)
(0.457364 -0.173795 2.97973e-21)
(0.389599 -0.151106 1.62865e-23)
(0.307873 -0.121837 0)
(0.219223 -0.0885118 3.95652e-21)
(0.129313 -0.053264 0)
(0.0418216 -0.0176899 0)
(0.0109535 -0.00355124 -2.03046e-22)
(0.00641892 -0.00148586 -4.41e-23)
(0.0129448 -0.00407519 3.51668e-22)
(0.0126074 -0.00393581 6.46616e-22)
(0.0387498 -0.0120674 9.4035e-22)
(0.038648 -0.0120602 3.62508e-24)
(0.0798799 -0.0250787 2.65731e-21)
(0.133746 -0.0425707 0)
(0.212819 -0.0689527 -1.61515e-21)
(0.133127 -0.0424447 -2.90869e-23)
(0.079445 -0.0249628 6.69068e-22)
(0.0384908 -0.0119994 -3.59046e-24)
(0.0385322 -0.0120005 -3.7535e-26)
(0.0124367 -0.00385732 6.34019e-22)
(0.0125013 -0.0038823 1.71068e-24)
(0.312372 -0.103813 1.03841e-20)
(0.398951 -0.13582 -8.37444e-24)
(0.465782 -0.162293 3.53022e-21)
(0.506721 -0.180576 3.18226e-21)
(0.517923 -0.188658 -1.39314e-24)
(0.49897 -0.185674 1.4063e-24)
(0.453019 -0.17213 5.70964e-21)
(0.386004 -0.149695 2.99881e-21)
(0.305114 -0.120728 0)
(0.217306 -0.0877228 0)
(0.128208 -0.0528061 2.13394e-24)
(0.0414536 -0.0175332 -4.423e-21)
(0.0123862 -0.00384232 6.25429e-22)
(0.012356 -0.00383838 6.20283e-22)
(0.0383635 -0.0119427 0)
(0.0382857 -0.0119471 9.0062e-22)
(0.0790236 -0.0248405 -1.01012e-23)
(0.132339 -0.0421519 2.71613e-21)
(0.210537 -0.0682342 -9.13122e-21)
(0.13174 -0.0420188 -2.60879e-24)
(0.0786309 -0.0247255 2.53487e-21)
(0.038144 -0.0119058 8.82776e-22)
(0.038199 -0.0118996 -8.83814e-22)
(0.0123223 -0.00382133 -6.10148e-22)
(0.0123254 -0.00382565 6.14186e-22)
(0.309062 -0.102717 9.97817e-24)
(0.394784 -0.134394 0)
(0.460996 -0.16062 -3.3896e-21)
(0.501618 -0.178752 3.05704e-21)
(0.512811 -0.186783 1.3944e-24)
(0.494161 -0.183872 -5.4134e-21)
(0.448786 -0.170503 -2.73052e-21)
(0.382503 -0.148315 -1.37078e-24)
(0.302428 -0.119646 0)
(0.215456 -0.0869648 0)
(0.12712 -0.0523508 -4.16907e-24)
(0.041122 -0.0173871 1.61686e-23)
(0.0122835 -0.00380606 6.05388e-22)
(0.012252 -0.00380373 -5.97957e-22)
(0.0380193 -0.0118513 0)
(0.0379564 -0.0118489 3.38322e-24)
(0.0782334 -0.0246051 -2.46723e-24)
(0.130979 -0.0417294 2.6261e-21)
(0.208373 -0.0675347 2.98633e-21)
(0.130397 -0.0416018 2.59294e-21)
(0.0778379 -0.0244861 -2.38924e-24)
(0.0377793 -0.0117961 0)
(0.037857 -0.0117983 8.63311e-22)
(0.0122092 -0.00379141 -6.49048e-25)
(0.0122376 -0.00379356 -5.96901e-22)
(0.30585 -0.101651 -4.90651e-21)
(0.390731 -0.133017 -1.86672e-24)
(0.456334 -0.158991 -3.25485e-21)
(0.496606 -0.176956 0)
(0.507794 -0.184943 2.66884e-21)
(0.489464 -0.182105 0)
(0.444661 -0.168911 -2.5488e-24)
(0.379114 -0.146975 -2.73771e-21)
(0.299848 -0.118602 0)
(0.213658 -0.0862225 3.39955e-21)
(0.126069 -0.051906 8.1185e-21)
(0.0407797 -0.0172469 0)
(0.0121878 -0.00378207 2.30372e-24)
(0.0121658 -0.0037766 5.82956e-22)
(0.0376502 -0.0117376 8.50674e-22)
(0.0375909 -0.0117386 0)
(0.0774488 -0.0243596 2.39149e-24)
(0.129673 -0.0413147 -2.53236e-21)
(0.206247 -0.0668535 5.64509e-21)
(0.129109 -0.0411846 -2.50153e-21)
(0.0770605 -0.0242482 6.03756e-22)
(0.0374184 -0.0116861 0)
(0.0374915 -0.0116899 0)
(0.0120928 -0.00375529 5.75331e-22)
(0.0121285 -0.00375945 -1.15939e-21)
(0.302758 -0.100629 0)
(0.38679 -0.131671 1.86981e-24)
(0.451752 -0.157388 -1.57673e-24)
(0.491688 -0.175193 -2.81592e-21)
(0.502876 -0.183135 2.58932e-21)
(0.484876 -0.180373 -2.48886e-21)
(0.440651 -0.167356 2.49564e-21)
(0.375843 -0.145672 0)
(0.297347 -0.117585 -2.86952e-21)
(0.2119 -0.0854947 -3.26683e-21)
(0.125049 -0.0514845 -1.9353e-24)
(0.0404332 -0.017103 7.28127e-24)
(0.0120654 -0.00374288 -5.69146e-22)
(0.0120392 -0.0037389 5.66668e-22)
(0.0373004 -0.0116301 0)
(0.0372327 -0.0116209 0)
(0.0766698 -0.0241167 5.93655e-22)
(0.128401 -0.0409122 -2.43381e-21)
(0.204219 -0.0661949 -1.38613e-21)
(0.127836 -0.0407855 -3.6998e-23)
(0.0763018 -0.0240051 2.23592e-24)
(0.0370506 -0.0115716 0)
(0.0371147 -0.0115732 -8.04639e-22)
(0.0119874 -0.00372255 5.59716e-22)
(0.0120184 -0.00372695 -5.63926e-22)
(0.299738 -0.0996222 0)
(0.382919 -0.130351 3.66236e-21)
(0.447236 -0.155807 3.0022e-21)
(0.486843 -0.173454 -2.64623e-21)
(0.498052 -0.181355 -2.84076e-23)
(0.480401 -0.178673 0)
(0.436777 -0.16584 2.38325e-21)
(0.372676 -0.144403 0)
(0.294909 -0.116591 2.64915e-24)
(0.21019 -0.0847919 0)
(0.124034 -0.051064 -3.64018e-21)
(0.0401107 -0.0169673 -3.62777e-21)
(0.0119582 -0.00370992 5.54646e-22)
(0.0119242 -0.00369941 5.51435e-22)
(0.0369183 -0.0115119 -7.90663e-22)
(0.0368429 -0.0115092 -3.06446e-24)
(0.0759422 -0.0238865 -2.23855e-24)
(0.127152 -0.0405132 2.39711e-21)
(0.202221 -0.0655483 1.33739e-21)
(0.126617 -0.0403875 2.32599e-21)
(0.0755666 -0.0237787 2.21931e-21)
(0.0366938 -0.0114552 0)
(0.0367612 -0.0114629 3.06702e-24)
(0.0118626 -0.00368358 5.43287e-22)
(0.0118851 -0.00368618 -5.47647e-22)
(0.296763 -0.098635 -4.24557e-21)
(0.379091 -0.129044 0)
(0.442783 -0.154248 0)
(0.482064 -0.171732 2.53487e-21)
(0.493321 -0.179599 -4.70197e-24)
(0.476049 -0.177004 -2.25109e-21)
(0.433014 -0.164358 -1.13216e-24)
(0.369595 -0.143168 0)
(0.292539 -0.115628 -1.28962e-24)
(0.208517 -0.0841065 2.93459e-21)
(0.123045 -0.050655 6.92537e-21)
(0.0397868 -0.0168303 0)
(0.011832 -0.00367068 0)
(0.0118022 -0.00366656 5.34673e-22)
(0.0365547 -0.0113977 0)
(0.0364958 -0.0113946 0)
(0.0752021 -0.0236509 -1.62434e-21)
(0.125945 -0.0401302 0)
(0.200252 -0.0649105 0)
(0.1254 -0.040005 2.70575e-23)
(0.0748456 -0.0235469 1.08751e-21)
(0.0363416 -0.0113503 7.54138e-22)
(0.036401 -0.0113499 -2.93538e-24)
(0.011747 -0.00364587 5.27632e-22)
(0.0117847 -0.00365501 -5.31329e-22)
(0.293824 -0.0976568 0)
(0.375305 -0.12775 6.36401e-24)
(0.438356 -0.152692 0)
(0.477336 -0.17002 0)
(0.488674 -0.177856 0)
(0.471803 -0.175363 -1.12813e-24)
(0.42936 -0.162914 2.1577e-21)
(0.366603 -0.141967 0)
(0.290218 -0.114689 -2.42582e-21)
(0.206877 -0.0834361 -2.7732e-21)
(0.122068 -0.0502468 -3.25454e-21)
(0.0394525 -0.0166902 -3.2367e-21)
(0.0117055 -0.00363201 5.22223e-22)
(0.0116863 -0.00362736 5.1849e-22)
(0.0362231 -0.0112936 -7.37668e-22)
(0.0361503 -0.0112856 -2.8574e-24)
(0.0744869 -0.0234277 -8.20268e-24)
(0.124739 -0.0397477 0)
(0.198312 -0.0642813 1.24611e-21)
(0.124216 -0.039624 -2.18656e-21)
(0.0741311 -0.0233249 -2.06093e-21)
(0.0359932 -0.011238 -7.21541e-22)
(0.0360675 -0.0112512 -7.2204e-22)
(0.0116316 -0.00361272 1.64286e-24)
(0.0116635 -0.0036163 -5.1574e-22)
(0.290911 -0.0966833 7.61626e-24)
(0.371524 -0.126455 -6.37008e-24)
(0.433932 -0.151132 1.02664e-23)
(0.472636 -0.168302 -4.50163e-24)
(0.484108 -0.176128 -4.10733e-24)
(0.467669 -0.173751 -2.04106e-21)
(0.425801 -0.161503 0)
(0.363674 -0.140796 8.82845e-24)
(0.287949 -0.113772 0)
(0.205246 -0.0827654 2.62495e-21)
(0.121084 -0.0498377 4.27669e-23)
(0.0391185 -0.0165487 -1.1994e-23)
(0.0116115 -0.00360142 5.06871e-22)
(0.0115825 -0.00359364 0)
(0.0358607 -0.0111797 0)
(0.0358144 -0.0111783 0)
(0.073794 -0.0232106 0)
(0.123573 -0.0393776 0)
(0.19639 -0.063654 1.18981e-21)
(0.12305 -0.0392519 -2.07853e-21)
(0.0734304 -0.0231045 1.99693e-21)
(0.0356572 -0.0111348 7.00104e-22)
(0.0357236 -0.0111409 0)
(0.0115265 -0.00357887 9.6312e-25)
(0.0115574 -0.00358777 4.98418e-22)
(0.287991 -0.0957066 -3.8892e-21)
(0.367696 -0.125142 -1.17401e-23)
(0.429461 -0.149545 -2.62183e-21)
(0.467954 -0.166571 -2.28115e-21)
(0.479614 -0.174403 4.10042e-24)
(0.463622 -0.172169 -1.84318e-24)
(0.422317 -0.160129 1.92381e-21)
(0.360806 -0.139653 0)
(0.285686 -0.112856 0)
(0.203612 -0.0820935 2.47654e-21)
(0.120097 -0.0494249 2.87458e-21)
(0.0387934 -0.016408 -2.86637e-21)
(0.0114867 -0.00356284 4.89401e-22)
(0.0114687 -0.00355802 -4.87438e-22)
(0.0355469 -0.0110798 0)
(0.0354901 -0.0110809 0)
(0.0731032 -0.0229945 -7.6347e-24)
(0.122407 -0.0390009 7.90974e-24)
(0.194478 -0.0630298 3.32602e-21)
(0.12189 -0.0388791 -4.02854e-21)
(0.0727542 -0.022892 4.98497e-22)
(0.0353215 -0.0110286 6.72779e-22)
(0.0353946 -0.0110424 2.63884e-24)
(0.0114188 -0.00354533 3.38854e-24)
(0.0114424 -0.00354994 4.83042e-22)
(0.285025 -0.0947155 -7.32659e-24)
(0.36377 -0.123791 2.91707e-21)
(0.424918 -0.147911 2.4398e-21)
(0.463257 -0.164803 -2.19202e-21)
(0.475176 -0.17269 9.22968e-25)
(0.45965 -0.170622 1.8402e-24)
(0.418899 -0.158787 -3.44162e-24)
(0.357957 -0.138519 7.14998e-24)
(0.283428 -0.111941 0)
(0.201977 -0.0814189 -3.46161e-23)
(0.119106 -0.0490061 -1.02724e-23)
(0.0384552 -0.0162641 2.68027e-21)
(0.0113959 -0.00353231 -4.77925e-22)
(0.0113656 -0.00352914 4.71158e-22)
(0.0352043 -0.0109735 -6.67954e-22)
(0.035156 -0.0109775 2.56238e-24)
(0.0724226 -0.0227761 0)
(0.121273 -0.0386403 1.97596e-21)
(0.192543 -0.0623954 -1.12013e-21)
(0.120756 -0.0385145 1.92567e-21)
(0.0720719 -0.0226744 1.85493e-21)
(0.0349978 -0.0109293 0)
(0.0350654 -0.0109399 -6.5274e-22)
(0.0113172 -0.0035123 1.63345e-24)
(0.0113467 -0.00352335 4.67157e-22)
(0.281933 -0.093681 1.35254e-23)
(0.359653 -0.122359 2.88075e-21)
(0.420223 -0.146189 2.33993e-21)
(0.458535 -0.163002 0)
(0.470788 -0.171001 -9.21426e-25)
(0.455748 -0.169117 0)
(0.415519 -0.157467 9.93013e-24)
(0.355109 -0.137385 -1.38699e-23)
(0.281164 -0.111022 -1.93551e-21)
(0.200343 -0.0807408 8.14718e-24)
(0.118101 -0.0485797 7.038e-25)
(0.0381132 -0.0161217 -2.50761e-21)
(0.0112754 -0.00349506 4.58402e-22)
(0.0112522 -0.00349473 4.55603e-22)
(0.0348993 -0.0108776 2.49157e-24)
(0.0348404 -0.010877 -1.25936e-24)
(0.0717634 -0.0225703 -1.82486e-21)
(0.120138 -0.0382762 1.86774e-21)
(0.190531 -0.0617357 -1.06584e-21)
(0.119615 -0.0381443 0)
(0.0714195 -0.0224702 8.84773e-24)
(0.0346782 -0.0108269 0)
(0.0347358 -0.0108308 -1.23577e-24)
(0.0112149 -0.00348164 4.49882e-22)
(0.0112354 -0.00348881 0)
(0.278567 -0.0925564 9.28109e-23)
(0.355237 -0.120799 -2.77847e-21)
(0.415348 -0.144355 -2.32326e-21)
(0.453797 -0.161199 0)
(0.466465 -0.169365 -6.53341e-24)
(0.451901 -0.167644 0)
(0.412154 -0.15615 -6.48907e-24)
(0.352268 -0.136249 6.72073e-24)
(0.278908 -0.110099 1.80338e-21)
(0.198684 -0.0800475 -8.151e-24)
(0.117096 -0.0481546 1.84722e-23)
(0.0377587 -0.0159734 0)
(0.0111849 -0.00346632 -8.73846e-25)
(0.0111596 -0.0034646 4.399e-22)
(0.0345811 -0.0107833 0)
(0.0345203 -0.0107775 0)
(0.0710961 -0.0223606 -4.45244e-22)
(0.119014 -0.0379129 1.83078e-21)
(0.188292 -0.0610125 -5.02537e-21)
(0.118451 -0.0377664 1.77671e-21)
(0.0707657 -0.0222608 4.36384e-22)
(0.0343707 -0.0107296 -1.17873e-24)
(0.0344342 -0.0107407 1.17793e-24)
(0.0111015 -0.00344529 -4.3436e-22)
(0.0111362 -0.00345409 4.38443e-22)
(0.274787 -0.0912821 3.25931e-21)
(0.350356 -0.119007 2.59392e-21)
(0.410299 -0.142445 -1.07822e-24)
(0.449107 -0.159463 1.83727e-21)
(0.462231 -0.167782 3.61354e-25)
(0.448103 -0.166188 0)
(0.408806 -0.154835 1.53019e-21)
(0.349432 -0.135107 -1.56573e-21)
(0.27663 -0.109162 -6.78223e-24)
(0.197023 -0.0793494 7.03796e-24)
(0.11607 -0.0477199 2.16221e-21)
(0.0373989 -0.0158198 4.01859e-24)
(0.0110794 -0.00343751 4.29614e-22)
(0.0110554 -0.00343343 4.25885e-22)
(0.0342645 -0.010684 0)
(0.0342207 -0.0106848 5.85647e-22)
(0.0704547 -0.0221535 -1.25738e-21)
(0.117791 -0.0375208 1.72359e-21)
(0.185624 -0.0601508 0)
(0.11713 -0.0373429 -1.73491e-21)
(0.0701032 -0.0220515 0)
(0.0340638 -0.0106348 5.15362e-24)
(0.0341305 -0.0106426 -1.12378e-24)
(0.0110156 -0.00341725 -4.20018e-22)
(0.011037 -0.00342517 4.22179e-22)
(0.270146 -0.0896662 1.59492e-21)
(0.344977 -0.11697 2.58617e-21)
(0.405252 -0.140626 -1.96302e-21)
(0.444573 -0.157815 -6.47592e-24)
(0.458102 -0.166234 6.1736e-24)
(0.444342 -0.164738 -1.44189e-21)
(0.405463 -0.153514 -5.74545e-24)
(0.346587 -0.133958 -1.46471e-21)
(0.274336 -0.108213 0)
(0.195344 -0.0786437 -1.7548e-21)
(0.115026 -0.0472741 -1.99637e-21)
(0.037046 -0.0156693 -1.13476e-23)
(0.0109814 -0.00340702 0)
(0.0109666 -0.00340641 0)
(0.0339642 -0.0105897 1.12182e-24)
(0.0339088 -0.0105841 -5.64759e-22)
(0.0697709 -0.0219361 -4.01677e-22)
(0.116354 -0.0370678 -1.69385e-21)
(0.181867 -0.0589438 -2.36253e-21)
(0.115395 -0.036799 1.27892e-23)
(0.0693947 -0.0218272 1.99191e-21)
(0.0337613 -0.0105371 0)
(0.0338302 -0.0105518 0)
(0.0109061 -0.00338443 -8.09616e-22)
(0.0109418 -0.00339306 4.08386e-22)
(0.2643 -0.0874707 -3.00746e-21)
(0.339499 -0.115058 -2.34473e-21)
(0.40049 -0.138956 1.91369e-21)
(0.440243 -0.156231 6.48586e-24)
(0.454066 -0.16471 1.48006e-21)
(0.440614 -0.163295 -1.3829e-21)
(0.402124 -0.15219 1.33225e-21)
(0.34372 -0.132794 5.12168e-24)
(0.272039 -0.107259 -1.44206e-21)
(0.193651 -0.0779278 1.60637e-21)
(0.113992 -0.04683 1.81919e-21)
(0.0366759 -0.0155117 7.3366e-24)
(0.010885 -0.00337713 4.0088e-22)
(0.0108628 -0.00337342 3.97292e-22)
(0.0336538 -0.0104931 5.46363e-22)
(0.033605 -0.0104899 -1.05954e-24)
(0.0690122 -0.0216884 1.57392e-21)
(0.114065 -0.0364242 1.59346e-21)
(0.175089 -0.0565271 -1.41982e-23)
(0.112188 -0.0358051 -1.24944e-23)
(0.0684762 -0.0215446 3.78994e-22)
(0.0334698 -0.0104463 7.10173e-24)
(0.0335206 -0.0104541 -1.04106e-24)
(0.0108195 -0.00335534 0)
(0.0108489 -0.00336662 3.93661e-22)
(0.258075 -0.0853954 2.74942e-21)
(0.334579 -0.113398 -2.14163e-21)
(0.396134 -0.1374 -1.43226e-23)
(0.436106 -0.154701 -1.52029e-21)
(0.450113 -0.163213 1.36272e-21)
(0.43692 -0.16186 0)
(0.398793 -0.150865 -1.25583e-21)
(0.340865 -0.131628 1.25663e-21)
(0.269731 -0.106296 -1.32453e-21)
(0.191963 -0.0772066 -1.46872e-21)
(0.112939 -0.0463715 -1.64677e-21)
(0.0362931 -0.0153494 0)
(0.0107794 -0.00334442 3.86988e-22)
(0.010764 -0.00334345 3.83682e-22)
(0.0333809 -0.0104027 -1.0397e-24)
(0.0333123 -0.010389 0)
(0.0677656 -0.0213443 -3.67304e-22)
(0.108807 -0.0347061 8.2421e-22)
(0.166908 -0.0540044 4.67245e-22)
(0.103259 -0.0326204 1.25787e-23)
(0.0666308 -0.0210253 -4.58808e-23)
(0.0331333 -0.0103428 -5.14921e-22)
(0.0332216 -0.0103589 5.21517e-22)
(0.0107272 -0.00332815 -7.55813e-22)
(0.0107516 -0.00333608 3.80503e-22)
(0.253072 -0.0837218 -2.69303e-21)
(0.330395 -0.111932 0)
(0.392103 -0.135938 0)
(0.432127 -0.153228 -1.11459e-23)
(0.44624 -0.161743 -1.32634e-21)
(0.433266 -0.160436 2.42159e-21)
(0.395485 -0.149539 -4.70554e-24)
(0.338014 -0.130456 -5.35907e-24)
(0.267428 -0.105322 -1.2204e-21)
(0.190255 -0.07647 1.32987e-21)
(0.111856 -0.045902 1.47079e-21)
(0.0359087 -0.0151884 2.54628e-24)
(0.0107076 -0.00331989 3.74222e-22)
(0.010681 -0.00331251 3.71612e-22)
(0.0329965 -0.0102934 6.14835e-24)
(0.0328545 -0.0102624 -3.9248e-24)
(0.0643843 -0.0202845 -5.07916e-22)
(0.0969354 -0.0308717 -7.77728e-22)
(0.162083 -0.0522289 2.68662e-21)
(0.093354 -0.029854 -7.13284e-22)
(0.0571586 -0.0176713 0)
(0.0323558 -0.0101341 -2.49796e-22)
(0.0326846 -0.0102054 3.91497e-24)
(0.0106305 -0.00329884 3.65964e-22)
(0.0106596 -0.00330543 -3.66631e-22)
(0.249377 -0.0824202 2.0271e-23)
(0.326746 -0.110629 0)
(0.388334 -0.134573 0)
(0.428292 -0.151805 1.37546e-21)
(0.442445 -0.160295 -1.20747e-21)
(0.429652 -0.159018 -3.06325e-25)
(0.3922 -0.148213 -2.46056e-23)
(0.33517 -0.129275 1.05886e-21)
(0.26512 -0.104341 4.06254e-24)
(0.188532 -0.0757252 -2.35284e-21)
(0.110778 -0.0454334 0)
(0.0355088 -0.0150196 -2.55219e-24)
(0.0105958 -0.00328727 2.42426e-24)
(0.0105562 -0.00327674 3.58593e-22)
(0.0317909 -0.0100246 -1.4822e-23)
(0.0305809 -0.00948782 -2.22655e-22)
(0.0480885 -0.0155267 -1.30391e-22)
(0.0915586 -0.0289873 6.8659e-22)
(0.15946 -0.0512429 -7.51598e-22)
(0.0906085 -0.0286474 1.09604e-23)
(0.045036 -0.0142226 9.89585e-22)
(0.0189801 -0.00445141 0)
(0.0279762 -0.00831634 0)
(0.0104033 -0.00323356 5.26014e-22)
(0.0105181 -0.0032594 -3.55701e-22)
(0.246419 -0.0813858 -2.53847e-21)
(0.323448 -0.109462 0)
(0.384778 -0.133287 -5.9389e-24)
(0.424577 -0.150422 0)
(0.438724 -0.158869 0)
(0.426086 -0.157609 1.02947e-21)
(0.388928 -0.146882 1.01029e-21)
(0.332338 -0.12809 0)
(0.262806 -0.103349 9.81268e-22)
(0.186814 -0.0749744 -1.02801e-21)
(0.109679 -0.0449482 1.11137e-21)
(0.0350975 -0.0148499 0)
(0.0102115 -0.00320398 -3.47093e-22)
(0.00974443 -0.00311972 -1.58484e-22)
(0.0127283 -0.00399362 1.91906e-22)
(0.0113268 -0.00376661 0)
(0.0442268 -0.0138022 0)
(0.0898978 -0.0283594 -1.09549e-23)
(0.157627 -0.0506627 3.77468e-21)
(0.089459 -0.0282645 1.34727e-21)
(0.0438069 -0.0136481 3.25664e-22)
(0.0103634 -0.00326185 -3.45646e-22)
(0.0106338 -0.00335846 1.79248e-22)
(0.00524745 -0.00118241 0)
(0.00907511 -0.00291421 -1.50958e-22)
(0.243868 -0.080517 0)
(0.320416 -0.108395 -1.88274e-21)
(0.381384 -0.132056 1.15871e-23)
(0.420975 -0.149076 0)
(0.435076 -0.157461 1.11349e-21)
(0.42256 -0.156206 -9.52729e-22)
(0.3857 -0.145555 -3.37936e-24)
(0.329521 -0.126896 0)
(0.260509 -0.102348 8.60426e-22)
(0.185083 -0.0742074 -8.93118e-22)
(0.108552 -0.0444525 0)
(0.034675 -0.0146722 0)
(0.0103231 -0.00320913 -3.45967e-22)
(0.0102803 -0.0031954 0)
(0.0435547 -0.0135719 1.03218e-23)
(0.0889735 -0.0281061 -1.09821e-25)
(0.156074 -0.0501999 -7.44272e-22)
(0.0886371 -0.0280482 -1.29459e-21)
(0.0433588 -0.0135145 0)
(0.0102409 -0.00318276 7.20833e-25)
(0.0102515 -0.00317601 3.36504e-22)
(0.241584 -0.0797466 2.2108e-21)
(0.317571 -0.107395 1.79658e-21)
(0.378131 -0.130873 -5.64607e-24)
(0.417469 -0.147757 -1.14198e-21)
(0.431495 -0.15607 -1.04416e-21)
(0.419091 -0.154809 -9.29252e-22)
(0.382494 -0.144221 8.5184e-22)
(0.326722 -0.125694 -7.94689e-22)
(0.258202 -0.101333 -7.60461e-22)
(0.183322 -0.0734238 6.45673e-25)
(0.107414 -0.0439465 7.34191e-22)
(0.0342448 -0.0144897 0)
(0.0102254 -0.00316909 -6.34234e-25)
(0.0102178 -0.00317523 3.23293e-22)
(0.0431926 -0.0134738 3.13505e-22)
(0.0882136 -0.0279004 0)
(0.154698 -0.0497721 0)
(0.0878922 -0.0278383 1.2352e-21)
(0.0430267 -0.0134225 -1.18014e-24)
(0.0101872 -0.00316409 3.15937e-22)
(0.0101955 -0.00315971 3.19387e-22)
(0.239467 -0.0790308 -2.10073e-21)
(0.314867 -0.106442 0)
(0.374988 -0.129724 5.05475e-24)
(0.41405 -0.146462 1.06632e-21)
(0.427986 -0.15469 9.13154e-22)
(0.415665 -0.153414 -7.99963e-22)
(0.379324 -0.142883 1.49088e-21)
(0.323937 -0.124482 6.6738e-22)
(0.255893 -0.100305 0)
(0.181549 -0.0726256 -5.90359e-22)
(0.106247 -0.0434226 0)
(0.033795 -0.014301 0)
(0.0101669 -0.00315243 -6.13215e-25)
(0.0101664 -0.00315787 6.6386e-25)
(0.042872 -0.0133831 -1.13018e-24)
(0.0874827 -0.0276827 -1.23015e-21)
(0.153412 -0.0493592 1.37486e-21)
(0.0871966 -0.027619 0)
(0.04269 -0.0133323 2.31434e-24)
(0.0101279 -0.00314354 5.96677e-25)
(0.0101424 -0.003142 3.06386e-22)
(0.23746 -0.0783509 -8.2778e-24)
(0.312272 -0.105525 -6.01351e-24)
(0.371944 -0.128605 -2.767e-25)
(0.410718 -0.145186 -1.06967e-21)
(0.424541 -0.153319 0)
(0.412295 -0.152019 -7.30124e-22)
(0.37619 -0.141539 0)
(0.321166 -0.123257 -1.22699e-24)
(0.253579 -0.0992586 0)
(0.179757 -0.071808 0)
(0.105056 -0.0428836 3.33344e-22)
(0.0333243 -0.014106 -1.2008e-22)
(0.0101047 -0.00313253 3.00454e-22)
(0.0101007 -0.00313852 0)
(0.0425233 -0.0132804 1.13003e-21)
(0.0867968 -0.0274633 -1.15094e-21)
(0.15217 -0.048959 1.31181e-21)
(0.0864974 -0.0273957 -1.12252e-21)
(0.0423558 -0.0132267 -2.80475e-22)
(0.010053 -0.00312491 2.90365e-22)
(0.0100692 -0.00312329 2.95511e-22)
(0.235548 -0.0777006 -3.7412e-24)
(0.309784 -0.104639 1.54778e-21)
(0.368986 -0.127505 1.14536e-21)
(0.407467 -0.143927 1.01259e-21)
(0.421166 -0.151954 1.51945e-24)
(0.408969 -0.15062 1.26419e-24)
(0.37308 -0.140183 6.11114e-22)
(0.3184 -0.122013 0)
(0.25125 -0.0981889 1.53776e-25)
(0.177932 -0.0709661 -2.67596e-22)
(0.103824 -0.0423266 1.20399e-22)
(0.0328396 -0.0139034 1.26033e-25)
(0.0100256 -0.00310981 2.88544e-22)
(0.0100194 -0.00311356 2.86188e-22)
(0.0421937 -0.0131735 0)
(0.0861215 -0.0272508 -2.21462e-21)
(0.150985 -0.048569 6.24911e-22)
(0.0858398 -0.0271886 -1.07359e-21)
(0.0420217 -0.0131183 -1.03738e-24)
(0.0099721 -0.00309903 2.80922e-22)
(0.0099867 -0.00309695 2.80733e-22)
(0.233717 -0.0770714 -1.81194e-21)
(0.307364 -0.10377 1.46607e-21)
(0.366123 -0.126428 -1.08178e-21)
(0.404292 -0.142675 -1.83528e-24)
(0.417853 -0.150591 -1.51941e-24)
(0.405694 -0.149217 -5.79615e-22)
(0.369999 -0.138814 0)
(0.315645 -0.12075 0)
(0.248901 -0.0970939 -1.53884e-25)
(0.176084 -0.0701038 -2.13269e-22)
(0.102557 -0.0417481 0)
(0.0323364 -0.0136956 -3.88494e-22)
(0.00994604 -0.00308452 2.76954e-22)
(0.00993899 -0.00308836 2.74295e-22)
(0.0418661 -0.0130709 1.03922e-21)
(0.0854743 -0.0270442 -1.04534e-24)
(0.149852 -0.0481932 -1.91009e-23)
(0.0851958 -0.0269808 -1.02329e-21)
(0.0417142 -0.0130279 0)
(0.0099041 -0.00307349 5.22217e-25)
(0.00991767 -0.00307413 -5.33209e-25)
(0.231938 -0.0764591 -1.72626e-21)
(0.305033 -0.102925 0)
(0.363338 -0.125363 1.10298e-21)
(0.401193 -0.141431 0)
(0.414604 -0.149226 0)
(0.402465 -0.147804 0)
(0.366942 -0.137427 4.52495e-22)
(0.312889 -0.119464 -3.10682e-22)
(0.24654 -0.0959725 9.78025e-23)
(0.174185 -0.0692088 5.48392e-23)
(0.101255 -0.0411541 2.29152e-25)
(0.0318082 -0.0134819 -2.56557e-25)
(0.00986801 -0.00305862 2.65029e-22)
(0.00986358 -0.00306479 2.62245e-22)
(0.0415594 -0.012976 0)
(0.0848487 -0.0268427 2.01077e-21)
(0.148747 -0.0478298 5.67964e-22)
(0.0845876 -0.026779 -9.75404e-22)
(0.0414003 -0.0129295 9.46924e-25)
(0.0098337 -0.00305525 0)
(0.00983963 -0.00305226 2.6056e-22)
(0.230229 -0.075866 -1.73592e-21)
(0.302772 -0.102092 -1.23944e-21)
(0.360627 -0.124305 1.91144e-24)
(0.398162 -0.140187 1.50059e-24)
(0.411416 -0.147859 0)
(0.39928 -0.14638 -4.27974e-22)
(0.363914 -0.13602 2.82228e-22)
(0.310124 -0.118144 0)
(0.244144 -0.0948169 -4.59642e-23)
(0.172245 -0.0682853 0)
(0.0998955 -0.0405402 -5.84731e-25)
(0.0312695 -0.0132693 -2.13915e-24)
(0.00980065 -0.00303892 2.54573e-22)
(0.00978669 -0.00304147 2.51554e-22)
(0.0412654 -0.012883 -9.47954e-22)
(0.0842385 -0.0266464 3.70643e-24)
(0.147687 -0.047482 2.58996e-21)
(0.0839757 -0.0265871 -9.32996e-22)
(0.0411114 -0.0128327 0)
(0.00975542 -0.00303144 4.77883e-25)
(0.00976323 -0.00302834 2.48945e-22)
(0.228576 -0.0752897 0)
(0.30059 -0.10127 0)
(0.357994 -0.12325 -1.45884e-24)
(0.395208 -0.138947 7.87058e-22)
(0.40829 -0.146486 0)
(0.396141 -0.144938 0)
(0.360896 -0.134584 0)
(0.307347 -0.116791 -6.70371e-27)
(0.241702 -0.0936231 0)
(0.170252 -0.0673321 0)
(0.0984783 -0.0399169 3.55979e-25)
(0.0307301 -0.0130497 -1.2433e-21)
(0.00973048 -0.00301791 2.42907e-22)
(0.00972665 -0.00302126 2.40664e-22)
(0.0409719 -0.0127903 2.268e-22)
(0.0836449 -0.0264591 0)
(0.146659 -0.0471537 -5.11788e-22)
(0.0833956 -0.0264021 -8.85165e-22)
(0.0408192 -0.0127454 3.53642e-24)
(0.00968931 -0.00300864 0)
(0.00970165 -0.00300669 2.38695e-22)
(0.226992 -0.0747234 1.58801e-21)
(0.298481 -0.100446 0)
(0.355431 -0.122199 -8.47555e-22)
(0.392325 -0.137709 0)
(0.405226 -0.145102 0)
(0.393041 -0.143475 3.923e-22)
(0.35789 -0.133116 4.5312e-26)
(0.304561 -0.115404 6.70636e-27)
(0.239228 -0.0923925 2.80281e-22)
(0.168181 -0.066343 6.32371e-22)
(0.0969982 -0.0393106 0)
(0.0303326 -0.0127464 1.57505e-21)
(0.00966302 -0.00299625 0)
(0.00965992 -0.00300056 3.25005e-25)
(0.0406826 -0.0127007 0)
(0.0830625 -0.0262829 8.61057e-25)
(0.145665 -0.0468546 -1.88127e-21)
(0.0828073 -0.026237 8.4298e-22)
(0.040537 -0.0126571 0)
(0.00961702 -0.00298838 2.25233e-22)
(0.00963079 -0.00298649 2.28543e-22)
(0.225488 -0.0741437 -7.11428e-25)
(0.29643 -0.0996208 0)
(0.352953 -0.121162 0)
(0.389518 -0.136466 0)
(0.402224 -0.143703 -3.86291e-22)
(0.389978 -0.141985 1.07063e-25)
(0.3549 -0.131613 -4.53248e-26)
(0.30175 -0.11397 -1.15496e-22)
(0.236683 -0.0911176 -5.28668e-22)
(0.166065 -0.0653454 0)
(0.0954156 -0.0386453 0)
(0.0307073 -0.0124775 0)
(0.00959444 -0.00297563 0)
(0.00958793 -0.00297878 2.20222e-22)
(0.0403951 -0.0126132 0)
(0.0824808 -0.0261498 8.36872e-22)
(0.144842 -0.0464171 9.26411e-25)
(0.082259 -0.0261643 3.21082e-24)
(0.04025 -0.0125716 0)