/*--------------------------------*- C++ -*----------------------------------*\
| =========                 |                                                 |
| \\      /  F ield         | OpenFOAM: The Open Source CFD Toolbox           |
|  \\    /   O peration     | Version:  v1912                                 |
|   \\  /    A nd           | Website:  www.openfoam.com                      |
|    \\/     M anipulation  |                                                 |
\*---------------------------------------------------------------------------*/
FoamFile
{
    version     2.0;
    format      ascii;
    class       volScalarField;
    location    "90";
    object      p;
}
// * * * * * * * * * * * * * * * * * * * * * * * * * * * * * * * * * * * * * //

dimensions      [0 2 -2 0 0 0 0];


internalField   nonuniform List<scalar> 
3754
(
0.224875
0.221392
0.258497
0.214884
0.251148
0.364699
0.205961
0.237768
0.341845
0.542246
0.52681
0.195427
0.221258
0.299626
0.493255
0.437182
0.652628
0.661446
0.600731
0.629904
0.184003
0.203807
0.251909
0.37069
0.303655
0.500382
0.554044
0.445376
0.48914
0.172267
0.186601
0.209241
0.223776
0.364066
0.412593
0.20487
0.187891
0.360972
0.160629
0.17013
0.174235
0.161627
-0.341115
-0.283303
0.11801
0.105746
-0.221731
-0.241259
0.149408
0.154662
0.145723
0.119549
-0.35682
-0.541864
-0.485897
-0.502664
-0.187275
-0.472976
0.138818
0.140418
0.1222
0.0885474
-0.287848
-0.437443
-0.458208
-0.567181
-0.549987
-0.456253
-0.571992
0.129055
0.12754
0.102538
0.0613199
-0.237428
-0.395953
-0.366055
-0.443801
-0.483141
-0.444695
-0.459736
-0.574954
0.12024
0.116132
0.0859913
0.0380337
-0.203242
-0.357254
-0.352736
-0.333476
-0.366988
-0.391007
-0.484621
-0.394872
-0.439411
-0.453455
-0.464815
0.112496
0.106228
0.0720591
0.0189427
-0.179355
-0.325403
-0.338806
-0.329818
-0.323498
-0.331354
-0.344927
-0.370281
-0.406315
-0.389873
-0.443505
-0.455654
0.105886
0.0978698
0.0603396
0.00345019
-0.163289
-0.299686
-0.325726
-0.324211
-0.321959
-0.311548
-0.321279
-0.327638
-0.331735
-0.346721
-0.365506
-0.377434
-0.405756
-0.391374
0.100503
0.0910631
0.0505316
-0.00904643
-0.153321
-0.280208
-0.314872
-0.318588
-0.319523
-0.311189
-0.300265
-0.307426
-0.315382
-0.322054
-0.328892
-0.32768
-0.337772
-0.352033
-0.343503
-0.366432
-0.377187
0.0963803
0.0858414
0.0424031
-0.0190018
-0.147962
-0.266473
-0.306848
-0.314278
-0.317167
-0.310481
-0.299368
-0.301228
-0.287778
-0.313674
-0.316061
-0.32101
-0.324066
-0.331668
-0.327226
-0.325976
-0.340067
-0.351474
-0.34424
0.0936015
0.0821971
0.0358162
-0.0268159
-0.146193
-0.257781
-0.301606
-0.31156
-0.315459
-0.310117
-0.299031
-0.287221
-0.288924
-0.298878
-0.305448
-0.275864
-0.309205
-0.313584
-0.317692
-0.315151
-0.321385
-0.324297
-0.334154
-0.327366
-0.324873
0.0921874
0.080171
0.0306499
-0.0327885
-0.147393
-0.253643
-0.299
-0.310419
-0.314577
-0.310157
-0.299338
-0.2873
-0.275854
-0.27614
-0.287186
-0.292765
-0.297797
-0.301283
-0.303917
-0.307235
-0.313204
-0.268369
-0.313057
-0.317956
-0.315418
-0.321733
-0.324431
-0.333728
-0.327413
0.0922308
0.0797589
0.0268604
-0.0370945
-0.151246
-0.25375
-0.299001
-0.31083
-0.314633
-0.310617
-0.300072
-0.287885
-0.27612
-0.267385
-0.269488
-0.276228
-0.278378
-0.286622
-0.289647
-0.291542
-0.294104
-0.312004
-0.257098
-0.313163
-0.318163
-0.315781
0.0937527
0.0810156
0.0244271
-0.0397931
-0.157723
-0.257965
-0.301609
-0.312793
-0.315678
-0.311562
-0.301124
-0.288805
-0.276719
-0.266824
-0.256364
-0.257948
-0.267531
-0.272424
-0.275657
-0.278867
-0.275405
-0.28287
-0.245435
0.0968616
0.0839366
0.0234443
-0.0408749
-0.167118
-0.266295
-0.30684
-0.316277
-0.317733
-0.313031
-0.302463
-0.289941
-0.277573
-0.266733
-0.255891
-0.244739
-0.246252
-0.2558
-0.261451
-0.266557
-0.269368
-0.271613
-0.273466
-0.275634
-0.279419
-0.274035
-0.23448
0.101578
0.0886035
0.0240282
-0.040286
-0.180039
-0.278928
-0.314706
-0.321274
-0.320789
-0.315056
-0.304063
-0.291233
-0.278568
-0.267019
-0.255731
-0.244311
-0.233753
-0.235363
-0.244181
-0.249777
-0.254801
-0.257851
-0.260377
-0.262969
-0.267114
-0.26975
-0.271745
-0.273382
-0.22355
0.108025
0.0950132
0.0264683
-0.0379925
-0.197459
-0.296182
-0.325251
-0.327768
-0.324846
-0.317643
-0.305928
-0.292634
-0.279635
-0.267537
-0.25585
-0.244181
-0.233313
-0.2231
-0.224108
-0.233321
-0.238677
-0.243212
-0.246154
-0.248639
-0.251287
-0.255355
-0.258211
-0.260514
-0.262831
-0.214532
0.116203
0.103284
0.0311284
-0.0340901
-0.220814
-0.318583
-0.338519
-0.335772
-0.329881
-0.320802
-0.308049
-0.294142
-0.280724
-0.268179
-0.256145
-0.244295
-0.233151
-0.222803
-0.213871
-0.215273
-0.221783
-0.227713
-0.232368
-0.235211
-0.237515
-0.240047
-0.243714
-0.246472
-0.248732
-0.251115
-0.205255
0.126201
0.113446
0.0386955
-0.0288513
-0.252224
-0.346777
-0.354601
-0.345282
-0.335888
-0.324511
-0.310426
-0.295738
-0.281829
-0.268862
-0.256535
-0.244542
-0.233213
-0.222686
-0.213373
-0.204619
-0.205892
-0.213431
-0.2182
-0.220106
-0.224325
-0.22664
-0.229278
-0.232841
-0.235483
-0.237583
-0.239869
-0.195882
0.137945
0.125737
0.050071
-0.0228025
-0.294724
-0.381572
-0.373574
-0.356331
-0.342837
-0.328751
-0.313035
-0.297421
-0.282933
-0.269551
-0.256943
-0.244842
-0.233394
-0.222733
-0.213082
-0.204108
-0.195308
-0.196487
-0.203955
-0.20865
-0.212498
-0.214961
-0.217186
-0.219824
-0.219782
-0.225537
-0.226842
-0.229087
-0.187031
0.15146
0.140362
0.0664298
-0.0174015
-0.351893
-0.423781
-0.395461
-0.368914
-0.350709
-0.333471
-0.31586
-0.299168
-0.284035
-0.270213
-0.257336
-0.245124
-0.233617
-0.222868
-0.212988
-0.203776
-0.194866
-0.186479
-0.187615
-0.194458
-0.199285
-0.203055
-0.205468
-0.207639
-0.209878
-0.212814
-0.215209
-0.217255
-0.220729
-0.219006
-0.17866
0.166485
0.158058
0.0885185
-0.0156615
-0.42602
-0.473733
-0.41996
-0.382952
-0.359416
-0.338621
-0.318858
-0.300971
-0.285116
-0.270838
-0.25768
-0.245363
-0.23381
-0.22303
-0.213015
-0.203632
-0.194596
-0.186057
-0.178125
-0.179209
-0.185897
-0.190207
-0.192898
-0.195953
-0.19828
-0.200507
-0.203391
-0.205698
-0.207728
-0.209855
-0.213033
-0.215281
-0.217293
-0.220469
-0.170668
0.182638
0.179692
0.117736
-0.0164429
-0.519769
-0.529282
-0.446144
-0.398004
-0.36876
-0.344076
-0.321986
-0.302796
-0.28617
-0.271402
-0.257968
-0.245527
-0.233949
-0.223157
-0.213097
-0.203617
-0.194504
-0.185818
-0.177723
-0.170147
-0.171224
-0.177571
-0.181712
-0.186253
-0.190318
-0.195166
-0.196283
-0.198381
-0.200477
-0.20362
-0.205786
-0.207905
-0.209911
-0.16299
0.1992
0.204122
0.159457
-0.00666302
-0.644201
-0.58448
-0.471904
-0.413018
-0.378223
-0.349614
-0.325145
-0.304613
-0.287168
-0.271901
-0.258174
-0.245614
-0.234003
-0.223227
-0.213163
-0.203671
-0.194539
-0.185778
-0.177519
-0.169783
-0.162551
-0.163493
-0.169642
-0.17361
-0.177918
-0.18186
-0.185443
-0.187577
-0.191672
-0.189328
-0.194806
-0.196301
-0.198544
-0.200523
-0.155923
0.215307
0.227383
0.220517
0.00709652
-0.795216
-0.632014
-0.493432
-0.426238
-0.386851
-0.354802
-0.328173
-0.306347
-0.288089
-0.272305
-0.258297
-0.245605
-0.233972
-0.223212
-0.213187
-0.203723
-0.194645
-0.185882
-0.17753
-0.16963
-0.162259
-0.155545
-0.156336
-0.161916
-0.165838
-0.169969
-0.173734
-0.177131
-0.179184
-0.182974
-0.18093
-0.14962
0.22993
0.25144
0.237141
0.272202
0.16334
0.220976
0.313381
-0.785516
-0.251991
-0.934022
-0.666363
-0.922451
-0.50539
-0.435753
-0.393382
-0.359029
-0.330791
-0.307889
-0.288872
-0.272602
-0.258313
-0.245503
-0.233839
-0.223112
-0.213135
-0.203746
-0.194753
-0.18607
-0.177705
-0.169707
-0.162169
-0.15528
-0.149159
-0.150097
-0.155225
-0.15816
-0.162326
-0.166027
-0.169206
-0.171176
-0.174795
-0.172837
-0.143271
0.242288
0.27309
0.300027
0.32791
0.344048
0.291583
-0.0105361
0.00869466
-0.815238
-0.786574
-0.492456
-1.10706
-0.97355
-0.951434
-0.723704
-0.507189
-0.642691
-0.907211
-0.440299
-0.397025
-0.361704
-0.332681
-0.309071
-0.289452
-0.27275
-0.258217
-0.245289
-0.233609
-0.222911
-0.213008
-0.203704
-0.194835
-0.186267
-0.17798
-0.169964
-0.162312
-0.155209
-0.148832
-0.142857
-0.143696
-0.148758
-0.152027
-0.155611
-0.15812
-0.161989
-0.163495
-0.16703
-0.165145
-0.137224
0.251463
0.288981
0.35154
0.371066
0.387622
0.433288
0.366786
0.314124
-0.00742528
-0.0797726
0.333655
-0.233358
-1.00208
-0.909677
-0.71618
-0.538957
-0.440243
-0.487671
-0.643012
-0.398142
-0.362733
-0.33365
-0.30975
-0.28974
-0.272722
-0.257986
-0.244967
-0.233269
-0.222619
-0.212788
-0.203596
-0.194855
-0.186443
-0.178277
-0.170337
-0.162649
-0.155382
-0.148721
-0.142559
-0.136827
-0.137637
-0.14245
-0.145564
-0.148975
-0.152148
-0.154954
-0.15663
-0.158609
-0.158231
-0.131579
0.256814
0.299422
0.378826
0.37998
0.468882
0.497213
0.420895
0.464269
0.526413
0.491435
0.390077
0.0259136
-0.911209
-0.753532
-0.687503
-0.533189
-0.437039
-0.397543
-0.490852
-0.613105
-0.666753
-0.362574
-0.333812
-0.309897
-0.289706
-0.272491
-0.257622
-0.244525
-0.232827
-0.222222
-0.212485
-0.203404
-0.194814
-0.186559
-0.178559
-0.170744
-0.163119
-0.155769
-0.148879
-0.14247
-0.136549
-0.131187
-0.131982
-0.136487
-0.139432
-0.142682
-0.145692
-0.148363
-0.149954
-0.153037
-0.151439
-0.155029
-0.156617
-0.15788
-0.158275
-0.126261
0.257947
0.299743
0.452259
0.522457
0.537702
0.557429
0.585606
0.624874
0.60676
0.453966
0.430703
0.558436
0.485
0.0924985
-0.544738
-0.516149
-0.448481
-0.395563
-0.423325
-0.361596
-0.478466
-0.500647
-0.609329
-0.65819
-0.333393
-0.309632
-0.289393
-0.272088
-0.257135
-0.243985
-0.232282
-0.221733
-0.212087
-0.203137
-0.194693
-0.186615
-0.178786
-0.171143
-0.163636
-0.156315
-0.149288
-0.142657
-0.136485
-0.130911
-0.125875
-0.126648
-0.130899
-0.133678
-0.136714
-0.139562
-0.142087
-0.143623
-0.146578
-0.145029
-0.148504
-0.149996
-0.153039
-0.151544
-0.12122
0.25517
0.293005
0.423704
0.640539
0.584933
0.636217
0.638663
0.617048
0.632153
0.610403
0.660927
0.721554
0.692288
0.349952
-0.536609
-0.515945
-0.477526
-0.452827
-0.438594
-0.403277
-0.360041
-0.384343
-0.428847
-0.418828
-0.332484
-0.500352
-0.309052
-0.288894
-0.271576
-0.256582
-0.243374
-0.231664
-0.221156
-0.211606
-0.202782
-0.194501
-0.186594
-0.178957
-0.171491
-0.164153
-0.156929
-0.149892
-0.143112
-0.136708
-0.130853
-0.125603
-0.120848
-0.121595
-0.125622
-0.128257
-0.131116
-0.133799
-0.136148
-0.137599
-0.140401
-0.138924
-0.142217
-0.143658
-0.146592
-0.145137
-0.11649
0.248785
0.281064
0.385945
0.473454
0.719351
0.533384
0.595251
0.450408
0.736089
0.738816
0.732567
-0.475479
-0.406011
-0.396794
-0.366407
-0.331114
-0.350871
-0.388646
-0.379281
-0.41788
-0.308168
-0.495434
-0.288245
-0.271002
-0.256015
-0.242754
-0.231013
-0.220523
-0.211045
-0.20235
-0.194225
-0.186505
-0.179053
-0.171787
-0.164628
-0.157562
-0.150595
-0.143786
-0.137217
-0.131094
-0.125549
-0.120585
-0.116124
-0.116854
-0.120622
-0.123117
-0.125827
-0.128372
-0.130583
-0.13195
-0.134585
-0.133194
-0.136265
-0.137628
-0.14041
-0.139022
-0.112044
0.239253
0.26512
0.346886
0.397632
0.0847736
0.103467
0.676916
0.140933
0.145481
-0.403024
-0.395572
-0.369021
-0.360527
-0.33631
-0.306938
-0.323511
-0.350076
-0.388554
-0.380117
-0.287408
-0.270364
-0.255452
-0.242162
-0.230385
-0.219874
-0.210437
-0.20184
-0.193872
-0.186331
-0.179082
-0.172011
-0.165055
-0.158162
-0.151337
-0.144584
-0.137971
-0.131647
-0.125807
-0.120543
-0.115869
-0.111691
-0.112409
-0.115937
-0.118291
-0.120815
-0.123223
-0.125321
-0.126621
-0.129116
-0.1278
-0.130689
-0.131975
-0.134591
-0.133283
-0.107891
0.226914
0.24628
0.3094
0.338195
0.0505914
0.0067436
0.0320075
0.0101926
0.035972
-0.368401
-0.359771
-0.334704
-0.311377
-0.286218
-0.300388
-0.322998
-0.345987
-0.353511
-0.269604
-0.254855
-0.241597
-0.229806
-0.219262
-0.20982
-0.201283
-0.193438
-0.186076
-0.179026
-0.17217
-0.165415
-0.158723
-0.152063
-0.145442
-0.138874
-0.132474
-0.126398
-0.12082
-0.115836
-0.111451
-0.10757
-0.108225
-0.111544
-0.11376
-0.116119
-0.118389
-0.120337
-0.121561
-0.123926
-0.122677
-0.125418
-0.126643
-0.129121
-0.12788
-0.104107
0.212175
0.225313
0.273934
0.289837
0.0657338
0.0293766
0.0288033
0.00521819
0.00676106
0.0290785
0.00527296
-0.366409
-0.359304
-0.336909
-0.331091
-0.309987
-0.290039
-0.268551
-0.280152
-0.299902
-0.319297
-0.325541
-0.254157
-0.241009
-0.229267
-0.218704
-0.209238
-0.20071
-0.192949
-0.185731
-0.178881
-0.17224
-0.16571
-0.159224
-0.152759
-0.146298
-0.139856
-0.133478
-0.127292
-0.121449
-0.116129
-0.111431
-0.107352
-0.103813
-0.104404
-0.107392
-0.109509
-0.11172
-0.113844
-0.115671
-0.116827
-0.11905
-0.117875
-0.12043
-0.121583
-0.123931
-0.122753
-0.100728
0.195303
0.202876
0.240389
0.247456
0.0745346
0.0346863
0.0373702
0.0231611
0.0228112
0.0205773
0.0248714
-0.330251
-0.311771
-0.306392
-0.288932
-0.267109
-0.253282
-0.280132
-0.297016
-0.301875
-0.318981
-0.324613
-0.240334
-0.228716
-0.218182
-0.208703
-0.200163
-0.192431
-0.185316
-0.178634
-0.172214
-0.165913
-0.159661
-0.153404
-0.147135
-0.140851
-0.134585
-0.128394
-0.122406
-0.11679
-0.111736
-0.107341
-0.103599
-0.100403
-0.101041
-0.103715
-0.105491
-0.107566
-0.109612
-0.1113
-0.112385
-0.114468
-0.11336
-0.115758
-0.116849
-0.119056
-0.117948
-0.0974719
0.1766
0.179401
0.208774
0.210428
0.0769263
0.037907
0.0397675
0.029249
0.0313311
0.0333352
0.0316292
0.0189896
0.0191869
-0.31076
-0.306079
-0.290546
-0.28572
-0.270457
-0.25221
-0.26235
-0.239516
-0.279647
-0.297479
-0.301377
-0.228094
-0.217651
-0.208201
-0.199655
-0.191924
-0.184859
-0.178301
-0.172071
-0.16601
-0.160003
-0.153989
-0.14793
-0.141837
-0.13572
-0.129621
-0.1236
-0.117805
-0.112421
-0.107648
-0.103574
-0.100158
-0.0971583
-0.0977689
-0.100378
-0.102088
-0.103885
-0.105536
-0.107179
-0.108211
-0.110207
-0.109156
-0.111383
-0.112405
-0.114476
-0.113431
-0.0944173
0.156244
0.155294
0.179049
0.178385
0.0763409
0.0403209
0.0414425
0.0303433
0.0238739
0.0254308
0.0311721
0.0295923
0.0282148
0.0278217
0.0309964
0.0335028
-0.289665
-0.285289
-0.27151
-0.268
-0.254793
-0.238549
-0.247865
-0.264002
-0.26014
-0.227347
-0.281335
-0.27674
-0.296411
-0.217059
-0.207694
-0.199174
-0.191443
-0.184397
-0.177906
-0.171821
-0.165972
-0.160228
-0.154475
-0.148669
-0.142789
-0.136857
-0.130893
-0.124944
-0.119085
-0.113481
-0.10834
-0.10386
-0.100096
-0.0969067
-0.0941008
-0.0947058
-0.0971609
-0.0987656
-0.100506
-0.102171
-0.103548
-0.104428
-0.105945
-0.105238
-0.10743
-0.108244
-0.110207
-0.109228
-0.0915621
0.134425
0.130886
0.151251
0.150635
0.0738854
0.042375
0.0427486
0.0316875
0.0242973
0.0189194
0.0219689
0.0249267
0.0216574
0.0286809
0.029769
0.0314787
0.0293679
0.0314709
-0.288673
-0.285269
-0.267227
-0.255734
-0.252268
-0.240983
-0.22645
-0.234514
-0.249153
-0.24609
-0.263707
-0.260208
-0.216363
-0.207138
-0.198685
-0.190985
-0.183951
-0.17749
-0.171489
-0.165808
-0.160301
-0.154834
-0.149307
-0.143688
-0.137965
-0.132177
-0.126351
-0.120538
-0.114832
-0.109424
-0.104533
-0.10034
-0.0968218
-0.0938411
-0.0912502
-0.0918485
-0.0941529
-0.0956562
-0.0972899
-0.0988462
-0.100181
-0.101024
-0.10266
-0.101802
-0.103607
-0.104472
-0.105977
-0.105431
-0.08893
0.111539
0.106647
0.125534
0.126679
0.0702067
0.0437369
0.0433669
0.0328957
0.024652
0.019264
0.0144183
0.0170675
0.0195534
0.0210741
0.022214
0.0236338
0.0261976
0.0191903
0.0303117
0.0294749
0.0309699
0.0290489
-0.254797
-0.25177
-0.241882
-0.238655
-0.228491
-0.21554
-0.222946
-0.233944
-0.248994
-0.246696
-0.206489
-0.198158
-0.190523
-0.183521
-0.177075
-0.171118
-0.16554
-0.160226
-0.155022
-0.149803
-0.144479
-0.139021
-0.133438
-0.127777
-0.12207
-0.116381
-0.110828
-0.105618
-0.100976
-0.0970281
-0.0937349
-0.0909805
-0.0886101
-0.0892143
-0.0913339
-0.0927395
-0.0942787
-0.0957375
-0.0969807
-0.0977759
-0.0993201
-0.0985025
-0.100241
-0.101054
-0.102692
-0.101862
-0.103663
-0.104466
-0.10567
-0.105417
-0.086485
0.088928
0.0832965
0.102373
0.106258
0.0659732
0.0444294
0.043304
0.0336935
0.02503
0.0195426
0.0145725
0.00924242
0.0131466
0.0151233
0.0163888
0.0172415
0.0184295
0.019825
0.0209811
0.0220822
0.0233958
0.0279944
0.0186723
0.0299149
0.0291363
0.0304776
-0.240948
-0.237893
-0.227681
-0.217425
-0.205728
-0.212299
-0.222693
-0.232194
-0.235324
-0.246004
-0.197557
-0.190029
-0.183085
-0.176668
-0.170737
-0.165213
-0.160026
-0.155037
-0.150108
-0.145112
-0.139963
-0.134645
-0.129183
-0.123632
-0.118028
-0.112455
-0.10705
-0.102039
-0.0976224
-0.0939048
-0.0908493
-0.0883264
-0.08615
-0.0867445
-0.0887399
-0.0900412
-0.0914539
-0.0928163
-0.0939866
-0.0947383
-0.0961838
-0.0954152
-0.0970367
-0.0978011
-0.0993546
-0.0985633
-0.100295
-0.101073
-0.102712
-0.101918
-0.0841453
0.0676249
0.0623091
0.0826032
0.0894486
0.0618043
0.0446743
0.0427905
0.0340801
0.025433
0.0199219
0.0149866
0.0104247
0.0107546
0.00927149
0.0088567
0.0128835
0.0135226
0.014102
0.015325
0.0164146
0.0171262
0.0182113
0.0195722
-0.240209
-0.237924
-0.228446
-0.225766
-0.216663
-0.207413
-0.196844
-0.202822
-0.211899
-0.220558
-0.224325
-0.18947
-0.182616
-0.176252
-0.170356
-0.16486
-0.159747
-0.154902
-0.150212
-0.145529
-0.140726
-0.135729
-0.130534
-0.125175
-0.119713
-0.114199
-0.108732
-0.103476
-0.0986529
-0.0944542
-0.0909798
-0.0881675
-0.0858495
-0.0838162
-0.0844145
-0.0860654
-0.0875269
-0.0888649
-0.0901142
-0.09118
-0.0918786
-0.0932333
-0.0925096
-0.0940367
-0.0947589
-0.0962139
-0.09547
-0.0970858
-0.0978184
-0.0993748
-0.0986167
-0.0819216
0.043633
0.0462242
0.0673775
0.0765539
0.0581855
0.0446573
0.0420271
0.0341323
0.0258008
0.0203571
0.0155444
0.0113804
0.0108756
0.00827644
0.00991628
0.0103454
0.00916114
0.0100355
0.00536281
0.0124337
0.0129483
0.0132807
0.0138631
0.0150754
-0.217401
-0.214945
-0.206798
-0.198409
-0.188776
-0.19397
-0.202529
-0.210344
-0.212845
-0.220183
-0.223817
-0.182085
-0.175805
-0.169964
-0.164497
-0.159426
-0.154666
-0.15014
-0.145715
-0.141247
-0.136617
-0.131753
-0.126658
-0.121381
-0.115992
-0.110555
-0.105193
-0.10008
-0.0954455
-0.0914797
-0.0882528
-0.0856643
-0.0835175
-0.0816202
-0.0845574
-0.0821778
-0.0866704
-0.0876497
-0.0886112
-0.08925
-0.0904957
-0.0898292
-0.0912264
-0.0918968
-0.0932596
-0.0925604
-0.0940781
-0.0947692
-0.0962284
-0.095514
-0.079884
0.0146436
0.0381452
0.0576037
0.0678595
0.0554755
0.0445108
0.0411396
0.0339229
0.0260682
0.0207521
0.0161022
0.0120894
0.0108379
0.00796046
0.00655421
0.00738592
0.00854703
0.00285689
0.00951905
0.00972167
0.0100467
0.00990076
0.00434841
0.0127099
-0.216912
-0.214764
-0.207476
-0.205182
-0.197863
-0.187895
-0.181468
-0.193462
-0.200864
-0.203631
-0.210142
-0.212528
-0.1753
-0.16954
-0.164118
-0.159085
-0.15437
-0.149941
-0.145693
-0.141509
-0.137235
-0.132755
-0.127997
-0.122983
-0.117769
-0.112439
-0.107075
-0.101816
-0.0968513
-0.0924213
-0.088695
-0.0857073
-0.0833185
-0.0813323
-0.0795994
-0.0823587
-0.084125
-0.0853915
-0.0801232
-0.0867055
-0.0879755
-0.0873114
-0.0886525
-0.0892642
-0.0905183
-0.089875
-0.0912662
-0.0919081
-0.0932719
-0.0926024
-0.0780226
0.0391005
0.052884
0.0630743
0.0537273
0.0442908
0.0402111
0.0335217
0.0261973
0.0210395
0.0165754
0.0126677
0.0108258
0.0079676
0.0038077
0.00444769
0.00276133
0.00431129
0.0068687
0.0074567
0.0072676
0.00800134
0.00867787
0.00271019
-0.207037
-0.204874
-0.198527
-0.196473
-0.189156
-0.180764
-0.185774
-0.174719
-0.193265
-0.200498
-0.203808
-0.169065
-0.163708
-0.158725
-0.154042
-0.149663
-0.145521
-0.141533
-0.137562
-0.133459
-0.129102
-0.12443
-0.119475
-0.114309
-0.109032
-0.10374
-0.0985923
-0.0937929
-0.0895789
-0.0860939
-0.0833272
-0.0811259
-0.0793166
-0.0777497
-0.0803004
-0.0819155
-0.0830072
-0.0838901
-0.0845062
-0.0850677
-0.0857022
-0.0782481
-0.0863744
-0.0870144
-0.0875491
-0.0880147
-0.0886863
-0.0892728
-0.0905296
-0.0899127
-0.0763174
0.0509598
0.0610936
0.0526679
0.0439727
0.039285
0.0329899
0.0261795
0.0211811
0.0169069
0.0131203
0.0108692
0.00809301
0.00468914
0.00329146
0.0029456
0.00240894
0.00305054
0.00374918
0.0061295
0.00317229
-0.198131
-0.195828
-0.1896
-0.187745
-0.181932
-0.174052
-0.178465
-0.186208
-0.185175
-0.168529
-0.194077
-0.192002
-0.200204
-0.203368
-0.163251
-0.158334
-0.153688
-0.149342
-0.145257
-0.141382
-0.137622
-0.13384
-0.12988
-0.125622
-0.121013
-0.116104
-0.110981
-0.105757
-0.100546
-0.0955247
-0.0909066
-0.0869167
-0.0836614
-0.0811075
-0.079101
-0.0774695
-0.0760554
-0.0784141
-0.0798917
-0.0808915
-0.0816999
-0.0822524
-0.0827209
-0.0832752
-0.0765318
-0.0875704
-0.0880233
-0.0747571
0.0605268
0.0517805
0.0434269
0.0383519
0.032356
0.0260049
0.0211674
0.0170655
0.0134228
0.0109297
0.00823371
0.00511472
0.00360116
0.00249625
0.00265016
0.00278628
0.00256965
0.00264312
0.00230271
0.00287654
0.00377851
-0.197803
-0.195916
-0.182212
-0.180629
-0.175098
-0.167935
-0.171956
-0.179141
-0.177419
-0.185071
-0.16273
-0.1579
-0.153306
-0.148994
-0.144941
-0.141121
-0.137484
-0.133931
-0.130308
-0.12646
-0.122278
-0.117718
-0.112851
-0.107771
-0.10261
-0.0974952
-0.0926181
-0.0881924
-0.0844231
-0.0813952
-0.0790543
-0.0772433
-0.0757777
-0.0745029
-0.0766847
-0.0780381
-0.0789591
-0.0796957
-0.0802023
-0.0806294
-0.0811365
-0.0749573
-0.0733156
0.0507832
0.042572
0.0373999
0.0316352
0.0256697
0.0209918
0.0170469
0.0135564
0.0109587
0.00836495
0.00551756
0.00391762
0.00293029
0.00256676
0.00257465
0.00187956
0.00259866
0.00126567
0.00256351
0.00257081
0.00257194
0.00216266
0.00278439
-0.181559
-0.180383
-0.175504
-0.173918
-0.168984
-0.162126
-0.165944
-0.172525
-0.170899
-0.179041
-0.177384
-0.157416
-0.152885
-0.14862
-0.144595
-0.140802
-0.137225
-0.133807
-0.130419
-0.126921
-0.123167
-0.119043
-0.114531
-0.109706
-0.104679
-0.0995952
-0.0945946
-0.0898737
-0.0856436
-0.0820968
-0.0792935
-0.0771681
-0.0755427
-0.0742319
-0.073081
-0.0751007
-0.076339
-0.0771866
-0.0778578
-0.0783239
-0.0787168
-0.079185
-0.0735061
-0.0720096
0.0415221
0.0363701
0.0308059
0.0251614
0.0206518
0.0168545
0.0135241
0.0109138
0.00845289
0.00588679
0.00427349
0.00330606
0.00278125
0.00177328
0.00212164
0.00243653
0.00255817
0.00240973
-0.000164201
0.00247763
0.00372532
0.00243169
0.00246971
-0.175076
-0.173654
-0.169611
-0.167668
-0.162987
-0.156878
-0.16027
-0.166511
-0.16512
-0.172381
-0.170672
-0.152415
-0.148211
-0.144224
-0.140453
-0.136901
-0.133549
-0.130297
-0.127044
-0.123654
-0.119972
-0.115908
-0.111443
-0.106671
-0.101712
-0.0967223
-0.0918472
-0.0872889
-0.0832579
-0.0799322
-0.077358
-0.0754374
-0.0739856
-0.0728164
-0.0717942
-0.0736411
-0.0747794
-0.0755612
-0.0761739
-0.0766016
-0.0769628
-0.0773946
-0.0721698
-0.070851
0.0353377
0.0298399
0.0244963
0.0201627
0.0165064
0.0133376
0.0107733
0.00845556
0.00615417
0.00458168
0.00359921
0.00293807
0.00198707
0.00104025
0.00135385
0.00169874
0.00191957
0.00228496
0.00247662
0.00248787
-0.00159544
0.00351349
0.00358641
0.00216655
-0.169718
-0.16725
-0.162455
-0.157678
-0.151886
-0.15523
-0.159964
-0.166331
-0.164502
-0.147755
-0.143825
-0.140084
-0.136548
-0.133225
-0.130033
-0.126923
-0.123785
-0.12048
-0.116873
-0.112864
-0.10846
-0.103756
-0.0988814
-0.093996
-0.0892528
-0.0848591
-0.081029
-0.0779295
-0.0755774
-0.0738538
-0.0725623
-0.0715285
-0.0706289
-0.0722818
-0.0733225
-0.0740569
-0.0746301
-0.0750222
-0.0753546
-0.0757532
-0.0710164
0.02882
0.0236461
0.0195229
0.016017
0.0130126
0.0105272
0.00835827
0.00629283
0.00479361
0.0038055
0.00306108
0.00215114
0.0012167
0.00035398
0.000669475
0.00100966
0.00119897
0.00154628
0.00174077
0.0018122
0.0021682
0.0020332
0.00233001
0.00253837
-0.00223904
-0.169451
-0.167076
-0.162902
-0.161563
-0.157254
-0.152676
-0.147243
-0.150249
-0.1551
-0.159092
-0.160475
-0.166155
-0.164607
-0.14339
-0.139693
-0.136178
-0.132872
-0.1297
-0.126655
-0.123664
-0.120618
-0.117398
-0.11386
-0.109925
-0.105595
-0.100974
-0.0961937
-0.0914175
-0.0868054
-0.0825784
-0.0789526
-0.0760755
-0.0739367
-0.0723984
-0.0712623
-0.0703525
-0.0711224
-0.0719785
-0.0726455
-0.0731663
-0.0735429
-0.0738627
-0.074241
0.0227169
0.0187332
0.015423
0.0125768
0.0101854
0.00815621
0.00629462
0.00489332
0.003922
0.0031482
0.00228841
0.00139247
0.000544504
-0.000489761
5.47957e-05
0.000400157
0.000536901
0.000861008
0.00102826
0.0011571
0.00151115
0.00135194
0.00167109
0.0017426
0.00207614
0.00192756
-0.157517
-0.156222
-0.152241
-0.147972
-0.14292
-0.145715
-0.149985
-0.153794
-0.155998
-0.139277
-0.135786
-0.132503
-0.12934
-0.126316
-0.123392
-0.120495
-0.117538
-0.114403
-0.110954
-0.107105
-0.102865
-0.0983358
-0.0936518
-0.08898
-0.0844972
-0.0804374
-0.0770178
-0.0743613
-0.0724256
-0.0710563
-0.0700564
-0.0708703
-0.0714446
-0.0718572
-0.0721399
-0.0724938
-0.072781
0.017896
0.0147064
0.012035
0.00975407
0.00785974
0.00617091
0.00487339
0.00394387
0.00318299
0.00239216
0.00156963
0.000794509
2.80661e-05
0.000570547
-0.0012089
-0.000277581
4.71076e-05
0.000266677
0.000350717
0.000507606
0.00083503
0.00065821
0.000970316
0.00109584
0.00144968
0.00129359
-0.152529
-0.15138
-0.147608
-0.143665
-0.138848
-0.141438
-0.145455
-0.149219
-0.150398
-0.153554
-0.155868
-0.135359
-0.132116
-0.128965
-0.125952
-0.123052
-0.120218
-0.117412
-0.114548
-0.111518
-0.108169
-0.104424
-0.100283
-0.095845
-0.0912475
-0.0866713
-0.082313
-0.0784221
-0.0752094
-0.0727679
-0.0710277
-0.0698119
-0.0707542
-0.0710349
-0.0712956
-0.0715909
-0.0719014
-0.0721402
-0.0724565
0.0139594
0.0113879
0.00925957
0.00748867
0.00593826
0.00474194
0.00386663
0.00315136
0.00244343
0.0017194
0.00104368
0.000463737
0.000749676
0.000278035
0.000369507
0.000369632
-0.00204042
-0.00010303
-0.00017091
-1.1916e-06
0.000220468
3.17438e-05
0.000293843
0.000441177
0.000767878
0.000604669
-0.152292
-0.151276
-0.147927
-0.146807
-0.143412
-0.139519
-0.134852
-0.137458
-0.141204
-0.144671
-0.145786
-0.149098
-0.150222
-0.131707
-0.128576
-0.125575
-0.122685
-0.119874
-0.117133
-0.114421
-0.11167
-0.108753
-0.105529
-0.1019
-0.0978538
-0.0934922
-0.0889643
-0.0844711
-0.0802367
-0.0765201
-0.0735137
-0.0712777
-0.0697159
-0.0707821
-0.0704687
-0.0710548
-0.0712998
-0.0715815
0.0107189
0.0086803
0.00704535
0.00562007
0.00451535
0.00370131
0.00304453
0.00242959
0.0018136
0.00124537
0.00078046
0.000881182
0.000494693
-0.000114654
-6.20367e-06
6.72533e-05
0.000223615
0.000519023
-0.000321841
-0.00346764
-0.000122546
0.000286018
-0.000251445
-0.000113489
0.000139852
-3.01108e-05
-0.147709
-0.146682
-0.143481
-0.142868
-0.139226
-0.134202
-0.131284
-0.136771
-0.140484
-0.141542
-0.144495
-0.145598
-0.128164
-0.125184
-0.122309
-0.119504
-0.116787
-0.114141
-0.111541
-0.108915
-0.106142
-0.103057
-0.0995376
-0.0955674
-0.0912561
-0.0867749
-0.0823554
-0.0782483
-0.0747142
-0.071921
-0.0698853
-0.070453
0.0080901
0.00652412
0.00523315
0.00421617
0.00346255
0.00286866
0.00234246
0.00183672
0.00137332
0.00099682
0.000975985
0.000651813
9.12355e-05
-0.000363696
-0.000309141
-0.000226469
-0.000159548
-7.41321e-05
4.03016e-05
8.00446e-05
0.000327601
0.000449743
-0.00420259
-0.000450791
0.000553031
-0.143099
-0.143121
-0.139545
-0.138672
-0.134855
-0.130875
-0.132976
-0.127718
-0.136753
-0.140352
-0.141137
-0.12477
-0.121924
-0.119129
-0.116421
-0.113796
-0.111257
-0.108785
-0.10632
-0.103709
-0.100759
-0.097328
-0.0933984
-0.0891017
-0.0846473
-0.0803005
-0.076332
-0.0729918
-0.0704171
0.00599599
0.00477321
0.0038617
0.00317152
0.00263551
0.00218845
0.00178073
0.00141795
0.00111852
0.00103529
0.000761723
0.000266649
-0.000150804
-0.000465297
-0.00100412
-0.000392388
-0.000436472
-0.000330282
-0.000253183
-0.000254906
-0.000140394
-0.000181934
-0.143072
-0.139307
-0.137912
-0.135115
-0.134164
-0.131553
-0.127218
-0.129466
-0.133298
-0.13233
-0.124318
-0.137195
-0.136193
-0.140261
-0.140915
-0.121521
-0.118747
-0.116054
-0.113435
-0.110913
-0.108496
-0.106189
-0.103907
-0.101465
-0.0986304
-0.0952422
-0.0913018
-0.086986
-0.0825478
-0.0782853
-0.0744807
-0.0713615
0.00430985
0.00344937
0.0028409
0.00236166
0.00197809
0.00165312
0.00137642
0.00114976
0.0010474
0.00082324
0.000404948
1.74185e-05
-0.000304801
-0.000603104
-0.000673822
-0.000628764
-0.00131149
-0.0020515
-0.000309478
-0.000532651
-0.000539272
-0.000387156
-0.000436898
-0.139142
-0.138078
-0.131389
-0.131223
-0.127718
-0.123829
-0.125997
-0.12964
-0.12882
-0.121116
-0.118354
-0.115686
-0.113078
-0.110561
-0.108151
-0.105895
-0.103782
-0.101698
-0.0994063
-0.0966344
-0.0932256
-0.089224
-0.084863
-0.0804452
-0.0762969
-0.0727013
0.00304253
0.00246775
0.00205759
0.00172866
0.00146632
0.00126005
0.0010963
0.00100585
0.000832736
0.000501934
0.000161668
-0.000150312
-0.000485518
-0.00101095
-0.00080967
-0.00072688
-0.000769072
-0.000767705
-0.000727096
-0.000804379
-0.00121514
0.000617766
-0.000477725
-0.000470472
-0.131223
-0.12791
-0.127064
-0.124315
-0.120714
-0.122651
-0.126312
-0.125434
-0.129448
-0.128807
-0.117938
-0.115303
-0.112723
-0.110221
-0.107804
-0.105548
-0.103485
-0.101586
-0.099688
-0.097496
-0.0947157
-0.0912119
-0.0871024
-0.0826891
-0.0783273
-0.0743543
0.00210883
0.00171924
0.00145061
0.00123771
0.00108307
0.000972603
0.000907844
0.000790991
0.000549071
0.000273587
-3.36432e-06
-0.000332252
-0.000791018
-0.00106684
-0.00123418
-0.000917965
-0.000913931
-0.000874715
-0.000863681
-0.000796278
-0.000827271
-0.000825664
-0.000804008
-0.000881009
-0.00127564
-0.000267117
-0.12767
-0.126915
-0.12451
-0.12369
-0.121121
-0.117487
-0.119615
-0.122927
-0.122084
-0.126227
-0.125369
-0.114894
-0.112362
-0.109895
-0.10748
-0.105208
-0.103131
-0.101285
-0.0995995
-0.0978449
-0.0956768
-0.0927894
-0.0891207
-0.0848786
-0.0804424
-0.0762067
0.00139881
0.00114184
0.000980191
0.000866228
0.0007946
0.000761556
0.000698095
0.000542726
0.000341427
0.000119389
-0.000162146
-0.000516948
-0.000656495
-0.000196418
-0.000858825
-0.00162615
-0.00116736
-0.00111915
-0.00103926
-0.000928814
-0.000957911
-0.000937302
-0.000918456
-0.000850787
-0.000874744
-0.000879193
-0.00085831
-0.000954504
-0.124281
-0.123538
-0.121248
-0.120442
-0.117931
-0.114451
-0.116349
-0.120097
-0.118844
-0.122841
-0.121995
-0.111974
-0.109571
-0.107175
-0.104897
-0.102791
-0.100923
-0.0992993
-0.0977963
-0.0961087
-0.0938492
-0.0907545
-0.0868695
-0.0825142
-0.0781331
0.000852687
0.000695356
0.000622894
0.000581594
0.000576679
0.000560697
0.000482028
0.000359494
0.000203322
-8.999e-06
-0.000266837
-0.000330358
-3.67945e-05
-0.000272286
-0.000368954