/*--------------------------------*- C++ -*----------------------------------*\
| =========                 |                                                 |
| \\      /  F ield         | OpenFOAM: The Open Source CFD Toolbox           |
|  \\    /   O peration     | Version:  v1912                                 |
|   \\  /    A nd           | Website:  www.openfoam.com                      |
|    \\/     M anipulation  |                                                 |
\*---------------------------------------------------------------------------*/
FoamFile
{
    version     2.0;
    format      ascii;
    class       surfaceScalarField;
    location    "440";
    object      phi;
}
// * * * * * * * * * * * * * * * * * * * * * * * * * * * * * * * * * * * * * //

dimensions      [0 3 -1 0 0 0 0];
oriented        oriented;


internalField   nonuniform List<scalar> 
7352
(
0.00711967
0.00289233
0.0107433
0.00638834
0.00176676
0.00112557
0.0123518
0.00840355
0.00424348
0.0039116
0.000165541
0.000960031
0.0129135
0.00945127
0.00623486
0.00641218
0.000978396
0.00309874
-0.00011645
0.00107649
0.012992
0.00993553
0.00747466
0.00821146
0.00205498
0.00533559
-0.00014385
0.00312615
-5.34579e-05
0.00112995
0.012876
0.0101319
0.00810249
0.0093077
0.00296804
0.00729841
3.73763e-05
0.00515437
-0.000176997
0.00324968
-1.04037e-05
0.00114035
0.0126955
0.0101986
0.00834683
0.00988758
0.00353087
0.00874487
0.00027928
0.0070565
-0.0002773
0.00525468
-7.78731e-05
0.00331715
-1.99328e-05
0.00116028
0.0125025
0.010211
0.00839477
0.0101507
0.00376253
0.00965592
0.000396609
0.00862755
-0.000335508
0.00711471
-0.000187666
0.00536447
-8.15452e-05
0.00337876
-1.5744e-05
0.00117603
0.0123182
0.0102023
0.00836383
0.0102419
0.0037592
0.010154
0.000290179
0.00976235
-0.000428592
0.00872063
-0.000312056
0.0072391
-0.000187321
0.00547025
-6.93364e-05
0.00343235
-5.61136e-06
0.00118164
0.012151
0.0101852
0.00832332
0.0102428
0.00361828
0.0103828
-4.67494e-05
0.0104909
-0.000632142
0.0099659
-0.000463266
0.00887184
-0.00033095
0.00738272
-0.000166488
0.0055674
-4.23388e-05
0.00346908
-2.62664e-06
0.00118427
0.0120046
0.0101623
0.00831538
0.0101932
0.00340988
0.0104512
-0.000590631
0.0109267
-0.000979835
0.0108386
-0.000683234
0.0101859
-0.000514356
0.00905525
-0.000309151
0.00752539
-0.000121852
0.00564691
-2.922e-05
0.00349567
-2.18341e-06
0.00118645
0.011886
0.0101316
0.00836844
0.0101093
0.00318233
0.0104207
-0.00131643
0.011177
-0.00146063
0.0114075
-0.0009994
0.0111548
-0.000753534
0.010425
-0.000495939
0.00924204
-0.000249197
0.00765273
-9.4293e-05
0.00571199
-2.44072e-05
0.00351789
-1.46882e-06
0.00118792
0.0117951
0.0100989
0.00851163
0.00998844
0.00297451
0.0103171
-0.00221611
0.0113204
-0.00205597
0.0117723
-0.00141411
0.0118222
-0.00106498
0.0114662
-0.000734224
0.0106633
-0.000426001
0.00941884
-0.00020655
0.00776498
-7.99229e-05
0.0057675
-2.04564e-05
0.00353688
-1.75205e-06
0.00118967
0.0117342
0.0100619
0.00877563
0.00983492
0.00281918
0.0101438
-0.00329613
0.0113972
-0.00274235
0.0120068
-0.00190546
0.0122637
-0.0014467
0.0122039
-0.00102853
0.0117605
-0.000654491
0.0108918
-0.000370755
0.00958305
-0.000180482
0.00786554
-7.00911e-05
0.00581714
-1.96059e-05
0.00355473
-1.93108e-06
0.00119161
0.0116978
0.0100284
0.0091915
0.00964598
0.00276663
0.00988748
-0.00455899
0.0114066
-0.00348496
0.0121398
-0.00244258
0.0125439
-0.00187566
0.0126926
-0.00137053
0.0125459
-0.000932304
0.0120384
-0.000584936
0.011106
-0.000330523
0.00973309
-0.000160228
0.00795567
-6.57012e-05
0.00586324
-1.91401e-05
0.00357193
-1.66731e-06
0.00119327
0.0116696
0.0100062
0.00978561
0.00943433
0.00291044
0.00950216
-0.00596258
0.0112911
-0.00421204
0.0121337
-0.00296702
0.0126642
-0.00229977
0.012968
-0.00172898
0.0130511
-0.001244
0.0128576
-0.000843997
0.0122974
-0.000529639
0.0113051
-0.000297151
0.00987001
-0.000149848
0.00803982
-6.20887e-05
0.00590618
-1.73724e-05
0.00358763
-2.09243e-06
0.00119537
0.011618
0.00999356
0.0105676
0.00922417
0.00347311
0.00887166
-0.00734125
0.0108808
-0.0047606
0.0118396
-0.00335735
0.012524
-0.002633
0.0129974
-0.002046
0.013285
-0.00155474
0.0133618
-0.00112805
0.0131417
-0.000765656
0.0125334
-0.000478483
0.0114864
-0.000277522
0.00999768
-0.000141178
0.0081189
-5.82225e-05
0.00594703
-1.78117e-05
0.00360335
-2.92155e-06
0.00119829
0.0115938
0.0098882
0.0114378
0.00912335
0.0049077
0.00778958
-0.00823008
0.00976049
-0.00479285
0.0109131
-0.00340189
0.0118842
-0.00273378
0.0126248
-0.00222682
0.0131782
-0.00180225
0.0135325
-0.0013978
0.0136316
-0.00101842
0.0133945
-0.000693593
0.0127485
-0.000446282
0.0116552
-0.00026111
0.0101176
-0.0001311
0.00819178
-5.58172e-05
0.00598504
-1.93475e-05
0.00361978
-3.75398e-06
0.00120204
0.0115549
0.00985393
0.0123151
0.00456763
0.00444331
0.0048206
0.00330321
0.00304524
0.002862
-0.00417083
0.0039297
-0.00338619
0.00318681
-0.00222562
0.00881047
-0.00161721
-0.00283535
0.0103465
-0.002425
0.0115754
-0.00215898
0.012557
-0.00190095
0.0132769
-0.00159118
0.0137259
-0.00124733
0.0138605
-0.000914368
0.0136152
-0.000643292
0.0129456
-0.000417851
0.0118119
-0.000240559
0.0102271
-0.000124311
0.00826027
-5.70258e-05
0.00602272
-2.12604e-05
0.00363728
-4.21749e-06
0.00120626
0.0113959
0.010019
0.0131813
0.00445305
0.0045347
0.0055355
0.00385273
0.00619372
0.0037851
-0.00344516
0.00257754
-0.000506637
-0.00155668
0.000766077
0.000897318
0.00396489
0.00145705
0.0012928
-0.00185893
0.00356302
-0.00237432
0.000910769
0.000654891
-0.000540361
0.0022702
-0.000401956
-0.000940535
0.00751551
-0.000599849
-0.00103739
0.00298319
-0.00161463
0.00953616
-0.00177283
0.0111892
-0.00177024
0.0124263
-0.0016348
0.0133206
-0.00139473
0.0138733
-0.00110227
0.0140484
-0.000842395
0.0138143
-0.000597902
0.0131256
-0.00038377
0.0119551
-0.000226025
0.0103288
-0.000122225
0.00832547
-5.90316e-05
0.00606049
-2.24783e-05
0.00365554
-4.41833e-06
0.00121068
0.0110958
0.0102572
0.0136094
0.00466215
0.00492868
0.00686816
0.0037786
0.00743866
0.0039642
0.00541706
0.00115947
0.00117346
0.000945009
5.39898e-06
-0.00132259
0.000710922
0.001477
-0.000710922
0.000541683
0.000756514
-0.000388925
0.000759334
0.000265966
-0.000180094
0.00165847
-0.000245565
-0.000141175
0.000498553
0.00250541
-0.000462758
-0.000288828
0.00641744
-0.000227738
0.00214787
-0.000242316
-0.00115519
0.00891853
-0.00139857
0.0108176
-0.00147941
0.0122709
-0.00140914
0.013335
-0.00120881
0.0139798
-0.00100537
0.0142113
-0.000776965
0.0139934
-0.000546768
0.0132886
-0.000357593
0.0120867
-0.000217754
0.0104243
-0.00012232
0.00838875
-5.98693e-05
0.00609788
-2.27704e-05
0.00367389
-4.73542e-06
0.00121542
0.0106879
0.0104499
0.0136105
0.00504766
0.00520841
0.00797732
0.00412349
0.00821238
0.00469362
0.00673407
0.0012159
0.0012457
0.00809545
0.00131783
0.00128498
-0.00115806
0.0017564
0.000561133
0.000557079
-0.000566075
0.000124791
-0.000377778
0.000197684
0.00126582
-5.38845e-05
-1.62284e-05
-0.000124791
0.00194344
-8.43957e-05
-0.000273907
0.00584043
-0.000304272
0.00178866
-2.75756e-05
-4.53835e-05
0.00104377
-8.60997e-06
-1.16577e-05
-0.000894472
0.00841443
-0.0011256
0.0104637
-0.00126209
0.0121238
-0.00119093
0.0133171
-0.00108693
0.0140614
-0.000918946
0.0143533
-0.000705097
0.0141517
-0.000504916
0.0134359
-0.000339371
0.0122083
-0.000213502
0.0105155
-0.000121593
0.00845048
-5.95709e-05
0.00613469
-2.32356e-05
0.00369239
-4.96982e-06
0.00122039
0.0102506
0.0105053
0.01326
0.0108004
0.00849384
0.0047662
0.00878022
0.00492203
0.00921883
0.00139198
0.00160814
0.00961515
0.00231242
0.00198488
0.00237488
0.00059742
0.00298895
0.000631631
-0.00360733
0.00422839
0.000696763
0.000666599
8.9965e-06
0.000552137
0.0001438
0.000127571
0.000557121
-3.5935e-06
-8.4835e-07
0.000406695
0.00165498
-5.56132e-05
-8.4611e-05
-0.000279928
0.00537515
-0.000149269
0.00157119
-0.000112709
-0.000107772
0.000588947
-5.94022e-05
0.000564116
-2.05522e-05
-0.000115914
0.000107304
-0.000645679
0.00793451
-0.000985735
0.0101874
-0.00104596
0.0119788
-0.00105632
0.0132865
-0.000984618
0.0141271
-0.000824335
0.0144726
-0.000645905
0.0142927
-0.000474185
0.0135707
-0.000327619
0.0123224
-0.000208385
0.0106023
-0.000119537
0.00851044
-5.96401e-05
0.00617109
-2.33836e-05
0.0037108
-5.41058e-06
0.0012258
0.00980334
0.0105073
0.0127972
0.0109681
-0.0105507
0.0190995
0.00534504
0.00568681
0.00989597
0.0023318
0.00215358
0.00426731
0.00486702
0.000753357
0.00546834
0.00100682
-0.005797
0.00589364
0.00221577
0.00165622
0.00114956
0.00178119
-0.00244779
0.00314455
0.00010371
0.000102862
0.000348866
-1.57249e-06
0.000533709
-2.52064e-05
0.000492663
-4.35653e-05
0.00146227
-0.000114162
-5.68493e-05
-8.80784e-05
0.00489051
-7.29648e-05
0.00135841
-3.10092e-05
-1.44003e-05
0.000458069
-7.81142e-05
0.00042938
-7.90827e-05
0.000332055
-3.74218e-06
-0.000637749
0.00758652
-0.000817872
0.00995929
-0.000906139
0.0118287
-0.000945543
0.0132474
-0.000874635
0.0141774
-0.000750415
0.0145771
-0.000599775
0.0144183
-0.000452969
0.0136961
-0.000316853
0.0124309
-0.000202141
0.0106849
-0.000116507
0.00856731
-5.91682e-05
0.00620688
-2.45523e-05
0.00372994
-5.40688e-06
0.0012312
0.00934183
0.0105045
0.0122327
0.0110717
0.0181792
0.0118883
0.0157847
-0.0156452
0.00274976
0.0024558
0.015401
0.00607047
0.00617836
0.00204709
0.00655075
0.00178119
-0.00758927
0.0017088
0.00105332
0.00389791
0.00490472
-0.00656094
0.00627211
0.0025046
0.000101289
0.000311321
-4.47247e-06
0.000278426
-1.06696e-05
0.000387282
-7.20643e-05
0.000357384
-2.69522e-05
0.00128596
-1.01188e-05
-5.5125e-06
-8.89018e-05
0.00451365
-0.000171983
0.00122373
-4.64951e-06
-6.08003e-06
0.000335305
-8.92961e-06
0.000323931
-3.02685e-06
0.000228364
-2.80525e-05
0.000203634
-5.43526e-05
9.75471e-05
-0.0005903
0.00735895
-0.000664472
0.00971762
-0.000797687
0.0116808
-0.000833599
0.0132064
-0.000792748
0.0142197
-0.000690604
0.0146679
-0.000567182
0.0145325
-0.000431708
0.0138109
-0.000303303
0.0125321
-0.000195881
0.0107643
-0.000114818
0.00862295
-6.00922e-05
0.00624242
-2.47144e-05
0.00374925
-5.24082e-06
0.00123645
0.00886834
0.0105045
0.0116114
0.0111259
0.0167447
0.0125063
-0.0142777
0.030017
0.00525756
0.00629256
-0.00733861
0.00782684
0.00226154
-0.00777784
0.00289503
-0.00515657
0.00219457
0.00258155
0.00672053
0.00159867
0.000912451
-0.00606904
-0.00501572
0.0025046
9.30746e-05
8.2405e-05
0.00013157
0.000104617
0.000315453
-1.64088e-06
0.000311188
-1.24746e-06
0.00115186
-6.26771e-06
-1.07704e-05
-0.000210381
0.00432017
-0.000186438
0.00103408
-1.54123e-05
-3.87894e-05
0.000307653
-1.11493e-06
0.000302326
-7.53016e-07
9.56877e-05
9.26609e-05
5.43526e-05
-0.000378085
0.00707256
-0.000561067
0.009481
-0.000702485
0.0115497
-0.00076261
0.0131762
-0.000723139
0.0142522
-0.000645185
0.0147459
-0.000536705
0.0146375
-0.000412613
0.0139203
-0.000291222
0.0126274
-0.000190169
0.0108396
-0.000114367
0.00867723
-6.02319e-05
0.00627794
-2.48509e-05
0.00376886
-5.32523e-06
0.00124177
0.00838887
0.0105035
0.0109485
0.0111674
0.0151242
0.0127463
0.0281609
0.0143624
0.00701151
-0.00301225
-0.0014099
0.00154235
0.00112585
0.00849807
0.004806
-0.00289503
-0.00258155
0.00176387
0.00410327
9.102e-05
8.97725e-05
0.000297171
-1.11286e-06
0.000288389
-1.98851e-06
0.00096251
-6.76294e-05
-7.11794e-05
-7.39095e-05
0.00403672
-2.07304e-05
0.000866273
-6.72012e-05
-2.30007e-05
0.000276534
-3.55728e-06
0.000247018
-9.27354e-06
8.86576e-05
8.79046e-05
-0.000255257
0.00676675
-0.000498993
0.00927751
-0.000668353
0.0114554
-0.000688395
0.0131415
-0.000667228
0.0142743
-0.000607865
0.0148171
-0.000509256
0.0147341
-0.000391627
0.0140207
-0.000278917
0.0127162
-0.000185756
0.010911
-0.000112886
0.00872988
-5.91316e-05
0.00631222
-2.35857e-05
0.00378711
-5.08755e-06
0.00124686
0.00790804
0.0105008
0.0102532
0.0111987
0.0135725
0.0127192
0.0252524
0.0156549
-0.00435106
0.0169262
0.0102853
0.000353971
-0.000781617
0.00123736
0.00108661
-0.000229494
0.000573729
-0.000895298
0.00258759
8.67917e-05
8.48032e-05
0.000203741
-2.43525e-05
0.000180181
-4.76199e-05
0.000800258
-6.83918e-06
-1.05609e-06
-1.38763e-05
0.00213175
-3.93336e-06
0.00166752
0.000779905
-3.0425e-07
-7.32664e-08
0.00011298
8.99795e-05
8.12459e-05
7.19723e-05
-9.78371e-05
0.00653296
-0.000167371
-0.00054155
0.00915071
-0.000602006
0.011369
-0.000622705
0.013097
-0.000622635
0.014289
-0.000573595
0.0148814
-0.000481643
0.0148242
-0.000371696
0.0141134
-0.000269501
0.0127999
-0.000182119
0.0109803
-0.000110401
0.00878115
-5.73936e-05
0.00634603
-2.29351e-05
0.00380496
-5.47335e-06
0.00125233
0.00743343
0.0104936
0.00953131
0.0112227
0.0121823
0.0125889
0.0220621
0.0159094
0.0183691
0.014212
-0.00143854
0.00678695
0.00593607
-0.000999158
0.000124477
-0.000393075
0.000584384
-0.000109932
0.000290587
0.00157973
-0.00043068
4.76199e-05
8.31403e-05
8.20842e-05
0.00076664
-5.62365e-07
-4.83817e-08
-0.000188675
0.00222259
0.000442588
0.000319496
1.20917e-07
5.0184e-07
-3.27827e-06
0.00149288
-1.07528e-05
8.178e-05
8.17067e-05
-0.00018365
0.00640804
-0.000232979
-0.000114635
0.00216985
-0.000488755
0.00903745
-0.000514886
0.0112612
-0.000570187
0.0130445
-0.000589082
0.0143045
-0.000543073
0.0149428
-0.00045235
0.0149048
-0.000355859
0.0141998
-0.000262285
0.0128801
-0.000175209
0.0110451
-0.000106289
0.00883004
-5.55259e-05
0.00637862
-2.20158e-05
0.0038215
-4.91251e-06
0.00125725
0.0069661
0.0104843
0.00878856
0.0112364
0.0109524
0.0124526
0.0189876
0.0156635
0.0180217
0.0162568
0.00995711
0.0110418
0.00208828
0.00383993
2.95473e-05
-2.16877e-05
0.00092943
-0.000348857
1.4545e-05
0.000429885
-5.22034e-06
1.96257e-05
8.11443e-05
8.1096e-05
-3.58027e-05
0.000475112
0.000283216
4.77326e-07
8.12169e-05
8.17187e-05
-2.41681e-05
0.00141813
-1.57214e-05
-6.60422e-06
0.000470964
0.002116
-0.000129802
-0.000209626
0.00630231
-0.000173396
0.00207459
-0.000191573
-0.000361026
0.00888359
-0.00045104
0.0111421
-0.000544335
0.0129998
-0.000563631
0.0143251
-0.000507265
0.0149978
-0.000430514
0.0149795
-0.000341568
0.0142791
-0.00025249
0.0129573
-0.000170624
0.0111094
-0.000103518
0.00887803
-5.34551e-05
0.00641006
-2.18385e-05
0.00383843
-5.07438e-06
0.00126232
0.00650607
0.010476
0.0080371
0.0112358
0.00984107
0.0123477
0.0162327
0.0152075
0.0167207
0.0169645
0.0115268
0.0146871
0.00479397
0.00833615
0.000655786
1.54309e-05
0.00316871
-0.000774998
0.000685271
0.000119274
0.000132745
0.000160447
-5.39021e-05
-2.55169e-05
9.32464e-06
2.89503e-05
0.000277925
-1.31401e-06
8.2196e-05
-0.000462454
0.000448329
-1.0044e-05
0.00134745
-1.99504e-05
-3.91647e-05
-7.2115e-06
0.00204442
-0.000179453
-0.000116849
0.0061196
-6.14708e-05
0.0019996
-0.000128571
0.00129917
-9.03042e-05
-5.29896e-05
-0.000277738
0.00871029
-0.000440853
0.0110386
-0.000540369
0.0129765
-0.000524682
0.0143425
-0.000476747
0.015044
-0.000407201
0.0150451
-0.000326149
0.0143527
-0.000242664
0.0130294
-0.000166899
0.0111728
-9.94507e-05
0.00892403
-5.18088e-05
0.00644003
-2.16017e-05
0.00385495
-5.60202e-06
0.00126792
0.00605432
0.0104667
0.00728619
0.0112269
0.00880495
0.0122719
0.0138434
0.014737
0.0150163
0.0169119
0.0118071
0.0166841
0.00689482
0.0125863
0.00227528
0.00671666
-0.000316181
0.000956964
3.18528e-05
2.80662e-05
0.000365012
-5.00039e-05
0.0028537
-0.000224574
2.74789e-06
2.49185e-05
2.42231e-05
4.43957e-05
-9.34358e-06
-2.35277e-05
-2.10307e-05
-5.91008e-06
0.000272311
-1.59735e-06
8.0882e-05
0.0004382
-9.82159e-06
0.000264301
-2.03429e-06
0.000416043
-1.70075e-05
0.0012773
-7.88237e-05
-7.87611e-05
0.00194592
-6.31776e-05
-4.85434e-05
0.00592966
-3.92539e-05
0.00191384
-2.93851e-05
0.00121298
-1.88718e-05
-4.53841e-05
-0.00039462
0.000363874
-5.95586e-05
-3.15666e-05
-0.000285898
0.00855533
-0.000474229
0.0109724
-0.000506524
0.0129583
-0.000488028
0.0143538
-0.000445277
0.0150821
-0.000387067
0.015106
-0.000313636
0.0144237
-0.00023357
0.0130961
-0.000158139
0.0112315
-9.58706e-05
0.00896809
-5.06381e-05
0.00646906
-2.16967e-05
0.00387105
-5.17508e-06
0.0012731
0.00560761
0.0104607
0.00654076
0.0112122
0.00781159
0.0122203
0.0117787
0.0143366
0.0132268
0.0165265
0.0112858
0.0174332
0.00799124
0.0155877
0.00406995
0.0107916
0.0012529
0.00582877
0.000908278
-1.64103e-05
1.50911e-05
-7.21317e-05
9.78415e-05
3.87443e-06
2.26843e-06
-3.84665e-05
3.29631e-06
2.59644e-06
-1.14918e-05
0.000300791
-7.04072e-05
0.00262331
-3.9265e-05
3.54615e-06
-2.38475e-05
9.50102e-06
-1.03198e-05
1.10153e-05
1.02286e-05
5.91008e-06
-2.69408e-05
7.92847e-05
0.000256072
-1.59244e-06
7.72504e-05
0.000242259
-3.19467e-06
0.000346145
-6.10951e-05
0.000322517
-5.51326e-05
0.00116333
-1.05666e-05
-2.95799e-06
0.00188367
-1.83778e-05
-3.98808e-05
0.00574701
-6.33708e-05
0.00185918
-1.47611e-05
0.00113737
-6.06603e-07
-2.81802e-06
-0.000297408
0.000285022
-6.486e-06
-2.02757e-05
-0.000219172
0.000180827
-2.12135e-05
-8.48025e-06
-0.000373746
0.00845485
-0.000465547
0.0109315
-0.000462409
0.0129327
-0.000442567
0.0143511
-0.00041334
0.0151083
-0.000368882
0.0151613
-0.000302202
0.0144923
-0.000225869
0.0131638
-0.000152336
0.0112879
-9.31333e-05
0.00901058
-5.0795e-05
0.00649816
-2.10717e-05
0.00388694
-3.91185e-06
0.00127701
0.00516697
0.0104536
0.00580878
0.0111927
0.0068445
0.0121793
0.00996705
0.0140319
0.011499
0.0160644
0.0103623
0.01745
0.00822053
0.0172039
0.00538619
0.0142715
0.00253616
0.00950834
0.000858811
0.00527075
0.000856911
-2.3006e-05
3.96329e-06
-0.000107504
0.000104682
-8.4326e-06
-5.15753e-06
3.49559e-07
5.07872e-06
-4.01958e-06
8.39313e-06
-4.99251e-07
-1.75115e-06
1.54516e-06
4.14159e-06
-5.33679e-06
-2.60896e-06
0.000271969
-8.09495e-05
0.00243228
5.69691e-06
-1.53264e-06
-1.59255e-05
7.56579e-05
7.24632e-05
0.000162501
-4.27695e-05
0.000107369
0.000276487
-2.03119e-06
0.000274042
-5.13526e-07
0.00112061
-1.25021e-06
-3.73411e-07
0.00183574
-1.64488e-05
-8.28705e-05
0.00560513
-0.000148993
0.00179759
-2.52156e-05
0.0011073
-7.1727e-07
-7.31949e-07
-0.0002715
0.000271077
-1.83233e-07
-2.76341e-07
-8.7093e-05
8.0607e-05
-6.3983e-05
4.27695e-05
-0.00042054
0.00840984
-0.000409502
0.0108786
-0.00039684
0.012887
-0.000402829
0.0143405
-0.000396732
0.0151362
-0.000358627
0.0152177
-0.00029486
0.0145613
-0.000216454
0.0132279
-0.000147176
0.011342
-9.37512e-05
0.00905354
-4.92622e-05
0.00652635
-2.03772e-05
0.00390341
-5.03392e-06
0.00128204
0.00473086
0.0104471
0.00508761
0.0111748
0.00589239
0.0121448
0.00834079
0.0138055
0.00988012
0.0156508
0.00928964
0.0171371
0.00789323
0.0177773
0.00601851
0.0165716
0.00372798
0.0130797
0.00175893
0.00860822
0.000685715
0.00485701
0.000804733
-2.62089e-05
-2.564e-06
-0.000103373
0.000104008
-2.36417e-05
2.87446e-08
5.24295e-06
-1.06755e-05
8.16828e-06
-5.92577e-06
-1.29808e-05
-2.85244e-06
-1.21521e-05
-4.7931e-07
1.31948e-06
-4.9926e-07
1.53264e-06
0.000274558
-0.000109146
0.00226686
7.85758e-05
7.80622e-05
0.000270003
-1.76514e-07
0.000269614
1.5152e-08
0.00109234
-4.03871e-07
-1.08743e-06
0.0017583
-4.35774e-05
-0.000195234
0.00556793
-0.000188107
0.00169656
-8.72625e-05
0.00106987
-2.2466e-06
-4.93005e-07
-0.00026893
0.000268363
-1.50352e-07
-4.77504e-08
-7.77859e-05
7.76026e-05
-0.000335692
0.00833603
-0.000312839
0.0107946
-0.000343874
0.012828
-0.000380844
0.0143247
-0.000387806
0.0151654
-0.000348513
0.0152713
-0.000281294
0.0146262
-0.000209993
0.0132907
-0.00014294
0.0113912
-8.9224e-05
0.0090935
-4.8713e-05
0.00655469
-2.11294e-05
0.0039195
-4.68267e-06
0.00128673
0.00429722
0.0104416
0.00437954
0.0111552
0.00495241
0.0121148
0.00684571
0.0136399
0.00836124
0.0153244
0.00818683
0.0167536
0.0072762
0.0177541
0.00607874
0.0177171
0.00449338
0.0158062
0.00274146
0.0120971
0.00135535
0.00793858
0.000611255
0.00452031
0.000747038
-3.62825e-05
-1.51709e-05
-9.96399e-05
9.48122e-05
-2.13823e-05
1.8034e-06
-8.36376e-06
-1.08643e-05
-3.1595e-06
5.31914e-07
-1.78667e-06
-8.81857e-06
4.83305e-07
4.59217e-06
2.51156e-06
-8.43739e-06
-3.40894e-07
-8.20218e-07
0.000296168
-0.000144963
0.00211565
7.74261e-05
7.74413e-05
0.000268084
-1.24944e-07
0.000267054
-5.75727e-08
0.00103238
-1.06257e-06
-5.02323e-06
0.0016615
-0.000160167
-0.00015516
0.0054599
-7.25086e-05
0.0016378
-0.000164413
0.000966969
-1.68295e-05
-5.02715e-06
-0.000266629
0.00026471
-3.27377e-07
-6.86656e-08
-7.73935e-05
7.72431e-05
-0.000196087
0.00821928
-0.000244291
0.010695
-0.000322637
0.0127698
-0.000379566
0.0143164
-0.00038465
0.0152015
-0.000339292
0.0153293
-0.000267746
0.0146839
-0.000200246
0.013348
-0.000138915
0.0114409
-8.7137e-05
0.00913192
-4.75233e-05
0.00658108
-2.01101e-05
0.00393493
-4.55192e-06
0.00129128
0.00387043
0.0104338
0.00368649
0.0111347
0.00402033
0.0120873
0.0054363
0.0135242
0.00691896
0.0150822
0.00710239
0.0164088
0.00654528
0.0174845
0.00577535
0.0180575
0.00476998
0.0174405
0.00349636
0.0150513
0.00215744
0.011295
0.00114592
0.00740391
0.000587774
0.0042287
0.000691227
-6.34914e-05
-2.56625e-05
-8.78511e-05
7.89762e-05
-2.74089e-05
-8.21086e-06
6.29208e-06
-1.55576e-05
-6.63315e-06
-5.4843e-06
-2.13008e-06
-6.39144e-07
4.6172e-06
-7.77673e-06
2.21426e-06
-1.19925e-06
2.83051e-06
-1.63125e-06
0.000326378
-0.000181345
0.0019706
7.71182e-05
7.70606e-05
0.000263948
-3.00692e-07
0.000259488
-5.62951e-07
0.000899329
-2.84675e-05
-6.40593e-05
0.00157865
-9.60076e-05
-4.49878e-05
0.00532612
-1.73216e-05
0.0015417
-3.55619e-05
0.000853075
-5.58912e-05
-6.22688e-05
-0.000255464
0.000241719
-3.08413e-06
-1.00418e-06
-7.69919e-05
7.66645e-05
-0.000128958
0.00810395
-0.00022354
0.0105959
-0.000332531
0.0127228
-0.000394815
0.0143266
-0.00038118
0.0152434
-0.000319198
0.0153808
-0.000258808
0.0147425
-0.000192139
0.0134012
-0.000134048
0.0114878
-8.44216e-05
0.00916882
-4.35775e-05
0.00660455
-1.95391e-05
0.00394991
-4.4152e-06
0.00129569
0.0034483
0.0104271
0.00300468
0.0111156
0.00309174
0.0120633
0.004077
0.0134466
0.00553385
0.0149093
0.00603977
0.0161448
0.00578188
0.0171722
0.00529149
0.0179684
0.00467563
0.0181518
0.00387754
0.0170593
0.00285685
0.0143519
0.00181169
0.0106293
0.00103896
0.00695272
0.000590151
0.00396493
-0.000119345
0.000629224
-6.70242e-05
3.93676e-05
-3.58359e-05
-1.37111e-05
1.99921e-05
-2.89482e-05
-9.65102e-06
-8.80272e-06
-7.21648e-07
-3.05541e-06
1.06891e-05
-1.49372e-05
-2.38521e-06
7.68684e-06
-2.48225e-06
-9.90683e-06
-2.85925e-06
1.63125e-06
0.000346993
-0.000196756
0.00182036
7.63638e-05
7.58009e-05
0.00022178
-8.52921e-06
0.000179024
-2.13027e-05
0.000781369
-1.96584e-05
-4.64344e-06
0.00151074
-1.40256e-05
-1.81398e-05
0.00522655
-1.12472e-05
0.00149937
-5.95102e-06
0.000747487
-8.8427e-08
-1.59083e-06
-0.000158635
0.000102744
-4.18806e-05
-7.47967e-05
7.17125e-05
-0.000109496
0.0079899
-0.000250244
0.0105136
-0.000372351
0.0127003
-0.000403079
0.0143485
-0.000357776
0.015282
-0.000304545
0.0154265
-0.000240193
0.0147906
-0.000182053
0.0134492
-0.000129824
0.0115332
-8.11722e-05
0.00920641
-4.57093e-05
0.00663072
-1.88688e-05
0.00396437
-4.28109e-06
0.00129997
0.00303412
0.0104172
0.00233955
0.0110923
0.00216988
0.0120375
0.00273919
0.0134011
0.00418069
0.0147997
0.00499231
0.0159568
0.0050157
0.016911
0.00473459
0.0177291
0.00436062
0.0182834
0.00391121
0.0181182
0.00328003
0.0166361
0.00244396
0.0137196
0.00161037
0.0100578
0.00098933
0.00655354
0.000597682
0.00371424
3.7299e-05
-7.83031e-05
-2.59284e-05
-1.3048e-05
-0.000112883
0.000545347
3.20242e-05
-3.05621e-05
-4.40341e-06
-6.23184e-06
1.94434e-05
-2.25529e-05
-6.54184e-06
1.6781e-05
-6.14067e-06
-1.59076e-05
2.48396e-07
-2.18218e-06
5.3415e-06
-7.72674e-06
2.85925e-06
0.0003726
-0.000222166
0.00166992
6.31833e-05
4.18806e-05
8.30858e-05
7.84424e-05
0.000733748
-3.57007e-07
6.95936e-08
0.00148587
-4.63727e-06
-1.11849e-05
0.0051337
-5.4608e-06
0.00147957
-4.94961e-06
0.000727892
4.60741e-08
-1.40268e-07
-7.68516e-05
7.67631e-05
-0.000136606
0.00787626
-0.000315102
0.0104563
-0.000406221
0.0127035
-0.000375505
0.0143662
-0.000328435
0.0153059
-0.000277575
0.0154639
-0.000229604
0.0148381
-0.000177922
0.0134973
-0.00012718
0.0115792
-8.23502e-05
0.00924305
-4.53677e-05
0.00665722
-1.82113e-05
0.00397829
-4.33122e-06
0.0013043
0.00262927
0.0104055
0.0016911
0.0110656
0.00125194
0.0120102
0.00138666
0.01339
0.00284376
0.014738
0.00395617
0.0158358
0.00425167
0.0167208
0.00415666
0.0174889
0.00394202
0.0181477
0.00370861
0.018486
0.00339386
0.0180043
0.00287692
0.0162032
0.00218114
0.0131488
0.00149387
0.00955331
0.000962884
0.00618833
0.000611878
0.00347496
-0.000131248
-3.62906e-05
-2.36502e-05
7.43539e-05
-8.51121e-05
-6.71251e-06
-8.45847e-06
7.26224e-05
-5.26964e-06
-6.04783e-06
-0.00013383
0.000457011
2.41758e-05
-3.61064e-06
-1.62311e-06
2.31177e-05
-2.35178e-05
-3.43869e-06
-5.57392e-06
1.58012e-05
-1.71518e-05
-5.19153e-06
9.66054e-06
-7.47836e-06
0.000389741
-0.000236112
0.00151629
7.64061e-05
7.64757e-05
0.00072339
-1.09668e-07
-2.57933e-08
0.00147124
-2.85522e-06
-7.57516e-06
0.00502553
-2.08627e-05
0.00146462
4.05572e-06
-2.89794e-06
0.000718769
-1.44678e-07
-1.83959e-07
-7.63355e-05
7.63815e-05
-0.000227034
0.00778819
-0.000399329
0.0104494
-0.000376079
0.0127041
-0.000335917
0.0143737
-0.000297952
0.0153262
-0.000261421
0.0154957
-0.000220274
0.0148805
-0.000174266
0.0135444
-0.00012516
0.011622
-7.91056e-05
0.00927679
-4.23952e-05
0.0066814
-1.80827e-05
0.00399204
-4.40941e-06
0.00130871
0.0022351
0.0103925
0.00106557
0.011031
0.000338959
0.0119786
-1.05756e-05
0.0134074
0.00150662
0.0147271
0.00292325
0.015771
0.00348818
0.0165993
0.0035714
0.0173061
0.0034864
0.0179445
0.00338069
0.0184756
0.00326814
0.0186117
0.00304492
0.0178363
0.00261032
0.015774
0.0020165
0.0126262
0.00142409
0.0090921
0.00095377
0.00584644
0.000624081
0.00324062
-0.000188629
-4.40669e-05
-3.23828e-05
9.92674e-05
-0.000109863
-1.31205e-05
-1.25758e-05
-6.42353e-06
-3.07197e-06
2.45717e-05
-2.88799e-05
-2.40454e-06
1.96555e-05
-3.54252e-06
1.95201e-05
-5.13446e-06
1.34722e-05
-0.000140748
0.000361645
9.86154e-06
8.23842e-06
1.88335e-05
-1.28984e-06
-1.75704e-06
-5.19154e-06
0.000408948
-0.000256484
0.00136381
7.62719e-05
7.62461e-05
0.000418373
6.01254e-08
1.433e-07
0.000297337
0.00145875
-1.17654e-06
-5.24154e-07
-2.31921e-05
0.00488801
-6.6314e-05
0.00144067
-2.15472e-07
-2.56789e-06
0.00045114
-2.87114e-05
0.000453064
-4.82128e-06
-7.60621e-05
7.59174e-05
-0.000366973
0.00775584
-0.000367387
0.0104408
-0.000318055
0.0126862
-0.000286486
0.0143622
-0.00026732
0.0153321
-0.000245116
0.0155206
-0.000213865
0.0149201
-0.000172731
0.013592
-0.000123073
0.011666
-7.65703e-05
0.00931097
-4.17634e-05
0.00670509
-1.80042e-05
0.00400564
-4.26198e-06
0.00131297
0.00185666
0.0103753
0.000472994
0.0109851
-0.000566786
0.0119367
-0.00148561
0.0134536
0.000149191
0.0147649
0.00189402
0.0157564
0.0027248
0.0165343
0.00298286
0.0171879
0.00301928
0.0177732
0.0029995
0.0183257
0.00300118
0.0187426
0.00297871
0.0186779
0.00281182
0.0176348
0.00243626
0.0153542
0.00191093
0.0121394
0.00138246
0.00866341
0.000950123
0.0055204
0.000636515
0.00301305
-0.000249143
-4.36477e-05
-3.65868e-05
0.000122064
-0.000138974
-2.71573e-05
-9.52806e-06
-1.06537e-05
3.84939e-05
-4.22373e-05
-9.37742e-06
3.4852e-05
-8.93407e-06
3.15698e-05
-3.14161e-06
-3.82265e-07
8.67699e-06
-1.10816e-05
5.13446e-06
-0.000159087
0.000264245
6.94858e-06
0.000422028
-0.000269609
0.00121139
7.59776e-05
7.61209e-05
0.000267468
1.15774e-06
0.000452404
-5.17096e-07
0.000451975
-9.42678e-08
0.00142324
-7.98428e-07
-4.96978e-06
-0.000107901
0.00482286
-0.000193921
0.00137559
-4.74347e-06
-1.39183e-05
0.000451806
-4.65688e-08
0.000449585
-3.47399e-07
0.000264155
-1.50759e-06
-0.000351668
0.00774012
-0.000274304
0.010397
-0.000249597
0.0126493
-0.000245356
0.0143403
-0.000247212
0.0153342
-0.000242242
0.0155489
-0.000219469
0.0149668
-0.000174487
0.0136434
-0.00012573
0.0117151
-8.08619e-05
0.00935006
-4.12145e-05
0.0067283
-1.56751e-05
0.00401705
-4.28702e-06
0.00131726
0.00149812
0.0103561
-7.21851e-05
0.0109205
-0.00146077
0.011879
-0.00307297
0.0135241
-0.00124485
0.0148477
0.000862986
0.0157959
0.00195735
0.0165238
0.00239051
0.0171267
0.00254629
0.0176609
0.00260338
0.0181693
0.00266853
0.0186584
0.00275612
0.0189652
0.00278956
0.0187002
0.00266211
0.017409
0.00232028
0.0149449
0.0018418
0.01168
0.00135539
0.00825815
0.000949045
0.00520786
0.000644458
0.00279062
-0.000317051
-5.05556e-05
-4.06256e-05
0.000152037
-0.000163995
-3.16896e-05
-2.35234e-05
4.62266e-05
-0.00010808
-1.80203e-06
3.76906e-05
-1.19259e-06
4.57204e-05
-9.02204e-06
-7.17084e-06
2.35395e-05
-2.59258e-05
-6.99139e-06
1.46055e-05
1.14638e-05
-0.000169204
0.000163835
0.000434758
-0.000285436
0.00106206
7.72786e-05
0.000263828
-1.90127e-07
0.000263551
1.82588e-07
0.00044914
-3.53536e-07
0.000445634
-1.46335e-06
0.00132218
-1.67169e-05
-3.77754e-05
-0.000181934
0.00477187
-0.000118747
0.00126991
-5.38197e-05
-8.78301e-05
0.000443403
-2.51259e-06
0.000433875
-4.39012e-06
0.000263438
6.58116e-08
0.0002632
-1.08593e-07
7.57711e-05
-0.00019607
0.00766189
-0.000181705
0.0103291
-0.000194199
0.0125981
-0.000221602
0.0143146
-0.000247505
0.0153395
-0.00024822
0.0155777
-0.000219258
0.0150116
-0.000171302
0.013689
-0.000116435
0.0117507
-7.33334e-05
0.00938218
-4.09005e-05
0.00675352
-1.75594e-05
0.00403032
-2.92476e-06
0.00132019
0.00116561
0.0103347
-0.000548762
0.0108327
-0.00233935
0.0117991
-0.0048167
0.0136228
-0.00269554
0.0149748
-0.000172251
0.0158829
0.00118867
0.0165646
0.00179326
0.0171211
0.00206826
0.0176047
0.00220164
0.0180626
0.00231179
0.0185261
0.0024525
0.018962
0.00260252
0.0191522
0.00267553
0.0186868
0.00256397
0.0171653
0.00224383
0.0145428
0.00179553
0.0112399
0.00133658
0.00787062
0.000946452
0.00490587
0.000650928
0.00257445
-0.000385172
-5.48279e-05
-4.62581e-05
0.000180031
-0.000197521
-3.30666e-05
-2.45916e-05
0.00011883
-0.000130032
-1.07226e-05
-9.76514e-06
-3.23399e-06
-9.53927e-06
1.26124e-05
-1.44144e-05
3.02151e-05
-1.54671e-06
1.14198e-05
-2.88165e-06
-6.99139e-06
-0.000187267
6.56603e-05
0.000442016
-0.000295834
0.000915864
7.55809e-05
7.57635e-05
0.000262771
7.5075e-08
0.000261435
-1.26792e-07
0.000425288
-8.12948e-06
0.000404789
-1.72774e-05
0.00123791
-7.7874e-05
-7.20596e-05
-5.75543e-05
0.00464728
-1.39263e-05
0.0011815
-4.32003e-05
-1.91365e-05
0.000384028
-3.30587e-05
0.000353744
-5.75461e-05
0.00025925
-3.27632e-07