/*--------------------------------*- C++ -*----------------------------------*\
| =========                 |                                                 |
| \\      /  F ield         | OpenFOAM: The Open Source CFD Toolbox           |
|  \\    /   O peration     | Version:  v1912                                 |
|   \\  /    A nd           | Website:  www.openfoam.com                      |
|    \\/     M anipulation  |                                                 |
\*---------------------------------------------------------------------------*/
FoamFile
{
    version     2.0;
    format      ascii;
    class       volVectorField;
    location    "440";
    object      U;
}
// * * * * * * * * * * * * * * * * * * * * * * * * * * * * * * * * * * * * * //

dimensions      [0 1 -1 0 0 0 0];


internalField   nonuniform List<vector> 
3753
(
(0.440311 -0.0538333 -7.69267e-21)
(0.790285 -0.0841681 2.338e-20)
(0.121642 -0.0463039 -1.09485e-20)
(0.927948 -0.0767551 1.15502e-20)
(0.440333 -0.104472 1.21928e-20)
(0.0873533 -0.0395163 0)
(0.977375 -0.0639596 -2.77301e-20)
(0.688872 -0.139952 1.84352e-24)
(0.294959 -0.111471 -1.26231e-24)
(0.0895662 -0.0391298 0)
(0.99151 -0.0551699 -1.11376e-24)
(0.841776 -0.154136 -3.01954e-20)
(0.515173 -0.169477 3.48712e-25)
(0.269419 -0.116057 0)
(0.096659 -0.0398424 -1.9805e-20)
(0.993801 -0.049505 -6.03063e-20)
(0.921732 -0.156144 2.87433e-20)
(0.698141 -0.209459 -3.6979e-20)
(0.454271 -0.185599 -3.64359e-20)
(0.276938 -0.116615 0)
(0.0959395 -0.039497 -1.30776e-20)
(0.993301 -0.045213 1.31708e-19)
(0.957823 -0.152588 0)
(0.822646 -0.232417 8.08357e-20)
(0.627041 -0.242517 3.34146e-20)
(0.449302 -0.18696 -3.629e-24)
(0.277562 -0.114696 1.66137e-20)
(0.0940626 -0.0390889 -1.64635e-20)
(0.992704 -0.0414358 -7.15753e-20)
(0.97142 -0.146817 -6.74112e-20)
(0.894634 -0.2431 -4.47028e-20)
(0.764268 -0.284155 -4.46009e-20)
(0.610832 -0.248193 0)
(0.447943 -0.183352 1.64909e-20)
(0.27403 -0.113545 1.06527e-20)
(0.0931465 -0.0386216 0)
(0.992479 -0.0377108 -1.00276e-23)
(0.974832 -0.140139 6.74726e-20)
(0.930126 -0.246448 0)
(0.857266 -0.312118 4.29618e-20)
(0.748994 -0.297187 -3.86917e-24)
(0.604516 -0.244015 -1.50873e-20)
(0.443441 -0.181415 -1.67864e-24)
(0.271351 -0.112277 5.25866e-21)
(0.091545 -0.037931 0)
(0.992526 -0.0337287 1.00017e-19)
(0.973976 -0.132745 -9.50438e-20)
(0.943878 -0.245894 -1.03153e-23)
(0.911998 -0.330623 6.65056e-20)
(0.853467 -0.333263 6.63213e-24)
(0.74083 -0.29439 0)
(0.598092 -0.241542 0)
(0.43963 -0.179466 8.15732e-22)
(0.267893 -0.110394 2.16631e-25)
(0.0894179 -0.0371503 0)
(0.992699 -0.0292919 7.2813e-21)
(0.971212 -0.124312 2.04193e-19)
(0.945545 -0.243223 1.10478e-19)
(0.939992 -0.344168 1.57519e-20)
(0.92418 -0.358722 0)
(0.84938 -0.333188 -2.28019e-24)
(0.732962 -0.292258 -9.90705e-25)
(0.593514 -0.239128 -1.06671e-20)
(0.43516 -0.176759 -2.95954e-25)
(0.263283 -0.108348 -5.7352e-21)
(0.0873424 -0.0363649 8.44861e-21)
(0.992937 -0.0242723 -1.08545e-19)
(0.967283 -0.114325 -1.09007e-19)
(0.940094 -0.239011 -1.11774e-19)
(0.951491 -0.356218 -1.76086e-19)
(0.968785 -0.377278 -4.73269e-24)
(0.928052 -0.361427 0)
(0.842718 -0.332342 0)
(0.728095 -0.28986 5.22259e-21)
(0.588718 -0.2359 -3.61946e-22)
(0.429342 -0.173928 6.4152e-22)
(0.258409 -0.106318 -1.0406e-20)
(0.085343 -0.0355883 1.10428e-20)
(0.993257 -0.0185927 0)
(0.962356 -0.102171 0)
(0.929463 -0.233094 -6.90248e-23)
(0.952857 -0.368955 2.08569e-19)
(0.9966 -0.392346 2.862e-20)
(0.981405 -0.381837 4.72149e-24)
(0.925078 -0.362186 -2.01307e-24)
(0.838946 -0.330538 -7.62825e-25)
(0.723576 -0.286486 -2.72962e-22)
(0.582615 -0.232624 4.03067e-21)
(0.42295 -0.17114 -7.96157e-21)
(0.253559 -0.104296 -1.35269e-20)
(0.0834169 -0.0348468 0)
(0.993748 -0.0122198 0)
(0.956456 -0.0871702 1.44188e-19)
(0.914067 -0.224952 1.81942e-19)
(0.947076 -0.383591 -1.10793e-19)
(1.01463 -0.406193 -2.7882e-20)
(1.01689 -0.397355 2.03994e-24)
(0.982721 -0.383699 2.02663e-24)
(0.923916 -0.361203 2.01712e-24)
(0.835534 -0.32743 -1.20945e-22)
(0.717888 -0.283069 3.01819e-21)
(0.575787 -0.229442 7.18523e-21)
(0.416384 -0.16835 1.47648e-24)
(0.248795 -0.102353 1.53826e-20)
(0.0816071 -0.0341393 -3.76468e-24)
(0.994528 -0.00518428 6.25524e-20)
(0.949629 -0.0686108 -6.72623e-20)
(0.893894 -0.213797 2.57754e-20)
(0.934689 -0.400615 3.27699e-23)
(1.0264 -0.419649 3.57748e-23)
(1.04055 -0.409896 9.66267e-21)
(1.02115 -0.399102 -1.11473e-20)
(0.984469 -0.383092 -1.27089e-24)
(0.922369 -0.358528 6.66994e-24)
(0.830837 -0.324127 -2.82086e-21)
(0.711419 -0.279755 5.9278e-21)
(0.568574 -0.226252 0)
(0.409791 -0.165658 -2.65951e-20)
(0.244219 -0.100482 -8.53059e-24)
(0.0798735 -0.033455 1.61967e-20)
(0.995678 0.00237325 -1.2498e-19)
(0.942217 -0.045889 2.7633e-21)
(0.869114 -0.19808 -2.12815e-19)
(0.913428 -0.42003 0)
(1.0313 -0.431188 4.04069e-23)
(1.05412 -0.419447 -9.46317e-21)
(1.04457 -0.409429 1.09053e-20)
(1.02418 -0.397631 -2.02315e-24)
(0.984533 -0.380456 6.24642e-22)
(0.918931 -0.355368 0)
(0.825205 -0.32082 -5.53424e-21)
(0.704368 -0.276408 -4.04407e-24)
(0.561134 -0.223168 1.17248e-20)
(0.403324 -0.163029 -3.46645e-24)
(0.239785 -0.0986501 4.50371e-24)
(0.0782136 -0.0328053 1.71078e-20)
(0.997115 0.00999013 6.23055e-20)
(0.935669 -0.0185405 -7.69371e-20)
(0.839677 -0.174145 4.4113e-22)
(0.875245 -0.438945 0)
(1.02158 -0.435613 2.00413e-20)
(1.05195 -0.422351 5.83896e-21)
(1.0517 -0.413102 1.03801e-20)
(1.04489 -0.404871 6.55839e-25)
(1.02378 -0.393884 2.58655e-25)
(0.981675 -0.376979 2.53857e-21)
(0.91412 -0.351959 5.07762e-21)
(0.818729 -0.317393 -7.62248e-21)
(0.696849 -0.273165 4.9546e-24)
(0.553672 -0.220116 -6.33592e-24)
(0.396973 -0.160413 -1.61216e-20)
(0.235479 -0.0968994 4.96972e-24)
(0.0766727 -0.0321981 0)
(0.998789 0.0169627 -5.90705e-20)
(0.934009 0.0132027 3.044e-21)
(0.803602 -0.134267 -9.48503e-22)
(0.801307 -0.440504 -1.20413e-19)
(0.974348 -0.424469 -2.03395e-20)
(1.01614 -0.408796 -2.38271e-21)
(1.03183 -0.40435 -1.04175e-20)
(1.04227 -0.401945 4.46524e-21)
(1.03963 -0.398006 -9.79146e-25)
(1.01919 -0.388951 -2.47576e-21)
(0.976729 -0.372921 -4.88435e-21)
(0.908033 -0.34826 7.22277e-21)
(0.811479 -0.314047 0)
(0.689111 -0.269905 -1.15851e-20)
(0.546201 -0.21701 1.43901e-20)
(0.390709 -0.157881 -4.10665e-24)
(0.231375 -0.0952556 -1.0144e-23)
(0.075257 -0.0316339 -4.44268e-24)
(1.00046 0.0226023 5.84729e-20)
(0.942941 0.0414138 -7.13149e-20)
(0.752267 -0.0619564 2.57616e-20)
(0.655556 -0.390467 1.19304e-19)
(0.842295 -0.379011 0)
(0.910706 -0.363176 -3.7182e-21)
(0.962203 -0.372282 0)
(1.00283 -0.382289 -8.27224e-21)
(1.02559 -0.389298 3.72908e-22)
(1.02912 -0.389841 2.94522e-21)
(1.01175 -0.383152 9.16197e-25)
(0.969921 -0.36836 -3.30786e-24)
(0.900763 -0.344607 -4.22171e-24)
(0.803768 -0.310611 2.13804e-20)
(0.681157 -0.266492 3.19416e-24)
(0.538684 -0.213959 7.31414e-24)
(0.384625 -0.155481 0)
(0.227521 -0.0937116 5.17298e-24)
(0.0739385 -0.031103 1.84916e-20)
(1.00197 0.0265454 0)
(0.952803 0.0643294 1.33786e-19)
(0.820213 0.0517365 -4.19248e-20)
(0.827297 0.0728317 0)
(0.507591 -0.349725 2.12229e-21)
(0.384495 -0.261502 1.98711e-20)
(0.636535 -0.0220551 0)
(0.692013 -0.331999 9.546e-23)
(0.33772 -0.243827 -2.96852e-20)
(0.509465 -0.223157 1.97464e-21)
(0.68545 -0.267211 4.46264e-22)
(0.564705 -0.211722 0)
(0.812308 -0.304055 0)
(0.905476 -0.337186 3.93471e-21)
(0.968024 -0.36172 -1.12081e-21)
(1.00396 -0.376038 -2.97412e-21)
(1.01552 -0.380835 9.75709e-25)
(1.00196 -0.37672 0)
(0.961471 -0.363864 -3.2035e-25)
(0.892762 -0.340779 -1.00476e-20)
(0.795596 -0.3069 0)
(0.672944 -0.263077 -3.21093e-24)
(0.531229 -0.211033 -3.75047e-24)
(0.378799 -0.153197 -1.80624e-20)
(0.22389 -0.0922421 0)
(0.07269 -0.0305971 1.86593e-20)
(1.00292 0.0287525 -4.93022e-20)
(0.967392 0.0807117 -5.08109e-21)
(0.838611 0.10019 0)
(0.854399 0.12714 2.9755e-20)
(0.641078 0.0609005 0)
(0.414155 -0.12679 -1.89401e-21)
(0.167219 -0.192429 -2.5497e-20)
(0.136477 -0.186696 -6.28336e-21)
(0.20473 -0.225088 3.33523e-20)
(0.384115 -0.0729713 0)
(0.32068 -0.157285 -3.00028e-21)
(0.131896 -0.0624338 0)
(0.327516 -0.118928 0)
(0.250621 -0.083245 -8.62181e-24)
(0.439582 -0.16058 -7.82027e-22)
(0.564761 -0.196153 -5.05854e-22)
(0.376179 -0.134067 -1.88823e-25)
(0.732103 -0.261439 1.0775e-21)
(0.850935 -0.309694 -3.47863e-22)
(0.931752 -0.342767 1.20502e-24)
(0.980448 -0.36267 0)
(0.999709 -0.371364 0)
(0.990257 -0.370561 0)
(0.95209 -0.359153 4.66963e-24)
(0.884057 -0.33655 2.57195e-24)
(0.786902 -0.303123 0)
(0.664606 -0.259764 -1.38554e-20)
(0.523952 -0.208214 1.60066e-20)
(0.373231 -0.150992 -8.9694e-24)
(0.220426 -0.0908297 0)
(0.0715067 -0.0301176 0)
(1.0032 0.029299 3.8683e-21)
(0.984727 0.0899964 -5.72618e-20)
(0.874236 0.151696 -2.86202e-20)
(0.896458 0.16825 -2.40436e-20)
(0.660524 0.128465 0)
(0.688742 0.186352 -4.04131e-20)
(0.372099 0.0427708 0)
(0.371305 -0.014447 0)
(0.117768 -0.109541 3.03734e-21)
(0.0546263 -0.0991427 0)
(0.0896044 -0.0292208 8.32712e-23)
(0.0778464 -0.0276368 -1.22621e-22)
(0.220801 -0.0740705 0)
(0.132324 -0.0409959 -1.40107e-21)
(0.335797 -0.11192 1.93511e-25)
(0.487143 -0.162529 -1.12304e-21)
(0.316501 -0.102407 7.27416e-22)
(0.183771 -0.0614189 -6.36693e-25)
(0.66704 -0.233461 4.42771e-22)
(0.802328 -0.287348 -3.51271e-25)
(0.896978 -0.325331 6.62157e-21)
(0.956078 -0.349475 7.94555e-21)
(0.982268 -0.36275 0)
(0.977724 -0.364291 -9.56822e-21)
(0.941871 -0.353946 -1.0773e-20)
(0.874571 -0.332203 1.16508e-20)
(0.77786 -0.299418 1.28168e-20)
(0.656305 -0.256535 -1.41398e-20)
(0.516884 -0.205451 0)
(0.367868 -0.148846 -1.83738e-20)
(0.21711 -0.0894786 0)
(0.0703835 -0.0296608 0)
(1.00328 0.0283565 4.6191e-20)
(0.999334 0.0926765 0)
(0.921112 0.182767 2.40547e-20)
(0.944405 0.182554 2.18288e-20)
(0.727941 0.234846 7.23934e-20)
(0.777324 0.265783 -3.21008e-20)
(0.384408 0.101955 0)
(0.403438 0.159581 -1.85053e-20)
(0.455549 0.269458 0)
(0.427118 0.215951 1.77745e-20)
(0.092654 0.00355358 5.25137e-20)
(0.0998966 -0.0539285 -2.58816e-20)
(0.0387061 -0.011219 1.36269e-21)
(0.0553981 -0.0166513 9.87501e-23)
(0.0496073 -0.0161385 5.7938e-24)
(0.163353 -0.0515545 -4.85221e-23)
(0.289025 -0.0941353 -1.42576e-22)
(0.425802 -0.141827 1.09958e-21)
(0.262443 -0.0826547 -1.55809e-22)
(0.19551 -0.063974 4.34452e-23)
(0.193408 -0.0615928 -7.19237e-23)
(0.0418316 -0.0137646 0)
(0.0445401 -0.0141127 0)
(0.616092 -0.212775 -1.6806e-24)
(0.759728 -0.268361 -7.20578e-21)
(0.863942 -0.308921 -8.38201e-21)
(0.931244 -0.338202 -8.66205e-21)
(0.964712 -0.354375 9.6179e-21)
(0.96451 -0.357536 1.06039e-20)
(0.930706 -0.348638 -2.25533e-20)
(0.864537 -0.327924 1.19629e-20)
(0.768687 -0.29578 1.30615e-20)
(0.648103 -0.253328 0)
(0.509988 -0.202725 1.62124e-20)
(0.362685 -0.146767 -1.83378e-20)
(0.213924 -0.0881844 0)
(0.0693258 -0.0292296 1.85674e-20)
(1.0031 0.0263394 1.64871e-22)
(1.0117 0.0912857 1.70402e-22)
(0.95816 0.249303 -3.67577e-20)
(0.828729 0.283504 0)
(0.870866 0.308272 -2.5737e-20)
(0.48888 0.318584 -1.41375e-20)
(0.530515 0.358345 1.27719e-20)
(0.637433 0.423216 1.19436e-20)
(0.581391 0.39422 -9.9133e-21)
(0.0983235 0.0674075 -2.6431e-20)
(0.112581 0.134782 2.44108e-20)
(0.166095 0.269427 4.24146e-20)
(0.134881 0.202677 -4.68681e-20)
(0.0384255 -0.0115586 -6.5935e-23)
(0.0379147 -0.0120427 2.17341e-22)
(0.114723 -0.0376269 0)
(0.183878 -0.0589164 1.83145e-22)
(0.175554 -0.0559504 3.66255e-25)
(0.225712 -0.0737467 -3.0283e-22)
(0.386281 -0.127402 -1.76542e-21)
(0.209095 -0.0669819 1.85238e-22)
(0.16383 -0.053075 -3.3093e-23)
(0.145142 -0.0422852 1.96842e-22)
(0.113239 -0.0357174 -3.38584e-23)
(0.573638 -0.196104 1.73371e-24)
(0.721184 -0.250497 2.16895e-24)
(0.832273 -0.295864 9.19799e-21)
(0.907806 -0.327761 -2.30559e-24)
(0.947129 -0.345681 0)
(0.950419 -0.350815 1.11634e-20)
(0.918909 -0.343451 -2.31186e-20)
(0.854239 -0.323725 1.21779e-20)
(0.759489 -0.292132 3.19755e-24)
(0.639989 -0.250118 -1.43632e-20)
(0.503243 -0.200047 1.61451e-20)
(0.357659 -0.144761 0)
(0.210884 -0.086955 2.12074e-20)
(0.0683241 -0.0288158 1.84139e-20)
(1.00256 0.0236015 0)
(1.02071 0.0857545 -1.55915e-22)
(1.01343 0.238806 4.21773e-20)
(0.866076 0.563349 -1.90543e-20)
(0.970838 0.574459 9.2877e-21)
(0.694456 0.447723 -6.57052e-22)
(0.741964 0.461263 9.20587e-21)
(0.765435 0.548372 1.84813e-20)
(0.208107 0.329123 -1.95785e-20)
(0.262693 0.375479 4.15162e-22)
(0.404548 0.501833 -2.24172e-20)
(0.317062 0.404988 1.94094e-20)
(0.0370884 -0.0119553 -2.48544e-25)
(0.108225 -0.0341158 0)
(0.102931 -0.0324604 -8.06556e-23)
(0.120093 -0.0389687 3.49131e-23)
(0.109226 -0.0348695 0)
(0.197174 -0.0632733 1.04802e-21)
(0.354602 -0.11642 0)
(0.190649 -0.0604071 3.21865e-21)
(0.102534 -0.0325465 0)
(0.0994148 -0.0312428 -4.91073e-22)
(0.0947895 -0.0301788 -1.18679e-22)
(0.0660612 -0.0172423 0)
(0.0365674 -0.0114206 6.3024e-23)
(0.533954 -0.178973 0)
(0.685782 -0.237428 0)
(0.804142 -0.284295 0)
(0.885517 -0.31728 0)
(0.92907 -0.337297 0)
(0.93584 -0.344367 1.14315e-20)
(0.906831 -0.338422 -2.35127e-20)
(0.843831 -0.319509 1.23386e-20)
(0.750275 -0.288443 1.32435e-20)
(0.631951 -0.246927 -1.43061e-20)
(0.496637 -0.19744 -3.85303e-24)
(0.352811 -0.142838 -1.81672e-20)
(0.20798 -0.0857704 0)
(0.0673557 -0.0284148 0)
(1.00182 0.0204104 3.50277e-20)
(1.02675 0.0777983 0)
(1.04027 0.209082 0)
(1.13956 0.498451 -5.38413e-21)
(0.835122 0.616364 1.07373e-21)
(0.654418 0.511235 -8.42891e-22)
(0.912529 0.483105 -5.7485e-23)
(0.543278 0.569959 2.46843e-22)
(0.617293 0.578905 -9.64049e-21)
(0.529018 0.451218 -5.84009e-23)
(0.470696 0.456858 1.38015e-21)
(0.155602 0.267168 -1.36524e-21)
(0.0350938 -0.0108982 0)
(0.0334503 -0.0104791 5.4627e-23)
(0.0420832 -0.0138471 0)
(0.0364454 -0.0115822 0)
(0.0963246 -0.0304316 -6.00209e-22)
(0.0949967 -0.0297409 -6.85679e-22)
(0.181774 -0.0583285 0)
(0.314039 -0.101482 1.83711e-21)
(0.173004 -0.0547384 4.5806e-22)
(0.0931859 -0.0292917 -1.66709e-21)
(0.0921636 -0.0287752 0)
(0.0331581 -0.0103825 5.19499e-25)
(0.0320158 -0.00993386 4.31698e-22)
(0.0307397 -0.0100229 1.42e-22)
(0.0182471 -0.00479206 -2.0325e-22)
(0.499104 -0.167432 0)
(0.656401 -0.226487 0)
(0.778627 -0.272834 0)
(0.863365 -0.307459 -1.24625e-20)
(0.910953 -0.329429 2.87731e-24)
(0.921165 -0.338252 1.16336e-20)
(0.894671 -0.333423 -2.38638e-20)
(0.833342 -0.315237 -3.02025e-24)
(0.741048 -0.284742 1.31728e-20)
(0.623992 -0.243789 3.4373e-24)
(0.490198 -0.19492 7.34749e-26)
(0.348144 -0.140974 9.46547e-26)
(0.205187 -0.0846194 -9.99751e-24)
(0.0664197 -0.0280264 0)
(1.00109 0.0169704 -3.55227e-20)
(1.03061 0.0691193 3.26844e-20)
(1.05057 0.173161 -1.98139e-20)
(1.25961 0.454414 -1.55022e-21)
(0.789758 0.138736 -5.32851e-20)
(1.07452 0.205142 1.42222e-19)
(0.449724 0.268027 -3.4871e-21)
(0.281641 0.249359 0)
(0.594234 0.189851 -2.50261e-20)
(0.263182 0.101682 0)
(0.34113 0.445248 1.1038e-21)
(0.41248 0.452214 -1.59784e-21)
(0.0311552 -0.00967053 0)
(0.0306922 -0.0094741 0)
(0.0899498 -0.0283993 -9.89036e-22)
(0.0885687 -0.0277427 -1.00935e-24)
(0.149711 -0.0465532 5.65046e-22)
(0.283392 -0.0913897 1.69509e-21)
(0.122876 -0.0399918 -2.04719e-21)
(0.0863535 -0.0273172 0)
(0.082847 -0.0259745 -5.89309e-22)
(0.0300918 -0.00933894 -3.7627e-24)
(0.0297537 -0.0091986 0)
(0.473775 -0.159147 0)
(0.631093 -0.215192 0)
(0.753571 -0.262392 1.33931e-20)
(0.841789 -0.298389 0)
(0.893171 -0.322179 2.69631e-26)
(0.906628 -0.332287 1.18298e-20)
(0.882472 -0.328398 0)
(0.822787 -0.310942 3.0294e-24)
(0.731824 -0.281077 1.29945e-20)
(0.61615 -0.240739 -1.3963e-20)
(0.483945 -0.192462 3.81671e-24)
(0.343633 -0.139146 4.32782e-24)
(0.202466 -0.0834908 2.56879e-25)
(0.0655046 -0.027648 0)
(1.00051 0.0134495 3.18309e-20)
(1.03255 0.0602088 -2.76498e-21)
(1.05419 0.139755 2.06128e-20)
(1.2958 0.395008 1.59623e-21)
(1.18151 0.150718 -8.49015e-20)
(0.221459 0.0073534 -1.31221e-20)
(0.47629 -0.0146615 3.71755e-20)
(0.275761 -0.0264718 -3.29289e-20)
(0.635962 -0.0091424 6.91303e-20)
(0.0292006 -0.00905824 1.14258e-21)
(0.0287042 -0.00886288 0)
(0.0754384 -0.0241065 -6.31324e-22)
(0.0535172 -0.0138428 1.15503e-21)
(0.111363 -0.0349324 -3.5917e-21)
(0.267833 -0.0864064 3.57796e-24)
(0.108695 -0.0339482 -1.2198e-21)
(0.0340995 -0.0108126 -2.83687e-22)
(0.028648 -0.00939367 -6.31221e-22)
(0.0279956 -0.00873266 6.61128e-22)
(0.0267862 -0.00838974 -3.26815e-22)
(0.453473 -0.150513 0)
(0.605208 -0.205254 3.77246e-24)
(0.72961 -0.252715 3.36337e-24)
(0.821166 -0.290304 0)
(0.875964 -0.315261 -5.93163e-24)
(0.892243 -0.326378 1.20445e-20)
(0.870242 -0.323369 0)
(0.812184 -0.306677 -2.44799e-20)
(0.722652 -0.277509 5.96475e-23)
(0.608472 -0.237747 0)
(0.477859 -0.19003 0)
(0.339235 -0.137348 0)
(0.199807 -0.0823924 9.8986e-24)
(0.0646302 -0.0272823 1.74008e-20)
(1.00016 0.00998532 -3.23272e-20)
(1.03274 0.0510404 -3.12561e-20)
(1.0569 0.111036 -3.63339e-24)
(1.28439 0.326454 1.70681e-22)
(1.38336 0.158403 0)
(0.657624 -0.0325319 0)
(0.0709604 -0.0212797 2.1456e-20)
(0.278545 -0.0120835 1.03868e-22)
(0.122698 -0.0115954 -9.2148e-23)
(0.301918 -0.0545567 -1.11665e-19)
(0.0244112 -0.00808736 -4.99725e-24)
(0.0147206 -0.00382441 -8.14841e-22)
(0.0263553 -0.00817967 1.16668e-25)
(0.025727 -0.00803518 9.25382e-22)
(0.105569 -0.0333049 1.30006e-21)
(0.304967 -0.101769 -6.66521e-24)
(0.104486 -0.0326233 -1.41441e-21)
(0.207425 -0.068305 -2.6555e-21)
(0.025552 -0.00793202 4.63054e-25)
(0.0255372 -0.00785641 1.90174e-21)
(0.428747 -0.141232 -2.12274e-21)
(0.300806 -0.0986398 0)
(0.580364 -0.195752 -3.85545e-24)
(0.707344 -0.244422 0)
(0.801754 -0.282767 -1.29886e-20)
(0.859251 -0.308528 -2.47337e-20)
(0.877988 -0.320528 5.8142e-24)
(0.857989 -0.318394 1.18495e-20)
(0.801598 -0.302548 1.20511e-20)
(0.713624 -0.274002 0)
(0.600948 -0.234766 0)
(0.4719 -0.187623 0)
(0.334929 -0.135589 0)
(0.197219 -0.0813169 -1.96465e-20)
(0.0637744 -0.0269287 8.24908e-24)
(1.00001 0.00667183 0)
(1.03162 0.0415713 2.77262e-20)
(1.06034 0.0867051 0)
(1.25387 0.261734 -1.90398e-22)
(1.45528 0.157853 0)
(1.08917 -0.0167335 1.56214e-19)
(0.344869 -0.0714239 -1.06125e-19)
(0.199675 -0.01133 1.07777e-19)
(0.0201286 -0.00683046 4.67959e-20)
(0.0634365 -0.0247794 9.91787e-20)
(0.025074 -0.00782556 -1.99659e-21)
(0.025025 -0.00775191 -1.0451e-21)
(0.128621 -0.0421857 7.22233e-23)
(0.0758866 -0.0247041 3.12884e-21)
(0.0247667 -0.00767865 4.15854e-24)
(0.0247676 -0.00762143 1.11398e-21)
(0.200561 -0.0650251 -2.11091e-23)
(0.128442 -0.0407901 1.92194e-21)
(0.289712 -0.0939634 3.49836e-21)
(0.403083 -0.131945 -2.23594e-21)
(0.278662 -0.089865 3.5202e-21)
(0.558265 -0.187997 0)
(0.687126 -0.236907 1.41244e-20)
(0.783256 -0.27556 1.31104e-20)
(0.842928 -0.301933 -6.01995e-24)
(0.863836 -0.314774 -5.84353e-24)
(0.845781 -0.313638 -1.16534e-20)
(0.791162 -0.298498 -1.15646e-23)
(0.704741 -0.270496 1.23673e-20)
(0.593549 -0.231802 0)
(0.466056 -0.185258 1.45456e-20)
(0.330712 -0.133859 0)
(0.1947 -0.0802795 0)
(0.0629335 -0.0265845 1.68206e-20)
(1.00001 0.00354722 -3.02493e-20)
(1.02978 0.0318648 -2.83646e-20)
(1.06381 0.0659948 -1.07542e-20)
(1.22112 0.205153 0)
(1.45333 0.148148 1.63497e-23)
(1.34323 -0.00084359 -1.35936e-19)
(0.763069 -0.0795102 -1.54083e-22)
(0.261526 -0.0599216 0)
(0.128696 -0.026711 9.16252e-20)
(0.118916 -0.0472155 -1.47065e-21)
(0.0472896 -0.000627664 -8.72291e-20)
(-0.00229871 -0.0102148 -1.43989e-21)
(0.0060915 0.00330069 1.74752e-21)
(0.0757959 -0.0236484 -1.76518e-21)
(0.0246934 -0.00790064 -1.00904e-21)
(0.12374 -0.0395312 4.17793e-24)
(0.192629 -0.0615131 -2.11645e-21)
(0.126256 -0.0404041 0)
(0.263816 -0.0837283 7.5766e-21)
(0.38306 -0.125244 -2.16898e-21)
(0.251191 -0.0811691 -2.93404e-23)
(0.182191 -0.0581916 1.15901e-23)
(0.539454 -0.181315 -1.99677e-24)
(0.668206 -0.229855 0)
(0.765377 -0.268537 1.34391e-20)
(0.826907 -0.295464 1.19852e-23)
(0.849837 -0.309378 1.16146e-20)
(0.833799 -0.309008 -1.14916e-20)
(0.780888 -0.294453 -1.1663e-20)
(0.695976 -0.267 5.99572e-24)
(0.586282 -0.228877 -1.3005e-20)
(0.460316 -0.182928 9.83745e-26)
(0.326583 -0.132177 1.60424e-20)
(0.19223 -0.0792726 4.50029e-24)
(0.0621404 -0.0262521 7.92552e-24)
(1.00008 0.000609129 3.07165e-20)
(1.02774 0.0220678 2.66104e-20)
(1.06627 0.04793 9.04099e-22)
(1.19387 0.156468 -3.62199e-21)
(1.41586 0.128144 -6.12486e-20)
(1.4542 0.0093071 2.87632e-23)
(1.11194 -0.0784197 7.12302e-23)
(0.573462 -0.0922929 1.85183e-22)
(0.0718432 -0.021493 1.26378e-22)
(0.230156 -0.0500751 0)
(0.0457379 -0.0135965 -1.75914e-20)
(0.0194613 -0.0147168 5.65985e-20)
(-0.00040277 0.00936831 5.48326e-20)
(0.00786546 -0.00034655 -2.41105e-20)
(0.07423 -0.0234045 0)
(0.0246422 -0.00761388 1.18738e-21)
(0.120946 -0.0382831 -4.14116e-24)
(0.0725232 -0.022927 9.48118e-22)
(0.118162 -0.0373425 -2.0788e-21)
(0.164031 -0.0510144 -3.99294e-21)
(0.242515 -0.0779099 -3.632e-21)
(0.368702 -0.120349 4.45843e-21)
(0.237512 -0.0760532 7.34175e-21)
(0.149947 -0.0477551 1.26219e-23)
(0.107649 -0.0341215 0)
(0.113706 -0.0360865 4.01659e-24)
(0.522217 -0.175229 1.84015e-23)
(0.649898 -0.222958 -1.46784e-20)
(0.747954 -0.261573 1.34215e-20)
(0.811199 -0.289552 -5.96267e-24)
(0.836246 -0.304191 1.14631e-20)
(0.82206 -0.30441 5.57568e-24)
(0.77075 -0.290423 -1.14664e-20)
(0.687335 -0.263536 0)
(0.579117 -0.225988 0)
(0.454675 -0.180648 -1.39354e-20)
(0.322535 -0.130544 -1.17639e-25)
(0.189846 -0.0782975 -1.82031e-20)
(0.0613857 -0.025932 -8.01238e-24)
(1.00016 -0.00216452 0)
(1.02583 0.0123369 -4.06335e-20)
(1.06735 0.0315571 1.05139e-20)
(1.17395 0.114837 3.84625e-21)
(1.36856 0.103466 1.02297e-20)
(1.47556 0.0114902 2.34817e-23)
(1.32928 -0.0721449 -8.18309e-23)
(0.913827 -0.109413 -1.28106e-22)
(0.474963 -0.0872505 0)
(0.0723791 -0.0178307 5.40169e-20)
(0.0145417 -0.000351918 -1.8127e-20)
(0.00673201 -0.00900779 -7.41601e-23)
(0.204834 -0.0431788 -2.03866e-19)
(0.0158398 -0.00242133 8.75216e-23)
(0.0115863 -0.00683232 -1.59626e-22)
(-0.0106454 -0.00434721 2.56883e-20)
(0.00197004 -0.000117655 0)
(-0.00728689 0.00233703 -1.30536e-20)
(0.000327331 0.000250436 -9.29423e-22)
(0.0240472 -0.00745296 -5.9637e-24)
(0.0708713 -0.0222226 3.44916e-24)
(0.0234226 -0.00730052 -1.90324e-21)
(0.0692962 -0.0217431 8.7883e-22)
(0.0946499 -0.0273996 1.84355e-23)
(0.0812204 -0.0263957 1.12811e-21)
(0.143834 -0.0454569 -1.5498e-21)
(0.232658 -0.0744481 -7.41302e-21)
(0.35609 -0.116192 -1.84339e-23)
(0.229265 -0.0733504 7.58225e-21)
(0.140759 -0.0443356 -1.55985e-21)
(0.0708902 -0.0224173 2.53681e-23)
(0.0744236 -0.023552 -1.11662e-21)
(0.0618056 -0.0194745 0)
(0.0662803 -0.0208918 8.88658e-22)
(0.505067 -0.169151 -8.22975e-24)
(0.631861 -0.215789 -1.46796e-20)
(0.730984 -0.255425 1.29103e-20)
(0.796217 -0.283954 0)
(0.823063 -0.299087 1.14288e-20)
(0.810512 -0.29985 1.11247e-20)
(0.760749 -0.286431 -2.69842e-24)
(0.678815 -0.260115 1.15879e-20)
(0.572054 -0.223151 1.23192e-20)
(0.449124 -0.178432 0)
(0.318596 -0.128962 1.53299e-20)
(0.187551 -0.0773474 0)
(0.0606164 -0.0256119 0)
(1.00023 -0.0047979 -4.57822e-25)
(1.02417 0.00279088 2.7386e-20)
(1.06724 0.016185 0)
(1.16006 0.0791302 6.04215e-21)
(1.32525 0.0781237 1.06125e-19)
(1.45241 0.00781616 -2.43221e-23)
(1.42954 -0.0651712 -9.89796e-20)
(1.18282 -0.113321 5.92624e-23)
(0.774446 -0.115305 1.44188e-22)
(0.413717 -0.0779146 0)
(0.0660374 -0.0153493 2.04064e-19)
(0.0172867 6.16737e-06 -8.42733e-20)
(0.0160705 -0.00800741 1.66819e-20)
(0.00250288 0.00193546 1.19193e-20)
(0.000918756 -0.00022919 2.11425e-20)
(-6.36379e-05 -1.81836e-06 1.42064e-20)
(-0.00124841 -0.00242621 -1.29589e-20)
(0.00314252 -2.73649e-05 1.46877e-22)
(0.184808 -0.0383444 0)
(0.000784473 0.00112573 1.62817e-20)
(-0.00943781 0.000865875 1.49716e-20)
(-0.00292433 0.00185684 0)
(0.0228892 -0.00710971 1.23004e-21)
(0.0224893 -0.00699508 1.20619e-21)
(0.042937 -0.0108797 5.31867e-22)
(0.0280116 -0.00930089 3.29147e-22)
(0.0691673 -0.0216387 -8.34933e-24)
(0.068373 -0.0213802 2.13775e-21)
(0.138314 -0.043569 0)
(0.225132 -0.0720863 -1.51458e-20)
(0.342253 -0.111705 3.64963e-23)
(0.221544 -0.0709199 1.52976e-20)
(0.136326 -0.042957 -4.67328e-21)
(0.0674013 -0.0210405 -2.16802e-21)
(0.0677342 -0.0211402 2.15333e-21)
(0.0227943 -0.00714787 -4.94697e-24)
(0.0245955 -0.00784546 7.59375e-22)
(0.0199151 -0.00654949 -7.73955e-23)
(0.0213807 -0.00674022 -1.18683e-21)
(0.487056 -0.162044 -2.48187e-23)
(0.614287 -0.209762 -1.41936e-20)
(0.715234 -0.249713 1.87764e-23)
(0.781902 -0.278517 -1.17875e-20)
(0.810179 -0.294065 0)
(0.799158 -0.295354 0)
(0.750905 -0.282493 -1.09247e-20)
(0.670404 -0.256749 -1.12942e-20)
(0.565091 -0.220392 0)
(0.443714 -0.176288 0)
(0.314771 -0.127412 0)
(0.185279 -0.076412 0)
(0.0598748 -0.0253001 -7.42819e-24)
(1.00027 -0.00730789 0)
(1.02277 -0.00650345 -1.4022e-20)
(1.06635 0.00140445 0)
(1.1502 0.0479707 -6.35699e-21)
(1.29074 0.053343 -6.23283e-21)
(1.41437 0.000634848 8.03243e-20)
(1.45295 -0.060439 5.80644e-21)
(1.34527 -0.10963 5.20438e-23)
(1.0526 -0.129645 5.46477e-23)
(0.676155 -0.109907 0)
(0.369643 -0.0697681 -1.53065e-22)
(0.0610196 -0.0138442 4.6896e-20)
(0.0170105 0.000407455 0)
(0.0146029 -0.00710474 0)
(0.00303254 0.00131765 6.90171e-23)
(0.00331116 -0.00112723 1.97513e-20)
(0.00437173 -0.000560618 -1.90042e-20)
(0.00352087 -0.00236458 0)
(0.000296258 0.000314209 0)
(-0.00116046 -0.000231537 -1.65185e-21)
(0.167981 -0.033946 0)
(-0.000238357 0.000361777 7.13173e-22)
(0.0118705 -0.00301911 -3.06617e-22)
(0.0221654 -0.00688354 -1.23843e-21)
(0.0219189 -0.00680062 1.24209e-21)
(0.0667518 -0.0208385 -2.15877e-21)
(0.0665039 -0.020761 0)
(0.134244 -0.0423109 6.24918e-21)
(0.216455 -0.0694508 0)
(0.323803 -0.104749 -3.73056e-23)
(0.210555 -0.0675289 3.85399e-21)
(0.13212 -0.0416608 -6.3227e-21)
(0.0657524 -0.0205298 -8.55064e-24)
(0.0659979 -0.020616 -2.16625e-21)
(0.0216238 -0.00670296 2.50168e-21)
(0.021739 -0.00673698 1.2511e-21)
(0.469308 -0.156363 1.66684e-23)
(0.598751 -0.204311 -1.4006e-23)
(0.700522 -0.244264 -1.28711e-20)
(0.768048 -0.273225 -2.82927e-24)
(0.797578 -0.289145 -1.108e-20)
(0.788015 -0.290926 0)
(0.741194 -0.278617 0)
(0.662107 -0.253478 0)
(0.558266 -0.217716 2.80266e-24)
(0.438425 -0.174181 6.15306e-24)
(0.311031 -0.125895 0)
(0.183076 -0.0754985 4.06065e-24)
(0.0591641 -0.0249985 1.47652e-23)
(1.00027 -0.00970223 0)
(1.02157 -0.01552 0)
(1.06505 -0.0130067 6.35862e-21)
(1.1429 0.0201044 0)
(1.26501 0.0293308 -6.91166e-20)
(1.37707 -0.00879856 -7.37469e-21)
(1.43761 -0.0586101 9.42156e-20)
(1.41619 -0.103561 0)
(1.25252 -0.132772 -4.83412e-23)
(0.944059 -0.131498 -5.91343e-23)
(0.603883 -0.101661 -1.26773e-22)
(0.334781 -0.0626039 1.58843e-22)
(0.0556272 -0.0117802 1.1341e-21)
(0.0155154 0.000217086 -5.85183e-22)
(0.0139397 -0.00659338 0)
(-0.000396538 0.0012882 -1.27119e-20)
(0.00340712 -0.000283791 -1.73516e-23)
(0.00212492 -0.00254654 0)
(-0.00124134 0.00117462 1.35566e-20)
(-0.000279452 -6.94534e-05 -1.1543e-20)
(0.000379679 4.22002e-05 -1.04851e-20)
(-1.04709e-05 -0.000590923 0)
(0.152917 -0.0295366 -1.74176e-19)
(0.0214564 -0.00664968 -2.60767e-24)
(0.0213663 -0.00662291 1.26269e-21)
(0.0651403 -0.0203438 -8.56601e-24)
(0.0648916 -0.0202594 1.72264e-23)
(0.129417 -0.0408519 6.19032e-23)
(0.201294 -0.0647 7.77472e-24)
(0.304779 -0.0989688 -2.3197e-21)
(0.189022 -0.059276 4.3042e-21)
(0.12551 -0.039714 -4.78744e-21)
(0.0640707 -0.0200082 2.2302e-21)
(0.0643758 -0.0201197 -8.63409e-24)
(0.0211269 -0.00654815 1.2845e-21)
(0.0212261 -0.00658119 6.21042e-25)
(0.455193 -0.151502 1.61141e-23)
(0.584792 -0.19929 1.42174e-20)
(0.686455 -0.239032 0)
(0.754569 -0.268074 1.14651e-20)
(0.785269 -0.284313 -2.5988e-24)
(0.777056 -0.286569 4.99188e-24)
(0.731604 -0.274856 0)
(0.653943 -0.250309 0)
(0.55159 -0.215095 -2.81006e-24)
(0.433254 -0.172112 -6.1726e-24)
(0.307392 -0.124406 0)
(0.180938 -0.0746037 -4.08349e-24)
(0.0584609 -0.0247051 -1.44274e-23)
(1.00022 -0.011976 0)
(1.02051 -0.0242463 0)
(1.06353 -0.0271778 -6.5648e-21)
(1.13739 -0.00550289 -6.85302e-26)
(1.2464 0.00605248 2.24412e-20)
(1.34656 -0.0197399 -7.91414e-20)
(1.40941 -0.0593243 0)
(1.42906 -0.0980668 -2.19817e-23)
(1.36315 -0.129437 0)
(1.16184 -0.141343 3.92068e-24)
(0.855712 -0.126831 0)
(0.547559 -0.0930794 1.32826e-22)
(0.305315 -0.0559249 1.50105e-19)
(0.0499892 -0.00945836 1.7171e-19)
(0.0127849 0.000951921 1.2654e-19)
(0.012232 -0.00515127 -6.4374e-20)
(-0.00101214 0.00156639 -5.93878e-20)
(-0.00178108 -0.00027662 1.29549e-20)
(-0.00169789 0.00121987 1.18252e-20)
(-0.000316602 0.000511254 9.955e-23)
(-0.00133556 -0.000120224 -8.29365e-23)
(-0.00153808 0.00113185 -9.69223e-23)
(0.139639 -0.0255312 0)
(0.020965 -0.00649755 -2.42989e-24)
(0.0208684 -0.0064675 -7.88795e-26)
(0.063412 -0.0198195 0)
(0.0629614 -0.0196663 0)
(0.118304 -0.0376698 7.79826e-22)
(0.17622 -0.0561646 3.82662e-21)
(0.293747 -0.0950179 4.71908e-21)
(0.170992 -0.0545982 -3.8591e-21)
(0.10015 -0.0306955 -4.5878e-21)
(0.0610669 -0.0191287 0)
(0.0621767 -0.019478 2.19815e-21)
(0.0206111 -0.00638733 2.60944e-24)
(0.0207281 -0.00642833 0)
(0.443376 -0.147392 -2.4426e-23)
(0.571694 -0.194563 1.43631e-20)
(0.672821 -0.233967 0)
(0.741428 -0.263016 0)
(0.773196 -0.279547 2.60743e-24)
(0.76625 -0.282361 -5.0065e-24)
(0.722182 -0.271239 4.81796e-24)
(0.645953 -0.24721 0)
(0.54505 -0.212509 0)
(0.428202 -0.170073 5.80841e-24)
(0.303817 -0.122935 0)
(0.178838 -0.0737346 0)
(0.0577732 -0.0244167 7.16179e-24)
(1.00012 -0.0141153 -2.31965e-24)
(1.01951 -0.0326729 -1.60536e-24)
(1.06182 -0.04119 8.47002e-21)
(1.13332 -0.0297086 0)
(1.23333 -0.0166872 6.87749e-24)
(1.32372 -0.0317269 0)
(1.38185 -0.0620103 4.24081e-20)
(1.41454 -0.0942482 2.16761e-23)
(1.40483 -0.12371 2.27801e-23)
(1.30201 -0.142302 -9.25611e-20)
(1.07877 -0.141605 9.65576e-23)
(0.78333 -0.119536 -1.10216e-19)
(0.501004 -0.0846939 -2.52625e-19)
(0.279679 -0.0497693 0)
(0.0453613 -0.00723513 -1.43645e-22)
(0.00948786 0.00229823 1.16713e-22)
(0.0095427 -0.00371571 0)
(-0.00320745 0.00220692 -4.74582e-20)
(-0.00290128 0.000640216 0)
(-0.00374328 0.0021717 1.52571e-20)
(-0.00291842 0.000600336 2.33419e-22)
(-0.00238521 0.000158929 0)
(-0.00235691 0.00176406 -1.30415e-20)
(-0.000812151 9.03676e-05 -1.14523e-21)
(-0.000554507 0.000333367 -8.42078e-21)
(0.12696 -0.0222262 -3.8156e-23)
(0.0204397 -0.00633706 1.31011e-21)
(0.0202904 -0.00628767 -1.31744e-21)