/*--------------------------------*- C++ -*----------------------------------*\
| =========                 |                                                 |
| \\      /  F ield         | OpenFOAM: The Open Source CFD Toolbox           |
|  \\    /   O peration     | Version:  v1912                                 |
|   \\  /    A nd           | Website:  www.openfoam.com                      |
|    \\/     M anipulation  |                                                 |
\*---------------------------------------------------------------------------*/
FoamFile
{
    version     2.0;
    format      ascii;
    class       surfaceScalarField;
    location    "130";
    object      phi;
}
// * * * * * * * * * * * * * * * * * * * * * * * * * * * * * * * * * * * * * //

dimensions      [0 3 -1 0 0 0 0];
oriented        oriented;


internalField   nonuniform List<scalar> 
7354
(
-4.055e-06
0.00140105
-1.45333e-05
0.00426203
-3.10751e-06
0.0014043
-3.60343e-05
0.00712132
-1.45293e-05
0.00427359
-3.96409e-06
0.00140852
-6.4076e-05
0.00986742
-3.52126e-05
0.00714216
-1.48161e-05
0.00428467
-2.74908e-06
0.00141153
-9.76579e-05
0.0123294
-6.23202e-05
0.00989465
-3.30595e-05
0.0071606
-1.17653e-05
0.00429395
-2.7081e-06
0.0014145
-0.000146003
0.0143183
-9.64967e-05
0.0123637
-5.70015e-05
0.00991877
-3.08841e-05
0.00717996
-1.15361e-05
0.00430297
-2.74202e-06
0.00141736
-0.000187013
0.0156243
-0.000138164
0.0143601
-9.25743e-05
0.0123994
-5.5981e-05
0.00994404
-2.60671e-05
0.00719466
-1.13626e-05
0.00431171
-1.79644e-06
0.00141922
-0.000238628
0.0161081
-0.00018674
0.015673
-0.000132984
0.0144006
-8.60637e-05
0.0124296
-4.57186e-05
0.00996381
-2.27448e-05
0.00720614
-9.44068e-06
0.00431936
-1.90643e-06
0.00142105
-0.000279021
0.0156744
-0.000230763
0.0161522
-0.000176784
0.0157169
-0.000119821
0.0144345
-7.06535e-05
0.0124547
-4.12621e-05
0.00998237
-1.97973e-05
0.0072165
-7.57299e-06
0.00432495
-1.94685e-06
0.00142291
-0.000317464
0.0143735
-0.000279847
0.0157236
-0.000217857
0.0161934
-0.000149102
0.0157463
-9.81144e-05
0.014462
-6.31101e-05
0.0124766
-3.70063e-05
0.00999956
-1.85356e-05
0.00722742
-6.94959e-06
0.00432985
-2.10431e-06
0.00142494
-0.000344454
0.0123114
-0.00032289
0.0144165
-0.000258123
0.0157639
-0.000184166
0.0162285
-0.00012769
0.0157759
-8.08704e-05
0.0144797
-5.1327e-05
0.0124909
-2.76785e-05
0.0100086
-1.58649e-05
0.00723625
-7.71649e-06
0.0043354
-2.11652e-06
0.0014271
-0.000349466
0.00968294
-0.000355197
0.0123439
-0.000277165
0.0144357
-0.00020416
0.015784
-0.000145345
0.0162462
-0.000101437
0.0157965
-6.73631e-05
0.0144957
-4.18284e-05
0.0125049
-2.75921e-05
0.0100203
-1.27777e-05
0.00724129
-5.14743e-06
0.00433847
-1.62888e-06
0.00142882
-0.000116462
0.00668585
-0.000198149
-0.000377724
0.00970535
-0.000288213
0.0123549
-0.000210225
0.0144417
-0.000156368
0.015795
-0.000109298
0.016254
-7.59475e-05
0.015805
-4.94282e-05
0.0145033
-3.51843e-05
0.0125125
-1.86729e-05
0.0100262
-1.30747e-05
0.00724926
-6.91431e-06
0.00434386
-9.14269e-07
0.00142983
0.00220334
-8.61205e-05
-0.000204401
0.00669337
-0.000180814
0.00216082
-0.000155595
-0.000262121
0.0096795
-0.000190145
0.012335
-0.000148274
0.0144338
-0.000106473
0.0157922
-8.35739e-05
0.0162616
-6.20886e-05
0.0158177
-4.38392e-05
0.0145119
-3.06671e-05
0.0125245
-2.36912e-05
0.0100368
-1.27203e-05
0.00725515
-5.63485e-06
0.00434862
-1.73429e-06
0.00143153
0.00141429
-2.56769e-05
0.00214352
-0.000187122
-0.000132175
0.00662411
-6.06377e-05
0.00211948
-0.000156768
0.00135508
-6.38657e-05
-3.24798e-05
-0.000141165
0.00963037
-0.000117308
0.0123039
-9.18807e-05
0.014419
-7.5223e-05
0.0157837
-5.87743e-05
0.0162583
-4.33197e-05
0.0158171
-3.84237e-05
0.0145197
-2.58911e-05
0.0125267
-1.83626e-05
0.0100425
-1.37091e-05
0.00726325
-6.51838e-06
0.00435337
-2.6529e-06
0.00143411
0.000442796
-9.9842e-06
0.00133808
-8.54631e-05
-8.46791e-05
0.00207079
-8.34259e-05
-4.57811e-05
0.00653937
-1.06433e-05
0.0020471
-3.69334e-05
0.00129297
-3.99339e-05
-7.17142e-05
-0.000428719
0.000401072
-3.62074e-05
-1.83844e-05
-6.6359e-05
0.00957961
-6.21683e-05
0.0122743
-5.81798e-05
0.0144021
-4.6729e-05
0.0157717
-3.99443e-05
0.0162549
-3.5572e-05
0.0158143
-3.1231e-05
0.014525
-2.57081e-05
0.0125341
-2.31431e-05
0.0100519
-1.49903e-05
0.00727169
-8.78923e-06
0.00435942
-1.70067e-06
0.00143574
0.00025965
-1.5992e-06
0.000375095
-5.9482e-05
0.000353318
-6.29112e-05
0.00123923
-2.24463e-05
-7.2075e-06
0.00201849
-1.71969e-05
-1.59209e-05
0.00648903
-8.38877e-08
0.00201389
-6.05238e-06
0.00120838
-8.11466e-07
-5.25178e-06
-0.000329832
0.00031042
-2.05281e-05
-4.8235e-05
-0.000245357
0.000219212
-1.00431e-05
-4.07777e-06
-3.30062e-05
0.00955026
-3.54384e-05
0.0122514
-3.31797e-05
0.0143884
-3.41468e-05
0.0157659
-2.89304e-05
0.0162483
-3.18349e-05
0.0158149
-2.61235e-05
0.0145254
-2.97176e-05
0.0125407
-2.27589e-05
0.0100597
-1.72484e-05
0.00728008
-8.70641e-06
0.00436637
-3.43463e-06
0.0014392
7.68488e-05
0.000181005
-2.12719e-05
0.00015955
-4.14606e-05
0.000294846
-6.86041e-06
0.000289817
-2.16165e-06
0.00119256
-1.74319e-06
3.44126e-07
0.00200116
-3.13427e-06
-6.06842e-06
0.00645761
4.45719e-06
0.00200185
-7.84747e-07
0.00118641
1.08902e-06
-9.82639e-07
-0.00028507
0.000284676
-4.05535e-07
-4.95362e-07
-0.000111314
9.07856e-05
-7.27711e-05
6.27328e-05
-1.2239e-05
0.00952722
-2.01343e-05
0.0122385
-2.0851e-05
0.0143753
-1.88038e-05
0.0157558
-2.661e-05
0.016243
-2.46217e-05
0.0158134
-3.72249e-05
0.0145329
-3.51276e-05
0.012553
-2.92061e-05
0.0100716
-2.05543e-05
0.00729191
-1.17477e-05
0.00437471
-2.40987e-06
0.00144168
4.14606e-05
8.39284e-05
8.17695e-05
0.000282956
-2.38672e-08
0.000283423
-1.31403e-07
0.00118324
-4.25625e-07
4.92398e-07
0.00199608
-3.31611e-07
-3.42373e-06
0.00644468
4.08932e-06
0.00199936
1.16263e-06
0.00118208
2.6364e-07
1.13229e-07
-0.000282268
0.000283135
2.15442e-07
1.65833e-07
-8.12742e-05
8.08718e-05
-3.79849e-06
0.00951071
-3.40988e-06
0.0122209
-8.8705e-06
0.0143652
-1.6843e-05
0.015746
-2.32248e-05
0.0162416
-3.63042e-05
0.0158124
-3.48739e-05
0.0145326
-3.85559e-05
0.0125623
-3.31652e-05
0.0100842
-2.23659e-05
0.00730255
-1.21153e-05
0.0043845
-3.04735e-06
0.00144484
8.08466e-05
8.07132e-05
0.000282935
-2.15714e-07
0.000283238
2.02663e-07
0.00118131
1.62232e-10
4.10463e-07
0.00199567
2.88786e-07
-5.12363e-08
0.00643869
2.21876e-06
0.00199888
8.58109e-07
0.00118226
-1.60699e-07
3.67246e-07
-0.000283202
0.0002834
7.38942e-08
1.57958e-07
-8.08791e-05
8.10938e-05
2.25004e-06
0.00950523
-3.15783e-06
0.0122154
-7.42979e-06
0.0143559
-1.19548e-05
0.0157347
-2.60964e-05
0.0162313
-4.08665e-05
0.0158184
-5.18849e-05
0.0145459
-4.58509e-05
0.012575
-3.90507e-05
0.0101009
-2.78626e-05
0.00731838
-1.24804e-05
0.00439401
-3.82642e-06
0.0014487
8.08808e-05
8.10858e-05
0.000283369
2.7656e-08
0.000283683
8.42573e-08
0.00118192
3.02562e-07
3.35943e-07
0.00199857
2.07818e-07
1.44563e-06
0.0064372
2.287e-06
0.00199914
1.62921e-06
0.0011827
1.40631e-07
-6.93389e-08
-0.000284073
0.000283859
3.99561e-08
-3.13174e-08
-8.12438e-05
8.132e-05
1.85015e-06
0.00950005
3.36581e-06
0.0122044
-3.2387e-06
0.014347
-2.31108e-05
0.0157317
-3.7667e-05
0.0162281
-5.00244e-05
0.0158165
-5.99594e-05
0.01456
-5.99977e-05
0.012596
-4.91676e-05
0.0101222
-2.92918e-05
0.00733524
-1.24664e-05
0.0044027
-2.73078e-06
0.00145147
8.13457e-05
8.14272e-05
0.000284201
-3.53452e-08
0.000284411
1.32236e-07
0.00118205
4.28142e-07
3.97524e-07
0.00200005
5.71363e-07
1.27317e-06
0.00643562
2.14617e-06
0.00200064
1.68782e-06
0.00118365
2.62766e-07
-2.46066e-07
-0.000284165
0.000284344
-3.87369e-08
1.79649e-07
-8.13959e-05
8.14332e-05
7.66502e-06
0.00949589
3.44612e-06
0.0121978
-7.44595e-06
0.0143314
-2.27474e-05
0.0157168
-4.87376e-05
0.0162268
-6.72837e-05
0.0158238
-7.38355e-05
0.0145739
-7.02379e-05
0.0126171
-5.21109e-05
0.0101451
-3.16926e-05
0.00735451
-1.5533e-05
0.00441552
-3.51368e-06
0.00145496
8.13992e-05
8.15325e-05
0.000284735
2.87572e-08
0.000285258
-1.40506e-07
0.00118421
-2.4266e-07
2.69386e-07
0.00200064
1.2388e-06
2.76902e-06
0.00643777
2.71233e-06
0.0020023
4.75227e-07
0.00118529
1.9122e-07
4.14895e-07
-0.000284842
0.000285045
4.52065e-08
1.60094e-07
-8.17121e-05
8.16732e-05
4.12367e-06
0.00949502
-3.37364e-07
0.0121905
-1.72338e-05
0.0143258
-4.12188e-05
0.0157092
-6.91391e-05
0.0162287
-9.17455e-05
0.0158418
-9.78005e-05
0.0146015
-8.15109e-05
0.0126465
-5.69014e-05
0.0101703
-3.20849e-05
0.00737107
-1.34263e-05
0.00442542
-3.87147e-06
0.00145879
8.16991e-05
8.15553e-05
0.000284866
-5.91694e-08
0.000285037
1.06875e-07
0.00118627
-8.57502e-08
3.20407e-07
0.00200351
1.59438e-06
2.71015e-06
0.00643864
5.09162e-07
0.00200486
1.33298e-06
0.00118622
2.62015e-07
2.58758e-07
-0.000285278
0.000285723
-2.48851e-07
1.78681e-07
-8.17154e-05
8.17576e-05
3.87108e-06
0.00949094
-3.74499e-06
0.0121772
-2.10659e-05
0.0143058
-5.74666e-05
0.0156976
-9.04085e-05
0.0162274
-0.000111832
0.0158558
-0.000108263
0.0146282
-8.84252e-05
0.012678
-6.17515e-05
0.0102
-3.47817e-05
0.00739241
-1.47967e-05
0.00443628
-3.36542e-06
0.00146205
8.17002e-05
8.18086e-05
0.00028562
1.36917e-08
0.00028578
1.50785e-07
0.00118773
-2.16539e-07
3.22526e-07
0.00200707
4.6195e-07
2.61504e-06
0.00643772
2.1354e-06
0.00200603
1.5272e-06
0.00118902
-3.10493e-07
3.50675e-07
-0.000285924
0.000286144
3.25857e-08
1.0767e-07
-8.19873e-05
8.17399e-05
1.30722e-06
0.00948572
-1.15844e-05
0.0121676
-4.4017e-05
0.0142923
-8.69101e-05
0.0156941
-0.000128127
0.0162437
-0.000138884
0.0158864
-0.000130632
0.0146704
-9.75381e-05
0.0127138
-6.12733e-05
0.0102264
-3.38855e-05
0.00741144
-1.26777e-05
0.00444549
-2.4673e-06
0.00146439
8.17517e-05
8.19001e-05
0.000285914
1.91311e-08
0.00028613
1.14529e-07
0.0011887
4.02753e-07
3.4731e-07
0.00200754
1.11791e-06
2.51439e-06
0.0064359
5.81523e-07
0.0020091
5.39883e-07
0.00119017
-1.88815e-07
2.32008e-07
-0.000286366
0.000286329
-2.70597e-07
1.18453e-07
-8.20078e-05
8.20385e-05
-1.06685e-06
0.00947534
-2.24363e-05
0.0121462
-6.87219e-05
0.0142742
-0.000125728
0.0156917
-0.00016293
0.0162677
-0.000171063
0.0159269
-0.000137243
0.0147101
-0.000100377
0.0127529
-6.29449e-05
0.0102554
-3.03645e-05
0.00742904
-1.22698e-05
0.00445517
-2.35196e-06
0.0014666
8.20595e-05
8.21755e-05
0.000286687
3.95564e-08
0.000286841
1.80839e-07
0.00119071
4.18366e-07
1.62163e-07
0.00201017
1.39825e-06
2.54925e-06
0.00643162
6.50463e-07
0.00201022
5.14777e-07
0.00119122
1.53022e-07
-1.48235e-07
-0.000286992
0.000286754
3.44736e-08
7.19319e-08
-8.22939e-05
8.20243e-05
-7.43692e-06
0.0094602
-4.42218e-05
0.0121215
-0.000108834
0.0142572
-0.000170214
0.015699
-0.000205293
0.0163019
-0.000183526
0.0159731
-0.000144011
0.0147537
-9.78518e-05
0.0127877
-5.35359e-05
0.0102785
-2.59237e-05
0.00744258
-1.00605e-05
0.00446274
-1.99701e-06
0.00146849
8.20614e-05
8.22392e-05
0.000287097
7.51641e-08
0.000287201
6.08292e-08
0.00119188
4.07835e-07
2.99277e-07
0.00201158
1.21851e-06
2.51236e-06
0.00642244
-7.87388e-07
0.0020117
5.0461e-07
0.0011924
2.67202e-07
-2.84612e-07
-0.000286953
0.000287349
-2.47649e-07
9.97466e-08
-8.23111e-05
8.23419e-05
-1.69262e-05
0.00943303
-7.61368e-05
0.0120889
-0.000161411
0.0142484
-0.000228643
0.0157223
-0.000230347
0.0163487
-0.000197125
0.0160262
-0.000143365
0.0147991
-8.77695e-05
0.0128219
-4.87389e-05
0.0103012
-2.24498e-05
0.00745486
-7.05405e-06
0.0044677
-8.5682e-07
0.00146929
8.24176e-05
8.24786e-05
0.000287677
7.06246e-08
0.000287846
1.16346e-07
0.00119352
4.16526e-07
-3.04636e-07
0.0020127
1.49215e-06
2.57348e-06
0.00640547
-2.54355e-06
0.0020117
2.00239e-07
0.00119347
1.42617e-07
4.03945e-07
-0.000287456
0.000287733
-2.45149e-08
9.65867e-08
-8.25784e-05
8.23294e-05
-3.81374e-05
0.00939489
-0.000130753
0.0120581
-0.000235088
0.0142548
-0.000275581
0.0157675
-0.000248628
0.0164001
-0.000188102
0.0160708
-0.000127233
0.0148385
-7.47565e-05
0.0128478
-4.06408e-05
0.0103193
-1.88082e-05
0.00746653
-4.60322e-06
0.00447139
-6.30243e-07
0.00146989
8.2397e-05
8.25101e-05
0.000288071
8.07762e-08
0.000287646
1.2582e-07
0.00119472
3.74415e-07
-1.52705e-07
0.0020138
5.0495e-07
2.57141e-06
0.00637331
-8.56682e-06
0.00201096
2.78353e-07
0.00119489
-1.64533e-07
1.91979e-07
-0.000288192
0.000288264
7.30126e-08
-1.3934e-07
-8.26066e-05
8.25785e-05
-7.74095e-05
0.00934163
-0.000206265
0.0120294
-0.000300021
0.0142792
-0.000296094
0.0158149
-0.000234056
0.016446
-0.000168979
0.0161125
-0.000108071
0.0148717
-6.47415e-05
0.0128718
-3.42321e-05
0.0103347
-1.14833e-05
0.00747336
-3.70292e-06
0.00447444
4.72476e-07
0.00146941
8.26604e-05
8.27873e-05
0.000288616
1.8617e-08
0.000288409
4.58049e-08
0.00119489
3.74499e-07
1.46406e-07
0.00201286
6.4695e-07
-3.95211e-07
0.00631555
-1.93112e-05
0.00200593
-1.65809e-06
0.00119509
-3.19238e-07
3.94013e-07
-0.000288467
0.000288286
9.17294e-09
1.28331e-07
-8.2648e-05
8.27218e-05
-0.00014829
0.00928348
-0.00031573
0.0120449
-0.000342616
0.0143256
-0.000284005
0.0158647
-0.000208493
0.0164854
-0.000140989
0.0161453
-8.77996e-05
0.0148947
-4.92298e-05
0.0128867
-2.14673e-05
0.0103446
-7.43217e-06
0.00747706
4.79974e-07
0.00447441
9.16918e-07
0.00146849
8.27387e-05
8.27824e-05
0.000288645
2.03457e-08
0.000288688
1.09022e-07
0.00119546
3.80635e-07
-1.20837e-07
0.002007
-1.45677e-06
-1.04473e-05
0.00622509
-4.74301e-05
0.00199186
-4.19701e-06
0.00119371
-1.18889e-07
2.02511e-07
-0.000289214
0.000288835
6.28187e-08
-1.28576e-07
-8.29107e-05
8.29182e-05
-0.000282207
0.00925
-0.000372984
0.0120753
-0.000318909
0.0143605
-0.000236793
0.015893
-0.000167979
0.0165124
-0.000106958
0.0161644
-6.44327e-05
0.0149099
-3.52104e-05
0.0129004
-1.28967e-05
0.01035
-2.45515e-06
0.00747997
2.20465e-06
0.00447312
1.31801e-06
0.00146719
8.29401e-05
8.30504e-05
0.000289188
2.52219e-08
0.000289004
5.43946e-08
0.00119215
3.69729e-07
-2.73366e-07
0.00198871
-7.34106e-06
-5.50827e-05
0.00612306
-0.000125179
0.00195787
-1.66161e-05
0.00118782
-2.54735e-07
3.74555e-07
-0.00028907
0.000289139
-1.98211e-07
1.3053e-07
-8.29219e-05
8.29859e-05
-0.000392624
0.00926943
-0.000339618
0.0120958
-0.000252339
0.0143759
-0.000181691
0.0159066
-0.000122027
0.0165274
-7.94197e-05
0.0161794
-4.28349e-05
0.0149175
-1.8302e-05
0.0129058
-6.16651e-06
0.0103537
1.82831e-06
0.00748034
2.84034e-06
0.00447161
2.70882e-06
0.00146452
8.30093e-05
8.30614e-05
0.000289487
2.19664e-08
0.000289105
1.09512e-07
0.00118062
4.33231e-07
-5.98766e-07
0.00193328
-3.04916e-05
-0.000175261
0.00612079
-0.000215174
0.00187339
-6.53418e-05
0.00116541
-1.60766e-06
1.77474e-07
-0.000289404
0.000289071
7.41671e-08
7.50975e-08
-8.3192e-05
8.29909e-05
-0.000338986
0.00926884
-0.000239715
0.0120833
-0.000173634
0.0143679
-0.000126927
0.0159115
-8.69083e-05
0.0165348
-5.50093e-05
0.0161915
-2.97768e-05
0.0149289
-1.15607e-05
0.0129112
2.68402e-06
0.0103529
5.54225e-06
0.00747764
6.64901e-06
0.0044677
3.34241e-06
0.00146122
8.30132e-05
8.31227e-05
0.000289434
6.24138e-08
0.00028894
-1.16315e-07
0.00113907
-3.91147e-07
-3.77032e-06
0.00183576
-0.000137686
-0.000184837
0.00606691
-0.000100376
0.00180355
-0.000182991
0.00108694
-1.12626e-05
-1.97623e-06
-0.000288926
0.000287556
-2.52391e-07
1.84412e-07
-8.31978e-05
8.32707e-05
-0.000184645
0.00921356
-0.000146149
0.0120556
-0.0001145
0.0143553
-8.16825e-05
0.0159062
-5.55078e-05
0.0165353
-3.07419e-05
0.0161924
-1.38341e-05
0.0149312
-8.72458e-07
0.0129147
7.01505e-06
0.0103514
1.22953e-05
0.00747201
9.78917e-06
0.0044613
3.83224e-06
0.00145742
8.33304e-05
8.32111e-05
0.000287369
-2.0755e-07
0.000283822
-2.25193e-07
0.00100359
-1.50023e-05
-3.93707e-05
0.00175842
-0.000139729
-6.33434e-05
0.00596354
-1.80019e-05
0.00171739
-5.94066e-05
0.000955303
-6.87341e-05
-6.59999e-05
-0.000282446
0.000273047
-1.87322e-06
-6.02664e-07
-8.33955e-05
8.31388e-05
-8.48733e-05
0.00915233
-7.94117e-05
0.0120206
-6.65388e-05
0.0143402
-4.96152e-05
0.0159003
-3.16209e-05
0.0165361
-1.41606e-05
0.0161927
-3.27409e-07
0.0149306
1.16409e-05
0.0129101
1.53035e-05
0.0103484
1.41221e-05
0.00746771
9.45381e-06
0.0044557
4.92827e-06
0.00145249
8.29307e-05
8.27047e-05
0.000262238
-4.20539e-06
0.000233429
-1.05769e-05
0.000886691
-5.07173e-05
-2.04157e-05
0.00167755
-2.35525e-05
-1.81817e-05
0.00589622
5.21157e-07
0.00166674
-7.23593e-06
0.000835601
-1.39984e-06
-6.9542e-06
-0.000190754
0.000164104
-4.21006e-05
-2.3334e-05
-8.2102e-05
8.02253e-05
-3.90547e-05
0.00911178
-4.05564e-05
0.0119944
-3.53577e-05
0.0143259
-2.63694e-05
0.015895
-1.3827e-05
0.0165358
-1.74972e-06
0.0161941
1.33519e-05
0.0149289
1.57564e-05
0.0129096
2.04787e-05
0.010342
1.75071e-05
0.00745968
1.38252e-05
0.00444682
5.22329e-06
0.00144726
7.60164e-05
6.54364e-05
0.000113385
9.29668e-05
0.00081271
-7.26431e-07
1.74192e-08
0.00165207
-3.53206e-06
-6.77849e-06
0.00586016
3.72341e-06
0.00165271
-1.83697e-07
0.000805412
2.90436e-07
-2.52858e-07
-8.60126e-05
8.46063e-05
-4.21024e-05
-1.61803e-05
0.00908747
-1.90617e-05
0.0119782
-1.54218e-05
0.014315
-4.63661e-06
0.0158858
2.54223e-06
0.0165315
1.4007e-05
0.0161935
1.64644e-05
0.0149281
2.55687e-05
0.0129046
2.51075e-05
0.0103345
2.3592e-05
0.00744993
1.61517e-05
0.00443588
6.11207e-06
0.00144113
8.38748e-05
8.38876e-05
0.000801759
-1.47578e-08
1.13902e-07
0.00164668
-7.93945e-07
-3.83079e-06
0.00584341
4.3123e-06
0.00164902
1.33887e-06
0.000801455
1.16163e-07
-2.49203e-08
-8.36348e-05
8.39175e-05
-2.54871e-06
0.00907078
-5.56241e-06
0.0119682
-4.96763e-07
0.0143107
6.19005e-06
0.0158821
1.62815e-05
0.0165292
2.13311e-05
0.0161886
3.27455e-05
0.014921
3.33039e-05
0.0128964
3.3235e-05
0.0103248
2.86424e-05
0.00743744
1.8168e-05
0.00442382
7.14166e-06
0.00143397
8.39021e-05
8.40145e-05
0.000800317
1.36757e-07
1.57957e-07
0.00164485
3.28839e-07
-1.52924e-06
0.00583849
3.84538e-06
0.00164886
2.51604e-07
0.000801526
1.95891e-07
-8.55586e-08
-8.39896e-05
8.40989e-05
1.80478e-06
0.00906349
5.09119e-06
0.0119627
8.54096e-06
0.0143084
1.45577e-05
0.0158838
2.61505e-05
0.0165244
3.23155e-05
0.016189
3.32659e-05
0.014921
3.7458e-05
0.0128922
3.62524e-05
0.0103172
3.25452e-05
0.00742306
2.18072e-05
0.00440914
8.26263e-06
0.00142569
8.42309e-05
8.43844e-05
0.000801652
1.20401e-07
6.62713e-08
0.00164669
5.9277e-07
-4.02763e-07
0.00583751
3.09736e-06
0.00164944
1.05788e-06
0.00080197
2.93628e-08
-1.18912e-07
-8.42989e-05
8.44875e-05
4.68497e-06
0.00906372
1.16712e-05
0.0119595
1.87377e-05
0.0143042
2.59098e-05
0.0158841
2.93741e-05
0.0165273
4.25562e-05
0.0161798
4.82177e-05
0.0149103
5.0436e-05
0.012878
4.48619e-05
0.0103049
3.79678e-05
0.00740689
2.46398e-05
0.00439276
9.39285e-06
0.00141628
8.46079e-05
8.46733e-05
0.000802375
9.07611e-08
5.0285e-08
0.00164899
2.98192e-08
6.3346e-07
0.00583841
3.10774e-06
0.00165095
1.07661e-06
0.000803462
4.4731e-08
-9.39567e-08
-8.45544e-05
8.4578e-05
9.20092e-06
0.00906627
1.67515e-05
0.0119615
2.12454e-05
0.0143089
3.49949e-05
0.0158785
4.47297e-05
0.0165252
4.95241e-05
0.0161785
5.2238e-05
0.0149085
5.65257e-05
0.0128663
5.36846e-05
0.0102892
4.4101e-05
0.00738743
2.89254e-05
0.00437322
1.04647e-05
0.00140581
8.46643e-05
8.47103e-05
0.000803317
9.42391e-08
6.04465e-08
0.00165065
8.81109e-07
6.96954e-07
0.00584363
3.1965e-06
0.00165296
7.67002e-07
0.000804313
-6.55166e-08
1.19476e-07
-8.46163e-05
8.46536e-05
1.0383e-05
0.00907248
1.79974e-05
0.0119647
3.0748e-05
0.0143131
3.82263e-05
0.015885
4.70635e-05
0.0165276
5.76118e-05
0.0161731
6.53243e-05
0.0148997
6.4628e-05
0.0128554
6.22974e-05
0.010271
4.87665e-05
0.00736758
3.25526e-05
0.00435113
1.2066e-05
0.00139374
8.47473e-05
8.48064e-05
0.000804982
9.70561e-08
6.66291e-08
0.00165273
9.04791e-07
1.90017e-06
0.00584873
3.34552e-06
0.00165508
7.96446e-07
0.000805588
4.93359e-08
9.05799e-08
-8.49259e-05
8.48538e-05
1.23162e-05
0.00907825
2.23916e-05
0.0119731
3.18246e-05
0.0143196
4.49944e-05
0.0158871
5.87324e-05
0.0165265
6.6895e-05
0.0161716
7.57682e-05
0.0148886
7.53388e-05
0.0128424
7.10568e-05
0.0102487
5.85464e-05
0.00734159
3.56766e-05
0.00432751
1.33053e-05
0.00138043
8.49462e-05
8.50083e-05
0.000806525
-9.54839e-08
4.31189e-08
0.001656
9.32913e-07
8.85741e-07
0.00585676
3.32663e-06
0.00165837
9.46802e-07
0.000807155
5.24428e-08
8.85237e-08
-8.50989e-05
8.51404e-05
1.33687e-05
0.00908713
2.40979e-05
0.0119808
3.80683e-05
0.0143265
5.01508e-05
0.0158957
6.59675e-05
0.0165275
7.75283e-05
0.0161698
8.3866e-05
0.0148801
9.08821e-05
0.0128225
8.19751e-05
0.0102253
6.6149e-05
0.00731112
4.18402e-05
0.00429898
1.40837e-05
0.00136635
8.50443e-05
8.50861e-05
0.000807826
9.76128e-08
1.20291e-07
0.00165828
9.56173e-07
1.96459e-06
0.00586483
3.31792e-06
0.00166068
8.78148e-07
0.000808721
9.21697e-08
-5.83872e-08
-8.51746e-05
8.52208e-05
1.3152e-05
0.00909819
2.64965e-05
0.0119924
4.43562e-05
0.0143323
6.2866e-05
0.0158988
7.73877e-05
0.0165276
9.23249e-05
0.0161614
0.000101174
0.0148698
0.000101073
0.0128034
9.40799e-05
0.0101974
7.32097e-05
0.00727975
4.53298e-05
0.00426774
1.32214e-05
0.00135312
8.5314e-05
8.54301e-05
0.000809495
1.00494e-07
6.38182e-08
0.00166165
9.5123e-07
6.78914e-07
0.00587441
2.83303e-06
0.00166408
8.67852e-07
0.000810397
4.4238e-08
-9.05833e-08
-8.53718e-05
8.54567e-05
1.39794e-05
0.00911059
3.02714e-05
0.0120064
4.92896e-05
0.0143459
7.01127e-05
0.0159061
8.74677e-05
0.0165325
0.000102195
0.0161603
0.000115061
0.0148558
0.000111695
0.0127858
0.000104885
0.0101657
8.39591e-05
0.00724112
4.95881e-05
0.00423137
1.70754e-05
0.00133603
8.55568e-05
8.56195e-05
0.000811152
9.58149e-08
5.99344e-08
0.00166394
8.05526e-07
1.01749e-06
0.00588654
8.52006e-07
0.00166623
5.02422e-07
0.000812044
-1.23454e-07
8.4855e-08
-8.5529e-05
8.55675e-05
1.66772e-05
0.00912432
3.49516e-05
0.0120209
5.93003e-05
0.0143567
7.76429e-05
0.0159159
0.000100659
0.016534
0.00011801
0.0161574
0.000128591
0.0148389
0.000132083
0.0127586
0.000118433
0.0101312
9.1819e-05
0.00719889
5.22991e-05
0.00419613
3.74217e-05
0.0012986
8.56592e-05
8.57155e-05
0.00081268
8.81112e-08
6.79328e-08
0.00166737
-1.45731e-07
1.84714e-06
0.00589939
1.9598e-06
0.00167028
-2.06233e-06
0.000812946
1.06985e-07
1.1339e-07
-8.58003e-05
8.56704e-05
2.03085e-05
0.00913884
4.21449e-05
0.0120379
6.37886e-05
0.0143705
9.02847e-05
0.0159263
0.00011578
0.0165362
0.00013595
0.01615
0.000146519
0.0148245
0.000142912
0.0127342
0.000130014
0.010093
9.98072e-05
0.00715137
8.62986e-05
0.00414725
8.17073e-05
8.57585e-05
8.5826e-05
0.000812873
5.24653e-08
-1.53529e-07
0.00167616
-4.00274e-06
3.83085e-06
0.00591097
4.92686e-06
0.00167342
6.50883e-06
-1.82834e-06
0.000810813
-4.39321e-09
5.31872e-09
-8.59394e-05
8.60418e-05
2.5195e-05
0.0091559
4.49178e-05
0.0120569
7.29002e-05
0.0143879
0.000101206
0.0159408
0.000127703
0.0165445
0.000149472
0.0161471
0.000162875
0.0148045
0.000164623
0.0126995
0.000146481
0.0100463
0.000131462
0.00710621
0.000151247
8.60914e-05
8.59359e-05
0.000477897
1.04126e-08
-2.60017e-07
0.000329181
0.00167628
-8.00892e-07
1.77551e-06
5.12765e-06
0.00592581
5.19284e-06
0.00167776
1.26002e-06
2.18319e-06
0.000503887
-1.94667e-05
0.00050928
-7.22615e-06
-8.59413e-05
8.59346e-05
2.53486e-05
0.00917535
5.28897e-05
0.0120768
8.24492e-05
0.0144067
0.000118933
0.0159496
0.000149941
0.016544
0.000171982
0.016138
0.000183869
0.0147852
0.000181413
0.0126646
0.000174872
0.0100029
0.000199792
8.59479e-05
8.56897e-05
0.000306548
3.17028e-06
0.000511076
-2.5959e-06
0.000513734
-8.86075e-07
0.00167997
1.17861e-06
1.75713e-06
4.49166e-06
0.00594245
4.23469e-06
0.00168308
7.11102e-07
1.34265e-06
0.000514533
4.64904e-07
0.000515553
1.15457e-06
0.000300749
-1.42239e-06
2.94703e-05
0.00919887
5.8682e-05
0.0121007
9.48837e-05
0.0144308
0.000130483
0.0159691
0.000162842
0.0165532
0.000191276
0.0161305
0.000199178
0.0147675
0.000209329
0.0126301
0.000234688
8.88622e-05
0.000299281
-1.13218e-06
0.000298817
-4.19893e-07
0.000516136
5.96198e-07
0.000517148
7.41399e-07
0.00168567
5.96558e-07
1.3079e-06
5.96953e-06
0.005961
4.92312e-06
0.00168822
6.52749e-07
1.03248e-06
0.000517681
1.82883e-07
0.000518236
7.79088e-07
0.000299256
2.29126e-08
0.000300336
7.3766e-08
8.7439e-05
3.30023e-05
0.00922445
6.83289e-05
0.0121272
0.000108374
0.0144528
0.000150538
0.0159814
0.000185584
0.0165589
0.000205643
0.0161241
0.000231996
0.0147448
0.000255163
8.6307e-05
8.58865e-05
0.000300676
2.48104e-07
0.000301181
2.37548e-07
0.000518191
6.41061e-07
0.000519313
1.81723e-07
0.00169224
7.96525e-07
1.16459e-06
6.64787e-06
0.00598179
5.58472e-06
0.00169516
7.89538e-07
1.19503e-06
0.000519563
4.07503e-07
0.000520043
5.4584e-07
0.000301183
1.77876e-07
0.000301803
1.6023e-07
8.59094e-05
8.59807e-05
4.00019e-05
0.00925285
7.64045e-05
0.0121592
0.000123128
0.0144803
0.000166511
0.0160005
0.000198812
0.0165657
0.00023659
0.0161195
0.000262248
8.62281e-05
8.64648e-05
0.000302285
1.51133e-07
0.000302525
-5.6183e-08
0.000520512
3.30242e-07
0.00052122
4.56423e-07
0.00169959
9.20804e-07
1.29798e-06
6.43596e-06
0.00600885
6.47142e-06
0.00170299
9.11148e-07
1.27565e-06
0.000521524
4.92346e-07
0.000522483
2.30411e-07
0.000302816
1.14796e-07
0.000303242
1.20733e-07
8.66431e-05
8.68015e-05
4.36689e-05
0.00928549
9.0778e-05
0.0121915
0.000140819
0.014506
0.00018276
0.0160165
0.000225284
0.016577
0.00025226
8.69524e-05
8.68957e-05
0.000303445
1.2192e-07
0.000303773
1.32272e-07
0.000522585
8.19153e-07
0.000523356
5.26078e-07
0.00170677
1.04178e-06
1.63154e-06
8.45791e-06
0.00603679
7.27717e-06
0.00171093
8.52516e-07
1.43851e-06
0.00052416
1.12159e-07
0.000524776
6.56114e-07
0.000304306
-4.18845e-08
0.000304391
1.48613e-07
8.7011e-05
8.71302e-05
5.27378e-05
0.0093236
0.000103741
0.0122286
0.000153578
0.0145352
0.000199751
0.0160421
0.000227721
8.72524e-05
8.73844e-05
0.000305011
1.93599e-07
0.000305383
1.57541e-07
0.000524986
8.35583e-07
0.000526446
1.7158e-07
0.00171633
1.24865e-06
1.82066e-06
1.01396e-05
0.0060706
8.75908e-06
0.00172083
1.09055e-06
1.68526e-06
0.000526741
5.64566e-07
0.000527435
7.40578e-07
0.000305363
1.31699e-07
0.000306074
-5.2475e-08
8.73435e-05
8.74908e-05
6.33241e-05
0.00936396
0.000122142
0.0122601
0.000168708
0.0145663
0.00018843
8.76847e-05
8.78422e-05
0.000306756
1.5059e-07
0.000306791
1.39768e-07
0.000528161
5.23749e-07
0.000529315
6.66018e-07
0.00172738
1.50404e-06
2.09317e-06
1.15255e-05
0.0061111
1.12933e-05
0.00173283
1.36758e-06
1.92717e-06
0.000529722
6.88069e-07
0.000530817
5.86036e-07
0.000307146
2.09612e-07
0.000307904
-1.47991e-08
8.79748e-05
8.79213e-05
8.03543e-05
0.00940579
0.000130679
0.0122981
0.000144108
8.80724e-05
8.82121e-05
0.000308257
1.66746e-07
0.000308746
1.80684e-07
0.000531377
9.45894e-07
0.000532659
8.10756e-07
0.00174015
2.38212e-06
1.81311e-06
1.57383e-05
0.00615892
1.67635e-05
0.00174756
2.22248e-06
1.65468e-06
0.00053363
3.99551e-07
0.00053448
1.07376e-06
0.000309242
1.91224e-07
0.000309627
2.02314e-07
8.84227e-05
8.8407e-05
9.60401e-05
0.00944039
9.75248e-05
8.85742e-05
8.87548e-05
0.000310323
2.45669e-07
0.000311092
4.34209e-08
0.000535803
1.05785e-06
0.000537113
5.02156e-07
0.00175757
2.88692e-06
2.84113e-06
2.24839e-05
0.00620515
2.7288e-05
0.00176711
3.30973e-06
3.89438e-06
0.000538398
9.35743e-07
0.000538867
1.18133e-06
0.000311287
2.028e-07
0.000312145
2.1601e-07
8.89466e-05
8.91477e-05
6.38217e-05
8.93933e-05
8.9436e-05
0.00031297
2.31256e-07
0.00031324
2.31365e-07
0.000540512
1.2397e-06
0.00054258
7.72115e-07
0.00178009
4.7037e-06
4.78543e-06
4.90332e-05
2.27237e-05
0.00179302
5.79072e-06
8.54031e-06
0.000544476
1.41316e-06
0.000546202
2.16419e-06
0.000314123
5.11585e-08
0.000315071
2.31653e-07
8.96389e-05
8.98545e-05
9.00855e-05
9.03163e-05
0.000316048
2.60354e-07
0.00031654
2.78783e-07
0.00054892
1.98234e-06
0.000551125
2.57674e-06
0.00181353
1.16138e-05
1.68868e-05
2.43065e-05
1.16514e-05
0.000554038
2.87348e-06
0.0005583
4.2703e-06
0.000317609
3.42854e-07
0.000319338
4.33571e-07
9.0367e-05
9.05979e-05
9.08577e-05
9.1136e-05
0.000320834
4.84403e-07
0.00032273
6.77991e-07
0.000562112
7.79403e-06
0.000567381
1.16079e-05
0.000574501
1.71781e-05
1.57734e-05
0.000324905
6.95329e-07
0.000328047
1.12447e-06
9.14786e-05
9.19115e-05
9.23952e-05
9.30721e-05
0.000333551
2.28312e-06
0.000339937
5.2132e-06
0.000346137
1.09701e-05
2.26286e-05
9.37666e-05
9.48895e-05
9.71695e-05
0.000102379
0.000113347
1.33808e-05
-1.33406e-05
-5.72965e-05
1.93144e-05
5.14683e-05
6.73411e-06
-2.00137e-05
-6.86561e-05
1.81799e-05
-0.000114647
2.55013e-05
0.0001086
1.58752e-05
3.5679e-05
3.27622e-06
-2.32385e-05
1.0868e-05
-7.61448e-05
-0.000123769
2.74229e-05
-2.19503e-05
-0.000400624
5.83493e-05
0.000390276
0.000102559
6.69429e-06
2.90595e-05
1.40505e-06
-2.45788e-05
1.66813e-05
-0.000129465
6.14551e-06
-8.07918e-05
5.81467e-05
-0.00041434
-3.73721e-05
-0.00141972
0.00139251
0.00012422
-1.40599e-05
0.000373512
-6.26969e-06
9.52282e-05
2.2773e-06
2.68635e-05
6.68042e-07
-2.51892e-05
1.24812e-05
-0.000135671
3.26353e-06
-8.33016e-05
-3.37981e-05
0.000118077
-0.00144465
-5.82817e-06
-0.00042969
-2.22664e-05
9.2063e-05
-9.48614e-06
-0.0020317
0.00199951
0.000157502
0.000357129
-4.05544e-06
-1.59778e-06
9.12735e-05
1.02524e-06
2.59193e-05
2.2997e-08
-2.51665e-05
-0.000138219
1.11434e-06
-8.43504e-05
0.000146094
-0.00205889
-1.87355e-05
7.35377e-05
-0.00149047
-7.70568e-06
-3.82471e-06
-0.000443209
-1.16909e-06
0.000149382
-1.15839e-06
-0.00242574
0.00238531
0.000198899
8.82739e-05
-4.23563e-07
8.71752e-05
2.55061e-05
9.99546e-08
-2.52541e-05
-0.00014091
5.3034e-07
-8.47191e-05
0.000181948
-0.00246081
0.000114287
-0.00209874
4.67055e-05
-0.00152715
-4.73284e-06
-3.61005e-06
-0.000448884
-3.60435e-07
-1.47266e-06
-0.00014152
0.00020492
-1.45477e-07
-0.00257887
0.00253332
0.000245456
1.19339e-07
-2.5322e-05
5.67673e-07
-8.50933e-05
0.000223084
-0.00261924
0.000153779
-0.00249947
8.71681e-05
-0.00213813
4.22279e-05
-0.00155529
-7.81862e-06
-4.21506e-06
0.000452393
-0.00045492
-1.52489e-07
-1.76954e-06
-2.83593e-07
2.41013e-07
0.000142425
-2.63971e-07
-0.000142451
0.000258763
-0.00245114
0.00240753
0.000290065
8.58614e-08
-2.5387e-05
-8.52649e-05
0.000263295
-0.00249057
0.00019332
-0.00265796
0.000125956
-0.00253722
7.53389e-05
-0.00216975
5.05437e-05
-0.00158476
-1.52877e-05
-3.1388e-06
0.000456405
-0.000460285
-3.42841e-06
-2.58616e-06
0.000141579
-0.000133392
-8.2593e-06
0.000142346
-2.45832e-06
0.000142516
-4.35038e-07