/*--------------------------------*- C++ -*----------------------------------*\
| =========                 |                                                 |
| \\      /  F ield         | OpenFOAM: The Open Source CFD Toolbox           |
|  \\    /   O peration     | Version:  v1912                                 |
|   \\  /    A nd           | Website:  www.openfoam.com                      |
|    \\/     M anipulation  |                                                 |
\*---------------------------------------------------------------------------*/
FoamFile
{
    version     2.0;
    format      ascii;
    class       volVectorField;
    location    "130";
    object      U;
}
// * * * * * * * * * * * * * * * * * * * * * * * * * * * * * * * * * * * * * //

dimensions      [0 1 -1 0 0 0 0];


internalField   nonuniform List<vector> 
3754
(
(0.0510032 -0.021527 0)
(0.155032 -0.063917 -6.13818e-24)
(0.0504957 -0.0213163 2.93414e-24)
(0.25898 -0.10464 0)
(0.153501 -0.06329 3.0064e-24)
(0.0500085 -0.0211071 -2.95155e-24)
(0.358693 -0.142055 1.99496e-21)
(0.256444 -0.103613 2.24872e-24)
(0.152022 -0.062674 2.81249e-21)
(0.0495316 -0.0209032 0)
(0.448202 -0.173981 -1.75829e-21)
(0.355178 -0.140645 1.89536e-21)
(0.253958 -0.102597 -2.30268e-21)
(0.150551 -0.0620643 -2.62345e-24)
(0.0490494 -0.0207006 0)
(0.520366 -0.197929 1.46993e-24)
(0.443757 -0.172216 -1.67314e-21)
(0.351715 -0.139258 0)
(0.251508 -0.101606 1.01389e-25)
(0.149091 -0.0614605 2.62964e-24)
(0.0485792 -0.020504 0)
(0.56807 -0.211645 -8.52488e-26)
(0.51509 -0.195861 -1.45817e-21)
(0.439377 -0.170494 -1.48772e-24)
(0.348309 -0.137903 1.71499e-21)
(0.24907 -0.100615 2.0506e-24)
(0.147662 -0.0608716 0)
(0.0481043 -0.0203059 0)
(0.585715 -0.213645 1.3707e-24)
(0.562089 -0.20933 1.37576e-21)
(0.509907 -0.193854 0)
(0.435079 -0.16881 -1.5123e-21)
(0.344924 -0.136553 1.67093e-24)
(0.246661 -0.0996391 0)
(0.146237 -0.0602874 0)
(0.0476293 -0.0201077 0)
(0.570656 -0.203681 0)
(0.579179 -0.211147 -1.37932e-21)
(0.556226 -0.207095 0)
(0.504814 -0.191891 -2.50242e-24)
(0.430806 -0.167139 4.10598e-24)
(0.341561 -0.135217 0)
(0.244272 -0.0986777 0)
(0.144813 -0.0597042 0)
(0.0471686 -0.0199125 -2.17286e-24)
(0.523937 -0.182877 -1.71677e-24)
(0.563703 -0.201054 1.40189e-21)
(0.572775 -0.208749 0)
(0.550467 -0.204916 -1.22055e-21)
(0.499761 -0.189951 2.50501e-24)
(0.426567 -0.165486 -1.42955e-25)
(0.338236 -0.133903 0)
(0.241901 -0.0977227 0)
(0.143403 -0.0591272 0)
(0.046726 -0.0197267 2.18324e-24)
(0.450059 -0.153539 0)
(0.516669 -0.180162 0)
(0.556901 -0.198565 -1.33326e-21)
(0.566525 -0.206435 1.19696e-21)
(0.544794 -0.202777 -1.16195e-21)
(0.494757 -0.188034 0)
(0.422372 -0.163855 -2.55221e-24)
(0.334931 -0.132596 0)
(0.239556 -0.0967833 0)
(0.142039 -0.058566 2.00793e-21)
(0.0462852 -0.0195412 0)
(0.355852 -0.118611 1.27084e-21)
(0.442469 -0.150725 -6.86885e-24)
(0.509597 -0.177649 1.41591e-21)
(0.550362 -0.1962 -4.9952e-24)
(0.560428 -0.204177 1.13556e-21)
(0.539196 -0.200671 0)
(0.489808 -0.186142 0)
(0.418203 -0.162239 0)
(0.331675 -0.131313 0)
(0.237246 -0.0958488 -1.63228e-21)
(0.140683 -0.0580093 -1.90948e-21)
(0.045855 -0.0193566 0)
(0.249328 -0.0811721 -1.80751e-21)
(0.347718 -0.115647 1.17902e-24)
(0.43518 -0.148224 6.19458e-25)
(0.502972 -0.175315 0)
(0.544076 -0.193915 0)
(0.554459 -0.201974 4.34784e-24)
(0.533676 -0.1986 -1.04428e-21)
(0.484901 -0.184276 0)
(0.414091 -0.160645 1.12059e-21)
(0.328437 -0.130033 0)
(0.234968 -0.0949339 1.55059e-21)
(0.139368 -0.0574636 -8.84477e-25)
(0.0454279 -0.0191733 0)
(0.167211 -0.053694 6.38067e-22)
(0.239479 -0.0777797 7.35368e-22)
(0.162997 -0.052211 -6.5403e-22)
(0.340135 -0.113128 0)
(0.428711 -0.146 -1.60186e-21)
(0.496782 -0.173106 1.34729e-21)
(0.538017 -0.19172 0)
(0.548612 -0.199821 1.02381e-21)
(0.528231 -0.196566 -1.87479e-24)
(0.480063 -0.182435 -2.01953e-21)
(0.410021 -0.15907 0)
(0.325271 -0.128784 -1.18683e-21)
(0.232741 -0.0940301 3.90169e-26)
(0.138065 -0.0569223 8.85908e-25)
(0.0450047 -0.0189943 0)
(0.111059 -0.0352261 -9.15527e-25)
(0.156591 -0.0497208 -6.53754e-22)
(0.231137 -0.0750402 -2.96687e-22)
(0.149884 -0.0481258 -6.12827e-22)
(0.1073 -0.0340926 4.37864e-22)
(0.334088 -0.111055 1.8648e-21)
(0.422951 -0.143985 -1.49568e-21)
(0.490953 -0.171036 4.76896e-24)
(0.532147 -0.189603 0)
(0.542887 -0.197723 1.95407e-24)
(0.522873 -0.194567 9.44139e-22)
(0.475299 -0.180627 9.55436e-25)
(0.406026 -0.157521 1.04427e-21)
(0.322154 -0.127546 -5.46327e-25)
(0.230559 -0.0931459 6.79997e-25)
(0.136783 -0.0563902 0)
(0.0446097 -0.0188285 0)
(0.0684241 -0.0215478 2.01492e-22)
(0.0995633 -0.0310123 0)
(0.145186 -0.0464321 0)
(0.226057 -0.0731816 -6.57812e-22)
(0.142593 -0.0455136 1.11316e-21)
(0.0901732 -0.02878 1.42724e-22)
(0.064738 -0.0204166 2.53843e-24)
(0.0670372 -0.0212508 0)
(0.329184 -0.109367 -7.42964e-24)
(0.417729 -0.142166 2.76337e-25)
(0.485411 -0.169079 -2.44576e-25)
(0.526458 -0.187559 0)
(0.537279 -0.195671 0)
(0.517606 -0.192605 0)
(0.470613 -0.178844 0)
(0.402094 -0.155994 4.85229e-25)
(0.319111 -0.12634 5.46743e-25)
(0.228424 -0.0922775 6.06089e-25)
(0.135563 -0.055884 -1.53125e-21)
(0.0442067 -0.0186603 0)
(0.0400313 -0.0125308 0)
(0.060775 -0.0190525 0)
(0.0538405 -0.015942 -1.42346e-22)
(0.0857444 -0.0271114 1.35952e-22)
(0.140758 -0.0447544 2.15673e-21)
(0.222618 -0.0720258 6.07777e-22)
(0.139647 -0.0444136 -1.07548e-21)
(0.0840141 -0.0264131 -6.42101e-22)
(0.043205 -0.0138583 -1.84356e-22)
(0.0466818 -0.0148148 -6.30122e-24)
(0.0374636 -0.0118279 1.71936e-22)
(0.039202 -0.0123406 -1.86915e-22)
(0.324955 -0.107939 0)
(0.412882 -0.140496 1.45599e-21)
(0.480114 -0.167215 -4.55276e-24)
(0.520922 -0.185575 0)
(0.531785 -0.193665 -8.26136e-25)
(0.512436 -0.190678 -8.34956e-22)
(0.465997 -0.177091 8.39707e-22)
(0.398252 -0.154503 -8.9068e-22)
(0.316135 -0.125156 -1.0001e-21)
(0.226354 -0.0914337 1.24136e-21)
(0.134354 -0.055386 -1.44732e-21)
(0.0438283 -0.0184994 0)
(0.0129306 -0.00402037 0)
(0.0347149 -0.0105058 1.57304e-22)
(0.0237229 -0.00569358 1.04748e-22)
(0.0413569 -0.0130065 -1.95804e-22)
(0.0405233 -0.0127131 2.90549e-24)
(0.0830555 -0.0260731 -1.26144e-21)
(0.138587 -0.0440567 -1.0581e-21)
(0.219839 -0.0711679 -5.68028e-22)
(0.137846 -0.0438798 -1.00226e-21)
(0.0824528 -0.0258763 9.71298e-22)
(0.0399893 -0.0124698 -1.38866e-24)
(0.0402004 -0.0125391 5.48845e-22)
(0.0143019 -0.00465972 1.2538e-22)
(0.015866 -0.00522052 0)
(0.0120081 -0.00385069 -1.30333e-22)
(0.0126878 -0.00395774 1.32471e-22)
(0.321154 -0.106672 -1.67919e-21)
(0.408306 -0.138924 -1.38321e-21)
(0.475 -0.165425 -2.04949e-24)
(0.515533 -0.183649 -9.3776e-22)
(0.526401 -0.191701 8.21967e-22)
(0.507348 -0.188787 -7.96054e-22)
(0.461491 -0.175377 8.13309e-22)
(0.394501 -0.153042 4.00817e-23)
(0.313241 -0.124001 0)
(0.224342 -0.0906161 1.17313e-21)
(0.133199 -0.0549036 0)
(0.04346 -0.0183433 0)
(0.0112527 -0.003647 -6.25399e-23)
(0.00659291 -0.00152778 -2.05257e-23)
(0.0133065 -0.00418842 1.33922e-22)
(0.0129623 -0.0040441 2.4674e-22)
(0.0398026 -0.0124003 3.49701e-22)
(0.039704 -0.0123848 1.34641e-24)
(0.0819721 -0.0257328 9.54114e-22)
(0.136969 -0.0435975 0)
(0.217384 -0.070403 -5.55407e-22)
(0.136359 -0.0434481 -2.78643e-23)
(0.0815426 -0.0256189 2.43318e-22)
(0.0395497 -0.0123253 -1.32669e-24)
(0.0395858 -0.0123341 -2.07866e-26)
(0.0127911 -0.00396509 2.41024e-22)
(0.0128551 -0.0039912 1.49833e-24)
(0.317611 -0.105496 3.32283e-21)
(0.403952 -0.137443 -2.55056e-24)
(0.470052 -0.163696 9.99592e-22)
(0.510259 -0.181767 8.88316e-22)
(0.521119 -0.18978 -3.67565e-25)
(0.502374 -0.186933 3.72667e-25)
(0.457079 -0.173695 1.51006e-21)
(0.390846 -0.151613 7.87783e-22)
(0.310434 -0.122876 0)
(0.222392 -0.0898145 0)
(0.13208 -0.0544379 6.23798e-25)
(0.0430884 -0.0181844 -1.36485e-21)
(0.0127411 -0.0039514 2.35497e-22)
(0.0127113 -0.00394638 2.32748e-22)
(0.0394215 -0.012277 0)
(0.0393489 -0.012274 3.31325e-22)
(0.0811248 -0.0254986 -3.62349e-24)
(0.135565 -0.0431812 9.37204e-22)
(0.215095 -0.0696839 -3.02559e-21)
(0.134977 -0.0430242 -9.03569e-25)
(0.080733 -0.0253834 8.9661e-22)
(0.0392127 -0.0122355 3.23276e-22)
(0.0392622 -0.0122365 -3.22065e-22)
(0.0126791 -0.00392985 -2.26917e-22)
(0.0126807 -0.00393499 2.29059e-22)
(0.314282 -0.104397 3.16728e-24)
(0.399753 -0.136009 0)
(0.465222 -0.162014 -9.44987e-22)
(0.505101 -0.179932 8.38258e-22)
(0.515943 -0.187892 3.67903e-25)
(0.4975 -0.185115 -1.40165e-21)
(0.452782 -0.17205 -7.18747e-22)
(0.387288 -0.150215 -3.56391e-25)
(0.307703 -0.121777 0)
(0.220512 -0.0890431 0)
(0.130978 -0.0539744 -1.20797e-24)
(0.0427515 -0.0180366 4.15678e-23)
(0.0126407 -0.00391572 2.24926e-22)
(0.0126103 -0.00391253 -2.20156e-22)
(0.0390867 -0.0121893 0)
(0.0390271 -0.0121787 1.23092e-24)
(0.0803389 -0.0252651 -8.79268e-25)
(0.134207 -0.0427597 8.98154e-22)
(0.212925 -0.068984 1.00581e-21)
(0.133632 -0.0426084 8.84442e-22)
(0.0799466 -0.0251467 -8.45866e-25)
(0.0388508 -0.0121267 0)
(0.0389252 -0.0121369 3.15365e-22)
(0.0125697 -0.00390131 4.41208e-25)
(0.0125969 -0.003904 -2.20628e-22)
(0.311051 -0.103326 -1.56945e-21)
(0.395666 -0.134626 -5.45384e-25)
(0.460512 -0.160377 -8.91334e-22)
(0.500032 -0.178125 0)
(0.510865 -0.186039 6.86406e-22)
(0.492738 -0.183332 0)
(0.448595 -0.170439 -6.46047e-25)
(0.383843 -0.148854 -6.91151e-22)
(0.30508 -0.120715 0)
(0.218687 -0.0882869 9.01584e-22)
(0.129911 -0.0535218 2.30794e-21)
(0.0424018 -0.0178941 0)
(0.0125491 -0.00389317 8.46385e-25)
(0.0125275 -0.00388656 2.13835e-22)
(0.0387197 -0.012076 3.08929e-22)
(0.0386651 -0.0120695 0)
(0.0795592 -0.0250211 8.46641e-25)
(0.132901 -0.0423464 -8.56852e-22)
(0.210792 -0.0683033 1.80581e-21)
(0.132347 -0.0421927 -8.44557e-22)
(0.0791701 -0.0249088 2.14661e-22)
(0.0384955 -0.0120186 0)
(0.0385644 -0.01203 0)
(0.0124544 -0.00386542 2.10128e-22)
(0.0124898 -0.00387047 -4.24792e-22)
(0.307937 -0.102303 0)
(0.391689 -0.133274 5.46274e-25)
(0.455883 -0.158765 -4.35264e-25)
(0.495059 -0.176351 -7.46851e-22)
(0.505887 -0.184217 6.58382e-22)
(0.488088 -0.181582 -6.1752e-22)
(0.444525 -0.168863 6.3133e-22)
(0.380518 -0.14753 0)
(0.302537 -0.119679 -7.62207e-22)
(0.2169 -0.0875452 -8.99725e-22)
(0.128874 -0.0530924 -5.44938e-25)
(0.0420478 -0.0177477 2.11433e-24)
(0.0124272 -0.00385403 -2.06861e-22)
(0.0124018 -0.00384912 2.06187e-22)
(0.0383753 -0.0119702 0)
(0.03831 -0.0119529 0)
(0.0787816 -0.024779 2.10236e-22)
(0.131631 -0.0419449 -8.16213e-22)
(0.208755 -0.0676444 -4.57348e-22)
(0.131071 -0.0417949 -2.92595e-23)
(0.0784163 -0.024668 7.77966e-25)
(0.0381276 -0.011904 0)
(0.0381886 -0.0119134 -2.86676e-22)
(0.0123513 -0.00383346 2.03414e-22)
(0.0123815 -0.00383856 -2.05457e-22)
(0.304893 -0.101292 0)
(0.38778 -0.131947 1.07562e-21)
(0.451318 -0.157174 7.95182e-22)
(0.490159 -0.1746 -6.72528e-22)
(0.501004 -0.18242 -1.28014e-23)
(0.483552 -0.179862 0)
(0.440591 -0.167325 5.72964e-22)
(0.377298 -0.14624 0)
(0.300056 -0.118667 6.65749e-25)
(0.21516 -0.0868285 0)
(0.12784 -0.0526639 -9.57909e-22)
(0.0417189 -0.017609 -1.00552e-21)
(0.0123224 -0.00382174 2.00924e-22)
(0.0122881 -0.00380995 2.00001e-22)
(0.0379929 -0.0118517 -2.80589e-22)
(0.0379212 -0.0118416 -1.08921e-24)
(0.0780578 -0.0245505 -7.78867e-25)
(0.130379 -0.0415466 8.13614e-22)
(0.206746 -0.0669965 4.37622e-22)
(0.12985 -0.0413974 7.70244e-22)
(0.0776802 -0.0244416 7.60631e-22)
(0.0377749 -0.011789 0)
(0.0378384 -0.0118043 1.0901e-24)
(0.0122264 -0.00379429 1.95805e-22)
(0.0122484 -0.00379776 -1.98049e-22)
(0.301892 -0.1003 -1.2445e-21)
(0.383913 -0.130632 0)
(0.446818 -0.155604 0)
(0.485326 -0.172864 6.34763e-22)
(0.496215 -0.180646 -1.15763e-24)
(0.479141 -0.178171 -5.41955e-22)
(0.436768 -0.165819 -2.71387e-25)
(0.374164 -0.144981 0)
(0.297643 -0.117684 -3.19392e-25)
(0.213456 -0.0861291 7.72019e-22)
(0.126831 -0.0522465 1.83884e-21)
(0.0413893 -0.017469 0)
(0.0121959 -0.00378233 0)
(0.0121667 -0.00377728 1.9193e-22)
(0.0376329 -0.0117389 0)
(0.0375762 -0.0117279 0)
(0.0773163 -0.024315 -5.4813e-22)
(0.129168 -0.0411627 0)
(0.204761 -0.0663553 0)
(0.128624 -0.0410136 2.56105e-23)
(0.0769601 -0.024211 3.77002e-22)
(0.0374216 -0.011684 2.66477e-22)
(0.0374783 -0.0116911 -1.03394e-24)
(0.0121124 -0.00375708 1.89075e-22)
(0.0121496 -0.00376704 -1.90595e-22)
(0.298926 -0.0993157 0)
(0.380088 -0.129329 1.75964e-24)
(0.442344 -0.154038 0)
(0.480546 -0.171137 0)
(0.491512 -0.178884 0)
(0.474834 -0.176507 -2.72688e-25)
(0.433054 -0.164349 4.92491e-22)
(0.371117 -0.143755 0)
(0.295277 -0.116725 -5.54107e-22)
(0.211784 -0.0854447 -7.08163e-22)
(0.125834 -0.0518297 -8.08258e-22)
(0.0410497 -0.0173257 -8.52271e-22)
(0.0120707 -0.00374407 1.86375e-22)
(0.0120515 -0.00373832 1.84823e-22)
(0.0373005 -0.0116344 -2.57362e-22)
(0.0372307 -0.0116189 -9.98983e-25)
(0.0765996 -0.0240918 -2.7935e-24)
(0.127952 -0.040778 0)
(0.202804 -0.0657221 4.0033e-22)
(0.127433 -0.0406302 -7.28111e-22)
(0.0762397 -0.0239868 -6.93537e-22)
(0.0370746 -0.0115724 -2.50968e-22)
(0.037146 -0.0115932 -2.50547e-22)
(0.0119966 -0.00372382 1.28402e-24)
(0.0120284 -0.00372827 -1.83922e-22)
(0.295984 -0.0983363 2.22389e-24)
(0.376268 -0.128025 -1.76127e-24)
(0.437874 -0.152464 2.65832e-24)
(0.475795 -0.169401 -1.11103e-24)
(0.486891 -0.177135 -9.64609e-25)
(0.470641 -0.17487 -4.66526e-22)
(0.429435 -0.162912 0)
(0.368134 -0.142561 2.96944e-23)
(0.292964 -0.115788 0)
(0.21012 -0.0847602 6.51685e-22)
(0.124831 -0.0514121 7.77766e-23)
(0.040712 -0.0171808 -3.19951e-24)
(0.0119766 -0.00371342 1.79592e-22)
(0.0119481 -0.00370458 0)
(0.0369385 -0.0115209 0)
(0.036894 -0.0115116 0)
(0.0759012 -0.0238729 0)
(0.126777 -0.0404047 0)
(0.200865 -0.0650897 3.789e-22)
(0.126254 -0.040255 -6.70304e-22)
(0.0755354 -0.0237655 6.66451e-22)
(0.0367348 -0.0114679 2.4378e-22)
(0.0367994 -0.0114818 0)
(0.0118923 -0.00369028 3.39206e-25)
(0.0119228 -0.00370004 1.75407e-22)
(0.293033 -0.0973516 -1.1636e-21)
(0.3724 -0.126701 -3.19156e-24)
(0.433359 -0.150864 -6.94952e-22)
(0.471066 -0.167652 -5.75497e-22)
(0.482341 -0.175386 9.63022e-25)
(0.466533 -0.173261 -3.93596e-25)
(0.425891 -0.161512 4.162e-22)
(0.36521 -0.141394 0)
(0.290656 -0.114853 0)
(0.208453 -0.0840745 5.94135e-22)
(0.123825 -0.0509907 6.63782e-22)
(0.0403849 -0.017037 -7.41166e-22)
(0.011852 -0.00367487 1.71931e-22)
(0.0118339 -0.00366893 -1.71229e-22)
(0.0366212 -0.0114195 0)
(0.0365671 -0.0114134 0)
(0.0752053 -0.0236551 -2.55692e-24)
(0.1256 -0.0400248 2.55929e-24)
(0.198932 -0.0644605 9.74867e-22)
(0.125085 -0.0398793 -1.30377e-21)
(0.0748515 -0.02355 1.68811e-22)
(0.036398 -0.0113614 2.32813e-22)
(0.0364688 -0.0113828 9.07358e-25)
(0.0117834 -0.00365622 1.81734e-24)
(0.0118069 -0.00366181 1.69147e-22)
(0.290034 -0.0963525 -2.11879e-24)
(0.368435 -0.125338 7.71826e-22)
(0.428775 -0.149213 6.14608e-22)
(0.466323 -0.165863 -5.53658e-22)
(0.477849 -0.173649 2.02209e-25)
(0.462501 -0.171688 3.92978e-25)
(0.422412 -0.160143 -6.74032e-25)
(0.362306 -0.140236 1.41741e-24)
(0.288352 -0.113919 0)
(0.206786 -0.083386 -5.70834e-23)
(0.122818 -0.0505633 -2.34968e-24)
(0.0400452 -0.01689 6.72759e-22)
(0.0117602 -0.0036439 -1.67019e-22)
(0.0117299 -0.00363979 1.63881e-22)
(0.0362769 -0.0113126 -2.30127e-22)
(0.03623 -0.0113092 8.74981e-25)
(0.0745179 -0.0234342 0)
(0.124455 -0.0396608 6.42635e-22)
(0.196975 -0.0638195 -3.50898e-22)
(0.123937 -0.0395116 6.11422e-22)
(0.0741649 -0.0233315 6.09089e-22)
(0.0360695 -0.0112603 0)
(0.0361355 -0.0112787 -2.21582e-22)
(0.0116818 -0.00362313 1.28026e-24)
(0.011711 -0.0036352 1.61887e-22)
(0.28691 -0.0953073 3.87295e-24)
(0.364283 -0.123893 8.06383e-22)
(0.424043 -0.147474 5.9014e-22)
(0.461557 -0.164042 0)
(0.473408 -0.171936 -2.01879e-25)
(0.458539 -0.170156 0)
(0.418971 -0.158797 1.88673e-24)
(0.359404 -0.139079 -2.68311e-24)
(0.286044 -0.112982 -4.0602e-22)
(0.20512 -0.0826937 1.66313e-24)
(0.121797 -0.0501279 2.58304e-25)
(0.0397013 -0.016745 -6.05781e-22)
(0.0116391 -0.00360638 1.58074e-22)
(0.0116155 -0.00360507 1.57093e-22)
(0.035968 -0.0112152 8.47063e-25)
(0.0359116 -0.0112075 -4.28735e-25)
(0.0738536 -0.0232272 -5.9485e-22)
(0.123307 -0.0392932 5.87251e-22)
(0.194938 -0.0631523 -3.34308e-22)
(0.122785 -0.0391377 0)
(0.0735045 -0.0231246 2.92143e-24)
(0.0357489 -0.0111578 0)
(0.0358039 -0.0111687 -4.19534e-25)
(0.0115779 -0.00359186 1.55215e-22)
(0.0115983 -0.00360009 0)
(0.283511 -0.0941713 7.79882e-23)
(0.359835 -0.122318 -7.87989e-22)
(0.419135 -0.145622 -6.31016e-22)
(0.456778 -0.162217 0)
(0.469032 -0.170276 -1.26408e-24)
(0.454633 -0.168657 0)
(0.415548 -0.157456 -1.21285e-24)
(0.35651 -0.137921 1.26588e-24)
(0.283744 -0.11204 3.25185e-22)
(0.20343 -0.0819858 -1.66387e-24)
(0.120778 -0.0496939 3.93431e-24)
(0.0393428 -0.016594 0)
(0.0115474 -0.00357715 -3.01467e-25)
(0.0115223 -0.00357457 1.50864e-22)
(0.0356486 -0.0111208 0)
(0.0355889 -0.0111075 0)
(0.0731783 -0.0230151 -1.48107e-22)
(0.122169 -0.0389252 5.88269e-22)
(0.19267 -0.0624188 -1.49535e-21)
(0.121603 -0.0387547 5.59352e-22)
(0.0728447 -0.0229138 1.45432e-22)
(0.0354369 -0.011059 -3.97375e-25)
(0.0354988 -0.0110776 3.97106e-25)
(0.011464 -0.00355538 -1.48954e-22)
(0.0114986 -0.00356508 1.50432e-22)
(0.279698 -0.0928822 9.2285e-22)
(0.354927 -0.120509 7.03057e-22)
(0.414057 -0.143694 -2.73696e-25)
(0.452046 -0.160461 3.99593e-22)
(0.464747 -0.168669 1.23062e-25)
(0.450778 -0.167176 0)
(0.412143 -0.156115 2.62997e-22)
(0.353623 -0.136757 -2.82934e-22)
(0.281424 -0.111084 -1.24426e-24)
(0.201739 -0.0812728 1.26068e-24)
(0.119736 -0.04925 4.03421e-22)
(0.0389776 -0.0164377 8.39226e-25)
(0.0114417 -0.0035484 1.46629e-22)
(0.0114174 -0.00354326 1.45342e-22)
(0.0353273 -0.0110198 0)
(0.0352861 -0.0110138 1.95261e-22)
(0.0725296 -0.0228058 -4.00772e-22)
(0.120929 -0.0385273 5.36074e-22)
(0.189969 -0.0615444 0)
(0.120264 -0.0383248 -5.61785e-22)
(0.0721715 -0.0227007 0)
(0.035128 -0.0109639 4.07017e-24)
(0.0351928 -0.0109787 -3.77828e-25)
(0.011377 -0.00352688 -1.43585e-22)
(0.0113984 -0.00353581 1.43632e-22)
(0.275023 -0.0912479 4.91482e-22)
(0.349524 -0.118452 7.65387e-22)
(0.408981 -0.141858 -4.26255e-22)
(0.447472 -0.158794 -1.25646e-24)
(0.460567 -0.167098 1.1414e-24)
(0.446962 -0.165702 -2.48199e-22)
(0.408746 -0.154771 -9.68094e-25)
(0.350727 -0.135585 -2.31486e-22)
(0.279089 -0.110115 0)
(0.20003 -0.0805517 -3.27431e-22)
(0.118675 -0.0487947 -3.39208e-22)
(0.0386181 -0.0162841 -2.2268e-24)
(0.0113422 -0.00351737 0)
(0.0113278 -0.00351597 0)
(0.0350249 -0.0109249 3.75825e-25)
(0.0349702 -0.0109121 -1.87817e-22)
(0.0718349 -0.0225844 -1.32784e-22)
(0.119471 -0.0380666 -5.4209e-22)
(0.186165 -0.060317 -7.30124e-22)
(0.118499 -0.0377714 4.07597e-24)
(0.0714531 -0.0224732 6.49746e-22)
(0.03482 -0.0108642 0)
(0.0348878 -0.0108863 0)
(0.0112667 -0.00349394 -2.74658e-22)
(0.0113024 -0.00350344 1.38864e-22)
(0.269142 -0.089024 -8.88091e-22)
(0.344022 -0.116524 -6.04453e-22)
(0.404189 -0.140173 4.12249e-22)
(0.443102 -0.157191 1.25842e-24)
(0.456483 -0.165553 2.73804e-22)
(0.443181 -0.164236 -2.33284e-22)
(0.405354 -0.153424 2.11026e-22)
(0.347811 -0.134399 7.30086e-25)
(0.27675 -0.109142 -2.04416e-22)
(0.198307 -0.07982 2.72916e-22)
(0.117622 -0.0483408 2.69058e-22)
(0.0382396 -0.016123 1.38878e-24)
(0.0112452 -0.00348737 1.35637e-22)
(0.0112226 -0.00348263 1.34447e-22)
(0.0347086 -0.0108261 1.8097e-22)
(0.0346616 -0.0108162 -3.53976e-25)
(0.0710637 -0.0223324 5.04916e-22)
(0.117143 -0.0374112 5.06554e-22)
(0.179303 -0.0578569 -4.59566e-24)
(0.115238 -0.0367581 -4.2978e-24)
(0.0705161 -0.0221841 1.26826e-22)
(0.0345253 -0.0107725 4.69603e-24)
(0.0345741 -0.0107873 -3.4938e-25)
(0.0111785 -0.00346421 0)
(0.0112082 -0.00347661 1.32793e-22)
(0.262877 -0.0869282 7.06313e-22)
(0.339077 -0.114852 -4.60749e-22)
(0.399803 -0.138602 -2.97733e-24)
(0.438925 -0.155643 -2.81048e-22)
(0.452482 -0.164036 2.29973e-22)
(0.439435 -0.16278 0)
(0.401972 -0.152076 -1.83854e-22)
(0.344909 -0.133211 1.78589e-22)
(0.274402 -0.108158 -1.65493e-22)
(0.196588 -0.0790825 -2.1705e-22)
(0.116547 -0.0478714 -2.02074e-22)
(0.0378466 -0.0159565 0)
(0.0111373 -0.00345386 1.3071e-22)
(0.011122 -0.0034521 1.29475e-22)
(0.0344329 -0.0107347 -3.48157e-25)
(0.0343646 -0.0107136 0)
(0.0697916 -0.0219807 -1.14177e-22)
(0.111792 -0.0356553 2.72915e-22)
(0.17102 -0.0553016 1.47488e-22)
(0.106136 -0.0334996 4.45821e-24)
(0.0686317 -0.0216543 -1.48491e-23)
(0.034182 -0.0106665 -1.72597e-22)
(0.0342699 -0.0106899 1.75484e-22)
(0.0110852 -0.00343681 -2.56211e-22)
(0.0111096 -0.00344564 1.28549e-22)
(0.257841 -0.0852411 -6.72063e-22)
(0.334869 -0.113375 0)
(0.39574 -0.137126 0)
(0.434906 -0.154152 -2.10031e-24)
(0.448562 -0.162545 -2.3602e-22)
(0.435731 -0.161334 3.66845e-22)
(0.398614 -0.150728 -6.49261e-25)
(0.342012 -0.132017 8.04985e-24)
(0.272058 -0.107164 -1.25757e-22)
(0.194849 -0.0783284 1.63157e-22)
(0.115442 -0.0473894 1.29334e-22)
(0.0374498 -0.0157909 1.97219e-25)
(0.0110653 -0.00342916 1.26662e-22)
(0.011038 -0.0034207 1.26278e-22)
(0.0340407 -0.0106227 4.7935e-24)
(0.0338981 -0.0105844 -1.32006e-24)
(0.066332 -0.0208955 -1.71188e-22)
(0.0996763 -0.0317386 -2.46798e-22)
(0.166142 -0.0535056 6.54674e-22)
(0.0960252 -0.0306846 -2.09141e-22)
(0.0589256 -0.0182085 0)
(0.0333876 -0.0104541 -8.54356e-23)
(0.033723 -0.0105341 1.31678e-24)
(0.0109866 -0.00340678 1.24873e-22)
(0.0110161 -0.00341435 -1.23483e-22)
(0.254121 -0.0839295 4.9077e-24)
(0.331194 -0.11206 0)
(0.391938 -0.135747 0)
(0.431029 -0.152713 2.447e-22)
(0.444721 -0.161079 -1.88798e-22)
(0.43207 -0.159896 -8.27615e-26)
(0.395281 -0.14938 -9.45666e-24)
(0.339123 -0.130813 1.09292e-22)
(0.26971 -0.106161 2.62277e-25)
(0.193091 -0.0775644 -1.70397e-22)
(0.114337 -0.0469067 0)
(0.0370347 -0.0156165 -1.97676e-25)
(0.010951 -0.00339575 1.72921e-24)
(0.0109109 -0.00338418 1.22956e-22)
(0.0328055 -0.0103493 -4.74764e-24)
(0.031561 -0.00979032 -7.13304e-23)
(0.0496154 -0.016015 -3.50972e-23)
(0.094196 -0.0298216 1.963e-22)
(0.163498 -0.0525072 -2.14364e-22)
(0.0932416 -0.0294556 3.22888e-24)
(0.0464837 -0.0146794 2.9576e-22)
(0.0196111 -0.00460103 0)
(0.0288812 -0.00859159 0)
(0.0107542 -0.00334036 1.80928e-22)
(0.0108721 -0.00336758 -1.21888e-22)
(0.251143 -0.0828864 -6.81957e-22)
(0.327869 -0.110882 0)
(0.388346 -0.134447 -1.25168e-24)
(0.427273 -0.151313 0)
(0.440955 -0.159635 0)
(0.428457 -0.158465 1.27804e-22)
(0.391964 -0.148026 1.12894e-22)
(0.336247 -0.129604 0)
(0.267355 -0.105145 5.5705e-23)
(0.191338 -0.0767923 -5.89306e-24)
(0.113208 -0.0464058 -3.04767e-23)
(0.0366063 -0.0154406 0)
(0.0105562 -0.00331099 -1.17789e-22)
(0.0100732 -0.00322343 -5.15731e-23)
(0.0131592 -0.0041325 5.41031e-23)
(0.0117123 -0.00389046 0)
(0.0456588 -0.0142495 0)
(0.0925211 -0.0291832 -3.22735e-24)
(0.161654 -0.0519233 1.02925e-21)
(0.0920893 -0.0290697 3.8437e-22)
(0.0452338 -0.0140911 1.02069e-22)
(0.0107223 -0.00336951 -1.07595e-22)
(0.0109987 -0.0034748 5.70321e-23)
(0.00542442 -0.00122281 0)
(0.00938091 -0.00301208 -4.48651e-23)
(0.248572 -0.0820111 0)
(0.324807 -0.109805 -4.66712e-22)
(0.384917 -0.133203 2.44596e-24)
(0.42363 -0.149952 0)
(0.437263 -0.158209 1.88205e-22)
(0.424887 -0.157042 -1.06601e-22)
(0.38869 -0.146675 -2.39939e-25)
(0.333385 -0.128385 0)
(0.265015 -0.104119 4.97851e-24)
(0.189567 -0.0760016 2.44906e-23)
(0.112046 -0.0458924 0)
(0.0361654 -0.0152555 0)
(0.0106804 -0.00332038 -1.12238e-22)
(0.0106377 -0.00330113 0)
(0.0449815 -0.0140158 3.18632e-24)
(0.0915976 -0.0289304 -2.63435e-26)
(0.160095 -0.0514598 -2.17108e-22)
(0.091269 -0.028856 -3.75312e-22)
(0.0447876 -0.0139578 0)
(0.0105989 -0.00328869 8.07109e-25)
(0.0106075 -0.00328657 1.07846e-22)
(0.24627 -0.0812348 5.46668e-22)
(0.321934 -0.108796 4.50329e-22)
(0.381629 -0.132008 -1.19385e-24)
(0.420084 -0.148619 -1.92922e-22)
(0.433641 -0.156799 -1.74639e-22)
(0.421375 -0.155624 -1.18154e-22)
(0.385441 -0.145316 6.69172e-23)
(0.330542 -0.127155 -1.13762e-23)
(0.262664 -0.103075 4.84446e-23)
(0.187762 -0.0751918 -1.49691e-25)
(0.110869 -0.0453667 -2.17299e-22)
(0.0357155 -0.0150647 0)
(0.0105827 -0.00327994 -1.99436e-25)
(0.010577 -0.00328151 1.01475e-22)
(0.0446232 -0.0139191 9.74692e-23)
(0.0908415 -0.0287279 0)
(0.158714 -0.0510329 0)
(0.0905286 -0.028649 3.61953e-22)
(0.0444595 -0.0138673 -3.62916e-25)
(0.0105478 -0.00327068 9.8674e-23)
(0.0105536 -0.003271 9.9968e-23)
(0.244135 -0.0805147 -5.25087e-22)
(0.319203 -0.107834 0)
(0.37845 -0.130847 1.09015e-24)
(0.416626 -0.147309 1.78185e-22)
(0.430092 -0.155401 1.16187e-22)
(0.417909 -0.154206 -6.29235e-23)
(0.382229 -0.143952 5.30817e-23)
(0.327712 -0.125912 -4.26257e-23)
(0.260308 -0.102015 0)
(0.185941 -0.0743645 1.74676e-22)
(0.109659 -0.0448207 0)
(0.0352444 -0.0148667 0)
(0.0105264 -0.00326386 -1.91451e-25)
(0.0105277 -0.00326471 7.65349e-25)
(0.0443079 -0.0138304 -3.51144e-25)
(0.0901133 -0.0285123 -3.75542e-22)
(0.157424 -0.0506202 4.0912e-22)
(0.0898345 -0.0284319 0)
(0.0441281 -0.0137796 7.15282e-25)
(0.0104902 -0.00325063 1.87916e-25)
(0.0105026 -0.00325368 9.63695e-23)
(0.242111 -0.0798309 -2.18687e-24)
(0.316581 -0.106909 -1.47716e-24)
(0.375372 -0.129717 -3.53013e-26)
(0.413258 -0.146018 -2.20273e-22)
(0.426609 -0.154011 0)
(0.414499 -0.152787 -4.07574e-23)
(0.379053 -0.142578 0)
(0.324894 -0.124653 1.16257e-25)
(0.257943 -0.100933 0)
(0.184095 -0.0735148 0)
(0.108421 -0.044257 -4.34923e-22)
(0.0347498 -0.0146611 5.494e-22)
(0.010466 -0.00324459 9.44645e-23)
(0.0104641 -0.00324611 0)
(0.0439626 -0.0137294 3.45903e-22)
(0.0894297 -0.0282947 -3.43732e-22)
(0.156177 -0.0502206 3.95122e-22)
(0.0891373 -0.02821 -3.36015e-22)
(0.043796 -0.013675 -8.90229e-23)
(0.0104172 -0.00323276 9.22182e-23)
(0.0104313 -0.00323582 9.3507e-23)
(0.240184 -0.0791776 -1.02178e-24)
(0.314066 -0.106016 4.07096e-22)
(0.372382 -0.128606 2.35323e-22)
(0.409972 -0.144744 2.15164e-22)
(0.423199 -0.152626 2.13466e-25)
(0.411136 -0.151361 6.4811e-26)
(0.3759 -0.141188 -5.11599e-24)
(0.32208 -0.123371 0)
(0.255559 -0.0998246 -1.28181e-25)
(0.182213 -0.0726373 3.49107e-22)
(0.107137 -0.0436721 -5.58679e-22)
(0.0342384 -0.0144465 3.86119e-25)
(0.0103884 -0.00322231 9.15944e-23)
(0.0103838 -0.00322146 9.13733e-23)
(0.0436357 -0.0136235 0)
(0.0887552 -0.0280831 -6.80315e-22)
(0.154988 -0.0498304 1.92191e-22)
(0.0884795 -0.028004 -3.25786e-22)
(0.043465 -0.0135677 -3.29831e-25)
(0.0103367 -0.00320709 9.01903e-23)
(0.0103494 -0.00320952 8.93073e-23)
(0.238337 -0.0785453 -4.75519e-22)
(0.311621 -0.105141 3.99365e-22)
(0.369488 -0.12752 -2.29569e-22)
(0.406765 -0.143477 -3.56772e-25)
(0.419854 -0.15124 -2.13461e-25)
(0.407826 -0.149927 4.78374e-24)
(0.372777 -0.139782 0)
(0.319273 -0.122066 0)
(0.25315 -0.0986865 1.28271e-25)
(0.1803 -0.0717351 8.99354e-22)
(0.105812 -0.0430621 0)
(0.0337047 -0.0142247 -8.77058e-22)
(0.0103094 -0.00319728 8.89373e-23)
(0.0103042 -0.00319663 8.87848e-23)
(0.0433098 -0.0135216 3.25567e-22)
(0.0881087 -0.0278775 -3.24728e-25)
(0.15385 -0.0494548 -4.15376e-24)
(0.0878365 -0.0277971 -3.16297e-22)
(0.0431585 -0.0134779 0)
(0.0102701 -0.00318186 1.70542e-25)
(0.0102817 -0.00318719 -1.72587e-25)
(0.236543 -0.0779308 -4.69101e-22)
(0.309266 -0.10429 0)
(0.366676 -0.126444 2.95434e-22)
(0.403638 -0.142214 0)
(0.416575 -0.14985 0)
(0.404562 -0.148481 0)
(0.369676 -0.138353 -5.88122e-23)
(0.316462 -0.120733 1.86219e-22)
(0.250723 -0.0975173 -3.7896e-22)
(0.17833 -0.0707955 5.51464e-22)
(0.104446 -0.042432 4.48688e-25)
(0.0331407 -0.0139943 -4.74119e-25)
(0.0102322 -0.00317148 8.62502e-23)
(0.0102293 -0.00317323 8.59422e-23)
(0.043005 -0.0134275 0)
(0.087483 -0.0276763 6.40668e-22)
(0.15274 -0.049091 1.8382e-22)
(0.0872273 -0.0275958 -3.08317e-22)
(0.0428468 -0.0133803 3.11441e-25)
(0.0102 -0.00316391 0)
(0.0102039 -0.00316533 8.54788e-23)
(0.23482 -0.0773364 -5.37237e-22)
(0.306984 -0.103453 -3.31132e-22)
(0.363942 -0.125374 5.29131e-25)
(0.400583 -0.14095 3.46942e-25)
(0.41336 -0.148452 0)
(0.401342 -0.147017 5.57031e-23)
(0.366603 -0.136899 -1.69548e-22)
(0.313638 -0.119361 0)
(0.248256 -0.0963086 -4.63152e-22)
(0.176311 -0.0698218 0)
(0.103013 -0.0417758 -9.84189e-25)
(0.0325591 -0.0137608 -2.67841e-24)
(0.0101655 -0.00315207 8.43001e-23)
(0.0101529 -0.00315018 8.37844e-23)
(0.0427123 -0.013335 -3.07916e-22)
(0.0868723 -0.0274806 1.22002e-24)
(0.151674 -0.0487443 8.14677e-22)
(0.0866149 -0.0274045 -3.03585e-22)
(0.0425582 -0.0132833 0)
(0.0101224 -0.00314033 1.60942e-25)
(0.0101282 -0.0031417 8.31148e-23)
(0.233154 -0.0767611 0)
(0.304785 -0.102626 0)
(0.361291 -0.124306 -3.93009e-25)
(0.397609 -0.139687 2.19843e-22)
(0.41021 -0.147045 0)
(0.39817 -0.145532 0)
(0.363538 -0.135411 0)
(0.310799 -0.117951 -1.8172e-25)
(0.245736 -0.0950557 0)
(0.174231 -0.0688113 0)
(0.101514 -0.0411014 5.35931e-25)
(0.0319658 -0.0135138 -1.47883e-21)
(0.010096 -0.0031312 8.18687e-23)
(0.0100936 -0.00313012 8.17445e-23)
(0.0424197 -0.0132426 7.80982e-23)
(0.0862768 -0.0272934 0)
(0.15064 -0.0484188 -1.78458e-22)
(0.0860315 -0.0272201 -2.97518e-22)
(0.0422675 -0.0131969 1.20687e-24)
(0.0100564 -0.00311753 0)
(0.010067 -0.00311994 8.16975e-23)
(0.231561 -0.0761982 5.53232e-22)
(0.302666 -0.101797 0)
(0.358714 -0.123237 -2.36213e-22)
(0.39471 -0.13842 0)
(0.407124 -0.145622 0)
(0.395036 -0.144019 2.22502e-25)
(0.360482 -0.133886 -1.17224e-25)
(0.307944 -0.116501 1.81794e-25)
(0.243176 -0.093759 5.95042e-22)
(0.172065 -0.0677556 9.23962e-22)
(0.0999416 -0.0404302 0)
(0.0314961 -0.0131709 1.73512e-21)
(0.0100287 -0.00310964 0)
(0.0100274 -0.00310966 7.14862e-25)
(0.0421304 -0.0131531 0)
(0.0856909 -0.0271184 2.97801e-25)
(0.14964 -0.0481292 -6.55131e-22)
(0.0854383 -0.0270573 2.95399e-22)
(0.0419841 -0.0131081 0)
(0.00998461 -0.00309751 7.95631e-23)
(0.00999665 -0.00310004 8.01182e-23)
(0.230053 -0.075622 -2.73419e-25)
(0.300609 -0.100962 0)
(0.356227 -0.122179 0)
(0.391891 -0.137144 0)
(0.404102 -0.144179 -1.91844e-25)
(0.391939 -0.142474 -4.84847e-26)
(0.357438 -0.13232 1.17255e-25)
(0.305058 -0.114998 -1.07609e-22)
(0.240539 -0.0924096 -7.73833e-22)
(0.169845 -0.066678 0)
(0.0982455 -0.0396772 0)
(0.0317817 -0.0128507 0)
(0.00996053 -0.00308905 0)
(0.00995528 -0.00308781 7.90023e-23)
(0.0418417 -0.0130655 0)
(0.0851011 -0.0269905 3.08656e-22)
(0.148819 -0.0477015 3.45136e-25)
(0.0848791 -0.0269953 1.18873e-24)
(0.0416952 -0.0130227 0)