/*--------------------------------*- C++ -*----------------------------------*\
| =========                 |                                                 |
| \\      /  F ield         | OpenFOAM: The Open Source CFD Toolbox           |
|  \\    /   O peration     | Version:  v1912                                 |
|   \\  /    A nd           | Website:  www.openfoam.com                      |
|    \\/     M anipulation  |                                                 |
\*---------------------------------------------------------------------------*/
FoamFile
{
    version     2.0;
    format      ascii;
    class       volScalarField;
    location    "460";
    object      p;
}
// * * * * * * * * * * * * * * * * * * * * * * * * * * * * * * * * * * * * * //

dimensions      [0 2 -2 0 0 0 0];


internalField   nonuniform List<scalar> 
3673
(
0.00150068
0.00174439
0.00135275
0.00198794
0.00158673
0.00121285
0.00220023
0.00182315
0.00144122
0.00108494
0.00238855
0.00203282
0.00166986
0.00130707
0.00097004
0.00254209
0.00222201
0.00187376
0.00153473
0.00118787
0.000859601
0.00264921
0.00237637
0.0020617
0.00173717
0.00140789
0.00107201
0.000759892
0.00269493
0.00248495
0.00221923
0.00191807
0.0016014
0.0012852
0.000967418
0.000668733
0.00267198
0.00253662
0.00233369
0.00207282
0.00178117
0.00147749
0.00117791
0.000873035
0.00058224
0.00258317
0.00252587
0.00239867
0.0021937
0.00193519
0.00165377
0.00136573
0.00107725
0.000779964
0.000507414
0.00243874
0.0024451
0.00240771
0.00226847
0.00205128
0.00180257
0.00153548
0.00125998
0.000982747
0.000701281
0.000436719
0.00225835
0.00229455
0.00235728
0.00229546
0.00212714
0.001917
0.00167993
0.00142739
0.00116304
0.000897712
0.000626449
0.000373709
0.00209372
0.00206574
0.00225455
0.00228017
0.00215937
0.00198625
0.00178705
0.00156439
0.00132256
0.00106948
0.000819972
0.000558423
0.00031104
0.00201898
0.00176803
0.00209612
0.00222904
0.00214709
0.00200646
0.00185012
0.00166558
0.0014579
0.00122857
0.000992441
0.000747334
0.000494582
0.000259641
0.0014973
0.00178388
0.00203843
0.00184128
0.00216077
0.00209544
0.00197993
0.00186366
0.00172378
0.00155868
0.00136017
0.001144
0.000911234
0.000678544
0.000438937
0.000213202
0.00150788
0.00119983
0.00166185
0.00179897
0.00191833
0.00204842
0.00207094
0.00200955
0.00190434
0.00182588
0.00173252
0.00161159
0.00145147
0.00126625
0.00105908
0.000841319
0.00061887
0.00038714
0.000174041
0.00190504
0.00166043
0.00121089
0.00112926
0.00170844
0.00162723
0.00177441
0.00186634
0.00197672
0.00173825
0.00190155
0.00178483
0.0017416
0.00169151
0.001615
0.00150013
0.00135497
0.00118079
0.000986325
0.000777462
0.000565045
0.000345083
0.000140216
0.0017351
0.00164697
0.00169855
0.00162389
0.000757163
0.000947996
0.00162818
0.00173645
0.00154999
0.00160095
0.00167289
0.00184187
0.0017868
0.00196416
0.0016982
0.00163522
0.00161826
0.00160672
0.00156937
0.00150097
0.00139993
0.00126635
0.00110224
0.00091635
0.000720856
0.000517904
0.000307275
0.000112498
0.00146865
0.00147128
0.00147898
0.00148041
0.00165061
0.00165083
0.001571
0.000109208
0.00125133
0.00235501
0.00184025
0.00162131
0.00163919
0.00153915
0.00161225
0.00180467
0.00172177
0.00189535
0.00166562
0.00146146
0.00148357
0.00148047
0.00145352
0.00139603
0.00130705
0.00118149
0.00102921
0.000855974
0.000663976
0.000477027
0.000276045
9.21919e-05
0.00129479
0.0012991
0.00132005
0.00133318
0.00137405
0.001368
0.00134939
0.00147484
0.00147577
0.00157677
0.00188023
-0.00120616
0.00268783
0.00208303
0.0014939
0.00150614
0.00153531
0.00177392
0.00184183
0.00133061
0.00135598
0.00136143
0.00134417
0.00130057
0.00121856
0.00110345
0.000959319
0.000793221
0.000623848
0.000441794
0.000252114
7.65283e-05
0.00116229
0.0011448
0.00117997
0.00118832
0.00124374
0.0012488
0.00125275
0.00129484
0.00129671
0.00130301
0.00132562
0.00142042
0.00137534
-0.00371988
0.00120488
0.00123325
0.0012525
0.00124857
0.00121004
0.00113693
0.00102968
0.000895039
0.000748456
0.000582333
0.000412812
0.000232593
6.92534e-05
0.00103532
0.00100985
0.00104767
0.00104211
0.00109885
0.00110255
0.00112369
0.00118356
0.00116591
0.00119379
0.00122744
0.0012569
0.00124916
0.00108497
0.00112926
0.00115606
0.00115713
0.00112566
0.00105889
0.000960765
0.000842083
0.000701952
0.000551831
0.000393226
0.00022311
6.37953e-05
0.000918896
0.000882574
0.000920827
0.000910149
0.000964599
0.000955719
0.0009825
0.00104429
0.00101809
0.00104977
0.00109564
0.00114494
0.00112488
0.00098226
0.00103004
0.00106261
0.00107156
0.00104448
0.000984158
0.000898286
0.000790513
0.000666969
0.000525536
0.000377617
0.000215816
7.09079e-05
0.000816489
0.000764716
0.000807586
0.000785613
0.000835004
0.000822123
0.000847802
0.000906126
0.000878746
0.000903729
0.000950355
0.00100323
0.000977543
0.000879569
0.000938819
0.000978324
0.000986727
0.000965709
0.000914224
0.000838581
0.00074573
0.00063215
0.000505573
0.000367737
0.000215534
8.01976e-05
0.000715812
0.000662837
0.000701308
0.00067255
0.000718654
0.000698441
0.000723472
0.000776796
0.000750868
0.000770187
0.000810939
0.000861801
0.000840329
0.000790503
0.000854448
0.000894548
0.000910873
0.000891589
0.00084722
0.000785794
0.000707391
0.000612009
0.000494786
0.000364132
0.000225271
9.93019e-05
0.000626819
0.000564767
0.000601437
0.000569441
0.000611147
0.000585668
0.00061311
0.000659806
0.000633338
0.000647212
0.000686065
0.000731712
0.000712686
0.000704704
0.000772016
0.00081907
0.000830902
0.0008157
0.00078504
0.000741895
0.000680361
0.000594607
0.000488488
0.000369794
0.000239335
0.000114266
0.000541373
0.00047568
0.000512034
0.000473266
0.000512959
0.000484668
0.000507835
0.00055126
0.000526422
0.000532227
0.000577412
0.000613389
0.000595791
0.00062579
0.000695501
0.00073764
0.000750508
0.000743199
0.000728456
0.000705211
0.000659508
0.000585857
0.000486959
0.000378112
0.000249036
0.000141707
0.000462263
0.000391616
0.000428768
0.000385743
0.000422837
0.000391184
0.000410128
0.000450161
0.000434926
0.000432344
0.000472114
0.000507393
0.000487267
0.000549947
0.000620228
0.000661669
0.000669469
0.000673882
0.000681336
0.000679056
0.000646981
0.000578405
0.000491727
0.000388447
0.000276369
0.000173435
0.000388485
0.000312472
0.000352237
0.000304056
0.000339773
0.000305948
0.000322732
0.000359349
0.000345073
0.000344367
0.000369664
0.00040849
0.000395272
0.000480603
0.000547801
0.000572741
0.000586044
0.000612231
0.000648976
0.000662768
0.000636462
0.000580423
0.000497506
0.000412384
0.000302992
0.000211622
0.000321009
0.000235037
0.000283764
0.000228579
0.000262779
0.000226227
0.000242212
0.00027467
0.000263834
0.000260025
0.00028273
0.000316519
0.0003057
0.000409622
0.000461248
0.000479084
0.000506055
0.000568277
0.000631881
0.000652169
0.000630622
0.000580844
0.000515876
0.000430968
0.000340255
0.000256815
0.000250987
0.000163237
0.000216706
0.000154964
0.00019077
0.000152946
0.000169317
0.000198844
0.000186076
0.000180439
0.000202788
0.000231773
0.000225006
0.00033609
0.000369538
0.000378008
0.000442928
0.000550175
0.000622486
0.000642173
0.000626276
0.000586976
0.000529641
0.000465006
0.000379267
0.000305585
0.000188304
9.43995e-05
0.000151006
8.40087e-05
0.000125138
8.1958e-05
9.46106e-05
0.000125717
0.000118355
0.000108096
0.000130972
0.000157243
0.000146494
0.00025682
0.000248611
0.000283577
0.000421024
0.000548511
0.00061375
0.000631504
0.000621978
0.000595898
0.000553956
0.000499312
0.000426449
0.00036694
0.000120857
2.22933e-05
8.69543e-05
1.65426e-05
5.96976e-05
1.41254e-05
2.83358e-05
5.76045e-05
5.19912e-05
3.70773e-05
5.09321e-05
8.1964e-05
8.91222e-05
0.000143467
0.000117058
0.000246291
0.000432879
0.000550734
0.000596421
0.000614271
0.000621081
0.000610425
0.000585584
0.000543963
0.000482762
0.000436639
4.4096e-05
-5.45922e-05
2.38419e-05
-4.92991e-05
-6.58962e-06
-5.36415e-05
-3.3713e-05
-4.10435e-06
-1.66049e-05
-2.91164e-05
-1.42238e-05
1.39685e-05
2.25952e-05
-7.25287e-06
2.57199e-05
0.000280544
0.000463164
0.000530485
0.000566629
0.000600009
0.000621622
0.000632185
0.000620599
0.000595369
0.000547365
0.000516697
-5.70564e-05
-0.000140137
-3.49079e-05
-0.000125408
-7.36007e-05
-0.000120562
-9.87028e-05
-6.96865e-05
-8.08381e-05
-9.63256e-05
-7.3555e-05
-4.54263e-05
-4.74779e-05
-0.00021943
8.09685e-05
0.000362983
0.000445095
0.0004862
0.000536452
0.00058634
0.000630876
0.000657719
0.000666431
0.000650886
0.000624563
0.000607496
-0.000365161
-0.000232602
-9.80364e-05
-0.000199176
-0.000138889
-0.000195098
-0.000165651
-0.000133898
-0.000149684
-0.000160599
-0.000138619
-0.000111518
-0.000108778
-0.00021329
0.000263777
0.000349836
0.000380572
0.000438073
0.000507412
0.000578984
0.000640898
0.00068871
0.000710682
0.000729118
0.000709831
0.000710678
-0.00058502
-0.000555985
-0.000207411
-0.000256848
-0.000210115
-0.000278895
-0.000237127
-0.000198589
-0.000226467
-0.000230993
-0.000203139
-0.000176135
-0.000176715
0.00016926
0.000258053
0.000260484
0.000314959
0.000393211
0.000481592
0.000572365
0.000656332
0.000724862
0.000780079
0.000801745
0.000809627
0.000827165
4.15447e-05
-0.00045055
-0.000894261
-0.000285782
-0.000187649
-0.000381062
-0.000305982
-0.000276724
-0.000318349
-0.000312431
-0.00027741
-0.00024637
-0.000247658
0.000168873
0.000123757
0.000174379
0.000254601
0.000349648
0.000457648
0.000570648
0.000679759
0.000775371
0.0008427
0.000901095
0.000916699
0.000951169
3.24617e-05
-0.000115956
-9.94926e-05
-0.000554888
-0.00151199
-9.62797e-05
-0.000175068
-0.000300412
-0.0003776
-0.000418861
-0.000365909
-0.000321782
-0.00034368
-2.0655e-05
2.21923e-05
0.000103956
0.000198302
0.000309539
0.000434855
0.000571327
0.000707177
0.000827175
0.000931044
0.000994164
0.00104023
0.00110127
-0.000162692
-0.000212526
-0.000242295
-0.000258691
-8.85432e-05
-0.000145487
0.000473092
0.000284654
-0.00236467
-0.000233494
-0.000372899
-0.000403048
-0.00043774
-0.000132663
-4.63937e-05
4.11051e-05
0.000143052
0.000265804
0.000414255
0.000576612
0.000741917
0.00089349
0.0010165
0.00111696
0.00118149
0.00126433
-0.000270253
-0.000291505
-0.000301113
-0.000328773
-0.000335738
-0.00037014
-0.000409509
-0.000251962
-0.000290181
-6.60233e-06
-0.00459006
-0.000195464
-0.000113377
-2.70246e-05
8.32833e-05
0.000225111
0.000396532
0.000588596
0.000785224
0.000969795
0.00112142
0.00124978
0.00133714
0.00144225
-0.000335034
-0.000365785
-0.00036322
-0.000376777
-0.00035576
-0.000374788
-0.000389478
-0.000397211
-0.00037723
-0.00026001
-0.000186478
-9.51335e-05
2.68156e-05
0.000184471
0.000379712
0.000603451
0.00083571
0.00105012
0.00124412
0.00139458
0.00151079
0.0016452
-0.000401149
-0.000435843
-0.000426254
-0.000445832
-0.000417029
-0.000420296
-0.000423124
-0.000392595
-0.000396358
-0.000331818
-0.000259446
-0.000165268
-3.56361e-05
0.000141122
0.000366081
0.000625099
0.000892949
0.00115155
0.00137458
0.00156277
0.00170959
0.00186603
-0.000466821
-0.000506268
-0.00048782
-0.000513499
-0.000482617
-0.000498798
-0.000488974
-0.000447993
-0.000462706
-0.000407686
-0.000336717
-0.000239815
-0.000100616
9.91284e-05
0.000356613
0.000652069
0.000963811
0.00126783
0.00152531
0.00175391
0.00192016
0.00210454
-0.000540554
-0.000574762
-0.000551774
-0.00057824
-0.000549575
-0.000565466
-0.000556832
-0.000518519
-0.000532002
-0.000482262
-0.000415528
-0.000319957
-0.000166831
5.84278e-05
0.000349238
0.000689858
0.00105109
0.00138933
0.00169951
0.00194777
0.00216536
0.00236658
-0.000612444
-0.000645704
-0.000621494
-0.000645007
-0.000611936
-0.000634783
-0.000617798
-0.000585929
-0.000599666
-0.000562992
-0.000506747
-0.000408336
-0.000235976
1.64933e-05
0.000348277
0.000734394
0.00113757
0.00152928
0.00187819
0.00218754
0.00243491
0.00269135
-0.000689419
-0.000720337
-0.000690025
-0.000714417
-0.000679483
-0.000697583
-0.000684779
-0.000650946
-0.000664321
-0.000655328
-0.000607431
-0.000501538
-0.000309069
-2.1869e-05
0.000350922
0.000785072
0.00124217
0.00169115
0.00209301
0.00245358
0.00275688
0.00304348
-0.000774321
-0.000792353
-0.000761976
-0.000785234
-0.000749095
-0.000766247
-0.000751133
-0.000710946
-0.000729281
-0.000759439
-0.00071645
-0.000595379
-0.000378635
-5.78236e-05
0.000358845
0.000847327
0.00136856
0.00186496
0.00234053
0.00273256
0.003295
0.00127124
-0.000873781
-0.000870909
-0.000834875
-0.000854238
-0.000819856
-0.000834657
-0.000821164
-0.000784658
-0.000799446
-0.000882016
-0.000834514
-0.000689588
-0.000449417
-9.50078e-05
0.000371681
0.000919991
0.00149647
0.00207992
0.00256057
0.00334181
0.00148258
-0.000998255
-0.000958547
-0.000915949
-0.000927505
-0.000891916
-0.000902806
-0.000889991
-0.000853729
-0.000868883
-0.00102257
-0.000940207
-0.000787657
-0.000527454
-0.000131669
0.000391469
0.000999099
0.00166027
0.00223996
0.00312778
0.0015423
-0.00113646
-0.00115918
-0.00101972
-0.000990225
-0.000960726
-0.000981426
-0.000961768
-0.000926516
-0.000943167
-0.00113536
-0.00104787
-0.000893645
-0.000606807
-0.000163447
0.000415128
0.00110436
0.00176098
0.00272766
0.00139806
-0.00127162
-0.00118135
-0.00146963
-0.000965005
-0.00098719
-0.00106197
-0.00103947
-0.00100016
-0.00102029
-0.00123413
-0.00117186
-0.00100978
-0.000686709
-0.000195542
0.000458711
0.00115367
0.00215829
0.00112731
-0.00136402
-0.00134829
-0.00126247
-0.00144548
-0.00160222
-0.00216819
-0.00377072
0.00134943
-0.00118207
-0.00114547
-0.00108336
-0.00111056
-0.0013635
-0.00131459
-0.0011314
-0.000769156
-0.000214572
0.000458611
0.0014429
0.000771479
-0.00148684
-0.001452
-0.00139584
-0.00138992
-0.00139277
-0.00137799
-0.00140353
-0.00142069
-0.0014053
-0.00100458
-0.000730007
-0.00151943
-0.00146674
-0.00125461
-0.000846262
-0.000258325
0.000629684
0.000360002
-0.00164104
-0.00158304
-0.00151114
-0.00148652
-0.00146534
-0.0014321
-0.00141317
-0.00141923
-0.00141429
-0.00141567
-0.00141509
-0.00147992
-0.00148762
-0.00132308
-0.00169059
-0.00162453
-0.00138252
-0.000926732
-0.000208061
-6.71264e-05
-0.0018176
-0.00173516
-0.00165171
-0.00162487
-0.00158684
-0.00155063
-0.00152216
-0.0015064
-0.00147814
-0.00145357
-0.00143298
-0.00143752
-0.0014329
-0.00144592
-0.00145494
-0.00187185
-0.00179247
-0.00149246
-0.000993403
-0.00047525
-0.00201031
-0.00190931
-0.00181194
-0.00177612
-0.00173196
-0.00169562
-0.00165277
-0.00163878
-0.00160652
-0.00156768
-0.00153886
-0.00151958
-0.0014875
-0.0014697
-0.00144496
-0.00207281
-0.00193025
-0.00166338
-0.000831063
-0.0022358
-0.00210159
-0.00199214
-0.00194305
-0.00189858
-0.00185478
-0.00180695
-0.00178671
-0.00174827
-0.00171107
-0.00166863
-0.00165022
-0.00161681
-0.00158188
-0.00155023
-0.00224911
-0.00218752
-0.00111284
-0.00246489
-0.00233361
-0.00220174
-0.0021316
-0.00208478
-0.00203422
-0.00198166
-0.00195128
-0.00191002
-0.00186427
-0.00182406
-0.00179541
-0.00175859
-0.00172009
-0.00168151
-0.00258178
-0.00131801
-0.00291476
-0.00255854
-0.00243038
-0.0023553
-0.00229945
-0.00223753
-0.00218158
-0.00213791
-0.00208858
-0.00204161
-0.0019961
-0.00195762
-0.00192119
-0.00186958
-0.00183264
-0.00145818
-0.00168245
-0.00303066
-0.00273547
-0.00259086
-0.00252799
-0.00247285
-0.00240941
-0.00235307
-0.00229808
-0.00224168
-0.00218903
-0.00213691
-0.00209452
-0.00204585
-0.00200157
-0.00159665
-0.00320624
-0.00299267
-0.00288178
-0.00275417
-0.00266352
-0.00259106
-0.00252727
-0.00246959
-0.00241137
-0.00234977
-0.00229684
-0.00224136
-0.00218834
-0.00137003
-0.0033137
-0.00336221
-0.00311267
-0.00296388
-0.00286153
-0.0027569
-0.00266822
-0.00257596
-0.00251786
-0.0024603
-0.002405
-0.00134304
-0.00363883
-0.00337688
-0.00307888
-0.00294633
-0.00283425
-0.0027354
-0.00264785
-0.00164886
-0.00394063
-0.00335658
-0.00306336
-0.0606793
-0.0607565
-0.0596559
-0.0610911
-0.0607299
-0.0598195
-0.0591339
-0.0617513
-0.0613002
-0.0605574
-0.0600121
-0.059273
-0.0585509
-0.0619249
-0.0623892
-0.0618012
-0.0602309
-0.0592739
-0.0594146
-0.0586739
-0.0579277
-0.0625504
-0.0630412
-0.062761
-0.0630757
-0.0605725
-0.0577653
-0.0580594
-0.0587893
-0.0580536
-0.0573469
-0.0632023
-0.0637619
-0.0653573
-0.0631164
-0.0643731
-0.0608935
-0.0581208
-0.0553466
-0.0568364
-0.0581858
-0.0575815
-0.0574596
-0.0567575
-0.0638798
-0.0644335
-0.0680208
-0.0657419
-0.0657033
-0.0634413
-0.0645513
-0.0611877
-0.0584327
-0.0557137
-0.0556464
-0.0530193
-0.0544704
-0.0569919
-0.0563804
-0.0568874
-0.0561562
-0.065049
-0.0707689
-0.0684232
-0.0683922
-0.0670318
-0.0660738
-0.0658446
-0.0651912
-0.063737
-0.0614643
-0.0587154
-0.0560272
-0.053373
-0.0557794
-0.055191
-0.0533414
-0.0507565
-0.0521504
-0.0546167
-0.0540132
-0.056279
-0.0555335
-0.0656858
-0.0736148
-0.0711855
-0.0711519
-0.0697582
-0.068769
-0.0685378
-0.0678684
-0.0672139
-0.0665269
-0.0663679
-0.0640186
-0.0617548
-0.0589853
-0.0563062
-0.0536829
-0.0511038
-0.0556587
-0.0550732
-0.0534338
-0.0528765
-0.0510325
-0.0485621
-0.049919
-0.0518352
-0.0545044
-0.0538939
-0.0549595
-0.0664086
-0.0765473
-0.0740357
-0.073992
-0.0725626
-0.071543
-0.0713059
-0.070618
-0.0699473
-0.0692405
-0.069074
-0.0683744
-0.0677231
-0.0670947
-0.0666508
-0.0643148
-0.0620894
-0.0592651
-0.0565703
-0.0539559
-0.0514047
-0.0488971
-0.0532496
-0.0524757
-0.0508062
-0.0488287
-0.0464268
-0.0477378
-0.049715
-0.0514937
-0.0520849
-0.0543792
-0.0537848
-0.0794932
-0.0769428
-0.0769263
-0.075435
-0.0743955
-0.0741556
-0.0734498
-0.07276
-0.0720322
-0.0718565
-0.0711397
-0.0704703
-0.069827
-0.0691204
-0.0693642
-0.0669543
-0.0646601
-0.0625039
-0.0595886
-0.0568443
-0.0542143
-0.0516686
-0.0491864
-0.0467414
-0.0531772
-0.05261
-0.050928
-0.0503756
-0.0486208
-0.0466698
-0.0443398
-0.0456115
-0.0475355
-0.0492878
-0.0498407
-0.0825591
-0.0799067
-0.0798866
-0.0784172
-0.0773042
-0.0770666
-0.0763394
-0.0756321
-0.0748941
-0.074712
-0.0739907
-0.0733028
-0.0726406
-0.0719124
-0.0721558
-0.0696723
-0.0673098
-0.0650898
-0.0630261
-0.0599906
-0.0571571
-0.0544822
-0.0519193
-0.0494425
-0.0470234
-0.04464
-0.0487209
-0.0481827
-0.046447
-0.0445981
-0.042303
-0.0435409
-0.0453988
-0.0471182
-0.0476586
-0.0855147
-0.0830293
-0.0830095
-0.0814433
-0.0802891
-0.0799672
-0.0792385
-0.0787108
-0.0777941
-0.0776307
-0.0768749
-0.0761838
-0.0755186
-0.0747807
-0.0750144
-0.0724711
-0.0700345
-0.0677523
-0.0656305
-0.0636639
-0.0604957
-0.0575456
-0.0547893
-0.0521801
-0.0496869
-0.0472779
-0.044918
-0.0426064
-0.0465541
-0.0460145
-0.0444784
-0.0425337
-0.0403041
-0.0415201
-0.0433626
-0.0449083
-0.0454678
-0.086194
-0.0862078
-0.0845537
-0.0876354
-0.0881661
-0.0834108
-0.0831697
-0.0824129
-0.0816781
-0.0808392
-0.0806298
-0.0785419
-0.0776145
-0.0779424
-0.0753367
-0.0728412
-0.0704891
-0.0683077
-0.0662878
-0.0644048
-0.0611123
-0.0580329
-0.0551682
-0.052482
-0.0499423
-0.047519
-0.0451719
-0.0428801
-0.040619
-0.0443583
-0.0441778
-0.0423178
-0.0405352
-0.038365
-0.0395564
-0.0413179
-0.0428813
-0.0433787
-0.089471
-0.0866255
-0.0878665
-0.0864028
-0.0856067
-0.0848267
-0.083996
-0.0897935
-0.0896428
-0.0837403
-0.080953
-0.0782738
-0.0757176
-0.0733052
-0.0710599
-0.0689826
-0.0670485
-0.0652203
-0.0618314
-0.0586308
-0.0556419
-0.0528489
-0.0502352
-0.0477673
-0.0454092
-0.0431283
-0.040892
-0.0386774
-0.0442276
-0.042407
-0.041909
-0.0403408
-0.0385976
-0.036484
-0.0376444
-0.039371
-0.0409359
-0.0414362
-0.0427751
-0.0431974
-0.0899372
-0.0869524
-0.0888914
-0.0889307
-0.0880851
-0.0872409
-0.0915923
-0.0898265
-0.0913539
-0.0840678
-0.0812979
-0.0786701
-0.076194
-0.07389
-0.0717527
-0.0697635
-0.067883
-0.0660761
-0.0626256
-0.0593297
-0.0562214
-0.0533092
-0.0505924
-0.0480522
-0.045653
-0.043361
-0.0411349
-0.0389476
-0.036789
-0.0422935
-0.0418092
-0.0404415
-0.0399499
-0.0384134
-0.0367106
-0.034654
-0.0357808
-0.0374657
-0.0389899
-0.0394787
-0.0408294
-0.0413256
-0.0902706
-0.0872884
-0.0897176
-0.0888665
-0.0907333
-0.091604
-0.0844258
-0.0817087
-0.0791651
-0.0767964
-0.0746008
-0.0725534
-0.0706175
-0.0687579
-0.0669393
-0.0634619
-0.0601025
-0.0568975
-0.0538719
-0.0510395
-0.0483991
-0.0459308
-0.0435993
-0.0413636
-0.0391863
-0.0370538
-0.0349505
-0.0403288
-0.0398438
-0.0385037
-0.0380257
-0.0365302
-0.0348708
-0.0328734
-0.0339621
-0.0356046
-0.03709
-0.0375646
-0.0388806
-0.0393642
-0.0906145
-0.0876533
-0.0905914
-0.0895874
-0.0914569
-0.0848473
-0.0822233
-0.0797864
-0.0775273
-0.0754206
-0.073428
-0.071511
-0.0696385
-0.0677862
-0.0643077
-0.060918
-0.0576469
-0.0545292
-0.0515841
-0.0488299
-0.0462647
-0.0438657
-0.0415951
-0.0394099
-0.0372871
-0.0352086
-0.0331572
-0.0383908
-0.0379187
-0.0366149
-0.0361501
-0.034691
-0.0330744
-0.0311343
-0.0321848
-0.0337861
-0.0352368
-0.0356991
-0.0369808
-0.0374514
-0.0909884
-0.0880865
-0.0904444
-0.0912926
-0.0853757
-0.0828652
-0.0805376
-0.0783662
-0.0763137
-0.0743393
-0.0724085
-0.0705011
-0.0686052
-0.0651391
-0.0617436
-0.0584392
-0.0552554
-0.0522183
-0.0493552
-0.0466804
-0.0441881
-0.0418534
-0.0396364
-0.037505
-0.0354353
-0.0334068
-0.0314013
-0.0365031
-0.0360435
-0.0347727
-0.0343215
-0.0328924
-0.0313172
-0.0294342
-0.03046
-0.0320043
-0.0334302
-0.0338788
-0.035129
-0.0355884
-0.0914298
-0.0886293
-0.0860365
-0.0836371
-0.0813984
-0.0792784
-0.0772431
-0.0752525
-0.073286
-0.0713329
-0.0693824
-0.0659436
-0.0625564
-0.0592428
-0.0560239
-0.0529222
-0.0499687
-0.0471868
-0.0445886
-0.0421656
-0.0398887
-0.0377263
-0.0356479
-0.0336288
-0.0316454
-0.0296919
-0.0346631
-0.0342174
-0.032976
-0.0325359
-0.0311332
-0.0296287
-0.0277656
-0.0287651
-0.0303153
-0.0316607
-0.032099
-0.0333236
-0.0337701
-0.0919819
-0.0893053
-0.0868282
-0.0845175
-0.0823302
-0.0802259
-0.0781727
-0.0761443
-0.074131
-0.0721222
-0.0701147
-0.0667082
-0.0633446
-0.0600355
-0.0568045
-0.0536678
-0.0506488
-0.0477782
-0.0450751
-0.0425489
-0.0401905
-0.0379706
-0.0358625
-0.0338357
-0.0318662
-0.0299324
-0.0280296
-0.0328702
-0.0324322
-0.0312042
-0.0307673
-0.0295045
-0.0279423
-0.0261348
-0.0271128
-0.0286006
-0.0299562
-0.0303462
-0.0315542
-0.0319945
-0.0926723
-0.0901138
-0.087728
-0.0854672
-0.0832941
-0.0811716
-0.0790789
-0.0770026
-0.0749322
-0.0728642
-0.0707937
-0.06743
-0.0640949
-0.0608048
-0.0575752
-0.0544251
-0.0513698
-0.0484336
-0.0456423
-0.0430156
-0.0405608
-0.0382616
-0.0360996
-0.0340462
-0.0320723
-0.0301521
-0.0282678
-0.0264046
-0.0310957
-0.0306388
-0.0296389
-0.0290831
-0.0277596
-0.0263085
-0.0245597
-0.0255006
-0.0269397
-0.0282376
-0.0286686
-0.0296776
-0.0301677
-0.0934989
-0.0910312
-0.0886954
-0.0864468
-0.0842536
-0.0820917
-0.0799502
-0.0778163
-0.0756858
-0.0735532
-0.0714134
-0.0681008
-0.0648033
-0.0615374
-0.0583236
-0.0551732
-0.0521032
-0.0491292
-0.0462731
-0.0435617
-0.0410094
-0.0386185
-0.036381
-0.0342782
-0.0322793
-0.0303566
-0.0284836
-0.0266428
-0.0248221
-0.0297118
-0.0288643
-0.0278374
-0.0274207
-0.0261369
-0.0247128
-0.0230535
-0.0239145
-0.0253338
-0.02662
-0.0270324
-0.0281313
-0.0285099
-0.0944336
-0.0920149
-0.0896895
-0.0874197
-0.0851858
-0.0829755
-0.0807762
-0.0785815
-0.0763858
-0.0741805
-0.0719703
-0.0687126
-0.065463
-0.0622291
-0.0590367
-0.0558999
-0.052828
-0.0498379
-0.0469437
-0.0441685
-0.0415319
-0.0390498
-0.0367255
-0.0345519
-0.0325043
-0.0305589
-0.0286846
-0.0268554
-0.0250568
-0.0232964
-0.0298549
-0.0287637
-0.0277395
-0.0273367
-0.0262198
-0.0258131
-0.0245361
-0.023141
-0.0215211
-0.0223364
-0.0237371
-0.0250199
-0.0254246
-0.0265363
-0.0269422
-0.0280426
-0.0284185
-0.0954329
-0.0930239
-0.0906745
-0.0883631
-0.0860803
-0.0838133
-0.0815537
-0.0792941
-0.0770248
-0.0747434
-0.0724651
-0.0692643
-0.066067
-0.0628728
-0.059709
-0.0565923
-0.0535325
-0.0505385
-0.0476269
-0.0448126
-0.0421132
-0.0395527
-0.0371396
-0.0348823
-0.032768
-0.0307792
-0.0288836
-0.0270538
-0.0252666
-0.023517
-0.0217969
-0.0276438
-0.0272482
-0.0261347
-0.0257322
-0.0246213
-0.0242238
-0.0229641
-0.0210469
-0.0200602
-0.0219598
-0.0234616
-0.023841
-0.0249366
-0.0253375
-0.0264429
-0.0268428
-0.0964546
-0.0940204
-0.0916281
-0.0892674
-0.0869278
-0.0846027
-0.0822786
-0.0799468
-0.0776017
-0.0752445
-0.0729028
-0.0697587
-0.0666119
-0.0634603
-0.0603335
-0.0572448
-0.0542035
-0.0512199
-0.048303
-0.0454696
-0.042732
-0.0401096
-0.03762
-0.0352782
-0.0330856
-0.0310314
-0.0290958
-0.0272481
-0.0254601
-0.0237202
-0.0220127
-0.0203251
-0.0260349
-0.0256401
-0.0245384
-0.02414
-0.0231255
-0.0229186
-0.021358
-0.0197277
-0.0206151
-0.0186362
-0.0220118
-0.0233454
-0.0237475
-0.0248423
-0.0252376
-0.0974607
-0.0949831
-0.0925407
-0.0901238
-0.0877261
-0.0853403
-0.0829453
-0.0805392
-0.0781188
-0.075691
-0.0732897
-0.0702026
-0.0671007
-0.0639906
-0.0609025
-0.0578502
-0.0548355
-0.0518686
-0.0489603
-0.0461198
-0.0433628
-0.0407014
-0.0381529
-0.0357372
-0.0334641
-0.0313342
-0.02934
-0.0274544
-0.0256498
-0.0239079
-0.0222098
-0.0205425
-0.0188917
-0.0244409
-0.0240508
-0.0229059
-0.0222043
-0.0214445
-0.0210657
-0.0199078
-0.0183328
-0.0191932
-0.0206991
-0.0203244
-0.0172475
-0.0221829
-0.0218147
-0.0232674
-0.0236557
-0.0984313
-0.0959033
-0.0934041
-0.0909304
-0.0884727
-0.0860201
-0.083553
-0.0810744
-0.078585
-0.0760911
-0.0736284
-0.0706037
-0.0675413
-0.0644655
-0.0614153
-0.0584012
-0.0554211
-0.0524788
-0.0495863
-0.0467526
-0.0439874
-0.0413053
-0.038719
-0.0362455
-0.0339015
-0.031695
-0.0296296
-0.0276885
-0.0258507
-0.0240927
-0.0223925
-0.0207366
-0.0191075
-0.0174878
-0.0228753
-0.0224633
-0.0199543
-0.0196032
-0.0184779
-0.0169896
-0.0177728
-0.0192601
-0.0188939
-0.0158931
-0.0993572
-0.0967729
-0.0942167
-0.0916846
-0.0891616
-0.0866401
-0.0841042
-0.0815603
-0.0790122
-0.0764577
-0.0739016
-0.0709664
-0.0679408
-0.0648895
-0.0618718
-0.0588946
-0.0559529
-0.0530442
-0.0501757
-0.0473553
-0.0445951
-0.0419037
-0.0392967
-0.0367849
-0.0343845
-0.03211
-0.0299707
-0.0279641
-0.0260761
-0.0242845
-0.0225711
-0.0209156
-0.0192978
-0.0177027
-0.0161191
-0.0185244
-0.0181853
-0.0170565
-0.0156701
-0.0164314
-0.0178489
-0.0174904
-0.0145493
-0.100231
-0.0975908
-0.0949762
-0.0923813
-0.0897924
-0.0872031
-0.0846069
-0.0820084
-0.079412
-0.0768054
-0.0741375
-0.0712967
-0.0682988
-0.0652679
-0.0622764
-0.0593345
-0.0564315
-0.0535589
-0.0507219
-0.0479221
-0.0451738
-0.042486
-0.039868
-0.0373345
-0.0348962
-0.0325672
-0.0303633
-0.0282882
-0.0263387
-0.0245008
-0.0227561
-0.0210869
-0.0194712
-0.0178921
-0.016331
-0.014784
-0.0171047
-0.0167355
-0.0158652
-0.0142721
-0.0150202
-0.0163633
-0.0159445
-0.0132374
-0.101052
-0.0983549
-0.0956771
-0.093018
-0.0903661
-0.0877152
-0.0850669
-0.0824238
-0.0797902
-0.0771514
-0.071607
-0.0737086
-0.0749425
-0.0686154
-0.0656021
-0.0626383
-0.0597286
-0.0568601
-0.0540217
-0.0512191
-0.0484477
-0.0457184
-0.0430405
-0.0404243
-0.0378784
-0.0354177
-0.0330518
-0.0307952
-0.0286579
-0.0266449
-0.0247502
-0.0229632
-0.0212664
-0.019638
-0.0180642
-0.0165197
-0.0149932
-0.0134754
-0.0160444
-0.0152898
-0.0143664
-0.0129609
-0.0137153
-0.0150235
-0.0147165
-0.0119561
-0.101818
-0.0990596
-0.0963189
-0.0935953
-0.090886
-0.0881816
-0.085486
-0.0827973
-0.0801213
-0.0765868
-0.0781122
-0.0688799
-0.071084
-0.072445
-0.073884
-0.0748734
-0.0658919
-0.0629637
-0.0600836
-0.057244
-0.0544365
-0.0516675
-0.0489264
-0.046224
-0.0435632
-0.0409536
-0.0384078
-0.0359336
-0.0335449
-0.0312512
-0.0290637
-0.0269933
-0.025039
-0.0231993
-0.0214613
-0.0198116
-0.0182287
-0.0166903
-0.0151802
-0.0136844
-0.0121952
-0.0162553
-0.0152058
-0.0144197
-0.0140918
-0.0130812
-0.0116875
-0.0124342
-0.0137845
-0.0134539
-0.0149483
-0.0146562
-0.0107034
-0.102525
-0.0997026
-0.0969032
-0.0941211
-0.0913583
-0.0886046
-0.0858568
-0.0831071
-0.0795318
-0.081065
-0.0768079
-0.0782222
-0.0661397
-0.0683416
-0.0696784
-0.0711444
-0.0725738
-0.0737766
-0.0745553
-0.0758467
-0.0743685
-0.0632529
-0.0604055
-0.0575922
-0.0548124
-0.0520709
-0.0493592
-0.0466862
-0.0440486
-0.0414527
-0.0389121
-0.0364357
-0.0340322
-0.0317145
-0.0294919
-0.0273727
-0.0253654
-0.0234716
-0.0216852
-0.0199982
-0.0183946
-0.01685
-0.0153483
-0.0138699
-0.0124048
-0.010944
-0.0143318
-0.0140111
-0.0131324
-0.0128095
-0.0118051
-0.0104366
-0.0111685
-0.0124947
-0.0121691
-0.0137076
-0.0133786
-0.00947412
-0.103172
-0.100288
-0.097434
-0.0946017
-0.0917875
-0.0889794
-0.086169
-0.0825258
-0.084082
-0.0796522
-0.081151
-0.0765868
-0.0772544
-0.0786281
-0.0778768
-0.0635036
-0.0656547
-0.0669657
-0.0684187
-0.0697631
-0.0708822
-0.071548
-0.0729668
-0.0722761
-0.0736618
-0.0744731
-0.0734944
-0.0606936
-0.0579089
-0.055154
-0.0524362
-0.0497519
-0.0471052
-0.0444923
-0.0419175
-0.0393882
-0.0369137
-0.0345062
-0.0321728
-0.0299262
-0.027772
-0.0257211
-0.0237765
-0.02194
-0.0202084
-0.0185696
-0.0170071
-0.0155034
-0.0140352
-0.0125889
-0.0111542
-0.00971979
-0.0130385
-0.0127212
-0.0118496
-0.0115338
-0.0105463
-0.00920398
-0.00992105
-0.0112229
-0.0109039
-0.0124142
-0.0120895
-0.00826555
-0.103759
-0.100822
-0.0979194
-0.0950403
-0.0921709
-0.0893017
-0.0855883
-0.0871678
-0.0826536
-0.0841841
-0.0793626
-0.0801196
-0.0815898
-0.0808337
-0.0609422
-0.0630369
-0.0643251
-0.0657471
-0.0670691
-0.0681641
-0.0688319
-0.0701693
-0.0695024
-0.0709198
-0.0715886
-0.0729684
-0.0722857
-0.0581917
-0.0554648
-0.0527702
-0.0501094
-0.047485
-0.0448967
-0.0423438
-0.0398313
-0.0373653
-0.0349571
-0.0326183
-0.0303543
-0.028177
-0.0260927
-0.0241052
-0.0222241
-0.0204451
-0.0187645
-0.0171729
-0.0156538
-0.0141863
-0.0127508
-0.0113369
-0.009933
-0.00851961
-0.0117562
-0.0114452
-0.0105882
-0.0102776
-0.00930495
-0.00798675
-0.0086891
-0.00997172
-0.00965729
-0.0111429
-0.0108239
-0.00707265
-0.104295
-0.101314
-0.0983658
-0.0954347
-0.0925055
-0.0887149
-0.0903231
-0.08572
-0.0872785
-0.082362
-0.0831287
-0.08463
-0.0838618
-0.0584359
-0.0604794
-0.0617448
-0.0631304
-0.0644271
-0.0654921
-0.0661528
-0.0674712
-0.0668068
-0.0682061
-0.068872
-0.0702155
-0.0695444
-0.0557429
-0.0530748
-0.0504364
-0.0478324
-0.0452651
-0.042733
-0.0402393
-0.0377873
-0.0353841
-0.0330422
-0.0307703
-0.0285753
-0.0264671
-0.0244487
-0.0225278
-0.0207052
-0.0189818
-0.0173543
-0.0158104
-0.0143291
-0.0128937
-0.0114924
-0.0101128
-0.00873682
-0.00733762
-0.0104963
-0.01019
-0.00934403
-0.00903889
-0.00807692
-0.00678012
-0.00746869
-0.00873591
-0.00842528
-0.00989204
-0.00957688
-0.00589265
-0.104791
-0.101767
-0.0987704
-0.0957824
-0.0919103
-0.0935506
-0.0888499
-0.0904403
-0.0854223
-0.0862024
-0.0877339