/*--------------------------------*- C++ -*----------------------------------*\
| =========                 |                                                 |
| \\      /  F ield         | OpenFOAM: The Open Source CFD Toolbox           |
|  \\    /   O peration     | Version:  v1912                                 |
|   \\  /    A nd           | Website:  www.openfoam.com                      |
|    \\/     M anipulation  |                                                 |
\*---------------------------------------------------------------------------*/
FoamFile
{
    version     2.0;
    format      ascii;
    class       volVectorField;
    location    "460";
    object      U;
}
// * * * * * * * * * * * * * * * * * * * * * * * * * * * * * * * * * * * * * //

dimensions      [0 1 -1 0 0 0 0];


internalField   nonuniform List<vector> 
3673
(
(0.0770779 0.0260613 -6.27683e-22)
(0.231411 0.0767091 6.61996e-25)
(0.0765621 0.0258889 0)
(0.383389 0.124637 0)
(0.229958 0.0762336 -6.62291e-25)
(0.0760722 0.0257239 0)
(0.527966 0.168407 0)
(0.381086 0.123897 0)
(0.228537 0.0757646 0)
(0.0755843 0.0255624 -4.57172e-22)
(0.658442 0.206172 0)
(0.524945 0.167446 0)
(0.378815 0.123165 0)
(0.227131 0.0753061 0)
(0.0751088 0.0254035 4.55723e-22)
(0.767156 0.235859 0)
(0.654763 0.205006 5.22017e-25)
(0.52193 0.16649 0)
(0.376586 0.122452 0)
(0.225764 0.074856 -4.39708e-22)
(0.0746357 0.025245 0)
(0.846638 0.255588 0)
(0.762902 0.234508 2.75859e-22)
(0.651129 0.203861 -5.2153e-25)
(0.518964 0.165551 0)
(0.374367 0.121735 0)
(0.224389 0.0743996 0)
(0.0741606 0.0250878 0)
(0.890612 0.263938 -2.76345e-22)
(0.841825 0.25405 -2.58641e-22)
(0.758691 0.233182 0)
(0.647501 0.202722 2.48531e-22)
(0.516006 0.164611 0)
(0.372163 0.121022 -3.99903e-25)
(0.223014 0.0739476 0)
(0.0736927 0.0249325 -6.12082e-22)
(0.894828 0.26018 5.73488e-24)
(0.885181 0.262195 4.95548e-25)
(0.837042 0.252541 0)
(0.754498 0.231871 1.56045e-23)
(0.643901 0.201593 0)
(0.51304 0.163672 0)
(0.369953 0.120309 3.99857e-25)
(0.221653 0.073498 3.14459e-22)
(0.0732212 0.0247751 0)
(0.857765 0.24447 2.77149e-22)
(0.888693 0.258213 2.55084e-22)
(0.879779 0.260489 -2.47223e-22)
(0.832287 0.251057 -2.26391e-22)
(0.750294 0.230562 -4.12948e-25)
(0.640274 0.200457 0)
(0.51007 0.162728 0)
(0.367746 0.119593 -3.34405e-25)
(0.220271 0.0730419 0)
(0.072754 0.0246187 0)
(0.781152 0.217974 5.58761e-25)
(0.850849 0.242265 -2.60821e-22)
(0.882574 0.256289 2.46293e-22)
(0.87441 0.258821 2.33141e-22)
(0.827524 0.249581 0)
(0.746089 0.229253 4.12688e-25)
(0.63663 0.199313 0)
(0.507094 0.161781 0)
(0.365539 0.118879 9.44983e-25)
(0.218911 0.0725917 0)
(0.0722909 0.0244616 0)
(0.67 0.182808 -3.35458e-24)
(0.773425 0.215535 -2.44107e-22)
(0.84392 0.240115 -2.41718e-22)
(0.876521 0.25443 -2.1188e-24)
(0.869075 0.257178 8.80172e-25)
(0.822762 0.248105 -2.06846e-22)
(0.741852 0.227933 0)
(0.632976 0.198163 0)
(0.504117 0.16083 0)
(0.363309 0.118153 -8.89444e-25)
(0.217559 0.0721429 0)
(0.0718295 0.0243038 0)
(0.532048 0.141771 2.48998e-24)
(0.661479 0.18016 3.35183e-23)
(0.76559 0.213154 2.58105e-22)
(0.837129 0.238078 -4.78169e-22)
(0.870584 0.252624 1.77958e-24)
(0.863773 0.255544 2.00024e-22)
(0.817986 0.246625 0)
(0.737587 0.226603 0)
(0.629296 0.197004 -3.45494e-22)
(0.501119 0.159872 0)
(0.361115 0.11744 3.01555e-22)
(0.216218 0.0716935 2.66645e-22)
(0.0713781 0.024155 0)
(0.37677 0.0978664 0)
(0.522714 0.138981 2.70491e-22)
(0.652608 0.177527 2.40881e-22)
(0.758039 0.210971 2.54639e-22)
(0.830601 0.236133 -2.25363e-22)
(0.864762 0.250848 -1.54677e-24)
(0.858491 0.253918 0)
(0.813189 0.245141 -6.67435e-25)
(0.733317 0.225272 3.14687e-22)
(0.625624 0.195848 0)
(0.498144 0.15892 -2.55838e-22)
(0.358939 0.116726 -2.17061e-22)
(0.214887 0.0712496 0)
(0.0709205 0.0240041 0)
(0.366487 0.0950768 -5.21138e-23)
(0.251057 0.0640934 -1.98031e-24)
(0.254308 0.064989 -1.29106e-22)
(0.512371 0.136019 -2.82943e-22)
(0.644295 0.175237 2.05896e-24)
(0.751054 0.208948 2.36545e-22)
(0.824364 0.234259 -1.56935e-24)
(0.859047 0.249105 1.54851e-24)
(0.853231 0.252302 1.3363e-24)
(0.808395 0.243658 1.29027e-24)
(0.72903 0.223935 -9.11336e-25)
(0.621944 0.194682 0)
(0.495175 0.157963 0)
(0.356763 0.116012 2.52687e-22)
(0.21357 0.0708103 0)
(0.0704725 0.0238532 0)
(0.352804 0.0914492 6.07982e-23)
(0.238667 0.0607982 8.64152e-23)
(0.246063 0.0629563 0)
(0.167474 0.0422434 1.86586e-24)
(0.169715 0.0427391 9.34413e-23)
(0.256676 0.0654713 0)
(0.503274 0.133591 -6.76074e-26)
(0.637085 0.173213 3.68897e-24)
(0.7446 0.207042 2.09595e-22)
(0.818351 0.232449 3.02538e-24)
(0.853419 0.247393 1.74139e-22)
(0.848001 0.250696 -1.66852e-22)
(0.803598 0.242174 -9.13684e-25)
(0.724755 0.222597 2.89683e-25)
(0.618282 0.193522 2.78192e-22)
(0.492247 0.157019 -2.14731e-22)
(0.354628 0.11531 -2.32118e-22)
(0.212253 0.0703714 -1.94584e-22)
(0.0700347 0.0237064 0)
(0.342685 0.0886612 4.37587e-24)
(0.220363 0.056309 -2.20931e-22)
(0.228623 0.057986 6.6388e-23)
(0.15572 0.0392586 0)
(0.163713 0.0413436 2.1209e-23)
(0.103753 0.0259514 -3.4682e-23)
(0.104573 0.0261344 7.19372e-23)
(0.105539 0.0263334 2.97476e-25)
(0.171143 0.0430694 0)
(0.105139 0.026225 3.69803e-23)
(0.49628 0.131632 2.61843e-22)
(0.630813 0.171392 -2.34366e-22)
(0.738577 0.205262 1.88357e-22)
(0.812543 0.230709 -1.82797e-22)
(0.847882 0.245712 4.13217e-24)
(0.842801 0.249103 0)
(0.79882 0.240695 2.90496e-25)
(0.720492 0.221264 -2.52929e-22)
(0.614645 0.192367 2.59328e-22)
(0.489327 0.156076 1.97265e-22)
(0.352522 0.114618 1.58106e-22)
(0.210981 0.0699445 -1.76355e-22)
(0.0696054 0.0235622 -1.57325e-22)
(0.336824 0.0868469 -3.01734e-22)
(0.212376 0.0538555 1.67935e-24)
(0.2152 0.0547451 0)
(0.13132 0.033163 1.02707e-22)
(0.141474 0.035299 -5.7206e-23)
(0.0911332 0.0225072 2.01771e-24)
(0.0971345 0.0245357 -1.6723e-24)
(0.102557 0.0257619 0)
(0.100557 0.0252399 -1.80088e-25)
(0.0607776 0.0150939 4.81877e-25)
(0.0612364 0.0151795 -3.29259e-23)
(0.105908 0.0264112 -2.97549e-25)
(0.0617299 0.0152864 3.2697e-23)
(0.106204 0.0264899 -3.96642e-23)
(0.0615039 0.015236 0)
(0.490738 0.130045 -2.20535e-22)
(0.625176 0.16976 -2.09427e-22)
(0.73288 0.20359 0)
(0.806904 0.229025 3.31972e-22)
(0.842428 0.244061 -6.25058e-25)
(0.837641 0.247522 0)
(0.794067 0.239224 1.36633e-22)
(0.71626 0.219936 -2.35803e-22)
(0.611061 0.191225 -2.14859e-25)
(0.486478 0.155151 2.22429e-22)
(0.350431 0.113924 1.43611e-22)
(0.209731 0.0695245 -6.88337e-23)
(0.06918 0.0234199 0)
(0.332896 0.0857616 2.6108e-22)
(0.209084 0.0528488 -1.50575e-24)
(0.210374 0.0532114 -1.68164e-24)
(0.125662 0.0313625 1.4278e-24)
(0.127327 0.0319086 -2.4501e-23)
(0.0622691 0.0157116 3.23381e-23)
(0.0649133 0.0164194 -3.56805e-23)
(0.0800558 0.0188505 -4.25339e-24)
(0.0703425 0.0179548 4.56325e-25)
(0.0517822 0.0121352 1.76107e-24)
(0.0563757 0.0141067 0)
(0.0600806 0.0149682 0)
(0.0588237 0.014725 -3.00479e-23)
(0.0196211 0.00482792 -1.80367e-25)
(0.0197406 0.00485169 1.80459e-25)
(0.0619188 0.0153372 -3.33808e-23)
(0.0198824 0.00488539 -4.51131e-25)
(0.0620846 0.0153718 3.63129e-23)
(0.0198334 0.00487795 -2.44363e-23)
(0.486016 0.128724 -2.00316e-22)
(0.62 0.168279 1.77108e-22)
(0.727454 0.202003 -3.34379e-22)
(0.801423 0.227391 -1.50777e-22)
(0.837048 0.242434 -1.40791e-22)
(0.832522 0.245955 -2.66075e-22)
(0.789346 0.23776 -2.53386e-25)
(0.712072 0.218619 0)
(0.607518 0.190089 -1.95451e-22)
(0.483657 0.154228 0)
(0.348405 0.113252 1.30315e-22)
(0.208504 0.0691109 0)
(0.0687652 0.0232807 3.99772e-23)
(0.329728 0.0849774 2.7885e-22)
(0.207054 0.0523915 1.4146e-24)
(0.207899 0.052585 8.85707e-23)
(0.123951 0.0308966 2.05133e-23)
(0.124628 0.0310819 1.97507e-23)
(0.0601118 0.0148741 -2.78822e-23)
(0.0603078 0.0149381 -4.6128e-25)
(0.0611543 0.0152178 3.25907e-23)
(0.0605823 0.0150336 -2.9318e-23)
(0.0201393 0.00508066 -2.60547e-23)
(0.021545 0.00562956 3.80551e-23)
(0.0347433 0.00599414 -1.48918e-24)
(0.0238449 0.00628341 -9.53973e-24)
(0.0169394 0.004345 -3.50716e-23)
(0.0181491 0.00464573 -2.1962e-23)
(0.0194326 0.00479414 -2.16409e-23)
(0.0190571 0.00473599 -2.19041e-23)
(0.0199321 0.00490117 2.13269e-25)
(0.0199789 0.00490943 2.6975e-23)
(0.481813 0.127572 -2.0374e-22)
(0.61516 0.166903 1.77668e-22)
(0.722235 0.20048 3.07821e-22)
(0.796047 0.225793 7.63134e-24)
(0.831734 0.240829 1.34066e-22)
(0.827451 0.244402 0)
(0.784677 0.236309 0)
(0.707946 0.217313 0)
(0.60403 0.188967 2.09423e-22)
(0.480902 0.153326 1.93424e-22)
(0.346423 0.11259 0)
(0.207306 0.0687051 0)
(0.0683569 0.0231443 0)
(0.326945 0.0842895 4.76576e-23)
(0.205345 0.0520061 -7.55924e-23)
(0.206082 0.0521847 -5.43098e-24)
(0.122891 0.0306655 0)
(0.123377 0.030779 -8.22101e-23)
(0.059626 0.0147422 2.54638e-23)
(0.0596949 0.0147715 -2.67087e-23)
(0.0599231 0.0148254 2.65983e-23)
(0.0598053 0.0148011 -2.76039e-23)
(0.0192883 0.00474156 3.93117e-23)
(0.0193482 0.0047634 -1.97828e-23)
(0.0196404 0.00486283 0)
(0.0194334 0.00478783 4.17237e-23)
(0.00963759 0.00153528 3.2506e-24)
(0.477954 0.12652 -1.44758e-24)
(0.610553 0.165599 -3.09519e-22)
(0.71717 0.19901 1.47934e-22)
(0.790776 0.22423 0)
(0.826486 0.239245 0)
(0.822431 0.242864 0)
(0.780064 0.23487 1.10633e-22)
(0.703874 0.216022 -8.57513e-23)
(0.60062 0.187863 -1.70098e-22)
(0.478212 0.152438 -1.80917e-22)
(0.344482 0.111941 1.60157e-22)
(0.206129 0.068309 0)
(0.0679612 0.0230134 -3.01205e-23)
(0.324376 0.0836375 -4.2058e-23)
(0.20377 0.0516241 -7.30532e-23)
(0.204448 0.0518012 -7.00873e-23)
(0.121958 0.0304589 8.61213e-23)
(0.122416 0.0305683 -7.34365e-23)
(0.0592358 0.0146549 0)
(0.0593041 0.0146843 -2.31474e-23)
(0.059494 0.0147198 2.42555e-23)
(0.0594081 0.0147036 2.38753e-23)
(0.0191532 0.00470471 -2.51415e-25)
(0.0191689 0.00471579 -1.83372e-23)
(0.0192417 0.00472759 -2.66621e-25)
(0.0191917 0.0047199 1.86305e-23)
(0.474297 0.125529 1.69967e-22)
(0.606127 0.164355 -1.34893e-22)
(0.712221 0.197576 -1.24933e-22)
(0.785585 0.222692 1.18209e-22)
(0.821299 0.23768 1.13048e-22)
(0.817469 0.241338 7.59526e-25)
(0.775515 0.233446 -9.82609e-23)
(0.699886 0.214747 0)
(0.597288 0.186776 1.5907e-22)
(0.475602 0.151573 -1.35772e-22)
(0.342603 0.11131 -1.24902e-25)
(0.204996 0.067925 0)
(0.0675696 0.0228862 2.77909e-23)
(0.321936 0.083012 7.16427e-25)
(0.202267 0.0512504 6.86808e-24)
(0.202923 0.0514248 6.09436e-23)
(0.121048 0.0302386 1.39777e-23)
(0.12149 0.0303518 7.92534e-23)
(0.0588269 0.0145616 -2.0556e-23)
(0.0589004 0.0145925 -2.01594e-23)
(0.0590971 0.0146314 8.30574e-25)
(0.0590096 0.0146131 -1.00782e-24)
(0.0190383 0.004677 1.57291e-23)
(0.0190577 0.00468877 1.98264e-25)
(0.0191203 0.00469682 -1.75203e-23)
(0.0190776 0.00469089 -2.89475e-25)
(0.470793 0.124581 1.54456e-22)
(0.601825 0.163143 1.38606e-22)
(0.707369 0.196171 -1.26457e-22)
(0.780461 0.221175 -1.17078e-22)
(0.816165 0.236128 -3.71321e-24)
(0.812563 0.239824 1.00124e-22)
(0.771039 0.232034 0)
(0.695987 0.213489 0)
(0.594052 0.185711 -1.74781e-22)
(0.473042 0.150716 0)
(0.340753 0.110684 1.24825e-25)
(0.20387 0.0675441 -1.19153e-22)
(0.0671698 0.0227506 -3.0898e-23)
(0.31958 0.0823989 3.1568e-23)
(0.200803 0.0508815 -4.97069e-23)
(0.201436 0.0510513 5.27622e-23)
(0.120164 0.0300222 5.37597e-23)
(0.120603 0.0301342 -4.39677e-23)
(0.058407 0.0144587 0)
(0.0584803 0.0144888 -3.54385e-23)
(0.0586821 0.0145334 0)
(0.0585902 0.014513 -1.0205e-24)
(0.018909 0.00464631 1.03651e-25)
(0.018933 0.00465875 1.45089e-23)
(0.0190024 0.00466892 3.03659e-23)
(0.0189577 0.00466208 -2.87058e-25)
(0.467401 0.123658 2.39299e-25)
(0.597613 0.161959 -1.09747e-22)
(0.7026 0.194792 1.04698e-22)
(0.775386 0.21967 -1.08256e-22)
(0.811073 0.234585 -1.00319e-22)
(0.807723 0.238321 -9.26634e-23)
(0.76665 0.230637 1.67719e-25)
(0.692176 0.212248 1.59035e-22)
(0.590888 0.184662 0)
(0.470562 0.149883 0)
(0.338962 0.110077 9.66931e-23)
(0.202749 0.0671626 0)
(0.066782 0.0226196 -3.22265e-26)
(0.317288 0.0817993 -2.57636e-23)
(0.199372 0.0505137 -4.26196e-23)
(0.199997 0.050684 -5.11342e-23)
(0.119297 0.0298084 3.61616e-23)
(0.119729 0.0299173 -7.07724e-23)
(0.0579861 0.0143566 0)
(0.0580638 0.0143868 -1.47e-23)
(0.0582647 0.014431 -1.57135e-23)
(0.0581744 0.0144111 -1.62644e-23)
(0.0187731 0.00461261 1.16096e-23)
(0.0187996 0.00462502 2.62269e-25)
(0.0188694 0.00463722 1.28532e-23)
(0.018824 0.00463023 -2.5557e-23)
(0.4641 0.122761 2.26689e-23)
(0.593475 0.160794 -1.16419e-22)
(0.697867 0.193424 -1.91298e-25)
(0.770353 0.218179 0)
(0.806033 0.23305 9.25362e-23)
(0.802948 0.236827 0)
(0.762352 0.229255 8.27672e-23)
(0.688467 0.211031 -1.59382e-25)
(0.587807 0.183635 0)
(0.468124 0.149062 0)
(0.337168 0.109471 0)
(0.201648 0.0667883 -1.21405e-22)
(0.0664194 0.0224935 0)
(0.315051 0.0812103 9.77466e-23)
(0.197975 0.0501575 4.25487e-23)
(0.198593 0.0503239 0)
(0.118452 0.0295943 3.12699e-23)
(0.118874 0.0297027 -9.21175e-24)
(0.057577 0.0142553 0)
(0.0576483 0.0142856 1.32234e-23)
(0.057846 0.0143278 1.02608e-24)
(0.0577549 0.0143081 2.65306e-23)
(0.0186367 0.00457953 9.78454e-24)
(0.0186643 0.00459184 2.66912e-25)
(0.0187341 0.00460411 2.23888e-23)
(0.0186888 0.00459719 0)
(0.460847 0.121872 0)
(0.589387 0.159645 0)
(0.69316 0.192062 1.75218e-26)
(0.765323 0.216681 1.64686e-25)
(0.80102 0.231511 3.42846e-25)
(0.798243 0.235337 -8.04448e-23)
(0.758142 0.227888 0)
(0.684842 0.20983 0)
(0.584795 0.182625 7.72906e-23)
(0.465736 0.148256 0)
(0.335402 0.108869 9.84438e-23)
(0.200552 0.0664057 9.72723e-26)
(0.0660235 0.0223582 -7.95615e-23)
(0.312866 0.0806334 0)
(0.196615 0.049807 6.59673e-24)
(0.197218 0.0499706 0)
(0.117623 0.0293865 -6.8463e-24)
(0.118039 0.0294929 -1.51716e-23)
(0.0571694 0.0141539 0)
(0.0572416 0.0141829 8.22686e-25)
(0.0574374 0.0142266 1.19261e-23)
(0.0573489 0.0142061 1.05659e-23)
(0.0185067 0.00454733 0)
(0.0185312 0.00456025 0)
(0.0185981 0.00457083 1.88848e-23)
(0.0185514 0.00456414 -1.83004e-23)
(0.457644 0.120998 -7.98415e-23)
(0.585299 0.158493 0)
(0.688443 0.190694 7.78396e-23)
(0.760296 0.215177 -1.64621e-25)
(0.796039 0.229966 0)
(0.793604 0.23385 0)
(0.754021 0.226533 0)
(0.681303 0.20865 -7.01938e-23)
(0.581849 0.181633 0)
(0.463347 0.147445 0)
(0.333651 0.108265 0)
(0.199441 0.0660205 7.39888e-23)
(0.0656088 0.0222219 -1.53941e-22)
(0.310692 0.080058 9.2298e-23)
(0.195276 0.0494631 2.39483e-23)
(0.195875 0.0496242 1.10766e-25)
(0.116814 0.0291822 2.23203e-23)
(0.11722 0.0292859 -5.99595e-24)
(0.0567679 0.014056 0)
(0.0568419 0.014082 9.00588e-24)
(0.0570306 0.0141259 8.96165e-25)
(0.056959 0.0141099 9.8126e-25)
(0.0183732 0.00451465 0)
(0.0183991 0.004527 2.56362e-25)
(0.0184671 0.00453898 0)
(0.0184232 0.00453176 -2.8048e-25)
(0.454437 0.120122 -4.65192e-25)
(0.581191 0.157339 -8.64167e-23)
(0.683677 0.189311 0)
(0.75523 0.213646 0)
(0.791071 0.228403 2.57664e-25)
(0.789029 0.232363 0)
(0.749978 0.225194 0)
(0.677825 0.207486 1.40065e-25)
(0.578919 0.180644 -7.4389e-23)
(0.460987 0.146639 0)
(0.331859 0.107649 1.4639e-22)
(0.198312 0.0656332 8.52089e-23)
(0.0651941 0.0220805 7.64462e-23)
(0.308552 0.0794912 -1.3528e-23)
(0.193958 0.0491251 1.87064e-23)
(0.194552 0.0492842 -2.12552e-23)
(0.116019 0.0289823 -2.25406e-23)
(0.116421 0.0290835 -9.47236e-24)
(0.0563819 0.01396 0)
(0.0564537 0.0139849 7.18069e-24)
(0.0566364 0.0140273 0)
(0.0565686 0.014012 9.76397e-25)
(0.0182408 0.0044836 0)
(0.0182799 0.00449672 -5.63516e-24)
(0.0183339 0.00450685 2.99142e-25)
(0.0182935 0.00449999 6.30345e-24)
(0.451208 0.119241 2.96459e-25)
(0.577017 0.156164 0)
(0.678804 0.187884 4.70117e-25)
(0.750102 0.212073 0)
(0.786103 0.226814 -5.74898e-23)
(0.784507 0.230878 6.19975e-23)
(0.746003 0.223873 -1.3464e-25)
(0.67439 0.206335 6.76374e-23)
(0.575997 0.179654 -2.7785e-25)
(0.458607 0.145824 -1.23839e-22)
(0.330069 0.107029 0)
(0.197142 0.0652235 0)
(0.0647745 0.0219389 -2.14482e-22)
(0.306407 0.0789194 -1.06873e-23)
(0.192655 0.0487849 -7.00452e-26)
(0.193243 0.0489448 3.84947e-23)
(0.115237 0.0287876 -2.0675e-23)
(0.115634 0.0288849 1.29884e-23)
(0.0559992 0.0138654 0)
(0.0560704 0.0138894 0)
(0.056251 0.0139306 9.25977e-25)
(0.0561824 0.0139157 9.57799e-25)
(0.0181184 0.00445358 3.97538e-24)
(0.018156 0.00446622 3.51353e-26)
(0.0182083 0.00447561 4.82691e-24)
(0.018169 0.00446884 9.5835e-24)
(0.447904 0.118336 0)
(0.572678 0.15494 0)
(0.673766 0.186392 -4.89762e-23)
(0.744867 0.210437 1.06328e-22)
(0.781123 0.2252 -6.21617e-23)
(0.780029 0.229405 -6.00825e-23)
(0.742071 0.222567 -1.30191e-25)
(0.670961 0.205183 7.09146e-23)
(0.573067 0.178658 -7.37391e-23)
(0.456203 0.144991 0)
(0.328233 0.106386 0)
(0.195967 0.0648112 1.12447e-22)
(0.0643516 0.0217932 1.13016e-22)
(0.30421 0.0783339 0)
(0.191375 0.0484485 -8.49252e-24)
(0.191967 0.0486124 1.73312e-23)
(0.114476 0.0285932 -1.86141e-24)
(0.114865 0.0286911 -1.77725e-23)
(0.0556288 0.0137749 0)
(0.0556957 0.0137974 3.94965e-24)
(0.0558744 0.0138372 4.59767e-24)
(0.0558067 0.0138218 4.42514e-24)
(0.0179937 0.00442312 2.76588e-24)
(0.0180316 0.00443556 0)
(0.0180842 0.00444482 7.39789e-24)
(0.0180432 0.00443796 3.72513e-24)
(0.44445 0.1174 -3.86769e-23)
(0.56808 0.153638 5.40627e-23)
(0.668476 0.184791 -5.04583e-23)
(0.739482 0.208722 0)
(0.776137 0.223578 6.03481e-23)
(0.775591 0.227949 0)
(0.738159 0.221272 -1.32416e-22)
(0.667535 0.20403 6.66324e-23)
(0.570112 0.177643 -7.43499e-23)
(0.453755 0.144139 0)
(0.326363 0.105726 0)
(0.194766 0.0643842 1.79006e-22)
(0.0638967 0.0216409 2.66251e-23)
(0.301937 0.0777309 3.95252e-23)
(0.19008 0.0481112 3.83413e-24)
(0.190691 0.0482787 0)
(0.113725 0.0284014 6.66097e-24)
(0.114103 0.0284955 -2.53929e-24)
(0.055261 0.0136816 0)
(0.0553314 0.0137033 2.39654e-24)
(0.0555019 0.013746 3.09826e-24)
(0.0554365 0.0137324 -2.17142e-24)
(0.0178769 0.00439449 1.67265e-24)
(0.0179106 0.00440638 1.66539e-26)
(0.0179636 0.0044154 2.41072e-24)
(0.0179225 0.00440787 2.23184e-24)
(0.440687 0.116382 4.62079e-25)
(0.563039 0.152181 -2.4949e-23)
(0.662808 0.183032 0)
(0.733974 0.206956 3.52751e-23)
(0.771163 0.221974 -1.09146e-25)
(0.771191 0.226519 1.22648e-22)
(0.734258 0.219977 5.19471e-25)
(0.664079 0.202857 1.36514e-22)
(0.567119 0.176608 0)
(0.451254 0.14326 -3.10613e-25)
(0.32445 0.105047 -1.4464e-22)
(0.193524 0.063945 4.85558e-23)
(0.063417 0.0214796 1.87036e-22)
(0.299441 0.0770729 2.22358e-24)
(0.188776 0.0477662 0)
(0.189389 0.0479366 1.11251e-23)
(0.112985 0.0282126 -3.39148e-24)
(0.113357 0.0283047 1.43855e-25)
(0.0549027 0.0135935 7.82645e-25)
(0.0549752 0.0136144 9.79388e-25)
(0.055139 0.0136538 9.60157e-25)
(0.0550771 0.0136412 1.58778e-24)
(0.0177552 0.00436285 5.71276e-25)
(0.0177922 0.00437431 0)
(0.0178392 0.00438653 1.24833e-24)
(0.0178093 0.00438328 2.12451e-25)
(0.436357 0.115208 2.84856e-23)
(0.557349 0.15049 -7.10001e-26)
(0.65678 0.181127 -3.79067e-23)
(0.728405 0.205197 3.76472e-23)
(0.76625 0.220418 -1.10262e-22)
(0.766837 0.225104 0)
(0.730352 0.218672 -6.40101e-23)
(0.660592 0.201664 0)
(0.564063 0.175543 0)
(0.448712 0.14236 3.10541e-25)
(0.322499 0.10435 -3.52938e-22)
(0.192231 0.0634854 -1.73474e-22)
(0.0629291 0.0213134 -1.92455e-22)
(0.296452 0.0763143 0)
(0.187332 0.0473898 2.95211e-25)
(0.188059 0.0475877 -3.89355e-24)
(0.112233 0.0280191 2.91135e-24)
(0.112622 0.0281158 -3.40229e-24)
(0.0545618 0.013507 -6.31522e-25)
(0.0546284 0.0135282 3.54147e-25)
(0.054788 0.013567 0)
(0.0547282 0.0135524 -1.85165e-25)
(0.0176383 0.004335 -4.45209e-25)
(0.0176765 0.00434581 0)
(0.01772 0.00435679 7.47856e-25)
(0.0176921 0.00435406 -3.48725e-25)
(0.431061 0.113737 0)
(0.55079 0.148457 7.07999e-26)
(0.650514 0.179189 -4.07488e-23)
(0.722941 0.203527 5.3481e-23)
(0.761454 0.218905 -8.32642e-25)
(0.762523 0.223692 0)
(0.726434 0.217351 -9.78247e-25)
(0.657058 0.200444 5.43728e-25)
(0.560965 0.174451 0)
(0.446124 0.141434 3.4047e-22)
(0.320513 0.103634 3.66951e-25)
(0.19089 0.0630029 4.09847e-25)
(0.0624296 0.0211458 2.38441e-23)
(0.292419 0.0752752 7.44706e-24)
(0.185506 0.0469477 -2.36392e-26)
(0.186499 0.047199 2.36221e-26)
(0.11144 0.0278158 -2.44352e-24)
(0.111876 0.0279202 1.70742e-25)
(0.0542215 0.0134213 9.38686e-25)
(0.0542927 0.0134434 7.83825e-25)
(0.0544463 0.0134804 1.01508e-24)
(0.0543893 0.0134674 0)
(0.0175329 0.00430808 0)
(0.0175653 0.00431899 -1.13724e-24)
(0.0176087 0.00433021 6.97058e-25)
(0.017581 0.0043259 7.34546e-25)
(0.424051 0.111668 4.30774e-23)
(0.543595 0.146263 0)
(0.644421 0.177416 2.85251e-25)
(0.717731 0.201944 0)
(0.756793 0.217419 7.70607e-25)
(0.758244 0.222278 0)
(0.722494 0.216012 4.8345e-25)
(0.653488 0.199199 -5.43645e-25)
(0.557828 0.173334 2.48662e-24)
(0.443509 0.140485 3.50589e-25)
(0.318451 0.102883 0)
(0.189542 0.0625211 -2.32541e-22)
(0.0619165 0.0209709 2.26477e-23)
(0.285364 0.0734169 -5.0058e-23)
(0.182396 0.0462191 -1.22276e-23)
(0.18424 0.0466929 1.78789e-25)
(0.110483 0.0275853 -3.65626e-24)
(0.111037 0.0277067 3.17577e-24)
(0.0538862 0.0133385 0)
(0.0539583 0.0133601 3.17667e-24)
(0.0541112 0.0133949 2.39675e-24)
(0.0540555 0.0133809 -2.61863e-24)
(0.017423 0.00428134 -4.67007e-24)
(0.0174593 0.0042928 -4.0042e-24)
(0.0174988 0.00430253 -1.72636e-24)
(0.017473 0.00429969 1.68685e-24)
(0.415344 0.109085 -5.86133e-23)
(0.536715 0.144381 0)
(0.638858 0.175802 5.42313e-25)
(0.712814 0.200421 -3.38819e-23)
(0.752251 0.215952 -3.67242e-25)
(0.753995 0.220861 0)
(0.718543 0.214655 0)
(0.64988 0.197927 -2.11732e-22)
(0.554644 0.172184 -1.64589e-22)
(0.440823 0.139504 4.05897e-25)
(0.316372 0.102121 0)
(0.188169 0.0620184 -2.68177e-22)
(0.0613871 0.0207909 3.36833e-22)
(0.273128 0.0700807 3.44121e-23)
(0.174646 0.0441498 1.5737e-24)
(0.17955 0.0456665 1.37484e-23)
(0.108781 0.0272245 0)
(0.109835 0.0274313 -4.14697e-24)
(0.0535242 0.0132491 6.19081e-24)
(0.0536132 0.0132741 4.68071e-24)
(0.0537679 0.0133071 0)
(0.0537167 0.0132928 8.45615e-25)
(0.017321 0.00425644 -3.59206e-24)
(0.0173544 0.00426713 -3.15494e-24)
(0.0173927 0.00427571 -2.75322e-24)
(0.0173666 0.0042723 0)
(0.407357 0.107015 -3.90902e-25)
(0.530936 0.142781 -2.7206e-23)
(0.633873 0.174301 1.40996e-23)
(0.70817 0.198961 -4.71154e-25)
(0.747821 0.214508 0)
(0.749778 0.219439 0)
(0.714582 0.213278 6.3308e-23)
(0.646254 0.196631 1.4947e-22)
(0.551422 0.171011 3.58339e-25)
(0.438117 0.138498 -4.05809e-25)
(0.31423 0.101324 -2.71414e-22)
(0.18677 0.061506 -3.10583e-22)
(0.0608418 0.0206007 3.8674e-22)
(0.263216 0.0675362 2.01302e-25)
(0.156166 0.0397505 -1.77346e-23)
(0.165622 0.0414675 9.62277e-23)
(0.103635 0.0260025 -2.29485e-24)
(0.107149 0.0268974 -1.19773e-23)
(0.0529248 0.0131202 0)
(0.0531462 0.013166 -7.03019e-24)
(0.0533899 0.0132181 -9.61884e-25)
(0.0532863 0.013188 -6.92139e-24)
(0.0172115 0.0042299 -9.44897e-24)
(0.0172523 0.00424111 -4.31711e-24)
(0.0172901 0.00424982 0)
(0.0172636 0.0042462 1.55888e-25)
(0.401611 0.105419 1.71964e-23)
(0.526154 0.141364 2.44554e-23)
(0.629328 0.172903 0)
(0.703735 0.197551 4.71848e-25)
(0.743486 0.21308 -2.81766e-23)
(0.745597 0.218013 -3.53425e-25)
(0.710621 0.211883 2.32799e-25)
(0.642601 0.195308 0)
(0.548174 0.169804 -3.58195e-25)
(0.435353 0.13746 4.61803e-22)
(0.312098 0.100521 2.74298e-25)
(0.185318 0.0609609 -3.55289e-22)
(0.0602553 0.0204081 0)
(0.258336 0.0659294 2.33702e-23)
(0.147835 0.0372267 -1.31579e-23)
(0.15037 0.0380581 -2.39545e-25)
(0.077843 0.0201387 1.7129e-23)
(0.0921434 0.0226158 -3.87551e-23)
(0.0492435 0.0120149 -1.70234e-24)
(0.0512588 0.0128825 -1.7755e-25)
(0.0526493 0.0130788 5.51359e-26)
(0.0521463 0.0129871 8.49988e-24)
(0.0170506 0.00418984 0)
(0.0171243 0.0042066 -4.42167e-25)
(0.0171867 0.00422579 4.64443e-24)
(0.0171416 0.00421373 -1.86701e-25)
(0.397494 0.104194 1.37573e-23)
(0.522044 0.140125 -6.95224e-24)
(0.625137 0.171608 -1.29926e-25)
(0.699484 0.196189 1.63801e-23)
(0.739251 0.211669 4.91761e-25)
(0.741453 0.21658 3.53587e-25)
(0.706669 0.210468 -4.66673e-25)
(0.638929 0.193955 0)
(0.544903 0.168573 -2.04089e-22)
(0.432567 0.136395 2.65008e-25)
(0.30988 0.099675 -3.31648e-22)
(0.1838 0.0604017 0)
(0.0596444 0.0202034 -9.97291e-22)
(0.255621 0.0651276 -4.92198e-24)
(0.145532 0.0364039 -9.46662e-24)
(0.146369 0.0366507 2.07187e-23)
(0.0717358 0.0177699 1.29888e-23)
(0.0728695 0.0183242 -3.66452e-25)
(0.0184266 0.00495333 -1.204e-24)
(0.020623 0.00509318 1.47657e-24)
(0.044879 0.0102484 -1.58281e-24)
(0.0302286 0.00507334 0)
(0.015789 0.00402408 6.36499e-24)
(0.0165074 0.00412759 9.78538e-26)
(0.0169709 0.00417503 6.27571e-24)
(0.016807 0.00414943 3.45602e-25)
(0.394169 0.103226 7.94699e-24)
(0.518359 0.139023 1.55863e-23)
(0.621212 0.17039 1.80249e-23)
(0.695394 0.194862 0)
(0.735098 0.210263 -2.29306e-25)
(0.73735 0.215136 0)
(0.702725 0.209031 5.09685e-23)
(0.635255 0.192578 0)
(0.541609 0.167307 0)
(0.429744 0.135303 3.421e-24)
(0.307628 0.098809 0)
(0.182243 0.0598224 9.62333e-22)
(0.0590326 0.0199927 -5.62934e-22)
(0.253625 0.0646533 1.52117e-23)
(0.144415 0.0361832 1.66361e-25)
(0.144861 0.0362671 -1.85041e-23)
(0.0708199 0.0174878 9.0227e-26)
(0.0711683 0.0175865 -1.95004e-23)
(0.016737 0.00411634 6.33983e-24)
(0.0168079 0.00415075 6.99775e-24)
(0.0172911 0.00436613 -4.56985e-24)
(0.0168693 0.00421752 -4.99815e-24)
(0.0147033 0.00370271 -2.17321e-25)
(0.00832 0.00128693 -7.39265e-23)
(0.391342 0.102426 -1.76398e-23)
(0.515026 0.138025 1.92894e-23)
(0.617497 0.169222 0)
(0.69144 0.19356 0)
(0.731027 0.208864 -1.285e-23)
(0.733287 0.213681 -4.93084e-23)
(0.698791 0.20757 2.4261e-25)
(0.631572 0.191168 0)
(0.538287 0.166009 2.42667e-22)
(0.42686 0.134168 -3.02915e-22)
(0.305316 0.0979094 -4.01433e-22)
(0.180641 0.059216 0)
(0.0583677 0.019771 -6.42845e-22)
(0.251917 0.0642481 -1.80733e-23)
(0.143549 0.0360174 0)
(0.143911 0.0360953 -2.38701e-23)
(0.0704061 0.0174151 0)
(0.0705891 0.0174545 -6.52128e-24)
(0.0166729 0.00409475 -6.31041e-24)
(0.0166807 0.00409678 -6.66061e-24)
(0.0167155 0.00411003 0)
(0.0167021 0.00410638 6.40198e-24)
(0.388825 0.101712 -2.82094e-23)
(0.511929 0.137091 3.76457e-25)
(0.613961 0.168096 -2.03989e-23)
(0.687602 0.192277 2.07618e-23)
(0.727031 0.207462 -7.58813e-24)
(0.729266 0.212209 -1.47524e-25)
(0.694875 0.206083 -5.07388e-23)
(0.627893 0.189727 0)
(0.534919 0.164668 2.76435e-23)
(0.423941 0.132998 0)
(0.302929 0.0969703 0)
(0.17898 0.058591 0)
(0.0576888 0.0195471 -7.34481e-22)
(0.250418 0.0638697 0)
(0.142754 0.0358325 0)
(0.143092 0.0359191 2.84206e-23)
(0.0700458 0.0173411 -8.26573e-24)
(0.0702275 0.0173885 0)
(0.0166233 0.00408612 0)
(0.0166252 0.00408716 -7.18678e-24)
(0.0166522 0.00409357 1.319e-23)
(0.0166515 0.00409273 -5.23268e-26)
(0.386541 0.101062 -3.50449e-25)
(0.509003 0.136197 2.27031e-23)
(0.610559 0.166995 2.09059e-23)
(0.683864 0.191 7.85207e-24)
(0.723105 0.206053 0)
(0.725288 0.210718 7.27624e-23)
(0.690982 0.204568 -5.1109e-23)
(0.624192 0.188248 3.01003e-22)
(0.531531 0.16329 2.62625e-25)
(0.420982 0.131796 -3.68481e-22)
(0.300498 0.0960036 0)
(0.177278 0.0579471 0)
(0.0569914 0.0193155 8.46289e-22)
(0.249042 0.0635091 3.51269e-25)
(0.141999 0.0356439 0)
(0.142314 0.0357287 0)
(0.0696824 0.0172556 -9.17593e-24)
(0.0698647 0.0173055 1.22403e-25)
(0.0165461 0.00406552 -2.78007e-25)
(0.0165578 0.00407072 0)
(0.016593 0.00408216 7.61046e-24)
(0.0165871 0.00407809 7.86219e-24)
(0.384384 0.100439 5.26912e-25)
(0.506216 0.135334 -3.24425e-23)
(0.607281 0.165914 0)
(0.68023 0.189729 5.65155e-26)
(0.719247 0.204634 -2.37206e-23)
(0.721353 0.209204 4.96627e-23)
(0.6871 0.20302 -1.32507e-22)
(0.620482 0.18673 -9.16258e-23)
(0.528134 0.161878 3.22833e-22)
(0.417966 0.130546 0)
(0.298043 0.0950068 0)
(0.175491 0.0572629 -7.75766e-22)
(0.0562499 0.019082 9.42083e-22)
(0.247738 0.0631588 -1.50214e-25)
(0.141285 0.0354595 1.57627e-25)
(0.141582 0.0355441 -1.57675e-25)
(0.0693381 0.0171721 0)
(0.0695059 0.0172165 0)
(0.0164646 0.00404648 0)
(0.0164768 0.00405142 9.25187e-24)
(0.0165134 0.0040614 8.82104e-24)
(0.0165082 0.00405877 9.05177e-24)
(0.382348 0.0998457 -5.26674e-25)
(0.50356 0.134498 0)
(0.604108 0.164842 4.74884e-23)
(0.676681 0.188455 3.05334e-23)
(0.71546 0.2032 2.38761e-26)
(0.71746 0.207664 5.06288e-23)
(0.683236 0.201437 8.60217e-23)
(0.616784 0.185171 0)
(0.524694 0.160413 0)
(0.414918 0.129249 -4.50614e-22)
(0.295454 0.0939483 0)
(0.173624 0.0565736 0)
(0.0554642 0.0188019 1.07615e-21)
(0.246495 0.0628183 2.59432e-26)
(0.14059 0.0352805 -1.77144e-25)
(0.140889 0.0353668 1.77203e-25)
(0.0689941 0.0170874 0)
(0.0691678 0.0171327 0)
(0.0163946 0.0040285 0)
(0.0163965 0.00403209 -1.05327e-23)
(0.0164344 0.00404146 -9.9815e-24)
(0.0164263 0.00403874 1.0216e-23)
(0.380407 0.0992701 -9.48255e-23)
(0.501004 0.133672 -1.28091e-22)
(0.601042 0.163774 -3.30161e-23)
(0.673222 0.18717 0)
(0.711736 0.201745 7.44695e-27)
(0.713609 0.206093 0)
(0.679388 0.199811 0)
(0.613064 0.183563 0)
(0.5212 0.158888 3.94946e-22)
(0.411769 0.127897 0)
(0.292786 0.0928531 0)
(0.171656 0.0558652 -9.86788e-22)
(0.0548378 0.018372 1.22296e-21)
(0.24531 0.0624933 1.11244e-22)
(0.139937 0.0351061 -1.8692e-25)
(0.140214 0.0351882 3.94067e-25)
(0.0686602 0.0170041 0)
(0.0688277 0.0170513 0)
(0.0163106 0.00400981 1.19122e-23)
(0.0163248 0.00401432 -1.16035e-23)
(0.0163615 0.0040232 -1.1021e-23)
(0.0163547 0.00402035 1.11607e-23)
(0.378565 0.0987159 8.79204e-23)
(0.498558 0.132858 -2.80704e-25)
(0.598074 0.1627 0)
(0.669842 0.185873 0)
(0.708074 0.200267 -2.03586e-23)
(0.709798 0.204489 -1.48036e-23)
(0.675556 0.198143 -5.94636e-23)
(0.609316 0.181901 0)
(0.517677 0.157317 -3.84431e-25)
(0.408531 0.126481 0)
(0.290056 0.0917216 0)
(0.169534 0.0550038 -1.12125e-21)
(0.0553414 0.0180179 1.42566e-21)
(0.244183 0.062193 2.54899e-25)
(0.139302 0.0349439 4.33706e-25)
(0.139559 0.0350167 -6.40742e-25)
(0.0683409 0.016922 0)
(0.0685057 0.0169659 -1.32368e-23)
(0.0162364 0.00399024 1.30967e-23)
(0.0162464 0.00399548 -1.28368e-23)
(0.0162847 0.00400728 0)
(0.0162746 0.00400223 0)
(0.376808 0.098175 1.23217e-22)
(0.496218 0.132041 1.03014e-22)
(0.595211 0.16162 0)
(0.666546 0.184562 2.12176e-23)
(0.704482 0.198766 1.48869e-23)
(0.706031 0.202846 4.44293e-23)
(0.671737 0.196427 0)
(0.605568 0.180184 0)
(0.514073 0.155672 4.10917e-22)
(0.405288 0.125008 0)
(0.28691 0.0904604 0)
(0.169603 0.0539096 6.14262e-23)
(0.0493414 0.0151762 -5.96155e-23)
(0.243118 0.0619242 -1.45224e-22)
(0.138682 0.0348029 0)
(0.138943 0.0348652 6.16254e-23)
(0.0680366 0.0168465 0)
(0.0681884 0.0168861 0)