/*--------------------------------*- C++ -*----------------------------------*\
| =========                 |                                                 |
| \\      /  F ield         | OpenFOAM: The Open Source CFD Toolbox           |
|  \\    /   O peration     | Version:  v1912                                 |
|   \\  /    A nd           | Website:  www.openfoam.com                      |
|    \\/     M anipulation  |                                                 |
\*---------------------------------------------------------------------------*/
FoamFile
{
    version     2.0;
    format      ascii;
    class       surfaceScalarField;
    location    "500";
    object      phi;
}
// * * * * * * * * * * * * * * * * * * * * * * * * * * * * * * * * * * * * * //

dimensions      [0 3 -1 0 0 0 0];
oriented        oriented;


internalField   nonuniform List<scalar> 
7200
(
-8.46328e-05
0.010046
-0.000172742
0.0100533
2.37392e-05
0.0100209
-0.000267954
0.0100664
3.6428e-05
0.0100407
0.00017139
0.00984712
-0.000372261
0.0100836
2.59124e-05
0.0100769
0.000316481
0.00989557
0.000404017
0.00943959
-0.00048647
0.0101022
-1.41296e-05
0.0101236
0.000410848
0.00998256
0.000748429
0.00955116
0.000828494
0.00860625
-0.000610346
0.0101201
-8.58946e-05
0.010174
0.000442674
0.0100918
0.000986806
0.00974418
0.00149969
0.00887996
0.00167419
0.00342016
0.00350528
-0.000742652
0.0101355
-0.000187689
0.0102219
0.000410706
0.0102059
0.00109933
0.0099793
0.00193499
0.00930888
0.00286643
0.00374267
0.00394505
0.000810004
0.00260602
0.0015256
0.00278968
-0.000882328
0.0101483
-0.000316467
0.0102643
0.000320608
0.010312
0.00109261
0.0102127
0.00211182
0.00980247
0.00359614
0.00857917
0.00215497
0.0031133
0.00265541
0.00344461
0.00123233
0.000674943
0.000693979
0.00232069
0.000921408
0.00077992
-0.001028
0.010158
-0.000467505
0.0102993
0.00018181
0.0104031
0.000987971
0.0104166
0.00207562
0.0102489
0.00372645
0.00967216
-0.00363674
0.00705153
0.00363326
0.00418654
0.00306911
0.001137
0.00122787
0.00287698
0.000394735
0.000278035
0.00078921
0.000299505
-0.00119324
0.00150779
0.000606859
0.000375886
-0.00117872
0.0101652
-0.00063694
0.0103274
3.65143e-06
0.0104775
0.000808587
0.0105825
0.00189223
0.0106
0.00350186
0.0104735
0.00651014
0.0102135
0.00573239
-0.00518035
0.00169632
0.0013849
0.00559397
0.00432496
0.00183058
0.000814214
0.00208621
0.000972245
-0.0021008
0.00104574
0.000837897
0.000276897
0.000576402
-0.000952288
0.00155915
-0.00133225
0.010169
-0.000820583
0.0103489
-0.000204737
0.0105358
0.000574215
0.0107118
0.00161211
0.0108626
0.00310355
0.0109983
0.00558096
0.0114026
-0.00534796
0.00993867
0.00527493
0.00594187
-0.0026058
0.00277948
0.00152264
-0.00218616
0.000965262
-0.00209983
0.00211347
0.00174283
0.00173834
0.000635027
0.000609782
-0.00208271
0.000942287
-0.00124481
-0.00149049
0.0101732
-0.00101637
0.0103648
-0.000435975
0.0105801
0.000300238
0.0108098
0.00126992
0.011054
0.00261683
0.0113493
0.00462216
0.0119571
0.00806646
0.0132748
0.00440832
-0.0019861
0.00438544
-0.00153273
0.004441
0.0059092
-0.00190755
0.00133037
-0.000942287
-0.00165909
0.00178646
-0.00133037
0.00141411
0.000635027
-0.00165029
0.0101748
-0.00122042
0.0103773
-0.000685319
0.0106142
-2.17144e-06
0.0108825
0.000889515
0.0111902
0.00208934
0.0115815
0.00373928
0.0122322
0.00629022
0.0137333
-0.00314465
0.00720468
0.0136558
0.0024761
0.00315429
-0.000540517
-0.000704438
-0.000977332
0.00123106
0.00524065
0.000436781
-0.00181114
0.0101749
-0.00143072
0.0103851
-0.000946376
0.0106383
-0.000323384
0.0109354
0.000485824
0.0112862
0.00154758
0.0117319
0.00293122
0.0123896
0.00482731
0.0136951
0.00600184
0.0149362
-0.00187806
0.00439924
0.0123575
-0.00122292
0.00111021
-0.000140832
0.00226306
-7.81469e-05
-0.000963401
0.000422884
-0.000436781
0.00447281
-0.00197466
0.0101765
-0.00164779
0.0103919
-0.00121897
0.0106577
-0.000657945
0.0109729
6.9441e-05
0.0113518
0.00100701
0.0118268
0.00218339
0.0124798
0.00365192
0.013565
0.00474302
0.0149539
0.00435559
0.0149798
0.00230991
0.0107492
-0.00023853
-0.000463048
-0.000504718
0.0037546
0.000282052
0.00179455
-1.01445e-05
-2.60657e-05
0.000203905
-0.00213854
0.0101769
-0.0018685
0.0103972
-0.00149878
0.0106717
-0.00100326
0.011003
-0.000355938
0.0113983
0.000470833
0.0118879
0.00148473
0.0125254
0.00267438
0.0134573
0.00363554
0.0146724
0.0037351
0.0155744
0.00288981
0.0143999
0.00121557
0.00966651
-0.000104482
-2.8389e-05
-0.00333669
0.00302125
7.69093e-05
-4.51342e-05
0.00164974
2.32694e-05
7.6411e-05
-0.000177839
0.000167694
-0.00230455
0.010177
-0.00209302
0.0104014
-0.0017853
0.0106837
-0.00135596
0.0110244
-0.000786172
0.0114332
-5.79743e-05
0.0119271
0.000825147
0.0125475
0.00182553
0.0133743
0.00268292
0.0144099
0.00298645
0.0154211
0.00274216
0.0157221
0.00190915
0.0137064
0.000754499
0.00906216
-9.92035e-05
-5.09492e-05
-0.00292977
0.0028365
-1.12109e-05
6.30903e-05
0.00155388
7.45006e-05
9.82595e-05
0.000190964
0.000267375
-0.00247051
0.010177
-0.00232071
0.0104047
-0.00207645
0.0106926
-0.00171585
0.0110436
-0.0012216
0.0114599
-0.000579705
0.011955
0.000197342
0.0125549
0.00106503
0.013308
0.00184514
0.014212
0.00225605
0.0151403
0.00228969
0.0158736
0.00200804
0.0156232
0.00131661
0.0131442
0.000534566
0.00867214
-8.11469e-05
-6.33957e-05
-0.00279339
0.00272255
-2.83626e-05
-7.84092e-06
-0.00157814
0.00157354
-8.03047e-06
1.42416e-06
3.6383e-05
2.44817e-06
-0.000299473
0.00034588
2.80939e-05
6.61611e-05
-0.00263821
0.0101767
-0.00255099
0.0104072
-0.00237358
0.0107018
-0.00208349
0.0110602
-0.00166151
0.0114835
-0.00110015
0.0119803
-0.000410769
0.0125631
0.00036137
0.0132585
0.00108597
0.0140672
0.00156371
0.0149044
0.00175459
0.0156754
0.00174976
0.0161318
0.001493
0.0154468
0.000966079
0.0127127
0.000403628
0.00839505
-6.43e-05
-6.22386e-05
-0.002679
0.00262563
-2.77717e-05
-1.9849e-05
-0.00156706
0.00154504
-4.34027e-06
-2.0038e-06
1.03985e-06
-2.39857e-06
-0.000376783
0.000370778
-2.02543e-06
-0.000375266
-9.2453e-08
0.000373384
8.87917e-06
5.65615e-07
-6.61611e-05
9.4255e-05
-0.00280542
0.0101762
-0.00278224
0.010408
-0.002673
0.0107067
-0.00245573
0.0110741
-0.00210826
0.0115069
-0.00162126
0.0120047
-0.00100569
0.0125752
-0.000303454
0.0132279
0.000382504
0.013962
0.000907571
0.0147233
0.00121158
0.0154474
0.00135301
0.0160722
0.00134932
0.0162755
0.00114946
0.0152634
0.000741554
0.0123748
0.000310519
0.00819407
-5.06235e-05
-5.89188e-05
-0.0025855
0.0025462
-2.49977e-05
-2.21112e-05
-0.00152855
0.00150674
-3.39109e-06
-2.57699e-06
-1.13544e-06
-2.22076e-06
-0.000366927
0.000363584
-9.97442e-07
-0.000368676
-2.54612e-07
0.000371083
7.34787e-07
8.25405e-09
-0.000103607
0.000101582
-0.0001037
0.000103134
-0.00297284
0.0101764
-0.00301571
0.0104097
-0.00297805
0.010713
-0.00283573
0.0110866
-0.00256355
0.0115294
-0.00214982
0.0120355
-0.00159846
0.0125974
-0.000948157
0.0132199
-0.000285602
0.013896
0.000276321
0.0145933
0.00066868
0.0152662
0.00091548
0.0158849
0.00105105
0.0163705
0.00106819
0.0163568
0.000916902
0.015088
0.00057703
0.0121083
0.000221909
0.00805628
-3.09573e-05
-5.31668e-05
-0.00250955
0.00248157
-2.26441e-05
-2.22774e-05
-0.00148883
0.00146948
-2.92536e-06
-2.718e-06
-1.94248e-06
-2.25967e-06
-0.000358185
0.00035562
-8.26005e-07
-0.000360344
-4.18745e-07
0.000362356
9.24383e-08
-2.08372e-07
-0.00010207
0.000101073
-0.000102325
0.000102317
-0.00314001
0.0101752
-0.00324826
0.010409
-0.00328356
0.0107152
-0.00322133
0.0110986
-0.00302931
0.0115524
-0.00268871
0.0120682
-0.00219581
0.0126329
-0.00158563
0.0132349
-0.000931965
0.0138663
-0.00033527
0.0145076
0.000132484
0.0151295
0.000467288
0.0157144
0.000694786
0.0162412
0.000835118
0.0166035
0.000876112
0.0163976
0.000743814
0.0149213
0.000435874
0.0118943
0.000102237
0.00796737
1.86918e-05
-3.20157e-05
-0.00244913
0.00243511
-1.69389e-05
-2.07234e-05
-0.00145201
0.00143509
-2.73145e-06
-2.98661e-06
-2.45751e-06
-2.35506e-06
-0.000349732
0.000347555
-7.47976e-07
-0.000351976
-4.74285e-07
0.000353886
-2.07987e-07
-3.49954e-07
-0.000100538
9.97121e-05
-0.000100957
0.000101165
-0.00330731
0.0101753
-0.00348033
0.0104072
-0.00359088
0.0107163
-0.00361388
0.0111077
-0.0035062
0.0115755
-0.00324436
0.0121081
-0.00280786
0.0126803
-0.00222924
0.0132765
-0.0015747
0.0138776
-0.000940155
0.0144712
-0.000402162
0.0150423
1.30911e-05
0.0155837
0.00032215
0.0160871
0.000541139
0.0165352
0.000691174
0.0167885
0.000737275
0.0164041
0.000600236
0.0147569
0.000295499
0.0117011
-6.20891e-05
0.0078478
0.000137497
4.41632e-05
-0.00241402
0.00242615
6.55411e-06
-1.09196e-05
-0.00141959
0.00140815
-2.26451e-06
-3.23085e-06
-2.90958e-06
-2.31698e-06
-0.000341182
0.000339193
-7.42125e-07
-0.000343604
-5.64364e-07
0.000345504
-4.06954e-07
-4.55272e-07
-9.86799e-05
9.79319e-05
-9.91542e-05
9.95042e-05
-0.00347188
0.0101726
-0.00370765
0.0104026
-0.00389623
0.0107126
-0.00400853
0.0111109
-0.00399657
0.0115981
-0.00382232
0.0121535
-0.00344416
0.0127444
-0.00289219
0.0133432
-0.0022251
0.0139269
-0.00154263
0.0144801
-0.000934662
0.0150037
-0.000442229
0.0154976
-5.99343e-05
0.0159657
0.000225385
0.0164028
0.000445293
0.016781
0.000597386
0.0169284
0.000628512
0.0163759
0.000474627
0.0145778
0.000163501
0.0114755
-0.000149958
0.00764443
0.000177289
0.000176031
-0.00242996
0.00245441
0.000113048
4.03552e-05
-0.00140178
0.00141073
5.58284e-07
-2.95462e-06
-3.15587e-06
-1.39426e-06
-0.000332443
0.000330899
-7.20758e-07
-0.000335047
-6.27004e-07
0.000336832
-5.49076e-07
-5.31567e-07
-9.65053e-05
9.57632e-05
-9.70697e-05
9.7525e-05
-0.00363355
0.0101687
-0.00392907
0.010394
-0.00419443
0.0107008
-0.00440403
0.0111081
-0.00450148
0.0116158
-0.00442778
0.0122036
-0.00411485
0.0128241
-0.00359041
0.0134426
-0.00289835
0.0140165
-0.00215445
0.0145387
-0.00147023
0.0150157
-0.000901793
0.0154632
-0.000447744
0.0158854
-9.7666e-05
0.0162888
0.000177442
0.0166707
0.000390595
0.0169878
0.000531583
0.0170253
0.000541387
0.0163091
0.000375793
0.0143655
0.000106031
0.0112195
-3.6991e-05
0.00753878
2.58221e-05
0.000116824
-0.0024462
0.00244497
0.000178514
0.000184243
-0.00144142
0.00148911
4.75556e-05
1.78036e-05
-6.64375e-08
9.73214e-06
-0.000325069
0.00032598
-3.52679e-07
-0.00032745
-5.73446e-07
0.000328358
-6.15165e-07
-4.85835e-07
-9.40555e-05
9.33348e-05
-9.46825e-05
9.52141e-05
-0.00379178
0.0101632
-0.00414035
0.01038
-0.00448147
0.010681
-0.00479579
0.0110926
-0.00501619
0.0116228
-0.00506407
0.0122521
-0.00483073
0.0129195
-0.00433955
0.0135733
-0.00360566
0.0141499
-0.00278237
0.0146444
-0.00201311
0.0150816
-0.00136337
0.0154773
-0.000836747
0.0158522
-0.000424669
0.0162124
-9.96677e-05
0.0165659
0.000159072
0.0169022
0.000363545
0.0171559
0.000487245
0.0170794
0.000480027
0.0162049
0.000334144
0.0141374
0.000160493
0.011022
0.000117278
0.00746811
-4.66542e-05
4.68308e-08
-0.00246932
0.00246884
2.62987e-05
9.24815e-05
-0.0015032
0.00153052
5.42719e-05
9.69182e-05
7.44894e-05
9.56614e-05
-0.000344362
0.000369556
2.23611e-05
-0.000333605
7.04742e-06
0.000325812
1.00953e-07
1.9389e-06
-9.16603e-05
9.13076e-05
-9.22338e-05
9.27196e-05
-0.00394463
0.0101549
-0.00433498
0.0103579
-0.00474798
0.0106465
-0.00517189
0.0110571
-0.00553681
0.0116132
-0.00573262
0.0122913
-0.00560271
0.0130241
-0.00515927
0.0137392
-0.00436876
0.0143364
-0.0034395
0.014807
-0.00256584
0.0151971
-0.00182784
0.015546
-0.0012283
0.0158688
-0.000754228
0.0161818
-0.000378578
0.0164913
-7.72514e-05
0.0168022
0.000165874
0.0170999
0.000354029
0.0172891
0.000462948
0.0170965
0.000458676
0.0160803
0.00035745
0.0139404
0.00026297
0.0108763
0.000208661
0.00736639
-6.28658e-05
-4.40799e-05
-0.00247277
0.00244969
-2.35751e-05
-3.88544e-06
-0.00157664
0.00159809
-3.27092e-06
8.1203e-06
3.6007e-05
1.03533e-05
-0.000446982
0.000467174
3.40798e-05
-0.000415363
6.52998e-05
0.000392346
5.16996e-05
7.26438e-05
-0.000100395
0.000122756
-9.33475e-05
9.14086e-05
-0.00408886
0.0101412
-0.00450723
0.0103271
-0.00498498
0.0105949
-0.00552328
0.0109979
-0.00605353
0.0115739
-0.00643005
0.0123106
-0.00644386
0.0131325
-0.00608055
0.0139454
-0.00520653
0.014577
-0.00413258
0.0150295
-0.00313301
0.0153742
-0.00229673
0.015666
-0.00162123
0.015939
-0.00108394
0.0161985
-0.000658818
0.016462
-0.000318532
0.0167326
-4.11568e-05
0.0170093
0.000186774
0.0172671
0.000361008
0.017391
0.000463891
0.0170913
0.000474836
0.0159629
0.00041925
0.0137841
0.000346627
0.0107383
0.000247142
0.00723352
-5.89339e-05
-5.53395e-05
-0.00243335
0.00240311
-3.26352e-05
-2.77339e-05
-0.00160145
0.00159027
-7.73408e-06
-4.66382e-06
-8.22499e-07
-6.42036e-06
-0.000497722
0.000495667
-1.21505e-06
-0.000491672
2.06982e-06
0.000487174
1.60071e-05
5.8549e-06
-0.000242732
0.000267852
8.95974e-06
-0.000200952
2.35193e-05
0.000174456
4.61477e-05
-0.00422015
0.0101223
-0.00464855
0.0102825
-0.00517823
0.0105203
-0.00583039
0.010902
-0.00654571
0.01149
-0.0071457
0.0122895
-0.00737221
0.013239
-0.00714863
0.0142006
-0.00614793
0.0148868
-0.00487367
0.0153181
-0.00371602
0.0156125
-0.0027686
0.015846
-0.00201131
0.0160561
-0.00141161
0.0162666
-0.000936706
0.0164764
-0.000555748
0.0166993
-0.000247665
0.0169391
6.84515e-06
0.0171892
0.000217547
0.0174106
0.000383698
0.0174712
0.000487463
0.0170787
0.000516527
0.0158657
0.000481696
0.0136491
0.000393159
0.0105923
0.00026437
0.00709954
-7.72384e-05
-5.31483e-05
-0.00237773
0.00234603
-2.7234e-05
-2.99572e-05
-0.00157518
0.00155589
-7.15903e-06
-6.18028e-06
-5.46271e-06
-7.18266e-06
-0.000490311
0.000485992
-3.41511e-06
-0.000492397
-2.57773e-06
0.000496338
-1.49433e-06
-2.47894e-06
-0.000288058
0.000287345
-5.02082e-07
-0.000285973
-1.5128e-08
0.000280873
2.98662e-06
7.54122e-07
-6.9667e-05
7.86267e-05
-4.61477e-05
-0.00433771
0.0101006
-0.00475079
0.0102245
-0.00531075
0.0104151
-0.00606576
0.0107557
-0.00698586
0.0113421
-0.00786373
0.0122081
-0.0084319
0.0133492
-0.00844208
0.0145324
-0.00723583
0.0152885
-0.00567915
0.0156923
-0.00432099
0.015923
-0.00324519
0.0160891
-0.00239983
0.0162346
-0.00173631
0.0163808
-0.0012112
0.0165411
-0.00079212
0.0167128
-0.000454751
0.0169063
-0.00017635
0.0171223
5.81524e-05
0.0173486
0.000256723
0.0175376
0.00041813
0.0175406
0.000525968
0.0170692
0.000564712
0.0157826
0.00052357
0.0135186
0.000412065
0.0104446
0.000256344
-0.000131978
0.00697517
-0.00230854
0.00216922
6.20822e-05
-1.5658e-05
-0.00153759
0.00151952
-4.08918e-06
-5.0785e-06
-5.67691e-06
-5.97734e-06
-0.000475739
0.000471829
-3.24919e-06
-0.000479102
-2.81713e-06
0.000483332
-2.80323e-06
-2.95246e-06
-0.000282616
0.000280048
-8.47199e-07
-0.000284486
-7.07784e-07
0.000286285
-4.34398e-07
-6.7957e-07
-8.23523e-05
8.18502e-05
-8.23675e-05
8.16133e-05
-0.00443989
0.0100782
-0.00480619
0.010156
-0.00536085
0.0102746
-0.00619528
0.0105446
-0.00733243
0.0111023
-0.00856868
0.0120471
-0.00969252
0.0134687
-0.0100686
0.0149757
-0.00852395
0.0158205
-0.00656874
0.0161781
-0.00495463
0.0163259
-0.0037273
0.0164051
-0.00278487
0.0164741
-0.00205494
0.0165532
-0.00147984
0.0166495
-0.00102406
0.0167731
-0.000657477
0.0169155
-0.000356422
0.0170864
-0.0001031
0.0172835
0.000113791
0.0174915
0.000302788
0.0176529
0.00045963
0.0176069
0.000567059
0.0170669
0.000599675
0.0157065
0.000541858
0.0133889
0.000405366
0.0102956
-0.00160525
0.00366117
-8.30337e-06
-1.03685e-05
0.000239145
-0.000117268
0.00685329
-0.00151448
-2.8694e-05
-1.82487e-06
-8.79125e-06
-0.000461951
0.000458995
-1.13368e-06
-0.000465182
-1.84693e-06
0.000468754
-2.6014e-06
-2.40617e-06
-0.000273484
0.000271017
-7.82952e-07
-0.000275609
-6.9171e-07
0.000277834
-5.89515e-07
-7.27275e-07
-8.00285e-05
7.91813e-05
-8.07363e-05
8.14158e-05
-0.0045286
0.0100607
-0.00481471
0.0100867
-0.00531508
0.0101102
-0.00617662
0.010256
-0.00751017
0.0107223
-0.00921198
0.0117456
-0.011186
0.0135405
-0.0120803
0.0154803
-0.00998832
0.0164401
-0.00751186
0.0167637
-0.00560445
0.0168279
-0.00421428
0.0168129
-0.00316834
0.0167886
-0.00236486
0.016784
-0.00173972
0.0168131
-0.00125005
0.0168754
-0.000855522
0.0169711
-0.000534529
0.0170936
-0.000266501
0.0172498
-3.52556e-05
0.0174326
0.000169753
0.0176245
0.000351728
0.0177608
0.000502174
0.0176718
0.000602961
0.0170636
0.000618564
0.0156298
0.00053595
0.0132583
0.000377743
0.010157
0.00356535
-9.83656e-06
-1.16138e-05
-0.000679202
0.000671544
-3.58068e-07
-2.87837e-07
-0.000688363
-4.24716e-07
-7.82842e-07
0.000194718
-9.34694e-05
0.00675204
-0.000424318
-8.29425e-07
-8.16173e-07
-0.000291094
0.000453866
3.3041e-06
2.0757e-05
-0.000265682
0.000264826
-2.77814e-07
-0.000267108
-4.21526e-07
0.00026893
-5.14352e-07
-5.83616e-07
-7.71728e-05
7.63898e-05
-7.78645e-05
7.85917e-05
-0.00460721
0.0100496
-0.00478337
0.0100294
-0.00517357
0.00994519
-0.00596913
0.00990269
-0.00741097
0.0101568
-0.00961787
0.0111282
-0.0127765
0.0133361
-0.0142842
0.0157445
-0.0113474
0.0168394
-0.00831322
0.0172415
-0.00616638
0.0173256
-0.00465837
0.017272
-0.00352948
0.017174
-0.00266396
0.0170877
-0.00199329
0.0170376
-0.0014685
0.0170315
-0.00104898
0.0170689
-0.000708079
0.0171447
-0.000424774
0.0172519
-0.000181991
0.0173965
2.9863e-05
0.0175725
0.000222637
0.0177536
0.000396099
0.0178669
0.000540959
0.0177338
0.000624993
0.0170572
0.000617903
0.0155479
0.000508043
0.013128
0.000324508
0.0100272
0.00349457
-9.44118e-06
-1.32505e-05
-0.000660795
0.000652109
-5.90266e-07
-5.60459e-07
-3.73463e-07
-4.91346e-07
-6.9245e-05
6.88869e-05
-6.95329e-05
-6.99576e-05
-7.07405e-05
0.000113428
-3.49288e-05
0.00667355
-7.157e-05
-7.23862e-05
-0.000267537
-2.79964e-06
5.93342e-07
-7.48703e-05
7.45925e-05
-7.52918e-05
7.58754e-05
-0.00468013
0.0100459
-0.00472697
0.00999321
-0.0049611
0.0098169
-0.00557593
0.009552
-0.00693089
0.00942261
-0.00948618
0.0100251
-0.013972
0.0123237
-0.0159092
0.0149612
-0.0117996
0.0161966
-0.00843729
0.0169635
-0.00632525
0.0174003
-0.00489369
0.0175609
-0.00379472
0.0175372
-0.00291981
0.0174299
-0.00222503
0.0173195
-0.00167512
0.0172442
-0.00123391
0.0172165
-0.000876002
0.0172368
-0.000579832
0.0172997
-0.000327953
0.0173978
-0.000108208
0.0175346
9.10026e-05
0.0177041
0.000272078
0.0178777
0.000436862
0.017971
0.000568643
0.0177901
0.000631831
0.0170432
0.000597293
0.0154586
0.000458898
0.0129936
0.00024569
0.00989496
0.00347223
-6.86374e-07
-1.18993e-05
-0.000640052
0.000631936
-6.43826e-07
-6.81696e-07
-5.30528e-07
-6.63317e-07
-6.74617e-05
6.68714e-05
-6.80221e-05
-6.83956e-05
-3.28092e-06
0.000100825
0.006576
-7.51858e-05
-0.00475109
0.01005
-0.00465968
0.00997863
-0.00471152
0.00974362
-0.00506186
0.00930283
-0.00605489
0.00867599
-0.00856746
0.00443495
0.00406892
-0.00642505
0.00532459
0.00467955
-0.00752598
-0.00879449
0.00655634
-0.00680031
0.00545289
-0.00586914
0.0131472
-0.00411649
-0.00701251
0.0147718
-0.00555956
0.0161978
-0.00459906
0.0171057
-0.00378572
0.0175519
-0.00304514
0.0176625
-0.0024005
0.0176053
-0.00185711
0.0175014
-0.00140723
0.0174175
-0.00103709
0.0173776
-0.000730013
0.017387
-0.000469772
0.0174415
-0.000242624
0.0175323
-4.05891e-05
0.0176662
0.000144153
0.017832
0.000316602
0.0179979
0.000470941
0.0180687
0.000583762
0.0178382
0.000623759
0.0170168
0.000559486
0.015358
0.000394232
0.012845
0.000158239
0.00973344
0.0034937
6.84202e-05
1.09374e-05
-0.000621283
0.000621693
-4.08754e-07
-6.87577e-07
-5.02609e-07
-7.42978e-07
-6.49958e-05
6.4352e-05
-6.56775e-05
-6.62081e-05
-7.07829e-05
0.000217714
0.00642907
-0.00482362
0.0100575
-0.00459338
0.00998366
-0.00445545
0.00972256
-0.00450822
0.00918999
-0.00498724
0.00823518
-0.00671364
0.00355171
0.00327046
-0.00600518
0.00401508
-0.00539459
0.00345834
-0.00873577
0.00526587
-0.00414977
-0.003357
0.00149893
0.00195162
-0.0070328
0.00188782
0.00163408
-0.00502238
0.00570958
-0.00311642
0.00182049
0.0015452
-0.0017837
-0.00200808
-0.0013576
0.00182194
0.00197426
-0.00199891
0.00953352
-0.00139987
-0.00147193
0.0040453
-0.000980275
-0.00348166
0.0126939
-0.00342737
0.0150261
-0.00324579
0.0165658
-0.00287122
0.017378
-0.00242365
0.0176857
-0.00196978
0.017718
-0.00155234
0.0176465
-0.00118671
0.0175671
-0.000873536
0.0175211
-0.000605693
0.0175229
-0.000374772
0.0175737
-0.000170501
0.0176622
1.6936e-05
0.0177934
0.000190957
0.0179577
0.000353469
0.0181154
0.000492878
0.0181596
0.000586333
0.0178756
0.000602252
0.016974
0.000514189
0.0152381
0.000331868
0.0126714
0.000116932
0.00954573
0.00345345
0.000121974
0.000135982
-0.000632227
0.000682533
1.46774e-05
3.43769e-06
9.11381e-07
-5.08343e-07
-6.24188e-05
6.20101e-05
-6.31064e-05
-6.3609e-05
4.65666e-06
7.81371e-05
0.00634628
-0.00490057
0.01007
-0.00454165
0.0100058
-0.0042238
0.00975201
-0.00398507
0.00919941
-0.00393909
0.00814184
-0.0045216
0.00305001
0.00299313
-0.00458465
0.00274177
-0.00351204
0.00219786
-0.00621964
0.00126034
0.00138484
0.00162932
-0.00389126
-0.00317726
0.00144958
0.0029485
-0.00144958
0.0017837
-0.00342668
0.00116949
-0.0015452
0.0013576
0.00107717
0.000744762
0.0015795
0.00273606
-0.000389336
-0.00030034
-0.000432144
0.00675003
-0.000266023
0.00167357
-0.000177029
-0.00016035
-0.000426763
0.00102599
-0.00148335
0.0107499
-0.00208044
0.0138608
-0.0022434
0.015938
-0.00215932
0.0171137
-0.00192429
0.0176402
-0.001618
0.0177837
-0.00129976
0.0177596
-0.00100279
0.0176964
-0.000736301
0.0176517
-0.000502781
0.0176509
-0.00029435
0.0176975
-0.000106335
0.0177854
6.65779e-05
0.0179178
0.000230392
0.0180808
0.000380128
0.0182281
0.00050684
0.0182391
0.000582092
0.0178958
0.000574935
0.0169133
0.00047257
0.0150974
0.000303043
0.0124853
0.000152966
0.00939742
0.00347771
7.96973e-07
5.30892e-05
-0.000730721
0.000779149
2.26178e-05
5.09284e-05
5.08192e-05
3.69745e-05
-6.58508e-05
8.05283e-05
-6.24131e-05
-6.15017e-05
0.000105491
-3.95887e-05
0.00628038
-0.00498393
0.0100824
-0.00450896
0.0100373
-0.00403467
0.00981668
-0.00354646
0.0093134
-0.00303008
0.00829039
-0.00260113
0.00303895
0.00318241
-0.00255564
0.00103629
0.00105732
-0.0014851
0.00192259
-0.0048826
0.000874383
0.000530351
-0.00173639
-0.00159031
0.000302987
0.000338967
0.00298077
-0.00278927
0.00106883
0.000938937
-0.00200777
0.000317998
0.000759283
-0.000122626
0.000534966
-7.60238e-05
0.00130182
-3.55485e-05
-2.48386e-05
6.14594e-05
0.00515755
4.76656e-05
0.00107171
-2.66239e-05
-9.29306e-06
0.000397052
-3.91149e-05
0.000275554
-3.88528e-05
-0.000711497
0.00938097
-0.00123785
0.0128552
-0.0015442
0.0153229
-0.00162483
0.0168142
-0.00153057
0.0175528
-0.00133422
0.0178181
-0.00109518
0.017852
-0.000851258
0.0178114
-0.000623899
0.0177728
-0.000415675
0.0177723
-0.000227982
0.0178192
-5.43356e-05
0.0179064
0.000109041
0.0180392
0.000261505
0.0181994
0.000400854
0.0183341
0.000511617
0.0183095
0.000569447
0.0179013
0.000549818
0.016836
0.000452118
0.0149483
0.000318094
0.0123202
0.000223135
0.00927977
0.00346104
-1.82452e-05
-4.67807e-06
-0.000819968
0.000823552
-2.90091e-06
1.13165e-07
1.23876e-06
1.10318e-05
-0.000171682
0.000187822
6.4779e-06
-0.000137644
1.68905e-05
-0.000117503
3.06777e-05
0.000171239
-8.72283e-05
0.00619637
-0.00507383
0.0100939
-0.0045004
0.0100738
-0.00389668
0.00989926
-0.0032182
0.00948842
-0.00236507
0.00864839
-0.00105326
0.00674252
-0.000536511
0.00209037
0.000268086
0.00237782
0.00139735
-0.00101332
0.000652261
0.000718276
-0.000386733
0.000772935
0.000271459
0.000251609
-0.00191488
-0.00138453
-0.00115627
0.000284236
0.00104557
-0.00074258
0.00106883
0.000195373
0.000119349
0.000236787
3.21863e-06
0.000216019
-4.07067e-06
0.00102212
4.97471e-05
6.13054e-05
1.32817e-06
0.0044844
-3.96703e-05
0.00100033
4.75744e-05
2.18758e-05
0.000195881
-6.48586e-06
0.000187851
-1.26303e-06
8.02338e-05
4.13811e-05
-0.00031745
0.00846057
-0.000733893
0.0120449
-0.0010689
0.0147669
-0.00122634
0.01651
-0.00122338
0.0174419
-0.00110683
0.0178298
-0.000927111
0.0179278
-0.000726652
0.0179141
-0.000529745
0.0178869
-0.000344519
0.0178888
-0.00017122
0.0179361
-1.06781e-05
0.0180261
0.000142322
0.0181583
0.000286066
0.0183142
0.000414538
0.0184312
0.000512669
0.0183663
0.00055904
0.017892
0.000537335
0.0167508
0.00045636
0.01481
0.000361517
0.0121818
0.000283122
0.00916789
0.0034033
-1.72887e-05
-1.22005e-05
-0.000822542
0.000809648
-3.02079e-06
-2.33052e-06
-2.46423e-06
-1.20321e-06
-0.000198631
0.00019647
-7.39872e-07
-0.000198067
-4.50389e-07
-0.000196933
1.04866e-07
1.9211e-06
-4.75683e-05
5.40462e-05
-3.06777e-05
0.000203061
-0.000102775
0.00609608
-0.00517165
0.0101058
-0.00451637
0.0101099
-0.00381162
0.00998874
-0.00299908
0.00968015
-0.00195078
0.00907414
-0.000304718
0.00789985
-0.00147238
0.00329693
0.00228915
0.00289691
0.000760622
0.000402728
0.000540286
0.000878973
0.000787084
0.000268926
-6.2191e-05
0.00033365
0.000189418
-0.000458344
4.45997e-05
4.0529e-05
0.000204175
3.34232e-05
0.000225002
4.04786e-05
0.000987232
1.64505e-05
-2.02198e-06
-1.00948e-05
0.00414309
3.39525e-05
0.000978463
-3.09014e-05
0.000243774
2.88029e-05
0.000252073
1.35761e-05
3.40432e-05
3.27801e-05
-0.000108046
0.00783472
-0.000441902
0.0114179
-0.000740108
0.0142807
-0.00093439
0.016221
-0.00098624
0.0173213
-0.000923482
0.0178262
-0.000791622
0.0179928
-0.000626985
0.0180113
-0.000454675
0.017997
-0.000285706
0.0180033
-0.000126623
0.018052
2.56194e-05
0.0181428
0.000168421
0.018276
0.000303142
0.0184256
0.000421414
0.0185225
0.000511415
0.0184139
0.000554563
0.0178748
0.000539381
0.0166678
0.000480589
0.014691
0.000405622
0.0120593
0.000320023
0.00905093
0.00333009
-1.61566e-05
-1.34106e-05
-0.000800926
0.000788118
-2.41026e-06
-2.0703e-06
-1.93115e-06
-1.54655e-06
-0.000192056
0.000189793
-7.5711e-07
-0.000193659
-7.28182e-07
-0.000195547
-5.75682e-07
-2.8041e-07
-5.56218e-05
5.4882e-05
-5.60722e-05
-5.59673e-05
0.000214838
-0.000106956
0.0059882
-0.0052762
0.0101145
-0.00455439
0.0101438
-0.00377356
0.0100718
-0.00287183
0.00986148
-0.00173079
0.00946016
-5.326e-05
0.00882268
0.00315379
0.00804298
0.00325844
-0.00129615
-0.00114658
0.000899102
0.000574338
0.0032855
0.00286984
0.000736378
0.000882329
0.000394336
-0.00111449
0.000697314
0.000554924
6.62033e-05
8.95344e-05
1.71476e-05
0.000255439
1.30851e-05
0.000234777
1.864e-05
0.000959369
8.99881e-06
6.1413e-05
0.00393295
4.06831e-05
0.000947693
4.56285e-05
-0.000149938
0.000356289
-1.49609e-06
-9.8065e-07
0.000110621
7.71645e-06
0.000121343
2.85403e-06
-3.60495e-05
0.00742887
-0.00025004
0.0109278
-0.000520797
0.0138671
-0.000717881
0.0159526
-0.000800103
0.017198
-0.000776842
0.0178114
-0.00067997
0.0180458
-0.000542707
0.0180994
-0.000390501
0.0181018
-0.000237369
0.018114
-8.88404e-05
0.0181665
5.40936e-05
0.0182571
0.000189249
0.0183899
0.000317081
0.0185299
0.000429513
0.0186044
0.000513154
0.0184553
0.000556642
0.0178576
0.0005534
0.016595
0.000510492
0.0145861
0.000437566
0.0119417
0.000336279
0.00892949
0.0032525
-1.53646e-05
-1.39986e-05
-0.000777953
0.000765987
-2.18811e-06
-2.00161e-06
-1.72062e-06
-1.52535e-06
-0.000185453
0.000183648
-6.04655e-07
-0.000186925
-5.97997e-07
-0.000188445
-4.11733e-07
-1.98534e-07
-5.32977e-05
5.25406e-05
-5.40259e-05
-5.46016e-05
0.000215259
-0.000105941
0.00587889
-0.00538491
0.0101207
-0.004615
0.0101752
-0.00377802
0.0101483
-0.00282098
0.010021
-0.00164837
0.00977905
-5.08951e-05
0.0094578
0.00256463
0.00941184
-0.00237948
0.00537303
0.00382552
0.00450941
-0.00094926
0.00049999
-0.00107433
0.00100098
0.000972449
-0.00049999
-0.000682612
0.00128329
0.00089067
0.000394336
1.71476e-05
0.000130698
3.73016e-06
-5.99831e-07
0.000363559
-8.77008e-08
1.81685e-06
0.000938222
7.08833e-05
2.57061e-05
0.00384866
2.25338e-05
0.000944489
3.44166e-05
0.000385542
1.79118e-05
5.73395e-06
-2.98677e-05
2.83716e-05
-3.08484e-05
2.4864e-05
2.7718e-05
4.53348e-05
0.00713349
-0.000139768
0.0105468
-0.000371349
0.0135206
-0.000556771
0.0157093
-0.000657134
0.0170783
-0.000660456
0.0177919
-0.000588633
0.0180917
-0.000474747
0.0181836
-0.000339005
0.0182035
-0.000199129
0.0182243
-5.94619e-05
0.01828
7.55152e-05
0.0183708
0.000205299
0.0185017
0.000326861
0.0186325
0.000434222
0.0186833
0.00051776
0.0184942
0.000566576
0.0178444
0.000570998
0.0165345
0.000533505
0.0144902
0.000453326
0.0118247
0.000337693
0.00880706
0.00317508
-1.44644e-05
-1.40503e-05
-0.000755216
0.000743891
-2.06793e-06
-1.97125e-06
-1.65783e-06
-1.56972e-06
-0.000179512
0.000177888
-5.64525e-07
-0.000180947
-5.6647e-07
-0.000182299
-3.67821e-07
-1.76716e-07
-5.13324e-05
5.07278e-05
-5.19304e-05
-5.23421e-05
0.000208113
-0.000101967
0.00577274
-0.00550072
0.0101278
-0.00469638
0.0102021
-0.00381633
0.0102135
-0.0028265
0.0101538
-0.00165943
0.010032
-0.000176509
0.00990467
0.00194001
0.0100824
0.00430232
0.0104826
0.0017678
-0.000651034
0.00323778
-0.000529015
0.00191261
0.00436459
0.000289837
-0.000494495
0.00112675
-0.000289837
0.000686011
3.14482e-05
2.82839e-05
3.01007e-05
0.000409496
2.58174e-05
2.11115e-05
0.000953183
1.70115e-05
4.88745e-05
0.0037768
6.83146e-05
0.000963569
1.21479e-05
0.000433581
9.75004e-07
9.35696e-06
-3.58347e-05
5.37465e-05
7.35216e-05
0.0069202
-7.61671e-05
0.0102516
-0.000260943
0.0132247
-0.000436854
0.015489
-0.000544002
0.0169618
-0.000566832
0.0177701
-0.000517254
0.0181342
-0.000419649
0.0182643
-0.000297403
0.0183017
-0.000167412
0.0183323
-3.48861e-05
0.0183904
9.31921e-05
0.018483
0.00021833
0.0186102
0.000334111
0.0187327
0.000441492
0.0187596
0.000526714
0.0185341
0.000577793
0.0178376
0.000587101
0.0164809
0.000545083
0.0143984
0.000454327
0.0117081
0.00032768
0.00868749
0.00310039
-1.34701e-05
-1.38136e-05
-0.000732992
0.000722372
-1.94111e-06
-1.90294e-06
-1.58599e-06
-1.56521e-06
-0.000173789
0.000172261
-5.40765e-07
-0.000175204
-5.55406e-07
-0.0001765
-3.62504e-07
-1.80991e-07
-4.96169e-05
4.90524e-05
-5.01833e-05
-5.05511e-05
0.000194715
-9.5666e-05
0.00567369
-0.00562571
0.010136
-0.00479868
0.0102301
-0.00388635
0.0102721
-0.00287643
0.0102634
-0.00173247
0.0102269
-0.000365923
0.0102214
0.00137886
0.0104658
0.00326409
0.0111207
-0.00140278
0.00346721
0.0103307
0.00100323
0.00267373
-0.000172644
-0.000266548
-0.000324957
0.00092269
0.00396504
0.000361055
6.63505e-05
1.32134e-05
8.10863e-05
6.37569e-06
0.000448983
1.79345e-06
-1.84309e-07
0.000970702
4.17413e-05
6.98473e-05
0.00373582
4.46537e-05
0.000975765
6.32514e-05
0.000461476
6.80811e-07
-1.02584e-06
-8.86255e-05
8.97848e-05
-1.84358e-07
1.81777e-06
6.47515e-05