/*--------------------------------*- C++ -*----------------------------------*\
| =========                 |                                                 |
| \\      /  F ield         | OpenFOAM: The Open Source CFD Toolbox           |
|  \\    /   O peration     | Version:  v1912                                 |
|   \\  /    A nd           | Website:  www.openfoam.com                      |
|    \\/     M anipulation  |                                                 |
\*---------------------------------------------------------------------------*/
FoamFile
{
    version     2.0;
    format      ascii;
    class       volVectorField;
    location    "500";
    object      U;
}
// * * * * * * * * * * * * * * * * * * * * * * * * * * * * * * * * * * * * * //

dimensions      [0 1 -1 0 0 0 0];


internalField   nonuniform List<vector> 
3675
(
(0.999101 0.00116442 1.19804e-25)
(0.999149 0.00345762 0)
(0.99032 0.00374855 3.41328e-23)
(0.999239 0.00552052 -5.97085e-23)
(0.991009 0.011101 0)
(0.969808 0.00728593 -1.08434e-21)
(0.999355 0.00723791 3.66491e-21)
(0.992271 0.0176547 -3.95492e-21)
(0.97214 0.0214407 1.11397e-21)
(0.932719 0.0129319 -7.58886e-23)
(0.999483 0.00854301 -7.10002e-21)
(0.993905 0.0230204 7.83198e-21)
(0.976378 0.0337757 0)
(0.938836 0.0376892 2.38606e-21)
(0.869185 0.0234158 -2.13997e-22)
(0.999609 0.00941537 3.43673e-21)
(0.995694 0.0269889 -9.92375e-23)
(0.981801 0.0434941 -1.3055e-22)
(0.949569 0.0584959 -2.33453e-21)
(0.883454 0.0669595 0)
(0.754642 0.044913 2.2082e-22)
(0.999725 0.00987071 0)
(0.997459 0.0295228 3.34589e-21)
(0.987624 0.0502762 0)
(0.96269 0.0737977 1.27406e-22)
(0.907373 0.100875 3.31817e-22)
(0.793496 0.122977 -3.3068e-21)
(0.586693 0.0431178 -2.45557e-22)
(0.607335 0.118591 -3.94667e-22)
(0.999827 0.0099484 0)
(0.999079 0.0307102 -6.98016e-21)
(0.993224 0.0541964 6.98692e-21)
(0.976144 0.0832852 3.7013e-21)
(0.93619 0.122647 -2.79685e-22)
(0.85002 0.177903 5.05833e-21)
(0.647346 0.192452 7.03116e-22)
(0.699873 0.240389 3.47912e-22)
(0.393906 0.062352 8.16227e-22)
(0.432977 0.180533 -4.7345e-22)
(0.999916 0.00969915 0)
(1.00049 0.0307096 -4.96916e-23)
(0.998241 0.0555738 -6.89959e-21)
(0.988506 0.087615 -3.57415e-21)
(0.963693 0.133041 0)
(0.909622 0.20545 -1.83354e-21)
(0.763353 0.355555 -2.22073e-21)
(0.504782 0.278278 -1.44708e-21)
(0.591885 0.357867 1.15711e-21)
(0.183927 0.0397771 -1.8212e-22)
(0.197402 0.118367 3.77609e-22)
(0.270582 0.266194 1.89451e-21)
(0.224911 0.193873 -3.26582e-22)
(0.999994 0.00917616 0)
(1.00168 0.0297049 0)
(1.00252 0.0548237 1.09796e-24)
(0.999123 0.087825 -1.01662e-22)
(0.986865 0.134787 -2.05786e-22)
(0.959545 0.209792 0)
(0.89701 0.366126 4.58111e-21)
(0.636742 0.55999 1.72063e-22)
(0.772391 0.591926 4.2314e-23)
(0.32963 0.339016 3.52247e-23)
(0.403881 0.408277 0)
(0.481531 0.490299 -7.44388e-22)
(0.036678 0.0316613 -1.54153e-21)
(0.0486965 0.0946081 -7.05934e-22)
(0.113458 0.206696 -7.16791e-21)
(0.0756922 0.153604 -2.42696e-21)
(1.00006 0.00842908 0)
(1.00266 0.0278759 0)
(1.00605 0.0523602 0)
(1.00785 0.084896 4.73195e-23)
(1.00542 0.13073 0)
(0.997336 0.201209 9.41781e-23)
(0.981928 0.332258 -3.01645e-21)
(0.979013 0.555739 -4.98978e-22)
(0.62106 0.553792 -8.87729e-24)
(0.4885 0.487252 -9.01327e-23)
(0.769251 0.536209 1.20155e-22)
(0.166497 0.308354 8.81036e-21)
(0.289867 0.400596 -6.08339e-22)
(0.332446 0.383763 1.71395e-21)
(0.233834 0.279996 -1.62414e-21)
(1.00013 0.00750207 -4.69284e-24)
(1.00344 0.0253851 0)
(1.00889 0.0485553 -5.30128e-21)
(1.0148 0.0796307 0)
(1.01986 0.122885 -7.64961e-23)
(1.02497 0.186811 0)
(1.03339 0.290472 -4.17735e-23)
(1.10088 0.483874 3.26264e-22)
(0.913825 0.447257 -3.5824e-22)
(1.09689 0.503387 -3.00861e-23)
(0.462144 0.34401 3.16393e-24)
(0.28765 0.247281 -2.98076e-24)
(0.71415 0.42279 6.24299e-22)
(0.466143 0.288208 0)
(0.0575206 0.132794 2.72948e-21)
(0.161622 0.244836 -6.27679e-21)
(0.13241 0.164411 0)
(1.00019 0.00643103 0)
(1.00407 0.0223705 -4.54905e-24)
(1.01113 0.0437169 5.26982e-21)
(1.02022 0.072665 -4.15326e-23)
(1.03081 0.112577 0)
(1.04473 0.169555 7.2091e-23)
(1.06654 0.253256 0)
(1.14353 0.395893 7.20739e-22)
(1.22885 0.419418 -1.62734e-21)
(0.692563 0.205392 1.5692e-22)
(0.567297 0.273873 -1.27171e-21)
(1.01596 0.298591 -8.97665e-22)
(0.193614 0.133887 2.74729e-21)
(0.264317 0.154325 1.25361e-21)
(1.00025 0.00524569 0)
(1.00457 0.0189439 -8.9533e-24)
(1.01289 0.0380872 9.55674e-24)
(1.02438 0.0644834 1.71629e-23)
(1.03895 0.100706 -3.01971e-23)
(1.05861 0.150935 3.45119e-21)
(1.08828 0.220179 2.3789e-21)
(1.15716 0.323133 6.45851e-22)
(1.28766 0.379387 2.14453e-21)
(1.15308 0.260452 0)
(0.449313 0.0577951 5.13823e-22)
(0.193764 0.036281 0)
(0.363206 0.0932365 4.23952e-23)
(0.848551 0.170114 -3.12236e-22)
(0.122961 0.0330441 -1.55254e-22)
(1.00032 0.00396882 -8.44591e-21)
(1.00497 0.0151925 4.25176e-24)
(1.01426 0.0318516 1.72104e-23)
(1.02757 0.0554358 -1.55136e-23)
(1.04496 0.0878671 -1.68056e-23)
(1.06827 0.131889 -6.49574e-21)
(1.10204 0.189997 -4.42073e-21)
(1.16305 0.267482 -6.78528e-22)
(1.27924 0.322498 0)
(1.33542 0.287626 0)
(1.0016 0.142165 6.45487e-21)
(0.686116 0.0996217 -3.99975e-23)
(0.119889 0.00564741 1.10696e-22)
(0.320213 0.0211177 -1.07678e-23)
(0.0924842 0.00388284 -3.15023e-22)
(1.00038 0.00261746 8.38113e-21)
(1.00529 0.0111812 -2.14338e-24)
(1.01535 0.0251463 -4.25207e-24)
(1.03003 0.0457558 -2.23816e-23)
(1.0494 0.0744391 6.96041e-21)
(1.07498 0.112916 3.07661e-21)
(1.11048 0.162217 2.02617e-21)
(1.16602 0.223159 -1.60677e-23)
(1.25925 0.271005 0)
(1.35778 0.267618 -4.76242e-21)
(1.291 0.204473 -7.89136e-21)
(0.889174 0.0705755 7.97143e-23)
(0.55335 0.0437659 -5.4433e-21)
(0.594144 0.0555532 2.79954e-24)
(0.275929 0.00788074 1.14626e-23)
(0.065924 0.00218503 9.42272e-23)
(0.0705592 -0.00091642 0)
(1.00046 0.00120527 0)
(1.00557 0.00695905 0)
(1.01623 0.0180672 -3.66064e-24)
(1.03198 0.0355957 0)
(1.05277 0.0606301 -5.00587e-22)
(1.07973 0.0941997 7.58095e-24)
(1.11564 0.136477 1.3752e-21)
(1.16689 0.186259 -7.00803e-24)
(1.24314 0.227926 -1.8738e-21)
(1.33432 0.237517 4.92048e-21)
(1.37549 0.214007 -5.72269e-21)
(1.2231 0.142125 0)
(0.810544 0.039293 -4.88468e-21)
(0.511905 0.0181606 -8.51909e-23)
(0.53145 0.0233724 7.91542e-23)
(0.287274 0.0126198 9.96011e-21)
(0.0612851 -0.00176909 -1.00607e-22)
(0.0666855 0.00229011 6.46233e-21)
(1.00054 -0.00025708 0)
(1.0058 0.00256219 -8.17933e-21)
(1.01695 0.0106782 0)
(1.03356 0.0250465 3.63471e-24)
(1.05542 0.04654 -3.86903e-22)
(1.08325 0.0757574 -4.34385e-21)
(1.11896 0.11238 -1.40494e-21)
(1.16654 0.154407 0)
(1.23134 0.191407 3.78705e-21)
(1.30813 0.206909 -1.14528e-23)
(1.37257 0.200945 6.69632e-22)
(1.36201 0.169944 0)
(1.15683 0.100711 1.18842e-20)
(0.753949 0.0275031 -1.22413e-21)
(0.476126 0.0116497 -1.20007e-21)
(0.491177 0.0110548 4.88199e-24)
(0.284314 0.0049563 0)
(0.293625 0.00593351 -1.23686e-21)
(0.132355 0.00366356 -3.56705e-21)
(0.0945959 0.00816038 -1.62952e-20)
(1.00063 -0.00175964 0)
(1.00599 -0.00197992 1.62135e-20)
(1.01755 0.00302183 0)
(1.03489 0.014151 0)
(1.05764 0.0321878 -1.09916e-20)
(1.08612 0.0574983 4.2158e-21)
(1.12141 0.0895328 1.85085e-21)
(1.16588 0.126021 -6.7667e-22)
(1.2225 0.159596 -1.87424e-21)
(1.28785 0.178498 -8.06718e-24)
(1.34931 0.181078 5.25696e-21)
(1.38724 0.170121 -2.9421e-24)
(1.335 0.135399 -7.03972e-21)
(1.09717 0.0755628 1.61057e-23)
(0.711847 0.0226235 -6.03127e-22)
(0.449074 0.00952823 1.14836e-21)
(0.460487 0.00838227 1.16614e-21)
(0.268623 0.0028264 1.10963e-21)
(0.275258 0.00229242 -2.14818e-22)
(0.130656 0.00180185 -3.19299e-24)
(0.13249 0.000460665 2.68375e-23)
(0.134901 0.00093248 2.6193e-21)
(0.135656 0.00192795 4.04073e-22)
(0.0414538 -0.000746829 1.69742e-21)
(0.0256582 0.00220746 4.84939e-21)
(1.00072 -0.00329159 0)
(1.00614 -0.00663926 -8.03154e-21)
(1.01804 -0.00487096 7.41378e-21)
(1.03606 0.00292277 6.37867e-21)
(1.05963 0.0175409 1.03004e-20)
(1.08871 0.0392747 0)
(1.12367 0.0675205 -1.8059e-21)
(1.16564 0.100006 6.85071e-22)
(1.21613 0.131142 0)
(1.27289 0.152363 -2.55904e-23)
(1.3277 0.160637 4.51818e-21)
(1.37342 0.159065 5.1362e-24)
(1.38854 0.14508 -1.01795e-25)
(1.30142 0.110988 -6.83496e-21)
(1.04634 0.0607322 0)
(0.679165 0.0203419 -4.86132e-21)
(0.427609 0.00839644 1.12932e-21)
(0.436736 0.00746664 5.75603e-22)
(0.256683 0.0024579 6.71548e-23)
(0.262171 0.00198562 -5.82989e-25)
(0.12492 0.000987092 -4.85587e-23)
(0.125969 0.000127678 -2.48014e-23)
(0.128035 -0.000264746 3.0636e-22)
(0.127552 0.000774428 1.24475e-22)
(0.039723 0.000202967 1.65137e-23)
(0.040378 -8.51695e-05 0)
(0.0408157 -0.000349226 -5.56386e-22)
(0.0412116 0.000182497 -2.77102e-22)
(1.00081 -0.00483947 0)
(1.00625 -0.0113842 -7.6774e-24)
(1.01842 -0.012972 -7.32139e-21)
(1.03707 -0.0086426 3.69622e-23)
(1.06149 0.00252611 -9.82475e-21)
(1.09131 0.0208937 3.15792e-21)
(1.1262 0.0459529 -4.87783e-26)
(1.16634 0.0755158 2.49725e-24)
(1.21219 0.105056 4.53191e-24)
(1.26223 0.128007 -6.55091e-21)
(1.31106 0.140843 -9.04264e-21)
(1.35417 0.145036 4.30442e-24)
(1.38712 0.141347 0)
(1.38045 0.126441 6.56913e-21)
(1.26636 0.0947261 6.93593e-21)
(1.00395 0.0520345 4.10126e-21)
(0.652608 0.0192294 -4.67885e-24)
(0.409647 0.00789736 0)
(0.417378 0.00706588 5.61164e-22)
(0.246379 0.00230571 1.95925e-22)
(0.251196 0.00200881 -5.8999e-22)
(0.120371 0.000790266 -4.65078e-23)
(0.121287 0.00024359 -9.35407e-23)
(0.123221 -2.25251e-06 9.53402e-23)
(0.122639 0.000661939 -1.42027e-22)
(0.0387185 9.68186e-05 3.12695e-23)
(0.0390563 -6.02467e-05 1.99694e-24)
(0.0391406 -0.000177332 -8.17884e-23)
(0.0393294 4.97132e-05 -1.9913e-24)
(1.00091 -0.00638463 0)
(1.00629 -0.0161718 0)
(1.01864 -0.0212451 7.53058e-24)
(1.03792 -0.0205544 -6.17699e-21)
(1.06327 -0.0129495 4.77168e-21)
(1.09407 0.0021266 -6.04214e-21)
(1.12933 0.0244255 -1.01099e-24)
(1.16835 0.0518657 4.76557e-26)
(1.21078 0.0805401 -4.02755e-21)
(1.25545 0.105024 6.65977e-21)
(1.299 0.121645 -4.24545e-21)
(1.33816 0.130501 -1.07897e-23)
(1.37195 0.132628 5.44177e-24)
(1.39279 0.128074 0)
(1.36638 0.113442 -6.58589e-21)
(1.23275 0.084026 -6.98983e-21)
(0.968367 0.046983 0)
(0.631082 0.0186593 -6.07692e-22)
(0.394172 0.00769451 -1.03245e-21)
(0.400745 0.00692899 1.03445e-21)
(0.236987 0.0022958 -6.41359e-23)
(0.241457 0.00208177 -4.49676e-22)
(0.116127 0.000693193 -1.35461e-22)
(0.116979 0.000313105 -9.06288e-23)
(0.118894 0.000172089 -4.60349e-23)
(0.118229 0.000623791 0)
(0.0376968 7.04776e-05 1.50581e-23)
(0.0380154 -2.66761e-05 0)
(0.0383503 -8.43014e-05 0)
(0.0383143 4.92656e-05 3.04777e-23)
(1.00101 -0.00790104 0)
(1.00624 -0.0209415 -8.7438e-21)
(1.01866 -0.0296342 0)
(1.03851 -0.0328113 0)
(1.06492 -0.0289892 -8.97296e-24)
(1.09705 -0.0172772 2.88741e-21)
(1.13324 0.00252662 0)
(1.17196 0.0284386 0)
(1.21208 0.0569193 3.90469e-21)
(1.25247 0.0830447 5.03941e-24)
(1.29123 0.102993 1.76145e-20)
(1.32635 0.115924 0)
(1.35734 0.12246 5.72092e-21)
(1.38299 0.123483 0)
(1.39232 0.118904 0)
(1.34919 0.104541 6.57543e-21)
(1.20149 0.0770537 0)
(0.938494 0.0441136 0)
(0.616448 0.0185243 -9.48199e-21)
(0.38204 0.00757171 1.08643e-21)
(0.386654 0.00682387 1.09283e-21)
(0.228233 0.0023139 -3.8602e-25)
(0.232376 0.00216838 6.30411e-23)
(0.111935 0.000662291 -4.42154e-23)
(0.112783 0.000370336 8.86278e-23)
(0.114746 0.000282258 4.48314e-23)
(0.114017 0.000620421 -8.9195e-23)
(0.0365817 5.63727e-05 1.46244e-23)
(0.0368832 -1.03524e-05 0)
(0.0373419 -4.26206e-05 4.45868e-23)
(0.0371977 4.72339e-05 0)
(1.00109 -0.009352 -1.78501e-23)
(1.00605 -0.0256056 2.69236e-20)
(1.01837 -0.0380493 1.31564e-23)
(1.03871 -0.0453815 0)
(1.06628 -0.0456964 0)
(1.10021 -0.0375961 5.19699e-24)
(1.13803 -0.0201839 4.10177e-25)
(1.17737 0.00463551 -1.88643e-21)
(1.21623 0.0335763 0)
(1.25332 0.0616999 0)
(1.28773 0.0848342 -8.63096e-21)
(1.31872 0.101473 0)
(1.34625 0.111851 -5.81659e-21)
(1.37034 0.116808 -3.19155e-24)
(1.38864 0.11747 0)
(1.38768 0.112857 0)
(1.33049 0.0985337 0)
(1.17285 0.0726325 0)
(0.914194 0.042749 8.14698e-21)
(0.612146 0.0193778 -2.35103e-21)
(0.378386 0.00768315 -4.23446e-21)
(0.377813 0.00661106 -2.15468e-21)
(0.220871 0.00229177 -9.27345e-22)
(0.224113 0.00221249 -6.2375e-23)
(0.107737 0.00065391 -8.69541e-23)
(0.108566 0.000404502 2.18782e-23)
(0.110575 0.000353447 2.1911e-23)
(0.109799 0.000633811 -4.37787e-23)
(0.0353619 5.11066e-05 4.28497e-23)
(0.0356712 3.66238e-07 -3.60103e-24)
(0.0362202 -1.84786e-05 -1.44024e-23)
(0.0360105 4.77005e-05 3.59209e-24)
(1.00116 -0.0106882 3.75316e-23)
(1.00568 -0.0300406 1.09792e-21)
(1.01764 -0.0463468 -1.70111e-20)
(1.0383 -0.0581855 -2.80764e-23)
(1.06712 -0.0631509 7.80282e-24)
(1.10337 -0.0591282 0)
(1.14366 -0.0441848 -1.54957e-24)
(1.18474 -0.0201765 1.82774e-21)
(1.22349 0.00991605 0)
(1.25814 0.040616 0)
(1.28861 0.0670835 0)
(1.31538 0.0872653 0)
(1.33908 0.101146 1.15248e-20)
(1.36016 0.109472 6.12119e-24)
(1.37835 0.113489 6.03737e-24)
(1.39035 0.113941 0)
(1.38021 0.109018 0)
(1.31115 0.0946067 0)
(1.14698 0.0700275 3.39847e-24)
(0.89502 0.0426055 7.89027e-24)
(0.606523 0.0199335 -5.80409e-21)
(0.393446 0.00815329 -4.01208e-21)
(0.384256 0.00836303 4.03254e-21)
(0.220279 0.00196258 3.91693e-21)
(0.218657 0.00206621 2.47028e-21)
(0.103851 0.00064068 0)
(0.104486 0.000413928 -4.31042e-23)
(0.106402 0.00038876 4.33191e-23)
(0.105661 0.000645947 0)
(0.0340615 4.9667e-05 0)
(0.0343737 6.12754e-06 0)
(0.0349859 -4.84516e-06 -1.42685e-23)
(0.0347324 4.98795e-05 0)
(1.0012 -0.0118441 3.96059e-23)
(1.00506 -0.034076 -1.90022e-20)
(1.01629 -0.0543109 1.6865e-20)
(1.03695 -0.0710681 0)
(1.06702 -0.0813977 -5.48197e-21)
(1.1062 -0.0821719 -7.494e-24)
(1.14994 -0.0700116 0)
(1.19417 -0.0467209 0)
(1.2341 -0.0146724 0)
(1.26716 0.0194352 7.80296e-24)
(1.29403 0.0496269 9.389e-24)
(1.31649 0.0733778 1.06406e-23)
(1.33603 0.0905649 -2.28639e-20)
(1.3535 0.101949 6.12409e-24)
(1.36917 0.108715 -1.23374e-23)
(1.3826 0.112073 3.12854e-24)
(1.38918 0.112157 -6.32944e-21)
(1.37069 0.106733 0)
(1.29177 0.0921564 0)
(1.12363 0.0686376 -5.5742e-26)
(0.87687 0.0420509 1.83701e-23)
(0.592963 0.020402 -4.61776e-21)
(0.395178 0.00942441 -2.09087e-21)
(0.396563 0.00829769 8.31607e-23)
(0.252328 0.00280516 3.6343e-21)
(0.232951 0.00361225 0)
(0.106864 0.000289532 0)
(0.103275 -6.06945e-05 -6.85489e-22)
(0.102789 0.000332025 -1.2855e-22)
(0.102844 0.000511586 -6.4059e-22)
(0.0327873 4.92411e-05 1.38952e-23)
(0.0330568 9.30906e-06 2.96573e-23)
(0.0336785 2.23843e-06 -2.80394e-23)
(0.0334157 5.28195e-05 -1.74476e-24)
(1.0012 -0.0127363 0)
(1.00413 -0.0374844 -4.00419e-23)
(1.01412 -0.0616318 0)
(1.03426 -0.0837602 -6.25762e-23)
(1.06545 -0.100399 5.35348e-21)
(1.10816 -0.106997 3.39555e-21)
(1.15642 -0.0982612 -1.09752e-24)
(1.20563 -0.075876 0)
(1.2484 -0.0408589 5.29584e-21)
(1.28071 -0.00218196 0)
(1.30421 0.0323759 1.93537e-24)
(1.32226 0.059871 -9.27443e-24)
(1.33731 0.0802828 1.13079e-20)
(1.3507 0.094512 -1.23199e-20)
(1.36301 0.10375 -1.2794e-20)
(1.3744 0.109279 -1.29369e-20)
(1.38407 0.111987 1.27905e-20)
(1.3858 0.11155 -6.29729e-21)
(1.35973 0.105498 6.25095e-21)
(1.27267 0.0906324 0)
(1.10132 0.0672548 1.42467e-24)
(0.85639 0.0414918 1.19331e-20)
(0.575432 0.0201541 -4.52988e-21)
(0.384927 0.00990894 1.00163e-21)
(0.390432 0.00920147 -3.96713e-24)
(0.257776 0.00403444 -5.77096e-23)
(0.258522 0.00349999 -3.60229e-21)
(0.154458 0.0007803 -1.28609e-21)
(0.147693 0.000865201 0)
(0.114656 7.46623e-05 -2.72411e-21)
(0.129937 0.00331974 5.2053e-21)
(0.035054 -0.000401874 0)
(0.0328702 -0.000177403 4.51688e-22)
(0.0324874 -8.04943e-06 4.3349e-23)
(0.0324862 5.72385e-06 -1.74416e-24)
(1.00115 -0.0132641 0)
(1.00279 -0.0399775 0)
(1.01086 -0.0678849 0)
(1.02972 -0.0958393 0)
(1.06163 -0.119943 0)
(1.10831 -0.133759 -3.29095e-21)
(1.16226 -0.129638 0)
(1.21899 -0.108775 2.68934e-21)
(1.26676 -0.0694004 -5.10126e-21)
(1.29919 -0.0245425 3.0763e-24)
(1.31943 0.0152801 -9.99826e-24)
(1.33286 0.0468277 -1.09663e-20)
(1.34311 0.0704607 -1.17344e-23)
(1.35202 0.0873819 1.21344e-20)
(1.36041 0.0988946 1.26564e-20)
(1.36865 0.106307 1.29483e-20)
(1.37682 0.110735 -6.46635e-21)
(1.38343 0.11276 6.33916e-21)
(1.38072 0.111687 2.51803e-23)
(1.34779 0.104871 6.17478e-21)
(1.25361 0.0893115 1.26744e-20)
(1.07849 0.0659825 -1.37021e-20)
(0.834129 0.0408815 7.56098e-24)
(0.556452 0.0194421 -4.23022e-24)
(0.371576 0.00948894 -6.20279e-23)
(0.37801 0.00906078 6.18156e-23)
(0.250067 0.00421651 -7.35404e-22)
(0.254464 0.00406582 5.6885e-23)
(0.157278 0.00170536 0)
(0.158046 0.00145996 3.23326e-22)
(0.157484 0.00113881 6.44593e-22)
(0.158628 0.00148105 3.2289e-22)
(0.0886073 0.000230849 1.72407e-21)
(0.0836078 0.000695482 0)
(0.0387369 -0.00035671 2.0463e-21)
(0.0563739 0.00414522 -3.51936e-21)
(1.00102 -0.0133186 2.42278e-20)
(1.00101 -0.041212 2.39763e-20)
(1.00628 -0.0724984 0)
(1.02275 -0.106642 1.91411e-20)
(1.0545 -0.139519 -1.48309e-20)
(1.10514 -0.162392 0)
(1.16603 -0.165128 1.53817e-21)
(1.23415 -0.147086 3.08007e-22)
(1.28987 -0.101205 6.4876e-21)
(1.32326 -0.0479122 7.65366e-24)
(1.34004 -0.00164667 1.05054e-23)
(1.3485 0.0343684 1.07159e-20)
(1.3536 0.0612736 -1.21389e-20)
(1.35765 0.0807701 3.64507e-23)
(1.36167 0.0943783 1.22008e-23)
(1.36615 0.103488 0)
(1.37136 0.1093 1.31226e-20)
(1.37712 0.112714 0)
(1.38116 0.114032 -6.25312e-21)
(1.37433 0.112208 -1.2232e-20)
(1.33504 0.104401 -1.21423e-20)
(1.23406 0.0881035 6.23602e-21)
(1.055 0.0648827 3.36736e-21)
(0.811186 0.0400273 0)
(0.538648 0.019319 -5.60047e-22)
(0.3577 0.00868712 -9.14627e-22)
(0.364305 0.00845787 9.17524e-22)
(0.240408 0.00395013 -5.62748e-23)
(0.245249 0.00395556 5.36034e-23)
(0.151276 0.00175777 -2.3943e-22)
(0.152755 0.00154397 -9.98536e-23)
(0.155745 0.00148209 2.01189e-22)
(0.154493 0.00170681 -2.01957e-23)
(0.090707 0.00053758 -2.26406e-24)
(0.091352 0.000472825 -2.17848e-22)
(0.0911121 0.000306861 -5.78567e-22)
(0.091683 0.000455391 -2.90521e-22)
(0.0281226 -0.000186067 -4.10397e-22)
(0.0274126 -0.000458903 -8.01584e-22)
(0.0156848 0.00123841 4.18447e-22)
(1.0008 -0.012802 -4.94519e-20)
(0.998774 -0.040822 -2.39645e-20)
(1.00023 -0.0747264 0)
(1.01268 -0.115122 -1.91391e-20)
(1.0426 -0.15826 -2.21099e-21)
(1.09642 -0.192703 0)
(1.16609 -0.206465 -1.48766e-21)
(1.25193 -0.193578 -8.89683e-21)
(1.31967 -0.137614 -1.35879e-20)
(1.35438 -0.0725615 0)
(1.36681 -0.018331 -1.1353e-20)
(1.36949 0.0226582 1.20177e-20)
(1.36893 0.0529218 1.18276e-20)
(1.36773 0.0748924 0)
(1.36699 0.0904219 -2.46996e-23)
(1.36726 0.101045 0)
(1.36886 0.10805 -1.30473e-20)
(1.37189 0.112452 6.35891e-24)
(1.37584 0.114937 1.27754e-20)
(1.37764 0.115517 -3.69159e-23)
(1.36689 0.112795 1.20052e-20)
(1.32144 0.10395 0)
(1.21393 0.087041 -2.95522e-24)
(1.03128 0.0637522 0)
(0.78831 0.0395294 0)
(0.520838 0.0187478 -4.61723e-21)
(0.345847 0.00552484 0)
(0.349551 0.00740651 9.64661e-22)
(0.231049 0.00339406 0)
(0.235661 0.00360283 -1.116e-22)
(0.144847 0.00163613 9.83842e-23)
(0.146278 0.0014291 2.16925e-22)
(0.149436 0.00144225 -7.91811e-23)
(0.148016 0.00164956 -7.92245e-23)
(0.0869793 0.000555433 7.17035e-23)
(0.0879786 0.000512144 -7.18981e-23)
(0.089811 0.00047659 -1.42163e-22)
(0.0889624 0.000534683 0)
(0.0287416 3.36615e-05 1.67419e-24)
(0.0289962 2.04213e-05 -5.51223e-23)
(0.0290737 -1.73891e-05 -4.98685e-24)
(0.0291736 2.07427e-05 -1.67198e-24)
(1.00052 -0.0116538 2.52353e-20)
(0.99621 -0.0384881 2.66647e-20)
(0.992806 -0.0737027 9.54802e-23)
(0.998888 -0.119746 0)
(1.0239 -0.174718 3.65567e-20)
(1.07954 -0.224816 6.24411e-23)
(1.16107 -0.256819 -3.50116e-21)
(1.27499 -0.252771 5.8042e-21)
(1.36008 -0.180607 7.00902e-21)
(1.39564 -0.0989378 1.12614e-23)
(1.40159 -0.034711 2.33344e-20)
(1.39677 0.0118838 -1.17061e-20)
(1.38949 0.0456229 2.3615e-23)
(1.38243 0.0699756 2.4519e-23)
(1.3765 0.0872436 0)
(1.37218 0.0991846 -2.59398e-23)
(1.36974 0.107202 0)
(1.36931 0.112389 0)
(1.3708 0.115564 -1.28344e-20)
(1.37337 0.11719 6.22458e-21)
(1.37313 0.11698 -6.01956e-21)
(1.35849 0.113311 -5.8875e-21)
(1.30704 0.103522 0)
(1.19346 0.0859993 6.93299e-26)
(1.00763 0.0626475 0)
(0.765998 0.0385489 3.74918e-21)
(0.275174 0.00398225 0)
(0.503186 0.0185952 0)
(0.222259 0.00032794 -6.3014e-23)
(0.228757 0.00271368 5.52656e-23)
(0.138934 0.00122822 0)
(0.140254 0.00116468 0)
(0.14313 0.00129854 5.87905e-23)
(0.141842 0.00147394 2.5348e-22)
(0.0831226 0.000510821 -1.05924e-22)
(0.0840619 0.000473068 -7.08188e-23)
(0.08593 0.000466506 -7.12512e-23)
(0.0850284 0.000512678 7.10415e-23)
(0.0274664 3.59611e-05 1.64952e-23)
(0.0278151 2.92292e-05 -3.30679e-24)
(0.0284469 1.95046e-05 0)
(0.0281632 3.5069e-05 0)
(1.00017 -0.00987625 0)
(0.993554 -0.0340444 1.26702e-21)
(0.98445 -0.0686572 5.1198e-23)
(0.981346 -0.118618 2.03185e-22)
(0.996428 -0.186075 -1.973e-20)
(1.05112 -0.258253 -1.62387e-20)
(1.14893 -0.3213 8.53542e-21)
(1.30525 -0.330215 2.92233e-23)
(1.41394 -0.23176 1.1725e-23)
(1.44958 -0.127215 -2.65856e-20)
(1.44655 -0.0506647 -1.19522e-20)
(1.43201 0.00223138 2.40667e-23)
(1.41631 0.0396078 -1.37078e-20)
(1.40224 0.0662478 0)
(1.39044 0.0850615 2.63608e-23)
(1.38108 0.0981059 2.62376e-23)
(1.37423 0.106942 2.59179e-23)
(1.3699 0.112742 0)
(1.36809 0.116386 1.30697e-20)
(1.36852 0.118494 0)
(1.36999 0.119309 1.22661e-20)
(1.36778 0.118303 5.88224e-21)
(1.34924 0.113738 0)
(1.29204 0.103056 5.70801e-21)
(1.17286 0.0849546 2.90728e-24)
(0.984435 0.061529 0)
(0.744647 0.0378407 0)
(0.262932 0.00486469 0)
(0.100159 0.000897789 6.39114e-23)
(0.101193 0.000120649 -6.38175e-23)
(0.48737 0.0181892 -4.3488e-24)
(0.104622 0.000700384 0)
(0.137352 0.000443787 0)
(0.136668 -0.000425934 0)
(0.0799058 0.000265321 0)
(0.0805747 0.000356871 -1.74723e-23)
(0.0821637 0.000415632 -7.01208e-23)
(0.0813723 0.000443805 -5.2452e-23)
(0.0261944 3.22416e-05 2.60467e-23)
(0.0265154 2.65749e-05 0)
(0.0271366 2.00394e-05 -1.31971e-23)
(0.0268462 3.30705e-05 0)
(0.999805 -0.00754346 0)
(0.991115 -0.027574 -2.80095e-20)
(0.97606 -0.0592402 -2.96877e-20)
(0.961449 -0.109896 2.98094e-20)
(0.960477 -0.187505 -1.94415e-22)
(1.00545 -0.287401 -5.25698e-21)
(1.12045 -0.40317 -1.30867e-20)
(1.33262 -0.428685 0)
(1.47018 -0.288598 -3.16037e-23)
(1.5074 -0.154765 5.70814e-20)
(1.49742 -0.0650355 -2.8345e-23)
(1.47444 -0.0057592 0)
(1.4501 0.0351956 2.78073e-20)
(1.428 0.0639659 -1.42388e-20)
(1.40932 0.0840894 0)
(1.39423 0.0980017 -1.38864e-20)
(1.38253 0.107442 -2.62546e-23)
(1.37396 0.113675 0)
(1.36839 0.117625 1.664e-22)
(1.36566 0.11997 1.28649e-20)
(1.36537 0.121148 -2.48139e-20)
(1.3659 0.12121 -2.87787e-24)
(1.36171 0.119458 -6.32219e-26)
(1.33931 0.114044 -5.57428e-21)
(1.2766 0.102516 0)
(1.15235 0.0839057 -5.77171e-21)
(0.962058 0.0605322 -3.03438e-24)
(0.724905 0.0371156 7.2762e-21)
(0.25282 0.00498177 1.71849e-22)
(0.0962776 0.000975908 -6.23441e-23)
(0.0977126 0.000177971 -3.13474e-23)
(0.0229205 0.000150077 1.17684e-23)
(0.0229745 -6.73222e-06 1.69288e-24)
(0.0231802 7.95271e-05 -2.73425e-23)
(0.0233554 -0.000156882 2.74376e-23)
(0.473711 0.0176847 -4.46381e-21)
(0.0238526 0.000282868 0)
(0.0239496 5.32753e-06 0)
(0.0788442 -0.00106106 0)
(0.0800971 -0.00024781 3.45037e-23)
(0.0251588 2.07687e-05 -3.21682e-24)
(0.0253895 1.57045e-05 3.21095e-24)
(0.0258992 1.69588e-05 0)
(0.025651 2.71731e-05 0)
(0.99944 -0.00479146 -5.58121e-23)
(0.989185 -0.0194305 0)
(0.968813 -0.0457632 3.01279e-20)
(0.942071 -0.0925611 -3.0458e-20)
(0.919817 -0.173562 -3.24273e-20)
(0.9367 -0.299516 2.17131e-20)
(1.04868 -0.489439 8.11455e-21)
(1.31672 -0.53894 -2.9646e-24)
(1.48134 -0.338512 3.56513e-20)
(1.52714 -0.172361 7.97881e-21)
(1.52647 -0.0733416 -6.35693e-23)
(1.50987 -0.0100494 2.90535e-23)
(1.48561 0.033269 -1.40837e-20)
(1.4587 0.0635631 -9.62007e-22)
(1.43347 0.084595 0)
(1.41208 0.0990661 -5.07589e-22)
(1.39493 0.108868 0)
(1.3817 0.115335 0)
(1.37203 0.119428 -2.63331e-20)
(1.36567 0.121852 -1.27679e-20)
(1.36237 0.123108 2.51125e-20)
(1.36158 0.123479 -5.83406e-24)
(1.36124 0.122872 2.86237e-24)
(1.35506 0.120426 -5.45079e-24)
(1.32883 0.114199 0)
(1.26089 0.101888 -1.53297e-23)
(1.13219 0.0828566 0)
(0.940875 0.0595319 -6.20002e-21)
(0.707176 0.0363736 -7.18757e-21)
(0.244043 0.00485943 5.72537e-21)
(0.0920957 0.00103077 -3.07318e-23)
(0.0937141 0.000296488 -2.15212e-22)
(0.0220655 0.000141069 1.33164e-23)
(0.0221951 9.75337e-06 2.66245e-23)
(0.0224711 4.91084e-05 2.67599e-23)
(0.0225884 -0.000125387 -1.34776e-23)
(0.46339 0.0172259 -8.76875e-21)
(0.0247832 -0.000330593 1.59928e-24)
(0.0253126 -9.25347e-05 -2.7128e-23)
(0.999102 -0.00179291 2.82561e-20)
(0.987959 -0.0101664 1.80708e-22)
(0.96371 -0.0291954 2.68429e-22)
(0.926534 -0.0673303 -3.54627e-20)
(0.879554 -0.141477 7.30505e-20)
(0.847684 -0.281606 -7.25883e-22)
(0.896666 -0.540932 5.53623e-21)
(1.17632 -0.62713 -1.32477e-21)
(1.34682 -0.347936 -2.41923e-20)
(1.41453 -0.162537 -9.27321e-20)
(1.46303 -0.0661579 0)
(1.49363 -0.00614349 1.33488e-22)
(1.49872 0.0360421 0)
(1.48389 0.0660189 -1.03259e-21)
(1.45959 0.0870565 5.65072e-23)
(1.43413 0.101572 1.38952e-20)
(1.41166 0.1114 0)
(1.3934 0.117864 -2.62162e-23)
(1.37927 0.121921 2.65127e-20)
(1.36893 0.124277 1.30711e-20)
(1.3621 0.125451 -2.52319e-20)
(1.35847 0.125801 1.22656e-20)
(1.35731 0.125489 1.14657e-23)
(1.35614 0.12429 1.12973e-20)
(1.34794 0.12119 2.68216e-24)
(1.31792 0.114191 5.28597e-21)
(1.24508 0.101171 0)
(1.11263 0.0817768 0)
(0.921159 0.0585393 7.61616e-24)
(0.691987 0.035799 0)
(0.238206 0.00439522 1.18448e-20)
(0.0882154 0.00103668 -3.02289e-23)
(0.0895477 0.000294494 -4.69285e-22)
(0.0210284 0.000150826 0)
(0.0211823 1.57763e-05 2.61705e-23)
(0.0215079 5.80545e-05 0)
(0.0216706 -0.000108435 -1.31269e-23)
(0.459099 0.0180042 -8.51441e-21)
(0.998807 0.001273 -5.62364e-20)
(0.987501 -0.00041799 -3.04177e-20)
(0.96126 -0.01092 3.27752e-20)
(0.917187 -0.0368276 -1.60713e-21)
(0.849359 -0.0936932 -8.43837e-20)
(0.760717 -0.223175 4.05889e-22)
(0.78122 -0.455366 7.39059e-22)
(0.697581 -0.426644 0)
(0.959955 -0.741912 2.41518e-21)
(0.767072 -0.689183 1.80481e-22)
(0.691714 -0.604734 -1.05298e-20)
(1.1664 -0.392958 -6.38697e-23)
(0.805959 -0.495701 3.30478e-23)
(0.823016 -0.262449 0)
(1.03643 -0.09857 9.70219e-20)
(0.899371 -0.165891 -3.43547e-20)
(1.20049 -0.0307579 5.38678e-20)
(1.34628 0.0112581 0)
(1.43526 0.046444 3.70474e-20)
(1.47188 0.0729019 1.57026e-20)
(1.47239 0.0922794 0)
(1.45461 0.105967 -5.7116e-23)
(1.43124 0.115302 -2.71736e-23)
(1.40897 0.12143 2.64284e-23)
(1.39031 0.125227 -1.31574e-20)
(1.37572 0.127354 -1.29303e-20)
(1.36502 0.128312 1.25659e-20)
(1.35796 0.128471 -1.2281e-20)
(1.35416 0.128077 -1.19319e-20)
(1.35271 0.127192 -1.137e-20)
(1.35071 0.125462 -5.33498e-24)
(1.34043 0.121744 -2.53801e-24)
(1.30669 0.114025 -5.16339e-21)
(1.22934 0.100364 0)
(1.09385 0.0806811 5.4479e-21)
(0.903101 0.0576702 -2.90199e-24)
(0.679741 0.0358664 0)
(0.246968 0.00524266 9.89999e-21)
(0.0870215 0.00102319 5.85771e-23)
(0.0862929 7.76244e-05 -2.02412e-21)
(0.0199939 0.000155214 0)
(0.0201188 1.75702e-05 2.57087e-23)
(0.0204458 6.40848e-05 -3.23742e-24)
(0.0206146 -0.000112142 -9.72233e-24)
(0.454775 0.0177626 -8.34154e-24)
(0.998559 0.00424726 2.79451e-20)
(0.987743 0.00921472 3.03317e-20)
(0.961417 0.00759552 -3.33539e-20)
(0.914714 -0.00450689 7.73242e-20)
(0.835791 -0.0379506 4.60262e-20)
(0.708198 -0.127182 5.6953e-20)
(0.620668 -0.365135 7.43868e-23)
(0.557484 -0.290064 2.25245e-20)
(0.558823 -0.549821 0)
(0.654236 -0.679634 0)
(0.457653 -0.470994 0)
(0.380003 -0.323449 7.43644e-21)
(0.596055 -0.47556 -5.49768e-21)
(0.548616 -0.630466 -3.04124e-21)
(0.609675 -0.2796 -5.3978e-23)
(0.236111 -0.120275 -5.50617e-21)
(0.208187 -0.138701 0)
(0.196136 -0.0518069 -4.77193e-21)
(0.31229 -0.0778112 0)
(0.657979 -0.16666 0)
(0.605048 -0.0137554 -2.54379e-20)
(0.674007 0.0334817 -5.33142e-20)
(0.370392 0.0180418 -3.8911e-20)
(0.46055 -0.0512233 -4.70567e-22)
(0.995161 0.043735 5.57039e-20)
(1.22518 0.0644096 -4.19083e-20)
(1.36714 0.0846126 1.43132e-22)
(1.43583 0.100751 3.35232e-20)
(1.45434 0.112693 1.54603e-20)
(1.44546 0.120913 0)
(1.42576 0.126266 6.31518e-25)
(1.40463 0.129501 -1.35644e-20)
(1.38612 0.131194 -2.57819e-23)
(1.3714 0.131789 0)
(1.36057 0.131629 -1.24126e-20)
(1.35343 0.130971 1.19523e-20)
(1.34956 0.129973 -1.156e-20)
(1.34787 0.128603 0)
(1.34502 0.126392 7.02225e-26)
(1.33262 0.122094 5.10914e-21)
(1.29526 0.113701 0)
(1.21381 0.0994703 0)
(1.07593 0.0796145 0)
(0.886631 0.0570286 2.93378e-24)
(0.668056 0.0351617 -6.89133e-21)
(0.252705 0.00591047 2.48839e-21)
(0.115392 0.000528695 0)
(0.0984069 0.000698178 -1.89366e-21)
(0.0206608 0.000103028 0)
(0.0194863 -0.000151727 -6.46368e-24)
(0.0195977 3.35958e-06 1.0818e-22)
(0.0196029 -0.000139533 0)
(0.445611 0.0174667 0)
(0.998358 0.00700805 0)
(0.98853 0.0182498 2.88656e-23)
(0.963687 0.0251044 -1.36175e-22)
(0.918395 0.0263451 -7.77008e-20)
(0.83899 0.0174867 0)
(0.701627 -0.0197436 -6.24331e-20)
(0.514735 -0.195069 -2.45791e-20)
(0.490097 -0.0953515 4.3376e-22)
(0.42322 -0.459219 -2.19423e-20)
(0.317354 -0.346008 2.25997e-20)
(0.277007 -0.469041 3.73269e-21)
(0.432459 -0.580426 -1.06104e-21)
(0.343767 -0.369686 0)
(0.186224 -0.213093 1.82666e-22)
(0.179114 -0.0100954 1.05159e-20)
(0.317441 0.0144008 0)
(0.231742 0.0241065 -1.43076e-20)
(0.234979 0.0473781 1.94902e-20)
(0.481634 0.0736592 -7.84671e-20)
(0.193687 0.0283486 -4.84263e-20)
(0.159165 0.0226127 -1.44446e-23)
(0.117888 0.01005 0)
(0.844281 0.0813897 8.39684e-24)
(1.11847 0.0966044 0)
(1.299 0.110447 -3.62603e-20)
(1.39591 0.121086 -1.59543e-20)
(1.43244 0.128194 0)
(1.43345 0.13254 -5.43036e-23)
(1.4184 0.134922 -2.55659e-22)
(1.3991 0.135931 -5.1203e-23)
(1.38116 0.135981 0)
(1.36658 0.13537 2.47751e-20)
(1.35578 0.134325 1.20456e-20)
(1.34866 0.133015 1.16033e-20)
(1.3448 0.131525 -1.10575e-23)
(1.34288 0.12974 5.15077e-24)
(1.33913 0.127091 1.02923e-20)
(1.32457 0.122243 0)
(1.28372 0.113222 0)
(1.19856 0.0985068 0)
(1.05884 0.0785806 0)
(0.870797 0.055965 5.84199e-21)
(0.654456 0.0343061 0)
(0.247288 0.0061006 -3.03265e-22)
(0.118639 0.00198355 -6.16492e-23)
(0.119217 0.00114109 -3.73649e-21)
(0.0553008 0.00010016 1.85223e-23)
(0.0511626 0.000722997 -3.22147e-23)
(0.0337838 0.00253673 3.1964e-21)
(0.0232133 -0.000343867 -1.78698e-21)