/*--------------------------------*- C++ -*----------------------------------*\
| =========                 |                                                 |
| \\      /  F ield         | OpenFOAM: The Open Source CFD Toolbox           |
|  \\    /   O peration     | Version:  v1912                                 |
|   \\  /    A nd           | Website:  www.openfoam.com                      |
|    \\/     M anipulation  |                                                 |
\*---------------------------------------------------------------------------*/
FoamFile
{
    version     2.0;
    format      ascii;
    class       surfaceScalarField;
    location    "330";
    object      phi;
}
// * * * * * * * * * * * * * * * * * * * * * * * * * * * * * * * * * * * * * //

dimensions      [0 3 -1 0 0 0 0];
oriented        oriented;


internalField   nonuniform List<scalar> 
7191
(
-1.9563e-06
0.00132234
-9.08191e-06
0.00397052
-2.10838e-06
0.00132445
-2.41752e-05
0.00657842
-9.46652e-06
0.00397788
-2.11165e-06
0.00132656
-4.48011e-05
0.00905907
-2.40413e-05
0.00659299
-9.46906e-06
0.00398524
-1.99266e-06
0.00132855
-7.50402e-05
0.0113006
-4.80675e-05
0.00908309
-2.35617e-05
0.00660708
-9.34269e-06
0.00399259
-2.03474e-06
0.00133058
-0.00011576
0.0131659
-7.90691e-05
0.0113316
-4.53569e-05
0.00910489
-2.41762e-05
0.00662192
-9.72635e-06
0.00400028
-1.71838e-06
0.0013323
-0.00016214
0.0145276
-0.000119425
0.0132063
-7.89592e-05
0.0113652
-4.63399e-05
0.00912705
-2.17553e-05
0.00663395
-8.08393e-06
0.00400664
-1.59456e-06
0.0013339
-0.000206567
0.0152723
-0.000165059
0.0145732
-0.000117771
0.0132451
-7.32779e-05
0.0113921
-4.14131e-05
0.00914671
-1.95577e-05
0.00664542
-7.26434e-06
0.00401231
-1.49095e-06
0.00133539
-0.000249612
0.015334
-0.000215408
0.0153227
-0.000162398
0.0146178
-0.000112473
0.0132843
-7.06766e-05
0.0114214
-3.77712e-05
0.00916492
-1.82199e-05
0.00665638
-6.64165e-06
0.00401746
-1.16507e-06
0.00133655
-0.000279993
0.0146729
-0.000258537
0.0153771
-0.000211514
0.0153718
-0.000155894
0.0146612
-0.000100957
0.0133146
-6.17059e-05
0.0114453
-3.35395e-05
0.00918024
-1.55266e-05
0.00666526
-4.57095e-06
0.00402087
-1.17916e-06
0.00133773
-0.000292698
0.0133272
-0.000300888
0.0147152
-0.000258464
0.015424
-0.000197855
0.0154137
-0.000137039
0.0146973
-9.20648e-05
0.0133449
-5.42836e-05
0.011466
-2.99235e-05
0.00919464
-1.41729e-05
0.00667486
-5.1977e-06
0.00402489
-8.46557e-07
0.00133858
-0.000285962
0.0113816
-0.000332027
0.0133583
-0.00029768
0.0147544
-0.000237414
0.0154636
-0.000174391
0.0154511
-0.000122557
0.0147278
-7.84521e-05
0.0133691
-4.75236e-05
0.0114836
-2.56511e-05
0.00920612
-1.08932e-05
0.00668056
-4.57659e-06
0.00402862
-7.5211e-07
0.00133933
-0.000246085
0.00896865
-0.000352477
0.0114021
-0.000327183
0.0133878
-0.000263852
0.0147809
-0.000201123
0.0154903
-0.000148467
0.015477
-0.000102407
0.0147518
-6.57678e-05
0.0133874
-3.94634e-05
0.0114975
-2.14401e-05
0.00921666
-1.13746e-05
0.00668736
-4.17091e-06
0.00403204
-7.88343e-07
0.00134012
0.00624087
-0.000110146
-5.03695e-05
-0.000357524
0.0089737
-0.000343854
0.0114188
-0.000277241
0.0134012
-0.000216762
0.0147965
-0.000166672
0.0155085
-0.00011961
0.0154942
-8.419e-05
0.0147702
-5.79546e-05
0.0134058
-3.63288e-05
0.0115123
-2.06387e-05
0.00922593
-1.02428e-05
0.00669343
-4.00985e-06
0.00403526
-7.73076e-07
0.00134089
0.00622656
-0.000201152
-0.000142063
-0.00211812
0.00207163
-6.36493e-05
-3.26962e-05
-0.0021358
-0.000349694
0.00897954
-0.000269211
0.0114107
-0.000210979
0.0133954
-0.00016702
0.0147969
-0.000129535
0.0155185
-0.000101198
0.0155112
-7.35926e-05
0.0147858
-4.77688e-05
0.0134173
-3.0255e-05
0.011522
-1.74182e-05
0.0092331
-8.68872e-06
0.00669811
-3.88742e-06
0.00403837
-8.4101e-07
0.00134173
0.00621259
-0.000140035
-0.000195691
-0.00204093
0.00201373
-0.000173955
-0.000111362
-0.00139631
0.00135308
-1.55113e-05
-4.90704e-06
-9.12626e-07
-0.00142144
-6.6518e-06
-2.00994e-05
-0.000228309
0.00893864
-0.000183775
0.0113835
-0.000154091
0.0133825
-0.000128706
0.014796
-0.000105219
0.0155225
-8.06502e-05
0.0155183
-5.74585e-05
0.0147955
-4.2322e-05
0.0134294
-2.77108e-05
0.0115323
-1.88027e-05
0.00924322
-1.02244e-05
0.00670445
-3.4311e-06
0.00404096
-1.08312e-06
0.00134282
0.00612642
-4.1906e-05
-0.000100234
-0.00198968
0.00195894
-0.000109293
-0.000171643
-0.00129838
0.00126435
-8.6945e-05
-5.29863e-05
-1.69868e-05
-3.96727e-05
-0.00043875
0.000428729
-5.49103e-06
-0.000441015
-2.64192e-06
0.000445909
-0.000446054
-7.68232e-07
-3.60681e-06
-6.0988e-08
-1.75716e-06
-0.000125225
0.00888009
-0.000117111
0.0113465
-0.000107525
0.0133613
-9.60351e-05
0.0147869
-8.00264e-05
0.0155219
-6.3821e-05
0.0155246
-5.20765e-05
0.0148053
-3.84058e-05
0.01344
-2.70899e-05
0.0115405
-1.71557e-05
0.00925015
-1.07617e-05
0.00671178
-4.98805e-06
0.00404487
-1.14382e-06
0.00134396
0.00604596
-8.23583e-06
-3.65313e-05
-0.00191317
0.00189558
-2.43171e-05
-5.44615e-05
-0.00123627
0.00118442
-1.70153e-05
-4.04225e-05
-8.00002e-05
-6.35633e-05
-0.000379735
0.000352727
-5.99378e-05
-0.000399526
-3.31951e-05
0.000420932
-9.18906e-06
-1.82671e-05
-0.00025744
0.000252711
-7.61968e-07
-0.000259668
-4.13563e-07
-0.000448598
-1.06266e-06
0.00026115
-0.000261856
-6.22095e-08
-1.89987e-08
-2.75713e-07
-6.70707e-05
0.00883005
-7.46861e-05
0.0113137
-7.61497e-05
0.0133414
-7.24277e-05
0.0147793
-6.49047e-05
0.0155229
-5.79315e-05
0.0155305
-4.67545e-05
0.0148136
-3.67173e-05
0.0134497
-2.91343e-05
0.0115525
-2.05412e-05
0.00925993
-1.06046e-05
0.00671739
-5.31113e-06
0.00404904
-1.21079e-06
0.00134517
0.00599483
-6.23561e-07
-1.53184e-05
-0.00187159
0.00186879
-5.43474e-06
-1.25459e-05
-0.00114293
0.00112193
-1.75456e-07
-3.13799e-06
-1.04014e-05
-2.57135e-06
-0.000289335
0.000278633
-6.31289e-06
-0.000311087
-1.86703e-05
0.000331144
-5.84171e-05
-4.35061e-05
-0.000207292
0.000168644
-2.12905e-05
-0.00023076
-9.72696e-06
0.000245246
-1.72474e-06
-3.78056e-06
-7.49433e-05
7.41814e-05
-7.53569e-05
-0.000262804
-1.13995e-07
7.56326e-05
-7.56948e-05
-4.49407e-08
-3.72563e-05
0.00879262
-4.89192e-05
0.0112865
-5.42287e-05
0.0133232
-5.45885e-05
0.0147689
-5.40842e-05
0.0155191
-4.89579e-05
0.0155327
-4.31096e-05
0.01482
-3.79628e-05
0.0134585
-2.95035e-05
0.0115615
-2.03413e-05
0.00926966
-1.36194e-05
0.0067257
-6.15676e-06
0.00405398
-1.53446e-06
0.00134671
0.0059645
9.57543e-07
-7.88449e-06
-0.00185701
0.00185739
-1.00317e-06
-3.53522e-06
-0.00111036
0.00110502
5.50126e-07
-6.38043e-07
-1.20123e-06
2.17057e-07
-0.000265846
0.000265764
-9.28565e-08
-0.000268609
-3.7495e-07
0.000270509
-2.27814e-06
-6.71322e-07
-8.57096e-05
7.93967e-05
-0.00010438
0.000147886
-3.76586e-05
-5.89491e-05
3.76586e-05
-6.86761e-05
7.24566e-05
-7.58088e-05
-2.20136e-05
0.00876571
-3.34533e-05
0.0112657
-4.05581e-05
0.0133092
-4.66597e-05
0.0147615
-4.75603e-05
0.0155177
-4.66508e-05
0.0155362
-4.5839e-05
0.0148279
-4.05961e-05
0.0134696
-3.25616e-05
0.0115737
-2.50861e-05
0.00928113
-1.51093e-05
0.00673465
-6.92366e-06
0.00405937
-1.57245e-06
0.00134828
0.00594583
1.6525e-06
-4.99583e-06
-0.00185092
0.0018525
-6.25233e-07
-1.41436e-06
-0.00110159
0.00110051
4.03465e-07
-3.22893e-07
-3.34128e-07
2.24656e-07
-0.000264233
0.000264724
5.94127e-08
-0.000264928
5.66019e-08
0.000264736
-1.73069e-07
2.47104e-08
-7.60723e-05
7.59794e-05
-7.64472e-05
7.71186e-05
-1.40064e-05
0.00874626
-2.48763e-05
0.01125
-3.19585e-05
0.0132945
-3.7718e-05
0.0147517
-4.4358e-05
0.0155154
-4.76268e-05
0.015538
-4.92468e-05
0.0148366
-4.53009e-05
0.0134823
-3.9332e-05
0.0115879
-2.85075e-05
0.00929453
-1.69973e-05
0.00674473
-7.76952e-06
0.00406557
-1.9353e-06
0.00135021
0.005934
9.6691e-07
-3.14364e-06
-0.00184816
0.00184984
-2.9205e-08
-6.55402e-07
-0.00109913
0.0010984
2.63764e-07
-1.61323e-07
-1.88243e-07
1.51978e-07
-0.000264241
0.000264612
3.3079e-08
-0.000264645
8.06565e-08
0.000264476
-8.62661e-08
5.57107e-08
-7.58877e-05
7.59471e-05
-7.58311e-05
7.58064e-05
-1.01466e-05
0.00873154
-1.72243e-05
0.0112353
-2.74029e-05
0.0132842
-3.54725e-05
0.0147428
-4.3708e-05
0.0155115
-5.33444e-05
0.0155421
-5.56755e-05
0.0148469
-5.41724e-05
0.0134972
-4.5174e-05
0.0116046
-3.39829e-05
0.00931152
-2.04139e-05
0.00675737
-9.33622e-06
0.00407297
-2.03558e-06
0.00135225
0.00592498
7.41575e-07
-1.85978e-06
-0.00184724
0.00184798
2.25348e-07
-5.4415e-07
-0.00109785
0.00109766
2.53056e-07
-9.55836e-08
-1.51932e-07
4.71047e-08
-0.000264384
0.000264637
1.0689e-08
-0.000264611
6.57569e-08
0.000264492
-6.84866e-08
3.27137e-08
-7.59972e-05
7.60303e-05
-7.59165e-05
7.58608e-05
-7.05207e-06
0.00872136
-1.42533e-05
0.0112221
-2.49274e-05
0.0132737
-3.62716e-05
0.0147354
-4.91321e-05
0.0155073
-5.90186e-05
0.0155455
-6.57748e-05
0.0148585
-6.34364e-05
0.0135154
-5.33358e-05
0.011624
-3.58648e-05
0.00932697
-2.07455e-05
0.00676878
-8.87733e-06
0.00407981
-1.84741e-06
0.0013541
0.00591824
1.16358e-06
-1.47753e-06
-0.00184651
0.00184707
1.81397e-07
-3.88378e-07
-0.00109717
0.00109734
1.6439e-07
-1.08025e-07
-8.7766e-08
3.48196e-08
-0.000264429
0.000264673
8.33343e-09
-0.000264595
7.10645e-08
0.000264565
-7.95122e-08
1.6844e-08
-7.60603e-05
7.60709e-05
-7.59945e-05
7.59618e-05
-5.90921e-06
0.00871302
-1.29758e-05
0.0112102
-2.39359e-05
0.0132613
-4.20387e-05
0.0147283
-6.08108e-05
0.0155091
-7.55605e-05
0.0155552
-7.9442e-05
0.0148745
-7.31094e-05
0.0135352
-5.86475e-05
0.0116467
-4.10795e-05
0.0093473
-2.28922e-05
0.0067828
-8.78332e-06
0.00408675
-1.91722e-06
0.00135601
0.00591253
9.73328e-07
-1.17466e-06
-0.0018458
0.00184674
2.26512e-07
-2.10528e-07
-0.00109702
0.00109708
1.62727e-07
-4.31726e-08
-1.99999e-08
-4.43213e-08
-0.00026451
0.000264672
2.18017e-09
-0.000264687
6.83665e-08
0.000264666
-8.03761e-08
1.40923e-08
-7.60793e-05
7.60877e-05
-7.60083e-05
7.59914e-05
-4.09247e-06
0.00870414
-1.26986e-05
0.0111989
-2.84116e-05
0.0132477
-4.72533e-05
0.0147147
-7.07758e-05
0.0155043
-8.94107e-05
0.0155652
-9.73201e-05
0.0148987
-8.68314e-05
0.0135634
-6.63796e-05
0.011672
-4.33734e-05
0.00936778
-2.2391e-05
0.0067964
-9.48145e-06
0.00409431
-2.49719e-06
0.00135851
0.00590825
8.27146e-07
-6.42173e-07
-0.00184575
0.00184649
2.35347e-07
-1.83041e-07
-0.00109693
0.00109702
1.66452e-07
-3.13243e-08
-1.85293e-08
-3.842e-08
-0.000264539
0.000264696
5.58026e-09
-0.00026468
9.7133e-08
0.000264732
-8.00391e-08
8.56658e-09
-7.60897e-05
7.60919e-05
-7.60214e-05
7.60073e-05
-4.65922e-06
0.0086961
-1.50821e-05
0.0111856
-3.48506e-05
0.0132353
-6.48962e-05
0.0147088
-9.41157e-05
0.015509
-0.000112925
0.0155808
-0.000113121
0.014925
-9.72389e-05
0.0135943
-7.13673e-05
0.0117
-4.45972e-05
0.00938999
-2.27325e-05
0.00680965
-7.72509e-06
0.00409954
-7.22499e-07
0.00135923
0.00590349
4.43938e-07
-3.36589e-07
-0.00184583
0.00184639
2.70008e-07
1.2995e-08
-0.00109689
0.00109699
1.6513e-07
-2.21603e-08
-1.13102e-08
-4.86198e-08
-0.00026461
0.00026477
6.14848e-09
-0.000264707
6.54492e-08
0.000264761
-8.34914e-08
1.62959e-08
-7.61176e-05
7.61232e-05
-7.60205e-05
7.60119e-05
-4.71247e-06
0.00868573
-2.03145e-05
0.0111711
-4.73953e-05
0.0132178
-8.46739e-05
0.0146994
-0.000118584
0.0155146
-0.000136676
0.0156044
-0.000129994
0.0149578
-0.000106697
0.0136296
-7.50048e-05
0.0117305
-4.19972e-05
0.00940925
-2.13215e-05
0.00682325
-6.70294e-06
0.00410552
-6.53099e-07
0.00135989
0.00589933
-7.46342e-07
1.84998e-07
-0.00184599
0.0018463
1.38459e-07
6.0185e-08
-0.00109705
0.00109716
1.68885e-07
-1.63201e-08
-6.62593e-09
-3.84935e-08
-0.000264681
0.000264852
-6.41684e-09
-0.00026469
-1.33825e-08
0.000264847
-8.79402e-08
1.08613e-07
-7.61214e-05
7.61276e-05
-7.6056e-05
7.60397e-05
-7.53209e-06
0.00867294
-2.77485e-05
0.0111514
-6.48655e-05
0.013198
-0.000113663
0.0146945
-0.000151357
0.0155293
-0.000163535
0.0156379
-0.000144892
0.014996
-0.000110975
0.0136656
-7.22111e-05
0.0117607
-4.10732e-05
0.009429
-1.74171e-05
0.00683397
-6.19627e-06
0.00411106
-4.02148e-07
0.00136029
0.00589178
-1.03874e-06
1.06143e-06
-0.00184638
0.00184549
1.46226e-07
9.91488e-08
-0.00109725
0.00109723
1.70749e-07
-1.28331e-08
3.53261e-09
-3.25678e-08
-0.000264737
0.000264911
-5.39062e-09
-0.000264742
-1.14935e-08
0.000264892
-4.64583e-08
1.11968e-07
-7.61349e-05
7.61284e-05
-7.61482e-05
7.60396e-05
-1.11818e-05
0.00865638
-4.05933e-05
0.0111272
-9.52769e-05
0.0131796
-0.000151718
0.0146948
-0.000189074
0.0155549
-0.000185768
0.0156788
-0.000154971
0.01504
-0.000110288
0.0137036
-6.81424e-05
0.0117877
-3.63649e-05
0.00944795
-1.59556e-05
0.00684372
-2.98754e-06
0.00411365
-1.80865e-07
0.00136047
0.0058812
-2.00315e-06
1.39676e-06
-0.00184638
0.00184553
-1.89548e-07
1.72458e-07
-0.00109735
0.00109735
1.65752e-07
-1.99475e-08
3.82369e-09
-2.35009e-08
-0.000264845
0.000265022
-5.29786e-09
-0.000264848
-1.00413e-08
0.000264994
-7.88828e-08
1.12764e-07
-7.61825e-05
7.61771e-05
-7.6194e-05
7.6082e-05
-1.83137e-05
0.0086341
-6.46559e-05
0.0110965
-0.000135593
0.0131635
-0.000199572
0.0147053
-0.000222713
0.0155918
-0.000197598
0.0157214
-0.000153638
0.0150833
-0.000102532
0.013738
-6.09688e-05
0.0118123
-3.09303e-05
0.00946293
-1.06737e-05
0.00685141
-2.73085e-06
0.0041162
1.9266e-07
0.00136028
0.00586543
-3.449e-06
9.11334e-07
-0.00184646
0.00184487
-4.10427e-07
4.66002e-07
-0.00109755
0.00109718
1.79366e-07
2.95015e-09
-3.75893e-10
-2.97402e-08
-0.000264923
0.000265097
-8.23896e-09
-0.000264966
2.22015e-08
0.000265069
-4.35966e-08
7.98247e-08
-7.62009e-05
7.61956e-05
-7.62109e-05
7.60982e-05
-3.08623e-05
0.0086003
-0.000100937
0.0110619
-0.000191962
0.0131559
-0.000249165
0.0147318
-0.000241422
0.0156356
-0.000200106
0.0157679
-0.000142692
0.0151235
-9.27092e-05
0.0137698
-5.17933e-05
0.0118332
-2.28267e-05
0.00947508
-6.47365e-06
0.00685515
7.66109e-07
0.00411563
1.74586e-06
0.00135853
0.00583883
-5.89578e-06
1.63562e-06
-0.00184524
0.00184243
-6.41672e-07
5.441e-07
-0.00109764
0.00109712
1.08641e-07
7.11666e-09
1.82788e-08
-1.18203e-08
-0.000265053
0.00026523
2.61627e-09
-0.00026506
9.4657e-09
0.000265181
-8.39378e-08
9.13519e-08
-7.6254e-05
7.62458e-05
-7.62318e-05
7.6152e-05
-5.54627e-05
0.00855483
-0.000161423
0.0110313
-0.000260302
0.013167
-0.000281495
0.0147718
-0.000245043
0.0156806
-0.000185435
0.0158106
-0.000126565
0.0151573
-7.71596e-05
0.0137951
-4.12452e-05
0.0118516
-1.56614e-05
0.00948427
-3.02716e-06
0.00685895
1.66845e-06
0.0041157
2.07796e-06
0.00135645
0.00579561
-1.20629e-05
-1.87182e-07
-0.00184411
0.00183916
-9.48782e-07
-4.03363e-08
-0.00109763
0.00109686
5.04745e-08
8.09842e-08
9.38564e-08
-6.32228e-08
-0.000265213
0.000265323
-1.55933e-09
-0.000265218
1.18859e-08
0.000265326
-7.77015e-08
9.66674e-08
-7.62627e-05
7.62653e-05
-7.62532e-05
7.61619e-05
-0.000104476
0.00849788
-0.000243458
0.0110145
-0.000311113
0.0131966
-0.000288151
0.0148149
-0.000225148
0.0157203
-0.00015885
0.0158429
-0.000103742
0.0151839
-6.15281e-05
0.0138154
-2.86541e-05
0.0118646
-9.31508e-06
0.00949056
1.03175e-06
0.00685958
5.28216e-06
0.0041125
2.47599e-06
0.00135398
0.00572414
-2.77853e-05
-5.21754e-06
-0.00183978
0.0018306
-2.8808e-06
-8.0809e-07
-0.00109676
0.00109572
-1.37995e-10
9.91486e-08
1.77435e-07
-1.26178e-07
-0.000265365
0.00026541
5.65915e-09
-0.00026533
4.55666e-08
0.000265462
-4.52438e-08
6.90918e-08
-7.62961e-05
7.62946e-05
-7.62843e-05
7.61876e-05
-0.000192561
0.00844699
-0.000329597
0.011033
-0.000322916
0.0132314
-0.000255772
0.0148456
-0.000188807
0.0157502
-0.000130754
0.0158699
-8.23196e-05
0.0152047
-4.37186e-05
0.0138305
-1.83954e-05
0.0118737
-2.30707e-06
0.00949389
3.69856e-06
0.00686117
7.33162e-06
0.00410764
2.85695e-06
0.00135112
0.00562878
-7.16876e-05
-2.55143e-05
-0.00182868
0.00180965
-8.75756e-06
-3.29595e-06
-0.00109489
0.00109222
-3.13173e-07
9.79404e-08
1.92672e-07
-1.70556e-07
-0.000265515
0.000265545
-2.97801e-08
-0.000265431
1.53252e-08
0.00026566
-7.27085e-08
1.02668e-07
-7.6364e-05
7.63697e-05
-7.63184e-05
7.62493e-05
-0.000323693
0.00844108
-0.000349545
0.0110596
-0.000275921
0.0132515
-0.000207266
0.014864
-0.000147441
0.0157669
-9.89653e-05
0.0158866
-5.86856e-05
0.0152197
-2.91904e-05
0.0138413
-8.48808e-06
0.0118799
4.04103e-06
0.00949355
1.08624e-05
0.00685764
7.65866e-06
0.00410284
3.33197e-06
0.00134779
0.00557589
-0.000175172
-9.56333e-05
-0.00179821
0.00175759
-3.1072e-05
-1.4076e-05
-0.00108897
0.00108086
-8.06258e-07
1.58628e-07
4.46715e-07
-4.91053e-07
-0.000265563
0.000265284
-3.42857e-08
-0.000265517
5.17158e-08
0.000265765
-2.77014e-08
7.78694e-08
-7.64149e-05
7.63852e-05
-7.63996e-05
7.6297e-05
-0.000363135
0.00845467
-0.000275675
0.0110594
-0.000206392
0.0132507
-0.000154202
0.0148708
-0.000108495
0.0157765
-7.0301e-05
0.0158982
-3.93311e-05
0.0152298
-1.37794e-05
0.0138466
2.9131e-06
0.011881
1.15492e-05
0.00949286
1.20023e-05
0.00685329
9.22047e-06
0.00409695
3.87024e-06
0.00134392
0.00556952
-0.000160894
-0.000195864
-0.00172142
0.00167276
-0.000126506
-5.94606e-05
-0.00106808
0.00104086
-3.59432e-06
-2.54975e-07
1.39678e-07
-1.43897e-06
-0.000265343
0.000264613
-7.67555e-08
-0.000265209
2.49559e-08
0.000265778
-4.70975e-08
7.79684e-08
-7.6487e-05
7.64528e-05
-7.64353e-05
7.63575e-05
-0.000239813
0.00841881
-0.000179215
0.0110322
-0.000139395
0.0132358
-0.000103798
0.0148661
-7.41505e-05
0.0157803
-4.67941e-05
0.0159057
-2.06112e-05
0.0152367
-3.57674e-06
0.0138531
1.08937e-05
0.0118817
1.54251e-05
0.00948944
1.95365e-05
0.00684298
1.07606e-05
0.00409006
4.60036e-06
0.00133932
0.00547917
-4.27072e-05
-0.000106755
-0.00164544
0.00161166
-0.000127115
-0.000168548
-0.000994064
0.000918927
-3.70667e-05
-1.43031e-05
-2.10156e-06
-1.05628e-05
-0.000263256
0.000260186
-5.23754e-07
-0.000263442
-6.97563e-08
0.000264854
-1.01295e-07
-2.65516e-08
-7.65086e-05
7.64318e-05
-7.64836e-05
7.64057e-05
-0.000121282
0.00836088
-0.00010666
0.0109995
-8.96869e-05
0.0132217
-6.95253e-05
0.0148615
-4.85638e-05
0.0157821
-2.48265e-05
0.0159099
-5.98394e-06
0.0152391
8.38291e-06
0.0138556
1.81783e-05
0.0118789
2.16527e-05
0.00948733
1.75347e-05
0.0068362
1.52055e-05
0.00407946
6.3181e-06
0.001333
0.00539491
-5.2995e-06
-3.17322e-05
-0.00155973
0.00153712
-2.00913e-05
-5.48306e-05
-0.000873465
0.000809928
-1.86483e-05
-4.49295e-05
-5.9465e-05
-6.36204e-05
-0.000239372
0.000212273
-9.96696e-06
-0.000249827
-3.84882e-06
0.000258689
-6.04582e-07
-1.7006e-06
-7.62342e-05
7.57105e-05
-7.6304e-05
7.63305e-05
-5.69742e-05
0.00831119
-5.95185e-05
0.0109693
-5.31825e-05
0.0132054
-4.11033e-05
0.014854
-2.32632e-05
0.0157805
-7.10678e-06
0.015911
6.069e-06
0.0152414
2.06889e-05
0.0138531
2.58312e-05
0.0118747
2.83218e-05
0.00947654
2.55907e-05
0.00682582
1.53618e-05
0.00407041
5.77718e-06
0.00132722
0.00534722
1.7655e-06
-1.10419e-05
-0.00151386
0.00151116
-2.5962e-06
-8.47678e-06
-0.0007627
0.000743389
9.83125e-08
-8.78343e-07
-6.35936e-06
-1.2434e-06
-0.000103847
8.51989e-05
-0.000148777
0.000174876
-2.20685e-05
-3.7521e-05
-6.95565e-05
5.95895e-05
-7.34053e-05
7.51059e-05
-2.69996e-05
0.00827867
-3.24336e-05
0.0109485
-2.84142e-05
0.0131927
-1.93522e-05
0.0148501
-8.93729e-06
0.0157823
4.4248e-06
0.0159126
1.70952e-05
0.015245
2.74343e-05
0.0138514
3.16192e-05
0.0118714
3.28375e-05
0.00946929
2.8004e-05
0.00681317
1.91325e-05
0.00405706
6.59751e-06
0.00132063
0.00532207
3.14935e-06
-5.00371e-06
-0.00150148
0.00150315
1.01231e-07
-1.36408e-06
-0.000734961
0.000732303
1.46033e-07
-8.4052e-08
-1.94715e-07
1.45409e-07
-7.67177e-05
7.6816e-05
-7.75961e-05
7.88395e-05
3.7521e-05
-1.13092e-05
0.00825755
-1.3855e-05
0.010934
-1.21839e-05
0.0131855
-4.02857e-06
0.0148452
6.7638e-06
0.01578
1.83611e-05
0.0159114
2.93198e-05
0.0152431
3.54632e-05
0.0138476
3.98584e-05
0.0118644
4.12722e-05
0.00945602
3.18675e-05
0.00680044
2.15255e-05
0.00404213
8.51668e-06
0.00131211
0.00531067
2.8977e-06
-2.80806e-06
-0.00149828
0.001501
4.27684e-07
-1.33406e-07
-0.000730832
0.000730869
9.53899e-08
-3.05295e-08
-1.84839e-08
1.25506e-07
-7.66827e-05
7.68287e-05
-7.67667e-05
7.66213e-05
-3.35918e-06
0.00824705
-3.23202e-06
0.010925
1.03112e-06
0.0131805
8.71591e-06
0.0148432
1.92759e-05
0.0157791
2.85058e-05
0.0159122
3.85658e-05
0.01524
4.41266e-05
0.0138433
4.85424e-05
0.0118571
4.36033e-05
0.00944429
3.72906e-05
0.00678467
2.15947e-05
0.00402905
8.07307e-06
0.00130404
0.00530578
2.72481e-06
-1.19267e-06
-0.00149808
0.00150045
5.26664e-07
1.13148e-07
-0.000730676
0.000731059
6.37815e-08
-1.96643e-08
-3.06138e-08
9.00373e-08
-7.69052e-05
7.70006e-05
-7.69358e-05
7.68103e-05
1.86032e-06
0.00824196
3.83393e-06
0.0109222
9.47856e-06
0.0131797
1.68316e-05
0.0148457
2.68421e-05
0.0157808
3.85076e-05
0.0159122
4.57214e-05
0.0152384
5.40938e-05
0.0138378
5.56137e-05
0.0118451
4.96958e-05
0.00943188
4.08319e-05
0.00676544
2.43944e-05
0.00401273
8.97606e-06
0.00129506
0.00530484
3.06924e-06
-2.63452e-07
-0.00149893
0.00150107
5.84778e-07
3.28918e-07
-0.000731094
0.000731595
5.28304e-08
-2.76858e-08
-4.21949e-09
8.26922e-08
-7.70404e-05
7.71042e-05
-7.70601e-05
7.697e-05
4.30705e-06
0.00824149
9.10823e-06
0.0109226
1.69467e-05
0.0131796
2.63117e-05
0.0148462
3.62343e-05
0.015783
4.70155e-05
0.0159109
5.63338e-05
0.0152362
6.08889e-05
0.0138325
5.77226e-05
0.0118371
5.51145e-05
0.0094176
4.25284e-05
0.0067473
2.99164e-05
0.00399179
9.38343e-06
0.00128568
0.00530628
2.96208e-06
-1.01311e-07
-0.00150038
0.00150285
5.98047e-07
4.25456e-07
-0.000731847
0.000732321
3.3133e-08
7.76126e-08
2.82909e-08
4.94936e-08
-7.7155e-05
7.72078e-05
-7.71827e-05
7.71e-05
7.50856e-06
0.00824309
1.43988e-05
0.0109251
2.25591e-05
0.0131834
3.39231e-05
0.0148485
4.61549e-05
0.0157839
5.55728e-05
0.0159117
6.36888e-05
0.0152334
6.93229e-05
0.0138209
7.2107e-05
0.0118201
6.28508e-05
0.00939728
5.28785e-05
0.00672434
3.05581e-05
0.00397062
9.9651e-06
0.00127571
0.00531047
2.50745e-06
8.18301e-07
-0.00150231
0.00150465
6.25156e-07
4.37889e-07
-0.00073266
0.000733238
2.04781e-08
-9.38483e-10
3.12995e-08
5.50601e-08
-7.73632e-05
7.73963e-05
-7.72856e-05
7.72361e-05
9.00108e-06
0.00824849
1.70818e-05
0.0109306
2.74875e-05
0.0131898
4.08828e-05
0.0148538
5.22468e-05
0.0157872
6.49657e-05
0.0159104
7.53265e-05
0.0152273
7.92404e-05
0.0138138
8.15932e-05
0.0118014
7.2463e-05
0.00937769
5.44636e-05
0.00670044
3.43413e-05
0.00394624
1.34488e-05
0.00126226
0.00531579
2.57801e-06
1.09803e-06
-0.00150485
0.00150668
6.73006e-07
6.1617e-07
-0.000733626
0.000734197
2.44569e-08
2.93069e-08
7.29108e-09
4.29367e-08
-7.74818e-05
7.75022e-05
-7.74827e-05
7.74276e-05
1.04314e-05
0.00825514
2.10374e-05
0.0109371
3.35483e-05
0.0131971
4.67562e-05
0.0148593
6.10287e-05
0.0157912
7.45208e-05
0.0159112
8.32278e-05
0.0152234
8.75957e-05
0.0138078
8.47549e-05
0.0117891
8.0183e-05
0.00935197
6.14062e-05
0.00667337
3.77897e-05
0.0039219
2.77025e-05
0.00123456
0.00532264
2.32492e-06
1.2605e-06
-0.00150712
0.00150876
9.39827e-07
6.61989e-07
-0.000734722
0.000735362
2.79675e-08
5.12191e-09
3.33618e-08
5.77185e-08
-7.75818e-05
7.76062e-05
-7.75525e-05
7.75095e-05
1.15458e-05
0.00826463
2.49408e-05
0.0109457
4.13617e-05
0.0132025
5.55562e-05
0.0148648
7.18671e-05
0.0157938
8.2424e-05
0.015912
9.28767e-05
0.0152181
9.7892e-05
0.0137946
9.62856e-05
0.011773
8.60496e-05
0.00932733
6.80594e-05
0.0066431
5.83015e-05
0.0038913
5.46461e-05
0.00533143
1.61173e-06
1.13735e-06
-0.00150926
0.00151104
5.506e-07
7.54936e-07
-0.00073593
0.000736758
1.05701e-07
6.00711e-09
3.47884e-08
5.9049e-08
-7.77024e-05
7.77304e-05
-7.76973e-05
7.76396e-05
1.30564e-05
0.00827651
2.79993e-05
0.010959
4.5086e-05
0.013213
6.33289e-05
0.0148733
7.92036e-05
0.015797
9.40397e-05
0.0159109
0.000103078
0.0152129
0.000106633
0.0137843
0.000104014
0.011755
9.14694e-05
0.00930392
8.78007e-05
0.0066136
9.96152e-05
0.00534259
1.1408e-06
7.6282e-07
-0.00151187
0.00151369
-2.0441e-07
3.01884e-07
-0.00073741
0.000737903
3.11033e-08
2.66321e-08
7.18436e-08
3.1552e-08
-7.78302e-05
7.79359e-05
-7.78242e-05
7.77652e-05
1.71784e-05
0.00828733
3.38764e-05
0.0109702
5.12248e-05
0.0132251
6.95714e-05
0.0148829
8.69456e-05
0.0158041
0.000102924
0.015911
0.000112561
0.015207
0.00011986
0.0137684
0.000116864
0.0117296
0.000114116
0.00927761
0.000129612
0.00535316
5.12662e-06
1.47814e-06
-0.00151579
0.00151887
-1.93703e-06
-1.34044e-06
-0.00073814
0.000737986
-9.3705e-10
-5.00025e-08
1.5841e-08
4.9048e-08
-7.8066e-05
7.80971e-05
-7.80393e-05
7.80078e-05
2.08052e-05
0.0083004
3.69734e-05
0.0109845
5.80033e-05
0.0132367
7.85543e-05
0.0148913
9.8316e-05
0.0158087
0.000111026
0.0159126
0.000123127
0.0152037
0.000128408
0.0137569
0.000133974
0.0117098
0.000151209
0.00536343
5.21849e-06
5.31588e-06
-0.00151688
0.00152118
1.22855e-06
-4.04652e-07
-1.73446e-06
5.20416e-06
-0.000736601
0.000435701
0.000299187
-2.20535e-07
-4.49883e-09
2.30973e-08
2.21403e-08
-7.8112e-05
7.8111e-05
-7.8162e-05
7.81129e-05
2.23615e-05
0.00831502
4.23716e-05
0.0110001
6.31949e-05
0.013252
8.68397e-05
0.0149028
0.000104688
0.0158151
0.000121486
0.0159142
0.000130371
0.0152017
0.000143237
0.0137476
0.000159897
0.00537671
4.47931e-06
4.60683e-06
-0.00152344
0.00152591
1.50498e-06
1.23766e-06
1.81943e-06
1.23805e-06
-0.000464364
0.000466517
-9.25114e-07
-0.0004617
-3.06793e-06
-0.000456625
-6.80952e-06
-1.57198e-05
0.000280627
2.83997e-06
-7.81518e-05
7.79312e-05
-7.81563e-05
7.81341e-05
2.42554e-05
0.00833313
4.66695e-05
0.0110167
7.13888e-05
0.0132675
9.46331e-05
0.0149129
0.00011375
0.0158228
0.000130123
0.0159145
0.000146315
0.0151987
0.000164633
0.00539159
4.52819e-06
4.8377e-06
-0.00152822
0.00153086
1.07565e-06
7.65822e-07
1.28339e-06
1.01814e-06
-0.000469343
0.000470035
8.12567e-07
-0.000468747
6.41897e-07
-0.000467453
5.24989e-07
3.02925e-07
-0.000272684
0.000272274
-5.15108e-07
-0.000274706
-1.04655e-06
-8.87839e-07
8.07712e-05
2.76658e-05
0.00835214
5.14196e-05
0.0110366
7.91559e-05
0.0132829
0.00010089
0.0149257
0.000120655
0.0158323
0.000138926
0.0159218
0.000158052
0.0054091
4.95854e-06
5.20182e-06
-0.00153392
0.00153657
8.20165e-07
1.05578e-06
9.99852e-07
7.7826e-07
-0.000471676
0.000472185
5.66725e-07
-0.000471322
4.11782e-07
-0.000470457
4.18562e-07
5.96084e-07
-0.000273479
0.000274145
1.46178e-07
-0.000272998
1.60919e-07
-0.000272578
1.04635e-07
-4.96284e-10
-7.88368e-05
7.83217e-05
-7.98834e-05
3.04954e-05
0.00837306
5.79435e-05
0.0110578
8.43788e-05
0.0132995
0.000106761
0.0149396
0.000127297
0.0158439
0.000141338
0.00542833
5.37198e-06
5.89188e-06
-0.00153992
0.00154297
7.93118e-07
1.11905e-06
8.04514e-07
1.0432e-06
-0.000473765
0.000474214
3.71737e-07
-0.000473085
3.76042e-07
-0.000472547
4.61698e-07
4.15863e-07
-0.000275155
0.000275623
9.90409e-08
-0.000274841
9.76919e-08
-0.000274557
1.34255e-07
1.84696e-07
-7.85867e-05
7.87329e-05
-7.84258e-05
-7.83212e-05
3.50294e-05
0.00839597
6.46302e-05
0.0110776
9.022e-05
0.013316
0.000110241
0.0149567
0.000117624
0.00545053
6.19707e-06
6.63626e-06
-0.00154673
0.00155
8.83741e-07
1.21796e-06
8.98724e-07
1.23046e-06
-0.000475886
0.000476276
4.02445e-07
-0.0004751
3.33115e-07
-0.000474677
3.81969e-07
5.79764e-07
-0.0002766
0.000276879
9.22136e-08
-0.00027628
5.6346e-08
-0.000275945
1.26622e-07
9.38425e-08
-7.91496e-05
7.92486e-05
-7.90519e-05
-7.89176e-05
4.05863e-05
0.00842002
7.14672e-05
0.0110963
9.1078e-05
0.0133352
9.15359e-05
0.00547598
7.10082e-06
8.03427e-06
-0.00155399
0.00155777
1.28654e-06
1.12691e-06
1.28471e-06
1.36458e-06
-0.000478216
0.000478487
6.13246e-07
-0.00047737
3.7111e-07
-0.000476885
4.14423e-07
6.21351e-07
-0.00027786
0.000278161
1.00662e-07
-0.000277623
9.6647e-08
-0.000277334
9.27536e-08
1.24844e-07
-7.95254e-05
7.96176e-05
-7.94691e-05
-7.93424e-05
4.93091e-05
0.00844218
7.25687e-05
0.0111149
6.48765e-05
0.00550457
1.02355e-05
1.04849e-05
-0.00156303
0.00156722
1.4929e-06
1.42212e-06
1.46906e-06
1.30756e-06
-0.000480784
0.000481389
6.81694e-07
-0.000480146
4.89147e-07
-0.000479336
4.74284e-07
5.15597e-07
-0.000279183
0.000279685
1.11544e-07
-0.000278894
8.22463e-08
-0.000278687
2.07273e-07
9.56779e-08
-7.99318e-05
8.00325e-05
-7.98352e-05
-7.97424e-05
5.402e-05
0.00846073
4.21945e-05
0.00552822
1.57995e-05
1.45648e-05
-0.00157401
0.00157972
2.3652e-06
2.1668e-06
1.95774e-06
1.73074e-06
-0.000483925
0.000484577
8.40741e-07
-0.000483019
5.16522e-07
-0.000482111
5.60904e-07
5.85655e-07
-0.000280786
0.000281389
7.87971e-08
-0.000280415
1.17443e-07
-0.000280057
1.16209e-07
1.43712e-07
-8.04177e-05
8.05292e-05
-8.03354e-05
-8.01282e-05
2.81255e-05
1.23414e-05
3.11233e-05
-0.00158814
0.00159515
4.96955e-06
3.82177e-06
3.36939e-06
2.77185e-06
-0.00048801
0.000489057
1.31798e-06
-0.0004868
9.57006e-07
-0.000485587
7.4436e-07
7.20402e-07
-0.000282627
0.000283324
1.43478e-07
-0.000282249
1.38053e-07
-0.000281823
1.34649e-07
1.52464e-07
-8.09066e-05
8.09854e-05
-8.07891e-05
-8.06729e-05
-0.00160743
7.83974e-06
1.61077e-05
1.07857e-05
8.05826e-06
-0.000494201
0.000496343
2.82702e-06
-0.000492186
1.80721e-06
-0.000490421
1.60432e-06
1.40827e-06
-0.000285167
0.000286193
2.91482e-07
-0.000284427
2.17345e-07
-0.000283858
1.75375e-07
1.86528e-07
-8.14105e-05
8.1554e-05
-8.12725e-05
-8.11378e-05
-0.00050716
1.12579e-05
-0.000502767
1.17146e-05
-0.000499479
7.49757e-06
4.92237e-06
-0.000289794
0.000291892
7.2929e-07
-0.00028847
4.83309e-07
-0.000287251
3.84577e-07
3.50997e-07
-8.21332e-05
8.24247e-05
-8.19159e-05
-8.17405e-05
-0.000303712
1.53176e-05
-0.000299449
7.45171e-06
-0.000295335
3.38417e-06
1.47889e-06
-8.36436e-05
8.43728e-05
-8.31603e-05
-8.27757e-05
-9.66876e-05
-8.92359e-05
-8.58517e-05
2.4769e-06
-2.47704e-06
9.24586e-06
2.41834e-06
-9.18783e-06
1.46097e-06
-3.93812e-06
6.80458e-06
2.44095e-06
1.27334e-05
2.49596e-06
-1.28117e-05
2.61887e-06
-1.03461e-05
7.78698e-07
-4.71699e-06
1.28078e-06
5.52365e-06
1.25625e-05
2.61143e-06
-2.56116e-06
1.86883e-05
2.5187e-06
-1.61528e-05
-1.27542e-05
1.95333e-06
-1.15211e-05
4.35435e-07
-5.15255e-06
1.8147e-06
1.20281e-05
4.92385e-07
5.03106e-06
3.25243e-06
1.98606e-05
-3.95821e-06
-0.000155801
4.50306e-06
0.000157767
-2.55419e-06
-1.56648e-05
-1.89308e-06
-1.33552e-05
1.36101e-06
-1.24469e-05
1.79528e-07
-5.33223e-06
1.17709e-06
1.13431e-05
1.51982e-07
4.87886e-06
-3.69189e-06
-0.000156772
7.90846e-06
-6.66186e-07
1.8011e-05
-0.000850887
1.64654e-05
0.000838916
-5.52171e-06
1.9198e-05
0.000150312
-6.22859e-06
-1.81298e-05
-1.68361e-06