/*--------------------------------*- C++ -*----------------------------------*\
| =========                 |                                                 |
| \\      /  F ield         | OpenFOAM: The Open Source CFD Toolbox           |
|  \\    /   O peration     | Version:  v1912                                 |
|   \\  /    A nd           | Website:  www.openfoam.com                      |
|    \\/     M anipulation  |                                                 |
\*---------------------------------------------------------------------------*/
FoamFile
{
    version     2.0;
    format      ascii;
    class       surfaceScalarField;
    location    "370";
    object      phi;
}
// * * * * * * * * * * * * * * * * * * * * * * * * * * * * * * * * * * * * * //

dimensions      [0 3 -1 0 0 0 0];
oriented        oriented;


internalField   nonuniform List<scalar> 
7191
(
-1.95526e-06
0.00132283
-9.08012e-06
0.00397212
-2.10747e-06
0.00132494
-2.41761e-05
0.00658122
-9.46514e-06
0.00397948
-2.11079e-06
0.00132705
-4.48096e-05
0.0090631
-2.40427e-05
0.0065958
-9.4679e-06
0.00398684
-1.99184e-06
0.00132904
-7.50647e-05
0.0113058
-4.80782e-05
0.00908713
-2.35634e-05
0.00660989
-9.34175e-06
0.00399419
-2.03405e-06
0.00133107
-0.000115811
0.0131722
-7.90965e-05
0.0113368
-4.53671e-05
0.00910894
-2.41786e-05
0.00662473
-9.72589e-06
0.00400188
-1.71766e-06
0.00133279
-0.000162225
0.0145346
-0.000119479
0.0132125
-7.89874e-05
0.0113704
-4.63513e-05
0.00913111
-2.17572e-05
0.00663676
-8.08306e-06
0.00400825
-1.59387e-06
0.00133438
-0.000206688
0.0152798
-0.000165146
0.0145802
-0.000117825
0.0132514
-7.33043e-05
0.0113974
-4.1423e-05
0.00915078
-1.95592e-05
0.00664824
-7.26341e-06
0.00401392
-1.49032e-06
0.00133587
-0.000249766
0.0153415
-0.000215532
0.0153302
-0.000162484
0.0146249
-0.000112525
0.0132906
-7.07026e-05
0.0114266
-3.77801e-05
0.009169
-1.82213e-05
0.0066592
-6.64074e-06
0.00401907
-1.16437e-06
0.00133704
-0.000280168
0.0146802
-0.000258694
0.0153847
-0.000211637
0.0153793
-0.000155978
0.0146683
-0.000101004
0.0133209
-6.17285e-05
0.0114506
-3.35472e-05
0.00918432
-1.55273e-05
0.00666808
-4.56944e-06
0.00402247
-1.17856e-06
0.00133822
-0.000292878
0.0133338
-0.000301073
0.0147225
-0.000258622
0.0154317
-0.000197971
0.0154213
-0.000137114
0.0147045
-9.21085e-05
0.0133513
-5.43036e-05
0.0114713
-2.99303e-05
0.00919873
-1.41735e-05
0.00667769
-5.1967e-06
0.00402649
-8.45907e-07
0.00133906
-0.00028613
0.0113872
-0.000332225
0.0133649
-0.000297862
0.0147618
-0.00023756
0.0154713
-0.000174496
0.0154587
-0.000122626
0.014735
-7.84899e-05
0.0133755
-4.75411e-05
0.0114889
-2.56565e-05
0.00921021
-1.08929e-05
0.00668338
-4.57559e-06
0.00403022
-7.51507e-07
0.00133981
-0.00024622
0.00897295
-0.000352675
0.0114077
-0.000327378
0.0133945
-0.000264016
0.0147882
-0.000201251
0.015498
-0.000148559
0.0154846
-0.000102466
0.0147589
-6.58002e-05
0.0133937
-3.94778e-05
0.0115028
-2.14443e-05
0.00922076
-1.1375e-05
0.00669018
-4.16999e-06
0.00403364
-7.87811e-07
0.0013406
0.00624375
-0.0001102
-5.03962e-05
-0.00035771
0.00897798
-0.000344047
0.0114243
-0.000277409
0.0134079
-0.000216901
0.0148039
-0.000166782
0.0155162
-0.000119688
0.0155018
-8.42403e-05
0.0147774
-5.79838e-05
0.0134122
-3.63424e-05
0.0115177
-2.06431e-05
0.00923003
-1.0243e-05
0.00669626
-4.00908e-06
0.00403686
-7.72601e-07
0.00134138
0.00622942
-0.000201247
-0.000142131
-0.00211907
0.00207255
-6.36795e-05
-3.27126e-05
-0.00213676
-0.000349875
0.00898381
-0.000269366
0.0114163
-0.000211114
0.0134021
-0.000167134
0.0148042
-0.000129626
0.0155262
-0.000101267
0.0155189
-7.36381e-05
0.014793
-4.77937e-05
0.0134237
-3.02663e-05
0.0115273
-1.74217e-05
0.00923721
-8.6887e-06
0.00670094
-3.88681e-06
0.00403997
-8.40615e-07
0.00134222
0.00621543
-0.000140101
-0.000195783
-0.00204184
0.00201462
-0.000174034
-0.000111413
-0.00139692
0.00135367
-1.55184e-05
-4.90949e-06
-9.13334e-07
-0.00142206
-6.655e-06
-2.01105e-05
-0.000228432
0.00894288
-0.000183888
0.0113891
-0.000154196
0.0133891
-0.000128801
0.0148034
-0.000105297
0.0155302
-8.07086e-05
0.0155259
-5.74963e-05
0.0148027
-4.23447e-05
0.0134358
-2.77216e-05
0.0115376
-1.88074e-05
0.00924733
-1.02254e-05
0.00670727
-3.43051e-06
0.00404256
-1.08288e-06
0.0013433
0.00612921
-4.19274e-05
-0.000100282
-0.00199056
0.0019598
-0.000109343
-0.00017172
-0.00129894
0.0012649
-8.69828e-05
-5.30095e-05
-1.69943e-05
-3.96901e-05
-0.000438938
0.000428913
-5.49353e-06
-0.000441204
-2.64317e-06
0.000446101
-0.000446245
-7.68686e-07
-3.60878e-06
-6.13991e-08
-1.75804e-06
-0.000125298
0.00888429
-0.00011719
0.0113521
-0.000107606
0.0133679
-9.61121e-05
0.0147942
-8.00917e-05
0.0155296
-6.38708e-05
0.0155323
-5.21119e-05
0.0148125
-3.84272e-05
0.0134465
-2.7101e-05
0.0115459
-1.71602e-05
0.00925426
-1.07633e-05
0.00671461
-4.98829e-06
0.00404647
-1.14365e-06
0.00134444
0.0060487
-8.24167e-06
-3.65498e-05
-0.00191401
0.00189641
-2.43288e-05
-5.44866e-05
-0.0012368
0.00118492
-1.70226e-05
-4.04397e-05
-8.00348e-05
-6.35907e-05
-0.000379896
0.000352877
-5.99634e-05
-0.000399696
-3.32093e-05
0.000421111
-9.19306e-06
-1.8275e-05
-0.000257549
0.000252817
-7.62327e-07
-0.000259778
-4.13754e-07
-0.000448791
-1.06331e-06
0.00026126
-0.000261967
-6.22571e-08
-1.91615e-08
-2.7586e-07
-6.71152e-05
0.00883421
-7.47438e-05
0.0113192
-7.62145e-05
0.013348
-7.24921e-05
0.0147866
-6.4962e-05
0.0155307
-5.79783e-05
0.0155382
-4.67875e-05
0.0148209
-3.67382e-05
0.0134561
-2.91469e-05
0.0115579
-2.05477e-05
0.00926405
-1.06065e-05
0.00672023
-5.31168e-06
0.00405064
-1.21071e-06
0.00134565
0.00599754
-6.26129e-07
-1.53274e-05
-0.00187241
0.00186961
-5.43796e-06
-1.25523e-05
-0.00114341
0.0011224
-1.75679e-07
-3.13943e-06
-1.04059e-05
-2.57251e-06
-0.000289456
0.000278749
-6.31548e-06
-0.000311217
-1.86781e-05
0.000331284
-5.84419e-05
-4.35243e-05
-0.000207379
0.000168715
-2.12994e-05
-0.000230857
-9.73103e-06
0.00024535
-1.72547e-06
-3.78216e-06
-7.49745e-05
7.42122e-05
-7.53882e-05
-0.000262916
-1.14095e-07
7.56641e-05
-7.57264e-05
-4.4986e-08
-3.72864e-05
0.00879676
-4.89637e-05
0.0112919
-5.42818e-05
0.0133298
-5.46432e-05
0.0147763
-5.41355e-05
0.0155268
-4.90001e-05
0.0155404
-4.3141e-05
0.0148273
-3.79849e-05
0.0134649
-2.95168e-05
0.0115668
-2.03482e-05
0.00927379
-1.3623e-05
0.00672854
-6.15785e-06
0.00405558
-1.53455e-06
0.00134719
0.00596719
9.55524e-07
-7.89034e-06
-0.00185782
0.00185819
-1.00456e-06
-3.5376e-06
-0.00111083
0.00110548
5.50235e-07
-6.3842e-07
-1.20184e-06
2.17038e-07
-0.000265957
0.000265874
-9.29342e-08
-0.000268721
-3.75123e-07
0.000270622
-2.27906e-06
-6.71603e-07
-8.57445e-05
7.94291e-05
-0.000104423
0.000147947
-3.76741e-05
-5.89735e-05
3.76741e-05
-6.87045e-05
7.24867e-05
-7.58405e-05
-2.20363e-05
0.00876983
-3.34897e-05
0.0112712
-4.06036e-05
0.0133158
-4.67097e-05
0.0147689
-4.76078e-05
0.0155254
-4.66917e-05
0.0155439
-4.5872e-05
0.0148352
-4.06199e-05
0.013476
-3.25769e-05
0.0115791
-2.50956e-05
0.00928526
-1.51139e-05
0.00673749
-6.92524e-06
0.00406097
-1.57261e-06
0.00134876
0.0059485
1.65075e-06
-5.00048e-06
-0.00185172
0.0018533
-6.26606e-07
-1.41599e-06
-0.00110206
0.00110097
4.035e-07
-3.23144e-07
-3.34348e-07
2.24661e-07
-0.000264343
0.000264833
5.94039e-08
-0.000265038
5.66035e-08
0.000264845
-1.73157e-07
2.46951e-08
-7.61033e-05
7.60103e-05
-7.64784e-05
7.715e-05
-1.40251e-05
0.00875036
-2.49079e-05
0.0112555
-3.1999e-05
0.0133011
-3.77628e-05
0.014759
-4.44034e-05
0.0155232
-4.7668e-05
0.0155457
-4.92817e-05
0.0148438
-4.53274e-05
0.0134888
-3.93511e-05
0.0115933
-2.85191e-05
0.00929867
-1.70031e-05
0.00674757
-7.77165e-06
0.00406717
-1.93568e-06
0.0013507
0.00593666
9.64876e-07
-3.14747e-06
-0.00184896
0.00185064
-3.03681e-08
-6.56794e-07
-0.00109959
0.00109886
2.63717e-07
-1.6153e-07
-1.88425e-07
1.51927e-07
-0.000264351
0.000264721
3.30557e-08
-0.000264754
8.0667e-08
0.000264585
-8.63125e-08
5.57151e-08
-7.59185e-05
7.59779e-05
-7.58619e-05
7.58372e-05
-1.01632e-05
0.00873562
-1.72515e-05
0.0112407
-2.74403e-05
0.0132908
-3.55155e-05
0.0147501
-4.37526e-05
0.0155192
-5.33883e-05
0.0155499
-5.57137e-05
0.0148542
-5.42037e-05
0.0135037
-4.51963e-05
0.01161
-3.39975e-05
0.00931566
-2.04215e-05
0.00676022
-9.33919e-06
0.00407458
-2.03604e-06
0.00135273
0.00592762
7.39485e-07
-1.863e-06
-0.00184804
0.00184878
2.24291e-07
-5.45509e-07
-0.00109831
0.00109812
2.52996e-07
-9.5772e-08
-1.52116e-07
4.69947e-08
-0.000264493
0.000264746
1.06497e-08
-0.00026472
6.57548e-08
0.000264601
-6.85324e-08
3.27014e-08
-7.6028e-05
7.6061e-05
-7.59473e-05
7.58916e-05
-7.06682e-06
0.00872543
-1.42784e-05
0.0112276
-2.49628e-05
0.0132802
-3.63142e-05
0.0147427
-4.91789e-05
0.015515
-5.90652e-05
0.0155532
-6.58183e-05
0.0148658
-6.34725e-05
0.0135219
-5.33625e-05
0.0116294
-3.58807e-05
0.00933112
-2.07536e-05
0.00677164
-8.88029e-06
0.00408142
-1.84785e-06
0.00135458
0.00592087
1.16175e-06
-1.48052e-06
-0.0018473
0.00184786
1.80336e-07
-3.89659e-07
-0.00109763
0.0010978
1.64293e-07
-1.0822e-07
-8.79271e-08
3.47012e-08
-0.000264537
0.000264782
8.29125e-09
-0.000264704
7.1062e-08
0.000264674
-7.95674e-08
1.68209e-08
-7.60909e-05
7.61016e-05
-7.60252e-05
7.59925e-05
-5.92307e-06
0.00871708
-1.29997e-05
0.0112156
-2.397e-05
0.0132679
-4.20835e-05
0.0147356
-6.08631e-05
0.0155168
-7.56152e-05
0.015563
-7.94924e-05
0.0148818
-7.31508e-05
0.0135417
-5.86772e-05
0.0116522
-4.10982e-05
0.00935146
-2.29016e-05
0.00678566
-8.78645e-06
0.00408836
-1.91779e-06
0.0013565
0.00591515
9.71484e-07
-1.17745e-06
-0.00184659
0.00184753
2.25504e-07
-2.11711e-07
-0.00109747
0.00109754
1.62631e-07
-4.33384e-08
-2.01322e-08
-4.44712e-08
-0.000264618
0.00026478
2.1352e-09
-0.000264795
6.83622e-08
0.000264774
-8.04328e-08
1.40672e-08
-7.61099e-05
7.61182e-05
-7.60388e-05
7.6022e-05
-4.10512e-06
0.00870818
-1.27217e-05
0.0112043
-2.84472e-05
0.0132542
-4.72999e-05
0.014722
-7.08325e-05
0.0155121
-8.94723e-05
0.015573
-9.73796e-05
0.0149061
-8.68799e-05
0.0135699
-6.64136e-05
0.0116775
-4.33937e-05
0.00937196
-2.24005e-05
0.00679927
-9.48511e-06
0.00409593
-2.49808e-06
0.001359
0.00591087
8.25317e-07
-6.44651e-07
-0.00184654
0.00184727
2.34377e-07
-1.84175e-07
-0.00109738
0.00109747
1.66362e-07
-3.14809e-08
-1.86589e-08
-3.85651e-08
-0.000264647
0.000264804
5.53698e-09
-0.000264787
9.71407e-08
0.00026484
-8.00955e-08
8.53953e-09
-7.61202e-05
7.61223e-05
-7.60518e-05
7.60378e-05
-4.67174e-06
0.00870013
-1.51058e-05
0.011191
-3.48886e-05
0.0132418
-6.4951e-05
0.0147162
-9.41838e-05
0.0155168
-0.000112998
0.0155886
-0.000113189
0.0149324
-9.7293e-05
0.0136008
-7.14042e-05
0.0117055
-4.46186e-05
0.00939417
-2.27426e-05
0.00681253
-7.72831e-06
0.00410116
-7.22761e-07
0.00135972
0.00590609
4.42024e-07
-3.38853e-07
-0.00184662
0.00184717
2.69091e-07
1.1979e-08
-0.00109735
0.00109744
1.65044e-07
-2.2309e-08
-1.14323e-08
-4.87638e-08
-0.000264717
0.000264877
6.10699e-09
-0.000264814
6.54449e-08
0.000264869
-8.35489e-08
1.62723e-08
-7.61479e-05
7.61535e-05
-7.60508e-05
7.60422e-05
-4.72462e-06
0.00868975
-2.034e-05
0.0111764
-4.74387e-05
0.0132243
-8.47379e-05
0.0147067
-0.000118664
0.0155224
-0.000136762
0.0156122
-0.00013007
0.0149652
-0.000106756
0.0136361
-7.50441e-05
0.0117359
-4.2018e-05
0.00941345
-2.13315e-05
0.00682613
-6.70601e-06
0.00410714
-6.53471e-07
0.00136037
0.00590193
-7.48685e-07
1.83043e-07
-0.00184678
0.00184708
1.37526e-07
5.92283e-08
-0.0010975
0.00109761
1.68806e-07
-1.64614e-08
-6.74202e-09
-3.86288e-08
-0.000264788
0.000264959
-6.46209e-09
-0.000264796
-1.34178e-08
0.000264954
-8.79984e-08
1.08628e-07
-7.61516e-05
7.61577e-05
-7.60862e-05
7.60699e-05
-7.54512e-06
0.00867696
-2.7777e-05
0.0111568
-6.49167e-05
0.0132045
-0.000113741
0.0147018
-0.000151453
0.0155371
-0.000163634
0.0156457
-0.000144976
0.0150034
-0.000111037
0.0136721
-7.22497e-05
0.0117661
-4.10942e-05
0.00943321
-1.74259e-05
0.00683685
-6.19949e-06
0.00411269
-4.02555e-07
0.00136078
0.00589437
-1.04112e-06
1.05994e-06
-0.00184717
0.00184627
1.45336e-07
9.82498e-08
-0.0010977
0.00109768
1.70675e-07
-1.2968e-08
3.42537e-09
-3.26954e-08
-0.000264843
0.000265017
-5.43397e-09
-0.000264848
-1.15269e-08
0.000264999
-4.64992e-08
1.11985e-07
-7.61649e-05
7.61585e-05
-7.61784e-05
7.60697e-05
-1.11961e-05
0.00866038
-4.06272e-05
0.0111325
-9.53422e-05
0.0131861
-0.000151814
0.0147022
-0.000189189
0.0155627
-0.000185878
0.0156866
-0.000155061
0.0150474
-0.00011035
0.0137102
-6.81797e-05
0.0117932
-3.63844e-05
0.00945217
-1.59643e-05
0.00684662
-2.98981e-06
0.00411527
-1.81337e-07
0.00136096
0.00588378
-2.00584e-06
1.39551e-06
-0.00184716
0.00184631
-1.90537e-07
1.71633e-07
-0.0010978
0.0010978
1.65683e-07
-2.00796e-08
3.72176e-09
-2.36194e-08
-0.000264951
0.000265128
-5.3398e-09
-0.000264954
-1.00729e-08
0.0002651
-7.89355e-08
1.12782e-07
-7.62124e-05
7.6207e-05
-7.6224e-05
7.6112e-05
-1.83307e-05
0.00863808
-6.47004e-05
0.0111019
-0.000135677
0.0131699
-0.000199691
0.0147127
-0.000222844
0.0155996
-0.000197714
0.0157293
-0.000153727
0.0150908
-0.000102591
0.0137447
-6.10035e-05
0.0118179
-3.09482e-05
0.00946715
-1.06809e-05
0.00685431
-2.73345e-06
0.00411783
1.92193e-07
0.00136076
0.005868
-3.45221e-06
9.09977e-07
-0.00184724
0.00184565
-4.11456e-07
4.65348e-07
-0.001098
0.00109763
1.79307e-07
2.83171e-09
-4.74104e-10
-2.98554e-08
-0.000265029
0.000265203
-8.28059e-09
-0.000265071
2.21839e-08
0.000265175
-4.36342e-08
7.98315e-08
-7.62308e-05
7.62254e-05
-7.62409e-05
7.61281e-05
-3.08844e-05
0.00860426
-0.000100998
0.0110672
-0.000192073
0.0131623
-0.000249309
0.0147391
-0.000241563
0.0156435
-0.000200223
0.0157758
-0.000142776
0.015131
-9.27643e-05
0.0137764
-5.18246e-05
0.0118387
-2.28418e-05
0.00947932
-6.47968e-06
0.00685805
7.64494e-07
0.00411725
1.74587e-06
0.00135902
0.00584138
-5.8999e-06
1.63469e-06
-0.00184601
0.0018432
-6.42742e-07
5.43533e-07
-0.00109809
0.00109756
1.08561e-07
7.00689e-09
1.81944e-08
-1.19212e-08
-0.000265159
0.000265336
2.58017e-09
-0.000265165
9.44381e-09
0.000265287
-8.39901e-08
9.1365e-08
-7.62838e-05
7.62755e-05
-7.62616e-05
7.61818e-05
-5.54954e-05
0.00855876
-0.000161511
0.0110366
-0.000260445
0.0131735
-0.000281655
0.0147792
-0.000245186
0.0156885
-0.000185546
0.0158186
-0.000126642
0.0151648
-7.72079e-05
0.0138018
-4.12726e-05
0.0118572
-1.56743e-05
0.00948851
-3.03248e-06
0.00686185
1.66678e-06
0.00411733
2.07795e-06
0.00135694
0.00579814
-1.20695e-05
-1.88746e-07
-0.00184488
0.00183993
-9.49915e-07
-4.10848e-08
-0.00109807
0.0010973
5.03784e-08
8.09118e-08
9.38096e-08
-6.33367e-08
-0.000265318
0.000265428
-1.59538e-09
-0.000265323
1.18667e-08
0.000265431
-7.775e-08
9.66843e-08
-7.62924e-05
7.62949e-05
-7.62829e-05
7.61916e-05
-0.00010453
0.00850178
-0.000243585
0.0110198
-0.000311281
0.0132031
-0.000288314
0.0148223
-0.000225281
0.0157282
-0.000158948
0.0158509
-0.000103808
0.0151914
-6.15699e-05
0.0138221
-2.86767e-05
0.0118702
-9.32614e-06
0.0094948
1.02731e-06
0.00686249
5.28142e-06
0.00411413
2.47595e-06
0.00135446
0.00572663
-2.77984e-05
-5.22108e-06
-0.00184055
0.00183136
-2.88264e-06
-8.09076e-07
-0.00109721
0.00109616
-2.46035e-10
9.90915e-08
1.77428e-07
-1.26309e-07
-0.00026547
0.000265515
5.62777e-09
-0.000265435
4.55627e-08
0.000265567
-4.52778e-08
6.90996e-08
-7.63257e-05
7.63242e-05
-7.63139e-05
7.62172e-05
-0.000192654
0.00845085
-0.000329764
0.0110382
-0.000323089
0.0132379
-0.000255918
0.014853
-0.000188921
0.0157582
-0.000130838
0.0158779
-8.23764e-05
0.0152123
-4.37529e-05
0.0138372
-1.84144e-05
0.0118793
-2.31616e-06
0.00949815
3.69433e-06
0.00686408
7.33119e-06
0.00410927
2.85682e-06
0.00135161
0.00563122
-7.17191e-05
-2.55263e-05
-0.00182944
0.0018104
-8.7617e-06
-3.29785e-06
-0.00109533
0.00109266
-3.13397e-07
9.7892e-08
1.9268e-07
-1.70695e-07
-0.00026562
0.000265649
-2.98233e-08
-0.000265536
1.53114e-08
0.000265765
-7.27516e-08
1.02691e-07
-7.63935e-05
7.63992e-05
-7.6348e-05
7.62789e-05
-0.000323845
0.00844493
-0.00034972
0.0110649
-0.00027607
0.013258
-0.000207388
0.0148714
-0.000147535
0.0157749
-9.90341e-05
0.0158945
-5.87317e-05
0.0152272
-2.92189e-05
0.013848
-8.50385e-06
0.0118854
4.03345e-06
0.00949781
1.08602e-05
0.00686055
7.65759e-06
0.00410447
3.33175e-06
0.00134828
0.0055783
-0.000175248
-9.56748e-05
-0.00179896
0.00175832
-3.10852e-05
-1.40822e-05
-0.00108941
0.00108129
-8.06659e-07
1.58621e-07
4.46838e-07
-4.91304e-07
-0.000265667
0.000265388
-3.43286e-08
-0.000265621
5.17187e-08
0.00026587
-2.77247e-08
7.78849e-08
-7.64444e-05
7.64146e-05
-7.64291e-05
7.63264e-05
-0.000363305
0.00845852
-0.000275815
0.0110646
-0.000206508
0.0132571
-0.000154297
0.0148782
-0.00010857
0.0157844
-7.03561e-05
0.0159062
-3.93688e-05
0.0152374
-1.38019e-05
0.0138533
2.90103e-06
0.0118866
1.15434e-05
0.00949712
1.19993e-05
0.00685621
9.21929e-06
0.00409859
3.86993e-06
0.00134441
0.0055719
-0.000160964
-0.000195949
-0.00172213
0.00167344
-0.000126559
-5.94853e-05
-0.00106851
0.00104128
-3.59579e-06
-2.55117e-07
1.39701e-07
-1.43958e-06
-0.000265447
0.000264717
-7.68099e-08
-0.000265313
2.49533e-08
0.000265882
-4.71247e-08
7.79883e-08
-7.65165e-05
7.64821e-05
-7.64648e-05
7.63869e-05
-0.000239926
0.00842263
-0.00017931
0.0110374
-0.000139479
0.0132423
-0.000103869
0.0148735
-7.42087e-05
0.0157882
-4.68385e-05
0.0159136
-2.0641e-05
0.0152442
-3.59613e-06
0.0138598
1.08835e-05
0.0118872
1.54193e-05
0.0094937
1.95353e-05
0.00684589
1.07591e-05
0.0040917
4.60002e-06
0.00133981
0.0054815
-4.27259e-05
-0.000106801
-0.00164611
0.00161232
-0.000127167
-0.000168618
-0.000994461
0.000919293
-3.70815e-05
-1.43088e-05
-2.1024e-06
-1.0567e-05
-0.00026336
0.000260288
-5.2397e-07
-0.000263545
-6.97854e-08
0.000264958
-1.01337e-07
-2.65657e-08
-7.6538e-05
7.64611e-05
-7.6513e-05
7.6435e-05
-0.000121342
0.00836466
-0.000106721
0.0110047
-8.9746e-05
0.0132282
-6.95793e-05
0.0148689
-4.86099e-05
0.01579
-2.48612e-05
0.0159179
-6.00823e-06
0.0152466
8.36727e-06
0.0138623
1.81693e-05
0.0118845
2.16476e-05
0.00949159
1.75309e-05
0.00683912
1.52049e-05
0.00408109
6.31807e-06
0.00133349
0.00539721
-5.30197e-06
-3.17458e-05
-0.00156037
0.00153774
-2.00995e-05
-5.48533e-05
-0.000873809
0.000810245
-1.86555e-05
-4.49468e-05
-5.94884e-05
-6.36457e-05
-0.000239466
0.000212355
-9.97083e-06
-0.000249924
-3.85031e-06
0.00025879
-6.04804e-07
-1.70124e-06
-7.62635e-05
7.57395e-05
-7.63332e-05
7.63598e-05
-5.70048e-05
0.00831494
-5.9557e-05
0.0109745
-5.32242e-05
0.0132118
-4.11437e-05
0.0148614
-2.32975e-05
0.0157885
-7.13406e-06
0.015919
6.04859e-06
0.0152489
2.06768e-05
0.0138598
2.58232e-05
0.0118803
2.83174e-05
0.00948081
2.55886e-05
0.00682874
1.53601e-05
0.00407205
5.77651e-06
0.00132771
0.00534949
1.76576e-06
-1.10468e-05
-0.00151448
0.00151177
-2.59716e-06
-8.48019e-06
-0.000762997
0.000743678
9.834e-08
-8.78682e-07
-6.36177e-06
-1.24386e-06
-0.000103887
8.52311e-05
-0.000148833
0.000174944
-2.2077e-05
-3.75353e-05
-6.95831e-05
5.96123e-05
-7.34334e-05
7.51347e-05
-2.70169e-05
0.0082824
-3.24596e-05
0.0109537
-2.84442e-05
0.0131991
-1.93826e-05
0.0148575
-8.9658e-06
0.0157903
4.40139e-06
0.0159206
1.70779e-05
0.0152525
2.74226e-05
0.0138582
3.1611e-05
0.011877
3.28325e-05
0.00947356
2.80009e-05
0.00681609
1.9131e-05
0.0040587
6.5967e-06
0.00132111
0.00532433
3.14991e-06
-5.00645e-06
-0.00150209
0.00150376
1.01211e-07
-1.3646e-06
-0.000735247
0.000732588
1.46087e-07
-8.40814e-08
-1.94784e-07
1.45467e-07
-7.67467e-05
7.68451e-05
-7.76254e-05
7.88693e-05
3.75353e-05
-1.13198e-05
0.00826126
-1.38725e-05
0.0109391
-1.22066e-05
0.013192
-4.05238e-06
0.0148526
6.7416e-06
0.0157879
1.83424e-05
0.0159194
2.93056e-05
0.0152507
3.54521e-05
0.0138543
3.98508e-05
0.01187
4.1268e-05
0.00946029
3.18637e-05
0.00680336
2.15236e-05
0.00404377
8.51608e-06
0.0013126
0.00531292
2.89802e-06
-2.81009e-06
-0.00149888
0.0015016
4.27624e-07
-1.3363e-07
-0.000731116
0.000731152
9.54192e-08
-3.05421e-08
-1.84763e-08
1.25567e-07
-7.67117e-05
7.68578e-05
-7.67958e-05
7.66503e-05
-3.36642e-06
0.00825076
-3.24487e-06
0.0109302
1.01421e-06
0.0131869
8.69719e-06
0.0148506
1.9258e-05
0.015787
2.84895e-05
0.0159202
3.85529e-05
0.0152476
4.4116e-05
0.0138501
4.85351e-05
0.0118627
4.35967e-05
0.00944856
3.72865e-05
0.0067876
2.15912e-05
0.00403069
8.0716e-06
0.00130453
0.00530802
2.72499e-06
-1.19411e-06
-0.00149868
0.00150105
5.26564e-07
1.12898e-07
-0.000730959
0.000731343
6.37863e-08
-1.96849e-08
-3.06242e-08
9.00704e-08
-7.69343e-05
7.70298e-05
-7.69649e-05
7.68393e-05
1.85521e-06
0.00824566
3.82394e-06
0.0109274
9.46484e-06
0.0131861
1.68154e-05
0.0148531
2.68257e-05
0.0157887
3.84932e-05
0.0159202
4.57082e-05
0.015246
5.40839e-05
0.0138445
5.56054e-05
0.0118507
4.96881e-05
0.00943616
4.08263e-05
0.00676836
2.439e-05
0.00401437
8.97415e-06
0.00129555
0.00530707
3.06952e-06
-2.64547e-07
-0.00149953
0.00150167
5.84669e-07
3.2871e-07
-0.000731377
0.000731879
5.28274e-08
-2.77136e-08
-4.22762e-09
8.27142e-08
-7.70695e-05
7.71333e-05
-7.70892e-05
7.69991e-05
4.30274e-06
0.00824518
9.10015e-06
0.0109277
1.69355e-05
0.013186
2.62983e-05
0.0148536
3.62198e-05
0.015791
4.70016e-05
0.015919
5.63214e-05
0.0152437
6.08773e-05
0.0138393
5.77104e-05
0.0118427
5.51049e-05
0.00942188
4.252e-05
0.00675023
2.99121e-05
0.00399344
9.38053e-06
0.00128617
0.00530851
2.96227e-06
-1.02378e-07
-0.00150098
0.00150345
5.97928e-07
4.25265e-07
-0.00073213
0.000732604
3.31209e-08
7.76241e-08
2.8293e-08
4.95003e-08
-7.71841e-05
7.72369e-05
-7.72118e-05
7.71291e-05
7.50537e-06
0.00824677
1.43925e-05
0.0109303
2.25492e-05
0.0131898
3.39112e-05
0.0148559
4.61422e-05
0.0157918
5.5559e-05
0.0159197
6.36749e-05
0.0152409
6.93099e-05
0.0138277
7.20962e-05
0.0118257
6.28397e-05
0.00940156
5.28706e-05
0.00672728
3.05511e-05
0.00397227
9.96044e-06
0.00127621
0.00531269
2.5074e-06
8.1756e-07
-0.00150291
0.00150525
6.25028e-07
4.37687e-07
-0.000732942
0.000733521
2.04604e-08
-9.57684e-10
3.13018e-08
5.50677e-08
-7.73923e-05
7.74255e-05
-7.73147e-05
7.72652e-05
8.99817e-06
0.00825217
1.70759e-05
0.0109357
2.74783e-05
0.0131962
4.08716e-05
0.0148612
5.22331e-05
0.0157952
6.49516e-05
0.0159184
7.53127e-05
0.0152349
7.9226e-05
0.0138205
8.15807e-05
0.011807
7.24507e-05
0.00938198
5.44516e-05
0.00670337
3.43322e-05
0.00394789
1.34419e-05
0.00126277
0.00531802
2.57794e-06
1.09736e-06
-0.00150545
0.00150729
6.72877e-07
6.16019e-07
-0.000733908
0.00073448
2.44394e-08
2.92982e-08
7.28373e-09
4.29387e-08
-7.75109e-05
7.75313e-05
-7.75118e-05
7.74568e-05
1.04287e-05
0.00825882
2.10322e-05
0.0109422
3.35399e-05
0.0132035
4.67446e-05
0.0148667
6.1015e-05
0.0157991
7.45058e-05
0.0159192
8.32112e-05
0.0152309
8.75783e-05
0.0138145
8.47369e-05
0.0117947
8.01677e-05
0.00935627
6.13916e-05
0.00667632
3.77751e-05
0.00392356
2.76948e-05
0.00123508
0.00532486
2.3247e-06
1.25984e-06
-0.00150772
0.00150936
9.3979e-07
6.61839e-07
-0.000735005
0.000735644
2.79503e-08
5.10303e-09
3.33629e-08
5.77248e-08
-7.76108e-05
7.76353e-05
-7.75815e-05
7.75386e-05
1.1543e-05
0.0082683
2.49359e-05
0.0109508
4.13546e-05
0.0132089
5.55452e-05
0.0148721
7.18536e-05
0.0158017
8.24064e-05
0.0159201
9.28575e-05
0.0152257
9.78718e-05
0.0138014
9.62652e-05
0.0117786
8.60294e-05
0.00933163
6.80397e-05
0.00664605
5.82814e-05
0.00389297
5.46451e-05
0.00533366
1.61116e-06
1.13659e-06
-0.00150986
0.00151164
5.50395e-07
7.54807e-07
-0.000736212
0.00073704
1.05713e-07
5.98826e-09
3.47892e-08
5.90548e-08
-7.77315e-05
7.77594e-05
-7.77264e-05
7.76687e-05
1.30534e-05
0.00828019
2.79939e-05
0.0109642
4.50777e-05
0.0132194
6.33172e-05
0.0148807
7.91877e-05
0.015805
9.40205e-05
0.0159189
0.000103055
0.0152205
0.000106609
0.013791
0.000103988
0.0117606
9.14428e-05
0.00930822
8.77729e-05
0.00661656
9.96028e-05
0.00534481
1.13973e-06
7.61771e-07
-0.00151247
0.00151429
-2.04919e-07
3.01564e-07
-0.000737692
0.000738184
3.10858e-08
2.66202e-08
7.18576e-08
3.15465e-08
-7.78593e-05
7.7965e-05
-7.78533e-05
7.77942e-05
1.71759e-05
0.00829101
3.38718e-05
0.0109754
5.1216e-05
0.0132315
6.95576e-05
0.0148903
8.69265e-05
0.0158121
0.000102901
0.015919
0.000112534
0.0152146
0.000119832
0.0137752
0.000116835
0.0117352
0.000114084
0.00928191
0.000129589
0.00535538
5.12703e-06
1.47691e-06
-0.00151639
0.00151947
-1.93786e-06
-1.34139e-06
-0.000738421
0.000738267
-9.65304e-10
-5.00415e-08
1.58325e-08
4.90473e-08
-7.8095e-05
7.81261e-05
-7.80684e-05
7.80368e-05
2.08033e-05
0.00830407
3.69679e-05
0.0109896
5.79937e-05
0.013243
7.85388e-05
0.0148987
9.82947e-05
0.0158167
0.000110997
0.0159206
0.000123095
0.0152113
0.000128373
0.0137637
0.000133938
0.0117154
0.000151177
0.00536565
5.21884e-06
5.31637e-06
-0.00151748
0.00152178
1.2288e-06
-4.05118e-07
-1.73544e-06
5.2059e-06
-0.000736881
0.000435868
0.0002993
-2.20701e-07
-4.5557e-09
2.31009e-08
2.21356e-08
-7.81409e-05
7.81399e-05
-7.8191e-05
7.81419e-05
2.23591e-05
0.00831868
4.23658e-05
0.0110052
6.31828e-05
0.0132584
8.68211e-05
0.0149102
0.000104661
0.015823
0.000121452
0.0159222
0.000130331
0.0152093
0.000143195
0.0137544
0.000159858
0.00537892
4.47917e-06
4.60685e-06
-0.00152404
0.00152651
1.5053e-06
1.2379e-06
1.81996e-06
1.23835e-06
-0.000464541
0.000466696
-9.25628e-07
-0.000461877
-3.06933e-06
-0.0004568
-6.81249e-06
-1.57262e-05
0.000280733
2.84103e-06
-7.81806e-05
7.79599e-05
-7.81852e-05
7.8163e-05
2.42524e-05
0.0083368
4.66622e-05
0.0110218
7.13746e-05
0.0132738
9.461e-05
0.0149202
0.000113718
0.0158307
0.000130083
0.0159225
0.000146271
0.0152063
0.000164589
0.00539381
4.52784e-06
4.83757e-06
-0.00152882
0.00153146
1.07571e-06
7.65796e-07
1.28361e-06
1.01826e-06
-0.000469522
0.000470214
8.12761e-07
-0.000468926
6.42057e-07
-0.000467631
5.25143e-07
3.0296e-07
-0.000272786
0.000272376
-5.15374e-07
-0.000274809
-1.04706e-06
-8.88324e-07
8.0801e-05
2.76624e-05
0.0083558
5.14101e-05
0.0110417
7.91383e-05
0.0132893
0.00010086
0.0149331
0.000120615
0.0158402
0.000138878
0.0159299
0.000158002
0.00541131
4.95805e-06
5.20154e-06
-0.00153452
0.00153717
8.20079e-07
1.05581e-06
9.99887e-07
7.78211e-07
-0.000471855
0.000472364
5.66776e-07
-0.000471501
4.11801e-07
-0.000470636
4.18628e-07
5.96214e-07
-0.000273581
0.000274248
1.46206e-07
-0.0002731
1.60969e-07
-0.000272679
1.04664e-07
-5.20871e-10
-7.88656e-05
7.83502e-05
-7.99126e-05
3.04907e-05
0.00837672
5.79314e-05
0.0110629
8.43554e-05
0.0133058
0.000106724
0.014947
0.000127249
0.0158518
0.000141281
0.00543054
5.3712e-06
5.89145e-06
-0.00154052
0.00154357
7.92962e-07
1.11904e-06
8.04417e-07
1.04319e-06
-0.000473945
0.000474393
3.71685e-07
-0.000473265
3.76015e-07
-0.000472727
4.6174e-07
4.1588e-07
-0.000275257
0.000275725
9.90357e-08
-0.000274943
9.7704e-08
-0.000274659
1.34288e-07
1.84751e-07
-7.86153e-05
7.87615e-05
-7.84543e-05
-7.83497e-05
3.50232e-05
0.00839962
6.46143e-05
0.0110827
9.01891e-05
0.0133224
0.000110195
0.014964
0.000117563
0.00545273
6.19597e-06
6.63554e-06
-0.00154733
0.0015506
8.83532e-07
1.21791e-06
8.98587e-07
1.23045e-06
-0.000476065
0.000476455
4.02377e-07
-0.000475279
3.33045e-07
-0.000474856
3.81953e-07
5.79814e-07
-0.000276702
0.000276981
9.21979e-08
-0.000276382
5.63327e-08
-0.000276047
1.26639e-07
9.38492e-08
-7.91782e-05
7.92773e-05
-7.90805e-05
-7.89463e-05
4.05775e-05
0.00842366
7.14451e-05
0.0111014
9.10385e-05
0.0133415
9.14744e-05
0.00547818
7.09895e-06
8.03312e-06
-0.00155459
0.00155837
1.28636e-06
1.1267e-06
1.28462e-06
1.36452e-06
-0.000478396
0.000478666
6.13218e-07
-0.000477549
3.71016e-07
-0.000477064
4.14386e-07
6.21385e-07
-0.000277962
0.000278264
1.00643e-07
-0.000277726
9.66417e-08
-0.000277436
9.27514e-08
1.24855e-07
-7.95541e-05
7.96463e-05
-7.94978e-05
-7.93711e-05
4.92967e-05
0.00844581
7.25389e-05
0.0111199
6.48181e-05
0.00550676
1.02331e-05
1.04832e-05
-0.00156363
0.00156781
1.49257e-06
1.42181e-06
1.46886e-06
1.30731e-06
-0.000480963
0.000481568
6.81638e-07
-0.000480325
4.89046e-07
-0.000479515
4.74221e-07
5.15546e-07
-0.000279285
0.000279787
1.11521e-07
-0.000278997
8.22271e-08
-0.000278789
2.07305e-07
9.5671e-08
-7.99605e-05
8.00612e-05
-7.98639e-05
-7.97711e-05
5.40021e-05
0.00846435
4.21435e-05
0.0055304
1.57958e-05
1.45622e-05
-0.00157461
0.00158031
2.36474e-06
2.16635e-06
1.95739e-06
1.73035e-06
-0.000484103
0.000484755
8.40638e-07
-0.000483197
5.16338e-07
-0.000482289
5.60795e-07
5.8556e-07
-0.000280888
0.000281491
7.875e-08
-0.000280517
1.17425e-07
-0.000280159
1.16197e-07
1.43712e-07
-8.04464e-05
8.05579e-05
-8.03641e-05
-8.01568e-05
2.80871e-05
1.23299e-05
3.11205e-05
-0.00158873
0.00159574
4.96906e-06
3.82114e-06
3.36895e-06
2.77129e-06
-0.000488188
0.000489235
1.31783e-06
-0.000486978
9.56788e-07
-0.000485765
7.44163e-07
7.20224e-07
-0.000282729
0.000283426
1.43431e-07
-0.000282351
1.38021e-07
-0.000281924
1.34625e-07
1.52452e-07
-8.09352e-05
8.10139e-05
-8.08178e-05
-8.07016e-05
-0.00160801
7.83695e-06
1.61085e-05
1.07858e-05
8.05792e-06
-0.000494377
0.000496519
2.82687e-06
-0.000492363
1.8069e-06
-0.000490598
1.60412e-06
1.40807e-06
-0.000285268
0.000286294
2.9143e-07
-0.000284529
2.17295e-07
-0.00028396
1.75329e-07
1.86497e-07
-8.1439e-05
8.15824e-05
-8.1301e-05
-8.11664e-05
-0.000507335
1.12577e-05
-0.000502942
1.17157e-05
-0.000499654
7.49807e-06
4.9225e-06
-0.000289895
0.000291992
7.29245e-07
-0.000288571
4.83252e-07
-0.000287352
3.84525e-07
3.50956e-07
-8.21616e-05
8.2453e-05
-8.19443e-05
-8.17689e-05
-0.000303812
1.53204e-05
-0.000299549
7.45298e-06
-0.000295436
3.38463e-06
1.47896e-06
-8.36717e-05
8.44009e-05
-8.31885e-05
-8.28039e-05
-9.67175e-05
-8.92645e-05
-8.58799e-05
2.80997e-06
-2.81011e-06
1.05593e-05
2.96658e-06
-1.07164e-05
1.64942e-06
-4.45965e-06
7.72543e-06
2.83356e-06
1.57582e-05
3.28949e-06
-1.60817e-05
3.15534e-06
-1.22227e-05
8.6299e-07
-5.32281e-06
1.45266e-06
6.27264e-06
1.53526e-05
3.23873e-06
-3.31617e-06
3.03868e-05
4.56172e-06
-2.83456e-05
-1.62427e-05
2.26535e-06
-1.36254e-05
4.70609e-07
-5.79354e-06
2.1719e-06
1.4633e-05
5.55486e-07
5.71699e-06
4.91767e-06
3.08786e-05
-5.53021e-06
-0.0001088
9.95692e-06
0.000108928
-3.14266e-06
-2.85247e-05
-2.20944e-06
-1.71202e-05
1.53156e-06
-1.46866e-05
1.97669e-07
-5.99136e-06
1.39042e-06
1.37978e-05
1.76554e-07
5.54025e-06
-4.54666e-06
-0.000111986
1.26441e-05
-7.51713e-07
2.84731e-05
-0.000768763
2.47917e-05
0.00075392
-6.58346e-06
2.34141e-05
9.88425e-05
-6.75237e-06
-3.16788e-05