/*--------------------------------*- C++ -*----------------------------------*\
| =========                 |                                                 |
| \\      /  F ield         | OpenFOAM: The Open Source CFD Toolbox           |
|  \\    /   O peration     | Version:  v1912                                 |
|   \\  /    A nd           | Website:  www.openfoam.com                      |
|    \\/     M anipulation  |                                                 |
\*---------------------------------------------------------------------------*/
FoamFile
{
    version     2.0;
    format      ascii;
    class       surfaceScalarField;
    location    "230";
    object      phi;
}
// * * * * * * * * * * * * * * * * * * * * * * * * * * * * * * * * * * * * * //

dimensions      [0 3 -1 0 0 0 0];
oriented        oriented;


internalField   nonuniform List<scalar> 
7191
(
-1.95702e-06
0.00132128
-9.08167e-06
0.00396717
-2.10889e-06
0.00132339
-2.41668e-05
0.00657266
-9.46559e-06
0.00397452
-2.11227e-06
0.0013255
-4.47764e-05
0.00905093
-2.40324e-05
0.00658723
-9.46809e-06
0.00398188
-1.99343e-06
0.00132749
-7.4984e-05
0.0112902
-4.80389e-05
0.00907493
-2.3553e-05
0.00660132
-9.34174e-06
0.00398923
-2.03542e-06
0.00132953
-0.000115655
0.0131537
-7.90083e-05
0.0113212
-4.53303e-05
0.00909671
-2.41666e-05
0.00661614
-9.72489e-06
0.00399692
-1.71925e-06
0.00133125
-0.000161972
0.0145139
-0.000119316
0.013194
-7.8898e-05
0.0113547
-4.6312e-05
0.00911886
-2.17475e-05
0.00662816
-8.08368e-06
0.00400328
-1.59543e-06
0.00133284
-0.000206336
0.0152578
-0.000164889
0.0145595
-0.000117663
0.0132328
-7.32216e-05
0.0113816
-4.13892e-05
0.0091385
-1.95515e-05
0.00663963
-7.26452e-06
0.00400895
-1.49175e-06
0.00133433
-0.000249321
0.0153193
-0.000215169
0.0153081
-0.000162231
0.014604
-0.00011237
0.0132719
-7.06222e-05
0.0114109
-3.77501e-05
0.0091567
-1.82144e-05
0.00665058
-6.64205e-06
0.0040141
-1.16602e-06
0.0013355
-0.000279662
0.0146587
-0.000258239
0.0153624
-0.000211281
0.0153572
-0.000155734
0.0146474
-0.000100864
0.0133022
-6.16595e-05
0.0114348
-3.35218e-05
0.009172
-1.5523e-05
0.00665946
-4.57279e-06
0.00401751
-1.17996e-06
0.00133668
-0.000292357
0.0133143
-0.000300541
0.014701
-0.00025817
0.0154092
-0.000197636
0.0153991
-0.000136898
0.0146834
-9.19809e-05
0.0133325
-5.42438e-05
0.0114555
-2.99086e-05
0.00918639
-1.41701e-05
0.00666906
-5.19868e-06
0.00402153
-8.475e-07
0.00133753
-0.000285642
0.0113707
-0.000331652
0.0133454
-0.00029734
0.0147402
-0.000237142
0.0154487
-0.000174196
0.0154364
-0.00012243
0.0147139
-7.8381e-05
0.0133566
-4.74898e-05
0.0114731
-2.56396e-05
0.00919786
-1.08929e-05
0.00667475
-4.57779e-06
0.00402526
-7.53019e-07
0.00133828
-0.000245825
0.00896013
-0.000352097
0.0113911
-0.000326818
0.0133749
-0.000263547
0.0147666
-0.000200889
0.0154754
-0.000148299
0.0154622
-0.0001023
0.0147378
-6.57089e-05
0.0133748
-3.94368e-05
0.0114869
-2.14321e-05
0.0092084
-1.13735e-05
0.00668155
-4.17217e-06
0.00402868
-7.89165e-07
0.00133907
0.00623508
-0.00011004
-5.03177e-05
-0.000357162
0.0089652
-0.000343487
0.0114078
-0.000276927
0.0133883
-0.000216506
0.0147822
-0.000166473
0.0154936
-0.000119471
0.0154794
-8.41011e-05
0.0147562
-5.79033e-05
0.0133933
-3.63049e-05
0.0115018
-2.0631e-05
0.00921765
-1.02422e-05
0.00668762
-4.01104e-06
0.0040319
-7.73848e-07
0.00133984
0.00622081
-0.000200963
-0.000141929
-0.0021162
0.00206975
-6.35894e-05
-3.26641e-05
-0.00213386
-0.000349343
0.00897105
-0.000268919
0.0113998
-0.000210733
0.0133825
-0.000166816
0.0147826
-0.000129375
0.0155035
-0.000101079
0.0154964
-7.35149e-05
0.0147718
-4.77274e-05
0.0134047
-3.02366e-05
0.0115114
-1.74131e-05
0.00922483
-8.68918e-06
0.0066923
-3.88854e-06
0.00403501
-8.41677e-07
0.00134069
0.00620687
-0.000139902
-0.000195508
-0.00203908
0.00201192
-0.000173796
-0.00011126
-0.00139507
0.00135188
-1.54971e-05
-4.9023e-06
-9.11432e-07
-0.00142017
-6.6455e-06
-2.0078e-05
-0.000228074
0.00893021
-0.000183567
0.0113726
-0.000153902
0.0133696
-0.000128542
0.0147817
-0.000105084
0.0155075
-8.05527e-05
0.0155034
-5.73972e-05
0.0147815
-4.22861e-05
0.0134168
-2.76947e-05
0.0115216
-1.8796e-05
0.00923493
-1.02232e-05
0.00669863
-3.43244e-06
0.0040376
-1.08353e-06
0.00134177
0.0061208
-4.18646e-05
-0.000100139
-0.00198789
0.00195719
-0.000109194
-0.000171486
-0.00129723
0.00126324
-8.68679e-05
-5.29392e-05
-1.69715e-05
-3.96374e-05
-0.000438365
0.000428354
-5.48605e-06
-0.000440628
-2.63947e-06
0.000445518
-0.000445662
-7.67402e-07
-3.60301e-06
-6.03946e-08
-1.75547e-06
-0.000125089
0.00887173
-0.000116969
0.0113357
-0.000107384
0.0133484
-9.59049e-05
0.0147726
-7.9919e-05
0.0155069
-6.37415e-05
0.0155098
-5.20214e-05
0.0147912
-3.83741e-05
0.0134275
-2.70744e-05
0.0115299
-1.71503e-05
0.00924186
-1.07598e-05
0.00670596
-4.98791e-06
0.00404151
-1.14414e-06
0.00134291
0.00604044
-8.22593e-06
-3.64959e-05
-0.00191146
0.00189389
-2.42943e-05
-5.44112e-05
-0.00123519
0.00118338
-1.70005e-05
-4.03872e-05
-7.99294e-05
-6.35072e-05
-0.000379404
0.000352421
-5.98852e-05
-0.000399177
-3.3166e-05
0.000420563
-9.18096e-06
-1.82511e-05
-0.000257216
0.000252492
-7.61259e-07
-0.000259443
-4.13189e-07
-0.000448203
-1.06146e-06
0.000260923
-0.000261628
-6.21302e-08
-1.87668e-08
-2.75438e-07
-6.69913e-05
0.00882175
-7.45869e-05
0.0113029
-7.60417e-05
0.0133286
-7.23231e-05
0.014765
-6.48145e-05
0.015508
-5.78596e-05
0.0155156
-4.67056e-05
0.0147996
-3.66876e-05
0.0134371
-2.91169e-05
0.0115419
-2.05325e-05
0.00925163
-1.06027e-05
0.00671157
-5.3106e-06
0.00404567
-1.21102e-06
0.00134412
0.00598937
-6.20398e-07
-1.53024e-05
-0.00186993
0.00186713
-5.42913e-06
-1.25339e-05
-0.00114193
0.00112095
-1.75121e-07
-3.13517e-06
-1.03924e-05
-2.56905e-06
-0.000289086
0.000278393
-6.30756e-06
-0.000310819
-1.86543e-05
0.000330858
-5.8366e-05
-4.34686e-05
-0.000207113
0.0001685
-2.12721e-05
-0.00023056
-9.71857e-06
0.000245034
-1.72325e-06
-3.7773e-06
-7.4879e-05
7.41177e-05
-7.52922e-05
-0.000262576
-1.13822e-07
7.55676e-05
-7.56298e-05
-4.48661e-08
-3.72059e-05
0.00878437
-4.88466e-05
0.0112757
-5.41444e-05
0.0133104
-5.4504e-05
0.0147547
-5.40069e-05
0.0155041
-4.88966e-05
0.0155178
-4.30655e-05
0.0148059
-3.79326e-05
0.0134459
-2.94858e-05
0.0115508
-2.03327e-05
0.00926136
-1.36147e-05
0.00671988
-6.15541e-06
0.00405062
-1.53439e-06
0.00134566
0.00595908
9.59496e-07
-7.87491e-06
-0.00185536
0.00185574
-1.00132e-06
-3.53134e-06
-0.0011094
0.00110406
5.49783e-07
-6.37408e-07
-1.20011e-06
2.16994e-07
-0.000265618
0.000265536
-9.27293e-08
-0.000268379
-3.74622e-07
0.000270277
-2.27626e-06
-6.70761e-07
-8.56371e-05
7.93295e-05
-0.000104291
0.00014776
-3.76265e-05
-5.88986e-05
3.76265e-05
-6.86172e-05
7.23945e-05
-7.57436e-05
-2.19783e-05
0.0087575
-3.33974e-05
0.011255
-4.04896e-05
0.0132964
-4.65857e-05
0.0147472
-4.74919e-05
0.0155027
-4.65937e-05
0.0155213
-4.57936e-05
0.0148138
-4.05641e-05
0.013457
-3.25413e-05
0.0115631
-2.50731e-05
0.00927282
-1.51031e-05
0.00672883
-6.92158e-06
0.00405601
-1.57232e-06
0.00134723
0.00594043
1.65383e-06
-4.98875e-06
-0.00184928
0.00185086
-6.23503e-07
-1.41211e-06
-0.00110063
0.00109955
4.03265e-07
-3.22525e-07
-3.33805e-07
2.24541e-07
-0.000264007
0.000264497
5.93974e-08
-0.000264701
5.65684e-08
0.000264509
-1.7291e-07
2.47163e-08
-7.60079e-05
7.59152e-05
-7.63825e-05
7.70533e-05
-1.39796e-05
0.00873808
-2.48306e-05
0.0112393
-3.19009e-05
0.0132817
-3.76554e-05
0.0147374
-4.42953e-05
0.0155004
-4.75707e-05
0.0155231
-4.91995e-05
0.0148224
-4.52651e-05
0.0134697
-3.93057e-05
0.0115773
-2.84914e-05
0.00928621
-1.69894e-05
0.00673889
-7.76663e-06
0.0040622
-1.93483e-06
0.00134917
0.00592862
9.68745e-07
-3.13831e-06
-0.00184652
0.0018482
-2.79457e-08
-6.5368e-07
-0.00109818
0.00109745
2.63721e-07
-1.61057e-07
-1.8801e-07
1.51967e-07
-0.000264015
0.000264385
3.30909e-08
-0.000264418
8.06025e-08
0.00026425
-8.61956e-08
5.56751e-08
-7.58235e-05
7.58829e-05
-7.5767e-05
7.57422e-05
-1.01244e-05
0.00872338
-1.71877e-05
0.0112246
-2.73523e-05
0.0132714
-3.54149e-05
0.0147285
-4.36485e-05
0.0154965
-5.32849e-05
0.0155272
-5.56233e-05
0.0148328
-5.4129e-05
0.0134845
-4.51425e-05
0.0115939
-3.39618e-05
0.00930318
-2.04029e-05
0.00675153
-9.33193e-06
0.0040696
-2.035e-06
0.0013512
0.00591961
7.43454e-07
-1.85575e-06
-0.00184561
0.00184635
2.26354e-07
-5.42533e-07
-0.0010969
0.00109672
2.5303e-07
-9.53641e-08
-1.51705e-07
4.72066e-08
-0.000264158
0.000264411
1.07313e-08
-0.000264385
6.57264e-08
0.000264266
-6.84203e-08
3.27097e-08
-7.5933e-05
7.59661e-05
-7.58524e-05
7.57967e-05
-7.03379e-06
0.00871322
-1.42215e-05
0.0112114
-2.48817e-05
0.0132609
-3.6216e-05
0.0147211
-4.907e-05
0.0154923
-5.89557e-05
0.0155305
-6.57144e-05
0.0148444
-6.33849e-05
0.0135028
-5.32971e-05
0.0116133
-3.58421e-05
0.00931862
-2.07341e-05
0.00676293
-8.87335e-06
0.00407644
-1.84691e-06
0.00135305
0.00591289
1.16487e-06
-1.47404e-06
-0.00184488
0.00184544
1.82378e-07
-3.86954e-07
-0.00109623
0.0010964
1.64437e-07
-1.07798e-07
-8.75925e-08
3.49329e-08
-0.000264203
0.000264448
8.38006e-09
-0.000264369
7.10329e-08
0.000264339
-7.94286e-08
1.68603e-08
-7.59961e-05
7.60068e-05
-7.59304e-05
7.58977e-05
-5.89308e-06
0.0087049
-1.29471e-05
0.0111995
-2.38936e-05
0.0132485
-4.19803e-05
0.014714
-6.07399e-05
0.0154941
-7.54836e-05
0.0155403
-7.93699e-05
0.0148604
-7.30496e-05
0.0135225
-5.86041e-05
0.011636
-4.10521e-05
0.00933894
-2.28789e-05
0.00677694
-8.77929e-06
0.00408337
-1.91654e-06
0.00135496
0.00590719
9.74566e-07
-1.17166e-06
-0.00184418
0.00184512
2.27351e-07
-2.09339e-07
-0.00109607
0.00109613
1.62767e-07
-4.30094e-08
-1.98909e-08
-4.41476e-08
-0.000264285
0.000264447
2.23145e-09
-0.000264461
6.83371e-08
0.00026444
-8.02908e-08
1.41114e-08
-7.60153e-05
7.60237e-05
-7.59442e-05
7.59274e-05
-4.07916e-06
0.00869603
-1.26721e-05
0.0111883
-2.83676e-05
0.0132349
-4.71926e-05
0.0147004
-7.06978e-05
0.0154893
-8.93225e-05
0.0155502
-9.72322e-05
0.0148845
-8.67594e-05
0.0135507
-6.63295e-05
0.0116613
-4.3344e-05
0.0093594
-2.2378e-05
0.00679054
-9.47662e-06
0.00409093
-2.49593e-06
0.00135746
0.00590292
8.2828e-07
-6.39876e-07
-0.00184413
0.00184487
2.36075e-07
-1.81983e-07
-0.00109598
0.00109607
1.66475e-07
-3.11839e-08
-1.84299e-08
-3.82606e-08
-0.000264314
0.000264472
5.62699e-09
-0.000264455
9.70773e-08
0.000264507
-7.99554e-08
8.58859e-09
-7.60258e-05
7.6028e-05
-7.59575e-05
7.59434e-05
-4.64653e-06
0.008688
-1.50553e-05
0.011175
-3.48029e-05
0.0132225
-6.48212e-05
0.0146946
-9.40175e-05
0.015494
-0.000112816
0.0155658
-0.00011302
0.0149108
-9.71579e-05
0.0135815
-7.13128e-05
0.0116893
-4.45667e-05
0.00938159
-2.2719e-05
0.00680378
-7.72153e-06
0.00409615
-7.22665e-07
0.00135818
0.00589817
4.45175e-07
-3.34801e-07
-0.00184421
0.00184477
2.70595e-07
1.37766e-08
-0.00109595
0.00109604
1.65141e-07
-2.20404e-08
-1.12304e-08
-4.84665e-08
-0.000264385
0.000264546
6.19084e-09
-0.000264482
6.54177e-08
0.000264537
-8.34064e-08
1.63096e-08
-7.60538e-05
7.60594e-05
-7.59567e-05
7.59481e-05
-4.7009e-06
0.00867765
-2.02846e-05
0.0111605
-4.73381e-05
0.0132051
-8.45824e-05
0.0146851
-0.000118465
0.0154996
-0.000136546
0.0155893
-0.000129877
0.0149435
-0.000106608
0.0136168
-7.49473e-05
0.0117197
-4.1969e-05
0.00940084
-2.1309e-05
0.00681737
-6.70006e-06
0.00410213
-6.53191e-07
0.00135884
0.00589402
-7.44292e-07
1.8608e-07
-0.00184437
0.00184468
1.39048e-07
6.08121e-08
-0.0010961
0.00109622
1.68878e-07
-1.62196e-08
-6.56268e-09
-3.83626e-08
-0.000264457
0.000264628
-6.36741e-09
-0.000264465
-1.33501e-08
0.000264622
-8.78545e-08
1.08545e-07
-7.60577e-05
7.60639e-05
-7.59923e-05
7.5976e-05
-7.5191e-06
0.00866488
-2.77136e-05
0.0111408
-6.4794e-05
0.0131853
-0.000113546
0.0146802
-0.000151208
0.0155143
-0.000163381
0.0156228
-0.000144762
0.0149817
-0.000110882
0.0136527
-7.21564e-05
0.0117499
-4.10457e-05
0.00942058
-1.74078e-05
0.00682807
-6.19357e-06
0.00410767
-4.02333e-07
0.00135924
0.00588648
-1.03667e-06
1.06149e-06
-0.00184477
0.00184388
1.46693e-07
9.96246e-08
-0.00109631
0.00109629
1.70725e-07
-1.27497e-08
3.57343e-09
-3.24567e-08
-0.000264513
0.000264687
-5.34591e-09
-0.000264518
-1.14659e-08
0.000264668
-4.641e-08
1.11894e-07
-7.60712e-05
7.60649e-05
-7.60846e-05
7.5976e-05
-1.11667e-05
0.00864834
-4.05482e-05
0.0111166
-9.51787e-05
0.0131669
-0.000151567
0.0146806
-0.00018889
0.0155398
-0.000185594
0.0156637
-0.000154833
0.0150256
-0.000110197
0.0136908
-6.80917e-05
0.0117769
-3.63415e-05
0.00943951
-1.59472e-05
0.00683783
-2.98729e-06
0.00411026
-1.81102e-07
0.00135942
0.00587592
-2.00049e-06
1.39627e-06
-0.00184476
0.00184392
-1.88902e-07
1.72752e-07
-0.00109641
0.00109641
1.65717e-07
-1.98733e-08
3.84986e-09
-2.34125e-08
-0.000264622
0.000264798
-5.25682e-09
-0.000264624
-1.00183e-08
0.00026477
-7.88103e-08
1.12685e-07
-7.61189e-05
7.61135e-05
-7.61304e-05
7.60185e-05
-1.82933e-05
0.00862608
-6.45901e-05
0.011086
-0.000135458
0.0131508
-0.000199377
0.0146911
-0.000222499
0.0155767
-0.000197414
0.0157063
-0.000153503
0.0150689
-0.000102449
0.0137251
-6.09249e-05
0.0118015
-3.09117e-05
0.00945448
-1.06697e-05
0.00684551
-2.73051e-06
0.00411281
1.92233e-07
0.00135923
0.00586016
-3.44534e-06
9.11005e-07
-0.00184485
0.00184326
-4.09716e-07
4.65917e-07
-0.00109662
0.00109624
1.79306e-07
2.99246e-09
-3.60673e-10
-2.96617e-08
-0.0002647
0.000264874
-8.19932e-09
-0.000264742
2.21937e-08
0.000264845
-4.3557e-08
7.97707e-08
-7.61374e-05
7.61322e-05
-7.61474e-05
7.60347e-05
-3.08316e-05
0.00859232
-0.000100839
0.0110514
-0.000191775
0.0131432
-0.000248924
0.0147175
-0.000241192
0.0156205
-0.000199921
0.0157527
-0.000142568
0.015109
-9.26359e-05
0.0137568
-5.1758e-05
0.0118223
-2.28151e-05
0.00946662
-6.47281e-06
0.00684925
7.63874e-07
0.00411223
1.74433e-06
0.00135748
0.00583358
-5.89027e-06
1.63436e-06
-0.00184362
0.00184082
-6.40891e-07
5.43814e-07
-0.0010967
0.00109618
1.08625e-07
7.13948e-09
1.82632e-08
-1.17736e-08
-0.00026483
0.000265007
2.6436e-09
-0.000264836
9.46634e-09
0.000264957
-8.38675e-08
9.1284e-08
-7.61906e-05
7.61824e-05
-7.61684e-05
7.60886e-05
-5.54109e-05
0.00854689
-0.00016127
0.0110209
-0.000260052
0.0131543
-0.000281225
0.0147575
-0.000244812
0.0156654
-0.000185267
0.0157954
-0.000126458
0.0151429
-7.71015e-05
0.0137822
-4.12196e-05
0.0118407
-1.56558e-05
0.00947581
-3.02875e-06
0.00685304
1.66592e-06
0.00411231
2.07639e-06
0.00135541
0.00579041
-1.20523e-05
-1.87187e-07
-0.00184249
0.00183755
-9.47888e-07
-4.026e-08
-0.00109669
0.00109592
5.04897e-08
8.09266e-08
9.37592e-08
-6.31502e-08
-0.000264989
0.0002651
-1.53235e-09
-0.000264994
1.18805e-08
0.000265103
-7.76397e-08
9.65908e-08
-7.61992e-05
7.62019e-05
-7.61898e-05
7.60985e-05
-0.000104381
0.00849001
-0.000243229
0.0110041
-0.000310816
0.0131839
-0.000287877
0.0148006
-0.000224938
0.015705
-0.000158709
0.0158276
-0.000103657
0.0151694
-6.14852e-05
0.0138024
-2.864e-05
0.0118537
-9.31464e-06
0.00948209
1.02735e-06
0.00685368
5.27718e-06
0.00410911
2.47436e-06
0.00135293
0.005719
-2.77612e-05
-5.21348e-06
-0.00183817
0.001829
-2.87844e-06
-8.07538e-07
-0.00109583
0.00109478
-1.04065e-10
9.90539e-08
1.77247e-07
-1.26072e-07
-0.000265142
0.000265187
5.67589e-09
-0.000265106
4.55283e-08
0.000265239
-4.52132e-08
6.90342e-08
-7.62327e-05
7.62312e-05
-7.62208e-05
7.61243e-05
-0.000192387
0.00843916
-0.000329288
0.0110225
-0.000322609
0.0132186
-0.000255531
0.0148312
-0.000188634
0.015735
-0.000130642
0.0158546
-8.22568e-05
0.0151902
-4.36927e-05
0.0138175
-1.83903e-05
0.0118628
-2.31209e-06
0.00948543
3.69279e-06
0.00685527
7.32561e-06
0.00410426
2.85534e-06
0.00135008
0.00562374
-7.16251e-05
-2.54927e-05
-0.00182708
0.00180807
-8.75035e-06
-3.29349e-06
-0.00109395
0.00109129
-3.12909e-07
9.78132e-08
1.92442e-07
-1.70442e-07
-0.000265292
0.000265321
-2.97394e-08
-0.000265208
1.53072e-08
0.000265437
-7.26591e-08
1.02578e-07
-7.63005e-05
7.63062e-05
-7.6255e-05
7.6186e-05
-0.000323399
0.00843327
-0.000349218
0.0110491
-0.000275661
0.0132388
-0.000207073
0.0148496
-0.00014731
0.0157516
-9.88849e-05
0.0158712
-5.86461e-05
0.0152052
-2.9178e-05
0.0138283
-8.49143e-06
0.011869
4.03144e-06
0.00948509
1.08516e-05
0.00685174
7.65331e-06
0.00409946
3.33034e-06
0.00134675
0.0055709
-0.000175018
-9.55497e-05
-0.00179664
0.00175606
-3.10457e-05
-1.40645e-05
-0.00108804
0.00107994
-8.05613e-07
1.58409e-07
4.4623e-07
-4.90708e-07
-0.000265339
0.000265061
-3.42484e-08
-0.000265293
5.1659e-08
0.000265541
-2.76962e-08
7.7792e-08
-7.63515e-05
7.63217e-05
-7.63362e-05
7.62336e-05
-0.000362803
0.00844686
-0.000275419
0.0110489
-0.0002062
0.0132379
-0.000154062
0.0148564
-0.000108403
0.0157611
-7.02493e-05
0.0158828
-3.93105e-05
0.0152153
-1.37812e-05
0.0138336
2.90031e-06
0.0118701
1.15343e-05
0.00948441
1.1992e-05
0.0068474
9.2148e-06
0.00409358
3.86861e-06
0.00134288
0.00556454
-0.000160751
-0.00019569
-0.00171992
0.0016713
-0.000126396
-5.94099e-05
-0.00106717
0.00103997
-3.59136e-06
-2.54898e-07
1.39411e-07
-1.43787e-06
-0.000265119
0.00026439
-7.66924e-08
-0.000264985
2.49104e-08
0.000265554
-4.7085e-08
7.78806e-08
-7.64235e-05
7.63893e-05
-7.63718e-05
7.6294e-05
-0.000239594
0.00841103
-0.000179051
0.0110217
-0.000139269
0.0132231
-0.000103709
0.0148517
-7.40933e-05
0.015765
-4.67659e-05
0.0158903
-2.06084e-05
0.0152221
-3.58732e-06
0.0138401
1.08751e-05
0.0118708
1.54086e-05
0.00948099
1.95212e-05
0.0068371
1.07549e-05
0.00408669
4.59858e-06
0.00133828
0.00547428
-4.26701e-05
-0.000106661
-0.00164401
0.00161026
-0.000127005
-0.000168401
-0.000993214
0.000918144
-3.70352e-05
-1.42909e-05
-2.09995e-06
-1.0554e-05
-0.000263034
0.000259966
-5.23339e-07
-0.000263219
-6.97428e-08
0.000264631
-1.0125e-07
-2.65669e-08
-7.6445e-05
7.63683e-05
-7.64201e-05
7.63422e-05
-0.000121174
0.00835316
-0.000106565
0.010989
-8.96095e-05
0.013209
-6.94704e-05
0.014847
-4.85324e-05
0.0157667
-2.48201e-05
0.0158945
-5.9948e-06
0.0152245
8.36235e-06
0.0138426
1.81549e-05
0.011868
2.16329e-05
0.00947888
1.75233e-05
0.00683033
1.51974e-05
0.00407609
6.31545e-06
0.00133196
0.00539011
-5.29646e-06
-3.17059e-05
-0.00155838
0.00153579
-2.00745e-05
-5.47831e-05
-0.000872724
0.000809244
-1.86327e-05
-4.4892e-05
-5.94145e-05
-6.35661e-05
-0.000239171
0.000212094
-9.95858e-06
-0.000249616
-3.84562e-06
0.000258471
-6.0414e-07
-1.69923e-06
-7.61707e-05
7.56474e-05
-7.62405e-05
7.6267e-05
-5.6926e-05
0.00830352
-5.94687e-05
0.0109589
-5.31412e-05
0.0131927
-4.10769e-05
0.0148396
-2.3257e-05
0.0157652
-7.11745e-06
0.0158956
6.04748e-06
0.0152268
2.06585e-05
0.0138401
2.58033e-05
0.0118638
2.82987e-05
0.00946811
2.55747e-05
0.00681995
1.53553e-05
0.00406705
5.77565e-06
0.00132619
0.00534245
1.76265e-06
-1.10338e-05
-0.00151255
0.00150985
-2.59488e-06
-8.47027e-06
-0.000762058
0.000742763
9.82142e-08
-8.77666e-07
-6.35416e-06
-1.24241e-06
-0.000103761
8.51284e-05
-0.000148653
0.000174729
-2.20501e-05
-3.74898e-05
-6.94984e-05
5.95398e-05
-7.3344e-05
7.50433e-05
-2.69792e-05
0.00827103
-3.241e-05
0.0109382
-2.83975e-05
0.01318
-1.93477e-05
0.0148357
-8.94546e-06
0.015767
4.40339e-06
0.0158973
1.70646e-05
0.0152304
2.74e-05
0.0138385
3.1589e-05
0.0118606
3.28137e-05
0.00946087
2.79888e-05
0.00680732
1.91246e-05
0.0040537
6.59603e-06
0.00131959
0.00531733
3.14565e-06
-5.00056e-06
-0.00150018
0.00150184
1.00439e-07
-1.36379e-06
-0.000734342
0.000731685
1.45888e-07
-8.40401e-08
-1.9461e-07
1.45262e-07
-7.66542e-05
7.67524e-05
-7.75319e-05
7.87743e-05
3.74898e-05
-1.13034e-05
0.00824992
-1.38495e-05
0.0109236
-1.21835e-05
0.0131728
-4.03947e-06
0.0148308
6.74039e-06
0.0157647
1.83271e-05
0.015896
2.92795e-05
0.0152285
3.54245e-05
0.0138346
3.98245e-05
0.0118535
4.12447e-05
0.00944761
3.18523e-05
0.00679459
2.15179e-05
0.00403878
8.51447e-06
0.00131108
0.00530594
2.89436e-06
-2.80658e-06
-0.00149698
0.0014997
4.26888e-07
-1.33854e-07
-0.000730215
0.00073025
9.52959e-08
-3.05521e-08
-1.85395e-08
1.25354e-07
-7.66191e-05
7.67649e-05
-7.67031e-05
7.65578e-05
-3.36082e-06
0.00823943
-3.2371e-06
0.0109147
1.01822e-06
0.0131678
8.69237e-06
0.0148288
1.92408e-05
0.0157638
2.84636e-05
0.0158968
3.85196e-05
0.0152255
4.40837e-05
0.0138304
4.85051e-05
0.0118463
4.35783e-05
0.00943588
3.72746e-05
0.00677883
2.15896e-05
0.00402571
8.07227e-06
0.001303
0.00530105
2.72162e-06
-1.19256e-06
-0.00149678
0.00149914
5.25881e-07
1.12676e-07
-0.000730057
0.00073044
6.37319e-08
-1.96774e-08
-3.06401e-08
8.9938e-08
-7.68412e-05
7.69365e-05
-7.68717e-05
7.67464e-05
1.85366e-06
0.00823434
3.8217e-06
0.0109119
9.45716e-06
0.013167
1.68003e-05
0.0148313
2.68007e-05
0.0157654
3.84581e-05
0.0158969
4.56721e-05
0.0152239
5.40464e-05
0.0138248
5.55753e-05
0.0118343
4.96707e-05
0.00942349
4.08173e-05
0.0067596
2.439e-05
0.00400939
8.97566e-06
0.00129403
0.0053001
3.0657e-06
-2.64203e-07
-0.00149762
0.00149976
5.83954e-07
3.28295e-07
-0.000730474
0.000730975
5.27944e-08
-2.76873e-08
-4.25681e-09
8.2611e-08
-7.69761e-05
7.70398e-05
-7.69958e-05
7.69058e-05
4.29794e-06
0.00823387
9.09067e-06
0.0109122
1.6918e-05
0.0131669
2.62718e-05
0.0148318
3.61855e-05
0.0157677
4.6961e-05
0.0158956
5.62789e-05
0.0152216
6.0841e-05
0.0138196
5.76889e-05
0.0118263
5.50909e-05
0.00940921
4.25176e-05
0.00674148
2.99106e-05
0.00398845
9.38417e-06
0.00128464
0.00530154
2.9586e-06
-1.02248e-07
-0.00149907
0.00150154
5.97192e-07
4.24739e-07
-0.000731225
0.000731699
3.31129e-08
7.75212e-08
2.82276e-08
4.94419e-08
-7.70905e-05
7.71433e-05
-7.71182e-05
7.70355e-05
7.49631e-06
0.00823546
1.4376e-05
0.0109148
2.25251e-05
0.0131706
3.38769e-05
0.0148341
4.60991e-05
0.0157686
5.55142e-05
0.0158964
6.36328e-05
0.0152188
6.92741e-05
0.013808
7.20676e-05
0.0118093
6.28276e-05
0.0093889
5.28646e-05
0.00671852
3.05558e-05
0.00396728
9.96793e-06
0.00127468
0.00530572
2.50432e-06
8.16515e-07
-0.001501
0.00150334
6.24265e-07
4.37142e-07
-0.000732037
0.000732615
2.04664e-08
-9.65239e-10
3.12326e-08
5.50028e-08
-7.72985e-05
7.73316e-05
-7.72209e-05
7.71715e-05
8.98723e-06
0.00824085
1.70564e-05
0.0109202
2.74493e-05
0.0131771
4.08317e-05
0.0148394
5.21885e-05
0.0157719
6.49034e-05
0.0158951
7.52664e-05
0.0152128
7.91906e-05
0.0138009
8.15538e-05
0.0117906
7.24396e-05
0.00936933
5.44556e-05
0.00669462
3.43408e-05
0.00394291
1.34539e-05
0.00126122
0.00531103
2.57474e-06
1.09593e-06
-0.00150354
0.00150537
6.72056e-07
6.15256e-07
-0.000733002
0.000733572
2.44411e-08
2.9254e-08
7.24303e-09
4.28882e-08
-7.74168e-05
7.74373e-05
-7.74178e-05
7.73628e-05
1.0416e-05
0.00824749
2.10083e-05
0.0109267
3.35055e-05
0.0131844
4.67021e-05
0.0148449
6.09665e-05
0.0157758
7.44559e-05
0.0158959
8.31686e-05
0.0152089
8.75478e-05
0.0137949
8.47229e-05
0.0117783
8.01625e-05
0.00934362
6.14002e-05
0.00666756
3.7796e-05
0.00391857
2.77062e-05
0.00123352
0.00531787
2.32174e-06
1.25814e-06
-0.0015058
0.00150744
9.38609e-07
6.61006e-07
-0.000734097
0.000734736
2.79473e-08
5.08849e-09
3.32917e-08
5.76569e-08
-7.75167e-05
7.75412e-05
-7.74874e-05
7.74446e-05
1.1529e-05
0.00825697
2.49085e-05
0.0109353
4.13134e-05
0.0131898
5.54973e-05
0.0148503
7.18002e-05
0.0157785
8.23595e-05
0.0158967
9.28183e-05
0.0152036
9.78457e-05
0.0137817
9.62549e-05
0.0117622
8.6035e-05
0.00931899
6.80589e-05
0.0066373
5.83129e-05
0.00388796
5.46335e-05
0.00532665
1.6089e-06
1.13491e-06
-0.00150794
0.00150972
5.49657e-07
7.53828e-07
-0.000735303
0.00073613
1.05612e-07
5.97064e-09
3.47159e-08
5.89847e-08
-7.76372e-05
7.76651e-05
-7.76321e-05
7.75744e-05
1.30381e-05
0.00826884
2.79654e-05
0.0109486
4.50368e-05
0.0132002
6.32672e-05
0.0148589
7.91368e-05
0.0157817
9.39735e-05
0.0158956
0.000103021
0.0151984
0.000106592
0.0137714
0.000103989
0.0117442
9.14632e-05
0.00929558
8.78102e-05
0.0066078
9.9607e-05
0.00533779
1.13812e-06
7.60338e-07
-0.00151055
0.00151236
-2.0484e-07
3.01077e-07
-0.000736781
0.000737273
3.10756e-08
2.65755e-08
7.17378e-08
3.15089e-08
-7.77648e-05
7.78704e-05
-7.77588e-05
7.76999e-05
1.71571e-05
0.00827965
3.38387e-05
0.0109598
5.11733e-05
0.0132123
6.95098e-05
0.0148685
8.68801e-05
0.0157888
0.00010286
0.0158957
0.000112509
0.0151925
0.000119821
0.0137556
0.000116843
0.0117189
0.000114117
0.00926928
0.000129609
0.00534836
5.1203e-06
1.47516e-06
-0.00151446
0.00151754
-1.93699e-06
-1.34008e-06
-0.000737509
0.000737355
-9.49805e-10
-5.00068e-08
1.57793e-08
4.89877e-08
-7.80003e-05
7.80313e-05
-7.79737e-05
7.79422e-05
2.07812e-05
0.00829271
3.69351e-05
0.0109741
5.79501e-05
0.0132239
7.84915e-05
0.0148769
9.82499e-05
0.0157934
0.000110968
0.0158973
0.00012308
0.0151892
0.000128377
0.013744
0.000133963
0.011699
0.000151201
0.00535862
5.21214e-06
5.30913e-06
-0.00151555
0.00151985
1.22688e-06
-4.04754e-07
-1.73341e-06
5.19918e-06
-0.00073597
0.000435327
0.000298931
-2.2034e-07
-4.53996e-09
2.29871e-08
2.20629e-08
-7.80461e-05
7.80452e-05
-7.80961e-05
7.80471e-05
2.23372e-05
0.0083073
4.23314e-05
0.0109897
6.31426e-05
0.0132392
8.6778e-05
0.0148883
0.000104628
0.0157997
0.000121433
0.0158989
0.000130334
0.0151873
0.000143216
0.0137348
0.000159886
0.00537188
4.47398e-06
4.60104e-06
-0.0015221
0.00152458
1.50313e-06
1.23596e-06
1.81714e-06
1.23626e-06
-0.000463963
0.000466114
-9.2453e-07
-0.000461302
-3.06541e-06
-0.000456232
-6.80351e-06
-1.5706e-05
0.000280388
2.8375e-06
-7.80857e-05
7.78653e-05
-7.80902e-05
7.80681e-05
2.42311e-05
0.0083254
4.66295e-05
0.0110062
7.13362e-05
0.0132547
9.45749e-05
0.0148984
0.000113696
0.0158075
0.000130078
0.0158992
0.000146285
0.0151842
0.000164614
0.00538675
4.52317e-06
4.83212e-06
-0.00152688
0.00152951
1.07436e-06
7.64736e-07
1.28179e-06
1.01673e-06
-0.000468936
0.000469627
8.11594e-07
-0.000468341
6.4101e-07
-0.000467048
5.24143e-07
3.02317e-07
-0.000272451
0.000272041
-5.14668e-07
-0.000274471
-1.04556e-06
-8.86919e-07
8.07028e-05
2.76407e-05
0.00834439
5.13806e-05
0.0110262
7.91051e-05
0.0132702
0.000100838
0.0149113
0.00012061
0.0158169
0.000138892
0.0159066
0.000158028
0.00540424
4.9536e-06
5.19635e-06
-0.00153257
0.00153522
8.19206e-07
1.05456e-06
9.98642e-07
7.77216e-07
-0.000471266
0.000471774
5.66073e-07
-0.000470913
4.11212e-07
-0.000470049
4.17918e-07
5.9528e-07
-0.000273244
0.00027391
1.45984e-07
-0.000272764
1.60684e-07
-0.000272344
1.04445e-07
-5.72992e-10
-7.87704e-05
7.82557e-05
-7.98159e-05
3.04709e-05
0.0083653
5.79054e-05
0.0110474
8.43343e-05
0.0132867
0.00010672
0.0149251
0.000127262
0.0158286
0.000141315
0.00542346
5.3673e-06
5.88637e-06
-0.00153857
0.00154161
7.92275e-07
1.11786e-06
8.03571e-07
1.04202e-06
-0.000473353
0.000473801
3.7131e-07
-0.000472674
3.75571e-07
-0.000472136
4.61103e-07
4.15313e-07
-0.000274918
0.000275385
9.89206e-08
-0.000274605
9.75446e-08
-0.000274321
1.34064e-07
1.84455e-07
-7.85202e-05
7.86662e-05
-7.83596e-05
-7.82551e-05
3.50053e-05
0.0083882
6.45951e-05
0.0110671
9.0184e-05
0.0133032
0.00011021
0.0149422
0.000117608
0.00544564
6.19251e-06
6.63087e-06
-0.00154537
0.00154864
8.82937e-07
1.2168e-06
8.97805e-07
1.22922e-06
-0.000475471
0.000475861
4.02032e-07
-0.000474686
3.32725e-07
-0.000474264
3.81489e-07
5.79122e-07
-0.000276361
0.00027664
9.21154e-08
-0.000276042
5.62555e-08
-0.000275707
1.26463e-07
9.37102e-08
-7.90823e-05
7.91812e-05
-7.89847e-05
-7.88507e-05
4.05636e-05
0.00841223
7.14383e-05
0.0110858
9.10526e-05
0.0133224
9.15288e-05
0.00547108
7.09693e-06
8.02892e-06
-0.00155262
0.0015564
1.28554e-06
1.12598e-06
1.2836e-06
1.36336e-06
-0.0004778
0.00047807
6.12703e-07
-0.000476953
3.70737e-07
-0.00047647
4.13963e-07
6.20719e-07
-0.00027762
0.000277921
1.00566e-07
-0.000277383
9.65329e-08
-0.000277095
9.26372e-08
1.24699e-07
-7.94576e-05
7.95497e-05
-7.94014e-05
-7.92749e-05
4.9288e-05
0.00843438
7.25476e-05
0.0111043
6.4879e-05
0.00549966
1.0231e-05
1.04792e-05
-0.00156166
0.00156584
1.49202e-06
1.42121e-06
1.46801e-06
1.3066e-06
-0.000480365
0.000480969
6.81159e-07
-0.000479728
4.88736e-07
-0.000478918
4.73833e-07
5.15117e-07
-0.000278942
0.000279443
1.11451e-07
-0.000278653
8.21566e-08
-0.000278446
2.07069e-07
9.55685e-08
-7.98636e-05
7.99642e-05
-7.97671e-05
-7.96744e-05
5.40016e-05
0.00845293
4.22036e-05
0.00552331
1.5793e-05
1.45576e-05
-0.00157264
0.00157834
2.36413e-06
2.16578e-06
1.95669e-06
1.7298e-06
-0.000483503
0.000484155
8.40207e-07
-0.000482598
5.1621e-07
-0.000481691
5.6048e-07
5.85202e-07
-0.000280544
0.000281146
7.87466e-08
-0.000280172
1.17337e-07
-0.000279815
1.16098e-07
1.43576e-07
-8.0349e-05
8.04604e-05
-8.02668e-05
-8.00597e-05
2.81342e-05
1.23431e-05
3.11085e-05
-0.00158676
0.00159376
4.96681e-06
3.81979e-06
3.36765e-06
2.77055e-06
-0.000487587
0.000488634
1.31734e-06
-0.000486378
9.56577e-07
-0.000485165
7.43982e-07
7.20006e-07
-0.000282383
0.00028308
1.43405e-07
-0.000282005
1.37957e-07
-0.000281579
1.34545e-07
1.52339e-07
-8.08374e-05
8.09162e-05
-8.07201e-05
-8.0604e-05
-0.00160604
7.83717e-06
1.60978e-05
1.07792e-05
8.0536e-06
-0.000493774
0.000495916
2.82539e-06
-0.000491761
1.80631e-06
-0.000489997
1.60349e-06
1.40758e-06
-0.000284922
0.000285948
2.91366e-07
-0.000284182
2.1725e-07
-0.000283614
1.75287e-07
1.86415e-07
-8.1341e-05
8.14844e-05
-8.12031e-05
-8.10685e-05
-0.000506728
1.12512e-05
-0.000502337
1.17067e-05
-0.00049905
7.49255e-06
4.91925e-06
-0.000289547
0.000291643
7.28885e-07
-0.000288223
4.8306e-07
-0.000287004
3.84394e-07
3.5083e-07
-8.20634e-05
8.23547e-05
-8.18461e-05
-8.16708e-05
-0.000303456
1.53062e-05
-0.000299195
7.44618e-06
-0.000295084
3.38173e-06
1.47793e-06
-8.3573e-05
8.43019e-05
-8.309e-05
-8.27056e-05
-9.66078e-05
-8.91616e-05
-8.57799e-05
1.5282e-06
-1.52835e-06
5.51229e-06
8.67948e-07
-4.85262e-06
9.22374e-07
-2.45086e-06
4.18683e-06
1.3251e-06
4.20789e-06
2.54033e-07
-3.59469e-06
1.09725e-06
-5.02788e-06
5.34942e-07
-2.98599e-06
7.89303e-07
3.39735e-06
4.69796e-06
8.34527e-07
-4.23324e-07
-1.40452e-05
-3.27535e-06
1.79946e-05
-2.92097e-06
1.05867e-06
-5.55198e-06
3.31667e-07
-3.31781e-06
7.96715e-07
4.68999e-06
3.11176e-07
3.08594e-06
-1.46814e-06
-1.09474e-05
5.51813e-07
-0.000285587
-1.11974e-05
0.000292949
-8.73877e-07
2.03963e-05
-9.77187e-07
-2.73637e-06
8.65676e-07
-6.08633e-06
1.26039e-07
-3.44402e-06
5.67416e-07
4.43335e-06
8.11395e-08
3.00454e-06
-1.23193e-06
-0.000280097
-5.73482e-06
-4.16467e-07
-1.11967e-05
-0.00107297
-7.56653e-06
0.00106932
-2.41671e-06
6.75041e-06
0.000293219
-4.6124e-06
1.99375e-05
-9.41868e-07