/*--------------------------------*- C++ -*----------------------------------*\
| =========                 |                                                 |
| \\      /  F ield         | OpenFOAM: The Open Source CFD Toolbox           |
|  \\    /   O peration     | Version:  v1912                                 |
|   \\  /    A nd           | Website:  www.openfoam.com                      |
|    \\/     M anipulation  |                                                 |
\*---------------------------------------------------------------------------*/
FoamFile
{
    version     2.0;
    format      ascii;
    class       volVectorField;
    location    "230";
    object      U;
}
// * * * * * * * * * * * * * * * * * * * * * * * * * * * * * * * * * * * * * //

dimensions      [0 1 -1 0 0 0 0];


internalField   nonuniform List<vector> 
3673
(
(0.076922 0.026007 -7.099e-22)
(0.230902 0.0765412 7.39887e-25)
(0.0764078 0.0258352 0)
(0.382498 0.124349 0)
(0.229453 0.0760671 -7.40217e-25)
(0.0759194 0.0256706 0)
(0.526685 0.168002 0)
(0.380201 0.123611 0)
(0.228036 0.0755995 0)
(0.0754329 0.0255096 -5.32932e-22)
(0.65679 0.205658 0)
(0.523671 0.167042 0)
(0.377937 0.122881 0)
(0.226634 0.0751423 0)
(0.0749588 0.0253512 5.29612e-22)
(0.765183 0.235255 0)
(0.65312 0.204494 5.69632e-25)
(0.520664 0.166089 0)
(0.375714 0.12217 0)
(0.225271 0.0746933 -5.11264e-22)
(0.0744871 0.0251932 0)
(0.84442 0.254918 0)
(0.760937 0.233906 2.98614e-22)
(0.649494 0.203352 -5.69103e-25)
(0.517705 0.165152 0)
(0.373501 0.121455 0)
(0.2239 0.0742382 0)
(0.0740133 0.0250364 0)
(0.888245 0.263233 -2.97928e-22)
(0.839616 0.253383 -2.80001e-22)
(0.756735 0.232583 0)
(0.645874 0.202215 2.71873e-22)
(0.514755 0.164215 0)
(0.371302 0.120743 -4.54989e-25)
(0.222529 0.0737874 0)
(0.0735468 0.0248815 -7.46732e-22)
(0.892427 0.259475 5.57371e-24)
(0.882825 0.261494 5.35717e-25)
(0.834842 0.251877 0)
(0.752551 0.231275 1.57471e-23)
(0.642283 0.201089 0)
(0.511796 0.163277 0)
(0.369099 0.120032 4.54938e-25)
(0.221172 0.073339 3.79385e-22)
(0.0730765 0.0247246 0)
(0.85545 0.243802 2.99426e-22)
(0.886304 0.257512 2.76156e-22)
(0.877433 0.259791 -2.67574e-22)
(0.830096 0.250396 -2.4647e-22)
(0.748355 0.229968 -4.52683e-25)
(0.638664 0.199955 0)
(0.508834 0.162336 0)
(0.366898 0.119319 -3.85943e-25)
(0.219793 0.0728841 0)
(0.0726106 0.0245685 0)
(0.779046 0.217376 6.06162e-25)
(0.84855 0.241602 -2.82362e-22)
(0.880198 0.255592 2.66577e-22)
(0.872075 0.258126 2.52752e-22)
(0.825342 0.248922 0)
(0.74416 0.228661 4.52399e-25)
(0.635029 0.198813 0)
(0.505865 0.161391 0)
(0.364696 0.118606 1.09612e-24)
(0.218437 0.0724351 0)
(0.0721487 0.0244118 0)
(0.668212 0.182311 -3.66708e-24)
(0.771341 0.214945 -2.67464e-22)
(0.841639 0.239457 -2.62776e-22)
(0.874159 0.253737 -2.20808e-24)
(0.866751 0.256487 9.55633e-25)
(0.82059 0.24745 -2.25832e-22)
(0.739932 0.227344 0)
(0.631383 0.197666 0)
(0.502896 0.160443 0)
(0.362472 0.117882 -1.03712e-24)
(0.217089 0.0719874 0)
(0.0716884 0.0242545 0)
(0.530658 0.141394 2.73174e-24)
(0.659717 0.179671 3.33852e-23)
(0.763527 0.21257 2.80573e-22)
(0.834865 0.237425 -5.19023e-22)
(0.868234 0.251936 1.93124e-24)
(0.86146 0.254856 2.18397e-22)
(0.815824 0.245973 0)
(0.735676 0.226016 0)
(0.627711 0.196509 -3.85169e-22)
(0.499905 0.159487 0)
(0.360283 0.117171 3.50143e-22)
(0.21575 0.0715391 3.23552e-22)
(0.0712382 0.0241061 0)
(0.375819 0.0976164 0)
(0.521354 0.138614 3.00106e-22)
(0.650872 0.177047 2.6583e-22)
(0.755997 0.210394 2.76623e-22)
(0.828353 0.235485 -2.45434e-22)
(0.862425 0.250164 -1.6895e-24)
(0.856189 0.253234 0)
(0.811037 0.244491 -7.35606e-25)
(0.731415 0.224689 3.50872e-22)
(0.624048 0.195356 0)
(0.496938 0.158536 -2.97131e-22)
(0.358112 0.116458 -2.63473e-22)
(0.214423 0.0710963 0)
(0.0707818 0.0239555 0)
(0.365567 0.0948352 -6.06184e-23)
(0.250444 0.0639352 -2.205e-24)
(0.253685 0.0648289 -1.43356e-22)
(0.511042 0.135661 -3.12166e-22)
(0.642584 0.174764 2.25208e-24)
(0.749031 0.208377 2.576e-22)
(0.822132 0.233617 -1.71777e-24)
(0.856723 0.248426 1.69141e-24)
(0.85094 0.251621 1.4694e-24)
(0.806254 0.243012 1.42433e-24)
(0.727138 0.223355 -1.01457e-24)
(0.620376 0.194193 0)
(0.493976 0.157582 0)
(0.355943 0.115746 2.97785e-22)
(0.213109 0.0706581 0)
(0.0703349 0.023805 0)
(0.351923 0.0912178 6.85771e-23)
(0.238089 0.0606488 1.00466e-22)
(0.245464 0.062802 0)
(0.167075 0.0421422 2.26581e-24)
(0.16931 0.0426366 1.03424e-22)
(0.256046 0.0653088 0)
(0.501973 0.13324 -5.36324e-26)
(0.635396 0.172746 4.0545e-24)
(0.742596 0.206476 2.30593e-22)
(0.816134 0.231812 3.3182e-24)
(0.851109 0.246717 1.91534e-22)
(0.845721 0.250019 -1.83819e-22)
(0.801466 0.24153 -1.01147e-24)
(0.722872 0.22202 3.23306e-25)
(0.616724 0.193035 3.13883e-22)
(0.491055 0.15664 -2.53115e-22)
(0.353813 0.115046 -2.75513e-22)
(0.211796 0.0702203 -2.45308e-22)
(0.0698982 0.0236585 0)
(0.341834 0.0884383 4.89362e-24)
(0.219833 0.0561717 -2.48636e-22)
(0.228071 0.0578446 8.04513e-23)
(0.155352 0.0391651 0)
(0.163325 0.041245 2.40665e-23)
(0.103511 0.0258905 -3.9117e-23)
(0.104329 0.0260731 8.08222e-23)
(0.105291 0.0262716 3.32775e-25)
(0.170734 0.0429657 0)
(0.104893 0.0261633 4.14623e-23)
(0.495001 0.131287 2.89518e-22)
(0.629143 0.170932 -2.5781e-22)
(0.73659 0.204702 2.08477e-22)
(0.810341 0.230076 -2.0105e-22)
(0.845584 0.245041 4.1839e-24)
(0.840533 0.24843 0)
(0.796699 0.240055 3.22349e-25)
(0.718619 0.220689 -2.8542e-22)
(0.613095 0.191883 2.93718e-22)
(0.488142 0.155699 2.34199e-22)
(0.351712 0.114356 1.99393e-22)
(0.210527 0.0697944 -2.25054e-22)
(0.0694699 0.0235147 -2.54537e-22)
(0.335991 0.08663 -3.33554e-22)
(0.211869 0.0537255 1.89014e-24)
(0.214685 0.0546131 0)
(0.131014 0.0330853 1.15308e-22)
(0.141142 0.0352153 -6.82669e-23)
(0.0909223 0.0224545 2.42883e-24)
(0.0969089 0.0244786 -1.94633e-24)
(0.102318 0.0257018 0)
(0.100323 0.0251808 -1.77671e-25)
(0.0606377 0.0150591 5.45592e-25)
(0.0610952 0.0151444 -3.70695e-23)
(0.10566 0.0263489 -3.32857e-25)
(0.0615873 0.015251 3.68001e-23)
(0.105954 0.0264275 -4.4231e-23)
(0.061362 0.0152008 0)
(0.489476 0.129705 -2.47202e-22)
(0.623523 0.169305 -2.31742e-22)
(0.730909 0.203034 0)
(0.804716 0.228397 3.67383e-22)
(0.840143 0.243394 -6.90095e-25)
(0.835384 0.246852 0)
(0.791956 0.238587 1.522e-22)
(0.714397 0.219365 -2.67112e-22)
(0.609519 0.190744 -2.46427e-25)
(0.4853 0.154776 2.58223e-22)
(0.349626 0.113663 1.83319e-22)
(0.20928 0.0693754 -6.93623e-23)
(0.0690455 0.0233727 0)
(0.332076 0.0855484 2.92505e-22)
(0.208587 0.052722 -1.71142e-24)
(0.209873 0.0530842 -1.89271e-24)
(0.125371 0.0312897 1.62467e-24)
(0.127032 0.0318343 -2.77285e-23)
(0.0621275 0.0156758 3.64218e-23)
(0.0647653 0.016382 -3.98961e-23)
(0.0798713 0.0188068 -6.80543e-24)
(0.0701815 0.0179133 5.9696e-25)
(0.0516641 0.0121074 2.26179e-24)
(0.0562464 0.0140743 0)
(0.0599424 0.0149337 0)
(0.0586885 0.0146911 -3.406e-23)
(0.0195767 0.00481691 -2.05183e-25)
(0.0196958 0.00484062 2.05287e-25)
(0.0617757 0.0153017 -3.75113e-23)
(0.0198372 0.00487423 -4.47743e-25)
(0.0619408 0.0153361 4.0491e-23)
(0.0197883 0.0048668 -2.76449e-23)
(0.484769 0.128389 -2.26749e-22)
(0.618363 0.167828 1.99164e-22)
(0.725498 0.201453 -3.72466e-22)
(0.799249 0.226768 -1.6808e-22)
(0.834776 0.24177 -1.56699e-22)
(0.830277 0.245289 -2.96347e-22)
(0.787246 0.237126 -2.83055e-25)
(0.710219 0.21805 0)
(0.605984 0.18961 -2.2695e-22)
(0.482486 0.153856 0)
(0.347605 0.112993 1.68339e-22)
(0.208056 0.0689628 0)
(0.0686317 0.0232339 8.44379e-23)
(0.328918 0.0847668 3.16495e-22)
(0.206563 0.0522661 1.6176e-24)
(0.207405 0.0524597 1.01671e-22)
(0.123665 0.0308251 2.36153e-23)
(0.12434 0.03101 2.26827e-23)
(0.0599756 0.0148402 -3.20244e-23)
(0.0601711 0.0149042 -5.26587e-25)
(0.0610154 0.0151834 3.68751e-23)
(0.0604448 0.0149994 -3.34581e-23)
(0.0200945 0.00506929 -2.93312e-23)
(0.0214971 0.00561703 4.22987e-23)
(0.0346647 0.0059807 -1.91256e-24)
(0.0237916 0.00626945 -1.03949e-23)
(0.0169012 0.00433516 -3.64857e-23)
(0.018108 0.0046352 -2.50824e-23)
(0.0193886 0.00478323 -2.47288e-23)
(0.019014 0.00472522 -2.49492e-23)
(0.0198868 0.00488994 2.10331e-25)
(0.0199334 0.00489818 3.02355e-23)
(0.48058 0.127241 -2.29036e-22)
(0.613537 0.166457 1.98732e-22)
(0.720293 0.199934 3.44748e-22)
(0.793887 0.225173 7.47255e-24)
(0.829475 0.24017 1.49292e-22)
(0.825217 0.24374 0)
(0.782588 0.235679 0)
(0.706102 0.216747 0)
(0.602505 0.188491 2.40013e-22)
(0.479737 0.152955 2.26393e-22)
(0.345628 0.112333 0)
(0.20686 0.0685579 0)
(0.0682244 0.0230978 0)
(0.326145 0.0840812 5.5545e-23)
(0.204859 0.0518819 -8.81442e-23)
(0.205594 0.0520607 -5.3439e-24)
(0.122608 0.0305947 0)
(0.123092 0.0307079 -9.43568e-23)
(0.0594914 0.0147087 2.94815e-23)
(0.05956 0.0147382 -3.07416e-23)
(0.0597874 0.0147919 3.07032e-23)
(0.0596701 0.0147674 -3.16758e-23)
(0.0192454 0.00473092 4.52201e-23)
(0.0193051 0.00475275 -2.27627e-23)
(0.0195967 0.00485197 0)
(0.0193901 0.00477709 4.77163e-23)
(0.00961595 0.00153186 2.46528e-24)
(0.476733 0.126193 -1.64498e-24)
(0.608945 0.165157 -3.50735e-22)
(0.715242 0.198468 1.65726e-22)
(0.788629 0.223615 0)
(0.824239 0.23859 0)
(0.820209 0.242204 0)
(0.777985 0.234243 1.24528e-22)
(0.702039 0.215459 -9.95291e-23)
(0.599103 0.187389 -1.9913e-22)
(0.477054 0.15207 -2.12499e-22)
(0.343691 0.111685 1.95338e-22)
(0.205687 0.0681627 0)
(0.0678295 0.0229672 -7.06496e-23)
(0.323585 0.0834313 -4.97201e-23)
(0.20329 0.0515012 -8.51674e-23)
(0.203965 0.0516784 -8.25495e-23)
(0.121679 0.0303888 1.00695e-22)
(0.122135 0.0304979 -8.52648e-23)
(0.0591024 0.0146217 0)
(0.0591704 0.0146512 -2.70793e-23)
(0.0593597 0.0146867 2.82405e-23)
(0.0592741 0.0146703 2.78334e-23)
(0.0191108 0.00469419 -2.25614e-25)
(0.0191264 0.00470527 -2.12348e-23)
(0.019199 0.00471703 -2.63595e-25)
(0.0191491 0.00470933 2.15445e-23)
(0.473087 0.125205 1.94028e-22)
(0.604532 0.163916 -1.5519e-22)
(0.710307 0.197038 -1.42347e-22)
(0.783451 0.222081 1.33731e-22)
(0.819064 0.237029 1.27365e-22)
(0.815258 0.240682 9.01205e-25)
(0.773446 0.232822 -1.11478e-22)
(0.69806 0.214187 0)
(0.595778 0.186305 1.86875e-22)
(0.47445 0.151207 -1.65639e-22)
(0.341817 0.111055 -1.5676e-25)
(0.204557 0.0677796 0)
(0.0674388 0.0228403 6.63893e-23)
(0.321152 0.0828079 8.311e-25)
(0.201792 0.0511288 6.84188e-24)
(0.202445 0.0513032 7.29927e-23)
(0.120771 0.0301692 1.68308e-23)
(0.121212 0.0302821 9.36147e-23)
(0.0586949 0.0145287 -2.43451e-23)
(0.0587681 0.0145598 -2.39807e-23)
(0.0589641 0.0145985 8.16752e-25)
(0.0588769 0.0145801 -1.0033e-24)
(0.0189962 0.00466657 1.85333e-23)
(0.0190156 0.00467834 1.95436e-25)
(0.0190779 0.00468636 -2.03974e-23)
(0.0190354 0.00468042 -2.86336e-25)
(0.469595 0.12426 1.77677e-22)
(0.600242 0.162709 1.57905e-22)
(0.705469 0.195638 -1.4305e-22)
(0.778341 0.220569 -1.31901e-22)
(0.813943 0.23548 -3.56551e-24)
(0.810364 0.239173 1.13227e-22)
(0.76898 0.231413 0)
(0.69417 0.212932 0)
(0.592551 0.185242 -2.01668e-22)
(0.471896 0.150352 0)
(0.339971 0.11043 1.56663e-25)
(0.203433 0.0673996 -1.56176e-22)
(0.06704 0.022705 -6.75351e-23)
(0.318804 0.0821969 3.84826e-23)
(0.200333 0.0507612 -6.11689e-23)
(0.200964 0.050931 6.44025e-23)
(0.11989 0.0299535 6.4763e-23)
(0.120328 0.0300652 -5.23305e-23)
(0.0582764 0.0144262 0)
(0.0583494 0.0144564 -4.28491e-23)
(0.0585504 0.0145008 0)
(0.0584589 0.0144803 -1.01586e-24)
(0.0188673 0.00463598 1.24927e-25)
(0.0188912 0.00464842 1.7258e-23)
(0.0189604 0.00465856 3.59333e-23)
(0.0189158 0.0046517 -2.83931e-25)
(0.466213 0.123341 2.82758e-25)
(0.596043 0.161529 -1.28595e-22)
(0.700714 0.194263 1.20919e-22)
(0.773279 0.219068 -1.2254e-22)
(0.808864 0.233941 -1.13448e-22)
(0.805536 0.237673 -1.0525e-22)
(0.764602 0.23002 1.91102e-25)
(0.690368 0.211694 1.83526e-22)
(0.589394 0.184195 0)
(0.469422 0.149521 0)
(0.338184 0.109825 1.2678e-22)
(0.202314 0.0670189 0)
(0.066653 0.0225743 -6.71371e-26)
(0.316519 0.0815993 -3.22825e-23)
(0.198906 0.0503945 -5.37215e-23)
(0.199529 0.050565 -6.23256e-23)
(0.119027 0.0297404 4.41506e-23)
(0.119457 0.0298491 -8.70493e-23)
(0.0578569 0.0143244 0)
(0.0579343 0.0143547 -1.83037e-23)
(0.0581344 0.0143988 -1.93684e-23)
(0.0580445 0.0143787 -1.98892e-23)
(0.0187319 0.00460239 1.42718e-23)
(0.0187583 0.0046148 2.59273e-25)
(0.0188279 0.00462695 1.55462e-23)
(0.0187826 0.00461996 -3.09457e-23)
(0.462922 0.122446 2.24023e-23)
(0.591917 0.160368 -1.34437e-22)
(0.695993 0.192899 -2.2113e-25)
(0.768259 0.217581 0)
(0.803836 0.232411 1.05104e-22)
(0.800771 0.236182 0)
(0.760313 0.228641 9.45195e-23)
(0.686668 0.210479 -1.82863e-25)
(0.58632 0.183171 0)
(0.46699 0.148702 0)
(0.336395 0.10922 0)
(0.201216 0.0666454 -1.54718e-22)
(0.0662911 0.0224484 0)
(0.314289 0.0810123 1.16708e-22)
(0.197514 0.0500395 5.32674e-23)
(0.19813 0.0502061 0)
(0.118185 0.029527 3.90166e-23)
(0.118605 0.0296351 -1.18598e-23)
(0.0574492 0.0142234 0)
(0.0575201 0.0142539 1.67051e-23)
(0.0577171 0.014296 1.03976e-24)
(0.0576265 0.0142761 3.35412e-23)
(0.018596 0.00456942 1.23757e-23)
(0.0186234 0.00458173 2.63905e-25)
(0.018693 0.00459396 2.76722e-23)
(0.0186479 0.00458703 0)
(0.459679 0.12156 0)
(0.587841 0.159222 0)
(0.6913 0.191541 1.86355e-26)
(0.763243 0.216087 1.90165e-25)
(0.798835 0.230876 3.91411e-25)
(0.796077 0.234696 -9.1872e-23)
(0.756114 0.227277 0)
(0.683051 0.209281 0)
(0.583315 0.182163 8.89486e-23)
(0.464607 0.147897 0)
(0.334632 0.108619 1.25498e-22)
(0.200122 0.0662637 1.26959e-25)
(0.065896 0.0223134 -1.10887e-22)
(0.312112 0.0804373 0)
(0.196158 0.0496902 6.57045e-24)
(0.196759 0.0498539 0)
(0.117357 0.0293199 -9.33619e-24)
(0.117772 0.0294261 -2.0332e-23)
(0.0570429 0.0141224 0)
(0.0571148 0.0141515 8.0904e-25)
(0.0573099 0.0141951 1.53515e-23)
(0.0572218 0.0141744 1.39801e-23)
(0.0184664 0.00453734 0)
(0.0184908 0.00455025 0)
(0.0185575 0.00456079 2.40259e-23)
(0.0185109 0.0045541 -2.34048e-23)
(0.456486 0.120689 -1.0033e-22)
(0.583765 0.158073 0)
(0.686596 0.190177 9.23849e-23)
(0.758229 0.214587 -1.9009e-25)
(0.793867 0.229334 0)
(0.79145 0.233212 0)
(0.752002 0.225925 0)
(0.679521 0.208104 -8.07933e-23)
(0.580375 0.181174 0)
(0.462224 0.147088 0)
(0.332886 0.108017 0)
(0.199014 0.0658793 1.03182e-22)
(0.0654822 0.0221774 -2.12675e-22)
(0.309944 0.0798637 1.15938e-22)
(0.194823 0.0493474 3.39489e-23)
(0.195421 0.0495087 1.502e-25)
(0.116551 0.0291163 2.9587e-23)
(0.116956 0.0292197 -8.46924e-24)
(0.0566427 0.0140249 0)
(0.0567164 0.0140509 1.22715e-23)
(0.0569045 0.0140947 8.82521e-25)
(0.0568331 0.0140785 9.76671e-25)
(0.0183334 0.00450477 0)
(0.0183591 0.00451711 2.53387e-25)
(0.0184269 0.00452905 0)
(0.0183831 0.00452182 -2.77382e-25)
(0.453289 0.119815 -5.79875e-25)
(0.579669 0.156923 -1.02554e-22)
(0.681844 0.188799 0)
(0.753177 0.21306 0)
(0.788912 0.227776 3.00396e-25)
(0.786885 0.231729 0)
(0.747969 0.22459 0)
(0.67605 0.206942 1.59373e-25)
(0.577452 0.180187 -8.48579e-23)
(0.45987 0.146283 0)
(0.331098 0.107402 1.70888e-22)
(0.197887 0.0654928 1.12674e-22)
(0.0650684 0.0220363 1.03934e-22)
(0.307811 0.0792987 -1.93305e-23)
(0.19351 0.0490106 2.83973e-23)
(0.194102 0.0491697 -3.1115e-23)
(0.115759 0.0289171 -3.19396e-23)
(0.11616 0.0290181 -1.42734e-23)
(0.056258 0.0139292 0)
(0.0563294 0.0139541 1.03406e-23)
(0.0565115 0.0139964 0)
(0.0564441 0.013981 9.71826e-25)
(0.0182014 0.00447381 0)
(0.0182404 0.00448693 -8.03091e-24)
(0.0182941 0.00449702 2.96054e-25)
(0.0182539 0.00449016 8.71254e-24)
(0.450069 0.118937 3.7202e-25)
(0.575507 0.155751 0)
(0.676984 0.187376 5.72184e-25)
(0.748063 0.211492 0)
(0.783956 0.226191 -6.82894e-23)
(0.782374 0.230248 7.20743e-23)
(0.744002 0.223271 -1.53035e-25)
(0.672623 0.205794 7.71686e-23)
(0.574537 0.179199 -3.17491e-25)
(0.457495 0.14547 -1.446e-22)
(0.329312 0.106784 0)
(0.19672 0.0650839 0)
(0.0646496 0.021895 -2.65994e-22)
(0.305672 0.0787288 -1.62849e-23)
(0.19221 0.0486714 -1.06779e-25)
(0.192796 0.0488315 5.7476e-23)
(0.11498 0.028723 -3.20858e-23)
(0.115375 0.0288201 1.76145e-23)
(0.0558765 0.0138348 0)
(0.0559474 0.013859 0)
(0.0561274 0.0139 9.12482e-25)
(0.056059 0.013885 9.53279e-25)
(0.0180794 0.00444389 6.28124e-24)
(0.0181169 0.00445654 5.33701e-26)
(0.0181689 0.00446589 7.18483e-24)
(0.0181298 0.00445911 1.42441e-23)
(0.446776 0.118036 0)
(0.571181 0.154532 0)
(0.671961 0.185889 -6.19481e-23)
(0.742841 0.209861 1.28807e-22)
(0.778989 0.224581 -7.22659e-23)
(0.777908 0.228778 -6.96668e-23)
(0.740079 0.221969 -1.46709e-25)
(0.669202 0.204645 8.0094e-23)
(0.571614 0.178205 -8.31068e-23)
(0.455097 0.14464 0)
(0.32748 0.106142 0)
(0.195548 0.0646724 1.36503e-22)
(0.0642274 0.0217496 1.36834e-22)
(0.303481 0.0781452 0)
(0.190934 0.0483361 -1.74633e-23)
(0.191525 0.0485001 2.63862e-23)
(0.114221 0.0285292 -4.07355e-24)
(0.114609 0.0286268 -2.8941e-23)
(0.0555073 0.0137446 0)
(0.0555738 0.0137673 6.89976e-24)
(0.055752 0.0138069 7.59889e-24)
(0.0556846 0.0137914 7.41209e-24)
(0.017955 0.00441353 5.00065e-24)
(0.0179929 0.00442597 0)
(0.0180452 0.0044352 1.19685e-23)
(0.0180044 0.00442832 5.99174e-24)
(0.443331 0.117102 -5.63673e-23)
(0.566597 0.153234 6.83965e-23)
(0.666685 0.184292 -6.26208e-23)
(0.737472 0.20815 0)
(0.774016 0.222964 6.99764e-23)
(0.77348 0.227326 0)
(0.736177 0.220676 -1.49818e-22)
(0.665784 0.203494 7.51121e-23)
(0.568666 0.177192 -8.32546e-23)
(0.452654 0.143789 0)
(0.325614 0.105483 0)
(0.194349 0.0642462 2.01891e-22)
(0.0637733 0.0215975 2.69071e-23)
(0.301216 0.077544 5.47372e-23)
(0.189643 0.0479999 1.25062e-23)
(0.190252 0.0481674 0)
(0.113472 0.028338 1.08663e-23)
(0.113848 0.0284319 -6.86952e-24)
(0.0551406 0.0136517 0)
(0.0552106 0.0136734 5.24367e-24)
(0.0553807 0.013716 6.01843e-24)
(0.0553155 0.0137023 -5.08104e-24)
(0.0178386 0.00438499 3.85341e-24)
(0.0178723 0.00439688 3.37764e-26)
(0.017925 0.00440587 4.62643e-24)
(0.0178841 0.00439834 4.41358e-24)
(0.43958 0.116087 7.21066e-25)
(0.56157 0.151781 -3.88731e-23)
(0.661034 0.182538 0)
(0.731978 0.20639 4.55719e-23)
(0.769055 0.221364 -1.27567e-25)
(0.769091 0.225899 1.39765e-22)
(0.732286 0.219385 5.85449e-25)
(0.662336 0.202324 1.52837e-22)
(0.56568 0.17616 0)
(0.450159 0.142912 -3.43395e-25)
(0.323705 0.104806 -1.63194e-22)
(0.193109 0.0638078 4.90373e-23)
(0.0632944 0.0214365 2.07634e-22)
(0.298727 0.076888 2.28713e-24)
(0.188343 0.0476559 0)
(0.188954 0.0478264 2.80462e-23)
(0.112734 0.0281498 -1.15343e-23)
(0.113105 0.0282416 2.22525e-24)
(0.0547833 0.0135638 3.51261e-24)
(0.0548556 0.0135849 3.7242e-24)
(0.0550189 0.0136241 9.68759e-25)
(0.0549572 0.0136114 4.34577e-24)
(0.0177173 0.00435344 2.66494e-24)
(0.0177542 0.0043649 0)
(0.017801 0.0043771 3.37649e-24)
(0.0177713 0.00437383 2.09569e-25)
(0.435262 0.114917 4.43727e-23)
(0.555897 0.150095 -1.72321e-25)
(0.655023 0.180639 -4.89673e-23)
(0.726425 0.204635 4.74239e-23)
(0.764154 0.219812 -1.27638e-22)
(0.764748 0.224488 0)
(0.728389 0.218083 -7.16492e-23)
(0.658857 0.201133 0)
(0.562631 0.175096 0)
(0.447623 0.142013 3.43316e-25)
(0.321759 0.10411 -3.87888e-22)
(0.191819 0.063349 -1.92669e-22)
(0.0628073 0.0212706 -2.11075e-22)
(0.295746 0.0761318 0)
(0.186903 0.0472807 8.29354e-24)
(0.187628 0.0474785 -1.19895e-23)
(0.111984 0.0279569 -1.04095e-24)
(0.112372 0.0280533 -9.37901e-24)
(0.0544435 0.0134775 1.99796e-24)
(0.0545098 0.0134989 -2.28951e-24)
(0.054669 0.0135375 0)
(0.0546094 0.0135229 -2.86374e-24)
(0.0176007 0.00432569 1.56265e-24)
(0.0176388 0.00433649 0)
(0.0176822 0.00434744 4.89411e-24)
(0.0176544 0.00434469 -2.40723e-24)
(0.429982 0.11345 0)
(0.549358 0.148068 1.71836e-25)
(0.648775 0.178707 -5.13327e-23)
(0.720976 0.20297 6.26039e-23)
(0.759371 0.218303 -9.61892e-25)
(0.760445 0.22308 0)
(0.72448 0.216765 -1.09265e-24)
(0.655332 0.199917 5.98127e-25)
(0.559541 0.174007 0)
(0.445041 0.14109 3.70628e-22)
(0.319777 0.103395 3.99735e-25)
(0.190481 0.0628674 4.46264e-25)
(0.0623086 0.0211032 2.41211e-23)
(0.291724 0.0750956 2.86678e-24)
(0.185082 0.0468399 6.69867e-27)
(0.186072 0.047091 -6.69383e-27)
(0.111193 0.0277541 -5.65226e-25)
(0.111628 0.0278584 1.83419e-25)
(0.0541042 0.0133921 9.34165e-25)
(0.0541751 0.0134143 7.71352e-25)
(0.0543282 0.0134513 -1.57756e-24)
(0.0542714 0.0134381 0)
(0.0174957 0.00429884 0)
(0.017528 0.00430975 8.32315e-25)
(0.0175713 0.00432094 -1.29163e-24)
(0.0175436 0.00431662 -1.25439e-24)
(0.422992 0.111388 2.80493e-23)
(0.542184 0.14588 0)
(0.6427 0.176938 3.65881e-25)
(0.71578 0.201392 0)
(0.754722 0.21682 8.9307e-25)
(0.756177 0.221669 0)
(0.720551 0.215429 5.38945e-25)
(0.65177 0.198674 -5.98035e-25)
(0.556411 0.172892 2.76395e-24)
(0.442432 0.140143 3.78984e-25)
(0.317719 0.102645 0)
(0.189135 0.0623863 -2.4858e-22)
(0.0617963 0.0209286 2.29235e-23)
(0.284689 0.0732423 -3.25831e-23)
(0.18198 0.0461132 -4.69794e-24)
(0.18382 0.0465864 6.20893e-26)
(0.110239 0.0275243 -1.82086e-24)
(0.110792 0.0276454 1.34701e-24)
(0.0537698 0.0133096 0)
(0.0538416 0.0133313 7.30206e-25)
(0.0539941 0.0133659 -1.16391e-25)
(0.0539386 0.0133518 -1.19063e-25)
(0.0173861 0.00427218 -9.16976e-25)
(0.0174222 0.00428364 -2.05723e-25)
(0.0174617 0.00429334 2.08917e-25)
(0.0174359 0.00429048 -2.32778e-25)
(0.41431 0.108811 -4.42692e-23)
(0.535324 0.144004 0)
(0.637153 0.175329 6.87816e-25)
(0.710877 0.199873 -4.22465e-23)
(0.750192 0.215358 -4.26837e-25)
(0.751938 0.220256 0)
(0.716609 0.214074 0)
(0.648171 0.197405 -2.30539e-22)
(0.553234 0.171744 -1.77305e-22)
(0.439752 0.139163 4.30071e-25)
(0.315644 0.101884 0)
(0.187764 0.0618844 -2.82682e-22)
(0.0612676 0.0207488 3.50808e-22)
(0.272485 0.0699143 2.19544e-23)
(0.17425 0.0440487 1.35104e-24)
(0.179141 0.0455626 6.44433e-24)
(0.108542 0.0271644 0)
(0.109593 0.0273708 -2.34694e-24)
(0.0534087 0.0132204 3.84927e-24)
(0.0534974 0.0132455 2.33062e-24)
(0.0536517 0.0132784 0)
(0.0536008 0.013264 8.41518e-25)
(0.0172844 0.00424735 -1.77459e-24)
(0.0173177 0.00425804 -1.32254e-24)
(0.0173559 0.0042666 -8.71902e-25)
(0.0173298 0.00426317 0)
(0.406345 0.106748 -5.95867e-25)
(0.529561 0.142409 -3.81377e-23)
(0.632182 0.173833 1.37949e-23)
(0.706246 0.198416 -5.90643e-25)
(0.745774 0.213918 0)
(0.747732 0.218837 0)
(0.712658 0.212701 6.92854e-23)
(0.644554 0.196112 1.61042e-22)
(0.55002 0.170574 3.8013e-25)
(0.437052 0.138159 -4.29979e-25)
(0.313507 0.101089 -2.8397e-22)
(0.186367 0.0613728 -3.23634e-22)
(0.060723 0.0205589 3.9911e-22)
(0.262599 0.0673768 6.90929e-25)
(0.155814 0.0396601 -1.42626e-23)
(0.165247 0.0413733 8.58125e-23)
(0.103408 0.0259452 -1.01666e-24)
(0.106914 0.0268382 -5.52482e-24)
(0.0528108 0.0130918 0)
(0.0530316 0.0131377 -4.76389e-24)
(0.0532747 0.0131897 -9.49602e-25)
(0.0531714 0.0131595 -4.6277e-24)
(0.0171751 0.00422089 -5.96443e-24)
(0.0172158 0.00423209 -2.55193e-24)
(0.0172536 0.00424078 0)
(0.0172271 0.00423715 1.53297e-25)
(0.400616 0.105156 1.72026e-23)
(0.524793 0.140996 3.45955e-23)
(0.62765 0.172439 0)
(0.701823 0.197011 5.91512e-25)
(0.741451 0.212493 -3.48865e-23)
(0.743562 0.217415 -3.98771e-25)
(0.708707 0.211309 2.53994e-25)
(0.64091 0.194792 0)
(0.54678 0.16937 -3.79977e-25)
(0.434293 0.137123 4.83415e-22)
(0.311379 0.100287 2.858e-25)
(0.184918 0.0608285 -3.6684e-22)
(0.0601372 0.0203665 0)
(0.257733 0.0657747 3.43232e-23)
(0.147504 0.037143 -6.71583e-24)
(0.150033 0.0379726 -3.15565e-26)
(0.077675 0.020095 1.37722e-23)
(0.0919425 0.0225661 -3.57775e-23)
(0.0491377 0.0119889 -7.45069e-25)
(0.0511485 0.0128549 -4.22517e-26)
(0.0525358 0.0130508 3.79104e-26)
(0.052034 0.0129591 6.30781e-24)
(0.0170146 0.00418091 0)
(0.0170881 0.00419767 -4.39082e-25)
(0.0171504 0.00421682 2.9279e-24)
(0.0171054 0.00420476 -1.84123e-25)
(0.396511 0.103934 1.2595e-24)
(0.520695 0.13976 3.20493e-24)
(0.623471 0.171148 -2.54429e-25)
(0.697584 0.195652 1.62296e-23)
(0.737227 0.211086 5.88378e-25)
(0.739429 0.215985 3.98953e-25)
(0.704765 0.209897 -5.07473e-25)
(0.637247 0.193442 0)
(0.543517 0.168141 -2.13736e-22)
(0.431513 0.13606 2.74076e-25)
(0.309166 0.0994429 -3.41803e-22)
(0.183402 0.06027 0)
(0.059527 0.0201621 -1.01549e-21)
(0.255025 0.0649754 6.05042e-24)
(0.145207 0.0363226 -3.14059e-24)
(0.146042 0.0365692 1.42015e-23)
(0.0715823 0.0177319 6.52271e-24)
(0.0727133 0.0182849 -1.67673e-25)
(0.0183882 0.00494288 -2.17743e-24)
(0.02058 0.00508279 2.37444e-24)
(0.0447831 0.0102265 -1.03249e-24)
(0.0301647 0.00506264 0)
(0.0157557 0.00401555 3.01443e-24)
(0.0164726 0.00411884 7.24272e-26)
(0.0169351 0.00416617 4.61152e-24)
(0.0167715 0.00414061 3.68161e-25)
(0.393195 0.10297 -3.60959e-24)
(0.51702 0.138662 6.09798e-24)
(0.619557 0.169933 1.79885e-23)
(0.693505 0.194329 0)
(0.733085 0.209684 -2.76044e-25)
(0.735336 0.214544 0)
(0.700831 0.208464 5.58722e-23)
(0.633582 0.192067 0)
(0.54023 0.166877 0)
(0.428697 0.134969 3.14843e-24)
(0.306918 0.0985781 0)
(0.181848 0.0596914 9.8022e-22)
(0.0589158 0.0199516 -5.70374e-22)
(0.253034 0.0645023 1.14911e-23)
(0.144093 0.0361022 1.18588e-25)
(0.144538 0.0361865 -1.232e-23)
(0.0706684 0.0174504 6.70338e-26)
(0.071016 0.017549 -1.33633e-23)
(0.0167022 0.00410762 4.73649e-24)
(0.0167729 0.00414209 5.37322e-24)
(0.0172551 0.00435706 -2.78999e-24)
(0.0168341 0.0042086 -3.35434e-24)
(0.0146723 0.00369492 -2.52186e-26)
(0.00830253 0.00128425 -7.21432e-23)
(0.390376 0.102171 -6.76589e-24)
(0.513697 0.137666 1.91802e-23)
(0.615853 0.168768 0)
(0.689562 0.193031 0)
(0.729025 0.208287 -1.83006e-23)
(0.731284 0.213093 -5.40579e-23)
(0.696907 0.207006 2.5913e-25)
(0.629909 0.19066 0)
(0.536916 0.165581 2.50543e-22)
(0.425819 0.133836 -3.10872e-22)
(0.304609 0.0976796 -4.08983e-22)
(0.180248 0.0590855 0)
(0.0582514 0.01973 -6.48787e-22)
(0.251331 0.0640982 -1.45306e-23)
(0.143229 0.0359368 0)
(0.14359 0.036015 -1.80306e-23)
(0.0702553 0.0173778 0)
(0.070438 0.0174172 -5.02043e-24)
(0.0166382 0.00408607 -4.81061e-24)
(0.0166459 0.00408823 -5.11751e-24)
(0.0166806 0.00410146 0)
(0.0166673 0.00409768 4.85193e-24)
(0.387866 0.10146 -1.76682e-23)
(0.510609 0.136735 2.45514e-25)
(0.612327 0.167645 -1.34806e-23)
(0.685735 0.19175 2.05909e-23)
(0.72504 0.20689 -1.26411e-23)
(0.727274 0.211624 -1.64085e-25)
(0.693002 0.205522 -5.48547e-23)
(0.626238 0.189221 0)
(0.533556 0.164243 2.73952e-23)
(0.422905 0.132668 0)
(0.302226 0.0967416 0)
(0.178589 0.0584611 0)
(0.057573 0.0195063 -7.3895e-22)
(0.249836 0.0637208 0)
(0.142436 0.0357523 0)
(0.142773 0.0358393 2.28791e-23)
(0.0698958 0.0173039 -6.88369e-24)
(0.0700771 0.0173513 0)
(0.0165886 0.00407745 0)
(0.0165905 0.00407861 -5.72849e-24)
(0.0166175 0.00408502 1.0197e-23)
(0.0166168 0.00408405 -4.07307e-26)
(0.385589 0.100811 -2.6965e-25)
(0.507692 0.135844 1.49878e-23)
(0.608934 0.166547 2.07467e-23)
(0.682007 0.190477 1.31808e-23)
(0.721125 0.205484 0)
(0.723307 0.210136 8.08803e-23)
(0.689119 0.20401 -5.48267e-23)
(0.622547 0.187745 3.11055e-22)
(0.530175 0.162867 2.69186e-25)
(0.419952 0.131467 -3.74531e-22)
(0.299799 0.0957759 0)
(0.176889 0.0578176 0)
(0.0568759 0.0192748 8.49572e-22)
(0.248465 0.0633612 3.05476e-25)
(0.141684 0.0355642 0)
(0.141997 0.0356493 0)
(0.0695334 0.0172186 -7.87102e-24)
(0.0697152 0.0172685 1.0141e-25)
(0.0165116 0.00405689 -2.77891e-25)
(0.0165232 0.0040622 0)
(0.0165584 0.00407362 6.18775e-24)
(0.0165525 0.00406944 6.45666e-24)
(0.383438 0.100191 4.55525e-25)
(0.504912 0.134983 -2.5174e-23)
(0.605665 0.165469 0)
(0.678383 0.18921 1.63904e-26)
(0.717277 0.204067 -2.78765e-23)
(0.719382 0.208626 5.32778e-23)
(0.685247 0.202465 -1.39078e-22)
(0.618846 0.18623 -9.46664e-23)
(0.526785 0.161457 3.28199e-22)
(0.416942 0.13022 0)
(0.297348 0.0947801 0)
(0.175103 0.0571339 -7.79177e-22)
(0.0561346 0.0190412 9.43712e-22)
(0.247164 0.0630118 -1.25951e-25)
(0.140971 0.0353804 1.38366e-25)
(0.141267 0.0354652 -1.38408e-25)
(0.06919 0.0171354 0)
(0.0693574 0.0171797 0)
(0.0164303 0.0040379 0)
(0.0164424 0.00404295 7.9349e-24)
(0.0164789 0.0040529 7.46561e-24)
(0.0164738 0.00405017 7.71342e-24)
(0.381408 0.0995987 -4.55319e-25)
(0.502264 0.134149 0)
(0.602501 0.1644 4.19169e-23)
(0.674845 0.187938 2.59312e-23)
(0.713502 0.202637 3.245e-26)
(0.7155 0.207088 5.388e-23)
(0.681393 0.200885 8.88851e-23)
(0.615156 0.184673 0)
(0.523353 0.159994 0)
(0.4139 0.128924 -4.54854e-22)
(0.294762 0.0937223 0)
(0.173239 0.0564447 0)
(0.0553489 0.0187609 1.07663e-21)
(0.245925 0.0626722 2.7295e-26)
(0.140279 0.0352018 -1.58996e-25)
(0.140577 0.0352884 1.5905e-25)
(0.0688469 0.0170509 0)
(0.0690202 0.0170962 0)
(0.0163605 0.00401997 0)
(0.0163623 0.00402367 -9.27674e-24)
(0.0164001 0.00403301 -8.69274e-24)
(0.0163921 0.00403018 8.94426e-24)
(0.379472 0.0990247 -8.64863e-23)
(0.499715 0.133326 -1.15408e-22)
(0.599445 0.163334 -2.80367e-23)
(0.671396 0.186657 0)
(0.709787 0.201185 1.45592e-26)
(0.711659 0.205521 0)
(0.677554 0.199262 0)
(0.611446 0.183067 0)
(0.519866 0.158471 3.98741e-22)
(0.410756 0.127573 0)
(0.292097 0.0926277 0)
(0.171271 0.055736 -9.87738e-22)
(0.0547218 0.018331 1.2221e-21)
(0.244743 0.0623481 1.0142e-22)
(0.139627 0.0350279 -1.69336e-25)
(0.139904 0.0351103 3.59955e-25)
(0.068514 0.0169678 0)
(0.0686811 0.0170149 0)
(0.0162767 0.00400134 1.07383e-23)
(0.0162909 0.00400595 -1.04223e-23)
(0.0163274 0.0040148 -9.80736e-24)
(0.0163207 0.00401185 9.97316e-24)
(0.377636 0.098472 8.03547e-23)
(0.497277 0.132513 -2.56837e-25)
(0.596485 0.162263 0)
(0.668026 0.185362 0)
(0.706136 0.19971 -1.72058e-23)
(0.707859 0.203919 -1.74587e-23)
(0.673732 0.197597 -6.17265e-23)
(0.607706 0.181407 0)
(0.516351 0.156901 -3.87857e-25)
(0.407523 0.126158 0)
(0.28937 0.0914964 0)
(0.169151 0.0548739 -1.12104e-21)
(0.0552203 0.017976 1.42335e-21)
(0.243618 0.0620487 2.36079e-25)
(0.138994 0.0348661 4.01773e-25)
(0.13925 0.0349392 -5.92292e-25)
(0.0681956 0.0168859 0)
(0.0683599 0.0169298 -1.21764e-23)
(0.0162027 0.00398181 1.1988e-23)
(0.0162127 0.00398716 -1.17119e-23)
(0.0162509 0.00399893 0)
(0.0162408 0.00399378 0)
(0.375885 0.0979326 1.16046e-22)
(0.494944 0.131699 9.75477e-23)
(0.593631 0.161186 0)
(0.664739 0.184054 1.79308e-23)
(0.702555 0.198212 1.7557e-23)
(0.704102 0.202279 4.43233e-23)
(0.669923 0.195883 0)
(0.603967 0.179692 0)
(0.512753 0.155258 4.1338e-22)
(0.404285 0.124686 0)
(0.286228 0.090235 0)
(0.169216 0.0537777 6.15891e-23)
(0.0492278 0.0151389 -5.95538e-23)
(0.242557 0.0617807 -1.3672e-22)
(0.138376 0.0347256 0)
(0.138636 0.0347882 5.77207e-23)
(0.0678921 0.0168107 0)