/*--------------------------------*- C++ -*----------------------------------*\
| =========                 |                                                 |
| \\      /  F ield         | OpenFOAM: The Open Source CFD Toolbox           |
|  \\    /   O peration     | Version:  v1912                                 |
|   \\  /    A nd           | Website:  www.openfoam.com                      |
|    \\/     M anipulation  |                                                 |
\*---------------------------------------------------------------------------*/
FoamFile
{
    version     2.0;
    format      ascii;
    class       volScalarField;
    location    "470";
    object      p;
}
// * * * * * * * * * * * * * * * * * * * * * * * * * * * * * * * * * * * * * //

dimensions      [0 2 -2 0 0 0 0];


internalField   nonuniform List<scalar> 
3753
(
-0.00659644
0.0226862
0.016467
0.0472889
0.0156668
0.0269517
0.0694367
0.0240549
0.0289666
0.0356001
0.0929988
0.0406292
0.033811
0.0362472
0.0250886
0.11689
0.0622381
0.0437845
0.0382594
0.0261614
0.0156315
0.139789
0.0862966
0.0592649
0.0430258
0.027047
0.0167169
0.00969534
0.161291
0.111342
0.0793165
0.0516476
0.0279888
0.0175728
0.0107404
0.00350324
0.18124
0.136654
0.102796
0.0643847
0.0294722
0.0180648
0.0117691
0.00450865
-0.00209914
0.199433
0.161802
0.128888
0.0809635
0.0317635
0.0182801
0.0126983
0.0054455
-0.00119513
-0.00636437
0.215607
0.186445
0.157175
0.101091
0.0347657
0.0183073
0.0135786
0.00622561
-0.000382615
-0.00557129
-0.00966063
0.229449
0.210223
0.187532
0.124732
0.0381185
0.0181697
0.0144318
0.00688958
0.000226538
-0.00483319
-0.00896729
-0.012238
0.240592
0.232681
0.219991
0.152134
0.0413093
0.0178022
0.015251
0.00744154
0.000655022
-0.00425496
-0.00830891
-0.0116379
-0.0141538
0.248623
0.253213
0.254626
0.183818
0.0437011
0.0170729
0.0159885
0.00786939
0.000903928
-0.00382404
-0.00777806
-0.0110628
-0.0136368
-0.0155553
0.253116
0.271007
0.291542
0.220443
0.0445604
0.0157888
0.0165563
0.00813804
0.000977816
-0.00355264
-0.00736355
-0.0105967
-0.0131315
-0.0151093
-0.0165485
0.253666
0.285005
0.330924
0.262339
0.0431995
0.0137221
0.0168251
0.00818748
0.000886041
-0.00345054
-0.00708433
-0.0102286
-0.0127121
-0.0146695
-0.0161653
-0.0171767
0.249991
0.293934
0.372509
0.310111
0.0384009
0.0108569
0.0165892
0.0079495
0.00063482
-0.00351653
-0.00696344
-0.00997451
-0.0123657
-0.0143057
-0.0157834
-0.0168468
-0.0175209
0.242397
0.295827
0.413586
0.369093
0.0264936
0.00757228
0.0156063
0.00735692
0.000236899
-0.00374603
-0.00701625
-0.00985748
-0.0121013
-0.0140075
-0.0154727
-0.0165103
-0.0172368
-0.0176672
0.231568
0.287444
0.446601
0.444556
0.00782116
0.00344645
0.0138799
0.00634055
-0.000265983
-0.00412644
-0.00725056
-0.00989629
-0.0119327
-0.0137865
-0.0152311
-0.0162303
-0.0169377
-0.0174201
-0.0176651
0.218318
0.273475
0.378188
0.378532
0.569644
0.627263
0.53495
0.0581749
0.408137
0.0358421
-0.00283561
-0.0321841
0.0117968
0.00491329
-0.000798211
-0.00462086
-0.00766144
-0.0101045
-0.0118661
-0.0136598
-0.0150737
-0.0160042
-0.0166797
-0.0171545
-0.0174489
-0.0175458
0.203503
0.253483
0.371878
0.353767
0.523012
0.610588
0.704885
0.558851
0.494633
0.627997
0.0918443
0.0963864
-0.0359571
-0.0181618
-0.00599184
0.00907716
-0.00851104
0.00338725
-0.00129303
-0.00515463
-0.0082185
-0.0104838
-0.0118964
-0.013638
-0.0150237
-0.0158479
-0.0164595
-0.0169221
-0.0172136
-0.0173561
-0.0173318
0.188074
0.230894
0.331272
0.30456
0.500617
0.474303
0.636548
0.636421
0.71971
0.648024
-0.0144676
-0.0366312
-0.00667727
-0.0378255
0.00387431
0.00220478
0.00329143
-0.0115483
-0.00174784
-0.00562785
-0.00886037
-0.011018
-0.0120013
-0.0137206
-0.015101
-0.015784
-0.0162889
-0.0167188
-0.017009
-0.0171462
-0.0171635
-0.017049
0.172979
0.208867
0.277407
0.243631
0.440381
0.396
0.627853
0.612403
0.567655
0.593501
0.73287
0.730482
-0.0400162
-0.0146518
-0.00981305
0.00199899
0.00382553
-0.00224683
-0.00140069
-0.000277473
0.00169107
-0.0126526
-0.0139568
-0.00599114
-0.00950034
-0.011679
-0.0121399
-0.0138906
-0.0153168
-0.0158308
-0.0161874
-0.0165535
-0.0168327
-0.0169646
-0.0169733
-0.0168997
-0.0167138
0.158848
0.185641
0.228829
0.352719
0.321787
0.538514
0.504935
0.435234
0.478035
0.722827
0.69941
0.627592
0.672341
-0.00242256
0.00181571
0.00499519
0.00395808
0.00256849
-0.00141367
-0.00641468
-0.00401367
0.00173002
-0.00511341
0.00139356
-0.00998713
-0.0124731
-0.0122609
-0.0141114
-0.0156678
-0.0159973
-0.0161725
-0.0164416
-0.0166934
-0.016812
-0.0168086
-0.0167262
-0.0165793
-0.0163498
0.146149
0.165017
0.169509
0.239556
0.180415
0.382041
0.330393
0.309619
0.579784
0.510902
0.476048
0.458476
0.00296732
0.00344395
0.00226643
-0.000244831
-0.00263184
-0.00599168
-0.0102002
-0.008173
-0.00387965
-0.00486299
0.00334978
-0.00761489
0.00103647
-0.0135128
-0.0123256
-0.0143449
-0.0161261
-0.0162796
-0.0162544
-0.0163964
-0.0166062
-0.0166993
-0.0166712
-0.0165726
-0.0164193
-0.0162286
-0.0159662
0.135081
0.14821
0.128591
0.0315826
0.0433439
0.0296354
-0.20719
0.412796
0.356843
-0.0332903
0.0380968
0.386991
0.0029404
0.0018999
0.00157428
-0.00288083
-0.00583074
-0.00706325
-0.00967895
-0.0147733
-0.0113939
-0.00809625
-0.0088124
-0.00403842
-0.00499865
0.00292629
-0.00819078
-0.0123596
-0.0145705
-0.0166256
-0.0166616
-0.0164331
-0.0164241
-0.0165836
-0.0166416
-0.0165722
-0.0164415
-0.0162755
-0.0160818
-0.0158552
-0.015565
0.125708
0.13429
0.0998276
0.0149536
-0.871765
-0.731164
-0.430756
-0.180535
-0.754494
-0.724583
0.140737
0.0734931
-0.00609466
-0.00729171
-0.00958211
-0.0106642
-0.0153335
-0.0125487
-0.01465
-0.011098
-0.0116234
-0.0082341
-0.00881909
-0.0146775
-0.0171507
-0.0170972
-0.016704
-0.0165194
-0.0166305
-0.0166525
-0.0165298
-0.0163446
-0.016149
-0.0159502
-0.0157203
-0.0154635
-0.0151511
0.118046
0.122643
0.0781773
0.00359328
-0.743911
-1.04143
-0.897797
-0.919955
-0.870471
-0.00984911
-0.0109164
-0.0117962
-0.0188286
-0.0131418
-0.014455
-0.0133244
-0.0139513
-0.0147312
-0.0113654
-0.0115873
-0.0181469
-0.0174925
-0.0170682
-0.0166682
-0.0167429
-0.0167387
-0.0165595
-0.0162992
-0.0160476
-0.0158354
-0.0156031
-0.0153391
-0.0150577
-0.0147241
0.112076
0.113006
0.0622613
0.00251768
-0.599684
-0.627255
-0.94859
-0.858178
-0.861163
-0.682441
-0.0115377
-0.0198779
-0.0136865
-0.0134048
-0.0143319
-0.0193729
-0.015303
-0.015663
-0.0135985
-0.0136974
-0.0178799
-0.0191686
-0.0175194
-0.0168579
-0.0169074
-0.0168951
-0.0166709
-0.0163221
-0.0159833
-0.0157452
-0.0155066
-0.0152323
-0.0149406
-0.0146389
-0.0142988
0.10775
0.105233
0.0511944
-0.000742895
-0.481398
-0.593302
-0.472856
-0.604793
-0.862593
-0.675704
-0.0142754
-0.0148506
-0.0179385
-0.0151107
-0.0152945
-0.0158009
-0.0191579
-0.0178958
-0.0182218
-0.0180295
-0.0184374
-0.0170848
-0.017109
-0.0171055
-0.016864
-0.0164266
-0.0159671
-0.0156907
-0.0154391
-0.0151481
-0.0148403
-0.0145303
-0.0142193
-0.0138698
0.105004
0.0992391
0.0438792
-0.00703968
-0.392575
-0.547154
-0.470948
-0.407631
-0.453958
-0.503966
-0.605037
-0.711775
-0.648454
-0.0184843
-0.0162824
-0.0194697
-0.0185104
-0.018969
-0.0188467
-0.017373
-0.0178693
-0.0185525
-0.0173397
-0.0173451
-0.0171283
-0.0166202
-0.0160049
-0.0156821
-0.0154118
-0.0150951
-0.0147626
-0.0144371
-0.0141147
-0.0137957
-0.013436
0.103776
0.0949676
0.0393867
-0.0135847
-0.322557
-0.494273
-0.459405
-0.407627
-0.40464
-0.366412
-0.45719
-0.498586
-0.576382
-0.627868
-0.0191696
-0.0184702
-0.0188004
-0.0196
-0.0187745
-0.0195099
-0.0176871
-0.0176232
-0.0177564
-0.0179192
-0.0185202
-0.0186591
-0.0175841
-0.0174401
-0.0169057
-0.0160956
-0.0157242
-0.0154357
-0.015087
-0.0147191
-0.0143662
-0.0140245
-0.0136964
-0.013368
-0.0130179
0.104006
0.0923759
0.0370964
-0.0190814
-0.268667
-0.441411
-0.439014
-0.403266
-0.36692
-0.364568
-0.391349
-0.415924
-0.331773
-0.445119
-0.466648
-0.509954
-0.482066
-0.572826
-0.619603
-0.0192769
-0.0190246
-0.0197655
-0.0188689
-0.0210592
-0.0182376
-0.0178817
-0.0178727
-0.0178272
-0.0179804
-0.0179961
-0.0179727
-0.0180823
-0.0173643
-0.0188252
-0.0177501
-0.0172907
-0.0162299
-0.0158178
-0.0155151
-0.0151328
-0.0147233
-0.0143286
-0.013955
-0.0136085
-0.0132743
-0.0129534
-0.0126135
0.105636
0.091431
0.0366179
-0.0231037
-0.228624
-0.394038
-0.414833
-0.39439
-0.365861
-0.332656
-0.330349
-0.353766
-0.372094
-0.386923
-0.396822
-0.406332
-0.420201
-0.444382
-0.303826
-0.466295
-0.502136
-0.48196
-0.0192356
-0.0189938
-0.0225176
-0.0171964
-0.0180919
-0.0181029
-0.0180649
-0.0180269
-0.0179982
-0.018136
-0.0181702
-0.018147
-0.0181909
-0.018144
-0.018048
-0.0175375
-0.0191105
-0.0177937
-0.016397
-0.0159609
-0.0156498
-0.0152354
-0.0147819
-0.0143385
-0.0139183
-0.0135359
-0.0131885
-0.0128651
-0.012553
-0.0122058
0.108616
0.0921009
0.037704
-0.0254408
-0.199031
-0.354046
-0.390366
-0.382254
-0.362577
-0.332833
-0.304637
-0.302585
-0.321576
-0.336527
-0.348905
-0.357977
-0.365864
-0.374781
-0.385992
-0.442362
-0.280624
-0.461499
-0.0232051
-0.0182015
-0.0182253
-0.0181895
-0.0182282
-0.018215
-0.0181135
-0.0183759
-0.0182397
-0.018303
-0.0183144
-0.0182959
-0.0182379
-0.0182757
-0.0165958
-0.0161503
-0.0158327
-0.0153911
-0.0148983
-0.0144076
-0.0139284
-0.0134899
-0.0131164
-0.0127857
-0.012467
-0.0121481
-0.0118173
0.112893
0.0943634
0.0402131
-0.0260391
-0.177019
-0.321108
-0.367499
-0.368582
-0.356788
-0.33204
-0.305045
-0.281404
-0.279523
-0.295349
-0.307625
-0.320874
-0.330895
-0.339019
-0.349776
-0.357911
-0.364705
-0.371933
-0.260923
-0.0182676
-0.0183029
-0.0183284
-0.0183889
-0.0182869
-0.0183095
-0.016838
-0.0190485
-0.0182792
-0.0184636
-0.0184155
-0.0183929
-0.0183722
-0.0163817
-0.0160551
-0.0155911
-0.0150665
-0.0145409
-0.0139997
-0.0134848
-0.0130664
-0.012719
-0.0123915
-0.0120679
-0.0117625
-0.0114343
0.118414
0.098199
0.0440808
-0.0249564
-0.160611
-0.294428
-0.347074
-0.354907
-0.349203
-0.329911
-0.305052
-0.281949
-0.261652
-0.259865
-0.273309
-0.283826
-0.294909
-0.306101
-0.316959
-0.330301
-0.324231
-0.338399
-0.2441
-0.0184123
-0.0184591
-0.0184183
-0.0184957
-0.0181653
-0.0171898
-0.0166694
-0.0169915
-0.019919
-0.0184751
-0.0184067
-0.0185416
-0.0184977
-0.016309
-0.015823
-0.0152752
-0.014732
-0.0141409
-0.0135325
-0.0130468
-0.0126723
-0.0123319
-0.0119988
-0.0116866
-0.0113821
-0.0110594
0.125123
0.103591
0.049308
-0.0222547
-0.148449
-0.273277
-0.32936
-0.342163
-0.340906
-0.326517
-0.304512
-0.282327
-0.26225
-0.244753
-0.243176
-0.254155
-0.263543
-0.272879
-0.282531
-0.291386
-0.297397
-0.308295
-0.30261
-0.329844
-0.336482
-0.229606
-0.0185181
-0.0185772
-0.0182644
-0.0177465
-0.0170737
-0.0170363
-0.0165879
-0.0169078
-0.0171693
-0.0181526
-0.0214268
-0.0185777
-0.018538
-0.0160744
-0.0155091
-0.0149659
-0.0143529
-0.0136402
-0.0130669
-0.0126574
-0.0122959
-0.011946
-0.0116214
-0.0113072
-0.0110098
-0.0106934
0.132951
0.11053
0.0559571
-0.0179467
-0.13963
-0.257041
-0.31437
-0.330731
-0.332723
-0.322325
-0.303326
-0.282523
-0.262826
-0.245332
-0.230195
-0.241868
-0.228855
-0.254214
-0.26252
-0.270127
-0.274811
-0.284261
-0.27912
-0.291102
-0.296526
-0.301803
-0.216778
-0.0186169
-0.0174985
-0.017341
-0.0171193
-0.0172164
-0.0168559
-0.0163654
-0.016738
-0.017093
-0.0173339
-0.0173825
-0.0221941
-0.0157457
-0.0152167
-0.01463
-0.0138111
-0.0131313
-0.0126815
-0.0122932
-0.0119168
-0.0115704
-0.0112425
-0.0109377
-0.0106463
-0.0103353
0.141815
0.118999
0.0641339
-0.0119734
-0.133585
-0.245253
-0.302041
-0.320709
-0.325095
-0.317832
-0.301601
-0.282455
-0.263421
-0.245958
-0.230726
-0.217333
-0.227907
-0.237415
-0.245064
-0.216092
-0.25378
-0.264069
-0.259486
-0.270567
-0.274365
-0.283314
-0.278848
-0.205546
-0.0173514
-0.0172996
-0.0170003
-0.0165575
-0.0159828
-0.0169719
-0.0168987
-0.0171669
-0.0172584
-0.0154487
-0.014961
-0.0140445
-0.0132391
-0.0127487
-0.0123315
-0.0119211
-0.0115446
-0.0111966
-0.0108764
-0.0105774
-0.0102902
-0.00998774
0.151611
0.128978
0.0739884
-0.00415954
-0.130056
-0.237609
-0.29232
-0.312106
-0.318216
-0.313386
-0.299549
-0.282093
-0.263993
-0.246711
-0.231323
-0.217839
-0.20604
-0.215256
-0.223872
-0.230355
-0.235351
-0.238995
-0.242728
-0.246087
-0.204934
-0.251032
-0.255395
-0.259135
-0.263267
-0.269555
-0.195541
-0.0171285
-0.0170846
-0.0165224
-0.0163048
-0.0156406
-0.0161463
-0.0181225
-0.017263
-0.0169775
-0.0170719
-0.01531
-0.0143477
-0.0133821
-0.0128599
-0.0124163
-0.0119672
-0.0115546
-0.0111781
-0.0108339
-0.0105188
-0.0102221
-0.00994377
-0.00965351
0.162201
0.140441
0.0857393
0.00579618
-0.129089
-0.233955
-0.285169
-0.304923
-0.312168
-0.30919
-0.297363
-0.281488
-0.264469
-0.247602
-0.232097
-0.218415
-0.206496
-0.195996
-0.20417
-0.211571
-0.217535
-0.222224
-0.225096
-0.228003
-0.231244
-0.235429
-0.23873
-0.241995
-0.194984
-0.259121
-0.262343
-0.18667
-0.0167581
-0.016662
-0.0154427
-0.0165752
-0.016389
-0.0159206
-0.0155952
-0.015804
-0.0163181
-0.0162204
-0.0171881
-0.0147482
-0.0135474
-0.0130132
-0.0125473
-0.0120581
-0.0116063
-0.0111946
-0.0108168
-0.0104727
-0.0101604
-0.00987786
-0.00961289
-0.00932747
0.173407
0.153341
0.0996944
0.0182879
-0.131016
-0.234291
-0.280568
-0.299165
-0.306993
-0.305355
-0.295174
-0.280716
-0.264803
-0.248562
-0.233098
-0.219178
-0.207022
-0.196415
-0.187079
-0.194297
-0.201004
-0.206062
-0.211074
-0.215401
-0.218368
-0.222797
-0.224961
-0.227551
-0.230377
-0.186166
-0.178765
-0.016352
-0.0166814
-0.0164855
-0.0160812
-0.0160441
-0.0156482
-0.0152268
-0.015775
-0.0159454
-0.0158882
-0.0164009
-0.0163005
-0.0172684
-0.013728
-0.0132012
-0.0127216
-0.0121926
-0.0117015
-0.0112539
-0.0108374
-0.0104531
-0.010114
-0.00981843
-0.00954896
-0.00928638
-0.0090193
0.184997
0.167585
0.116242
0.0337682
-0.13646
-0.238778
-0.278505
-0.294844
-0.302723
-0.301951
-0.293063
-0.279847
-0.264987
-0.249495
-0.234284
-0.220206
-0.207738
-0.196897
-0.187455
-0.179134
-0.185542
-0.191412
-0.196018
-0.200792
-0.205338
-0.209479
-0.214715
-0.212365
-0.217514
-0.222162
-0.178316
-0.171705
-0.0167752
-0.0165576
-0.0161637
-0.016118
-0.0157458
-0.0157568
-0.0159269
-0.0139544
-0.0149759
-0.0157291
-0.0156896
-0.0160331
-0.0159546
-0.0164692
-0.0163668
-0.0134134
-0.0129327
-0.0123661
-0.0118374
-0.0113579
-0.0109055
-0.0104749
-0.0100915
-0.00976836
-0.00949124
-0.00922544
-0.00898057
-0.00871148
0.196667
0.183018
0.135889
0.0528429
-0.146442
-0.247725
-0.278982
-0.291975
-0.299385
-0.299027
-0.291087
-0.27893
-0.265038
-0.250334
-0.235552
-0.221487
-0.208734
-0.197556
-0.187887
-0.179472
-0.172035
-0.177753
-0.182997
-0.187055
-0.19107
-0.195344
-0.198854
-0.20229
-0.206051
-0.203594
-0.214759
-0.216845
-0.171299
-0.165358
-0.0162299
-0.0161796
-0.0158567
-0.0157901
-0.0168104
-0.0152732
-0.0144256
-0.0136518
-0.014092
-0.0151438
-0.0149245
-0.0157808
-0.0148809
-0.0160998
-0.0160192
-0.0131679
-0.0125716
-0.0120076
-0.0115001
-0.0110208
-0.0105443
-0.0101011
-0.00973637
-0.00944294
-0.00917062
-0.00892105
-0.00867428
-0.00841958
0.207996
0.199427
0.159369
0.0761159
-0.162435
-0.261637
-0.282004
-0.290583
-0.296999
-0.296618
-0.289287
-0.278004
-0.264982
-0.251046
-0.236797
-0.222927
-0.210023
-0.198493
-0.188483
-0.179853
-0.172334
-0.165663
-0.170755
-0.175301
-0.179141
-0.182751
-0.18652
-0.189686
-0.191929
-0.196015
-0.193808
-0.198523
-0.201834
-0.16498
-0.159642
-0.0159492
-0.0158613
-0.0177937
-0.0145406
-0.0146882
-0.0144885
-0.0139761
-0.0134106
-0.013784
-0.0143597
-0.0141719
-0.0151217
-0.0150784
-0.0159765
-0.0149956
-0.0128023
-0.0122062
-0.0116713
-0.0111771
-0.0106673
-0.0101586
-0.00973169
-0.00940695
-0.0091264
-0.00887056
-0.00861885
-0.00838333
-0.00812712
0.218416
0.216537
0.187808
0.103345
-0.186149
-0.281213
-0.287616
-0.290693
-0.295579
-0.294745
-0.287693
-0.2771
-0.264845
-0.251631
-0.23795
-0.224409
-0.211531
-0.199742
-0.189342
-0.180379
-0.172669
-0.165931
-0.159922
-0.170025
-0.164506
-0.174842
-0.178678
-0.18128
-0.183735
-0.187129
-0.185089
-0.189513
-0.191652
-0.195585
-0.193657
-0.159292
-0.154487
-0.0185396
-0.0147633
-0.0145808
-0.0141069
-0.0140266
-0.0136751
-0.0130492
-0.013505
-0.0139567
-0.0138386
-0.014437
-0.0142573
-0.0124292
-0.0118604
-0.0113601
-0.0108439
-0.0102709
-0.00976048
-0.00939431
-0.00910104
-0.0088329
-0.00857289
-0.00832638
-0.0080921
-0.00784754
0.2272
0.23386
0.222695
0.134385
-0.220033
-0.306949
-0.29596
-0.29232
-0.295132
-0.293411
-0.286329
-0.276242
-0.264652
-0.252101
-0.238982
-0.225838
-0.213137
-0.201249
-0.190516
-0.181151
-0.173128
-0.166221
-0.160163
-0.154742
-0.163936
-0.168217
-0.171108
-0.158855
-0.174689
-0.179257
-0.17749
-0.180954
-0.183904
-0.186746
-0.184812
-0.154169
-0.149776
-0.0141467
-0.0140764
-0.0137831
-0.0137315
-0.0133309
-0.0126725
-0.0131449
-0.0136697
-0.0135494
-0.0140175
-0.0139039
-0.0120652
-0.0115504
-0.011062
-0.0104419
-0.00982852
-0.00941084
-0.00909946
-0.00881395
-0.00854129
-0.00828104
-0.00804117
-0.00781467
-0.0075689
0.233555
0.250206
0.26518
0.176493
-0.269972
-0.338733
-0.307087
-0.295484
-0.295646
-0.292607
-0.285205
-0.275449
-0.264423
-0.252479
-0.239891
-0.227161
-0.214731
-0.202903
-0.191975
-0.182229
-0.173808
-0.166615
-0.160415
-0.154957
-0.150015
-0.158326
-0.162011
-0.164916
-0.167715
-0.168564
-0.169892
-0.171495
-0.153778
-0.173603
-0.175403
-0.176906
-0.178915
-0.180704
-0.183524
-0.149477
-0.145517
-0.0138234
-0.0137842
-0.0134551
-0.0133861
-0.0129535
-0.0122953
-0.0127724
-0.0133104
-0.0131884
-0.013736
-0.0136199
-0.0117362
-0.0112924
-0.0106757
-0.00993615
-0.00945788
-0.00912667
-0.00882165
-0.00853001
-0.00825348
-0.00800004
-0.00776239
-0.00753652
-0.0072963
0.236868
0.263391
0.312622
0.238593
-0.338248
-0.377253
-0.32038
-0.300196
-0.297065
-0.292307
-0.284327
-0.274735
-0.264176
-0.252786
-0.240692
-0.228363
-0.216242
-0.204586
-0.193618
-0.183603
-0.174778
-0.167205
-0.160752
-0.155174
-0.150213
-0.145736
-0.153319
-0.156605
-0.159187
-0.161138
-0.162574
-0.163815
-0.165137
-0.167638
-0.149103
-0.177
-0.178638
-0.145243
-0.141613
-0.0135037
-0.0134398
-0.0130841
-0.0130084
-0.0125689
-0.0119398
-0.0124042
-0.0129268
-0.0128168
-0.013376
-0.0132567
-0.0114746
-0.0109821
-0.0100785
-0.0095358
-0.00918461
-0.00886024
-0.00854781
-0.00825078
-0.0079721
-0.00772033
-0.00748688
-0.007266
-0.00703209
0.270522
0.354508
0.317749
0.384539
-0.264922
0.220709
-0.322055
-0.418461
-0.482942
-0.334438
-0.306149
-0.29927
-0.292466
-0.283698
-0.274109
-0.263922
-0.253042
-0.241403
-0.229448
-0.217639
-0.206213
-0.195329
-0.18519
-0.176042
-0.168061
-0.161256
-0.155457
-0.150406
-0.145915
-0.141819
-0.148642
-0.151724
-0.154165
-0.155728
-0.157063
-0.158211
-0.159523
-0.161113
-0.162493
-0.163615
-0.164584
-0.144906
-0.141355
-0.138058
-0.0131366
-0.0130614
-0.0126997
-0.012627
-0.0121957
-0.01158
-0.0120737
-0.0125488
-0.0124511
-0.0129901
-0.0128823
-0.0113714
-0.0102506
-0.00963943
-0.00927577
-0.00893331
-0.00859861
-0.00827836
-0.00797046
-0.0076948
-0.00744692
-0.00721797
-0.00700368
-0.00677052
0.376965
0.450687
0.506355
0.427291
0.378876
-0.203185
-0.222373
0.134928
-0.521799
-0.4659
-0.43713
-0.347765
-0.42487
-0.311983
-0.302039
-0.293
-0.283324
-0.273583
-0.263669
-0.25327
-0.242045
-0.23043
-0.21892
-0.207741
-0.197014
-0.186878
-0.177536
-0.169202
-0.162
-0.155882
-0.150647
-0.146082
-0.141984
-0.13825
-0.144509
-0.147178
-0.149322
-0.151083
-0.152173
-0.153081
-0.154684
-0.155522
-0.156945
-0.157994
-0.159174
-0.141034
-0.137815
-0.134802
-0.0127504
-0.0126777
-0.0123246
-0.0122613
-0.0118269
-0.0117712
-0.0116575
-0.0122014
-0.0121296
-0.0126105
-0.012513
-0.0104652
-0.00976401
-0.00940022
-0.0090366
-0.00868197
-0.0083431
-0.00800328
-0.00769201
-0.00742101
-0.00717701
-0.00695525
-0.00674333
0.53949
0.554474
0.503537
0.459961
0.568038
0.514772
0.122909
-0.453018
-0.16859
-0.547046
-0.439089
-0.529842
-0.372524
-0.315741
-0.348763
-0.425805
-0.304756
-0.293839
-0.283211
-0.273171
-0.263427
-0.253492
-0.242639
-0.231324
-0.220092
-0.209159
-0.198619
-0.188569
-0.179158
-0.170581
-0.16301
-0.156518
-0.151004
-0.146283
-0.142133
-0.138402
-0.134982
-0.140648
-0.143239
-0.145119
-0.146928
-0.148898
-0.150533
-0.152024
-0.152726
-0.154793
-0.137511
-0.134575
-0.131808
-0.0123753
-0.0123112
-0.0119929
-0.0119307
-0.0115039
-0.0107172
-0.012223
-0.0117924
-0.0117341
-0.0122558
-0.0121823
-0.00990969
-0.0095539
-0.00916568
-0.00879366
-0.00844616
-0.00807836
-0.00772341
-0.0074171
-0.00714959
-0.0069155
-0.00669819
0.642926
0.614261
0.673475
0.665127
0.376891
0.20471
-0.55175
-0.463815
-0.554819
-0.440662
-0.376352
-0.327022
-0.306424
-0.313755
-0.352042
-0.420567
-0.434515
-0.294861
-0.283402
-0.272901
-0.263206
-0.253741
-0.243209
-0.232145
-0.221167
-0.210471
-0.200127
-0.190201
-0.180809
-0.172106
-0.164258
-0.157398
-0.15154
-0.146575
-0.142302
-0.138533
-0.135123
-0.131977
-0.137146
-0.13941
-0.141236
-0.143138
-0.144785
-0.14624
-0.147324
-0.149249
-0.148194
-0.150634
-0.151887
-0.152592
-0.154593
-0.134297
-0.131596
-0.129042
-0.0120565
-0.0119935
-0.0115524
-0.0115157
-0.0110679
-0.01011
-0.0106619
-0.011167
-0.0131471
-0.0118656
-0.0118006
-0.00972748
-0.00931476
-0.00892551
-0.00858154
-0.00819836
-0.00779297
-0.00744266
-0.00714498
-0.00689036
-0.00666082
-0.465297
-0.445731
-0.387712
-0.371396
-0.328793
-0.310379
-0.29536
-0.304415
-0.314122
-0.347313
-0.359125
-0.424647
-0.436702
-0.284057
-0.272816
-0.263032
-0.254057
-0.243779
-0.23291
-0.22216
-0.211688
-0.201538
-0.191748
-0.18242
-0.17368
-0.165663
-0.158505
-0.152294
-0.147018
-0.14254
-0.138673
-0.135237
-0.132108
-0.129205
-0.133972
-0.13602
-0.137674
-0.139201
-0.140896
-0.142088
-0.143848
-0.14498
-0.143966
-0.131341
-0.128836
-0.126509
-0.0116902
-0.0116123
-0.0107024
-0.0109475
-0.0104712
-0.00992039
-0.0102529
-0.0108979
-0.0107778
-0.0111457
-0.0139848
-0.00947824
-0.00906657
-0.00873942
-0.00836371
-0.00790283
-0.00750274
-0.00716949
-0.00688405
-0.0066334
-0.38715
-0.372892
-0.334029
-0.325628
-0.311608
-0.298965
-0.285085
-0.291508
-0.30517
-0.310128
-0.32005
-0.348232
-0.358875
-0.273038
-0.262939
-0.254496
-0.244377
-0.233632
-0.223082
-0.212821
-0.202861
-0.19321
-0.183959
-0.175232
-0.167134
-0.159775
-0.15326
-0.14765
-0.142898
-0.138861
-0.13535
-0.132211
-0.12933
-0.126662
-0.131062
-0.132906
-0.134502
-0.135815
-0.1374
-0.138618
-0.139502
-0.141104
-0.140242
-0.141897
-0.143767
-0.128581
-0.126316
-0.124146
-0.010648
-0.0105055
-0.0101572
-0.00965978
-0.0100077
-0.010413
-0.0103023
-0.00919323
-0.00892023
-0.00855687
-0.00805456
-0.00759831
-0.00722684
-0.00690786
-0.00662791
-0.33347
-0.326361
-0.31428
-0.310023
-0.299626
-0.286056
-0.273699
-0.297727
-0.304198
-0.30706
-0.308412
-0.322321
-0.26296
-0.255122
-0.245024
-0.234328
-0.223941
-0.213876
-0.20411
-0.194593
-0.185418
-0.176723
-0.1686
-0.161124
-0.154386
-0.148473
-0.143415
-0.139142
-0.135496
-0.132306
-0.129426
-0.126779
-0.124295
-0.128248
-0.130125
-0.13153
-0.132724
-0.134321
-0.135228
-0.136041
-0.137628
-0.136802
-0.138523
-0.13937
-0.140925
-0.140163
-0.126084
-0.12396
-0.121957
-0.0102485
-0.0101869
-0.00989085
-0.00930502
-0.00973345
-0.0101285
-0.0100453
-0.00909773
-0.00876407
-0.00824161
-0.0077272
-0.00731623
-0.0069672
-0.00665123
-0.316744
-0.310155
-0.301131
-0.298805
-0.289965
-0.274831
-0.283871
-0.263048
-0.293333
-0.297472
-0.304555
-0.307279
-0.307324
-0.255993
-0.245738
-0.235008
-0.224747
-0.214853
-0.205291
-0.195909
-0.186804
-0.178142
-0.170017
-0.162481
-0.155598
-0.149449
-0.144098
-0.13955
-0.135707
-0.132414
-0.129504
-0.126864
-0.124408
-0.122101
-0.127794
-0.125825
-0.129552
-0.131323
-0.132205
-0.132948
-0.13434
-0.133943
-0.135088
-0.135902
-0.137465
-0.136705
-0.123734
-0.121778
-0.119923
-0.00998343
-0.00992512
-0.0095744
-0.00904241
-0.00939116
-0.00986067
-0.0097739
-0.00925042
-0.0084033
-0.00789023
-0.00743125
-0.00706141
-0.00670859
-0.316328
-0.310192
-0.301382
-0.299053
-0.297332
-0.291621
-0.288516
-0.278322
-0.263276
-0.27331
-0.286092
-0.28287
-0.257081
-0.296928
-0.304886
-0.307408
-0.246522
-0.235698
-0.225503
-0.215747
-0.206408
-0.197165
-0.188123
-0.17949
-0.171369
-0.163802
-0.15683
-0.150513
-0.144919
-0.140094
-0.136012
-0.132562
-0.12958
-0.126925
-0.124489
-0.122211
-0.120061
-0.125558
-0.126951
-0.128215
-0.123463
-0.129549
-0.131539
-0.130955
-0.132103
-0.132629
-0.134038
-0.134142
-0.121559
-0.119753
-0.118016
-0.00968898
-0.00961496
-0.00921888
-0.0105276
-0.00912499
-0.00809048
-0.00953292
-0.00943481
-0.00854273
-0.00961662
-0.00806754
-0.00757377
-0.00718071
-0.00680351
-0.301582
-0.299395
-0.296102
-0.279515
-0.277204
-0.265064
-0.258183
-0.263705
-0.275564
-0.272846
-0.24735
-0.297024
-0.236429
-0.226228
-0.216539
-0.207453
-0.198362
-0.189379
-0.180772
-0.172655
-0.165066
-0.158036
-0.151605
-0.145826
-0.140756
-0.136424
-0.132772
-0.129673
-0.126972
-0.124541
-0.122287
-0.120167
-0.11815
-0.123137
-0.124601
-0.125997
-0.126501
-0.127145
-0.127741
-0.12839
-0.121297
-0.129173
-0.12986
-0.130344
-0.131362
-0.13204
-0.132471
-0.134127
-0.119553
-0.117851
-0.116233
-0.00933912
-0.00926925
-0.00983536
-0.00817903
-0.00925022
-0.00923807
-0.00941106
-0.00920499
-0.00898315
-0.00822765
-0.00868058
-0.00774024
-0.00731416
-0.00692997
-0.269436
-0.262157
-0.260677
-0.248169
-0.256523
-0.266125
-0.263268
-0.237207
-0.226966
-0.217219
-0.208417
-0.199487
-0.190565
-0.181987
-0.173878
-0.166269
-0.159193
-0.152679
-0.146764
-0.141496
-0.136927
-0.133055
-0.129797
-0.127016
-0.124567
-0.122329
-0.12024
-0.118255
-0.116363
-0.120993
-0.122353
-0.123432
-0.124164
-0.124677
-0.125802
-0.125838
-0.119331
-0.13048
-0.131245
-0.117658
-0.116074
-0.114559
-0.00941665
-0.00889323
-0.00950067
-0.00919656
-0.00946504
-0.00849149
-0.00790651
-0.0083069
-0.00885107
-0.00745414
-0.00707471
-0.260795
-0.26152
-0.260009
-0.25122
-0.237985
-0.246306
-0.258102
-0.255674
-0.266661
-0.263171
-0.227769
-0.217795
-0.209295
-0.200522
-0.191664
-0.183127
-0.175035
-0.167411
-0.160295
-0.153715
-0.147693
-0.142267
-0.137493
-0.1334
-0.129957
-0.127061
-0.124568
-0.122336
-0.120275
-0.118325
-0.116466
-0.114688
-0.119097
-0.120258
-0.121278
-0.121991
-0.122534
-0.123004
-0.123546
-0.124157
-0.12454
-0.125824
-0.117433
-0.115886
-0.114402
-0.112987
-0.00954647
-0.00943195
-0.00933678
-0.00954939
-0.00922426
-0.00861186
-0.00811941
-0.00760193
-0.00797035
-0.00840879
-0.00889934
-0.00903681
-0.00721638
-0.261458
-0.260134
-0.252542
-0.250293
-0.241057
-0.228616
-0.236199
-0.248099
-0.245434
-0.258444
-0.256168
-0.218289
-0.210096
-0.201446
-0.192649
-0.184175
-0.176118
-0.168488
-0.16134
-0.154704
-0.148593
-0.143034
-0.138083
-0.133785
-0.130147
-0.127108
-0.124541
-0.122299
-0.120266
-0.118357
-0.116536
-0.11479
-0.113113
-0.117168
-0.118438
-0.119319
-0.119902
-0.120408
-0.120884
-0.121395
-0.121947
-0.122477
-0.122906
-0.123391
-0.115662
-0.114216
-0.112838
-0.111498
-0.00956564
-0.0094108
-0.00961104
-0.00928783
-0.00875932
-0.00864136
-0.00821654
-0.00779268
-0.00734303
-0.00768072
-0.00805911
-0.00843159
-0.00853369
-0.00896258
-0.00911108
-0.252428
-0.250423
-0.24237
-0.240066
-0.231466
-0.21877
-0.226862
-0.237913
-0.235354
-0.248419
-0.245924
-0.210834
-0.202257
-0.1935
-0.185108
-0.177108
-0.169491
-0.162323
-0.155642
-0.149454
-0.143779
-0.13867
-0.134185
-0.130353
-0.127147
-0.124478
-0.122208
-0.120198
-0.118335
-0.116564
-0.114858
-0.113214
-0.111622
-0.115405
-0.116497
-0.117414
-0.117943
-0.118731
-0.118897
-0.119383
-0.119841
-0.120353
-0.120785
-0.121252
-0.114002
-0.112667
-0.111352
-0.11009
-0.00948843
-0.00936274
-0.00881817
-0.00869245
-0.00833013
-0.00824112
-0.00789052
-0.0075074
-0.00742222
-0.00776108
-0.00808747
-0.00815999
-0.00848066
-0.00858095
-0.00902494
-0.00917471
-0.242224
-0.240153
-0.232633
-0.230448
-0.221968
-0.211538
-0.216705
-0.228486
-0.226024
-0.238191
-0.235792
-0.202957
-0.19422
-0.185917
-0.177988
-0.170401
-0.163231
-0.156526
-0.150275
-0.144491
-0.139237
-0.134578
-0.130556
-0.127171
-0.124372
-0.122047
-0.12005
-0.118239
-0.116533
-0.114884
-0.113283
-0.111723
-0.110213
-0.11376
-0.114769
-0.115708
-0.116202
-0.116636
-0.11703
-0.117487
-0.117728
-0.118919
-0.118628
-0.119229
-0.112479
-0.111185
-0.109947
-0.108754
-0.00886967
-0.00873915
-0.00837563
-0.00828634
-0.00799351
-0.00792801
-0.00760603
-0.00748255
-0.00779723
-0.00784983
-0.00813133
-0.0082049
-0.00852681
-0.00862082
-0.23248
-0.230509
-0.223349
-0.221061
-0.21403
-0.203538
-0.209999
-0.21909
-0.215029
-0.228713
-0.226431
-0.19484
-0.186605
-0.178752
-0.171201
-0.164046
-0.157345
-0.151056
-0.145172
-0.139778
-0.134954
-0.130744
-0.127171
-0.124216
-0.121803
-0.119795
-0.118038
-0.116414
-0.114844
-0.113307
-0.111793
-0.110314
-0.108876
-0.11228
-0.113167
-0.113956
-0.11459
-0.115541
-0.11583
-0.116152
-0.116579
-0.116943
-0.117346
-0.117641
-0.118956
-0.110994
-0.109783
-0.108613
-0.107483
-0.00841746
-0.00832902
-0.00804122
-0.00796924
-0.00770363
-0.0076566
-0.0075363
-0.00756742
-0.00783688
-0.00789614
-0.00817392
-0.0082419
-0.223177
-0.221264
-0.215506
-0.213184
-0.205862
-0.195381
-0.201843
-0.211267
-0.209169
-0.220354
-0.214439
-0.187195
-0.179415
-0.171893
-0.164752
-0.158082
-0.15179
-0.145821
-0.14029
-0.135305
-0.130915
-0.127147
-0.124012
-0.12147
-0.119417
-0.117699
-0.116168
-0.114704
-0.113261
-0.111817
-0.110385
-0.108978
-0.107604
-0.110775
-0.111693
-0.112522
-0.112999
-0.113795
-0.114344
-0.11492
-0.114747
-0.115677
-0.116087
-0.116503
-0.11689
-0.117269
-0.109594
-0.108452
-0.107346
-0.106269
-0.00808302
-0.00800861
-0.00775447
-0.00769468
-0.0074243
-0.00757356
-0.00762193
-0.00787677
-0.00793432
-0.216573
-0.213234
-0.206894
-0.204985
-0.197791
-0.187712
-0.193511
-0.203114
-0.201047
-0.211474
-0.209416
-0.213625
-0.179987
-0.1725
-0.165346
-0.158723
-0.152469
-0.146433
-0.140776
-0.135634
-0.131065
-0.127101
-0.123767
-0.121058
-0.11891
-0.117195
-0.115749
-0.114416
-0.113103
-0.111766
-0.11041
-0.10905
-0.107706
-0.10639
-0.109378
-0.110239
-0.110957
-0.111545
-0.112474
-0.112685
-0.113091
-0.113892
-0.113497
-0.115065
-0.115595
-0.108269
-0.107194
-0.106135
-0.10511
-0.00779802
-0.00772977
-0.0074912
-0.00761241
-0.00766241
-0.216309
-0.213224
-0.206877
-0.205057
-0.198835
-0.196908
-0.189897
-0.18047
-0.186201
-0.194795
-0.191873
-0.203304
-0.201323
-0.211531
-0.209594
-0.173054
-0.165846