/*--------------------------------*- C++ -*----------------------------------*\
| =========                 |                                                 |
| \\      /  F ield         | OpenFOAM: The Open Source CFD Toolbox           |
|  \\    /   O peration     | Version:  v1912                                 |
|   \\  /    A nd           | Website:  www.openfoam.com                      |
|    \\/     M anipulation  |                                                 |
\*---------------------------------------------------------------------------*/
FoamFile
{
    version     2.0;
    format      ascii;
    class       volVectorField;
    location    "470";
    object      U;
}
// * * * * * * * * * * * * * * * * * * * * * * * * * * * * * * * * * * * * * //

dimensions      [0 1 -1 0 0 0 0];


internalField   nonuniform List<vector> 
3753
(
(0.44031 -0.0538329 -7.6926e-21)
(0.790284 -0.0841672 2.34148e-20)
(0.12164 -0.0463028 -1.09712e-20)
(0.927948 -0.0767537 1.15498e-20)
(0.440329 -0.104469 1.2218e-20)
(0.0873504 -0.0395147 0)
(0.977376 -0.0639578 -2.77449e-20)
(0.688868 -0.139948 1.84547e-24)
(0.294952 -0.111467 -1.26421e-24)
(0.0895629 -0.0391281 0)
(0.991511 -0.0551678 -1.1142e-24)
(0.841773 -0.154131 -3.02144e-20)
(0.515163 -0.169472 3.48728e-25)
(0.26941 -0.116053 0)
(0.0966559 -0.0398406 -1.98311e-20)
(0.993802 -0.0495028 -6.03196e-20)
(0.92173 -0.156138 2.87613e-20)
(0.698131 -0.209452 -3.70032e-20)
(0.454258 -0.185593 -3.64664e-20)
(0.276929 -0.11661 0)
(0.095937 -0.0394953 -1.31032e-20)
(0.993302 -0.0452107 1.31734e-19)
(0.957821 -0.152582 0)
(0.822638 -0.232409 8.08808e-20)
(0.627027 -0.24251 3.34425e-20)
(0.449288 -0.186954 -3.63274e-24)
(0.277554 -0.114692 1.66463e-20)
(0.0940606 -0.0390872 -1.65124e-20)
(0.992705 -0.0414334 -7.15882e-20)
(0.971418 -0.14681 -6.74276e-20)
(0.894627 -0.243091 -4.47244e-20)
(0.764255 -0.284147 -4.46275e-20)
(0.610816 -0.248187 0)
(0.44793 -0.183346 1.65206e-20)
(0.274023 -0.11354 1.06836e-20)
(0.0931446 -0.03862 0)
(0.99248 -0.0377082 -1.00292e-23)
(0.974831 -0.140132 6.74889e-20)
(0.93012 -0.246438 0)
(0.857254 -0.312109 4.29873e-20)
(0.748978 -0.29718 -3.87246e-24)
(0.6045 -0.244009 -1.51146e-20)
(0.443428 -0.181409 -1.68218e-24)
(0.271344 -0.112273 5.28803e-21)
(0.0915431 -0.0379294 0)
(0.992526 -0.033726 1.00028e-19)
(0.973974 -0.132736 -9.50589e-20)
(0.943873 -0.245883 -1.03177e-23)
(0.911987 -0.330613 6.6532e-20)
(0.853451 -0.333256 6.6384e-24)
(0.740812 -0.294384 0)
(0.598076 -0.241535 0)
(0.439618 -0.17946 8.16048e-22)
(0.267886 -0.11039 2.20136e-25)
(0.0894161 -0.0371488 0)
(0.9927 -0.029289 7.28062e-21)
(0.97121 -0.124303 2.04223e-19)
(0.94554 -0.243211 1.10498e-19)
(0.939981 -0.344157 1.57526e-20)
(0.924165 -0.358714 0)
(0.849362 -0.333182 -2.28328e-24)
(0.732945 -0.29225 -9.93562e-25)
(0.593499 -0.239121 -1.07158e-20)
(0.435148 -0.176753 -2.99117e-25)
(0.263276 -0.108344 -5.70892e-21)
(0.0873409 -0.0363635 8.42884e-21)
(0.992937 -0.0242693 -1.08555e-19)
(0.967281 -0.114315 -1.09021e-19)
(0.940088 -0.238997 -1.11795e-19)
(0.95148 -0.356206 -1.7614e-19)
(0.96877 -0.377269 -4.73871e-24)
(0.928035 -0.36142 0)
(0.842701 -0.332335 0)
(0.728078 -0.289852 5.24526e-21)
(0.588702 -0.235892 -3.85199e-22)
(0.42933 -0.173922 6.41893e-22)
(0.258403 -0.106314 -1.03817e-20)
(0.0853416 -0.0355869 1.10244e-20)
(0.993258 -0.0185896 0)
(0.962354 -0.10216 0)
(0.929457 -0.233079 -6.90334e-23)
(0.952844 -0.368942 2.08623e-19)
(0.996584 -0.392337 2.86462e-20)
(0.981389 -0.38183 4.72748e-24)
(0.925061 -0.362179 -2.01829e-24)
(0.838928 -0.330531 -7.67959e-25)
(0.723559 -0.286478 -2.73281e-22)
(0.582601 -0.232617 4.00922e-21)
(0.422939 -0.171134 -7.93948e-21)
(0.253553 -0.104292 -1.35043e-20)
(0.0834156 -0.0348454 0)
(0.993748 -0.0122166 0)
(0.956454 -0.0871586 1.44199e-19)
(0.91406 -0.224935 1.81959e-19)
(0.947063 -0.383575 -1.1082e-19)
(1.01461 -0.406183 -2.79076e-20)
(1.01687 -0.397347 2.04048e-24)
(0.982705 -0.383693 2.03171e-24)
(0.923899 -0.361196 2.02235e-24)
(0.835517 -0.327422 -1.21222e-22)
(0.717872 -0.283061 2.99772e-21)
(0.575773 -0.229435 7.1653e-21)
(0.416373 -0.168344 1.47412e-24)
(0.248789 -0.102349 1.53615e-20)
(0.0816059 -0.034138 -3.76103e-24)
(0.994528 -0.00518096 6.25562e-20)
(0.949627 -0.0685985 -6.72684e-20)
(0.893886 -0.213778 2.57739e-20)
(0.934674 -0.400597 3.27689e-23)
(1.02638 -0.419637 3.57876e-23)
(1.04054 -0.409888 9.68643e-21)
(1.02114 -0.399095 -1.11685e-20)
(0.984452 -0.383085 -1.27116e-24)
(0.922351 -0.35852 6.41833e-24)
(0.83082 -0.32412 -2.80172e-21)
(0.711403 -0.279748 5.90883e-21)
(0.56856 -0.226246 0)
(0.409781 -0.165652 -2.65578e-20)
(0.244214 -0.100478 -8.52123e-24)
(0.0798724 -0.0334538 1.61823e-20)
(0.995678 0.00237658 -1.24987e-19)
(0.942216 -0.045876 2.76268e-21)
(0.869106 -0.198058 -2.1283e-19)
(0.91341 -0.42001 0)
(1.03128 -0.431175 4.042e-23)
(1.0541 -0.419438 -9.48644e-21)
(1.04455 -0.409422 1.09261e-20)
(1.02417 -0.397624 -2.02815e-24)
(0.984516 -0.380449 6.43815e-22)
(0.918914 -0.355361 0)
(0.825188 -0.320813 -5.51651e-21)
(0.704352 -0.276401 -4.0356e-24)
(0.56112 -0.223162 1.1708e-20)
(0.403314 -0.163024 -3.46208e-24)
(0.239779 -0.0986467 4.49922e-24)
(0.0782124 -0.0328041 1.70946e-20)
(0.997115 0.00999342 6.23089e-20)
(0.935668 -0.018527 -7.69412e-20)
(0.839669 -0.17412 4.41148e-22)
(0.875227 -0.438923 0)
(1.02156 -0.435599 2.00707e-20)
(1.05193 -0.422342 5.86348e-21)
(1.05168 -0.413095 1.04012e-20)
(1.04487 -0.404865 6.60534e-25)
(1.02376 -0.393877 2.54151e-25)
(0.981658 -0.376972 2.52026e-21)
(0.914103 -0.351952 5.06025e-21)
(0.818712 -0.317386 -7.60589e-21)
(0.696834 -0.273158 4.94684e-24)
(0.553659 -0.22011 -6.32832e-24)
(0.396964 -0.160408 -1.61059e-20)
(0.235473 -0.0968961 4.96601e-24)
(0.0766715 -0.0321969 0)
(0.998789 0.0169659 -5.90731e-20)
(0.934009 0.0132167 3.0441e-21)
(0.803595 -0.134239 -9.48526e-22)
(0.801289 -0.440479 -1.20429e-19)
(0.974327 -0.424456 -2.03693e-20)
(1.01612 -0.408788 -2.3818e-21)
(1.03181 -0.404343 -1.04386e-20)
(1.04225 -0.401938 4.48515e-21)
(1.03962 -0.398 -9.79385e-25)
(1.01917 -0.388945 -2.4579e-21)
(0.976712 -0.372915 -4.86763e-21)
(0.908017 -0.348253 7.20704e-21)
(0.811463 -0.31404 0)
(0.689096 -0.269898 -1.15705e-20)
(0.546188 -0.217004 1.43762e-20)
(0.3907 -0.157876 -4.10302e-24)
(0.23137 -0.0952523 -1.01368e-23)
(0.0752558 -0.0316328 -4.44004e-24)
(1.00046 0.0226053 5.84755e-20)
(0.942941 0.0414283 -7.13171e-20)
(0.75226 -0.061926 2.57616e-20)
(0.65554 -0.390442 1.1932e-19)
(0.842277 -0.379 0)
(0.91069 -0.363169 -3.74536e-21)
(0.962187 -0.372275 0)
(1.00281 -0.382283 -8.31305e-21)
(1.02558 -0.389292 3.53576e-22)
(1.0291 -0.389835 2.92711e-21)
(1.01173 -0.383145 9.11954e-25)
(0.969905 -0.368354 -3.30027e-24)
(0.900747 -0.3446 -4.2146e-24)
(0.803753 -0.310604 2.13529e-20)
(0.681143 -0.266485 3.19111e-24)
(0.538672 -0.213953 7.30784e-24)
(0.384616 -0.155476 0)
(0.227515 -0.0937085 5.16952e-24)
(0.0739373 -0.0311019 1.84811e-20)
(1.00197 0.0265482 0)
(0.952804 0.064344 1.3379e-19)
(0.820209 0.0517654 -4.19254e-20)
(0.827295 0.0728611 0)
(0.507579 -0.34969 2.12247e-21)
(0.384483 -0.261469 1.98725e-20)
(0.636528 -0.0220201 0)
(0.691996 -0.331988 9.54861e-23)
(0.337709 -0.243816 -2.96885e-20)
(0.509452 -0.22315 1.97619e-21)
(0.68544 -0.267207 4.42365e-22)
(0.564695 -0.211716 0)
(0.812295 -0.304051 0)
(0.905461 -0.337181 3.95639e-21)
(0.968008 -0.361714 -1.08079e-21)
(1.00394 -0.376032 -2.95583e-21)
(1.01551 -0.380829 9.71438e-25)
(1.00195 -0.376713 0)
(0.961455 -0.363857 -3.20667e-25)
(0.892746 -0.340772 -1.00345e-20)
(0.795581 -0.306894 0)
(0.67293 -0.263071 -3.20786e-24)
(0.531217 -0.211027 -3.74746e-24)
(0.37879 -0.153193 -1.80504e-20)
(0.223884 -0.0922391 0)
(0.0726888 -0.0305961 1.86497e-20)
(1.00292 0.0287549 -4.93038e-20)
(0.967393 0.0807257 -5.08143e-21)
(0.83861 0.10022 0)
(0.854399 0.127169 2.97552e-20)
(0.641071 0.0609368 0)
(0.414145 -0.126754 -1.89408e-21)
(0.167211 -0.192404 -2.54986e-20)
(0.136471 -0.186684 -6.28388e-21)
(0.204722 -0.225076 3.33558e-20)
(0.384107 -0.072937 0)
(0.320671 -0.157281 -3.00263e-21)
(0.131892 -0.0624321 0)
(0.327512 -0.118926 0)
(0.250616 -0.083243 -8.60369e-24)
(0.439577 -0.160578 -7.75192e-22)
(0.564754 -0.19615 -5.093e-22)
(0.376176 -0.134065 -1.8567e-25)
(0.732092 -0.261435 1.08986e-21)
(0.85092 -0.309689 -3.47649e-22)
(0.931735 -0.342761 1.20048e-24)
(0.980431 -0.362664 0)
(0.999693 -0.371358 0)
(0.990241 -0.370554 0)
(0.952075 -0.359146 4.66325e-24)
(0.884042 -0.336543 2.56886e-24)
(0.786887 -0.303117 0)
(0.664593 -0.259758 -1.38443e-20)
(0.52394 -0.208208 1.5996e-20)
(0.373222 -0.150987 -8.96409e-24)
(0.220421 -0.0908268 0)
(0.0715055 -0.0301166 0)
(1.0032 0.0293011 3.86863e-21)
(0.984729 0.0900093 -5.72631e-20)
(0.874238 0.151725 -2.86203e-20)
(0.896461 0.168278 -2.40436e-20)
(0.66052 0.128502 0)
(0.688741 0.186388 -4.04123e-20)
(0.372094 0.0428029 0)
(0.371298 -0.014414 0)
(0.117763 -0.109518 3.03748e-21)
(0.0546235 -0.0991351 0)
(0.0896025 -0.0292201 8.30997e-23)
(0.0778461 -0.0276363 -1.22382e-22)
(0.220799 -0.0740703 0)
(0.132323 -0.0409955 -1.3991e-21)
(0.335794 -0.111919 1.9028e-25)
(0.487136 -0.162527 -1.1395e-21)
(0.316498 -0.102405 7.31287e-22)
(0.183771 -0.0614182 -6.3143e-25)
(0.667028 -0.233457 4.30637e-22)
(0.802313 -0.287343 -3.50031e-25)
(0.896962 -0.325325 6.60318e-21)
(0.956061 -0.349469 7.92927e-21)
(0.982252 -0.362743 0)
(0.977709 -0.364285 -9.55505e-21)
(0.941856 -0.35394 -1.07609e-20)
(0.874556 -0.332197 1.16397e-20)
(0.777846 -0.299412 1.28066e-20)
(0.656292 -0.256529 -1.41298e-20)
(0.516872 -0.205446 0)
(0.36786 -0.148841 -1.83637e-20)
(0.217105 -0.0894757 0)
(0.0703824 -0.0296598 0)
(1.00328 0.0283583 4.61923e-20)
(0.999336 0.0926883 0)
(0.921115 0.182795 2.40547e-20)
(0.944409 0.18258 2.18286e-20)
(0.727942 0.234882 7.2392e-20)
(0.777327 0.265818 -3.21002e-20)
(0.384404 0.101987 0)
(0.403435 0.159611 -1.85051e-20)
(0.455549 0.269487 0)
(0.427116 0.215981 1.77743e-20)
(0.0926526 0.00357604 5.25148e-20)
(0.0998937 -0.053906 -2.58825e-20)
(0.0387055 -0.0112188 1.36082e-21)
(0.0553981 -0.0166515 9.85693e-23)
(0.049607 -0.0161384 5.77221e-24)
(0.163352 -0.0515545 -5.36089e-23)
(0.289021 -0.0941344 -1.43785e-22)
(0.425795 -0.141824 1.08281e-21)
(0.26244 -0.0826532 -1.48562e-22)
(0.195508 -0.0639732 4.51678e-23)
(0.193406 -0.0615917 -7.3603e-23)
(0.0418316 -0.0137643 0)
(0.04454 -0.0141125 0)
(0.61608 -0.21277 -1.67493e-24)
(0.759713 -0.268356 -7.18576e-21)
(0.863926 -0.308915 -8.36485e-21)
(0.931228 -0.338196 -8.64687e-21)
(0.964697 -0.354369 9.60466e-21)
(0.964495 -0.35753 1.0592e-20)
(0.930692 -0.348632 -2.25315e-20)
(0.864523 -0.327918 1.19528e-20)
(0.768673 -0.295774 1.30522e-20)
(0.64809 -0.253322 0)
(0.509977 -0.20272 1.62036e-20)
(0.362677 -0.146763 -1.83287e-20)
(0.213919 -0.0881817 0)
(0.0693246 -0.0292286 1.85599e-20)
(1.0031 0.0263409 1.64875e-22)
(1.0117 0.0912963 1.70405e-22)
(0.958168 0.24933 -3.67573e-20)
(0.828735 0.283538 0)
(0.870873 0.308303 -2.57365e-20)
(0.488881 0.318612 -1.41372e-20)
(0.530518 0.358372 1.27716e-20)
(0.637438 0.423244 1.19431e-20)
(0.581395 0.394247 -9.91296e-21)
(0.0983232 0.06743 -2.64312e-20)
(0.112582 0.134804 2.44106e-20)
(0.166097 0.269448 4.24138e-20)
(0.134882 0.202699 -4.68676e-20)
(0.0384255 -0.0115587 -6.36615e-23)
(0.0379145 -0.0120426 2.21842e-22)
(0.114721 -0.0376265 0)
(0.183876 -0.0589158 1.84699e-22)
(0.175551 -0.0559496 3.77794e-25)
(0.225708 -0.0737454 -2.967e-22)
(0.386274 -0.1274 -1.75885e-21)
(0.209091 -0.0669804 1.84062e-22)
(0.163827 -0.053074 -3.4615e-23)
(0.14514 -0.0422843 1.95226e-22)
(0.113238 -0.0357168 -3.53036e-23)
(0.573627 -0.1961 1.72786e-24)
(0.72117 -0.250491 2.16408e-24)
(0.832257 -0.295858 9.18188e-21)
(0.90779 -0.327754 -2.30201e-24)
(0.947114 -0.345675 0)
(0.950405 -0.350809 1.11526e-20)
(0.918895 -0.343445 -2.30989e-20)
(0.854226 -0.323719 1.21688e-20)
(0.759476 -0.292126 3.19536e-24)
(0.639977 -0.250112 -1.43549e-20)
(0.503232 -0.200042 1.61371e-20)
(0.35765 -0.144757 0)
(0.210879 -0.0869522 2.11986e-20)
(0.0683229 -0.0288148 1.8407e-20)
(1.00256 0.0236028 0)
(1.02071 0.085764 -1.55917e-22)
(1.01344 0.23883 4.21766e-20)
(0.866086 0.563373 -1.90528e-20)
(0.970849 0.574486 9.2863e-21)
(0.694463 0.447751 -6.57018e-22)
(0.741972 0.461292 9.20534e-21)
(0.765444 0.548396 1.84798e-20)
(0.208109 0.329143 -1.95781e-20)
(0.262696 0.375498 4.1515e-22)
(0.404553 0.501854 -2.24162e-20)
(0.317066 0.405007 1.94085e-20)
(0.037088 -0.0119552 -2.52422e-25)
(0.108224 -0.0341155 0)
(0.10293 -0.03246 -8.19476e-23)
(0.120091 -0.0389681 3.32988e-23)
(0.109224 -0.0348688 0)
(0.19717 -0.0632719 1.04327e-21)
(0.354595 -0.116417 0)
(0.190645 -0.0604054 3.20684e-21)
(0.102531 -0.0325457 0)
(0.0994129 -0.031242 -4.87986e-22)
(0.0947878 -0.0301782 -1.1991e-22)
(0.0660602 -0.017242 0)
(0.0365671 -0.0114204 6.49284e-23)
(0.533943 -0.178968 0)
(0.685768 -0.237423 0)
(0.804127 -0.284289 0)
(0.885501 -0.317273 0)
(0.929055 -0.33729 0)
(0.935826 -0.344361 1.14217e-20)
(0.906817 -0.338416 -2.34948e-20)
(0.843817 -0.319503 1.23302e-20)
(0.750261 -0.288437 1.32359e-20)
(0.631938 -0.246921 -1.42985e-20)
(0.496627 -0.197435 -3.85129e-24)
(0.352803 -0.142834 -1.81597e-20)
(0.207976 -0.0857677 0)
(0.0673545 -0.0284139 0)
(1.00182 0.0204115 3.50278e-20)
(1.02675 0.0778068 0)
(1.04028 0.209105 0)
(1.13957 0.49847 -5.38332e-21)
(0.835129 0.616377 1.07286e-21)
(0.654424 0.511245 -8.42209e-22)
(0.912535 0.483114 -5.75385e-23)
(0.543285 0.569981 2.46857e-22)
(0.6173 0.578925 -9.63984e-21)
(0.529023 0.451227 -5.83813e-23)
(0.470701 0.456868 1.37933e-21)
(0.155605 0.267178 -1.36508e-21)
(0.0350935 -0.0108981 0)
(0.0334498 -0.010479 5.54996e-23)
(0.0420826 -0.0138469 0)
(0.0364447 -0.011582 0)
(0.0963225 -0.0304309 -5.97296e-22)
(0.0949944 -0.0297401 -6.82763e-22)
(0.18177 -0.058327 0)
(0.314033 -0.10148 1.83408e-21)
(0.173 -0.0547367 4.57012e-22)
(0.0931836 -0.0292908 -1.6613e-21)
(0.0921616 -0.0287743 0)
(0.0331574 -0.0103822 5.16056e-25)
(0.0320152 -0.00993356 4.29102e-22)
(0.0307392 -0.0100227 1.4372e-22)
(0.0182467 -0.00479196 -2.02492e-22)
(0.499093 -0.167427 0)
(0.656388 -0.226481 0)
(0.778612 -0.272828 0)
(0.863351 -0.307453 -1.24503e-20)
(0.910938 -0.329423 2.87491e-24)
(0.921151 -0.338247 1.16246e-20)
(0.894658 -0.333418 -2.38476e-20)
(0.833328 -0.315232 -3.01852e-24)
(0.741035 -0.284737 1.31658e-20)
(0.62398 -0.243784 3.43571e-24)
(0.490188 -0.194915 7.33176e-26)
(0.348136 -0.14097 9.44934e-26)
(0.205182 -0.0846167 -9.99411e-24)
(0.0664185 -0.0280255 0)
(1.00109 0.0169714 -3.55229e-20)
(1.03061 0.0691268 3.26844e-20)
(1.05057 0.173182 -1.98134e-20)
(1.25962 0.454434 -1.54739e-21)
(0.789758 0.138739 -5.3287e-20)
(1.07453 0.205147 1.42227e-19)
(0.449727 0.26803 -3.4874e-21)
(0.281644 0.249363 0)
(0.594235 0.189852 -2.50271e-20)
(0.263183 0.101683 0)
(0.341135 0.44526 1.10375e-21)
(0.412485 0.452226 -1.59688e-21)
(0.0311545 -0.0096703 0)
(0.0306914 -0.00947384 0)
(0.0899477 -0.0283985 -9.86305e-22)
(0.0885664 -0.0277419 -1.00669e-24)
(0.149708 -0.0465519 5.63972e-22)
(0.283386 -0.0913872 1.69213e-21)
(0.122874 -0.0399905 -2.04381e-21)
(0.0863512 -0.0273163 0)
(0.082845 -0.0259736 -5.87969e-22)
(0.030091 -0.00933865 -3.7609e-24)
(0.029753 -0.00919828 0)
(0.473764 -0.159143 0)
(0.63108 -0.215186 0)
(0.753557 -0.262386 1.338e-20)
(0.841774 -0.298383 0)
(0.893157 -0.322174 2.7198e-26)
(0.906615 -0.332281 1.18216e-20)
(0.882458 -0.328392 0)
(0.822774 -0.310937 3.02766e-24)
(0.731812 -0.281072 1.2988e-20)
(0.616138 -0.240733 -1.39568e-20)
(0.483935 -0.192457 3.81512e-24)
(0.343625 -0.139142 4.32619e-24)
(0.202461 -0.0834882 2.56542e-25)
(0.0655033 -0.0276471 0)
(1.00051 0.0134504 3.18307e-20)
(1.03255 0.0602155 -2.76521e-21)
(1.0542 0.139774 2.06122e-20)
(1.29581 0.395029 1.59332e-21)
(1.18151 0.150726 -8.49039e-20)
(0.221458 0.00735339 -1.31225e-20)
(0.476283 -0.0146598 3.71765e-20)
(0.275757 -0.0264708 -3.29298e-20)
(0.635953 -0.009138 6.91324e-20)
(0.0291999 -0.00905799 1.13944e-21)
(0.0287034 -0.00886261 0)
(0.0754366 -0.0241058 -6.30129e-22)
(0.0535158 -0.0138424 1.15348e-21)
(0.111361 -0.0349315 -3.58546e-21)
(0.267827 -0.086404 3.57413e-24)
(0.108692 -0.0339471 -1.21778e-21)
(0.0340987 -0.0108123 -2.83273e-22)
(0.0286475 -0.00939335 -6.30176e-22)
(0.0279948 -0.00873236 6.59594e-22)
(0.0267856 -0.00838942 -3.26074e-22)
(0.453462 -0.150509 0)
(0.605195 -0.205249 3.76897e-24)
(0.729596 -0.252709 3.36024e-24)
(0.821152 -0.290298 0)
(0.875951 -0.315255 -5.92743e-24)
(0.892229 -0.326373 1.2037e-20)
(0.870229 -0.323364 0)
(0.812172 -0.306671 -2.44677e-20)
(0.72264 -0.277504 5.97368e-23)
(0.608461 -0.237742 0)
(0.477849 -0.190025 0)
(0.339227 -0.137344 0)
(0.199803 -0.0823898 9.89548e-24)
(0.064629 -0.0272814 1.73959e-20)
(1.00016 0.00998624 -3.23269e-20)
(1.03274 0.0510464 -3.12559e-20)
(1.0569 0.111052 -3.63253e-24)
(1.2844 0.326475 1.68374e-22)
(1.38336 0.158415 0)
(0.657602 -0.0325254 0)
(0.0709581 -0.0212795 2.14565e-20)
(0.278536 -0.0120794 1.03945e-22)
(0.122692 -0.0115928 -9.21148e-23)
(0.3019 -0.0545528 -1.11667e-19)
(0.0244106 -0.00808711 -4.98619e-24)
(0.0147202 -0.00382428 -8.13813e-22)
(0.0263547 -0.00817941 1.16471e-25)
(0.0257263 -0.00803491 9.23795e-22)
(0.105567 -0.033304 1.29812e-21)
(0.304959 -0.101766 -6.65771e-24)
(0.104484 -0.0326223 -1.41249e-21)
(0.207419 -0.068303 -2.65242e-21)
(0.0255514 -0.00793173 4.62289e-25)
(0.0255367 -0.00785612 1.8986e-21)
(0.428737 -0.141228 -2.12072e-21)
(0.300798 -0.0986365 0)
(0.580352 -0.195747 -3.85188e-24)
(0.707331 -0.244417 0)
(0.80174 -0.282762 -1.29793e-20)
(0.859238 -0.308523 -2.47182e-20)
(0.877975 -0.320523 5.81107e-24)
(0.857976 -0.318389 1.18435e-20)
(0.801586 -0.302543 1.20455e-20)
(0.713612 -0.273997 0)
(0.600937 -0.23476 0)
(0.47189 -0.187618 0)
(0.334922 -0.135585 0)
(0.197214 -0.0813143 -1.96412e-20)
(0.0637732 -0.0269278 8.24711e-24)
(1.00001 0.00667269 0)
(1.03162 0.0415768 2.77256e-20)
(1.06035 0.08672 0)
(1.25388 0.261755 -1.87935e-22)
(1.45529 0.157868 0)
(1.08916 -0.0167235 1.56217e-19)
(0.344839 -0.0714152 -1.06128e-19)
(0.199658 -0.0113239 1.07779e-19)
(0.0201259 -0.0068296 4.67969e-20)
(0.0634247 -0.0247765 9.91808e-20)
(0.0250734 -0.0078253 -1.9936e-21)
(0.0250243 -0.00775165 -1.0436e-21)
(0.128617 -0.0421844 7.22452e-23)
(0.0758842 -0.0247034 3.12492e-21)
(0.024766 -0.00767836 4.15267e-24)
(0.0247669 -0.00762116 1.11247e-21)
(0.200556 -0.0650228 -2.10854e-23)
(0.128438 -0.0407888 1.91971e-21)
(0.289704 -0.0939605 3.49497e-21)
(0.403075 -0.131941 -2.23403e-21)
(0.278655 -0.0898621 3.51684e-21)
(0.558253 -0.187993 0)
(0.687113 -0.236902 1.41143e-20)
(0.783243 -0.275555 1.31021e-20)
(0.842915 -0.301928 -6.01669e-24)
(0.863824 -0.314769 -5.84039e-24)
(0.845769 -0.313633 -1.16479e-20)
(0.79115 -0.298493 -1.15596e-23)
(0.70473 -0.270491 1.23623e-20)
(0.593538 -0.231797 0)
(0.466046 -0.185253 1.45409e-20)
(0.330704 -0.133856 0)
(0.194695 -0.080277 0)
(0.0629324 -0.0265836 1.68168e-20)
(1.00001 0.00354803 -3.02484e-20)
(1.02978 0.0318699 -2.8364e-20)
(1.06381 0.0660081 -1.07532e-20)
(1.22113 0.205172 0)
(1.45335 0.148165 1.63509e-23)
(1.34322 -0.000830449 -1.35938e-19)
(0.763037 -0.0794986 -1.54087e-22)
(0.261492 -0.0599098 0)
(0.128676 -0.0267039 9.16276e-20)
(0.118895 -0.0472102 -1.47064e-21)
(0.0472788 -0.000623982 -8.72308e-20)
(-0.002302 -0.0102142 -1.43992e-21)
(0.00608817 0.00330182 1.74755e-21)
(0.0757936 -0.0236476 -1.76327e-21)
(0.0246926 -0.00790039 -1.00774e-21)
(0.123736 -0.0395297 4.17382e-24)
(0.192623 -0.0615112 -2.11439e-21)
(0.126252 -0.0404027 0)
(0.26381 -0.0837259 7.57015e-21)
(0.383051 -0.125241 -2.16726e-21)
(0.251185 -0.0811665 -2.9315e-23)
(0.182186 -0.0581896 1.15798e-23)
(0.539443 -0.181311 -1.99541e-24)
(0.668193 -0.22985 0)
(0.765364 -0.268532 1.34314e-20)
(0.826894 -0.29546 1.1979e-23)
(0.849824 -0.309373 1.16091e-20)
(0.833787 -0.309004 -1.14866e-20)
(0.780877 -0.294448 -1.16583e-20)
(0.695965 -0.266995 5.99343e-24)
(0.586271 -0.228873 -1.30008e-20)
(0.460306 -0.182923 9.82541e-26)
(0.326575 -0.132173 1.60382e-20)
(0.192225 -0.0792701 4.49933e-24)
(0.0621393 -0.0262512 7.92404e-24)
(1.00008 0.000609889 3.07156e-20)
(1.02774 0.0220726 2.66094e-20)
(1.06627 0.047942 9.04253e-22)
(1.19388 0.156486 -3.62399e-21)
(1.41587 0.128162 -6.12511e-20)
(1.45421 0.00932267 2.87637e-23)
(1.11192 -0.0784054 7.12318e-23)
(0.57342 -0.0922781 1.85189e-22)
(0.0718235 -0.0214859 1.26382e-22)
(0.230119 -0.0500616 0)
(0.0457252 -0.0135922 -1.75918e-20)
(0.0194483 -0.0147131 5.65997e-20)
(-0.00040832 0.00937043 5.48333e-20)
(0.00786144 -0.00034538 -2.41109e-20)
(0.0742276 -0.0234036 0)
(0.0246415 -0.00761359 1.18609e-21)
(0.120943 -0.0382819 -4.1371e-24)
(0.0725212 -0.022926 9.47185e-22)
(0.118158 -0.0373412 -2.0768e-21)
(0.164026 -0.051013 -3.98954e-21)
(0.242509 -0.0779078 -3.62902e-21)
(0.368694 -0.120346 4.45516e-21)
(0.237506 -0.0760508 7.33582e-21)
(0.149943 -0.0477535 1.26111e-23)
(0.107646 -0.0341203 0)
(0.113703 -0.0360853 4.01276e-24)
(0.522206 -0.175225 1.83901e-23)
(0.649886 -0.222954 -1.467e-20)
(0.747941 -0.261568 1.34146e-20)
(0.811186 -0.289547 -5.95971e-24)
(0.836234 -0.304186 1.1458e-20)
(0.822048 -0.304405 5.57331e-24)
(0.770738 -0.290418 -1.1462e-20)
(0.687324 -0.263531 0)
(0.579106 -0.225984 0)
(0.454665 -0.180644 -1.39317e-20)
(0.322527 -0.13054 -1.17512e-25)
(0.189842 -0.0782951 -1.81994e-20)
(0.0613846 -0.0259312 -8.01088e-24)
(1.00016 -0.0021638 0)
(1.02583 0.0123414 -4.06318e-20)
(1.06735 0.031568 1.05127e-20)
(1.17396 0.114854 3.84837e-21)
(1.36858 0.103484 1.02298e-20)
(1.47557 0.0115073 2.34821e-23)
(1.32927 -0.0721282 -8.18324e-23)
(0.913789 -0.109396 -1.2811e-22)
(0.474914 -0.0872327 0)
(0.072357 -0.0178225 5.40193e-20)
(0.0145326 -0.000348645 -1.81274e-20)
(0.00672439 -0.00900509 -7.41617e-23)
(0.204792 -0.0431637 -2.03879e-19)
(0.015832 -0.00241849 8.75233e-23)
(0.0115796 -0.00683028 -1.59648e-22)
(-0.0106518 -0.00434532 2.56887e-20)
(0.00196358 -0.000115563 0)
(-0.00728879 0.00233771 -1.30538e-20)
(0.000326294 0.00025074 -9.29437e-22)
(0.0240464 -0.0074527 -5.9575e-24)
(0.0708693 -0.022222 3.44587e-24)
(0.023422 -0.00730023 -1.90137e-21)
(0.0692942 -0.0217423 8.77983e-22)
(0.0946474 -0.0273988 1.84201e-23)
(0.0812183 -0.0263949 1.12712e-21)
(0.14383 -0.0454557 -1.54853e-21)
(0.232652 -0.0744461 -7.40756e-21)
(0.356082 -0.116189 -1.84757e-23)
(0.22926 -0.0733482 7.57682e-21)
(0.140756 -0.0443342 -1.55861e-21)
(0.0708885 -0.0224165 2.53459e-23)
(0.0744216 -0.0235513 -1.11563e-21)
(0.061804 -0.0194738 0)
(0.0662784 -0.0208911 8.87826e-22)
(0.505057 -0.169147 -8.22418e-24)
(0.631849 -0.215784 -1.46721e-20)
(0.730972 -0.255421 1.2904e-20)
(0.796205 -0.28395 0)
(0.823051 -0.299082 1.1424e-20)
(0.810501 -0.299846 1.11205e-20)
(0.760738 -0.286426 -2.69751e-24)
(0.678804 -0.26011 1.15842e-20)
(0.572044 -0.223146 1.23157e-20)
(0.449115 -0.178428 0)
(0.318589 -0.128959 1.53268e-20)
(0.187547 -0.077345 0)
(0.0606153 -0.0256111 0)
(1.00023 -0.00479722 -4.578e-25)
(1.02417 0.00279525 2.73847e-20)
(1.06724 0.0161951 0)
(1.16007 0.079146 6.04417e-21)
(1.32526 0.0781414 1.0613e-19)
(1.45243 0.00783404 -2.43226e-23)
(1.42954 -0.0651529 -9.89814e-20)
(1.1828 -0.113301 5.92636e-23)
(0.774395 -0.115284 1.44193e-22)
(0.413661 -0.0778941 0)
(0.0660115 -0.0153401 2.04076e-19)
(0.017275 1.04744e-05 -8.42762e-20)
(0.0160601 -0.00800342 1.66825e-20)
(0.00249953 0.00193656 1.19196e-20)
(0.000916395 -0.000228281 2.1143e-20)
(-6.57227e-05 -1.06902e-06 1.42067e-20)
(-0.0012502 -0.00242561 -1.29592e-20)
(0.00313805 -2.57874e-05 1.4688e-22)
(0.18476 -0.0383276 0)
(0.000781493 0.00112653 1.6282e-20)
(-0.00943996 0.000866576 1.49718e-20)
(-0.0029265 0.00185757 0)
(0.0228886 -0.00710949 1.22885e-21)
(0.0224887 -0.00699483 1.20503e-21)
(0.0429359 -0.0108795 5.31519e-22)
(0.0280109 -0.00930064 3.28877e-22)
(0.0691656 -0.0216381 -8.34218e-24)
(0.0683712 -0.0213795 2.13598e-21)
(0.13831 -0.0435678 0)
(0.225127 -0.0720843 -1.51358e-20)
(0.342246 -0.111702 3.64766e-23)
(0.221539 -0.0709177 1.52878e-20)
(0.136323 -0.0429556 -4.66992e-21)
(0.0673996 -0.0210398 -2.1663e-21)
(0.0677324 -0.0211395 2.15162e-21)
(0.0227938 -0.00714761 -4.94274e-24)
(0.0245949 -0.00784522 7.587e-22)
(0.0199146 -0.00654922 -7.73303e-23)
(0.02138 -0.00673999 -1.18572e-21)
(0.487046 -0.16204 -2.4806e-23)
(0.614275 -0.209758 -1.41867e-20)
(0.715222 -0.249708 1.87678e-23)
(0.78189 -0.278512 -1.17826e-20)
(0.810167 -0.29406 0)
(0.799146 -0.295349 0)
(0.750894 -0.282488 -1.09212e-20)
(0.670393 -0.256744 -1.1291e-20)
(0.56508 -0.220388 0)
(0.443704 -0.176284 0)
(0.314764 -0.127409 0)
(0.185275 -0.0764097 0)
(0.0598737 -0.0252993 -7.42735e-24)
(1.00027 -0.00730724 0)
(1.02277 -0.00649926 -1.40212e-20)
(1.06636 0.00141391 0)
(1.15021 0.0479855 -6.35911e-21)
(1.29075 0.0533601 -6.23292e-21)
(1.41439 0.000652933 8.03264e-20)
(1.45296 -0.0604198 5.80605e-21)
(1.34526 -0.109609 5.20447e-23)
(1.05256 -0.129621 5.46494e-23)
(0.676093 -0.109883 0)
(0.369579 -0.069745 -1.53078e-22)
(0.06099 -0.0138339 4.68993e-20)
(0.0169955 0.000412923 0)
(0.0145895 -0.00709981 0)
(0.0030264 0.00131989 6.90022e-23)
(0.00330545 -0.00112512 1.97519e-20)
(0.00436644 -0.000558599 -1.90048e-20)
(0.00351623 -0.00236271 0)
(0.000295378 0.000314546 0)
(-0.00116191 -0.000231035 -1.65188e-21)
(0.167927 -0.0339276 0)
(-0.000239143 0.000361998 7.13185e-22)
(0.0118702 -0.00301902 -3.06395e-22)
(0.0221649 -0.00688334 -1.2374e-21)
(0.0219184 -0.0068004 1.24107e-21)
(0.06675 -0.0208379 -2.15715e-21)
(0.0665021 -0.0207603 0)
(0.13424 -0.0423098 6.24503e-21)
(0.21645 -0.0694489 0)
(0.323796 -0.104746 -3.72855e-23)
(0.21055 -0.0675269 3.85178e-21)
(0.132116 -0.0416595 -6.31863e-21)
(0.0657507 -0.0205291 -8.54452e-24)
(0.0659961 -0.0206153 -2.16469e-21)
(0.0216233 -0.00670271 2.4997e-21)
(0.0217384 -0.00673676 1.2501e-21)
(0.469298 -0.156359 1.666e-23)
(0.59874 -0.204307 -1.39994e-23)
(0.70051 -0.24426 -1.28657e-20)
(0.768036 -0.27322 -2.82821e-24)
(0.797566 -0.289141 -1.1076e-20)
(0.788004 -0.290922 0)
(0.741183 -0.278612 0)
(0.662096 -0.253473 0)
(0.558255 -0.217711 2.80207e-24)
(0.438415 -0.174177 6.15198e-24)
(0.311024 -0.125892 0)
(0.183072 -0.0754963 4.06019e-24)
(0.059163 -0.0249977 1.47637e-23)
(1.00027 -0.0097016 0)
(1.02157 -0.015516 0)
(1.06505 -0.0129978 6.35764e-21)
(1.1429 0.0201182 0)
(1.26502 0.0293473 -6.91204e-20)
(1.37709 -0.0087806 -7.37457e-21)
(1.43762 -0.0585905 9.42171e-20)
(1.41619 -0.103539 0)
(1.25249 -0.132747 -4.83424e-23)
(0.944003 -0.131471 -5.91364e-23)
(0.60381 -0.101632 -1.26783e-22)
(0.334707 -0.0625782 1.58858e-22)
(0.0555934 -0.011769 1.13401e-21)
(0.0154973 0.000223217 -5.85092e-22)
(0.0139233 -0.00658727 0)
(-0.000403572 0.00129076 -1.27124e-20)
(0.00339887 -0.000280652 -1.73523e-23)
(0.00211769 -0.00254395 0)
(-0.0012434 0.00117532 1.3557e-20)
(-0.000281315 -6.87557e-05 -1.15434e-20)
(0.000378014 4.28548e-05 -1.04854e-20)
(-1.18863e-05 -0.000590271 0)
(0.152856 -0.029516 -1.74198e-19)
(0.0214558 -0.00664949 -2.60456e-24)
(0.0213658 -0.00662269 1.26176e-21)
(0.0651385 -0.0203432 -8.56028e-24)
(0.0648898 -0.0202588 1.7215e-23)
(0.129414 -0.0408508 6.18666e-23)
(0.201289 -0.0646983 7.77079e-24)
(0.304772 -0.0989663 -2.31855e-21)
(0.189017 -0.0592743 4.30214e-21)
(0.125507 -0.0397127 -4.78469e-21)
(0.0640691 -0.0200075 2.22878e-21)
(0.064374 -0.0201191 -8.62844e-24)
(0.0211264 -0.00654791 1.28358e-21)
(0.0212255 -0.00658097 6.20589e-25)
(0.455184 -0.151498 1.6107e-23)
(0.584781 -0.199286 1.42114e-20)
(0.686443 -0.239027 0)
(0.754557 -0.268069 1.1461e-20)
(0.785258 -0.284309 -2.59798e-24)
(0.777046 -0.286565 4.99045e-24)
(0.731594 -0.274852 0)
(0.653933 -0.250305 0)
(0.551579 -0.21509 -2.80947e-24)
(0.433245 -0.172108 -6.17152e-24)
(0.307385 -0.124403 0)
(0.180934 -0.0746015 -4.08303e-24)
(0.0584598 -0.0247043 -1.44262e-23)
(1.00022 -0.0119754 0)
(1.02051 -0.0242423 0)
(1.06353 -0.0271692 -6.56379e-21)
(1.13739 -0.00548982 -6.84663e-26)
(1.24641 0.00606833 2.24425e-20)
(1.34657 -0.0197222 -7.91438e-20)
(1.40943 -0.0593046 0)
(1.42907 -0.0980444 -2.19821e-23)
(1.36314 -0.12941 0)
(1.1618 -0.141313 3.92043e-24)
(0.855641 -0.126798 0)
(0.547473 -0.0930469 1.32837e-22)
(0.305231 -0.0558961 1.50123e-19)
(0.0499505 -0.0094456 1.71729e-19)
(0.0127638 0.000958537 1.2655e-19)
(0.0122126 -0.00514421 -6.43786e-20)
(-0.00102224 0.00156976 -5.93907e-20)
(-0.00178945 -0.000273511 1.29555e-20)
(-0.0016996 0.00122053 1.18257e-20)
(-0.000321231 0.000513015 9.95537e-23)
(-0.00133716 -0.000119584 -8.29399e-23)
(-0.00154129 0.00113281 -9.69259e-23)
(0.139569 -0.0255084 0)
(0.0209645 -0.00649736 -2.42821e-24)
(0.0208678 -0.00646729 -7.88267e-26)
(0.0634103 -0.019819 0)
(0.0629597 -0.0196657 0)
(0.118301 -0.0376688 7.79405e-22)
(0.176216 -0.0561632 3.82471e-21)
(0.293741 -0.0950154 4.71692e-21)
(0.170988 -0.0545966 -3.8572e-21)
(0.100148 -0.0306946 -4.58558e-21)
(0.0610653 -0.019128 0)
(0.0621751 -0.0194774 2.19688e-21)
(0.0206106 -0.00638709 2.60884e-24)
(0.0207275 -0.00642811 0)
(0.443366 -0.147388 -2.44156e-23)
(0.571683 -0.194559 1.43575e-20)
(0.672809 -0.233962 0)
(0.741416 -0.263011 0)
(0.773185 -0.279543 2.60661e-24)
(0.766239 -0.282356 -5.00506e-24)
(0.722171 -0.271234 4.81687e-24)
(0.645943 -0.247205 0)
(0.54504 -0.212504 0)
(0.428193 -0.170069 5.80768e-24)
(0.30381 -0.122932 0)
(0.178834 -0.0737324 0)
(0.0577721 -0.024416 7.1613e-24)
(1.00012 -0.0141147 -2.31951e-24)
(1.01951 -0.0326691 -1.60522e-24)
(1.06182 -0.0411818 8.46882e-21)
(1.13332 -0.0296962 0)
(1.23334 -0.0166719 6.87784e-24)
(1.32374 -0.0317097 0)
(1.38187 -0.0619908 4.24093e-20)
(1.41456 -0.0942257 2.16766e-23)
(1.40483 -0.123683 2.27805e-23)
(1.30199 -0.142271 -9.25638e-20)
(1.07871 -0.141569 9.65618e-23)
(0.783242 -0.119498 -1.10224e-19)
(0.500903 -0.084657 -2.52654e-19)
(0.279583 -0.0497373 0)
(0.0453177 -0.00722081 -1.43663e-22)
(0.00946307 0.00230639 1.16726e-22)
(0.00951957 -0.00370753 0)
(-0.00321979 0.00221062 -4.74611e-20)
(-0.0029122 0.000644198 0)
(-0.00374809 0.00217332 1.52579e-20)
(-0.00292292 0.000601882 2.33431e-22)
(-0.00238715 0.000159773 0)
(-0.00236005 0.00176499 -1.30422e-20)
(-0.000813583 9.09552e-05 -1.14528e-21)
(-0.000555383 0.000333654 -8.4211e-21)
(0.126882 -0.0222012 -3.81637e-23)
(0.0204392 -0.00633688 1.30932e-21)
(0.0202898 -0.00628746 -1.31666e-21)
(0.0587259 -0.0186113 -1.06892e-21)