/*--------------------------------*- C++ -*----------------------------------*\
| =========                 |                                                 |
| \\      /  F ield         | OpenFOAM: The Open Source CFD Toolbox           |
|  \\    /   O peration     | Version:  v1912                                 |
|   \\  /    A nd           | Website:  www.openfoam.com                      |
|    \\/     M anipulation  |                                                 |
\*---------------------------------------------------------------------------*/
FoamFile
{
    version     2.0;
    format      ascii;
    class       volVectorField;
    location    "60";
    object      U;
}
// * * * * * * * * * * * * * * * * * * * * * * * * * * * * * * * * * * * * * //

dimensions      [0 1 -1 0 0 0 0];


internalField   nonuniform List<vector> 
3754
(
(0.0491332 -0.0206867 0)
(0.148693 -0.0612725 4.11547e-24)
(0.0486252 -0.020476 -1.84696e-24)
(0.247736 -0.100035 0)
(0.147163 -0.0606478 -2.0569e-24)
(0.048142 -0.0202674 1.85801e-24)
(0.342428 -0.135479 -1.7445e-21)
(0.245216 -0.0990192 -1.81014e-24)
(0.145691 -0.0600393 -2.16815e-21)
(0.0476788 -0.0200639 0)
(0.42716 -0.16559 1.54313e-21)
(0.338955 -0.134095 -1.7355e-21)
(0.242752 -0.0980221 1.78686e-21)
(0.144239 -0.0594394 1.99727e-24)
(0.0472193 -0.0198627 0)
(0.495241 -0.18807 -1.46129e-24)
(0.422797 -0.163873 1.53745e-21)
(0.33554 -0.132741 0)
(0.240332 -0.0970524 -2.78598e-26)
(0.14281 -0.0588461 -2.00227e-24)
(0.0467755 -0.0196677 0)
(0.540071 -0.200851 -7.18872e-27)
(0.490103 -0.186074 1.51509e-21)
(0.418504 -0.162201 1.52247e-24)
(0.332189 -0.131422 -1.70845e-21)
(0.237937 -0.0960846 -1.77149e-24)
(0.141421 -0.0582655 0)
(0.0463249 -0.0194735 0)
(0.556525 -0.202607 -1.3825e-24)
(0.534298 -0.198638 -1.43206e-21)
(0.48506 -0.18414 0)
(0.4143 -0.16057 1.51196e-21)
(0.328871 -0.130109 -1.61158e-24)
(0.23558 -0.0951271 0)
(0.140041 -0.0576893 0)
(0.0458672 -0.0192798 0)
(0.542227 -0.193152 0)
(0.550277 -0.200242 1.41327e-21)
(0.528643 -0.196502 0)
(0.480113 -0.182248 2.86663e-24)
(0.410132 -0.158951 -4.45155e-24)
(0.325584 -0.128806 0)
(0.233247 -0.0941798 0)
(0.138657 -0.0571129 0)
(0.0454145 -0.0190902 1.65523e-24)
(0.498179 -0.173555 1.35856e-24)
(0.535642 -0.190689 -1.43597e-21)
(0.544157 -0.19797 0)
(0.523096 -0.194417 1.45221e-21)
(0.475216 -0.180379 -2.8701e-24)
(0.406006 -0.157347 5.99428e-26)
(0.322338 -0.127518 0)
(0.230932 -0.093235 0)
(0.137279 -0.0565434 0)
(0.0449702 -0.0189098 -1.66327e-24)
(0.428537 -0.145941 0)
(0.491348 -0.171025 0)
(0.529201 -0.188351 1.43147e-21)
(0.538192 -0.195775 -1.42504e-21)
(0.517642 -0.192368 1.42798e-21)
(0.470377 -0.178529 0)
(0.401928 -0.155758 2.89519e-24)
(0.319112 -0.126232 0)
(0.228638 -0.0923044 0)
(0.135933 -0.0559904 -1.90633e-21)
(0.0445221 -0.0187294 0)
(0.339586 -0.113021 -6.90281e-22)
(0.421436 -0.143329 5.97972e-24)
(0.4847 -0.168682 -1.51819e-21)
(0.523015 -0.186125 5.68426e-24)
(0.532382 -0.193628 -1.39622e-21)
(0.512269 -0.190349 0)
(0.465594 -0.176698 0)
(0.397876 -0.154178 0)
(0.315931 -0.124965 0)
(0.226369 -0.091381 1.56029e-21)
(0.134586 -0.0554447 1.86327e-21)
(0.0440848 -0.0185479 0)
(0.23867 -0.0776219 9.63307e-22)
(0.331976 -0.110265 -7.26918e-25)
(0.414615 -0.141008 2.33412e-25)
(0.478479 -0.1665 0)
(0.517076 -0.18397 0)
(0.526701 -0.191531 -5.46374e-24)
(0.506975 -0.188359 1.37217e-21)
(0.460853 -0.174888 0)
(0.393874 -0.152617 -1.43677e-21)
(0.312762 -0.123704 0)
(0.224124 -0.0904815 -1.52343e-21)
(0.133273 -0.0549106 8.43283e-25)
(0.0436576 -0.0183659 0)
(0.160456 -0.051502 -3.19591e-22)
(0.229397 -0.0744388 -3.5434e-22)
(0.156481 -0.0500791 2.84676e-22)
(0.324876 -0.107925 0)
(0.408567 -0.138939 1.56821e-21)
(0.472672 -0.164432 -1.44814e-21)
(0.511357 -0.181897 0)
(0.52114 -0.18948 -1.34576e-21)
(0.501754 -0.186404 2.57963e-24)
(0.456175 -0.1731 2.67753e-21)
(0.389909 -0.151075 0)
(0.309658 -0.122477 1.4913e-21)
(0.221924 -0.0895973 -1.84547e-26)
(0.131977 -0.0543804 -8.44772e-25)
(0.0432431 -0.018186 0)
(0.106808 -0.0338696 -1.59632e-24)
(0.15039 -0.0477395 2.81029e-22)
(0.221539 -0.0718757 2.08188e-22)
(0.144019 -0.0462082 3.24463e-22)
(0.103238 -0.0327843 -1.88736e-22)
(0.319224 -0.105997 -1.81753e-21)
(0.403187 -0.137059 1.60263e-21)
(0.467209 -0.162489 -5.62485e-24)
(0.505821 -0.179895 0)
(0.515696 -0.187479 -2.62668e-24)
(0.496613 -0.184481 -1.29284e-21)
(0.451564 -0.171345 -1.29868e-24)
(0.386014 -0.149561 -1.31676e-21)
(0.306599 -0.121267 6.83616e-25)
(0.219771 -0.088734 -7.50353e-25)
(0.130712 -0.0538554 0)
(0.0428587 -0.0180196 0)
(0.0659179 -0.0207557 -9.12959e-23)
(0.0958477 -0.0298462 0)
(0.139552 -0.0446304 0)
(0.216772 -0.0701351 4.75695e-22)
(0.137093 -0.0437359 -7.48484e-22)
(0.0868633 -0.0277166 -7.2318e-23)
(0.0623942 -0.0196668 2.51628e-24)
(0.0645922 -0.0204772 0)
(0.314648 -0.104422 6.83649e-24)
(0.398314 -0.13536 -1.11033e-25)
(0.462017 -0.160652 1.09249e-25)
(0.500454 -0.177963 0)
(0.51036 -0.185524 0)
(0.491555 -0.182593 0)
(0.447025 -0.169616 0)
(0.382178 -0.148074 -6.54078e-25)
(0.303614 -0.120091 -6.84268e-25)
(0.21767 -0.0878848 -7.11826e-25)
(0.129515 -0.0533536 1.69247e-21)
(0.0424626 -0.0178521 0)
(0.038613 -0.0120883 0)
(0.0585956 -0.0183723 0)
(0.0519283 -0.0153672 8.95327e-24)
(0.0826277 -0.0261303 -7.73954e-23)
(0.135345 -0.0430424 -1.464e-21)
(0.213552 -0.0690505 -4.58763e-22)
(0.134304 -0.0426935 7.27685e-22)
(0.0809734 -0.0254551 4.03583e-22)
(0.0417045 -0.0133709 9.29489e-23)
(0.0450448 -0.0143016 3.15639e-24)
(0.0361505 -0.0114094 -7.70919e-23)
(0.0378171 -0.0119074 8.13456e-23)
(0.310706 -0.103088 0)
(0.393795 -0.133799 -1.49068e-21)
(0.457056 -0.158903 5.54843e-24)
(0.495231 -0.176089 0)
(0.50513 -0.183613 1.23888e-24)
(0.486588 -0.180741 1.26946e-21)
(0.442554 -0.167918 -1.28243e-21)
(0.378433 -0.146624 1.32426e-21)
(0.3007 -0.118939 1.38685e-21)
(0.21564 -0.087058 -1.3817e-21)
(0.128331 -0.0528594 1.64096e-21)
(0.0420829 -0.0176928 0)
(0.0124892 -0.00388255 0)
(0.0335105 -0.0101429 -1.10852e-22)
(0.0229165 -0.00550273 -6.57949e-24)
(0.0399229 -0.0125642 1.10817e-22)
(0.0391188 -0.0122728 -1.60928e-24)
(0.0800546 -0.0251372 7.98594e-22)
(0.133294 -0.0423789 7.15661e-22)
(0.210956 -0.0682433 4.38707e-22)
(0.132602 -0.0421848 7.48117e-22)
(0.0794853 -0.0249423 -6.54283e-22)
(0.038605 -0.0120343 7.95105e-25)
(0.0388055 -0.0121106 -3.03456e-22)
(0.0138303 -0.00450412 -6.79006e-23)
(0.0153379 -0.00505161 0)
(0.0116022 -0.0037182 5.48898e-23)
(0.0122552 -0.00382298 -5.7488e-23)
(0.307168 -0.101904 1.71126e-21)
(0.389529 -0.132331 1.45779e-21)
(0.452265 -0.157225 2.67445e-24)
(0.490144 -0.174271 1.29318e-21)
(0.500004 -0.181743 -1.24985e-21)
(0.481699 -0.178926 1.21728e-21)
(0.43819 -0.166261 -1.21205e-21)
(0.374779 -0.145208 6.38166e-23)
(0.297872 -0.117815 0)
(0.213672 -0.0862568 -1.33951e-21)
(0.127194 -0.0523828 0)
(0.0417105 -0.017538 0)
(0.0108748 -0.00352311 6.89308e-23)
(0.00637282 -0.00147739 2.11526e-24)
(0.012867 -0.0040503 -7.14391e-23)
(0.0125325 -0.00390855 -1.30526e-22)
(0.0384228 -0.0119776 -2.0628e-22)
(0.0383302 -0.011955 -7.99347e-25)
(0.0790238 -0.0248117 -6.42579e-22)
(0.13177 -0.0419419 0)
(0.208667 -0.0675257 4.32633e-22)
(0.131214 -0.0417758 -2.59126e-23)
(0.0786173 -0.0246934 -1.56278e-22)
(0.0381864 -0.0118958 8.04549e-25)
(0.0382163 -0.0119128 -4.56389e-27)
(0.0123666 -0.00383075 -1.29898e-22)
(0.0124272 -0.00385844 1.15472e-24)
(0.303872 -0.100807 -3.27535e-21)
(0.385471 -0.130948 2.90635e-24)
(0.44763 -0.155604 -1.37526e-21)
(0.485167 -0.172495 -1.268e-21)
(0.494974 -0.179915 5.94659e-25)
(0.476921 -0.177147 -5.96783e-25)
(0.433921 -0.16464 -2.40232e-21)
(0.371223 -0.143827 -1.25374e-21)
(0.295132 -0.116725 0)
(0.211763 -0.0854743 0)
(0.126088 -0.0519249 -7.17909e-25)
(0.0413393 -0.0173805 1.36174e-21)
(0.0123177 -0.00381979 -1.32035e-22)
(0.0122889 -0.00381318 -1.32588e-22)
(0.0380601 -0.01186 0)
(0.0379906 -0.0118491 -2.04441e-22)
(0.078221 -0.0245867 2.45581e-24)
(0.130461 -0.0415493 -7.23636e-22)
(0.206538 -0.0668527 2.66372e-21)
(0.129922 -0.041378 6.90138e-25)
(0.0778603 -0.024471 -6.4077e-22)
(0.0378618 -0.011808 -2.03504e-22)
(0.037905 -0.0118178 2.06187e-22)
(0.0122595 -0.00379701 1.34345e-22)
(0.0122589 -0.0038039 -1.33736e-22)
(0.300776 -0.0997806 -3.18973e-24)
(0.381558 -0.12961 0)
(0.443107 -0.154028 1.34573e-21)
(0.4803 -0.170765 -1.24393e-21)
(0.490047 -0.178121 -5.95233e-25)
(0.47224 -0.175408 2.34616e-21)
(0.429764 -0.16306 1.14643e-21)
(0.367764 -0.14248 5.7271e-25)
(0.292469 -0.115662 0)
(0.209922 -0.0847247 0)
(0.125001 -0.051472 1.41853e-24)
(0.0410101 -0.0172334 5.953e-23)
(0.0122222 -0.00378581 -1.3334e-22)
(0.0121918 -0.0037808 1.35702e-22)
(0.0377392 -0.0117741 0)
(0.0376859 -0.0117571 -7.9331e-25)
(0.0774882 -0.0243676 6.09428e-25)
(0.129196 -0.0411548 -7.13726e-22)
(0.20452 -0.0661993 -8.3725e-22)
(0.128677 -0.04099 -7.11734e-22)
(0.0771239 -0.0242478 6.00169e-25)
(0.037525 -0.011706 0)
(0.0375895 -0.0117233 -1.99671e-22)
(0.0121535 -0.00376884 1.521e-24)
(0.0121778 -0.00377373 1.3375e-22)
(0.297774 -0.0987828 1.54215e-21)
(0.377753 -0.128319 6.87179e-25)
(0.438699 -0.152495 1.31928e-21)
(0.475518 -0.169062 0)
(0.485212 -0.176363 -1.1669e-21)
(0.467668 -0.173708 0)
(0.425715 -0.161519 1.11184e-24)
(0.364417 -0.141176 1.18146e-21)
(0.289911 -0.11464 0)
(0.208137 -0.0839935 -1.33429e-21)
(0.123956 -0.051031 -2.83692e-21)
(0.0406758 -0.0170938 0)
(0.0121336 -0.00376351 -5.25996e-25)
(0.0121134 -0.00375559 -1.33718e-22)
(0.0373983 -0.0116685 -1.99859e-22)
(0.0373483 -0.0116551 0)
(0.0767614 -0.0241389 -6.00714e-25)
(0.127985 -0.0407683 7.02918e-22)
(0.202541 -0.0655638 -1.75863e-21)
(0.12748 -0.0406019 7.01685e-22)
(0.0764066 -0.0240277 -1.49493e-22)
(0.0371913 -0.0116037 0)
(0.0372514 -0.0116225 0)
(0.012046 -0.00373532 -1.33794e-22)
(0.0120772 -0.00374187 2.66423e-22)
(0.294885 -0.0978286 0)
(0.374053 -0.12706 -6.88057e-25)
(0.434366 -0.150988 6.3134e-25)
(0.470825 -0.167394 1.18643e-21)
(0.480472 -0.174639 -1.14363e-21)
(0.463203 -0.172044 1.12135e-21)
(0.421781 -0.160017 -1.08158e-21)
(0.361189 -0.139911 0)
(0.287437 -0.113647 1.13371e-21)
(0.206397 -0.0832794 1.20417e-21)
(0.122952 -0.0506155 6.81298e-25)
(0.040341 -0.0169518 -2.41217e-24)
(0.0120205 -0.00372708 1.33687e-22)
(0.0119959 -0.00372065 -1.32906e-22)
(0.0370761 -0.0115685 0)
(0.0370187 -0.0115457 0)
(0.0760414 -0.0239138 -1.48147e-22)
(0.126806 -0.0403939 6.88624e-22)
(0.200655 -0.0649507 4.05774e-22)
(0.126302 -0.0402314 -2.08992e-23)
(0.0757037 -0.0238015 -5.84814e-25)
(0.0368536 -0.0114984 0)
(0.0369046 -0.0115146 1.99079e-22)
(0.0119494 -0.00370497 -1.31864e-22)
(0.0119761 -0.00371186 1.31658e-22)
(0.292064 -0.0968896 0)
(0.370417 -0.125826 -1.33169e-21)
(0.430092 -0.149503 -1.26023e-21)
(0.466198 -0.165751 1.16665e-21)
(0.475821 -0.172945 5.28634e-24)
(0.458847 -0.170417 0)
(0.41798 -0.158557 -1.08896e-21)
(0.358067 -0.138681 0)
(0.285031 -0.112679 -1.11616e-24)
(0.204713 -0.0825926 0)
(0.121959 -0.050204 1.39523e-21)
(0.0400321 -0.0168194 1.28016e-21)
(0.0119223 -0.00369652 -1.3146e-22)
(0.0118904 -0.00368381 -1.30362e-22)
(0.036724 -0.0114594 1.97162e-22)
(0.0366578 -0.0114429 7.62305e-25)
(0.0753694 -0.0237003 5.85487e-25)
(0.125649 -0.0400228 -6.58276e-22)
(0.198799 -0.0643496 -3.97063e-22)
(0.125172 -0.0398624 -6.77659e-22)
(0.0750268 -0.0235926 -6.02147e-22)
(0.0365235 -0.01139 0)
(0.0365784 -0.0114123 -7.62936e-25)
(0.0118346 -0.0036691 -1.30803e-22)
(0.0118527 -0.00367399 1.30292e-22)
(0.289284 -0.0959699 1.53357e-21)
(0.366818 -0.124605 0)
(0.425875 -0.148041 0)
(0.461632 -0.164126 -1.13264e-21)
(0.471258 -0.171278 2.13704e-24)
(0.454613 -0.168822 1.03098e-21)
(0.414291 -0.157131 5.16278e-25)
(0.355035 -0.137486 0)
(0.282699 -0.111744 5.50836e-25)
(0.203074 -0.0819263 -1.13228e-21)
(0.121 -0.0498064 -2.5922e-21)
(0.0397234 -0.0166866 0)
(0.011806 -0.00366034 0)
(0.0117779 -0.00365388 -1.29841e-22)
(0.036387 -0.0113528 0)
(0.0363381 -0.0113364 0)
(0.0746869 -0.0234823 4.53257e-22)
(0.124533 -0.0396683 0)
(0.196966 -0.063758 0)
(0.124047 -0.0395091 2.28883e-23)
(0.0743605 -0.0233776 -2.86097e-22)
(0.0362006 -0.0112939 -1.90646e-22)
(0.0362471 -0.0113077 7.46954e-25)
(0.0117278 -0.00363383 -1.28861e-22)
(0.0117613 -0.00364541 1.29182e-22)
(0.286534 -0.0950599 0)
(0.363254 -0.123397 -2.50892e-24)
(0.421678 -0.146583 0)
(0.457115 -0.162514 0)
(0.466777 -0.169627 0)
(0.450481 -0.167256 5.17124e-25)
(0.410711 -0.155743 -1.02596e-21)
(0.352097 -0.136326 0)
(0.280425 -0.110836 1.11695e-21)
(0.201477 -0.0812778 1.09954e-21)
(0.120058 -0.0494115 1.31114e-21)
(0.0394053 -0.0165513 1.19517e-21)
(0.0116881 -0.00362405 -1.28589e-22)
(0.0116708 -0.00361726 -1.28205e-22)
(0.0360845 -0.0112574 1.9149e-22)
(0.0360207 -0.011236 7.39187e-25)
(0.0740266 -0.0232761 2.24481e-24)
(0.123417 -0.0393141 0)
(0.195158 -0.0631745 -3.81877e-22)
(0.122949 -0.0391574 6.26369e-22)
(0.0737026 -0.0231736 5.80063e-22)
(0.0358784 -0.0111896 1.89471e-22)
(0.0359405 -0.0112169 1.90073e-22)
(0.0116219 -0.00360361 9.81676e-25)
(0.0116495 -0.00360948 1.27158e-22)
(0.283802 -0.0941539 -2.76011e-24)
(0.35969 -0.122189 2.51087e-24)
(0.417482 -0.145123 -4.3976e-24)
(0.452623 -0.160897 2.02801e-24)
(0.462375 -0.167991 1.92994e-24)
(0.44646 -0.165719 9.72763e-22)
(0.407229 -0.154389 0)
(0.349228 -0.135198 5.21284e-23)
(0.278211 -0.109952 0)
(0.199898 -0.0806321 -1.06473e-21)
(0.119115 -0.0490171 1.13701e-22)
(0.0390866 -0.0164153 4.30524e-24)
(0.0116037 -0.00359637 -1.26984e-22)
(0.0115764 -0.00358635 0)
(0.0357484 -0.0111512 0)
(0.0357119 -0.0111369 0)
(0.0733887 -0.0230766 0)
(0.122335 -0.0389724 0)
(0.193361 -0.0625924 -3.70716e-22)
(0.121867 -0.038814 6.33937e-22)
(0.0730537 -0.0229701 -5.71119e-22)
(0.0355708 -0.0110953 -1.82905e-22)
(0.0356246 -0.0111151 0)
(0.0115255 -0.00357215 -2.45064e-25)
(0.0115523 -0.00358346 -1.27061e-22)
(0.281057 -0.093245 1.35759e-21)
(0.356075 -0.120964 4.71918e-24)
(0.41324 -0.143639 1.09289e-21)
(0.448149 -0.15927 1.00419e-21)
(0.458042 -0.166358 -1.92685e-24)
(0.442525 -0.164211 9.27581e-25)
(0.403826 -0.153072 -9.4618e-22)
(0.346428 -0.1341 0)
(0.276015 -0.109073 0)
(0.198325 -0.0799876 -1.03171e-21)
(0.118171 -0.0486202 -1.22365e-21)
(0.0387743 -0.0162802 1.05905e-21)
(0.0114874 -0.00356016 -1.25139e-22)
(0.0114714 -0.00355329 1.24752e-22)
(0.0354627 -0.01106 0)
(0.0354143 -0.0110483 0)
(0.0727491 -0.0228774 2.15891e-24)
(0.12125 -0.0386226 -2.38934e-24)
(0.191568 -0.0620114 -1.18858e-21)
(0.120782 -0.0384684 1.21999e-21)
(0.072429 -0.0227751 -1.37357e-22)
(0.0352597 -0.0109972 -1.77984e-22)
(0.0353212 -0.0110245 -7.07595e-25)
(0.0114272 -0.00354158 3.78665e-25)
(0.0114465 -0.0035484 -1.24347e-22)
(0.278263 -0.092321 2.6916e-24)
(0.352365 -0.119704 -1.20884e-21)
(0.408928 -0.14211 -1.06964e-21)
(0.443662 -0.157608 9.60696e-22)
(0.453764 -0.164737 -4.57769e-25)
(0.438665 -0.162736 -9.26184e-25)
(0.400493 -0.151787 1.8196e-24)
(0.343657 -0.133014 -3.685e-24)
(0.273833 -0.108198 0)
(0.196758 -0.0793418 -8.89217e-23)
(0.117225 -0.0482179 4.31829e-24)
(0.0384469 -0.0161422 -1.01828e-21)
(0.011406 -0.00353254 1.23461e-22)
(0.0113772 -0.00352722 -1.23225e-22)
(0.0351445 -0.0109614 1.77788e-22)
(0.0351053 -0.0109531 -6.97155e-25)
(0.0721174 -0.022675 0)
(0.120188 -0.0382875 -5.8979e-22)
(0.189746 -0.0614191 3.57398e-22)
(0.11972 -0.0381293 -6.0443e-22)
(0.0717913 -0.0225721 -5.47461e-22)
(0.0349616 -0.0109065 0)
(0.0350177 -0.0109305 1.79691e-22)
(0.0113335 -0.00351097 9.74717e-25)
(0.0113592 -0.00352431 -1.23127e-22)
(0.275343 -0.0913555 -5.0272e-24)
(0.348472 -0.118367 -1.11213e-21)
(0.404474 -0.140498 -1.0212e-21)
(0.43915 -0.155915 0)
(0.449534 -0.163139 4.57041e-25)
(0.434877 -0.161303 0)
(0.397205 -0.150525 -5.34811e-24)
(0.340898 -0.131931 7.25211e-24)
(0.271655 -0.107322 9.23662e-22)
(0.195196 -0.0786941 -3.86424e-24)
(0.116262 -0.0478093 -1.51551e-25)
(0.038115 -0.0160049 9.89738e-22)
(0.0112933 -0.00349767 -1.22003e-22)
(0.011272 -0.00349538 -1.21464e-22)
(0.0348644 -0.0108736 -6.83346e-25)
(0.0348131 -0.0108603 3.4425e-25)
(0.0715014 -0.0224835 5.43847e-22)
(0.119124 -0.0379471 -5.93168e-22)
(0.187845 -0.0608007 3.40685e-22)
(0.118646 -0.0377828 0)
(0.0711827 -0.0223825 -2.57443e-24)
(0.0346625 -0.0108108 0)
(0.0347099 -0.0108281 3.40069e-25)
(0.0112396 -0.00348315 -1.19818e-22)
(0.0112563 -0.00349249 0)
(0.272158 -0.090303 5.92557e-23)
(0.344294 -0.116908 1.05062e-21)
(0.399849 -0.138779 9.31443e-22)
(0.434623 -0.154219 0)
(0.445366 -0.161591 3.54197e-24)
(0.431146 -0.159901 0)
(0.393942 -0.14927 3.52885e-24)
(0.338156 -0.130849 -3.56743e-24)
(0.269492 -0.106443 -9.62397e-22)
(0.193611 -0.0780329 3.8657e-24)
(0.115299 -0.0474016 -8.20304e-24)
(0.037771 -0.0158616 0)
(0.0112111 -0.00347157 2.324e-25)
(0.011187 -0.00346775 -1.18585e-22)
(0.0345662 -0.0107854 0)
(0.0345137 -0.0107675 0)
(0.070876 -0.0222872 1.2754e-22)
(0.118064 -0.0376065 -5.58625e-22)
(0.185718 -0.0601197 1.74617e-21)
(0.117547 -0.0374277 -5.65377e-22)
(0.0705671 -0.0221851 -1.24696e-22)
(0.0343766 -0.0107205 3.29644e-25)
(0.0344295 -0.0107448 -3.2942e-25)
(0.0111328 -0.00344878 1.17222e-22)
(0.0111642 -0.00345994 -1.17982e-22)
(0.268575 -0.089107 -1.22358e-21)
(0.339677 -0.115225 -1.03383e-21)
(0.395057 -0.136986 4.66137e-25)
(0.430137 -0.152585 -9.18584e-22)
(0.441283 -0.160092 -9.61058e-26)
(0.427468 -0.158516 0)
(0.390704 -0.148017 -8.75838e-22)
(0.335428 -0.129764 8.40846e-22)
(0.267313 -0.105553 3.5469e-24)
(0.192025 -0.0773671 -3.61099e-24)
(0.114316 -0.046984 -1.06348e-21)
(0.0374225 -0.0157121 -1.80273e-24)
(0.0111118 -0.00344466 -1.16961e-22)
(0.0110895 -0.00343862 -1.16109e-22)
(0.0342707 -0.0106926 0)
(0.0342337 -0.010681 -1.67686e-22)
(0.0702717 -0.0220922 3.90234e-22)
(0.116905 -0.0372362 -5.56505e-22)
(0.183173 -0.0593036 0)
(0.116288 -0.037027 5.22518e-22)
(0.0699426 -0.0219885 0)
(0.0340869 -0.010631 2.88857e-24)
(0.0341442 -0.010652 3.16033e-25)
(0.011054 -0.003423 1.14148e-22)
(0.0110719 -0.00343315 -1.15752e-22)
(0.264169 -0.0875803 -5.2453e-22)
(0.334582 -0.113306 -9.12003e-22)
(0.390259 -0.13528 9.77065e-22)
(0.425794 -0.151034 3.51713e-24)
(0.4373 -0.158625 -3.44698e-24)
(0.423831 -0.157137 8.27199e-22)
(0.387478 -0.146762 3.29995e-24)
(0.332697 -0.128673 8.53681e-22)
(0.265123 -0.104651 0)
(0.190424 -0.0766929 8.68849e-22)
(0.113314 -0.0465537 1.03584e-21)
(0.0370795 -0.0155651 5.32824e-24)
(0.0110209 -0.00341626 0)
(0.0110071 -0.00341357 0)
(0.0339874 -0.0106032 -3.17707e-25)
(0.0339393 -0.0105858 1.62601e-22)
(0.0696244 -0.0218866 1.1592e-22)
(0.115531 -0.0368062 5.18516e-22)
(0.179568 -0.0581509 7.66985e-22)
(0.114619 -0.0365081 -3.94637e-24)
(0.0692673 -0.0217749 -5.9299e-22)
(0.0338029 -0.0105391 0)
(0.0338621 -0.0105668 0)
(0.0109501 -0.00339169 2.23829e-22)
(0.0109827 -0.00340269 -1.12102e-22)
(0.258604 -0.0854879 1.05347e-21)
(0.32938 -0.111507 9.88195e-22)
(0.385723 -0.133712 -9.60708e-22)
(0.421639 -0.149538 -3.5224e-24)
(0.433406 -0.157179 -8.30228e-22)
(0.42023 -0.155765 8.09997e-22)
(0.384263 -0.145505 -7.79972e-22)
(0.329951 -0.127567 -3.08444e-24)
(0.262931 -0.103743 8.56627e-22)
(0.188809 -0.0760064 -8.39347e-22)
(0.11232 -0.0461231 -1.01e-21)
(0.0367172 -0.0154106 -3.52945e-24)
(0.0109297 -0.00338785 -1.11184e-22)
(0.0109089 -0.00338217 -1.10245e-22)
(0.0336952 -0.0105121 -1.57734e-22)
(0.0336524 -0.0104969 3.00806e-25)
(0.0688981 -0.0216499 -4.80966e-22)
(0.113317 -0.0361889 -4.92244e-22)
(0.17303 -0.0558095 4.19395e-24)
(0.111502 -0.0355466 3.27772e-24)
(0.068382 -0.0215039 -1.06623e-22)
(0.0335258 -0.0104528 2.27174e-24)
(0.0335681 -0.0104736 2.92772e-25)
(0.0108694 -0.00336445 0)
(0.0108956 -0.00337797 -1.09815e-22)
(0.252655 -0.0835174 -1.15235e-21)
(0.324697 -0.109948 1.06768e-21)
(0.381559 -0.132246 7.39197e-24)
(0.41766 -0.148089 8.506e-22)
(0.429589 -0.155757 -7.98075e-22)
(0.416665 -0.154401 0)
(0.381062 -0.144244 7.69744e-22)
(0.327222 -0.126457 -7.51052e-22)
(0.260733 -0.102822 8.22867e-22)
(0.187198 -0.0753117 8.21435e-22)
(0.111305 -0.0456762 9.83185e-22)
(0.03634 -0.0152509 0)
(0.0108301 -0.00335686 -1.07515e-22)
(0.0108155 -0.00335382 -1.06892e-22)
(0.0334364 -0.010426 2.93573e-25)
(0.0333745 -0.0104005 0)
(0.0676853 -0.021317 1.18415e-22)
(0.108195 -0.0345118 -2.3477e-22)
(0.165108 -0.0533827 -1.43877e-22)
(0.102763 -0.0324125 -3.01794e-24)
(0.0665717 -0.0209968 1.37849e-23)
(0.0332044 -0.0103542 1.45019e-22)
(0.0332842 -0.0103831 -1.45129e-22)
(0.0107816 -0.0033385 2.08538e-22)
(0.0108033 -0.00334874 -1.0559e-22)
(0.247868 -0.0819316 1.16127e-21)
(0.3207 -0.108563 0)
(0.377693 -0.130862 0)
(0.413826 -0.146689 6.1801e-24)
(0.42585 -0.154356 7.59886e-22)
(0.413142 -0.153043 -1.47585e-21)
(0.377888 -0.14298 2.92794e-24)
(0.3245 -0.125337 2.76677e-23)
(0.258538 -0.101887 8.02003e-22)
(0.185564 -0.0745986 -7.99607e-22)
(0.110255 -0.0452165 -9.64646e-22)
(0.0359596 -0.0150916 -1.70303e-24)
(0.0107628 -0.00333357 -1.03261e-22)
(0.0107373 -0.00332424 -1.01671e-22)
(0.0330668 -0.0103212 3.14848e-24)
(0.0329302 -0.0102782 1.09177e-24)
(0.0643572 -0.0202737 1.39481e-22)
(0.0965344 -0.0307475 2.37974e-22)
(0.16044 -0.0516753 -1.17882e-21)
(0.0930223 -0.0297154 2.4998e-22)
(0.0572066 -0.0176691 0)
(0.0324378 -0.0101498 6.70531e-23)
(0.0327595 -0.0102337 -1.08903e-24)
(0.0106899 -0.00331077 -9.91691e-23)
(0.0107162 -0.00331957 1.0203e-22)
(0.244321 -0.0806928 -9.01796e-24)
(0.317199 -0.107325 0)
(0.374065 -0.129563 0)
(0.410123 -0.145332 -7.85759e-22)
(0.422185 -0.152973 7.29904e-22)
(0.409663 -0.151689 1.37394e-25)
(0.37474 -0.141711 1.27395e-23)
(0.321787 -0.124204 -7.00388e-22)
(0.256337 -0.10094 -2.92143e-24)
(0.183908 -0.0738735 1.62705e-21)
(0.109204 -0.0447551 0)
(0.035564 -0.0149239 1.70696e-24)
(0.0106557 -0.00330234 8.99387e-25)
(0.0106167 -0.00328964 -9.57603e-23)
(0.0318734 -0.0100577 4.56202e-24)
(0.0306689 -0.0095103 6.86373e-23)
(0.0481985 -0.0155597 5.17337e-23)
(0.0912513 -0.0289067 -2.48367e-22)
(0.157897 -0.0507224 2.71908e-22)
(0.0903289 -0.0285345 -3.78982e-24)
(0.045167 -0.0142615 -3.37546e-22)
(0.0190797 -0.00447781 0)
(0.028074 -0.00835446 0)
(0.010465 -0.00324631 -1.39551e-22)
(0.0105783 -0.00327452 9.49766e-23)
(0.24147 -0.079702 1.00269e-21)
(0.314021 -0.106209 0)
(0.370632 -0.128332 3.02667e-24)
(0.406533 -0.144008 0)
(0.418592 -0.151607 0)
(0.406232 -0.150336 -6.66483e-22)
(0.371608 -0.140432 -6.70601e-22)
(0.319084 -0.123061 0)
(0.254125 -0.0999774 -7.14615e-22)
(0.182252 -0.0731384 8.3424e-22)
(0.108129 -0.0442758 -9.46808e-22)
(0.0351573 -0.0147546 0)
(0.0102727 -0.00322 9.46523e-23)
(0.00980281 -0.00313348 4.73399e-23)
(0.012814 -0.0040301 -7.18566e-23)
(0.0114055 -0.00378403 0)
(0.044363 -0.013849 0)
(0.0896183 -0.0282879 3.78774e-24)
(0.156115 -0.0501553 -1.45075e-21)
(0.0891981 -0.0281559 -4.88595e-22)
(0.043947 -0.013689 -1.01948e-22)
(0.0104383 -0.00327443 1.1052e-22)
(0.0107076 -0.00338147 -5.48089e-23)
(0.00527908 -0.00119035 0)
(0.00912906 -0.0029299 5.28342e-23)
(0.239001 -0.078863 0)
(0.311088 -0.105183 8.21531e-22)
(0.367348 -0.127149 -5.8829e-24)
(0.403047 -0.142714 0)
(0.41507 -0.150252 -6.44508e-22)
(0.402842 -0.148985 6.33922e-22)
(0.368516 -0.13915 2.46276e-24)
(0.316391 -0.121903 0)
(0.251921 -0.0990004 -7.03156e-22)
(0.180575 -0.0723836 7.6615e-22)
(0.107023 -0.0437839 0)
(0.0347385 -0.0145766 0)
(0.0103954 -0.00323098 1.01663e-22)
(0.0103544 -0.00320864 0)
(0.043693 -0.0136175 -3.31259e-24)
(0.0887098 -0.0280354 5.34833e-26)
(0.154599 -0.0497006 2.58388e-22)
(0.0883922 -0.0279398 4.56687e-22)
(0.0434987 -0.0135535 0)
(0.0103155 -0.00319505 8.46754e-25)
(0.010323 -0.00319701 -1.00962e-22)
(0.236783 -0.0781158 -9.58009e-22)
(0.308329 -0.104216 -7.70942e-22)
(0.364195 -0.126007 2.85526e-24)
(0.399653 -0.141441 6.59128e-22)
(0.411614 -0.148907 6.02734e-22)
(0.399506 -0.147632 5.95138e-22)
(0.365444 -0.137854 -6.1084e-22)
(0.31371 -0.12073 6.52418e-22)
(0.249701 -0.0980037 7.19867e-22)
(0.178863 -0.0716086 -7.82949e-25)
(0.105902 -0.0432788 -9.56737e-22)
(0.034309 -0.0143929 0)
(0.0102972 -0.00319026 1.96844e-25)
(0.0102911 -0.00318808 -1.00874e-22)
(0.0433323 -0.0135179 -9.85896e-23)
(0.0879627 -0.0278293 0)
(0.153253 -0.049279 0)
(0.0876583 -0.0277312 -4.27327e-22)
(0.0431705 -0.0134605 3.77067e-25)
(0.0102607 -0.00317605 -9.93382e-23)
(0.0102658 -0.00317997 -9.94786e-23)
(0.23472 -0.0774176 8.95338e-22)
(0.305701 -0.103291 0)
(0.361144 -0.124894 -2.47714e-24)
(0.396342 -0.140185 -6.13814e-22)
(0.408225 -0.147567 -5.8464e-22)
(0.396212 -0.146273 5.75069e-22)
(0.362404 -0.136547 -1.17741e-21)
(0.311037 -0.11954 -6.35794e-22)
(0.247473 -0.096988 0)
(0.177132 -0.0708141 7.74546e-22)
(0.104747 -0.0427528 0)
(0.0338562 -0.0142017 0)
(0.0102378 -0.00317316 1.92169e-25)
(0.0102395 -0.00317058 8.22404e-25)
(0.0430147 -0.0134261 3.53231e-25)
(0.0872435 -0.0276137 3.94268e-22)
(0.151992 -0.0488729 -4.5685e-22)
(0.0869752 -0.0275142 0)
(0.0428363 -0.0133697 -7.31559e-25)
(0.010202 -0.0031553 -1.8322e-25)
(0.0102132 -0.00316207 -9.40287e-23)
(0.232762 -0.0767535 3.29486e-24)
(0.303176 -0.102398 2.59166e-24)
(0.358187 -0.123805 2.00711e-25)
(0.393113 -0.138942 5.38564e-22)
(0.404898 -0.146228 0)
(0.392968 -0.144907 5.53672e-22)
(0.359394 -0.135224 0)
(0.308371 -0.118329 1.23897e-24)
(0.245231 -0.0959475 0)
(0.175374 -0.0699953 0)
(0.10356 -0.0422076 -9.99331e-22)
(0.0333773 -0.0140026 1.00928e-21)
(0.0101763 -0.00315286 -9.19974e-23)
(0.010174 -0.00315094 0)
(0.0426705 -0.0133239 -3.61918e-22)
(0.0865683 -0.0273956 3.80951e-22)
(0.150776 -0.0484781 -4.24526e-22)
(0.0862855 -0.0272932 3.71942e-22)
(0.0425079 -0.013265 8.35873e-23)
(0.0101271 -0.00313661 -8.76835e-23)
(0.01014 -0.00314297 -8.92674e-23)
(0.230895 -0.0761156 1.40643e-24)
(0.300751 -0.101532 -6.14395e-22)
(0.355311 -0.122729 -5.73931e-22)
(0.389962 -0.137708 -4.94358e-22)
(0.401638 -0.144887 -9.30276e-25)
(0.389766 -0.143527 -9.6828e-25)
(0.356403 -0.133882 -5.29719e-22)
(0.305704 -0.117091 0)
(0.242966 -0.0948774 -3.48808e-25)
(0.173576 -0.0691463 8.07733e-22)
(0.102325 -0.0416399 -1.03815e-21)
(0.0328784 -0.0137941 5.46672e-25)
(0.0100975 -0.00313016 -8.64833e-23)
(0.0100937 -0.00312617 -8.53013e-23)
(0.0423454 -0.0132173 0)
(0.0859041 -0.0271856 6.94828e-22)
(0.149613 -0.0480945 -1.94122e-22)
(0.0856404 -0.0270884 3.4528e-22)
(0.0421774 -0.0131568 3.0774e-25)
(0.0100477 -0.00311086 -8.26924e-23)
(0.0100589 -0.0031168 -8.37366e-23)
(0.229105 -0.075498 7.13869e-22)
(0.298393 -0.100679 -5.51504e-22)
(0.352528 -0.121671 5.2522e-22)
(0.386885 -0.136475 9.52229e-25)
(0.39844 -0.143539 9.30261e-25)
(0.386613 -0.142135 5.03564e-22)
(0.353438 -0.132518 0)
(0.303039 -0.115828 0)
(0.240671 -0.0937746 3.49046e-25)
(0.171741 -0.0682697 1.7058e-21)
(0.101043 -0.0410454 0)
(0.0323539 -0.0135782 -1.16387e-21)
(0.0100192 -0.00310473 -8.06669e-23)
(0.010014 -0.00310087 -7.91111e-23)
(0.0420231 -0.0131158 -3.15945e-22)
(0.0852674 -0.0269805 3.20504e-25)
(0.148503 -0.0477235 8.36902e-24)
(0.0850057 -0.0268833 3.16697e-22)
(0.0418765 -0.0130678 0)
(0.00998013 -0.00308539 -1.47105e-25)
(0.00999032 -0.00309377 1.53186e-25)
(0.227368 -0.0748945 6.44621e-22)
(0.296122 -0.0998463 0)
(0.349823 -0.120619 -4.22359e-22)
(0.383884 -0.135241 0)
(0.395304 -0.142182 0)
(0.383503 -0.140725 0)
(0.350489 -0.131128 -4.84894e-22)
(0.300366 -0.114532 5.83013e-22)
(0.238353 -0.0926372 -7.32034e-22)
(0.169845 -0.067353 9.00264e-22)
(0.0997149 -0.0404291 5.78571e-25)
(0.0317957 -0.0133528 -5.94662e-25)
(0.00994204 -0.00307905 -7.48289e-23)
(0.00994003 -0.00307766 -7.34252e-23)
(0.0417214 -0.0130215 0)
(0.0846533 -0.0267818 -5.80623e-22)
(0.147422 -0.047366 -1.56964e-22)
(0.0844104 -0.0266841 2.86881e-22)
(0.0415663 -0.01297 -2.58777e-25)
(0.00991159 -0.00306741 0)
(0.00991412 -0.00307226 -7.20673e-23)
(0.225701 -0.0743095 5.22784e-22)
(0.293924 -0.0990214 4.71452e-22)
(0.347193 -0.119567 -6.97804e-25)
(0.380953 -0.134001 -6.70027e-25)
(0.392229 -0.140814 0)
(0.380433 -0.139294 4.59793e-22)
(0.347563 -0.129709 -5.32172e-22)
(0.297672 -0.113194 0)
(0.235987 -0.0914568 -7.59869e-22)
(0.167894 -0.0663991 0)
(0.098316 -0.039785 -1.20891e-24)
(0.0312155 -0.013123 -2.86394e-24)
(0.00987618 -0.00305929 -6.87154e-23)
(0.00986391 -0.00305433 -6.75002e-23)
(0.0414329 -0.01293 2.64684e-22)
(0.0840545 -0.0265873 -9.91991e-25)
(0.146388 -0.0470228 -7.50055e-22)
(0.0838092 -0.0264955 2.56712e-22)
(0.0412845 -0.0128749 0)
(0.00983369 -0.00304378 -1.24214e-25)
(0.00983817 -0.0030482 -6.58133e-23)
(0.224093 -0.0737375 0)
(0.291805 -0.0982024 0)
(0.344644 -0.118514 5.52164e-25)
(0.3781 -0.132759 -2.84207e-22)
(0.389217 -0.139433 0)
(0.377407 -0.137839 0)
(0.344641 -0.128253 0)
(0.294957 -0.111814 -3.09016e-25)
(0.233562 -0.0902286 0)
(0.165875 -0.0654053 0)
(0.0968453 -0.0391199 6.30748e-25)
(0.0306176 -0.012877 -1.53857e-21)
(0.00980688 -0.00303862 -6.26572e-23)
(0.00980549 -0.00303462 -6.1392e-23)
(0.0411447 -0.0128383 -5.49953e-23)
(0.0834747 -0.0264037 0)
(0.145387 -0.0467002 1.15556e-22)
(0.083245 -0.0263144 2.23775e-22)
(0.0409964 -0.012789 -8.75857e-25)
(0.00976963 -0.00302134 0)
(0.00977864 -0.00302706 -5.90451e-23)
(0.222556 -0.0731735 -3.60216e-22)
(0.289764 -0.0973772 0)
(0.342168 -0.117459 3.04599e-22)
(0.375322 -0.131512 0)
(0.386267 -0.138033 0)
(0.374416 -0.136353 -3.25247e-22)
(0.341721 -0.126756 -2.39799e-25)
(0.292218 -0.11039 3.09143e-25)
(0.23109 -0.0889528 8.00696e-22)
(0.163765 -0.0643634 1.08756e-21)
(0.0952947 -0.0384518 0)
(0.0301309 -0.0125358 1.73044e-21)
(0.00974104 -0.003017 0)
(0.00973966 -0.00301403 9.68739e-25)
(0.0408621 -0.0127511 0)
(0.0829071 -0.0262305 -2.01169e-25)
(0.144426 -0.0464045 4.23611e-22)
(0.0826708 -0.0261541 -1.89706e-22)
(0.0407227 -0.0127037 0)
(0.00969782 -0.00300149 -5.13694e-23)
(0.00970834 -0.00300687 -5.26767e-23)
(0.221103 -0.0725914 1.19121e-25)
(0.287784 -0.0965502 0)
(0.339783 -0.116415 0)
(0.372624 -0.130255 0)
(0.383379 -0.136612 3.20262e-22)
(0.371456 -0.134832 -1.70906e-25)
(0.338806 -0.125215 2.39861e-25)
(0.289441 -0.108911 -9.55226e-23)
(0.228534 -0.0876208 -9.15333e-22)
(0.161593 -0.0632943 0)
(0.0936256 -0.0376942 0)
(0.0303347 -0.012206 0)
(0.00967353 -0.002997 0)
(0.00966953 -0.00299304 -4.7806e-23)
(0.0405812 -0.0126659 0)
(0.0823421 -0.0261033 -1.5927e-22)
(0.143639 -0.045968 -1.67482e-25)