/*--------------------------------*- C++ -*----------------------------------*\
| =========                 |                                                 |
| \\      /  F ield         | OpenFOAM: The Open Source CFD Toolbox           |
|  \\    /   O peration     | Version:  v1912                                 |
|   \\  /    A nd           | Website:  www.openfoam.com                      |
|    \\/     M anipulation  |                                                 |
\*---------------------------------------------------------------------------*/
FoamFile
{
    version     2.0;
    format      ascii;
    class       volVectorField;
    location    "370";
    object      U;
}
// * * * * * * * * * * * * * * * * * * * * * * * * * * * * * * * * * * * * * //

dimensions      [0 1 -1 0 0 0 0];


internalField   nonuniform List<vector> 
3675
(
(0.0775278 -0.0262016 0)
(0.232647 -0.0771086 0)
(0.0770034 -0.0260351 6.78166e-22)
(0.231162 -0.0766272 8.08573e-22)
(0.0764883 -0.0258631 0)
(0.382947 -0.124495 -6.61733e-22)
(0.229711 -0.0761524 7.10107e-25)
(0.0759993 -0.0256983 0)
(0.527325 -0.168205 0)
(0.380648 -0.123755 0)
(0.228292 -0.0756841 0)
(0.0755121 -0.025537 0)
(0.657609 -0.205913 0)
(0.524308 -0.167244 0)
(0.378381 -0.123025 0)
(0.226888 -0.0752262 0)
(0.0750373 -0.0253783 -5.01111e-22)
(0.766154 -0.235553 0)
(0.653934 -0.204748 -5.51209e-25)
(0.521297 -0.16629 0)
(0.376155 -0.122313 0)
(0.225523 -0.0747767 4.83623e-22)
(0.0745649 -0.0252201 0)
(0.845508 -0.255247 0)
(0.761905 -0.234203 -2.89812e-22)
(0.650304 -0.203605 5.50696e-25)
(0.518334 -0.165351 0)
(0.373939 -0.121597 0)
(0.224151 -0.074321 0)
(0.0740904 -0.0250631 0)
(0.889403 -0.263577 -2.89566e-22)
(0.840699 -0.25371 2.71737e-22)
(0.757698 -0.232878 0)
(0.646681 -0.202466 0)
(0.515381 -0.164413 0)
(0.371737 -0.120884 4.33716e-25)
(0.222778 -0.0738696 0)
(0.0736233 -0.024908 6.94833e-22)
(0.893601 -0.259819 5.71261e-22)
(0.883978 -0.261837 0)
(0.83592 -0.252202 0)
(0.75351 -0.231569 -2.54656e-22)
(0.643085 -0.201339 0)
(0.512418 -0.163475 0)
(0.369531 -0.120172 -4.33666e-25)
(0.221419 -0.0734206 -3.54334e-22)
(0.0731524 -0.0247509 0)
(0.856583 -0.244128 -2.90797e-22)
(0.887471 -0.257854 -2.67507e-22)
(0.87858 -0.260133 2.59179e-22)
(0.831169 -0.25072 2.38695e-22)
(0.74931 -0.23026 4.37311e-25)
(0.639462 -0.200204 0)
(0.509452 -0.162532 0)
(0.367327 -0.119458 3.66059e-25)
(0.220038 -0.0729651 0)
(0.0726859 -0.0245947 0)
(0.780077 -0.217668 -5.87632e-25)
(0.849674 -0.241926 2.75078e-22)
(0.881359 -0.255933 -2.59243e-22)
(0.873217 -0.258466 -2.45145e-22)
(0.826411 -0.249245 0)
(0.745109 -0.228953 -4.37037e-25)
(0.635822 -0.199061 0)
(0.506479 -0.161586 0)
(0.365122 -0.118744 -1.03783e-24)
(0.21868 -0.0725155 0)
(0.0722234 -0.0244377 0)
(0.669087 -0.182553 -2.81248e-22)
(0.772362 -0.215234 0)
(0.842756 -0.239779 0)
(0.875313 -0.254076 2.17868e-24)
(0.867887 -0.256824 -2.66358e-24)
(0.821654 -0.247771 2.18483e-22)
(0.740877 -0.227634 -2.07827e-22)
(0.632172 -0.197912 0)
(0.503506 -0.160637 0)
(0.362895 -0.118019 9.80184e-25)
(0.21733 -0.0720673 0)
(0.0717625 -0.0242802 0)
(0.531344 -0.14158 3.21063e-22)
(0.660586 -0.179912 -1.10431e-24)
(0.76454 -0.212856 -2.06683e-24)
(0.835974 -0.237745 2.51334e-22)
(0.869382 -0.252272 -1.87224e-24)
(0.86259 -0.255192 -2.09549e-22)
(0.816883 -0.246292 1.94902e-22)
(0.736616 -0.226305 0)
(0.628497 -0.196754 3.69854e-22)
(0.500512 -0.15968 0)
(0.360704 -0.117307 -3.31426e-22)
(0.21599 -0.0716184 -3.01653e-22)
(0.0713117 -0.0241316 0)
(0.376298 -0.0977424 1.67176e-22)
(0.522028 -0.138794 2.27314e-24)
(0.651728 -0.177283 2.16924e-24)
(0.757005 -0.210678 2.06996e-24)
(0.829453 -0.235802 2.37529e-22)
(0.863567 -0.250498 1.63439e-24)
(0.857314 -0.253568 0)
(0.812091 -0.244809 7.0927e-25)
(0.732351 -0.224976 -3.369e-22)
(0.624829 -0.195599 0)
(0.497541 -0.158728 2.81215e-22)
(0.35853 -0.116593 2.45601e-22)
(0.214661 -0.0711751 0)
(0.0708547 -0.0239808 1.45262e-22)
(0.254004 -0.0649108 -1.457e-22)
(0.366026 -0.0949551 5.71686e-23)
(0.250757 -0.0640163 -1.32208e-22)
(0.511698 -0.135838 0)
(0.643431 -0.174998 2.74811e-22)
(0.750026 -0.208657 -2.51299e-22)
(0.823223 -0.23393 1.66056e-24)
(0.857858 -0.248757 -1.63629e-24)
(0.852059 -0.251953 -1.41793e-24)
(0.807302 -0.243328 -1.37255e-24)
(0.728069 -0.22364 9.74726e-25)
(0.621153 -0.194436 0)
(0.494575 -0.157772 0)
(0.356358 -0.115881 -2.80434e-22)
(0.213346 -0.0707363 0)
(0.0704072 -0.0238302 0)
(0.256366 -0.0653901 1.52601e-22)
(0.169519 -0.042689 2.95534e-23)
(0.245777 -0.0628843 0)
(0.352357 -0.0913321 -7.02595e-23)
(0.238382 -0.0607261 -9.47704e-23)
(0.167278 -0.0421939 -2.10129e-24)
(0.502615 -0.133413 -3.18832e-22)
(0.63623 -0.172977 2.54012e-22)
(0.74358 -0.206754 -2.22484e-22)
(0.817218 -0.232123 -3.20517e-24)
(0.852237 -0.247047 -1.84797e-22)
(0.846835 -0.250349 1.4184e-24)
(0.80251 -0.241845 9.73712e-25)
(0.723798 -0.222304 -3.10333e-25)
(0.617496 -0.193276 -2.99862e-22)
(0.491651 -0.15683 2.3834e-22)
(0.354225 -0.11518 2.58829e-22)
(0.212031 -0.0702979 2.25829e-22)
(0.06997 -0.0236835 0)
(0.17094 -0.0430173 0)
(0.105417 -0.0263027 -3.19122e-25)
(0.105018 -0.0261943 -3.97424e-23)
(0.163527 -0.041296 -2.29581e-23)
(0.228345 -0.0579147 -7.50737e-23)
(0.342252 -0.0885477 7.75118e-23)
(0.2201 -0.0562387 2.38087e-22)
(0.155539 -0.0392146 0)
(0.103633 -0.0259222 3.73648e-23)
(0.104453 -0.0261046 -7.73541e-23)
(0.495635 -0.131458 -1.5295e-23)
(0.629968 -0.171159 2.48759e-22)
(0.737565 -0.204976 -2.00706e-22)
(0.811418 -0.230385 1.93981e-22)
(0.846706 -0.245368 1.71708e-22)
(0.84164 -0.248758 0)
(0.797737 -0.240368 -3.10054e-25)
(0.71954 -0.220972 2.72897e-22)
(0.613863 -0.192123 -2.80745e-22)
(0.488734 -0.155887 -2.19992e-22)
(0.352122 -0.114488 -1.83528e-22)
(0.21076 -0.0698716 2.06367e-22)
(0.0695412 -0.0235395 2.17269e-22)
(0.105785 -0.0263802 3.19199e-25)
(0.10608 -0.0264588 4.24641e-23)
(0.0616598 -0.0152688 -3.52126e-23)
(0.0614346 -0.0152185 0)
(0.102443 -0.0257331 -1.13855e-24)
(0.100445 -0.0252108 1.3336e-24)
(0.141308 -0.0352574 6.92381e-23)
(0.214942 -0.0546777 -1.29173e-22)
(0.336408 -0.0867379 -3.21275e-22)
(0.212123 -0.0537904 -1.80892e-24)
(0.131169 -0.0331235 -1.15764e-22)
(0.0910287 -0.022482 -2.26903e-24)
(0.0970231 -0.024508 1.83993e-24)
(0.0607086 -0.0150773 -5.20805e-25)
(0.0611676 -0.0151625 3.54601e-23)
(0.490103 -0.129874 2.36821e-22)
(0.624339 -0.169529 2.23127e-22)
(0.731876 -0.203306 0)
(0.805786 -0.228703 -3.53667e-22)
(0.841258 -0.243719 6.64941e-25)
(0.836486 -0.247179 0)
(0.79299 -0.238899 -2.71609e-25)
(0.715313 -0.219646 2.55053e-22)
(0.610283 -0.190982 0)
(0.485888 -0.154963 -2.44467e-22)
(0.350034 -0.113795 -1.68073e-22)
(0.209512 -0.069452 6.91681e-23)
(0.0691163 -0.0233973 -7.73617e-23)
(0.0618483 -0.0153197 3.59124e-23)
(0.0620137 -0.0153541 -3.88748e-23)
(0.0198603 -0.0048799 4.48804e-25)
(0.0198114 -0.00487245 2.64058e-23)
(0.0600128 -0.0149511 0)
(0.0587575 -0.0147082 3.24953e-23)
(0.0799639 -0.018829 5.81479e-24)
(0.0702621 -0.0179342 -5.42363e-25)
(0.127182 -0.0318716 2.64846e-23)
(0.210126 -0.0531486 1.8113e-24)
(0.332488 -0.0856553 -2.80284e-22)
(0.208838 -0.0527861 1.63174e-24)
(0.125519 -0.0313265 -1.54858e-24)
(0.0621992 -0.0156935 -3.48528e-23)
(0.0648398 -0.0164006 3.82726e-23)
(0.0517239 -0.0121218 -2.06683e-24)
(0.0563122 -0.0140909 0)
(0.0195994 -0.00482264 1.95538e-25)
(0.019719 -0.0048463 -1.95638e-25)
(0.485389 -0.128555 2.165e-22)
(0.619171 -0.16805 -1.90622e-22)
(0.726458 -0.201722 1.84863e-22)
(0.800312 -0.227072 1.33766e-24)
(0.835885 -0.242094 1.50551e-22)
(0.831373 -0.245614 1.43253e-22)
(0.788273 -0.237436 2.71617e-25)
(0.71113 -0.21833 0)
(0.606744 -0.189847 2.15074e-22)
(0.483071 -0.154042 0)
(0.34801 -0.113124 -1.53752e-22)
(0.208286 -0.0690389 0)
(0.068702 -0.0232583 0)
(0.0199099 -0.00489566 -2.11092e-25)
(0.0199565 -0.00490389 -2.89751e-23)
(0.019411 -0.00478873 2.35283e-23)
(0.019036 -0.00473071 2.52612e-23)
(0.0347042 -0.00598753 1.74772e-24)
(0.0238183 -0.00627647 -1.00656e-23)
(0.061086 -0.0152007 -3.52253e-23)
(0.0605149 -0.0150167 3.2868e-23)
(0.124487 -0.0310467 -2.15479e-23)
(0.207655 -0.0525232 -9.96713e-23)
(0.329325 -0.0848725 -3.01911e-22)
(0.206811 -0.0523296 1.539e-24)
(0.12381 -0.0308616 -2.24144e-23)
(0.0600452 -0.0148574 3.04257e-23)
(0.0602409 -0.0149215 -5.01411e-25)
(0.0201172 -0.00507499 2.80725e-23)
(0.0215211 -0.0056233 -2.1654e-23)
(0.0169207 -0.0043402 3.59405e-23)
(0.0181291 -0.00464056 2.24069e-23)
(0.481193 -0.127405 2.19245e-22)
(0.614339 -0.166677 1.50429e-24)
(0.721246 -0.200201 -1.59011e-22)
(0.794944 -0.225476 -7.53901e-24)
(0.830577 -0.240491 -1.43414e-22)
(0.826307 -0.244063 0)
(0.78361 -0.235987 0)
(0.707008 -0.217025 0)
(0.60326 -0.188726 -2.28259e-22)
(0.480319 -0.15314 -2.13743e-22)
(0.34603 -0.112463 0)
(0.207089 -0.0686336 0)
(0.0682942 -0.023122 -5.94775e-23)
(0.00962684 -0.0015336 -2.77286e-24)
(0.0196189 -0.00485748 0)
(0.0194123 -0.00478256 -4.54087e-23)
(0.0598568 -0.014809 -2.91169e-23)
(0.0597392 -0.0147846 3.01009e-23)
(0.123237 -0.0307441 8.96564e-23)
(0.205841 -0.0521234 5.37992e-24)
(0.326546 -0.0841857 -5.24909e-23)
(0.205105 -0.0519446 8.32859e-23)
(0.122752 -0.0306307 0)
(0.0595602 -0.0147259 -2.79265e-23)
(0.0596289 -0.0147553 2.91812e-23)
(0.0192675 -0.00473637 -4.29404e-23)
(0.0193272 -0.0047582 2.16138e-23)
(0.47734 -0.126355 -1.77438e-22)
(0.609739 -0.165375 3.34776e-22)
(0.716189 -0.198733 -1.58846e-22)
(0.789679 -0.223915 0)
(0.825335 -0.238909 -1.30859e-22)
(0.821293 -0.242526 0)
(0.779002 -0.23455 -1.19178e-22)
(0.702941 -0.215736 9.42357e-23)
(0.599854 -0.187623 1.87986e-22)
(0.477633 -0.152254 0)
(0.344091 -0.111814 0)
(0.205914 -0.0682379 0)
(0.0678989 -0.0229913 0)
(0.019221 -0.00472246 2.64683e-25)
(0.019171 -0.00471476 -2.04177e-23)
(0.0594282 -0.0147036 -2.66981e-23)
(0.0593425 -0.0146873 -2.63013e-23)
(0.122278 -0.0305337 8.06883e-23)
(0.204209 -0.0517405 7.64986e-23)
(0.323982 -0.0835347 2.53128e-22)
(0.203532 -0.0515632 8.1712e-23)
(0.121821 -0.0304244 -9.5057e-23)
(0.0591704 -0.0146387 0)
(0.0592386 -0.0146681 2.55573e-23)
(0.0191326 -0.00469958 2.35775e-25)
(0.0191483 -0.00471067 2.01137e-23)
(0.47369 -0.125366 -1.84713e-22)
(0.60532 -0.164132 1.47333e-22)
(0.711247 -0.197301 1.35608e-22)
(0.784494 -0.222379 7.75982e-24)
(0.820155 -0.237346 0)
(0.816337 -0.241001 -8.43143e-25)
(0.774458 -0.233127 1.06395e-22)
(0.698958 -0.214461 0)
(0.596525 -0.186538 0)
(0.475025 -0.15139 1.65789e-25)
(0.342215 -0.111184 0)
(0.204782 -0.0678543 -1.10333e-25)
(0.0675077 -0.0228643 -5.17167e-23)
(0.0190996 -0.00469172 1.9284e-23)
(0.019057 -0.00468578 2.87715e-25)
(0.059032 -0.0146153 -8.22546e-25)
(0.0589446 -0.0145969 1.00545e-24)
(0.121353 -0.0303175 -8.80597e-23)
(0.202687 -0.0513646 -6.83304e-23)
(0.321546 -0.0829103 -7.86698e-25)
(0.202032 -0.0511902 -6.85382e-24)
(0.120912 -0.0302045 -1.57269e-23)
(0.0587622 -0.0145455 2.28793e-23)
(0.0588356 -0.0145765 2.25019e-23)
(0.0190178 -0.0046719 -1.74479e-23)
(0.0190372 -0.00468368 -1.96674e-25)
(0.470191 -0.124419 -1.68692e-22)
(0.601024 -0.162923 -1.50439e-22)
(0.706402 -0.195899 1.36637e-22)
(0.779378 -0.220864 0)
(0.815027 -0.235796 1.16832e-22)
(0.811437 -0.23949 0)
(0.769987 -0.231716 0)
(0.695062 -0.213205 0)
(0.593294 -0.185474 0)
(0.472468 -0.150534 -1.80781e-22)
(0.340367 -0.110558 1.66236e-22)
(0.203657 -0.0674738 1.10309e-25)
(0.0671084 -0.0227288 5.14471e-26)
(0.0189819 -0.00466386 -3.37787e-23)
(0.0189373 -0.00465701 2.85269e-25)
(0.0586176 -0.0145175 0)
(0.0585259 -0.0144969 1.01799e-24)
(0.120468 -0.0301003 4.90968e-23)
(0.201203 -0.0509918 -5.98988e-23)
(0.319194 -0.0822983 -3.5806e-23)
(0.200571 -0.050822 5.67343e-23)
(0.12003 -0.0299884 -6.05079e-23)
(0.0583431 -0.0144428 0)
(0.0584162 -0.014473 3.99827e-23)
(0.0188887 -0.00464126 -1.16695e-25)
(0.0189126 -0.0046537 -1.61943e-23)
(0.466805 -0.123498 -2.65963e-25)
(0.596819 -0.161741 1.21312e-22)
(0.70164 -0.194522 -1.14646e-22)
(0.774309 -0.219362 0)
(0.809941 -0.234254 -2.18163e-25)
(0.806603 -0.237989 1.00401e-22)
(0.765604 -0.230321 -1.82123e-25)
(0.691256 -0.211966 -9.37496e-23)
(0.590133 -0.184426 6.80514e-23)
(0.469991 -0.149702 -1.40869e-22)
(0.338577 -0.109953 0)
(0.202537 -0.0670927 0)
(0.0667209 -0.0225979 5.65768e-23)
(0.0188491 -0.0046322 -1.45043e-23)
(0.0188039 -0.00462521 2.88611e-23)
(0.058201 -0.0144152 1.79547e-23)
(0.0581109 -0.0143952 1.84874e-23)
(0.119596 -0.0298838 8.07539e-23)
(0.199766 -0.0506252 5.79982e-23)
(0.316906 -0.0816997 2.9758e-23)
(0.199142 -0.0504548 4.94273e-23)
(0.119165 -0.029775 -4.10616e-23)
(0.0579229 -0.0143408 0)
(0.0580005 -0.0143711 1.69098e-23)
(0.018753 -0.00460762 -1.32421e-23)
(0.0187794 -0.00462003 -2.60536e-25)
(0.46351 -0.122603 -2.2488e-23)
(0.592687 -0.160578 1.2747e-22)
(0.696912 -0.193156 0)
(0.769283 -0.217873 -1.00817e-22)
(0.804908 -0.232722 -1.00262e-22)
(0.801833 -0.236496 0)
(0.76131 -0.228941 -1.97758e-24)
(0.687551 -0.21075 8.24324e-23)
(0.587055 -0.1834 0)
(0.467556 -0.148882 0)
(0.336786 -0.109347 0)
(0.201438 -0.0667188 1.42051e-22)
(0.0663587 -0.0224719 -6.38267e-23)
(0.0187141 -0.00459916 -2.56287e-23)
(0.0186689 -0.00459223 0)
(0.057783 -0.0143123 -1.03476e-24)
(0.0576922 -0.0142925 -3.08298e-23)
(0.118742 -0.0296695 1.08354e-23)
(0.198365 -0.0502657 0)
(0.314673 -0.0811119 -1.09407e-22)
(0.197748 -0.0500992 -4.91208e-23)
(0.118321 -0.0295613 -3.6022e-23)
(0.0575146 -0.0142397 0)
(0.0575857 -0.0142701 -1.53586e-23)
(0.0186169 -0.0045746 -1.13735e-23)
(0.0186444 -0.00458691 -2.65162e-25)
(0.460258 -0.121715 -1.04469e-22)
(0.588604 -0.15943 0)
(0.692215 -0.191797 1.08148e-22)
(0.76426 -0.216376 -1.80318e-25)
(0.799901 -0.231185 -3.72699e-25)
(0.797133 -0.235008 8.74843e-23)
(0.757105 -0.227575 0)
(0.68393 -0.20955 0)
(0.584047 -0.182391 -8.44943e-23)
(0.46517 -0.148076 0)
(0.335021 -0.108745 -1.15205e-22)
(0.200343 -0.0663366 -1.15695e-25)
(0.0659631 -0.0223368 1.6833e-22)
(0.0185784 -0.00456594 -2.20375e-23)
(0.0185317 -0.00455925 2.14306e-23)
(0.0573752 -0.0142113 -1.40268e-23)
(0.0572869 -0.0141906 -1.26595e-23)
(0.117908 -0.0294602 1.80386e-23)
(0.196992 -0.049913 0)
(0.312488 -0.0805354 1.20491e-22)
(0.19639 -0.0497492 -6.58808e-24)
(0.117493 -0.0293539 8.6706e-24)
(0.0571077 -0.0141385 0)
(0.0571797 -0.0141676 -8.14624e-25)
(0.0184871 -0.00454247 0)
(0.0185116 -0.00455538 0)
(0.457061 -0.120842 9.25211e-23)
(0.584526 -0.158281 0)
(0.687504 -0.19043 0)
(0.75924 -0.214875 1.80247e-25)
(0.794926 -0.229641 0)
(0.7925 -0.233522 1.53768e-25)
(0.752988 -0.226222 0)
(0.680396 -0.208372 7.67423e-23)
(0.581104 -0.1814 0)
(0.462785 -0.147266 0)
(0.333272 -0.108142 0)
(0.199233 -0.0659517 -9.21106e-23)
(0.0655489 -0.0222006 1.10169e-22)
(0.0184476 -0.00453415 0)
(0.0184037 -0.00452692 2.78659e-25)
(0.0569691 -0.0141107 -8.88086e-25)
(0.0568976 -0.0140946 -9.78731e-25)
(0.117091 -0.0292535 7.51252e-24)
(0.195651 -0.0495675 1.34915e-25)
(0.310319 -0.0799609 -1.25967e-22)
(0.195053 -0.0494065 -3.03416e-23)
(0.116686 -0.0291498 -2.67831e-23)
(0.0567069 -0.0140408 0)
(0.0567808 -0.0140668 -1.10085e-23)
(0.0183539 -0.00450984 0)
(0.0183797 -0.00452219 -2.54627e-25)
(0.453862 -0.119967 5.35603e-25)
(0.580423 -0.157128 0)
(0.682744 -0.18905 0)
(0.754181 -0.213346 7.37639e-23)
(0.789964 -0.228081 -2.84027e-25)
(0.78793 -0.232037 7.24036e-23)
(0.74895 -0.224884 0)
(0.676921 -0.207208 -1.52032e-25)
(0.578177 -0.180413 8.08975e-23)
(0.460427 -0.14646 0)
(0.331483 -0.107527 -1.61599e-22)
(0.198105 -0.0655648 -1.02278e-22)
(0.0651346 -0.0220594 -3.66775e-25)
(0.0183146 -0.00450207 -2.97352e-25)
(0.0182743 -0.00449521 -7.78088e-24)
(0.0565756 -0.0140122 0)
(0.0565079 -0.0139969 -9.7372e-25)
(0.116294 -0.0290516 1.24171e-23)
(0.19433 -0.0492278 2.73011e-23)
(0.308185 -0.0793952 1.70871e-23)
(0.193738 -0.0490683 6.25564e-24)
(0.115892 -0.0289506 2.8297e-23)
(0.0563216 -0.013945 0)
(0.0563932 -0.0139699 -9.1196e-24)
(0.0182217 -0.00447885 0)
(0.0182608 -0.00449197 7.10416e-24)
(0.450638 -0.119088 -3.42744e-25)
(0.576254 -0.155955 0)
(0.677878 -0.187625 -7.97479e-23)
(0.749059 -0.211775 0)
(0.785004 -0.226495 -7.26051e-23)
(0.783414 -0.230554 -6.8177e-23)
(0.744979 -0.223564 0)
(0.673492 -0.206059 4.07702e-24)
(0.575258 -0.179423 3.02401e-25)
(0.45805 -0.145646 1.36723e-22)
(0.329695 -0.106908 0)
(0.196936 -0.0651555 0)
(0.0647153 -0.0219179 1.37625e-22)
(0.0181892 -0.00447089 -6.27284e-24)
(0.01815 -0.00446412 -1.25343e-23)
(0.056191 -0.0139157 -9.18043e-25)
(0.0561225 -0.0139007 -9.55527e-25)
(0.115507 -0.0288533 -1.56595e-23)
(0.193023 -0.0488888 -2.76165e-23)
(0.306043 -0.0788248 0)
(0.192436 -0.0487289 1.91226e-23)
(0.115111 -0.0287559 2.75115e-23)
(0.0559395 -0.0138506 0)
(0.0560107 -0.0138747 0)
(0.0180995 -0.00444887 -5.39016e-24)
(0.0181371 -0.00446152 4.632e-26)
(0.447339 -0.118185 0)
(0.571921 -0.154733 0)
(0.672848 -0.186135 5.69445e-23)
(0.743833 -0.210142 -5.39096e-23)
(0.78003 -0.224881 6.84886e-23)
(0.778941 -0.229082 6.59879e-23)
(0.741053 -0.22226 -7.33969e-23)
(0.670066 -0.204909 7.68443e-23)
(0.572331 -0.178428 7.95582e-23)
(0.455648 -0.144815 0)
(0.32786 -0.106265 1.72059e-22)
(0.195763 -0.0647435 -1.27437e-22)
(0.0642928 -0.0217723 0)
(0.0180654 -0.00444016 -1.02014e-23)
(0.0180245 -0.00443329 -5.11524e-24)
(0.0558148 -0.0138225 -6.43723e-24)
(0.0557472 -0.013807 -6.25606e-24)
(0.11474 -0.0286596 7.45199e-24)
(0.19175 -0.0485572 -7.30188e-26)
(0.303849 -0.0782404 0)
(0.191158 -0.0483933 1.4144e-23)
(0.114352 -0.0285618 -1.48208e-23)
(0.0555696 -0.0137601 0)
(0.0556363 -0.0137828 -5.75949e-24)
(0.017975 -0.00441848 -4.13499e-24)
(0.0180129 -0.00443093 0)
(0.44389 -0.11725 4.9544e-23)
(0.567331 -0.153433 -6.28686e-23)
(0.667565 -0.184536 5.79445e-23)
(0.738456 -0.208429 0)
(0.77505 -0.223263 -1.07693e-23)
(0.774509 -0.227628 -2.66242e-25)
(0.737145 -0.220966 7.02007e-26)
(0.666642 -0.203756 -7.18988e-23)
(0.56938 -0.177414 7.98875e-23)
(0.453203 -0.143963 -1.45538e-22)
(0.325992 -0.105605 1.80807e-22)
(0.194563 -0.0643169 -1.93294e-22)
(0.0638382 -0.0216201 -1.75234e-22)
(0.0179449 -0.00441078 -3.7684e-24)
(0.0179038 -0.00440325 -3.62321e-24)
(0.055443 -0.0137314 -4.89075e-24)
(0.0553777 -0.0137177 -7.91215e-25)
(0.113979 -0.0284645 5.19692e-24)
(0.190476 -0.0482241 0)
(0.30158 -0.0776382 -4.88749e-23)
(0.189866 -0.0480565 -9.15766e-24)
(0.113602 -0.0283705 -9.24274e-24)
(0.0552026 -0.0136671 0)
(0.0552728 -0.0136888 -4.14431e-24)
(0.0178583 -0.00438987 -3.0106e-24)
(0.017892 -0.00440176 2.71512e-26)
(0.440133 -0.116234 0)
(0.562297 -0.151978 3.34669e-23)
(0.661906 -0.18278 0)
(0.732955 -0.206666 -9.91777e-23)
(0.770082 -0.22166 1.20473e-25)
(0.770115 -0.2262 -1.32961e-22)
(0.733248 -0.219673 -5.60109e-25)
(0.66319 -0.202584 -1.46664e-22)
(0.56639 -0.17638 0)
(0.450705 -0.143085 -1.52589e-22)
(0.324081 -0.104927 1.56217e-22)
(0.193322 -0.0638781 -4.88621e-23)
(0.0633588 -0.021459 -2.53528e-23)
(0.0178207 -0.00438195 2.17412e-26)
(0.0177909 -0.00437869 -2.10707e-25)
(0.0550808 -0.0136394 -9.43266e-25)
(0.055019 -0.0136267 -8.31995e-25)
(0.113235 -0.028274 -1.42127e-24)
(0.189176 -0.0478825 -2.15167e-23)
(0.299088 -0.0769813 -2.26206e-24)
(0.188564 -0.047712 0)
(0.112863 -0.028182 8.41147e-24)
(0.0548449 -0.0135791 -2.45818e-24)
(0.0549173 -0.0136001 -2.66404e-24)
(0.017737 -0.0043583 -1.85645e-24)
(0.0177738 -0.00436976 0)
(0.435809 -0.115062 -3.88266e-23)
(0.556619 -0.150291 1.51211e-23)
(0.655887 -0.180878 4.46915e-23)
(0.727393 -0.204908 -4.36799e-23)
(0.765175 -0.220106 1.21014e-22)
(0.765765 -0.224787 4.98192e-25)
(0.729346 -0.218369 6.87602e-23)
(0.659707 -0.201393 0)
(0.563338 -0.175316 0)
(0.448165 -0.142185 -3.30968e-25)
(0.322132 -0.104231 -3.15036e-23)
(0.19203 -0.0634188 1.85493e-22)
(0.0628713 -0.0212929 2.0415e-22)
(0.0177018 -0.00435228 -3.29272e-24)
(0.0176739 -0.00434953 -2.12429e-25)
(0.0547304 -0.0135527 0)
(0.0546707 -0.0135381 1.82924e-24)
(0.112501 -0.0280854 7.05227e-24)
(0.187847 -0.0475341 8.86992e-24)
(0.296102 -0.0762239 -1.23071e-25)
(0.187122 -0.0473362 -5.21228e-24)
(0.112112 -0.0279888 -3.64655e-25)
(0.0545046 -0.0134927 -9.82537e-25)
(0.054571 -0.013514 1.26859e-24)
(0.0176202 -0.00433051 5.15993e-27)
(0.0176583 -0.00434131 0)
(0.430526 -0.113594 -1.77172e-23)
(0.550067 -0.14826 1.32372e-25)
(0.649631 -0.178943 4.72796e-23)
(0.721936 -0.203241 -9.86187e-24)
(0.760386 -0.218595 4.70287e-25)
(0.761457 -0.223377 -5.85784e-23)
(0.725433 -0.217049 1.04926e-24)
(0.656177 -0.200174 -5.77555e-25)
(0.560243 -0.174226 0)
(0.44558 -0.141261 -1.56891e-23)
(0.320148 -0.103515 -3.87455e-25)
(0.19069 -0.0629367 -4.32676e-25)
(0.0623722 -0.0211254 -2.40228e-23)
(0.0175907 -0.00432574 5.23323e-25)
(0.017563 -0.00432142 4.86037e-25)
(0.0543891 -0.0134663 5.76559e-25)
(0.0543323 -0.0134532 0)
(0.111755 -0.0278901 -1.78513e-25)
(0.186291 -0.0471463 -1.16305e-24)
(0.292069 -0.0751849 -3.25659e-25)
(0.185297 -0.0468942 7.19011e-25)
(0.11132 -0.0277858 1.29029e-24)
(0.0541648 -0.0134072 -9.36114e-25)
(0.0542359 -0.0134294 0)
(0.017515 -0.00430362 0)
(0.0175473 -0.00431454 -7.1441e-26)
(0.423521 -0.111528 -3.40306e-23)
(0.542883 -0.146069 1.0538e-24)
(0.643545 -0.177172 -1.15429e-23)
(0.716734 -0.201661 0)
(0.755731 -0.21711 5.79048e-23)
(0.757183 -0.221964 0)
(0.721498 -0.215712 -5.17893e-25)
(0.652611 -0.19893 5.77467e-25)
(0.557109 -0.173109 1.64821e-22)
(0.442968 -0.140313 -3.68336e-25)
(0.318088 -0.102765 0)
(0.189344 -0.0624552 2.42627e-22)
(0.0618594 -0.0209506 -2.28256e-23)
(0.0174809 -0.0042981 0)
(0.0174552 -0.00429525 0)
(0.0540546 -0.0133809 -8.42499e-25)
(0.053999 -0.0133668 1.07269e-24)
(0.110918 -0.0276769 1.11607e-24)
(0.184029 -0.0466394 0)
(0.28503 -0.0733309 5.78257e-23)
(0.18218 -0.0461636 0)
(0.110365 -0.0275559 2.52865e-24)
(0.05383 -0.0133245 0)
(0.0539019 -0.0133462 -1.67452e-24)
(0.0174052 -0.00427692 1.0316e-24)
(0.0174414 -0.00428838 0)
(0.414828 -0.108948 4.88236e-23)
(0.536015 -0.14419 -4.69041e-23)
(0.637991 -0.17556 -6.32279e-25)
(0.711825 -0.20014 3.90304e-23)
(0.751196 -0.215646 4.04018e-25)
(0.75294 -0.220549 0)
(0.717552 -0.214356 0)
(0.649007 -0.197659 7.13679e-23)
(0.553929 -0.17196 1.72532e-22)
(0.440284 -0.139332 -4.21058e-25)
(0.31601 -0.102003 0)
(0.187971 -0.0619528 2.77325e-22)
(0.0613303 -0.0207706 -3.45702e-22)
(0.017375 -0.00427132 1.59835e-24)
(0.0173489 -0.0042679 0)
(0.0537118 -0.0132933 0)
(0.0536608 -0.0132789 -3.49536e-24)
(0.109717 -0.0274019 3.04275e-24)
(0.179342 -0.0456131 6.91257e-25)
(0.272814 -0.0699989 -2.66998e-23)
(0.174449 -0.0441006 -2.90247e-23)
(0.108668 -0.0271949 0)
(0.0534684 -0.0132352 -4.75177e-24)
(0.0535573 -0.0132604 -3.23688e-24)
(0.0173034 -0.00425206 2.47636e-24)
(0.0173368 -0.00426276 2.02997e-24)
(0.406854 -0.106881 5.16704e-25)
(0.530244 -0.142593 0)
(0.633015 -0.174062 -4.14816e-23)
(0.707188 -0.198681 5.4485e-25)
(0.746771 -0.214204 0)
(0.748728 -0.219129 0)
(0.713596 -0.212981 -6.70225e-23)
(0.645386 -0.196365 -1.56697e-22)
(0.550711 -0.170788 -3.71986e-25)
(0.437581 -0.138327 4.20967e-25)
(0.313871 -0.101207 2.79042e-22)
(0.186573 -0.0614407 3.18841e-22)
(0.0607852 -0.0205806 -3.9463e-22)
(0.0172726 -0.00424547 0)
(0.0172461 -0.00424184 2.60733e-24)
(0.0533341 -0.0132044 9.53227e-25)
(0.0532305 -0.0131743 5.51771e-24)
(0.107028 -0.0268674 -4.09813e-24)
(0.165444 -0.0414228 -9.14965e-23)
(0.262914 -0.0674577 -8.18325e-25)
(0.156 -0.0397071 1.47564e-23)
(0.103523 -0.0259745 0)
(0.0528711 -0.013106 0)
(0.0530912 -0.0131521 5.63772e-24)
(0.017194 -0.00422556 7.33817e-24)
(0.0172348 -0.00423678 0)
(0.401116 -0.105287 2.22182e-23)
(0.525469 -0.141178 1.33336e-23)
(0.628477 -0.172666 0)
(0.702759 -0.197273 -5.45652e-25)
(0.742443 -0.212778 0)
(0.744552 -0.217704 3.81684e-25)
(0.70964 -0.211587 2.45985e-25)
(0.641737 -0.195043 0)
(0.547466 -0.169583 3.71836e-25)
(0.43482 -0.13729 -4.754e-22)
(0.311741 -0.100404 -3.11842e-25)
(0.185122 -0.060896 3.62629e-22)
(0.060199 -0.020388 0)
(0.0171693 -0.00422147 -3.62086e-24)
(0.0171241 -0.00420944 1.84819e-25)
(0.0525931 -0.013065 0)
(0.0520874 -0.012973 5.22568e-24)
(0.0920508 -0.022593 3.69617e-23)
(0.150208 -0.0380171 -5.92424e-25)
(0.25804 -0.0658532 -3.01003e-23)
(0.147674 -0.0371863 9.95048e-24)
(0.0777644 -0.0201181 -1.5095e-23)
(0.0491938 -0.012002 2.24365e-24)
(0.0512035 -0.0128691 0)
(0.0170336 -0.00418555 0)
(0.0171068 -0.00420229 4.41295e-25)
(0.397007 -0.104065 -1.51228e-23)
(0.521368 -0.139941 -1.7655e-25)
(0.624292 -0.171373 2.06675e-25)
(0.698514 -0.195913 1.70947e-23)
(0.738214 -0.211368 -2.5814e-25)
(0.740414 -0.216272 -7.44515e-25)
(0.705693 -0.210174 5.46893e-23)
(0.638069 -0.193691 0)
(0.544199 -0.168352 2.10152e-22)
(0.432036 -0.136226 0)
(0.309525 -0.0995591 3.38398e-22)
(0.183605 -0.060337 0)
(0.0595883 -0.0201835 1.00907e-21)
(0.0169546 -0.00417093 -5.24668e-24)
(0.0167877 -0.00414455 -5.75097e-24)
(0.0448315 -0.0102376 1.25108e-24)
(0.0301961 -0.00506839 0)
(0.0727938 -0.0183053 -2.44386e-25)
(0.14621 -0.0366111 -1.67216e-23)
(0.255332 -0.0650531 -2.49749e-25)
(0.145374 -0.0363643 5.58265e-24)
(0.0716618 -0.0177516 -1.36828e-23)
(0.0184082 -0.00494834 1.79615e-24)
(0.0206029 -0.00508858 -2.02253e-24)
(0.0157737 -0.00401992 -4.21e-24)
(0.0164884 -0.00412313 -1.97445e-25)
(0.39369 -0.103099 -2.13054e-25)
(0.517688 -0.13884 -6.85613e-26)
(0.620373 -0.170156 -1.80005e-23)
(0.69443 -0.194588 0)
(0.734066 -0.209964 2.58275e-25)
(0.736316 -0.21483 -8.84661e-23)
(0.701753 -0.208739 -5.40268e-23)
(0.634399 -0.192315 0)
(0.540908 -0.167088 0)
(0.429216 -0.135134 -3.22825e-24)
(0.307274 -0.0986936 -3.75164e-22)
(0.182049 -0.059758 -9.73833e-22)
(0.0589767 -0.0199729 -1.63843e-23)
(0.0146885 -0.00369893 1.00422e-25)
(0.00831152 -0.00128574 7.28446e-23)
(0.0172737 -0.00436176 3.48072e-24)
(0.0168524 -0.00421325 3.83609e-24)
(0.0710949 -0.0175684 1.57365e-23)
(0.144704 -0.0362277 1.44053e-23)
(0.253337 -0.0645792 -3.54382e-25)
(0.14426 -0.0361434 -1.40119e-23)
(0.0707468 -0.0174698 0)
(0.0167203 -0.00411213 -5.31464e-24)
(0.0167911 -0.00414661 5.27218e-24)
(0.390864 -0.102299 6.05211e-26)
(0.514359 -0.137844 -1.92177e-23)
(0.616664 -0.16899 0)
(0.690482 -0.193288 3.22961e-24)
(0.730001 -0.208566 5.193e-23)
(0.732258 -0.213377 5.22702e-23)
(0.697824 -0.207279 -2.52955e-25)
(0.630721 -0.190907 0)
(0.53759 -0.16579 -2.47643e-22)
(0.426335 -0.134 3.16817e-22)
(0.304964 -0.0977944 4.06268e-22)
(0.180448 -0.0591517 5.36354e-22)
(0.058312 -0.0197511 1.30905e-21)
(0.0166988 -0.00410592 0)
(0.0166855 -0.0041022 -5.45227e-24)
(0.0705163 -0.0174364 5.52302e-24)
(0.143756 -0.0360562 0)
(0.251631 -0.0641748 1.58911e-23)
(0.143394 -0.0359784 0)
(0.0703337 -0.017397 0)
(0.0166563 -0.00409058 5.39021e-24)
(0.016664 -0.00409268 5.71459e-24)
(0.388349 -0.101587 2.16793e-23)
(0.511266 -0.136911 -2.95472e-25)
(0.613133 -0.167866 1.26394e-23)
(0.686649 -0.192006 -2.06622e-23)
(0.72601 -0.207167 1.09056e-23)
(0.728243 -0.211906 2.93319e-23)
(0.693914 -0.205793 5.33106e-23)
(0.627046 -0.189466 0)
(0.534226 -0.164451 2.41904e-22)
(0.423418 -0.132831 0)
(0.302578 -0.0968557 0)
(0.178788 -0.058527 -6.07871e-22)
(0.0576332 -0.0195273 -7.52075e-22)
(0.0166355 -0.00408946 -1.1351e-23)
(0.0166349 -0.00408855 4.51989e-26)
(0.0701556 -0.0173706 6.52987e-24)
(0.142938 -0.0358806 -2.50077e-23)
(0.250134 -0.0637968 0)
(0.1426 -0.0357937 0)
(0.0699742 -0.0173233 1.09502e-25)
(0.0166068 -0.00408195 0)
(0.0166086 -0.00408305 6.28859e-24)
(0.386069 -0.100937 3.00455e-25)
(0.508346 -0.136019 2.02931e-23)
(0.609736 -0.166766 -2.08153e-23)
(0.682917 -0.190731 -1.11522e-23)
(0.72209 -0.205759 -2.93544e-23)
(0.72427 -0.210417 -7.7825e-23)
(0.690025 -0.204279 5.34338e-23)
(0.623349 -0.187988 -3.07346e-22)
(0.53084 -0.163073 0)
(0.420462 -0.131629 3.72358e-22)
(0.300149 -0.0958894 0)
(0.177087 -0.0578831 6.89791e-22)
(0.0569358 -0.0192957 8.3637e-22)
(0.0165765 -0.00407809 -1.33079e-23)
(0.0165706 -0.00407396 -6.99578e-24)
(0.0697933 -0.0172878 -1.09479e-25)
(0.142161 -0.0356903 0)
(0.248761 -0.0634366 -3.23071e-25)
(0.141847 -0.0356053 0)
(0.0696113 -0.0172379 0)
(0.0165297 -0.00406141 0)
(0.0165414 -0.00406668 0)
(0.383916 -0.100316 -4.53022e-23)
(0.505562 -0.135157 2.79615e-23)
(0.606463 -0.165687 0)
(0.679288 -0.189462 -3.16905e-26)
(0.718237 -0.204341 2.63077e-23)
(0.72034 -0.208904 -5.19231e-23)
(0.686148 -0.202733 1.36773e-22)
(0.619644 -0.186472 9.35457e-23)
(0.527447 -0.161662 -3.26265e-22)
(0.417448 -0.13038 4.09859e-22)
(0.297696 -0.0948929 0)
(0.1753 -0.057199 0)
(0.0561943 -0.0190621 -9.57178e-22)
(0.016497 -0.00405737 -7.98693e-24)
(0.0164919 -0.00405468 -8.22847e-24)
(0.0694351 -0.0171989 0)
(0.14143 -0.035506 -1.45817e-25)
(0.247458 -0.0630869 1.35266e-25)
(0.141134 -0.0354212 1.45773e-25)
(0.0692675 -0.0171545 0)
(0.0164484 -0.0040424 0)
(0.0164605 -0.00404741 8.666e-24)
(0.381883 -0.0997228 4.82744e-25)
(0.502911 -0.134322 0)
(0.603295 -0.164617 -4.40525e-23)
(0.675745 -0.188189 -2.76893e-23)
(0.714456 -0.202909 -2.92027e-26)
(0.716452 -0.207366 -5.26654e-23)
(0.682289 -0.201151 -8.7969e-23)
(0.61595 -0.184914 0)
(0.52401 -0.160198 -3.59002e-22)
(0.414403 -0.129083 4.53374e-22)
(0.295108 -0.0938345 0)
(0.173434 -0.0565096 8.77819e-22)
(0.0554084 -0.0187818 -1.10708e-24)
(0.0164181 -0.00403746 9.18876e-24)
(0.0164101 -0.00403467 -9.43378e-24)
(0.0690975 -0.0171153 0)
(0.140739 -0.035329 1.66036e-25)
(0.246218 -0.0627469 -2.67797e-26)
(0.140441 -0.0352425 -1.6598e-25)
(0.0689241 -0.01707 0)
(0.0163784 -0.00402444 1.00634e-23)
(0.0163803 -0.0040281 9.76017e-24)
(0.379945 -0.0991481 8.96921e-23)
(0.500359 -0.133498 1.20276e-22)
(0.600234 -0.163549 2.99389e-23)
(0.672291 -0.186906 0)
(0.710737 -0.201455 -1.18678e-26)
(0.712606 -0.205796 0)
(0.678445 -0.199527 0)
(0.612234 -0.183307 1.07972e-22)
(0.520519 -0.158673 -3.97021e-22)
(0.411257 -0.127732 0)
(0.292441 -0.0927394 0)
(0.171466 -0.0558009 -1.04251e-24)
(0.0547814 -0.0183518 1.20904e-21)
(0.0163454 -0.00401923 1.02746e-23)
(0.0163387 -0.00401631 -1.05988e-23)
(0.068758 -0.017034 0)
(0.140065 -0.0351507 3.73096e-25)
(0.245035 -0.0624224 -7.38587e-23)
(0.139788 -0.0350685 -5.69819e-25)
(0.0685907 -0.0169868 0)
(0.0162946 -0.00400579 -1.11905e-23)
(0.0163088 -0.00401037 1.10456e-23)
(0.378106 -0.0985947 -8.32624e-23)
(0.497917 -0.132684 2.66004e-25)
(0.597271 -0.162477 0)
(0.668916 -0.18561 4.55961e-23)