/*--------------------------------*- C++ -*----------------------------------*\
| =========                 |                                                 |
| \\      /  F ield         | OpenFOAM: The Open Source CFD Toolbox           |
|  \\    /   O peration     | Version:  v1912                                 |
|   \\  /    A nd           | Website:  www.openfoam.com                      |
|    \\/     M anipulation  |                                                 |
\*---------------------------------------------------------------------------*/
FoamFile
{
    version     2.0;
    format      ascii;
    class       volScalarField;
    location    "260";
    object      p;
}
// * * * * * * * * * * * * * * * * * * * * * * * * * * * * * * * * * * * * * //

dimensions      [0 2 -2 0 0 0 0];


internalField   nonuniform List<scalar> 
3673
(
0.00169204
0.00193696
0.00153867
0.00218145
0.00177389
0.00139337
0.00239466
0.00201126
0.00162299
0.00126009
0.00258393
0.00222185
0.0018526
0.00148349
0.00113984
0.00273847
0.00241198
0.00205745
0.00171211
0.00135895
0.00102412
0.00284669
0.00256735
0.00224633
0.00191549
0.00157995
0.00123782
0.000919158
0.00289368
0.00267701
0.00240484
0.00209734
0.00177442
0.001452
0.00112798
0.000822794
0.0028722
0.00272993
0.00252036
0.00225307
0.00195514
0.00164524
0.00133947
0.0010284
0.000731151
0.00278506
0.0027206
0.00258653
0.00237498
0.00211013
0.00182247
0.00152824
0.00123362
0.00093019
0.000651215
0.00264247
0.00264147
0.0025969
0.00245088
0.00222725
0.00197225
0.00169896
0.00141731
0.00113397
0.0008464
0.000575466
0.00246398
0.0024928
0.00254797
0.00247912
0.00230422
0.00208772
0.00184439
0.00158568
0.00131522
0.00104383
0.000766518
0.000507455
0.00230113
0.0022661
0.00244689
0.00246516
0.00233767
0.0021581
0.00195257
0.00172369
0.00147572
0.00121659
0.000961043
0.000693495
0.000439852
0.00222778
0.00197064
0.00229026
0.00241544
0.0023267
0.00217957
0.0020168
0.00182595
0.00161207
0.00137664
0.00113448
0.000883411
0.000624717
0.000383562
0.00170194
0.00199288
0.00224949
0.00203748
0.00234857
0.00227646
0.00215443
0.00203163
0.00188533
0.00171392
0.00150925
0.00128703
0.0010483
0.000809688
0.000564182
0.00033229
0.00170631
0.00140479
0.0018684
0.00200851
0.00213032
0.00226233
0.00226019
0.00219205
0.00208036
0.00199529
0.00189537
0.00176801
0.00160165
0.00141031
0.00119714
0.000973445
0.000745126
0.000507557
0.000288346
0.00209605
0.00185768
0.00141261
0.001335
0.00191548
0.00183695
0.00198514
0.00207962
0.00219141
0.00195041
0.00208559
0.00196249
0.00191257
0.00185581
0.00177274
0.00165151
0.00150012
0.00131987
0.00111944
0.000904702
0.000686466
0.000460716
0.000249795
0.0019209
0.00183846
0.00189274
0.00182188
0.000960555
0.00115401
0.00183397
0.00194455
0.00175719
0.00181102
0.00188415
0.00205665
0.00200058
0.00218007
0.00191077
0.00181459
0.00179089
0.00177257
0.00172857
0.00165368
0.00154629
0.00140652
0.00123639
0.00104459
0.000843258
0.000634546
0.000418181
0.000217405
0.00164971
0.0016575
0.00166806
0.00167304
0.00184567
0.00184874
0.0017706
0.000315283
0.00145329
0.00255841
0.00204593
0.00182998
0.00184652
0.00174968
0.00182395
0.00201984
0.00193602
0.00211174
0.00187861
0.00163581
0.00165107
0.00164125
0.00160769
0.00154373
0.00144844
0.00131675
0.00115849
0.00097938
0.000781621
0.00058894
0.000382279
0.000192478
0.00147081
0.00148014
0.00150385
0.00152039
0.00156406
0.00156066
0.00154353
0.00167161
0.00167106
0.00177533
0.00207968
-0.000997238
0.00288704
0.00228754
0.00170065
0.00171537
0.00174318
0.00198951
0.00205866
0.00149981
0.00151841
0.00151719
0.00149335
0.0014433
0.00135504
0.00123385
0.00108378
0.00091188
0.000736748
0.000549033
0.000353725
0.00017225
0.00133316
0.00132071
0.00135855
0.00137025
0.00142834
0.00143599
0.00144134
0.0014862
0.00148662
0.00149615
0.00152015
0.00161769
0.00157121
-0.00350507
0.00136899
0.00139066
0.00140326
0.00139278
0.00134787
0.00126855
0.00115527
0.00101475
0.000862371
0.000690568
0.00051543
0.000329639
0.00016046
0.0012011
0.00118064
0.0012211
0.00121888
0.00127823
0.00128446
0.00130694
0.00136946
0.00135044
0.00138143
0.00141642
0.00144866
0.00143952
0.00124404
0.00128165
0.00130185
0.00129643
0.00125863
0.00118571
0.00108161
0.000957069
0.000811208
0.000655435
0.000491264
0.000315633
0.00015055
0.00107963
0.0010483
0.00108916
0.00108179
0.00113883
0.00113249
0.00116057
0.00122494
0.00119742
0.00123214
0.00127928
0.00133125
0.00130983
0.00113631
0.00117747
0.00120349
0.001206
0.00117265
0.00110624
0.00101443
0.000900845
0.000771596
0.00062457
0.000471138
0.000303882
0.000153253
0.000972194
0.000925415
0.000970842
0.000952181
0.00100414
0.000993783
0.00102075
0.00108163
0.00105295
0.00108095
0.00112881
0.00118429
0.0011573
0.00102866
0.00108132
0.00111433
0.00111638
0.00108915
0.00103163
0.000950092
0.000851459
0.000732224
0.000600089
0.000456794
0.000299196
0.000158197
0.000866551
0.000818522
0.000859532
0.000834073
0.000882723
0.000865027
0.00089133
0.000947193
0.000919979
0.000942297
0.000984286
0.00103772
0.00101495
0.000934662
0.000992077
0.00102575
0.00103577
0.00101036
0.000960011
0.000892719
0.000808564
0.000707546
0.000584824
0.000448779
0.000304571
0.000173003
0.00077262
0.000715491
0.000754672
0.00072595
0.000770184
0.000747211
0.000775906
0.000825129
0.000797389
0.000814245
0.000854326
0.000902533
0.000882216
0.000843989
0.000904836
0.000945516
0.00095114
0.000929881
0.00089327
0.000844271
0.000777008
0.000685672
0.000574106
0.000450075
0.000314336
0.000183753
0.000682295
0.00062148
0.000660314
0.000624803
0.000667
0.000641196
0.000665611
0.000711545
0.000685445
0.000694218
0.000740607
0.000779137
0.000760259
0.000760248
0.000823559
0.000859422
0.000866163
0.000852851
0.000832177
0.000803083
0.000751675
0.00067249
0.000568219
0.000454094
0.000319825
0.000207023
0.000598352
0.000532542
0.00057214
0.000532347
0.000571921
0.000542737
0.000562925
0.000605445
0.000588943
0.000589316
0.000630288
0.000668097
0.000646707
0.000679637
0.00074359
0.000778838
0.000780619
0.000779068
0.000780583
0.000772452
0.000734709
0.00066068
0.000568681
0.0004602
0.00034297
0.00023464
0.000519794
0.000448577
0.000490747
0.000445775
0.000483945
0.000452566
0.000470584
0.000509667
0.000494136
0.000496351
0.000522866
0.000564186
0.000549704
0.000605571
0.000666528
0.000685426
0.000692776
0.000712991
0.000743755
0.000751717
0.000719817
0.000658378
0.000570226
0.000479939
0.000365481
0.000268777
0.000447586
0.00036638
0.000417455
0.000365462
0.000402085
0.000367959
0.000385163
0.000420067
0.000407984
0.000407069
0.000430983
0.00046725
0.000455176
0.000529944
0.00057547
0.000587381
0.000608429
0.000664604
0.000722193
0.000736716
0.000709659
0.00065456
0.000584394
0.00049442
0.000398679
0.000309979
0.000372912
0.000289872
0.000345642
0.00028707
0.000325263
0.00028984
0.000307414
0.000339362
0.000325366
0.000322593
0.000346137
0.00037758
0.000369564
0.000451851
0.00047935
0.000482023
0.000540941
0.000642021
0.000708365
0.000722389
0.000701065
0.00065651
0.000594053
0.000524383
0.0004337
0.000354828
0.000305627
0.000216387
0.00027525
0.000211398
0.000254867
0.000214072
0.000227919
0.000261413
0.000252827
0.000245406
0.000269462
0.000298166
0.000286191
0.000368114
0.000354206
0.000383354
0.000514557
0.000635863
0.000695259
0.000707465
0.000692595
0.000661316
0.000614303
0.000554692
0.000476948
0.000412311
0.00023367
0.000139717
0.000206573
0.000139275
0.00018473
0.000141518
0.000156903
0.00018853
0.000181705
0.000169605
0.000184642
0.000218066
0.000223979
0.000250501
0.000218552
0.000341644
0.000521837
0.000633638
0.000673671
0.000686082
0.000687587
0.000671782
0.000641917
0.000595397
0.000529384
0.000478196
0.000152524
5.83567e-05
0.000138908
6.88452e-05
0.000113819
6.90966e-05
9.01702e-05
0.000122103
0.000108422
9.86822e-05
0.000114739
0.000145298
0.000152691
9.57357e-05
0.000123001
0.000371207
0.000547519
0.000609107
0.000639747
0.000667729
0.000684089
0.000689534
0.000672991
0.000642917
0.000590168
0.000554496
4.7158e-05
-3.15454e-05
7.56777e-05
-1.17515e-05
4.22591e-05
-2.40757e-06
2.05743e-05
5.18805e-05
3.95639e-05
2.68131e-05
5.07156e-05
8.11775e-05
7.79302e-05
-0.000120236
0.000173454
0.00044879
0.000525126
0.000560723
0.000605514
0.00065004
0.000689342
0.000711124
0.000714927
0.000694625
0.000663596
0.000641595
-0.000264497
-0.00012822
8.18848e-06
-8.99188e-05
-2.75003e-05
-8.14337e-05
-5.09003e-05
-1.69021e-05
-3.3825e-05
-4.20531e-05
-1.89581e-05
1.04428e-05
1.19949e-05
-0.000118758
0.000350983
0.000431271
0.000456572
0.00050859
0.000572478
0.000638705
0.00069544
0.000738235
0.000755375
0.000769054
0.000745158
0.000741134
-0.000488372
-0.00045508
-0.000105249
-0.000151893
-0.000103075
-0.000169612
-0.00012681
-8.60843e-05
-0.000115053
-0.000116952
-8.80153e-05
-5.87488e-05
-6.04921e-05
0.000257813
0.000340845
0.000337988
0.000387006
0.000459762
0.000542713
0.000628179
0.000707001
0.000770568
0.000820964
0.000837993
0.000841296
0.000854036
0.000131578
-0.000354821
-0.000794916
-0.000184944
-8.4964e-05
-0.00027599
-0.000199986
-0.000168586
-0.000211242
-0.000202785
-0.000166721
-0.000133469
-0.000135899
0.000253013
0.000202803
0.000248004
0.00032272
0.000412285
0.000514878
0.000622601
0.000726602
0.00081729
0.000879893
0.000933658
0.000944787
0.000974531
0.000118129
-2.55838e-05
-6.99222e-06
-0.000458397
-0.00141089
4.12953e-06
-7.35312e-05
-0.00019659
-0.000274669
-0.000313434
-0.000259513
-0.000213261
-0.000236231
5.99425e-05
9.74126e-05
0.000173667
0.000262517
0.000368301
0.000488255
0.000619483
0.00075026
0.000865389
0.000964548
0.00102316
0.00106479
0.00112116
-8.06335e-05
-0.000126303
-0.000153787
-0.000167354
4.6248e-06
-4.97764e-05
0.000568682
0.000383239
-0.00226227
-0.000132477
-0.000270687
-0.000298744
-0.000334416
-5.588e-05
2.48727e-05
0.000106906
0.000203415
0.000320768
0.000463876
0.000621023
0.000781295
0.000928037
0.00104643
0.0011424
0.00120256
0.00128081
-0.000192065
-0.000209386
-0.00021683
-0.000241734
-0.000246442
-0.000278688
-0.000316857
-0.000157265
-0.000196612
9.30402e-05
-0.00448282
-0.000122686
-4.60271e-05
3.49461e-05
0.000139865
0.000276315
0.000442427
0.000629312
0.000820946
0.00100073
0.0011478
0.00127173
0.0013548
0.00145539
-0.00026084
-0.000287678
-0.00028302
-0.000293947
-0.000270839
-0.000287786
-0.00030135
-0.000306851
-0.000288024
-0.000191176
-0.000122964
-3.69492e-05
7.96491e-05
0.000231972
0.000421942
0.000640535
0.000867837
0.00107753
0.00126698
0.00141311
0.0015251
0.00165506
-0.000330895
-0.000361692
-0.000350061
-0.000367032
-0.000336205
-0.000337485
-0.000339258
-0.000306668
-0.0003115
-0.00026684
-0.00019972
-0.000110817
1.35207e-05
0.000184984
0.000404701
0.000658605
0.000921545
0.00117545
0.00139402
0.00157792
0.00172059
0.00187268
-0.000400448
-0.000436018
-0.000415578
-0.000438662
-0.000405792
-0.00041998
-0.00040915
-0.00036619
-0.000381916
-0.000346499
-0.000280723
-0.000189039
-5.50782e-05
0.000139404
0.000391671
0.000682055
0.000988917
0.00128827
0.00154136
0.00176573
0.00192795
0.00210807
-0.000477987
-0.000508369
-0.000483425
-0.000507319
-0.000476689
-0.000490604
-0.000480976
-0.000440708
-0.00045519
-0.00042483
-0.00036322
-0.000272793
-0.000124866
9.51627e-05
0.000380798
0.000716365
0.00107273
0.0014064
0.00171221
0.00195638
0.00216995
0.00236708
-0.000553645
-0.000583115
-0.000556975
-0.000577949
-0.000542946
-0.000563823
-0.000545873
-0.000512061
-0.000526784
-0.000509253
-0.000458045
-0.000364718
-0.000197527
4.97529e-05
0.00037638
0.000757477
0.00115586
0.00154301
0.00188764
0.0021929
0.00243636
0.00268888
-0.000634331
-0.000661497
-0.000629293
-0.000651169
-0.000614331
-0.000630489
-0.000616725
-0.000580977
-0.000595326
-0.000605205
-0.000562265
-0.000461412
-0.000274078
7.95343e-06
0.000375631
0.000804802
0.00125713
0.00170156
0.00209918
0.00245572
0.00275531
0.0030381
-0.000722878
-0.000737226
-0.000704979
-0.000725747
-0.00068773
-0.00070296
-0.000686902
-0.000644835
-0.000664123
-0.000712859
-0.000674767
-0.000558715
-0.000347072
-3.13864e-05
0.000380212
0.000863742
0.00138019
0.00187212
0.0023434
0.00273168
0.00328988
0.00126826
-0.000825902
-0.000819434
-0.000781566
-0.000798472
-0.00076223
-0.000775133
-0.000760703
-0.000722332
-0.000738068
-0.00083889
-0.000796255
-0.000656348
-0.000421238
-7.18901e-05
0.000389771
0.00093314
0.00150486
0.00208372
0.0025604
0.00333704
0.00147935
-0.000953824
-0.000910655
-0.000866263
-0.000875405
-0.000837981
-0.000847001
-0.000833259
-0.000795154
-0.000811244
-0.000982811
-0.00090539
-0.000757805
-0.00050258
-0.000111799
0.000406335
0.00100904
0.00166534
0.00224072
0.0031236
0.00153918
-0.00109539
-0.00111452
-0.000973546
-0.00094177
-0.000910444
-0.000929276
-0.000908714
-0.000871639
-0.000889212
-0.00109906
-0.00101648
-0.000867121
-0.000585184
-0.000146771
0.000426846
0.00111105
0.00176305
0.00272437
0.00139552
-0.00123394
-0.00114038
-0.00142616
-0.00092005
-0.000940605
-0.00101343
-0.000990041
-0.000948934
-0.000969974
-0.00120133
-0.00114383
-0.000986511
-0.000668265
-0.000181962
0.000467265
0.0011574
0.00215634
0.00112566
-0.00132989
-0.00131061
-0.00122314
-0.00140392
-0.0015594
-0.00212313
-0.00372125
0.00138865
-0.00113697
-0.00109955
-0.00103574
-0.00106384
-0.00133409
-0.00128983
-0.00111132
-0.000753793
-0.00020406
0.000464287
0.00144277
0.000770932
-0.00145615
-0.00141782
-0.00135992
-0.00135224
-0.00135415
-0.00133848
-0.001363
-0.00137884
-0.00136246
-0.000961609
-0.000686657
-0.00149332
-0.0014452
-0.00123765
-0.000833903
-0.000250633
0.000631765
0.000360743
-0.00161367
-0.00155225
-0.00147866
-0.00145233
-0.00143028
-0.0013962
-0.00137636
-0.00138122
-0.00137535
-0.0013758
-0.00137425
-0.00143767
-0.00144439
-0.00127932
-0.00166772
-0.00160616
-0.00136855
-0.000917187
-0.000203646
-6.50552e-05
-0.00179349
-0.00170769
-0.00162258
-0.00159404
-0.00155518
-0.00151814
-0.00148881
-0.00147189
-0.00144278
-0.00141737
-0.00139588
-0.00139919
-0.00139364
-0.0014057
-0.00141373
-0.00185222
-0.00177717
-0.00148138
-0.000986826
-0.000471945
-0.00198946
-0.00188511
-0.00178611
-0.0017486
-0.00170363
-0.00166646
-0.00162278
-0.00160764
-0.00157455
-0.00153489
-0.00150521
-0.00148477
-0.00145185
-0.00143317
-0.00140755
-0.00205632
-0.00191798
-0.00165506
-0.00082677
-0.00221815
-0.00208065
-0.00196957
-0.0019188
-0.00187352
-0.00182892
-0.00178027
-0.00175889
-0.00171962
-0.00168162
-0.00163835
-0.00161877
-0.00158454
-0.00154878
-0.00151628
-0.00223581
-0.00217794
-0.0011079
-0.00245053
-0.00231588
-0.00218239
-0.0021106
-0.00206297
-0.0020116
-0.00195824
-0.00192673
-0.00188466
-0.00183812
-0.00179707
-0.00176728
-0.00172965
-0.00169032
-0.00165092
-0.00257129
-0.00131277
-0.00290328
-0.00254414
-0.00241429
-0.00233751
-0.00228085
-0.00221814
-0.00216137
-0.0021166
-0.00206646
-0.0020187
-0.00197237
-0.00193276
-0.00189551
-0.00184311
-0.00180535
-0.00145284
-0.0016767
-0.00301951
-0.00272269
-0.00257637
-0.00251264
-0.00245668
-0.00239242
-0.00233496
-0.00227917
-0.00222198
-0.00216852
-0.00211528
-0.00207209
-0.00202263
-0.00197753
-0.00159201
-0.00319652
-0.00298159
-0.00286977
-0.00274136
-0.00264983
-0.00257621
-0.00251159
-0.00245311
-0.00239407
-0.00233134
-0.00227762
-0.00222134
-0.00216753
-0.00136633
-0.00330514
-0.00335266
-0.00310236
-0.00295236
-0.00284914
-0.0027437
-0.00265418
-0.00256075
-0.00250185
-0.00244348
-0.00238737
-0.00133917
-0.00362949
-0.00336692
-0.00306824
-0.00293435
-0.00282146
-0.00272181
-0.00263346
-0.00164417
-0.00393041
-0.00334611
-0.00305222
-0.0689404
-0.0691367
-0.0681116
-0.0696513
-0.0691568
-0.0683006
-0.0675328
-0.0703086
-0.0698084
-0.0690011
-0.0684543
-0.0676935
-0.0669071
-0.0704773
-0.0709678
-0.0703344
-0.0686772
-0.0676758
-0.0678252
-0.0670439
-0.0662411
-0.0711362
-0.07165
-0.0713601
-0.0716936
-0.0690647
-0.0660827
-0.0663874
-0.0671674
-0.0663778
-0.0656202
-0.071824
-0.0724078
-0.0741056
-0.0717557
-0.073059
-0.0694332
-0.0664764
-0.063501
-0.0650844
-0.0665186
-0.0658769
-0.0657435
-0.0649908
-0.0725337
-0.0731169
-0.0769013
-0.0745269
-0.0744601
-0.0721232
-0.0732433
-0.069768
-0.0668312
-0.063912
-0.0638098
-0.0610057
-0.0625516
-0.0652433
-0.064592
-0.0651304
-0.0643481
-0.073764
-0.0797781
-0.0773417
-0.0772813
-0.075853
-0.0748966
-0.0746038
-0.0739152
-0.0724571
-0.0700686
-0.0671533
-0.0642711
-0.0614049
-0.0639463
-0.0633162
-0.0613214
-0.0585727
-0.0600635
-0.0626985
-0.0620435
-0.0644806
-0.0636809
-0.0744345
-0.0827526
-0.0802327
-0.0801686
-0.0787117
-0.0777255
-0.0774309
-0.0767281
-0.0760417
-0.0753197
-0.0752257
-0.0727617
-0.0703498
-0.0674473
-0.0645918
-0.061762
-0.0589665
-0.0638156
-0.0631886
-0.0613914
-0.0607004
-0.0588612
-0.0562054
-0.0576608
-0.0597329
-0.0625787
-0.0619241
-0.0630653
-0.0751945
-0.0857967
-0.0832071
-0.0831339
-0.0816443
-0.0806279
-0.0803266
-0.0796079
-0.0789065
-0.0781672
-0.0780646
-0.0772581
-0.0765743
-0.0759152
-0.0755289
-0.0730465
-0.0706152
-0.0677182
-0.0648821
-0.062079
-0.0593147
-0.056586
-0.0612477
-0.0605518
-0.0586144
-0.056486
-0.0538872
-0.0553037
-0.0574379
-0.0593527
-0.0599921
-0.0624423
-0.0618034
-0.0888083
-0.0862195
-0.0861865
-0.084642
-0.0836013
-0.0832996
-0.0825653
-0.0818449
-0.0810867
-0.0809739
-0.0801516
-0.0794524
-0.0787792
-0.0780401
-0.078373
-0.0758188
-0.0733204
-0.0708706
-0.0679743
-0.0651493
-0.0623666
-0.0596229
-0.056922
-0.0542478
-0.0611565
-0.0605873
-0.0587419
-0.0581473
-0.0562559
-0.0541507
-0.0516021
-0.0529953
-0.055082
-0.056975
-0.0575719
-0.0920015
-0.0892675
-0.0892194
-0.0876786
-0.0866139
-0.0863453
-0.0855838
-0.0848379
-0.084072
-0.0839469
-0.0831263
-0.0824103
-0.0817189
-0.0809598
-0.0812892
-0.0786644
-0.0760999
-0.0735876
-0.0711158
-0.0682204
-0.0653973
-0.0626312
-0.0599048
-0.057223
-0.0545791
-0.0519567
-0.0563624
-0.0557793
-0.0539092
-0.0518655
-0.0493924
-0.0507309
-0.0527709
-0.054626
-0.0552134
-0.095052
-0.0925014
-0.0924552
-0.0908457
-0.0896899
-0.089319
-0.0885972
-0.087926
-0.0871198
-0.0869686
-0.0861423
-0.0854145
-0.0847162
-0.0839496
-0.084262
-0.0815844
-0.0789485
-0.0763761
-0.0738472
-0.0713425
-0.0684527
-0.0656332
-0.0628775
-0.0601655
-0.0575004
-0.0548808
-0.0522897
-0.0497434
-0.0540184
-0.0534323
-0.0517017
-0.0496372
-0.0471961
-0.0485281
-0.0505376
-0.0522521
-0.0528516
-0.0957602
-0.0957509
-0.0940417
-0.0971167
-0.097882
-0.0929113
-0.092612
-0.0918331
-0.0910841
-0.0902205
-0.0900616
-0.0876578
-0.0869286
-0.0872925
-0.0845615
-0.0818726
-0.079233
-0.0766462
-0.074089
-0.0715406
-0.0686629
-0.0658523
-0.0631084
-0.060411
-0.0577586
-0.055157
-0.0525938
-0.0500698
-0.047563
-0.0516613
-0.0513337
-0.0494082
-0.0474399
-0.0450493
-0.0463613
-0.0483021
-0.0500422
-0.0505914
-0.0991104
-0.0962197
-0.0974921
-0.0959401
-0.0951221
-0.0943187
-0.0934613
-0.0994121
-0.0992743
-0.0932678
-0.0903987
-0.0876007
-0.0848577
-0.0821623
-0.0795142
-0.0769016
-0.0743037
-0.0717033
-0.0688435
-0.0660484
-0.0633185
-0.060635
-0.057999
-0.0554103
-0.0528678
-0.050368
-0.04789
-0.0454165
-0.0512643
-0.0495036
-0.048956
-0.047222
-0.0452977
-0.0429586
-0.044241
-0.0461511
-0.0478786
-0.0484267
-0.0499083
-0.0503946
-0.0996228
-0.096572
-0.0984064
-0.0986554
-0.0976805
-0.0968057
-0.101278
-0.0994315
-0.101035
-0.0936079
-0.0907209
-0.0879115
-0.085157
-0.0824538
-0.079784
-0.0771335
-0.0744835
-0.0718284
-0.0689877
-0.0662133
-0.0635014
-0.0608373
-0.0582183
-0.0556461
-0.0531188
-0.0506377
-0.0481842
-0.0457426
-0.0433193
-0.0493753
-0.0488396
-0.04733
-0.0467898
-0.0450899
-0.0432028
-0.0409158
-0.0421656
-0.0440387
-0.0457284
-0.0462676
-0.0477592
-0.0483039
-0.0999795
-0.0969194
-0.099353
-0.0985059
-0.100385
-0.101279
-0.0939419
-0.0910456
-0.0882277
-0.0854634
-0.0827387
-0.0800336
-0.0773318
-0.0746278
-0.0719157
-0.0690945
-0.0663393
-0.0636482
-0.0610092
-0.0584131
-0.0558597
-0.0533506
-0.0508845
-0.0484516
-0.0460346
-0.0436404
-0.0412682
-0.0472058
-0.0466715
-0.0451884
-0.0446594
-0.0429979
-0.0411508
-0.0389179
-0.0401312
-0.0419657
-0.0436201
-0.0441473
-0.0456067
-0.0461412
-0.100331
-0.0972578
-0.10024
-0.0992084
-0.101125
-0.0942751
-0.0913801
-0.0885512
-0.0857664
-0.0830062
-0.0802521
-0.0774955
-0.0747337
-0.0719654
-0.0691637
-0.0664271
-0.0637546
-0.0611424
-0.0585734
-0.0560441
-0.0535552
-0.0511069
-0.0486933
-0.0462995
-0.043928
-0.0415825
-0.0392569
-0.0450633
-0.0445403
-0.0430913
-0.0425734
-0.040945
-0.0391381
-0.0369506
-0.0381354
-0.039931
-0.0415541
-0.0420707
-0.0434984
-0.0440216
-0.100676
-0.0976002
-0.100084
-0.100952
-0.0946211
-0.0917223
-0.0888731
-0.0860527
-0.0832441
-0.0804356
-0.077621
-0.0748018
-0.0719849
-0.0691964
-0.0664767
-0.0638219
-0.0612303
-0.05869
-0.0561916
-0.0537302
-0.0513038
-0.0489103
-0.0465393
-0.0441891
-0.0418639
-0.039563
-0.037275
-0.0429668
-0.0424546
-0.0410359
-0.0405292
-0.0389285
-0.0371591
-0.0350204
-0.0361801
-0.0379316
-0.0395298
-0.0400348
-0.0414336
-0.0419466
-0.101023
-0.097958
-0.0949804
-0.0920639
-0.0891813
-0.0863116
-0.0834487
-0.0805806
-0.0777076
-0.0748371
-0.0719748
-0.0691994
-0.0664905
-0.0638509
-0.0612773
-0.058761
-0.0562942
-0.0538656
-0.0514692
-0.0491013
-0.0467543
-0.0444269
-0.0421214
-0.0398409
-0.0375792
-0.0353388
-0.0409132
-0.0404126
-0.0390212
-0.038524
-0.0369529
-0.0352268
-0.0331322
-0.0342617
-0.0360082
-0.0375392
-0.0380362
-0.0394107
-0.0399125
-0.101388
-0.0983306
-0.095341
-0.0923924
-0.0894621
-0.0865384
-0.0836149
-0.0806864
-0.0777602
-0.0748413
-0.0719496
-0.0691751
-0.0664763
-0.063845
-0.0612857
-0.0587896
-0.0563478
-0.0539531
-0.0515917
-0.0492553
-0.0469399
-0.0446381
-0.0423553
-0.0400941
-0.0378585
-0.035643
-0.0334536
-0.0389014
-0.038408
-0.0370321
-0.0365372
-0.035068
-0.0333253
-0.0312664
-0.0323795
-0.034077
-0.0356031
-0.036061
-0.0374196
-0.0379162
-0.101774
-0.0987079
-0.0956904
-0.0926943
-0.08971
-0.0867263
-0.0837411
-0.0807576
-0.0777797
-0.0748272
-0.0719284
-0.0691393
-0.0664375
-0.0638123
-0.0612597
-0.0587781
-0.0563574
-0.0539892
-0.0516627
-0.0493653
-0.0470874
-0.0448185
-0.0425633
-0.0403267
-0.0381133
-0.0359237
-0.0337549
-0.0315959
-0.0369067
-0.0363977
-0.0351895
-0.0346234
-0.0331206
-0.0314522
-0.0294523
-0.0305224
-0.0321777
-0.0336731
-0.0341567
-0.0353717
-0.0358811
-0.102169
-0.0990771
-0.096014
-0.0929636
-0.0899185
-0.0868733
-0.0838316
-0.0807941
-0.0777797
-0.0748156
-0.0719365
-0.0691114
-0.0663891
-0.0637564
-0.0612076
-0.0587323
-0.0563267
-0.0539799
-0.0516821
-0.0494232
-0.0471872
-0.0449598
-0.04274
-0.040534
-0.0383451
-0.036179
-0.0340325
-0.0318983
-0.0297769
-0.0352207
-0.0344393
-0.0332048
-0.0327318
-0.0312525
-0.029609
-0.0276893
-0.0286761
-0.0303284
-0.031809
-0.0322791
-0.0335538
-0.0340049
-0.102559
-0.0994221
-0.0963046
-0.0931932
-0.0900857
-0.0869834
-0.0838862
-0.0808091
-0.0777795
-0.0748291
-0.0719998
-0.0691144
-0.0663525
-0.0636933
-0.0611341
-0.0586612
-0.0562615
-0.0539302
-0.0516551
-0.0494271
-0.0472305
-0.0450508
-0.0428763
-0.0407087
-0.0385487
-0.0364076
-0.0342851
-0.0321746
-0.0300751
-0.0280173
-0.0352262
-0.0342998
-0.0330958
-0.0326321
-0.0313443
-0.0308788
-0.0294107
-0.0277428
-0.025934
-0.0266805
-0.0284917
-0.0299637
-0.0304287
-0.0317103
-0.032176
-0.0334451
-0.0338842
-0.102925
-0.0997351
-0.096555
-0.0933806
-0.0902149
-0.0870566
-0.0839176
-0.0808227
-0.0778028
-0.0748947
-0.0721356
-0.0691759
-0.0663518
-0.0636445
-0.0610547
-0.0585701
-0.0561719
-0.0538461
-0.0515866
-0.0493819
-0.0472184
-0.0450841
-0.0429592
-0.0408383
-0.0387185
-0.0366097
-0.0345123
-0.0324271
-0.0303499
-0.0282977
-0.026278
-0.0329836
-0.0325274
-0.0312464
-0.0307836
-0.0295014
-0.0290429
-0.0276016
-0.0253881
-0.0242381
-0.0266303
-0.0281485
-0.0285962
-0.0298653
-0.0303279
-0.0316016
-0.0320617
-0.10326
-0.100007
-0.0967624
-0.0935288
-0.0903055
-0.0871056
-0.0839457
-0.0808582
-0.0778786
-0.0750331
-0.072346
-0.0693138
-0.066411
-0.0636328
-0.0609917
-0.0584757
-0.056064
-0.0537387
-0.0514841
-0.0492952
-0.0471572
-0.0450578
-0.0429804
-0.040912
-0.0388426
-0.0367725
-0.0347086
-0.0326515
-0.0305993
-0.0285654
-0.0265546
-0.0245651
-0.031132
-0.0306763
-0.0294041
-0.0289443
-0.02772
-0.0273611
-0.0257402
-0.0238423
-0.0248708
-0.0225729
-0.026549
-0.0280305
-0.0284906
-0.0297554
-0.0302125
-0.103551
-0.100234
-0.0969292
-0.0936371
-0.0903697
-0.0871496
-0.0839946
-0.0809458
-0.078028
-0.0752499
-0.0726176
-0.0695303
-0.0665473
-0.0636843
-0.0609686
-0.0584
-0.0559549
-0.0536139
-0.0513588
-0.0491746
-0.0470532
-0.0449802
-0.0429412
-0.0409225
-0.0389082
-0.0368887
-0.034868
-0.0328453
-0.0308221
-0.0288097
-0.0268154
-0.0248431
-0.0228878
-0.0292904
-0.0288383
-0.0275486
-0.0269179
-0.0258313
-0.025397
-0.0240479
-0.0222125
-0.023211
-0.024972
-0.0245349
-0.0209275
-0.0266992
-0.0262633
-0.0279345
-0.0283811
-0.103798
-0.10042
-0.0970542
-0.0937171
-0.0904268
-0.0872119
-0.0840942
-0.0811079
-0.078259
-0.0755333
-0.0729201
-0.069811
-0.0667626
-0.0638138
-0.061011
-0.0583668
-0.0558666
-0.0534896
-0.0512183
-0.0490323
-0.0469154
-0.0448593
-0.042849
-0.0408704
-0.0389081
-0.0369456
-0.0349779
-0.0329993
-0.0310144
-0.0290299
-0.0270542
-0.0251004
-0.0231643
-0.0212321
-0.0274919
-0.0270629
-0.0241038
-0.0236938
-0.0223774
-0.0206087
-0.0215469
-0.0232929
-0.0228632
-0.0193118
-0.104002
-0.100562
-0.0971487
-0.093787
-0.0904996
-0.0873214
-0.0842673
-0.0813526
-0.0785632
-0.0758606
-0.07321
-0.0701291
-0.0670415
-0.0640197
-0.0611311
-0.0583989
-0.0558229
-0.0533895
-0.0510816
-0.0488766
-0.0467569
-0.0447053
-0.042713
-0.0407638
-0.0388432
-0.0369348
-0.0350243
-0.0331021
-0.0311648
-0.0292161
-0.0272694
-0.0253357
-0.0234168
-0.0215111
-0.0196095
-0.0224309
-0.0220306
-0.0207105
-0.0190179
-0.0199399
-0.0216353
-0.0212089
-0.0177229
-0.10416
-0.100671
-0.0972302
-0.0938701
-0.0906188
-0.0875022
-0.0845236
-0.0816719
-0.078918
-0.0762124
-0.0734868
-0.0704578
-0.0673547
-0.0642846
-0.0613261
-0.058511
-0.0558496
-0.0533385
-0.0509718
-0.0487263
-0.0465867
-0.0445312
-0.042543
-0.0406122
-0.0387222
-0.0368573
-0.0350029
-0.0331412
-0.0312622
-0.0293631
-0.0274518
-0.0255437
-0.0236458
-0.0217635
-0.019889
-0.0180233
-0.0207592
-0.0203286
-0.0192092
-0.0173903
-0.0182913
-0.0199021
-0.0194538
-0.0161497
-0.104282
-0.100764
-0.0973208
-0.0939947
-0.0908073
-0.0877634
-0.0848505
-0.0820385
-0.0792935
-0.0765769
-0.0707825
-0.0730067
-0.0743641
-0.0676711
-0.0645806
-0.0615814
-0.0587026
-0.0559591
-0.0533593
-0.0509136
-0.0486062
-0.0464246
-0.0443475
-0.0423544
-0.0404273
-0.0385559
-0.0367231
-0.0349136
-0.0331091
-0.0312934
-0.0294551
-0.027595
-0.0257235
-0.0238502
-0.021992
-0.0201419
-0.0182997
-0.0164543
-0.0193741
-0.0186621
-0.0175062
-0.0158097
-0.0167203
-0.0183169
-0.0179388
-0.014602
-0.104386
-0.100863
-0.097451
-0.0941844
-0.0910728
-0.0880934
-0.0852188
-0.0824099
-0.0796416
-0.076007
-0.0775716
-0.0679559
-0.0702486
-0.0716666
-0.0731799
-0.0743683
-0.0648768
-0.0618722
-0.0589558
-0.0561474
-0.0534643
-0.0509306
-0.0485409
-0.046296
-0.0441752
-0.0421574
-0.0402242
-0.0383566
-0.0365429
-0.0347659
-0.0330082
-0.0312528
-0.0294794
-0.0276817
-0.0258591
-0.0240268
-0.0221953
-0.0203691
-0.0185506
-0.0167308
-0.0149076
-0.019447
-0.0185372
-0.0175666
-0.0171746
-0.0159476
-0.0142687
-0.0151708
-0.0167968
-0.0163995
-0.0182172
-0.017854
-0.013083
-0.104492
-0.100996
-0.0976463
-0.094453
-0.0914059
-0.0884642
-0.0855885
-0.0827407
-0.0790519
-0.080634
-0.0762136
-0.0776855
-0.065148
-0.0674229
-0.0688088
-0.070328
-0.0717936
-0.0730071
-0.0737925
-0.0751853
-0.0739399
-0.0621676
-0.0592448
-0.0563982
-0.0536516
-0.0510335
-0.0485536
-0.0462265
-0.0440391
-0.0419741
-0.0400155
-0.0381402
-0.0363295
-0.0345718
-0.0328484
-0.0311408
-0.0294303
-0.0277002
-0.0259413
-0.0241589
-0.0223657
-0.0205674
-0.0187745
-0.0169806
-0.0151837
-0.0133876
-0.0174589
-0.0170738
-0.016008
-0.0156209
-0.014407
-0.0127528
-0.0136392
-0.0152414
-0.0148488
-0.016704
-0.0163069
-0.0115873
-0.104631
-0.10119
-0.0979172
-0.0947918
-0.0917813
-0.0888379
-0.0859235
-0.0821565
-0.083766
-0.0791828
-0.0807356
-0.0759528
-0.0766713
-0.078122
-0.0773457
-0.0624403
-0.0646606
-0.0660156
-0.067517
-0.0689067
-0.0700654
-0.070761
-0.0722104
-0.071496
-0.0729341
-0.0737148
-0.0732923
-0.0595385
-0.056684
-0.0539004
-0.0512174
-0.0486556
-0.046237
-0.0439638
-0.041831
-0.0398234
-0.0379197
-0.0361001
-0.0343455
-0.0326418
-0.0309691
-0.0293102
-0.0276438
-0.0259536
-0.0242349
-0.0224902
-0.0207299
-0.0189677
-0.0172014
-0.0154315
-0.013661
-0.0118928
-0.0158964
-0.0155147
-0.0144607
-0.0140797
-0.0128844
-0.0112561
-0.0121269
-0.0137043
-0.0133178
-0.0151445
-0.0147518
-0.0101135
-0.104826
-0.101462
-0.0982582
-0.0951748
-0.092163
-0.0891833
-0.0853359
-0.086974
-0.0822965
-0.0838829
-0.0788928
-0.0796736
-0.0811962
-0.0804146
-0.0598087
-0.06197
-0.0632982
-0.064766
-0.0661283
-0.0672594
-0.0679518
-0.0693343
-0.0686405
-0.0701099
-0.0708055
-0.0722249
-0.0715202
-0.056973
-0.0541827
-0.0514632
-0.0488392
-0.0463362
-0.043972
-0.0417523
-0.0396733
-0.0377182
-0.0358684
-0.0341042
-0.0324028
-0.0307511
-0.0291286
-0.0275137
-0.0258907
-0.0242404
-0.022558
-0.0208493
-0.0191245
-0.0173911
-0.0156488
-0.0139047
-0.0121643
-0.0104217
-0.0143484
-0.0139726
-0.0129347
-0.012559
-0.0113804
-0.0097766
-0.0106323
-0.0121884
-0.0118069
-0.0136071
-0.0132203
-0.00865785
-0.105098
-0.101807
-0.0986473
-0.0955666
-0.0925202
-0.0885867
-0.0902578
-0.0854802
-0.0870987
-0.0819998
-0.0827935
-0.0843507
-0.0835542
-0.057239
-0.0593449
-0.060646
-0.0620756
-0.0634093
-0.0645087
-0.0651902
-0.0665477
-0.0658614
-0.067306
-0.0679947
-0.0693828
-0.068688
-0.0544677
-0.0517417
-0.0490826
-0.0465171
-0.0440701
-0.0417581
-0.0395907
-0.0375627
-0.0356589
-0.0338625
-0.0321496
-0.0305005
-0.0288992
-0.0273229
-0.0257531
-0.0241687
-0.0225558
-0.0209112
-0.0192389
-0.0175421
-0.0158299
-0.0141133
-0.0124001
-0.0106896
-0.00896898
-0.0128234
-0.0124525
-0.0114279
-0.0110575
-0.00989193
-0.00831132
-0.00915105
-0.0106904
-0.0103133
-0.0120916
-0.0117094
-0.00721693
-0.105444
-0.102201
-0.0990486
-0.0959362
-0.0919129
-0.0936202
-0.0887346
-0.0903887
-0.0851759
-0.0859858
-0.0875768
-0.0867634
-0.054729
-0.0567823
-0.0580554
-0.0594484
-0.0607521
-0.0618213
-0.0624884
-0.063816
-0.0631429
-0.0645523
-0.0652284
-0.0665914
-0.0659072