/*--------------------------------*- C++ -*----------------------------------*\
| =========                 |                                                 |
| \\      /  F ield         | OpenFOAM: The Open Source CFD Toolbox           |
|  \\    /   O peration     | Version:  v1912                                 |
|   \\  /    A nd           | Website:  www.openfoam.com                      |
|    \\/     M anipulation  |                                                 |
\*---------------------------------------------------------------------------*/
FoamFile
{
    version     2.0;
    format      ascii;
    class       surfaceScalarField;
    location    "260";
    object      phi;
}
// * * * * * * * * * * * * * * * * * * * * * * * * * * * * * * * * * * * * * //

dimensions      [0 3 -1 0 0 0 0];
oriented        oriented;


internalField   nonuniform List<scalar> 
7191
(
-1.95732e-06
0.00132158
-9.08299e-06
0.00396809
-2.10922e-06
0.00132369
-2.41709e-05
0.00657421
-9.46702e-06
0.00397545
-2.11248e-06
0.0013258
-4.47849e-05
0.00905307
-2.40365e-05
0.00658878
-9.46936e-06
0.00398281
-1.9935e-06
0.00132779
-7.5e-05
0.0112929
-4.80481e-05
0.00907708
-2.35567e-05
0.00660287
-9.3428e-06
0.00399016
-2.03544e-06
0.00132983
-0.000115682
0.0131568
-7.9025e-05
0.0113239
-4.53386e-05
0.00909887
-2.41703e-05
0.0066177
-9.7259e-06
0.00399785
-1.71917e-06
0.00133155
-0.000162013
0.0145173
-0.000119343
0.0131971
-7.89142e-05
0.0113574
-4.63201e-05
0.00912102
-2.17504e-05
0.00662972
-8.08419e-06
0.00400421
-1.59531e-06
0.00133314
-0.00020639
0.0152614
-0.000164929
0.0145629
-0.000117689
0.0132359
-7.32359e-05
0.0113843
-4.13958e-05
0.00914066
-1.95536e-05
0.00664119
-7.26476e-06
0.00400988
-1.49163e-06
0.00133464
-0.000249388
0.0153229
-0.000215224
0.0153117
-0.000162269
0.0146075
-0.000112394
0.0132751
-7.06355e-05
0.0114136
-3.77555e-05
0.00915886
-1.8216e-05
0.00665214
-6.6421e-06
0.00401503
-1.16583e-06
0.0013358
-0.000279739
0.0146623
-0.000258307
0.015366
-0.000211333
0.0153608
-0.00015577
0.0146509
-0.000100885
0.0133053
-6.16701e-05
0.0114375
-3.35259e-05
0.00917417
-1.55238e-05
0.00666103
-4.57232e-06
0.00401844
-1.17978e-06
0.00133698
-0.000292436
0.0133176
-0.000300621
0.0147046
-0.000258236
0.0154129
-0.000197685
0.0154027
-0.000136929
0.0146869
-9.19988e-05
0.0133356
-5.42521e-05
0.0114582
-2.99115e-05
0.00918856
-1.41704e-05
0.00667062
-5.19832e-06
0.00402246
-8.47247e-07
0.00133783
-0.000285718
0.0113735
-0.00033174
0.0133487
-0.000297417
0.0147438
-0.000237202
0.0154524
-0.000174238
0.01544
-0.000122457
0.0147174
-7.83949e-05
0.0133598
-4.74959e-05
0.0114758
-2.56411e-05
0.00920003
-1.08923e-05
0.00667632
-4.57725e-06
0.00402619
-7.52745e-07
0.00133858
-0.000245889
0.00896233
-0.000352188
0.0113939
-0.000326903
0.0133782
-0.000263615
0.0147702
-0.000200939
0.0154791
-0.000148333
0.0154659
-0.00010232
0.0147413
-6.5719e-05
0.013378
-3.94404e-05
0.0114896
-2.14323e-05
0.00921057
-1.13728e-05
0.00668311
-4.17149e-06
0.00402961
-7.88886e-07
0.00133937
0.0062366
-0.000110067
-5.03303e-05
-0.000357252
0.00896739
-0.000343575
0.0114106
-0.000276998
0.0133915
-0.000216561
0.0147858
-0.000166513
0.0154973
-0.000119497
0.0154831
-8.41161e-05
0.0147597
-5.79107e-05
0.0133965
-3.63072e-05
0.0115045
-2.06307e-05
0.00921983
-1.02412e-05
0.00668918
-4.01026e-06
0.00403283
-7.73556e-07
0.00134014
0.00622232
-0.000201012
-0.000141963
-0.00211671
0.00207025
-6.36049e-05
-3.2672e-05
-0.00213437
-0.00034943
0.00897325
-0.000268987
0.0114026
-0.000210787
0.0133858
-0.000166857
0.0147861
-0.000129405
0.0155072
-0.000101099
0.0155001
-7.35262e-05
0.0147753
-4.77316e-05
0.0134079
-3.02368e-05
0.0115141
-1.74117e-05
0.009227
-8.68762e-06
0.00669386
-3.88767e-06
0.00403594
-8.41388e-07
0.00134099
0.00620838
-0.000139936
-0.000195555
-0.00203957
0.0020124
-0.000173838
-0.000111287
-0.0013954
0.0013522
-1.55009e-05
-4.90345e-06
-9.1162e-07
-0.00142052
-6.6471e-06
-2.00831e-05
-0.000228131
0.00893239
-0.000183614
0.0113754
-0.000153941
0.0133729
-0.000128573
0.0147853
-0.000105107
0.0155112
-8.05666e-05
0.0155071
-5.74035e-05
0.014785
-4.22881e-05
0.01342
-2.76938e-05
0.0115244
-1.87945e-05
0.00923711
-1.02218e-05
0.00670019
-3.43139e-06
0.00403853
-1.08328e-06
0.00134207
0.00612229
-4.18749e-05
-0.000100164
-0.00198837
0.00195766
-0.00010922
-0.000171527
-0.00129754
0.00126354
-8.68888e-05
-5.29519e-05
-1.69755e-05
-3.96469e-05
-0.000438469
0.000428456
-5.48735e-06
-0.000440733
-2.64008e-06
0.000445624
-0.000445768
-7.67574e-07
-3.60393e-06
-6.042e-08
-1.75588e-06
-0.00012512
0.0088739
-0.000116998
0.0113385
-0.00010741
0.0133517
-9.59263e-05
0.0147761
-7.9934e-05
0.0155106
-6.375e-05
0.0155134
-5.20254e-05
0.0147947
-3.83743e-05
0.0134306
-2.70727e-05
0.0115327
-1.71481e-05
0.00924403
-1.07583e-05
0.00670752
-4.98716e-06
0.00404243
-1.14389e-06
0.00134321
0.0060419
-8.22777e-06
-3.65044e-05
-0.00191192
0.00189434
-2.43001e-05
-5.44244e-05
-0.00123548
0.00118366
-1.70045e-05
-4.03968e-05
-7.99486e-05
-6.35224e-05
-0.000379494
0.000352505
-5.98996e-05
-0.000399272
-3.31739e-05
0.000420663
-9.18312e-06
-1.82554e-05
-0.000257277
0.000252552
-7.6144e-07
-0.000259504
-4.13281e-07
-0.00044831
-1.06173e-06
0.000260985
-0.00026169
-6.21407e-08
-1.87736e-08
-2.755e-07
-6.70076e-05
0.00882391
-7.46049e-05
0.0113057
-7.6059e-05
0.0133318
-7.23374e-05
0.0147685
-6.48244e-05
0.0155117
-5.78654e-05
0.0155193
-4.67072e-05
0.0148031
-3.66865e-05
0.0134402
-2.91151e-05
0.0115446
-2.05307e-05
0.00925381
-1.0601e-05
0.00671313
-5.30984e-06
0.0040466
-1.21077e-06
0.00134442
0.00599082
-6.2036e-07
-1.53056e-05
-0.00187037
0.00186758
-5.43026e-06
-1.25368e-05
-0.0011422
0.00112122
-1.75173e-07
-3.13588e-06
-1.03948e-05
-2.56965e-06
-0.000289154
0.000278459
-6.30902e-06
-0.000310893
-1.86587e-05
0.000330936
-5.838e-05
-4.34789e-05
-0.000207162
0.000168539
-2.12772e-05
-0.000230615
-9.72088e-06
0.000245092
-1.72365e-06
-3.77819e-06
-7.48967e-05
7.41352e-05
-7.531e-05
-0.000262638
-1.13855e-07
7.55855e-05
-7.56476e-05
-4.4875e-08
-3.72144e-05
0.00878652
-4.88574e-05
0.0112785
-5.41552e-05
0.0133136
-5.45126e-05
0.0147582
-5.40127e-05
0.0155078
-4.88989e-05
0.0155215
-4.3065e-05
0.0148094
-3.79309e-05
0.0134491
-2.94835e-05
0.0115536
-2.03305e-05
0.00926353
-1.36135e-05
0.00672144
-6.15475e-06
0.00405154
-1.53419e-06
0.00134596
0.00596052
9.59927e-07
-7.87641e-06
-0.0018558
0.00185618
-1.00139e-06
-3.53195e-06
-0.00110966
0.00110432
5.49917e-07
-6.37521e-07
-1.20036e-06
2.17047e-07
-0.000265681
0.000265599
-9.2754e-08
-0.000268442
-3.74702e-07
0.000270341
-2.27677e-06
-6.70908e-07
-8.56572e-05
7.93481e-05
-0.000104316
0.000147795
-3.76354e-05
-5.89125e-05
3.76354e-05
-6.86334e-05
7.24116e-05
-7.57615e-05
-2.19826e-05
0.00875965
-3.34036e-05
0.0112577
-4.04958e-05
0.0132996
-4.65909e-05
0.0147508
-4.74947e-05
0.0155064
-4.6594e-05
0.015525
-4.57925e-05
0.0148173
-4.0562e-05
0.0134601
-3.2539e-05
0.0115658
-2.50716e-05
0.00927499
-1.51021e-05
0.00673039
-6.921e-06
0.00405693
-1.57211e-06
0.00134753
0.00594188
1.65448e-06
-4.98952e-06
-0.00184972
0.0018513
-6.23497e-07
-1.41224e-06
-0.0011009
0.00109981
4.03367e-07
-3.22559e-07
-3.33834e-07
2.24612e-07
-0.000264069
0.00026456
5.94125e-08
-0.000264763
5.65902e-08
0.000264571
-1.72943e-07
2.47241e-08
-7.60258e-05
7.5933e-05
-7.64005e-05
7.70714e-05
-1.39814e-05
0.00874022
-2.48338e-05
0.011242
-3.19038e-05
0.0132849
-3.76571e-05
0.014741
-4.42958e-05
0.0155041
-4.75699e-05
0.0155268
-4.9198e-05
0.0148259
-4.52633e-05
0.0134729
-3.93044e-05
0.01158
-2.84903e-05
0.00928838
-1.69885e-05
0.00674045
-7.76614e-06
0.00406313
-1.93467e-06
0.00134946
0.00593006
9.69312e-07
-3.13856e-06
-0.00184697
0.00184865
-2.77817e-08
-6.53629e-07
-0.00109844
0.00109771
2.63788e-07
-1.61056e-07
-1.88006e-07
1.52017e-07
-0.000264078
0.000264448
3.31003e-08
-0.000264481
8.06315e-08
0.000264312
-8.62031e-08
5.56954e-08
-7.58414e-05
7.59008e-05
-7.57848e-05
7.57601e-05
-1.01249e-05
0.00872551
-1.71882e-05
0.0112273
-2.73528e-05
0.0132746
-3.54146e-05
0.0147321
-4.36474e-05
0.0155002
-5.3284e-05
0.0155309
-5.56222e-05
0.0148363
-5.41282e-05
0.0134877
-4.51418e-05
0.0115967
-3.39615e-05
0.00930535
-2.04026e-05
0.00675309
-9.33168e-06
0.00407052
-2.03484e-06
0.0013515
0.00592105
7.44055e-07
-1.8556e-06
-0.00184605
0.0018468
2.26612e-07
-5.42427e-07
-0.00109716
0.00109698
2.53097e-07
-9.53453e-08
-1.51694e-07
4.72315e-08
-0.000264221
0.000264474
1.07341e-08
-0.000264448
6.57507e-08
0.000264329
-6.84249e-08
3.2723e-08
-7.59509e-05
7.5984e-05
-7.58703e-05
7.58146e-05
-7.03299e-06
0.00871536
-1.42203e-05
0.0112142
-2.48804e-05
0.0132641
-3.62145e-05
0.0147246
-4.90687e-05
0.015496
-5.89548e-05
0.0155342
-6.57144e-05
0.0148479
-6.33854e-05
0.0135059
-5.32976e-05
0.011616
-3.58418e-05
0.00932079
-2.07336e-05
0.00676449
-8.87288e-06
0.00407736
-1.84669e-06
0.00135335
0.00591432
1.16567e-06
-1.4737e-06
-0.00184533
0.00184589
1.82665e-07
-3.86773e-07
-0.00109649
0.00109666
1.64487e-07
-1.07778e-07
-8.75621e-08
3.49587e-08
-0.000264266
0.000264511
8.38281e-09
-0.000264432
7.10587e-08
0.000264402
-7.94366e-08
1.68694e-08
-7.6014e-05
7.60248e-05
-7.59483e-05
7.59156e-05
-5.89151e-06
0.00870703
-1.29448e-05
0.0112023
-2.3891e-05
0.0132518
-4.19788e-05
0.0147176
-6.074e-05
0.0154978
-7.54852e-05
0.015544
-7.93719e-05
0.0148639
-7.30514e-05
0.0135257
-5.86052e-05
0.0116388
-4.10525e-05
0.00934111
-2.28786e-05
0.0067785
-8.7787e-06
0.00408429
-1.91634e-06
0.00135526
0.00590863
9.75422e-07
-1.17116e-06
-0.00184462
0.00184556
2.27696e-07
-2.09074e-07
-0.00109633
0.0010964
1.62822e-07
-4.29683e-08
-1.98394e-08
-4.41355e-08
-0.000264348
0.00026451
2.23375e-09
-0.000264524
6.83632e-08
0.000264503
-8.02983e-08
1.41207e-08
-7.60333e-05
7.60416e-05
-7.59622e-05
7.59453e-05
-4.07664e-06
0.00869816
-1.26688e-05
0.011191
-2.83649e-05
0.0132382
-4.7191e-05
0.014704
-7.06987e-05
0.015493
-8.9326e-05
0.0155539
-9.72372e-05
0.0148881
-8.67635e-05
0.0135538
-6.63316e-05
0.011664
-4.33444e-05
0.00936158
-2.23773e-05
0.0067921
-9.4761e-06
0.00409185
-2.49585e-06
0.00135776
0.00590436
8.29202e-07
-6.39139e-07
-0.00184457
0.00184531
2.36469e-07
-1.81663e-07
-0.00109624
0.00109634
1.66537e-07
-3.11339e-08
-1.83728e-08
-3.82419e-08
-0.000264378
0.000264535
5.63128e-09
-0.000264518
9.71116e-08
0.00026457
-7.99618e-08
8.59775e-09
-7.60438e-05
7.60461e-05
-7.59755e-05
7.59613e-05
-4.64365e-06
0.00869014
-1.50518e-05
0.0111777
-3.48006e-05
0.0132258
-6.48225e-05
0.0146981
-9.40227e-05
0.0154977
-0.000112824
0.0155695
-0.000113027
0.0149143
-9.71633e-05
0.0135847
-7.13154e-05
0.011692
-4.45669e-05
0.00938377
-2.27181e-05
0.00680534
-7.72053e-06
0.00409708
-7.22142e-07
0.00135848
0.00589961
4.46106e-07
-3.33888e-07
-0.00184466
0.00184522
2.71045e-07
1.41903e-08
-0.00109621
0.00109631
1.65209e-07
-2.19823e-08
-1.11655e-08
-4.84438e-08
-0.000264449
0.000264609
6.19684e-09
-0.000264545
6.54458e-08
0.0002646
-8.34126e-08
1.63217e-08
-7.60718e-05
7.60774e-05
-7.59747e-05
7.59661e-05
-4.69754e-06
0.00867978
-2.02816e-05
0.0111632
-4.73377e-05
0.0132083
-8.45871e-05
0.0146887
-0.000118475
0.0155033
-0.000136558
0.015593
-0.000129888
0.014947
-0.000106614
0.01362
-7.49499e-05
0.0117224
-4.19682e-05
0.00940302
-2.13076e-05
0.00681893
-6.69871e-06
0.00410305
-6.52635e-07
0.00135913
0.00589547
-7.43549e-07
1.87222e-07
-0.00184482
0.00184513
1.39513e-07
6.12848e-08
-0.00109637
0.00109649
1.68953e-07
-1.6154e-08
-6.49093e-09
-3.83315e-08
-0.00026452
0.000264692
-6.36291e-09
-0.000264529
-1.33394e-08
0.000264686
-8.78603e-08
1.08581e-07
-7.60758e-05
7.6082e-05
-7.60104e-05
7.5994e-05
-7.51594e-06
0.00866702
-2.77116e-05
0.0111436
-6.47968e-05
0.0131885
-0.000113556
0.0146838
-0.000151224
0.015518
-0.000163398
0.0156266
-0.000144775
0.0149852
-0.000110889
0.0136559
-7.21576e-05
0.0117526
-4.10442e-05
0.00942275
-1.74052e-05
0.00682963
-6.19199e-06
0.00410859
-4.01701e-07
0.00135953
0.00588792
-1.0359e-06
1.06295e-06
-0.00184521
0.00184432
1.47209e-07
1.00155e-07
-0.00109658
0.00109656
1.70807e-07
-1.26774e-08
3.65343e-09
-3.24182e-08
-0.000264577
0.000264751
-5.33967e-09
-0.000264581
-1.14534e-08
0.000264731
-4.64048e-08
1.11932e-07
-7.60894e-05
7.6083e-05
-7.61027e-05
7.59941e-05
-1.1164e-05
0.00865047
-4.05486e-05
0.0111193
-9.51879e-05
0.0131701
-0.000151585
0.0146841
-0.000188914
0.0155435
-0.000185615
0.0156674
-0.000154847
0.0150292
-0.000110202
0.013694
-6.80911e-05
0.0117796
-3.63384e-05
0.00944169
-1.5944e-05
0.00683938
-2.98488e-06
0.00411118
-1.80403e-07
0.00135971
0.00587736
-1.99986e-06
1.3979e-06
-0.00184521
0.00184437
-1.88422e-07
1.73347e-07
-0.00109668
0.00109668
1.65804e-07
-1.97965e-08
3.93596e-09
-2.33656e-08
-0.000264685
0.000264861
-5.24915e-09
-0.000264688
-1.00041e-08
0.000264833
-7.88116e-08
1.12725e-07
-7.61371e-05
7.61317e-05
-7.61485e-05
7.60366e-05
-1.82918e-05
0.00862821
-6.45956e-05
0.0110887
-0.000135476
0.013154
-0.000199406
0.0146946
-0.00022253
0.0155804
-0.000197437
0.01571
-0.000153515
0.0150725
-0.000102451
0.0137283
-6.09219e-05
0.0118042
-3.09068e-05
0.00945665
-1.0665e-05
0.00684706
-2.72793e-06
0.00411372
1.93043e-07
0.00135952
0.0058616
-3.44496e-06
9.12626e-07
-0.0018453
0.00184371
-4.09242e-07
4.6663e-07
-0.00109688
0.00109651
1.79402e-07
3.08005e-09
-2.69779e-10
-2.96105e-08
-0.000264764
0.000264938
-8.19083e-09
-0.000264806
2.22172e-08
0.000264909
-4.35485e-08
7.9804e-08
-7.61557e-05
7.61504e-05
-7.61657e-05
7.60529e-05
-3.08328e-05
0.00859445
-0.000100853
0.0110541
-0.000191806
0.0131464
-0.000248964
0.0147211
-0.000241226
0.0156242
-0.000199943
0.0157564
-0.000142576
0.0151126
-9.26351e-05
0.01376
-5.1752e-05
0.0118251
-2.28078e-05
0.00946879
-6.4669e-06
0.0068508
7.67333e-07
0.00411315
1.74552e-06
0.00135778
0.00583502
-5.89038e-06
1.63626e-06
-0.00184407
0.00184127
-6.40427e-07
5.44595e-07
-0.00109697
0.00109644
1.0871e-07
7.23397e-09
1.83643e-08
-1.17119e-08
-0.000264894
0.000265071
2.65598e-09
-0.0002649
9.48784e-09
0.000265021
-8.38675e-08
9.13217e-08
-7.62089e-05
7.62007e-05
-7.61867e-05
7.61069e-05
-5.54178e-05
0.00854901
-0.000161298
0.0110236
-0.000260099
0.0131576
-0.000281272
0.0147611
-0.000244845
0.0156691
-0.000185284
0.0157991
-0.000126461
0.0151464
-7.70959e-05
0.0137854
-4.12104e-05
0.0118435
-1.56464e-05
0.00947797
-3.02179e-06
0.00685459
1.6697e-06
0.00411322
2.07767e-06
0.0013557
0.00579184
-1.20538e-05
-1.85619e-07
-0.00184295
0.001838
-9.47448e-07
-3.95717e-08
-0.00109696
0.00109619
5.0567e-08
8.10455e-08
9.3885e-08
-6.30947e-08
-0.000265054
0.000265164
-1.51956e-09
-0.000265058
1.1904e-08
0.000265167
-7.7637e-08
9.66314e-08
-7.62176e-05
7.62203e-05
-7.62081e-05
7.61168e-05
-0.000104399
0.00849212
-0.000243277
0.0110068
-0.000310876
0.0131872
-0.000287924
0.0148042
-0.000224966
0.0157088
-0.000158718
0.0158314
-0.000103654
0.015173
-6.14748e-05
0.0138056
-2.86271e-05
0.0118564
-9.30324e-06
0.00948425
1.03546e-06
0.00685523
5.28183e-06
0.00411002
2.4757e-06
0.00135322
0.00572042
-2.77665e-05
-5.21305e-06
-0.00183862
0.00182945
-2.87841e-06
-8.06979e-07
-0.0010961
0.00109505
-3.00111e-11
9.91852e-08
1.77401e-07
-1.26024e-07
-0.000265206
0.000265251
5.69199e-09
-0.000265171
4.55617e-08
0.000265303
-4.52013e-08
6.90697e-08
-7.62512e-05
7.62497e-05
-7.62393e-05
7.61426e-05
-0.000192427
0.00844127
-0.000329357
0.0110253
-0.000322671
0.0132219
-0.00025557
0.0148348
-0.000188651
0.0157387
-0.000130643
0.0158584
-8.22469e-05
0.0151938
-4.36771e-05
0.0138207
-1.83743e-05
0.0118655
-2.29863e-06
0.00948759
3.70171e-06
0.00685681
7.33075e-06
0.00410517
2.85673e-06
0.00135037
0.00562514
-7.16413e-05
-2.54973e-05
-0.00182753
0.00180851
-8.75171e-06
-3.29348e-06
-0.00109422
0.00109156
-3.12899e-07
9.79563e-08
1.9261e-07
-1.70395e-07
-0.000265357
0.000265386
-2.97299e-08
-0.000265273
1.5335e-08
0.000265501
-7.26524e-08
1.02623e-07
-7.63191e-05
7.63248e-05
-7.62735e-05
7.62045e-05
-0.000323472
0.00843538
-0.000349292
0.0110519
-0.00027571
0.013242
-0.000207099
0.0148532
-0.000147316
0.0157554
-9.88769e-05
0.015875
-5.86293e-05
0.0152087
-2.91581e-05
0.0138315
-8.47241e-06
0.0118717
4.04672e-06
0.00948724
1.08622e-05
0.00685327
7.65847e-06
0.00410036
3.33178e-06
0.00134703
0.0055723
-0.00017506
-9.55719e-05
-0.00179708
0.0017565
-3.10526e-05
-1.40671e-05
-0.00108831
0.0010802
-8.05714e-07
1.5858e-07
4.46474e-07
-4.90726e-07
-0.000265405
0.000265126
-3.42372e-08
-0.000265358
5.16987e-08
0.000265607
-2.76762e-08
7.78341e-08
-7.63701e-05
7.63404e-05
-7.63548e-05
7.62521e-05
-0.000362887
0.00844898
-0.000275474
0.0110517
-0.000206232
0.0132412
-0.000154074
0.01486
-0.000108399
0.0157649
-7.02331e-05
0.0158866
-3.92879e-05
0.0152188
-1.37567e-05
0.0138368
2.92256e-06
0.0118728
1.15516e-05
0.00948655
1.20029e-05
0.00684893
9.22026e-06
0.00409448
3.8701e-06
0.00134316
0.00556594
-0.000160791
-0.000195739
-0.00172035
0.00167172
-0.000126428
-5.94238e-05
-0.00106743
0.00104023
-3.59214e-06
-2.54821e-07
1.39589e-07
-1.43811e-06
-0.000265184
0.000264455
-7.66888e-08
-0.000265051
2.49468e-08
0.000265619
-4.70671e-08
7.79259e-08
-7.64422e-05
7.6408e-05
-7.63905e-05
7.63127e-05
-0.000239648
0.00841315
-0.000179082
0.0110245
-0.000139283
0.0132264
-0.000103707
0.0148553
-7.40789e-05
0.0157688
-4.67428e-05
0.0158941
-2.05803e-05
0.0152257
-3.55951e-06
0.0138432
1.08997e-05
0.0118735
1.5427e-05
0.00948313
1.95339e-05
0.00683862
1.07605e-05
0.00408759
4.60016e-06
0.00133856
0.00547566
-4.26798e-05
-0.000106687
-0.00164442
0.00161066
-0.000127036
-0.000168443
-0.000993461
0.000918373
-3.70444e-05
-1.42944e-05
-2.10033e-06
-1.05565e-05
-0.0002631
0.000260031
-5.23441e-07
-0.000263285
-6.97252e-08
0.000264696
-1.01242e-07
-2.65431e-08
-7.64638e-05
7.63871e-05
-7.64388e-05
7.63609e-05
-0.000121197
0.00835526
-0.000106578
0.0109918
-8.96101e-05
0.0132123
-6.94588e-05
0.0148507
-4.85105e-05
0.0157705
-2.47904e-05
0.0158983
-5.96209e-06
0.0152281
8.39373e-06
0.0138457
1.81817e-05
0.0118707
2.16528e-05
0.00948101
1.75353e-05
0.00683184
1.52039e-05
0.00407698
6.31731e-06
0.00133225
0.00539147
-5.29644e-06
-3.17124e-05
-0.00155877
0.00153617
-2.00791e-05
-5.47966e-05
-0.000872942
0.000809446
-1.86373e-05
-4.49031e-05
-5.94293e-05
-6.35821e-05
-0.00023923
0.000212147
-9.96106e-06
-0.000249678
-3.84656e-06
0.000258535
-6.04254e-07
-1.69962e-06
-7.61896e-05
7.56662e-05
-7.62593e-05
7.62859e-05
-5.69326e-05
0.00830562
-5.94689e-05
0.0109617
-5.31318e-05
0.013196
-4.10571e-05
0.0148432
-2.32277e-05
0.015769
-7.08228e-06
0.0158994
6.08406e-06
0.0152304
2.06934e-05
0.0138432
2.58321e-05
0.0118665
2.83201e-05
0.00947023
2.55884e-05
0.00682146
1.53615e-05
0.00406794
5.77726e-06
0.00132647
0.00534381
1.76444e-06
-1.10351e-05
-0.00151293
0.00151023
-2.59496e-06
-8.47184e-06
-0.000762248
0.000742948
9.82516e-08
-8.77844e-07
-6.35569e-06
-1.24271e-06
-0.000103787
8.51495e-05
-0.00014869
0.000174773
-2.20556e-05
-3.74991e-05
-6.95157e-05
5.95547e-05
-7.33623e-05
7.50619e-05
-2.69779e-05
0.00827313
-3.24028e-05
0.0109409
-2.8381e-05
0.0131833
-1.93214e-05
0.0148393
-8.91139e-06
0.0157708
4.44252e-06
0.015901
1.71047e-05
0.015234
2.74371e-05
0.0138416
3.16194e-05
0.0118632
3.2836e-05
0.00946298
2.80027e-05
0.00680882
1.91315e-05
0.00405458
6.5977e-06
0.00131987
0.00531868
3.14777e-06
-5.0003e-06
-0.00150056
0.00150222
1.01016e-07
-1.36353e-06
-0.000734526
0.000731869
1.45939e-07
-8.40203e-08
-1.94621e-07
1.45311e-07
-7.66733e-05
7.67715e-05
-7.75511e-05
7.87938e-05
3.74991e-05
-1.12978e-05
0.00825202
-1.38369e-05
0.0109264
-1.21621e-05
0.0131761
-4.0083e-06
0.0148344
6.7795e-06
0.0157685
1.83707e-05
0.0158998
2.93233e-05
0.0152321
3.54638e-05
0.0138378
3.98568e-05
0.0118562
4.12686e-05
0.00944971
3.18666e-05
0.00679608
2.15249e-05
0.00403966
8.51643e-06
0.00131136
0.00530729
2.89645e-06
-2.80577e-06
-0.00149736
0.00150008
4.2751e-07
-1.33328e-07
-0.000730398
0.000730435
9.53335e-08
-3.05212e-08
-1.85022e-08
1.25406e-07
-7.66382e-05
7.67842e-05
-7.67222e-05
7.65769e-05
-3.35289e-06
0.00824154
-3.22119e-06
0.0109174
1.04396e-06
0.0131711
8.72784e-06
0.0148325
1.92841e-05
0.0157676
2.85106e-05
0.0159006
3.85662e-05
0.015229
4.41253e-05
0.0138335
4.85391e-05
0.0118489
4.36023e-05
0.00943798
3.72896e-05
0.00678032
2.15962e-05
0.00402658
8.07398e-06
0.00130328
0.00530241
2.72373e-06
-1.1913e-06
-0.00149716
0.00149953
5.26532e-07
1.13246e-07
-0.000730242
0.000730625
6.376e-08
-1.96464e-08
-3.06087e-08
8.99769e-08
-7.68605e-05
7.69559e-05
-7.68911e-05
7.67657e-05
1.8633e-06
0.00823645
3.84008e-06
0.0109146
9.48595e-06
0.0131703
1.68389e-05
0.0148349
2.6847e-05
0.0157692
3.85084e-05
0.0159006
4.57208e-05
0.0152274
5.40903e-05
0.013828
5.56107e-05
0.0118369
4.96955e-05
0.00942557
4.08325e-05
0.00676108
2.43967e-05
0.00401025
8.97744e-06
0.0012943
0.00530146
3.06797e-06
-2.62637e-07
-0.00149801
0.00150015
5.84644e-07
3.28939e-07
-0.00073066
0.000731161
5.28213e-08
-2.76572e-08
-4.21913e-09
8.26472e-08
-7.69956e-05
7.70593e-05
-7.70152e-05
7.69253e-05
4.30856e-06
0.00823599
9.11111e-06
0.010915
1.69496e-05
0.0131702
2.63138e-05
0.0148354
3.6235e-05
0.0157715
4.70139e-05
0.0158993
5.63305e-05
0.0152251
6.08863e-05
0.0138227
5.77241e-05
0.0118289
5.51161e-05
0.00941129
4.25323e-05
0.00674294
2.99181e-05
0.00398931
9.38594e-06
0.00128492
0.00530291
2.96091e-06
-1.0057e-07
-0.00149946
0.00150193
5.97912e-07
4.25433e-07
-0.000731413
0.000731886
3.31367e-08
7.75805e-08
2.82754e-08
4.94711e-08
-7.71101e-05
7.71629e-05
-7.71378e-05
7.70551e-05
7.50817e-06
0.00823759
1.43985e-05
0.0109176
2.25591e-05
0.013174
3.39218e-05
0.0148378
4.61518e-05
0.0157724
5.55697e-05
0.0159001
6.36861e-05
0.0152223
6.93209e-05
0.0138111
7.21052e-05
0.0118119
6.28535e-05
0.00939097
5.28807e-05
0.00671998
3.05629e-05
0.00396814
9.96965e-06
0.00127495
0.0053071
2.50659e-06
8.18499e-07
-0.00150139
0.00150373
6.25018e-07
4.37866e-07
-0.000732226
0.000732804
2.04886e-08
-9.24413e-10
3.12829e-08
5.50349e-08
-7.73183e-05
7.73514e-05
-7.72407e-05
7.71912e-05
8.99995e-06
0.00824299
1.70804e-05
0.0109231
2.74856e-05
0.0131804
4.08792e-05
0.014843
5.22433e-05
0.0157757
6.49612e-05
0.0158988
7.53221e-05
0.0152163
7.92389e-05
0.013804
8.15925e-05
0.0117932
7.24663e-05
0.00937138
5.4471e-05
0.00669607
3.43483e-05
0.00394376
1.34559e-05
0.00126149
0.00531242
2.57713e-06
1.09808e-06
-0.00150393
0.00150576
6.7285e-07
6.16052e-07
-0.000733192
0.000733763
2.44655e-08
2.9304e-08
7.2887e-09
4.29187e-08
-7.74368e-05
7.74573e-05
-7.74377e-05
7.73827e-05
1.04297e-05
0.00824964
2.10342e-05
0.0109295
3.35441e-05
0.0131877
4.67518e-05
0.0148485
6.10238e-05
0.0157796
7.4516e-05
0.0158996
8.32256e-05
0.0152124
8.7597e-05
0.013798
8.47609e-05
0.0117809
8.01895e-05
0.00934566
6.14161e-05
0.00666901
3.78031e-05
0.00391941
2.77095e-05
0.00123378
0.00531926
2.32422e-06
1.26047e-06
-0.0015062
0.00150784
9.39514e-07
6.61851e-07
-0.000734288
0.000734927
2.7974e-08
5.13369e-09
3.33453e-08
5.76924e-08
-7.75368e-05
7.75613e-05
-7.75075e-05
7.74646e-05
1.15438e-05
0.00825913
2.49363e-05
0.0109381
4.13547e-05
0.0131931
5.55495e-05
0.014854
7.18602e-05
0.0157823
8.24211e-05
0.0159004
9.28766e-05
0.0152071
9.78959e-05
0.0137848
9.62936e-05
0.0117648
8.60616e-05
0.00932102
6.80749e-05
0.00663873
5.83207e-05
0.0038888
5.46417e-05
0.00532806
1.61152e-06
1.13746e-06
-0.00150834
0.00151012
5.50532e-07
7.54751e-07
-0.000735496
0.000736323
1.05661e-07
6.01836e-09
3.47717e-08
5.90224e-08
-7.76574e-05
7.76854e-05
-7.76523e-05
7.75946e-05
1.30542e-05
0.00827101
2.79946e-05
0.0109515
4.50795e-05
0.0132036
6.33216e-05
0.0148625
7.91984e-05
0.0157855
9.40372e-05
0.0158993
0.000103081
0.0152019
0.000106642
0.0137745
0.000104028
0.0117468
9.14891e-05
0.0092976
8.78257e-05
0.00660923
9.96212e-05
0.00533921
1.14124e-06
7.63296e-07
-0.00151095
0.00151277
-2.04001e-07
3.01988e-07
-0.000736975
0.000737468
3.11083e-08
2.6632e-08
7.1806e-08
3.15418e-08
-7.77852e-05
7.78909e-05
-7.77792e-05
7.77202e-05
1.71749e-05
0.00828183
3.38698e-05
0.0109627
5.12177e-05
0.0132157
6.95656e-05
0.0148722
8.69431e-05
0.0157926
0.000102925
0.0158994
0.000112569
0.015196
0.000119872
0.0137586
0.000116882
0.0117214
0.000114142
0.00927129
0.000129629
0.00534978
5.12463e-06
1.47871e-06
-0.00151487
0.00151795
-1.93603e-06
-1.33933e-06
-0.000737705
0.000737552
-9.14686e-10
-4.996e-08
1.5838e-08
4.903e-08
-7.80209e-05
7.8052e-05
-7.79942e-05
7.79627e-05
2.08002e-05
0.0082949
3.69671e-05
0.0109769
5.79961e-05
0.0132273
7.85493e-05
0.0148806
9.83148e-05
0.0157972
0.000111033
0.015901
0.00012314
0.0151927
0.000128427
0.0137471
0.000134001
0.0117016
0.000151231
0.00536005
5.21639e-06
5.31367e-06
-0.00151596
0.00152026
1.22792e-06
-4.04175e-07
-1.73317e-06
5.2013e-06
-0.000736167
0.000435444
0.000299012
-2.20331e-07
-4.45131e-09
2.30738e-08
2.21258e-08
-7.80669e-05
7.8066e-05
-7.81168e-05
7.80678e-05
2.23565e-05
0.00830951
4.23648e-05
0.0109926
6.31898e-05
0.0132426
8.68372e-05
0.014892
0.000104694
0.0158035
0.000121498
0.0159026
0.000130393
0.0151907
0.000143265
0.0137378
0.000159925
0.00537332
4.47785e-06
4.6052e-06
-0.00152252
0.00152499
1.50417e-06
1.23698e-06
1.81834e-06
1.23734e-06
-0.000464089
0.000466241
-9.24447e-07
-0.000461427
-3.06591e-06
-0.000456355
-6.80507e-06
-1.571e-05
0.000280464
2.8383e-06
-7.81067e-05
7.78864e-05
-7.81112e-05
7.8089e-05
2.42507e-05
0.00832762
4.66638e-05
0.0110091
7.1385e-05
0.0132581
9.46351e-05
0.0149021
0.000113761
0.0158113
0.000130143
0.0159029
0.000146343
0.0151876
0.000164663
0.00538821
4.52692e-06
4.83617e-06
-0.0015273
0.00152993
1.0752e-06
7.65534e-07
1.28274e-06
1.01764e-06
-0.000469065
0.000469757
8.1212e-07
-0.000468469
6.41514e-07
-0.000467176
5.24635e-07
3.02751e-07
-0.000272526
0.000272116
-5.14734e-07
-0.000274546
-1.0458e-06
-8.87134e-07
8.07247e-05
2.7661e-05
0.00834663
5.14158e-05
0.0110291
7.91552e-05
0.0132736
0.000100899
0.014915
0.000120675
0.0158207
0.000138956
0.0159102
0.000158086
0.00540572
4.95736e-06
5.2004e-06
-0.00153299
0.00153564
8.19931e-07
1.05539e-06
9.9945e-07
7.77995e-07
-0.000471397
0.000471906
5.66484e-07
-0.000471043
4.11598e-07
-0.000470179
4.18321e-07
5.95743e-07
-0.00027332
0.000273986
1.461e-07
-0.000272839
1.60812e-07
-0.000272419
1.04562e-07
-4.86375e-10
-7.87918e-05
7.8277e-05
-7.98376e-05
3.04917e-05
0.00836755
5.79418e-05
0.0110503
8.43848e-05
0.0132901
0.00010678
0.0149289
0.000127326
0.0158324
0.000141378
0.00542495
5.37109e-06
5.89052e-06
-0.001539
0.00154204
7.92969e-07
1.11869e-06
8.04295e-07
1.04284e-06
-0.000473486
0.000473934
3.71643e-07
-0.000472806
3.75919e-07
-0.000472268
4.61482e-07
4.15685e-07
-0.000274995
0.000275463
9.90088e-08
-0.000274681
9.76383e-08
-0.000274397
1.34172e-07
1.84581e-07
-7.85419e-05
7.8688e-05
-7.83811e-05
-7.82765e-05
3.5027e-05
0.00839047
6.46325e-05
0.01107
9.02345e-05
0.0133066
0.000110269
0.0149459
0.000117669
0.00544714
6.19645e-06
6.63515e-06
-0.0015458
0.00154907
8.83639e-07
1.21764e-06
8.98535e-07
1.23007e-06
-0.000475605
0.000475996
4.02363e-07
-0.00047482
3.33047e-07
-0.000474397
3.8183e-07
5.7952e-07
-0.000276439
0.000276718
9.21949e-08
-0.000276119
5.63289e-08
-0.000275785
1.26559e-07
9.37976e-08
-7.91044e-05
7.92034e-05
-7.90068e-05
-7.88726e-05
4.05863e-05
0.00841451
7.14764e-05
0.0110888
9.11028e-05
0.0133258
9.15848e-05
0.00547259
7.10101e-06
8.03348e-06
-0.00155306
0.00155684
1.28634e-06
1.12678e-06
1.28442e-06
1.36424e-06
-0.000477936
0.000478206
6.13085e-07
-0.000477089
3.71062e-07
-0.000476605
4.14304e-07
6.21119e-07
-0.000277699
0.000278
1.00645e-07
-0.000277462
9.6614e-08
-0.000277173
9.27182e-08
1.24789e-07
-7.94801e-05
7.95723e-05
-7.94238e-05
-7.92972e-05
4.93124e-05
0.00843668
7.25866e-05
0.0111073
6.49257e-05
0.00550118
1.0236e-05
1.04845e-05
-0.0015621
0.00156629
1.49286e-06
1.42207e-06
1.46887e-06
1.30744e-06
-0.000480503
0.000481108
6.81556e-07
-0.000479865
4.8909e-07
-0.000479055
4.74184e-07
5.1548e-07
-0.000279022
0.000279523
1.11531e-07
-0.000278733
8.22313e-08
-0.000278526
2.0718e-07
9.56482e-08
-7.98864e-05
7.9987e-05
-7.97898e-05
-7.96971e-05
5.40286e-05
0.00845523
4.22393e-05
0.00552485
1.58003e-05
1.45646e-05
-0.00157308
0.00157879
2.36521e-06
2.16683e-06
1.95766e-06
1.73074e-06
-0.000483643
0.000484295
8.40639e-07
-0.000482737
5.16561e-07
-0.000481829
5.60848e-07
5.85579e-07
-0.000280625
0.000281228
7.88158e-08
-0.000280253
1.1742e-07
-0.000279895
1.16182e-07
1.43667e-07
-8.03721e-05
8.04836e-05
-8.02899e-05
-8.00827e-05
2.81594e-05
1.23512e-05
3.11207e-05
-0.00158721
0.00159422
4.96903e-06
3.82163e-06
3.36917e-06
2.77188e-06
-0.000487729
0.000488776
1.31789e-06
-0.000486519
9.57033e-07
-0.000485306
7.44387e-07
7.2041e-07
-0.000282465
0.000283163
1.4349e-07
-0.000282087
1.38044e-07
-0.000281661
1.34632e-07
1.52432e-07
-8.08609e-05
8.09397e-05
-8.07435e-05
-8.06273e-05
-0.0016065
7.84113e-06
1.61039e-05
1.07835e-05
8.05702e-06
-0.000493919
0.000496061
2.82661e-06
-0.000491905
1.80716e-06
-0.00049014
1.60421e-06
1.4082e-06
-0.000285005
0.000286032
2.91482e-07
-0.000284265
2.17351e-07
-0.000283696
1.7538e-07
1.86514e-07
-8.13648e-05
8.15083e-05
-8.12268e-05
-8.10921e-05
-0.000506878
1.12559e-05
-0.000502485
1.17112e-05
-0.000499197
7.49554e-06
4.92124e-06
-0.000289632
0.00029173
7.29191e-07
-0.000288308
4.83271e-07
-0.000287089
3.84556e-07
3.50973e-07
-8.20875e-05
8.2379e-05
-8.18702e-05
-8.16948e-05
-0.000303547
1.53116e-05
-0.000299285
7.44888e-06
-0.000295172
3.383e-06
1.47852e-06
-8.35978e-05
8.4327e-05
-8.31145e-05
-8.273e-05
-9.66374e-05
-8.91885e-05
-8.58055e-05
1.82761e-06
-1.82775e-06
6.68965e-06
1.35551e-06
-6.21811e-06
1.09258e-06
-2.92046e-06
5.01221e-06
1.67709e-06
6.88511e-06
9.58853e-07
-6.48914e-06
1.57649e-06
-6.70239e-06
6.12478e-07
-3.53312e-06
9.44946e-07
4.06709e-06
7.16746e-06
1.39425e-06
-1.09616e-06
-3.80498e-06
-1.44991e-06
7.30675e-06
-6.00901e-06
1.34214e-06
-7.43241e-06
3.64974e-07
-3.89823e-06
1.11847e-06
6.9934e-06
3.68524e-07
3.69833e-06
1.82585e-08
-1.3121e-06
-8.77928e-07
-0.000245226
-6.22311e-06
0.000250869
-1.40518e-06
9.10166e-06
-1.26879e-06
-6.07223e-06
1.02359e-06
-8.09135e-06
1.43163e-07
-4.04156e-06
7.5988e-07
6.60166e-06
1.03454e-07
3.59462e-06
-2.00957e-06
-0.000241794
-1.41189e-06
-4.95821e-07
-2.06713e-06
-0.00100459
4.97885e-08
0.000998307
-3.40928e-06
1.07367e-05
0.000248675
-5.14151e-06
8.00282e-06
-1.17839e-06
-1.13332e-06