/*--------------------------------*- C++ -*----------------------------------*\
| =========                 |                                                 |
| \\      /  F ield         | OpenFOAM: The Open Source CFD Toolbox           |
|  \\    /   O peration     | Version:  v1912                                 |
|   \\  /    A nd           | Website:  www.openfoam.com                      |
|    \\/     M anipulation  |                                                 |
\*---------------------------------------------------------------------------*/
FoamFile
{
    version     2.0;
    format      ascii;
    class       surfaceScalarField;
    location    "440";
    object      phi;
}
// * * * * * * * * * * * * * * * * * * * * * * * * * * * * * * * * * * * * * //

dimensions      [0 3 -1 0 0 0 0];
oriented        oriented;


internalField   nonuniform List<scalar> 
7351
(
-3.56467e-06
0.00134722
-1.32732e-05
0.00413256
-2.80936e-06
0.00135003
-3.39246e-05
0.00695056
-1.35537e-05
0.0041433
-3.84529e-06
0.00135387
-6.14599e-05
0.00968825
-3.36154e-05
0.00697062
-1.42376e-05
0.00415369
-2.79228e-06
0.00135666
-9.49506e-05
0.012166
-6.04565e-05
0.00971509
-3.20744e-05
0.00698846
-1.15704e-05
0.00416247
-2.82791e-06
0.00135949
-0.000143483
0.0141818
-9.47873e-05
0.0122003
-5.59646e-05
0.00973898
-3.04127e-05
0.0070073
-1.1514e-05
0.00417115
-2.81284e-06
0.0013623
-0.000184868
0.0155124
-0.000136918
0.0142239
-9.18461e-05
0.0122362
-5.5561e-05
0.00976413
-2.59549e-05
0.00702174
-1.13513e-05
0.00417969
-1.8173e-06
0.00136412
-0.000236664
0.0160076
-0.00018603
0.0155615
-0.000132868
0.014265
-8.61212e-05
0.0122668
-4.58075e-05
0.00978398
-2.27727e-05
0.00703316
-9.36267e-06
0.00418723
-1.76598e-06
0.00136588
-0.00027674
0.0155682
-0.000230355
0.016052
-0.000177326
0.0156059
-0.000120633
0.0142995
-7.13311e-05
0.0122923
-4.15448e-05
0.00980275
-1.97706e-05
0.00704357
-7.30721e-06
0.00419277
-1.66628e-06
0.00136755
-0.000311072
0.0142461
-0.000279165
0.015617
-0.000218784
0.0160934
-0.000150729
0.015636
-9.96258e-05
0.0143278
-6.4038e-05
0.0123148
-3.72461e-05
0.00982023
-1.82629e-05
0.00705452
-6.436e-06
0.00419754
-1.72215e-06
0.00136927
-0.000335491
0.0121652
-0.000322755
0.0142897
-0.000258801
0.015657
-0.000186221
0.0161289
-0.000130021
0.0156664
-8.27366e-05
0.0143465
-5.22972e-05
0.0123298
-2.77748e-05
0.00982974
-1.53038e-05
0.00706339
-6.94836e-06
0.00420277
-1.74019e-06
0.00137101
-0.000343355
0.00952595
-0.000352005
0.0121945
-0.00027718
0.0143081
-0.000206189
0.015677
-0.000148243
0.0161471
-0.000104206
0.0156879
-6.92758e-05
0.0143634
-4.26117e-05
0.0123447
-2.73077e-05
0.00984174
-1.19538e-05
0.0070684
-4.34925e-06
0.00420538
-1.34132e-06
0.00137235
0.00654761
-0.000193732
-0.000114269
-0.000372558
0.00954651
-0.000286811
0.0122041
-0.000211568
0.0143135
-0.00015927
0.015688
-0.000112704
0.0161556
-7.88459e-05
0.0156975
-5.12103e-05
0.014372
-3.5641e-05
0.012353
-1.81445e-05
0.00984793
-1.20217e-05
0.00707607
-6.0683e-06
0.0042101
-7.16121e-07
0.00137306
0.00655307
-0.000177156
-0.00020086
-0.00215263
0.00211092
-0.000152014
-8.41682e-05
-0.000259711
0.00951941
-0.000190786
0.0121833
-0.000150832
0.014305
-0.000110091
0.0156854
-8.71639e-05
0.0161639
-6.48466e-05
0.0157111
-4.52723e-05
0.0143817
-3.07512e-05
0.0123656
-2.27639e-05
0.00985867
-1.15421e-05
0.00708154
-4.83662e-06
0.00421422
-1.45055e-06
0.00137451
0.00648318
-5.96811e-05
-0.000130137
-0.00209328
0.00206951
-0.000153384
-0.000183221
-0.00137942
0.00132153
-6.22991e-05
-3.1827e-05
-2.48936e-05
-0.000141112
0.00946973
-0.000119135
0.0121516
-9.51526e-05
0.0142901
-7.90801e-05
0.0156773
-6.23308e-05
0.0161614
-4.58244e-05
0.0157116
-3.94613e-05
0.0143904
-2.56343e-05
0.0123685
-1.7258e-05
0.00986439
-1.24039e-05
0.00708911
-5.61452e-06
0.00421838
-2.22991e-06
0.00137674
0.0063986
-1.07992e-05
-4.57353e-05
-0.00202119
0.00199784
-3.63277e-05
-8.1823e-05
-0.00130385
0.00125963
-3.89398e-05
-7.02247e-05
-8.31276e-05
-8.24186e-05
-0.000417626
0.000390581
-3.52545e-05
-0.000431518
-1.79348e-05
-9.68851e-06
-6.77978e-05
0.0094184
-6.50349e-05
0.0121215
-6.19554e-05
0.014273
-5.07268e-05
0.0156657
-4.33147e-05
0.0161589
-3.77042e-05
0.0157099
-3.18837e-05
0.0143966
-2.50891e-05
0.0123763
-2.1728e-05
0.00987371
-1.35037e-05
0.007097
-7.674e-06
0.00422383
-1.21228e-06
0.00137796
0.00634776
-4.59036e-07
-1.65027e-05
-0.00196929
0.00196468
-6.18966e-06
-1.71885e-05
-0.00120679
0.00117646
-7.97814e-07
-5.20374e-06
-2.19468e-05
-7.02981e-06
-0.000320978
0.000302014
-1.99762e-05
-0.000344238
-4.69648e-05
0.00036539
-5.79371e-05
-6.12661e-05
-0.000238857
0.000213363
-9.76131e-06
-0.00025289
-3.90115e-06
-1.63093e-06
-3.49894e-05
0.00938835
-3.85503e-05
0.0120981
-3.70232e-05
0.0142593
-3.79492e-05
0.0156604
-3.19732e-05
0.0161532
-3.35216e-05
0.0157115
-2.63759e-05
0.0143979
-2.87113e-05
0.0123833
-2.11006e-05
0.00988131
-1.55219e-05
0.00710484
-7.44271e-06
0.00423006
-2.88823e-06
0.00138084
0.00631561
4.02841e-06
-6.86273e-06
-0.00195163
0.0019522
-1.03262e-06
-3.45133e-06
-0.00116073
0.00115454
1.05004e-06
-1.0475e-06
-1.79056e-06
3.30672e-07
-0.000277133
0.000276738
-4.03311e-07
-0.000281836
-5.00408e-07
0.000286754
-6.68642e-06
-2.11233e-06
-0.000108178
8.82021e-05
-0.000155143
0.000176102
-2.06761e-05
-4.03068e-05
-7.07442e-05
6.09829e-05
-7.46454e-05
-1.45937e-05
0.00936439
-2.35084e-05
0.0120846
-2.47292e-05
0.014246
-2.24305e-05
0.0156508
-2.92234e-05
0.0161489
-2.58832e-05
0.015711
-3.69646e-05
0.0144062
-3.37251e-05
0.0123959
-2.72093e-05
0.009893
-1.85974e-05
0.007116
-1.03583e-05
0.00423753
-1.96092e-06
0.0013828
0.00630155
3.67863e-06
-4.21132e-06
-0.00194604
0.00194918
8.87025e-07
-7.00989e-07
-0.0011511
0.00114979
2.59758e-07
2.51772e-08
-5.00393e-07
4.82083e-07
-0.000274259
0.000275105
2.03316e-07
-0.000275452
1.45911e-07
0.000274989
-4.08888e-08
-1.32876e-07
-7.89029e-05
7.84995e-05
-7.94033e-05
8.15156e-05
4.03068e-05
-6.17246e-06
0.00934706
-6.73577e-06
0.0120666
-1.24988e-05
0.0142361
-2.00409e-05
0.0156416
-2.53809e-05
0.0161484
-3.70161e-05
0.0157111
-3.42348e-05
0.0144067
-3.68319e-05
0.0124055
-3.09315e-05
0.00990533
-2.02999e-05
0.00712594
-1.07727e-05
0.00424634
-2.66208e-06
0.00138546
0.00629438
1.90135e-06
-9.05202e-07
-0.00194504
0.00194811
6.04521e-07
-6.93207e-08
-0.00114877
0.00114955
-1.59637e-07
2.71337e-07
-8.75399e-08
4.01858e-07
-0.00027501
0.000275204
6.56251e-08
-0.000275122
1.37024e-07
0.00027483
-2.25205e-07
1.89975e-07
-7.84717e-05
7.8675e-05
-7.83258e-05
7.84586e-05
-1.48698e-07
0.00934047
-6.38425e-06
0.0120605
-1.08234e-05
0.0142269
-1.47918e-05
0.015631
-2.7768e-05
0.0161391
-4.11328e-05
0.015718
-5.07991e-05
0.0144206
-4.38506e-05
0.0124185
-3.66533e-05
0.00992168
-2.57284e-05
0.00714089
-1.12304e-05
0.00425491
-3.42815e-06
0.00138889
0.00629161
1.9912e-06
6.24158e-07
-0.00194734
0.00194787
1.3716e-06
-1.34408e-07
-0.00114893
0.00114954
1.40754e-07
-1.47577e-07
2.12558e-07
3.33392e-07
-0.000275744
0.00027555
3.44576e-08
-0.000275429
-4.35183e-08
0.000275105
1.11699e-08
7.83807e-08
-7.87767e-05
7.88423e-05
-7.86397e-05
7.84497e-05
-3.22091e-07
0.00933441
4.32345e-07
0.0120492
-6.2202e-06
0.0142183
-2.53987e-05
0.0156287
-3.88447e-05
0.0161368
-4.98929e-05
0.0157171
-5.86016e-05
0.0144354
-5.77713e-05
0.0124396
-4.66507e-05
0.0099426
-2.72169e-05
0.00715688
-1.12867e-05
0.00426276
-2.36693e-06
0.00139126
0.00628889
1.91406e-06
4.85078e-07
-0.00194825
0.00194879
1.45173e-06
2.49224e-07
-0.00114868
0.00115012
2.53486e-07
-3.19255e-07
3.32897e-07
3.91509e-07
-0.000275713
0.000275896
-4.25706e-08
-0.00027602
1.59649e-07
0.00027581
-4.81585e-08
1.23268e-07
-7.88883e-05
7.89228e-05
-7.89319e-05
7.88535e-05
5.52562e-06
0.00932932
6.80779e-07
0.0120423
-1.01139e-05
0.014203
-2.46919e-05
0.0156145
-4.95241e-05
0.0161365
-6.68339e-05
0.0157253
-7.22849e-05
0.0144499
-6.79255e-05
0.0124609
-4.96389e-05
0.00996503
-2.96681e-05
0.00717526
-1.43023e-05
0.0042747
-3.08099e-06
0.00139434
0.00628991
2.493e-06
2.01968e-06
-0.00194835
0.00194997
2.96218e-07
9.2047e-07
-0.00115041
0.00115133
1.96818e-07
3.29927e-07
-3.09641e-07
2.73222e-07
-0.000276283
0.000276496
4.00747e-08
-0.000276745
1.43037e-07
0.000276215
1.39247e-08
-1.38467e-07
-7.91575e-05
7.91149e-05
-7.89979e-05
7.88746e-05
2.28479e-06
0.00932771
-2.66495e-06
0.0120349
-1.93977e-05
0.0141977
-4.2687e-05
0.0156077
-6.95734e-05
0.0161392
-9.10458e-05
0.0157441
-9.60904e-05
0.0144781
-7.91818e-05
0.0124904
-5.44802e-05
0.00998984
-3.01309e-05
0.00719109
-1.22506e-05
0.00428387
-3.39858e-06
0.00139774
0.00628981
3.88338e-07
1.99257e-06
-0.00195069
0.00195203
1.15403e-06
1.29842e-06
-0.00115208
0.00115194
2.6079e-07
1.79818e-07
-1.55817e-07
3.24391e-07
-0.0002766
0.000277041
-2.44642e-07
-0.00027643
1.60219e-07
0.000276256
-6.96772e-08
9.96914e-08
-7.91334e-05
7.91735e-05
-7.89904e-05
7.91289e-05
2.14777e-06
0.0093229
-5.90219e-06
0.0120214
-2.3007e-05
0.0141781
-5.86221e-05
0.0155967
-9.06074e-05
0.0161388
-0.000111025
0.015759
-0.000106582
0.0145055
-8.61672e-05
0.0125221
-5.93791e-05
0.0100191
-3.2824e-05
0.00721166
-1.35641e-05
0.00429403
-2.85957e-06
0.0014006
0.00628803
1.97547e-06
1.95403e-06
-0.00195381
0.00195284
1.35456e-06
2.14474e-07
-0.00115318
0.00115434
-2.84721e-07
2.75918e-07
-2.7484e-07
3.31239e-07
-0.000277149
0.000277381
2.93429e-08
-0.000277063
9.38403e-08
0.000276884
1.14234e-09
1.45123e-07
-7.93637e-05
7.91191e-05
-7.92035e-05
7.91038e-05
-1.78283e-07
0.00931718
-1.33162e-05
0.0120117
-4.54427e-05
0.0141649
-8.76948e-05
0.0155938
-0.000128094
0.0161558
-0.000138027
0.0157904
-0.000128956
0.0145483
-9.53487e-05
0.0125581
-5.90117e-05
0.0100453
-3.19698e-05
0.00723007
-1.14507e-05
0.00430262
-1.94228e-06
0.00140254
0.00628548
4.9288e-07
1.87245e-06
-0.00195392
0.0019555
4.03149e-07
8.6915e-07
-0.00115388
0.00115525
-1.75507e-07
1.59976e-07
3.2549e-07
3.54057e-07
-0.000277492
0.000277471
-2.64083e-07
-0.00027732
1.03891e-07
0.000277098
8.19122e-09
1.08785e-07
-7.93592e-05
7.93885e-05
-7.92653e-05
7.91202e-05
-2.42694e-06
0.00930629
-2.39496e-05
0.0119902
-6.98322e-05
0.014147
-0.000126225
0.0155919
-0.000162803
0.0161806
-0.000170206
0.0158317
-0.000135719
0.0145886
-9.83099e-05
0.0125974
-6.07314e-05
0.010074
-2.85032e-05
0.00724712
-1.09835e-05
0.00431167
-1.794e-06
0.00140433
0.00628054
5.6587e-07
1.94993e-06
-0.00195622
0.00195633
3.86435e-07
1.15007e-06
-0.0011556
0.00115604
1.61221e-07
-2.05005e-07
3.4496e-07
1.7514e-07
-0.000278047
0.00027784
3.16593e-08
-0.000277947
6.06399e-08
0.000277769
2.79515e-08
1.75297e-07
-7.96093e-05
7.93452e-05
-7.95055e-05
7.93967e-05
-8.51761e-06
0.00929086
-4.5202e-05
0.0119656
-0.000109419
0.0141302
-0.000170448
0.0155996
-0.000205097
0.0162155
-0.000182828
0.0158788
-0.000142634
0.014633
-9.59312e-05
0.0126326
-5.14931e-05
0.010097
-2.41112e-05
0.00726025
-8.7692e-06
0.00431864
-1.44451e-06
0.00140578
0.00627089
-8.014e-07
1.93057e-06
-0.00195728
0.00195746
3.89277e-07
9.90873e-07
-0.00115655
0.00115701
2.65632e-07
-3.37162e-07
3.33934e-07
3.06396e-07
-0.000277947
0.00027835
-2.41962e-07
-0.000278239
8.66382e-08
0.000278121
6.35644e-08
5.74783e-08
-7.96091e-05
7.96408e-05
-7.95485e-05
7.93732e-05
-1.77742e-05
0.00926343
-7.66911e-05
0.0119328
-0.000161581
0.0141213
-0.000228621
0.0156231
-0.00023027
0.016263
-0.000196588
0.0159328
-0.000142159
0.0146792
-8.60314e-05
0.0126671
-4.67672e-05
0.0101197
-2.06603e-05
0.00727214
-5.8212e-06
0.00432302
-3.88505e-07
0.00140616
0.0062536
-2.51308e-06
2.02889e-06
-0.00195812
0.00195721
1.05501e-07
1.26966e-06
-0.00115793
0.00115783
1.54708e-07
3.35152e-07
3.47995e-07
-2.7623e-07
-0.000278396
0.000278688
-2.55298e-08
-0.000278819
8.50094e-08
0.000278625
5.88188e-08
1.1299e-07
-7.98484e-05
7.96065e-05
-7.97618e-05
7.97043e-05
-3.8481e-05
0.00922522
-0.000130432
0.0119017
-0.000234484
0.0141272
-0.000275479
0.0156683
-0.000248711
0.0163151
-0.000187812
0.0159784
-0.000126261
0.0147194
-7.31935e-05
0.0126935
-3.87765e-05
0.0101378
-1.70701e-05
0.00728339
-3.46096e-06
0.00432609
-2.3036e-07
0.0014064
0.00622147
-8.37557e-06
2.02938e-06
-0.00195892
0.00195621
1.90744e-07
3.25676e-07
-0.00115892
0.00115904
-1.47387e-07
1.31505e-07
3.08613e-07
-1.27516e-07
-0.000279048
0.000279134
6.88854e-08
-0.000278569
-1.43944e-07
0.000278966
6.98412e-08
1.20528e-07
-7.98633e-05
7.98377e-05
-7.97783e-05
7.96653e-05
-7.69515e-05
0.00917174
-0.000208156
0.0118754
-0.000299172
0.0141509
-0.000296149
0.0157158
-0.000234449
0.0163617
-0.00016895
0.0160211
-0.000107318
0.0147535
-6.33072e-05
0.012718
-3.246e-05
0.0101532
-9.9098e-06
0.00728984
-2.65448e-06
0.00432851
7.77265e-07
0.00140562
0.00616421
-1.88563e-05
-8.37552e-07
-0.00195778
0.0019511
-1.69558e-06
4.6777e-07
-0.00115889
0.00115904
-2.90513e-07
3.31387e-07
3.13711e-07
1.63758e-07
-0.000279275
0.000279119
7.95354e-09
-0.00027926
1.16734e-07
0.000279433
9.61918e-09
4.51582e-08
-7.98842e-05
7.9953e-05
-8.00281e-05
7.99076e-05
-0.000146556
0.00911014
-0.000309843
0.011886
-0.000341523
0.0141963
-0.000284371
0.0157657
-0.000209198
0.016402
-0.000141222
0.016055
-8.72404e-05
0.0147775
-4.79716e-05
0.0127336
-1.9904e-05
0.0101632
-5.99736e-06
0.00729318
1.33267e-06
0.00432796
1.16623e-06
0.00140445
0.0060746
-4.62874e-05
-1.06573e-05
-0.00195183
0.00193713
-4.15769e-06
-1.57181e-06
-0.00115928
0.00115755
-1.06005e-07
1.44578e-07
3.19513e-07
-9.65757e-08
-0.000279943
0.000279592
5.97722e-08
-0.000279479
-1.32163e-07
0.00027942
1.25922e-08
1.05174e-07
-8.01245e-05
8.01325e-05
-8.00078e-05
7.99626e-05
-0.000277841
0.00907813
-0.000369787
0.0119143
-0.000318376
0.0142303
-0.000237698
0.0157942
-0.000169036
0.0164298
-0.00010745
0.0160752
-6.40717e-05
0.0147936
-3.41221e-05
0.0127478
-1.15084e-05
0.0101687
-1.2072e-06
0.00729572
2.92826e-06
0.0043262
1.51506e-06
0.00140294
0.00597299
-0.000122075
-5.41568e-05
-0.00193377
0.00190373
-1.62466e-05
-7.29281e-06
-0.00115591
0.00115168
-2.3455e-07
3.13412e-07
3.1025e-07
-2.47381e-07
-0.00027977
0.000279857
-1.93019e-07
-0.000279744
1.19333e-07
0.000279895
1.69674e-08
5.367e-08
-8.0118e-05
8.01778e-05
-8.02502e-05
8.0145e-05
-0.000386373
0.00909472
-0.00033712
0.011933
-0.000252623
0.0142452
-0.000183104
0.0158083
-0.000123417
0.0164457
-8.01009e-05
0.0160912
-4.26503e-05
0.0148021
-1.74257e-05
0.0127537
-4.95347e-06
0.0101724
2.89369e-06
0.00729575
3.46463e-06
0.00432425
2.81846e-06
0.00140012
0.0059677
-0.00020983
-0.000171258
-0.00187937
0.00182087
-6.35762e-05
-2.97991e-05
-0.00114458
0.00112977
-1.55745e-06
1.17489e-07
3.70072e-07
-5.66387e-07
-0.000280048
0.000279744
6.99316e-08
-0.0002798
6.50988e-08
0.000280152
1.43782e-08
1.0511e-07
-8.03678e-05
8.01747e-05
-8.02484e-05
8.01948e-05
-0.000334053
0.00909165
-0.000238919
0.0119193
-0.000174905
0.014237
-0.000128831
0.0158137
-8.85332e-05
0.0164542
-5.58435e-05
0.0161044
-2.97146e-05
0.0148144
-1.08143e-05
0.0127596
3.67176e-06
0.0101717
6.41805e-06
0.0072928
7.07326e-06
0.00431999
3.37789e-06
0.00139674
0.00591211
-9.79675e-05
-0.000180494
-0.00178353
0.00175158
-0.000177882
-0.000133916
-0.00110405
0.00105335
-1.08995e-05
-1.96771e-06
-4.33506e-07
-3.64596e-06
-0.000279554
0.000278244
-2.47238e-07
-0.000279607
1.70477e-07
0.000280061
5.29217e-08
-1.12518e-07
-8.03593e-05
8.04292e-05
-8.02942e-05
8.01891e-05
-0.000182861
0.0090356
-0.000146765
0.0118912
-0.000116411
0.0142246
-8.39318e-05
0.0158091
-5.73084e-05
0.0164556
-3.17094e-05
0.0161064
-1.39151e-05
0.0148175
-3.14708e-07
0.0127635
7.81559e-06
0.0101703
1.28869e-05
0.00728699
9.99296e-06
0.00431338
3.79397e-06
0.00139295
0.00580932
-1.78544e-05
-6.2217e-05
-0.00170692
0.00166673
-5.77722e-05
-0.000135839
-0.000972106
0.000924663
-6.65192e-05
-6.39198e-05
-1.45753e-05
-3.81013e-05
-0.000273218
0.00026413
-1.81224e-06
-0.000274595
-5.90746e-07
0.000278019
-2.09213e-07
-2.21362e-07
-8.05401e-05
8.02928e-05
-8.03696e-05
8.04821e-05
-8.52514e-05
0.00897408
-8.11661e-05
0.0118559
-6.90241e-05
0.0142097
-5.21017e-05
0.0158039
-3.35366e-05
0.0164575
-1.52199e-05
0.0161077
-5.51711e-07
0.0148177
1.19586e-05
0.0127594
1.58063e-05
0.0101673
1.4475e-05
0.0072825
9.50882e-06
0.00430766
4.81502e-06
0.00138813
0.00574226
1.51804e-07
-1.83402e-05
-0.00162755
0.00161687
-7.18201e-06
-2.3034e-05
-0.000857592
0.000807919
-1.3531e-06
-6.74624e-06
-4.90448e-05
-1.9724e-05
-0.000184346
0.000158474
-4.0647e-05
-0.000225733
-2.25332e-05
0.000253624
-4.06893e-06
-1.02101e-05
-7.92715e-05
7.74592e-05
-7.98622e-05
8.00836e-05
-4.03519e-05
0.00893327
-4.28205e-05
0.0118297
-3.81001e-05
0.0141957
-2.89712e-05
0.0157993
-1.58048e-05
0.016458
-2.88431e-06
0.0161101
1.29451e-05
0.0148167
1.58471e-05
0.0127594
2.06564e-05
0.0101612
1.75309e-05
0.00727448
1.35896e-05
0.00429889
5.06463e-06
0.00138307
0.00570587
3.29736e-06
-7.25845e-06
-0.00160219
0.0016027
-3.57448e-07
-3.65372e-06
-0.00078559
0.0007784
2.83181e-07
-2.74816e-07
-7.3118e-07
2.65267e-08
-8.29588e-05
8.16057e-05
-8.9705e-05
0.000109429
-4.0647e-05
-6.31802e-05
7.33903e-05
-1.79647e-05
0.00890841
-2.16836e-05
0.0118133
-1.83669e-05
0.0141851
-7.34854e-06
0.0157908
5.09131e-07
0.0164547
1.27459e-05
0.0161103
1.58752e-05
0.0148167
2.52943e-05
0.0127547
2.48816e-05
0.0101538
2.31793e-05
0.00726489
1.56634e-05
0.00428829
5.87648e-06
0.00137719
0.00568838
3.88822e-06
-4.36145e-06
-0.00159644
0.00159862
1.12335e-06
-1.00729e-06
-0.000774669
0.000774253
1.1533e-07
-5.5952e-08
-4.35124e-08
1.20017e-07
-8.06262e-05
8.09094e-05
-8.0901e-05
8.08745e-05
-4.51369e-06
0.00889124
-8.25207e-06
0.0118032
-3.47602e-06
0.0141812
3.48732e-06
0.0157879
1.41924e-05
0.0164532
1.99304e-05
0.0161062
3.17993e-05
0.0148102
3.25737e-05
0.012747
3.246e-05
0.0101445
2.7753e-05
0.0072528
1.74068e-05
0.00427676
6.80378e-06
0.00137039
0.00568249
3.47269e-06
-2.09966e-06
-0.00159417
0.00159797
8.0349e-08
9.20505e-08
-0.000772982
0.000774028
1.91822e-07
-1.13597e-07
1.01009e-07
1.62056e-07
-8.09299e-05
8.10453e-05
-8.09859e-05
8.08659e-05
-2.25315e-07
0.00888322
2.25415e-06
0.0117975
5.52362e-06
0.0141792
1.18543e-05
0.0157902
2.39794e-05
0.0164492
3.06643e-05
0.0161074
3.19391e-05
0.0148108
3.61845e-05
0.0127433
3.49049e-05
0.0101374
3.114e-05
0.00723907
2.06895e-05
0.00426287
7.79231e-06
0.00136259
0.00568048
2.7565e-06
-9.7216e-07
-0.00159552
0.00159812
8.74353e-07
3.57897e-07
-0.000773958
0.000774152
3.28759e-08
-1.45911e-07
8.68156e-08
7.44921e-08
-8.11948e-05
8.13867e-05
-8.13084e-05
8.11463e-05
2.72391e-06
0.00888275
8.91083e-06
0.0117941
1.57644e-05
0.0141753
2.31903e-05
0.015791
2.70895e-05
0.0164527
4.05469e-05
0.0160987
4.62833e-05
0.0148007
4.84004e-05
0.0127298
4.27519e-05
0.0101258
3.59401e-05
0.00722382
2.31336e-05
0.00424753
8.76205e-06
0.00135383
0.00568036
2.79308e-06
5.54916e-08
-0.00159731
0.00159917
8.98879e-07
-1.72109e-07
-0.000774393
0.00077534
4.72704e-08
-1.19936e-07
5.7936e-08
5.95056e-08
-8.14021e-05
8.1435e-05
-8.1548e-05
8.14735e-05
7.1864e-06
0.00888447
1.39738e-05
0.0117959
1.83309e-05
0.0141801
3.22184e-05
0.0157859
4.21712e-05
0.0164511
4.7023e-05
0.016098
4.95958e-05
0.0147995
5.36402e-05
0.0127189
5.06881e-05
0.010111
4.13478e-05
0.00720561
2.69293e-05
0.00422936
9.6412e-06
0.00134419
0.00568451
2.88877e-06
1.47685e-07
-0.00159857
0.00160075
6.08621e-07
6.5864e-07
-0.000775035
0.000775906
-5.79437e-08
8.55384e-08
6.31502e-08
6.96532e-08
-8.14326e-05
8.14799e-05
-8.15525e-05
8.1493e-05
8.49336e-06
0.00888995
1.54202e-05
0.0117988
2.78959e-05
0.0141844
3.53974e-05
0.0157926
4.41665e-05
0.016454
5.44329e-05
0.0160932
6.17319e-05
0.0147915
6.07063e-05
0.0127089
5.82854e-05
0.0100941
4.52205e-05
0.00718731
3.00163e-05
0.00420899
1.09791e-05
0.00133321
0.0056886
3.06258e-06
1.33828e-06
-0.00160021
0.00160245
6.44677e-07
6.93388e-07
-0.000776424
0.000776921
5.18586e-08
5.92636e-08
6.56201e-08
7.56108e-08
-8.16982e-05
8.16403e-05
-8.16127e-05
8.1543e-05
1.04655e-05
0.00889491
1.98784e-05
0.0118068
2.90467e-05
0.0141908
4.19605e-05
0.0157948
5.52598e-05
0.0164531
6.28174e-05
0.0160921
7.10393e-05
0.0147811
7.01867e-05
0.012697
6.58948e-05
0.0100734
5.39986e-05
0.00716333
3.25176e-05
0.00418745
1.18855e-05
0.00132133
0.00569562
3.06316e-06
3.87761e-07
-0.00160306
0.00160532
7.99999e-07
7.29625e-07
-0.000777679
0.00077821
5.6198e-08
5.71704e-08
-1.17935e-07
5.33721e-08
-8.18408e-05
8.18927e-05
-8.17815e-05
8.17059e-05
1.17334e-05
0.00890305
2.18763e-05
0.011814
3.53321e-05
0.0141974
4.67731e-05
0.0158033
6.17156e-05
0.0164542
7.23173e-05
0.0160908
7.78072e-05
0.0147735
8.42818e-05
0.0126786
7.54887e-05
0.0100519
6.05114e-05
0.00713534
3.78322e-05
0.0041615
1.21796e-05
0.00130915
0.00570276
3.11477e-06
1.47798e-06
-0.00160495
0.00160727
7.4423e-07
7.64179e-07
-0.000778744
0.000779533
9.38111e-08
-8.27763e-08
6.7804e-08
1.27884e-07
-8.18853e-05
8.19415e-05
-8.18281e-05
8.17747e-05
1.17866e-05
0.00891314
2.4473e-05
0.0118248
4.14508e-05
0.0142027
5.88321e-05
0.0158062
7.20846e-05
0.0164545
8.57228e-05
0.0160829
9.35148e-05
0.0147643
9.2894e-05
0.0126612
8.6099e-05
0.0100263
6.63242e-05
0.00710685
4.03025e-05
0.00413338
1.05993e-05
0.00129855
0.00571146
2.75562e-06
3.2487e-07
-0.00160797
0.00161033
7.57151e-07
7.75623e-07
-0.000780151
0.00078096
4.93666e-08
-1.13797e-07
7.21141e-08
7.40481e-08
-8.20544e-05
8.21483e-05
-8.21372e-05
8.20093e-05
1.31302e-05
0.00892449
2.84786e-05
0.0118378
4.60472e-05
0.0142155
6.52213e-05
0.0158131
8.0876e-05
0.0164593
9.39843e-05
0.0160824
0.000105615
0.0147515
0.000101754
0.0126456
9.52477e-05
0.0099974
7.54973e-05
0.00707165
4.30721e-05
0.00410091
1.31883e-05
0.00128536
0.00572257
1.1525e-06
8.69824e-07
-0.00160998
0.00161227
4.63569e-07
6.73008e-07
-0.000781597
0.000782409
-1.11919e-07
5.69347e-08
6.77664e-08
7.0975e-08
-8.21806e-05
8.223e-05
-8.22944e-05
8.22204e-05
1.62691e-05
0.00893669
3.29464e-05
0.0118509
5.53246e-05
0.0142254
7.16219e-05
0.0158223
9.24812e-05
0.0164608
0.000107927
0.0160801
0.000117159
0.0147361
0.000120108
0.0126207
0.000106895
0.00996601
8.14769e-05
0.00703325
4.36227e-05
0.00407047
3.16855e-05
0.00125367
0.00573416
2.61201e-06
2.06521e-06
-0.00161327
0.00161623
-1.8006e-06
-1.32175e-07
-0.000782939
0.000783203
1.13014e-07
8.61499e-08
6.31004e-08
8.01876e-08
-8.24257e-05
8.23139e-05
-8.23688e-05
8.22978e-05
1.9978e-05
0.00894967
3.97019e-05
0.0118665
5.89549e-05
0.0142381
8.41268e-05
0.0158307
0.000105792
0.016463
0.000123759
0.0160735
0.000132872
0.0147234
0.000128823
0.0125988
0.000118896
0.00992859
8.67784e-05
0.00699009
7.42555e-05
0.0040279
7.38815e-05
0.0057445
5.47437e-06
4.16824e-06
-0.00162179
0.00161936
-1.47346e-06
6.51732e-06
-3.50241e-06
-0.000783165
0.000781361
1.13153e-08
-8.40899e-09
3.3573e-08
-1.27653e-07
-8.25433e-05
8.26563e-05
-8.24571e-05
8.23769e-05
2.44117e-05
0.00896495
4.17452e-05
0.0118837
6.68654e-05
0.0142553
9.0851e-05
0.0158456
0.000115636
0.0164711
0.000134967
0.0160714
0.000146864
0.0147053
0.000148021
0.0125696
0.000127311
0.00988805
0.000114903
0.00694944
0.000135805
0.0057582
5.4778e-06
5.2271e-06
-0.00162208
0.00162383
2.32509e-06
1.40469e-06
2.00271e-06
-5.56823e-07
-0.000486314
0.000491705
-6.86448e-06
-0.000461075
-1.87219e-05
0.000317041
-9.91058e-09
-2.46886e-07
-8.25539e-05
8.25652e-05
-8.25622e-05
8.26899e-05
2.40824e-05
0.00898262
4.88051e-05
0.0119018
7.50017e-05
0.0142712
0.000107852
0.0158534
0.000135508
0.0164705
0.000154958
0.0160633
0.000165304
0.0146881
0.000162175
0.0125348
0.000155109
0.00984785
0.000179199
0.0057736
4.30573e-06
4.37958e-06
-0.00162594
0.00162923
1.41521e-06
7.73197e-07
1.85466e-06
1.25486e-06
-0.000497079
0.000498191
1.21327e-06
-0.000496235
5.60831e-07
-0.000493528
-7.0421e-07
-2.37965e-06
-0.00029525
0.00028975
-1.36466e-06
3.06892e-06
8.25552e-05
8.23083e-05
2.74231e-05
0.009004
5.34398e-05
0.0119234
8.57241e-05
0.0142933
0.000117208
0.0158717
0.000145885
0.0164796
0.000171614
0.016057
0.00017794
0.0146723
0.000187213
0.0125027
0.000210861
0.00579067
4.76043e-06
5.59666e-06
-0.00163166
0.00163427
1.04512e-06
6.48068e-07
1.34146e-06
6.14682e-07
-0.00050039
0.000501009
7.97078e-07
-0.000499844
2.26966e-07
-0.000498789
7.99232e-07
6.56747e-07
-0.000288604
0.000289724
9.391e-08
-0.000288099
5.53084e-08
-0.000288433
-3.69648e-07
-1.06296e-06
-8.53772e-05
8.40125e-05
3.02028e-05
0.00902724
6.17784e-05
0.0119473
9.72661e-05
0.0143133
0.000134765
0.0158828
0.000165898
0.0164853
0.000183276
0.0160517
0.000208145
0.0146514
0.000229237
0.00580956
5.22854e-06
6.08465e-06
-0.00163797
0.00164084
1.1586e-06
7.35247e-07
1.14585e-06
7.49566e-07
-0.000502334
0.000502842
5.3685e-07
-0.000502093
4.07336e-07
-0.000500969
2.17102e-07
6.54563e-07
-0.000290703
0.000291338
1.6237e-07
-0.000290665
1.88619e-07
-0.000290116
2.50267e-07
2.64885e-07
-8.26353e-05
8.27292e-05
-8.25799e-05
-8.29496e-05
3.62382e-05
0.00905278
6.82832e-05
0.0119763
0.000109717
0.0143383
0.000148022
0.0159007
0.000176358
0.0164922
0.000211715
0.0160481
0.000234834
0.00583414
5.92922e-06
5.72284e-06
-0.00164485
0.00164807
1.19567e-06
8.14526e-07
1.23517e-06
8.32951e-07
-0.000504231
0.000505178
2.11134e-07
-0.000503961
4.65699e-07
-0.000503269
4.53518e-07
3.22921e-07
-0.000292385
0.000292807
1.15237e-07
-0.000292095
1.17819e-07
-0.000291834
-4.44632e-08
1.58444e-07
-8.3433e-05
8.35954e-05
-8.32444e-05
-8.29941e-05
3.89754e-05
0.00908209
8.0757e-05
0.0120053
0.000124781
0.0143616
0.000161401
0.0159157
0.000200263
0.0165037
0.000223911
0.00585904
6.54107e-06
7.53998e-06
-0.00165136
0.00165523
1.32701e-06
7.3125e-07
1.52353e-06
9.14781e-07
-0.000506699
0.000507291
6.03739e-07
-0.000505966
8.08097e-08
-0.000505234
5.03012e-07
7.77359e-07
-0.000293837
0.000293911
1.36782e-07
-0.000293331
-3.96817e-08
-0.000293008
1.29705e-07
1.21831e-07
-8.38272e-05
8.39425e-05
-8.37094e-05
-8.37538e-05
4.67177e-05
0.00911613
9.13772e-05
0.0120387
0.000134634
0.0143883
0.000175634
0.0159403
0.000199111
0.00588901
7.76047e-06
8.98348e-06
-0.00166
0.00166408
1.52871e-06
9.30329e-07
1.67746e-06
1.0914e-06
-0.000509036
0.000509689
6.74289e-07
-0.00050881
5.04873e-07
-0.00050743
1.4401e-07
7.75781e-07
-0.000294813
0.000295478
-6.14806e-08
-0.000294856
1.23533e-07
-0.000294502
1.49819e-07
1.86252e-07
-8.41543e-05
8.42911e-05
-8.4194e-05
-8.40643e-05
5.56096e-05
0.00915189
0.00010693
0.0120664
0.000146664
0.0144173
0.000160445
0.00592465
9.8947e-06
1.00725e-05
-0.00166986
0.00167473
1.72428e-06
1.16318e-06
1.90164e-06
1.30225e-06
-0.000511704
0.000512723
5.0882e-07
-0.000511384
6.10513e-07
-0.000510316
6.09698e-07
4.64265e-07
-0.000296438
0.00029714
-2.75044e-08
-0.000296129
1.95393e-07
-0.000296113
1.28434e-07
1.40435e-07
-8.47507e-05
8.46892e-05
-8.46272e-05
-8.44774e-05
7.01797e-05
0.00918864
0.000111992
0.012101
0.000117756
0.0059665
1.46269e-05
1.37084e-05
-0.00168112
0.00168769
1.39299e-06
1.92741e-06
1.57972e-06
2.10785e-06
-0.00051519
0.000515951
9.63374e-07
-0.000514342
3.15581e-07
-0.000513171
7.30765e-07
8.54226e-07
-0.000298331
0.000298662
1.78038e-07
-0.000297895
1.74366e-07
-0.000297451
1.65412e-07
1.53587e-07
-8.51535e-05
8.5126e-05
-8.49581e-05
-8.48297e-05
8.20298e-05
0.00921861
7.39897e-05
0.00600604
2.3607e-05
1.8882e-05
-0.0016964
0.0017047
3.44708e-06
2.88219e-06
2.48717e-06
2.51504e-06
-0.000519404
0.00051976
1.03662e-06
-0.000518283
8.0673e-07
-0.000517114
4.10789e-07
9.44506e-07
-0.000300128
0.000300903
1.88392e-07
-0.000299993
1.81408e-07
-0.000299291
2.849e-08
2.25134e-07
-8.56194e-05
8.57974e-05
-8.5445e-05
-8.52796e-05
4.44132e-05
1.5678e-05
4.2506e-05
-0.00171535
0.00172656
7.47404e-06
4.92963e-06
4.13782e-06
4.0884e-06
-0.0005247
0.000526206
1.94062e-06
-0.000523045
1.22756e-06
-0.000521192
6.33533e-07
1.0838e-06
-0.000302623
0.000303464
1.96604e-07
-0.000301846
2.92387e-08
-0.00030164
2.04925e-07
2.06965e-07
-8.62324e-05
8.64208e-05
-8.6051e-05
-8.60225e-05
-0.00174423
8.86697e-06
2.1443e-05
1.48234e-05
1.00111e-05
-0.000532896
0.000536637
3.7337e-06
-0.000530439
2.47251e-06
-0.000528569
2.26767e-06
1.72588e-06
-0.000305638
0.000307196
3.83422e-07
-0.000304713
3.01628e-07
-0.000304321
2.41731e-07
2.26641e-07
-8.6862e-05
8.70586e-05
-8.68327e-05
-8.66278e-05
-0.000550395
1.33519e-05
-0.000544205
1.52531e-05
-0.000539724
1.03427e-05
6.92357e-06
-0.000312029
0.000314775
9.87888e-07
-0.000310159
6.02483e-07
-0.000308494
6.02925e-07
4.27481e-07
-8.78286e-05
8.8212e-05
-8.7527e-05
-8.72852e-05
-0.000330497
2.05829e-05
-0.000325254
1.0011e-05
-0.000319657
4.74504e-06
2.04161e-06
-8.98449e-05
9.08328e-05
-8.92424e-05
-8.86395e-05
-0.00010763
-9.76195e-05
-9.28744e-05
-1.37389e-05
1.37395e-05
7.08927e-06
-2.08287e-05
-5.89459e-05
5.26445e-05
2.00425e-05
1.93871e-05
-7.12444e-05
3.50867e-06
-2.43374e-05
1.6293e-05
3.63542e-05
-0.000117575
0.000110755
2.6865e-05
2.96875e-05
-0.000127876
1.18645e-05
-7.96022e-05
1.55149e-06
-2.58905e-05
2.29442e-05
0.000104106
6.87382e-06
2.94826e-05
-0.000407967
6.38709e-05
0.000393908
-1.86676e-05
6.73437e-05
-0.000426956
-0.00013468
6.98119e-06
-8.50346e-05
8.09085e-07
-2.67007e-05
1.47454e-05
9.62365e-05
2.37455e-06
2.71086e-05
-4.1538e-05
-0.00142692
0.00138046
0.000151888
-6.77617e-06
0.000373893
-4.30641e-05
0.000161565
-0.00147808
-1.44779e-05
-0.000447913
-7.63079e-06
-0.000142178
4.0422e-06
-8.82689e-05
3.06045e-07
-2.70067e-05
9.18345e-05
1.04891e-06
2.60583e-05
-2.48725e-05
0.000108961
-0.00200202
0.00194754
0.000206391
-4.38698e-06
-1.85679e-06
0.000218701
-0.00205916
-3.12894e-05
0.000132941
-0.00156039
-1.93416e-05
-0.000469161
-6.46851e-06
-3.57321e-06
-0.000145766
2.30994e-06
-9.02712e-05
3.41224e-07
-2.73471e-05
8.84959e-05
4.80007e-07
2.55769e-05
0.000180721
-0.00233261
0.00227314
0.000265869
8.71187e-05
0.000279383
-0.00239329
0.000213097
-0.00213932
0.00011843
-1.8115e-05
-0.00164457
-1.61291e-05
-0.000482013
-3.90414e-06
-2.58251e-06
-0.000149924
-1.60894e-06
-0.000151888
-9.15387e-05
2.9547e-07
-2.76425e-05
2.16602e-07
0.000247764
-0.00240715
0.00235215
0.000320877
0.000334135
-0.0024619
0.000286167
-0.00246637
0.000210501
-0.00223139
-0.000494339
-2.79224e-06
-2.9948e-06
0.000125709
-1.83951e-05
-0.00173114
-2.07317e-05
-0.000504565
-4.32061e-06
-1.57912e-06
-0.000154263
-1.52877e-06
-0.000155567
-1.27714e-06
-9.2772e-05
2.8963e-07
-2.79315e-05
0.000306554
-0.00220933
0.00216752
0.0003627
0.000373823
-0.00224902
0.000346294
-0.00252203
0.000294178
-0.00255005