/*--------------------------------*- C++ -*----------------------------------*\
| =========                 |                                                 |
| \\      /  F ield         | OpenFOAM: The Open Source CFD Toolbox           |
|  \\    /   O peration     | Version:  v1912                                 |
|   \\  /    A nd           | Website:  www.openfoam.com                      |
|    \\/     M anipulation  |                                                 |
\*---------------------------------------------------------------------------*/
FoamFile
{
    version     2.0;
    format      ascii;
    class       volVectorField;
    location    "100";
    object      U;
}
// * * * * * * * * * * * * * * * * * * * * * * * * * * * * * * * * * * * * * //

dimensions      [0 1 -1 0 0 0 0];


internalField   nonuniform List<vector> 
3753
(
(0.0490306 0.0207405 0)
(0.150048 0.0618151 1.64105e-23)
(0.0485524 0.02054 -7.60598e-24)
(0.251662 0.101626 0)
(0.148574 0.061226 -8.05246e-24)
(0.0481039 0.02034 7.65139e-24)
(0.349518 0.138377 -5.75618e-21)
(0.249201 0.100648 -6.26382e-24)
(0.147164 0.0606328 -7.71274e-21)
(0.0476472 0.020146 7.07711e-24)
(0.43751 0.169797 5.07555e-21)
(0.346097 0.137021 -5.50491e-21)
(0.246797 0.0996627 6.32193e-21)
(0.145753 0.0600401 7.12728e-24)
(0.0471661 0.0199507 -7.13851e-21)
(0.508463 0.193374 -4.39789e-24)
(0.433173 0.168091 4.86154e-21)
(0.342727 0.135671 0)
(0.244426 0.0986924 5.76922e-24)
(0.144331 0.0594495 -7.14462e-24)
(0.0466897 0.0197578 0)
(0.555316 0.206866 1.94088e-25)
(0.503306 0.191367 4.40915e-21)
(0.428899 0.166411 4.4331e-24)
(0.339413 0.134342 -5.06042e-21)
(0.242054 0.0977213 -5.77861e-24)
(0.142922 0.0588718 0)
(0.0462122 0.0195596 0)
(0.572559 0.208816 -4.11205e-24)
(0.549462 0.204615 -4.16114e-21)
(0.498239 0.189409 0)
(0.424704 0.16476 4.45992e-21)
(0.336111 0.133018 0)
(0.239698 0.0967648 0)
(0.141513 0.0582954 0)
(0.0457426 0.0193599 -6.33146e-21)
(0.557621 0.198993 0)
(0.566159 0.206385 4.14364e-21)
(0.543724 0.202433 0)
(0.493261 0.187484 7.70398e-24)
(0.420531 0.163121 -1.23809e-23)
(0.332826 0.131709 0)
(0.237357 0.0958227 0)
(0.140109 0.0577181 0)
(0.0452948 0.0191631 5.80136e-24)
(0.511577 0.178521 4.68611e-24)
(0.550814 0.196438 -4.21216e-21)
(0.559886 0.204044 0)
(0.538087 0.200298 3.81674e-21)
(0.488319 0.185581 -7.71225e-24)
(0.416387 0.161501 3.60675e-25)
(0.329576 0.130423 0)
(0.235035 0.0948859 0)
(0.138726 0.0571461 0)
(0.044869 0.0189772 -5.82922e-24)
(0.43891 0.149684 2.58233e-24)
(0.504463 0.175884 -2.2906e-24)
(0.544152 0.194009 4.04618e-21)
(0.553765 0.201777 -3.74381e-21)
(0.532533 0.198199 3.65762e-21)
(0.483424 0.183702 0)
(0.412288 0.159904 7.78613e-24)
(0.326348 0.129145 0)
(0.232741 0.0939632 0)
(0.137394 0.0565906 -5.74994e-21)
(0.0444441 0.0187936 0)
(0.346497 0.115444 -3.23171e-21)
(0.431504 0.146965 1.69375e-23)
(0.497541 0.173434 -4.29758e-21)
(0.537746 0.191694 1.54285e-23)
(0.547792 0.199562 -3.57528e-21)
(0.527053 0.196133 0)
(0.478586 0.181848 0)
(0.408218 0.158324 -3.56583e-24)
(0.32317 0.127889 0)
(0.230485 0.0930446 4.68339e-21)
(0.136073 0.056041 5.50696e-21)
(0.0440245 0.0186125 0)
(0.242424 0.0788899 4.53807e-21)
(0.338573 0.112588 -3.05812e-24)
(0.424378 0.144534 -1.06669e-24)
(0.491055 0.171152 0)
(0.531587 0.189453 0)
(0.541946 0.1974 -1.37754e-23)
(0.521653 0.194103 3.35257e-21)
(0.473792 0.180022 0)
(0.404205 0.156765 3.56964e-24)
(0.32001 0.126634 0)
(0.22826 0.092145 -4.4806e-21)
(0.134789 0.0555035 2.52515e-24)
(0.0436025 0.0184327 0)
(0.23283 0.0756199 -1.7982e-21)
(0.158509 0.0507724 1.566e-21)
(0.162617 0.0521636 -1.5777e-21)
(0.33117 0.110143 0)
(0.41805 0.142361 4.69743e-21)
(0.484994 0.168987 -4.05064e-21)
(0.525652 0.1873 0)
(0.536223 0.195289 -3.28752e-21)
(0.516331 0.19211 6.12194e-24)
(0.469069 0.178221 3.24318e-21)
(0.400234 0.155224 0)
(0.31692 0.12541 0)
(0.226082 0.0912563 -9.80759e-26)
(0.133512 0.0549703 -2.52945e-24)
(0.0431831 0.0182561 0)
(0.224688 0.0729481 7.90138e-22)
(0.145723 0.0468094 1.52274e-21)
(0.152272 0.0483353 1.55924e-21)
(0.104349 0.0331459 -1.39135e-21)
(0.108013 0.0342306 3.50855e-22)
(0.32526 0.108116 -5.46482e-21)
(0.412413 0.140386 4.49574e-21)
(0.479287 0.166956 -1.47345e-23)
(0.519908 0.185222 0)
(0.530625 0.193232 -6.32492e-24)
(0.511098 0.190153 -3.07611e-21)
(0.464419 0.17645 0)
(0.396333 0.153705 1.56086e-24)
(0.313872 0.124195 1.70789e-24)
(0.223946 0.0903867 -2.03656e-24)
(0.132252 0.0544459 0)
(0.0427954 0.0180912 0)
(0.219715 0.0711228 1.7627e-21)
(0.1386 0.0442441 -2.92179e-21)
(0.141148 0.045119 0)
(0.0876473 0.0279811 -3.50482e-22)
(0.0968148 0.0301555 0)
(0.0629873 0.0198615 2.73664e-23)
(0.0652353 0.0206602 4.63374e-22)
(0.0665841 0.0209547 -4.86591e-22)
(0.320458 0.106459 2.13223e-23)
(0.407302 0.1386 -7.12431e-25)
(0.473865 0.165035 6.20266e-25)
(0.514345 0.183217 0)
(0.525145 0.191221 0)
(0.505953 0.18823 0)
(0.459841 0.174703 0)
(0.39249 0.152207 -1.56271e-24)
(0.310895 0.123009 3.39755e-21)
(0.221853 0.0895326 -1.85052e-24)
(0.131053 0.0539466 4.57637e-21)
(0.0424055 0.0179238 0)
(0.216338 0.0699797 -1.63903e-21)
(0.135697 0.0431599 2.81804e-21)
(0.136806 0.0434684 -5.66601e-21)
(0.0816286 0.0256561 1.65367e-21)
(0.0833263 0.0263368 -3.42416e-22)
(0.0420011 0.0134755 4.51549e-22)
(0.0454002 0.0144051 1.54081e-23)
(0.0591295 0.0185256 -1.50396e-23)
(0.0523719 0.0155073 2.85173e-22)
(0.0364497 0.0115019 -4.37364e-22)
(0.0381431 0.0119984 6.57468e-24)
(0.0389461 0.0121804 6.79678e-24)
(0.316318 0.105051 0)
(0.402562 0.136959 -4.27903e-21)
(0.468686 0.163207 1.42026e-23)
(0.508935 0.181273 0)
(0.519777 0.189256 2.78202e-24)
(0.500901 0.186342 2.82473e-21)
(0.455329 0.172983 -2.83812e-21)
(0.388732 0.150742 -2.28893e-23)
(0.30798 0.121846 0)
(0.219825 0.0887027 -3.71713e-21)
(0.129869 0.0534558 4.3652e-21)
(0.0420406 0.0177644 0)
(0.213606 0.0691277 1.53586e-21)
(0.133914 0.042626 2.68642e-21)
(0.134658 0.0427748 2.76856e-21)
(0.0800815 0.0251237 -2.52793e-21)
(0.0806839 0.0253138 3.24043e-21)
(0.0388544 0.0121146 3.49061e-24)
(0.0390673 0.012174 -1.35547e-21)
(0.0401992 0.0126313 4.91707e-22)
(0.0393819 0.0123523 -2.15426e-23)
(0.0138983 0.00452903 -3.11535e-22)
(0.01542 0.00507262 0)
(0.0337713 0.0102121 -3.91142e-22)
(0.0230674 0.00552664 -2.09615e-22)
(0.0116734 0.00374352 3.08767e-22)
(0.0123294 0.00384576 0)
(0.0125686 0.00390685 0)
(0.312597 0.103803 4.9315e-21)
(0.39809 0.135416 4.09365e-21)
(0.463689 0.161452 6.53318e-24)
(0.503668 0.179386 3.05083e-21)
(0.514515 0.18733 -2.78137e-21)
(0.495926 0.184487 2.69126e-21)
(0.450922 0.171299 -2.71285e-21)
(0.385061 0.149307 2.83185e-21)
(0.305147 0.120711 0)
(0.217853 0.0878989 -3.54507e-21)
(0.128739 0.0529807 0)
(0.0416821 0.0176109 0)
(0.211194 0.0683672 1.50305e-21)
(0.132444 0.0421938 2.79685e-23)
(0.133058 0.0423164 0)
(0.0791733 0.0248628 -6.263e-22)
(0.079602 0.0249717 -2.48968e-21)
(0.0384098 0.0119689 3.37313e-24)
(0.0384537 0.0119695 -6.77901e-24)
(0.0386702 0.0120346 -8.84743e-22)
(0.0385695 0.0120277 3.40811e-24)
(0.0124212 0.00385123 -5.97495e-22)
(0.0124863 0.00387507 -1.66861e-24)
(0.0129268 0.00406751 -3.31557e-22)
(0.0125908 0.00392831 0)
(0.0109382 0.00354706 1.90402e-22)
(0.00641438 0.00148437 4.19054e-23)
(0.309132 0.102645 -9.62333e-21)
(0.393835 0.133963 7.75036e-24)
(0.458855 0.159759 -3.2519e-21)
(0.498514 0.177543 -2.92275e-21)
(0.50935 0.185447 1.27062e-24)
(0.491062 0.182666 -1.2829e-24)
(0.446605 0.169646 -5.16598e-21)
(0.381485 0.147902 -2.69629e-21)
(0.302399 0.119606 0)
(0.215942 0.0871113 0)
(0.127643 0.0525225 -1.89192e-24)
(0.0413157 0.0174551 3.89523e-21)
(0.20895 0.0676543 8.45215e-21)
(0.13108 0.0417696 2.41832e-24)
(0.131668 0.0418999 -2.52261e-21)
(0.0783674 0.0246264 -2.35286e-21)
(0.0787595 0.0247361 9.24878e-26)
(0.0380709 0.0118766 -8.26171e-22)
(0.0381253 0.0118686 8.27138e-22)
(0.0382836 0.0119083 0)
(0.0382089 0.0119134 -8.44053e-22)
(0.0123061 0.00381509 5.73122e-22)
(0.0123112 0.00381881 -5.77104e-22)
(0.0123702 0.00383525 -5.88552e-22)
(0.0123409 0.00383187 -5.83269e-22)
(0.305876 0.101564 -9.22747e-24)
(0.389733 0.132559 0)
(0.454136 0.158113 3.10926e-21)
(0.493473 0.175745 -2.79458e-21)
(0.504292 0.183594 -1.27183e-24)
(0.486296 0.180879 2.44415e-21)
(0.442403 0.168029 2.46056e-21)
(0.378002 0.146528 1.22595e-24)
(0.299723 0.118526 0)
(0.214098 0.0863536 0)
(0.126561 0.0520665 -3.7881e-21)
(0.0409808 0.0173096 -1.36376e-23)
(0.206824 0.0669625 -2.75568e-21)
(0.129759 0.0413564 -2.39698e-21)
(0.130333 0.0414816 -2.42944e-21)
(0.077589 0.0243883 2.21525e-24)
(0.0779765 0.0245009 2.29662e-24)
(0.0377073 0.0117671 0)
(0.037787 0.0117687 -8.11465e-22)
(0.0379471 0.0118195 0)
(0.0378856 0.0118178 3.15676e-24)
(0.0121954 0.00378585 5.982e-25)
(0.0122242 0.00378654 5.58932e-22)
(0.012267 0.00379828 -5.67808e-22)
(0.012237 0.00379644 5.6039e-22)
(0.302718 0.100513 4.51574e-21)
(0.38574 0.131205 1.70674e-24)
(0.449536 0.15651 2.97158e-21)
(0.488522 0.173973 0)
(0.499329 0.181774 0)
(0.481641 0.179127 0)
(0.438307 0.166446 2.28486e-24)
(0.374629 0.145192 2.44054e-21)
(0.297151 0.117484 0)
(0.212304 0.085611 -1.43764e-24)
(0.12551 0.051621 -7.15615e-21)
(0.040636 0.0171684 0)
(0.204736 0.0662932 -5.18242e-21)
(0.128499 0.0409446 2.30333e-21)
(0.129049 0.0410713 2.33318e-21)
(0.0768243 0.0241522 -5.58507e-22)
(0.0772083 0.0242587 -2.21732e-24)
(0.0373554 0.0116583 0)
(0.0374277 0.0116606 0)
(0.0375793 0.0117049 -7.91569e-22)
(0.0375233 0.0117065 0)
(0.0120793 0.00374964 -5.36309e-22)
(0.0121167 0.00375313 1.08135e-21)
(0.0121736 0.00377534 -2.15432e-24)
(0.0121527 0.00377056 -5.44153e-22)
(0.299673 0.0995099 0)
(0.381856 0.129881 -1.70955e-24)
(0.445016 0.15493 1.43633e-24)
(0.483666 0.172232 2.54956e-21)
(0.494466 0.179985 0)
(0.477095 0.177407 2.23152e-21)
(0.434323 0.164898 -2.22978e-21)
(0.37137 0.143893 0)
(0.294654 0.116468 1.20097e-24)
(0.210547 0.0848829 2.88367e-21)
(0.124489 0.0511981 1.70319e-24)
(0.0402912 0.0170227 -6.35756e-24)
(0.202742 0.0656465 1.26878e-21)
(0.12725 0.0405544 1.77026e-23)
(0.127807 0.0406772 2.25178e-21)
(0.0760844 0.023913 -2.05737e-24)
(0.0764422 0.0240176 -5.47989e-22)
(0.0369915 0.0115443 0)
(0.0370568 0.0115455 7.44214e-22)
(0.0372383 0.0116 0)
(0.0371726 0.0115915 0)
(0.0119766 0.00371757 -5.19755e-22)
(0.0120079 0.00372067 5.23942e-22)
(0.0120513 0.0037357 5.29595e-22)
(0.0120267 0.00373227 -5.26904e-22)
(0.296699 0.098519 0)
(0.37804 0.128582 -3.32951e-21)
(0.440562 0.153371 -2.71461e-21)
(0.478883 0.170515 -3.38944e-24)
(0.489696 0.178221 2.54522e-23)
(0.472658 0.17572 0)
(0.43047 0.163389 -2.1146e-21)
(0.368212 0.142627 0)
(0.292217 0.115475 -2.33553e-24)
(0.208838 0.0841794 0)
(0.123473 0.0507758 3.18527e-21)
(0.0399754 0.0168846 6.3353e-21)
(0.200775 0.0650117 -1.2194e-21)
(0.126052 0.0401644 -2.12512e-21)
(0.126577 0.0402865 -2.1946e-21)
(0.0753632 0.0236917 -2.03606e-21)
(0.0757343 0.0237937 2.05978e-24)
(0.0366465 0.0114303 0)
(0.036712 0.0114363 2.82827e-24)
(0.0368612 0.0114818 7.29728e-22)
(0.0367895 0.0114795 -2.82591e-24)
(0.0118532 0.00367855 -5.02482e-22)
(0.011877 0.00368058 5.06789e-22)
(0.011947 0.00370387 -5.14193e-22)
(0.0119143 0.00369398 -5.10696e-22)
(0.293768 0.0975478 3.85004e-21)
(0.374268 0.127294 0)
(0.436173 0.151833 0)
(0.474167 0.168813 -2.27333e-21)
(0.485017 0.176482 4.20774e-24)
(0.468341 0.174062 2.00053e-21)
(0.426724 0.161913 1.00296e-24)
(0.365136 0.141394 0)
(0.289848 0.114512 1.13439e-24)
(0.207165 0.083493 -2.57181e-21)
(0.122488 0.0503644 -3.51492e-23)
(0.0396627 0.0167458 2.99012e-21)
(0.198835 0.0643824 0)
(0.124853 0.039789 -2.62583e-23)
(0.125391 0.039912 0)
(0.0746563 0.0234648 -9.94727e-22)
(0.0750059 0.0235621 1.48558e-21)
(0.0362996 0.0113276 -6.92371e-22)
(0.0363595 0.0113266 2.69512e-24)
(0.0365091 0.0113716 0)
(0.0364523 0.0113691 0)
(0.0117414 0.00364182 -4.86309e-22)
(0.011779 0.00364958 4.89939e-22)
(0.0118226 0.00366439 0)
(0.0117945 0.00366067 -4.93385e-22)
(0.290873 0.0965826 0)
(0.37054 0.126018 -5.71731e-24)
(0.431811 0.1503 0)
(0.469502 0.167123 0)
(0.48042 0.174757 0)
(0.464126 0.172433 1.00398e-24)
(0.423085 0.160475 -1.89424e-21)
(0.362149 0.140194 0)
(0.287528 0.113572 2.11631e-21)
(0.205528 0.082821 -2.43392e-21)
(0.12152 0.0499543 -3.38097e-23)
(0.0393432 0.0166047 -5.38112e-24)
(0.196924 0.0637611 -1.12755e-21)
(0.123687 0.0394121 1.98419e-21)
(0.124201 0.0395348 0)
(0.073951 0.0232464 1.89111e-21)
(0.0743041 0.0233446 -7.47622e-24)
(0.0359595 0.0112179 6.59886e-22)
(0.0360327 0.0112297 6.65593e-22)
(0.0361825 0.0112686 6.75832e-22)
(0.0361126 0.0112609 -2.61577e-24)
(0.0116279 0.00360918 -1.56856e-24)
(0.0116607 0.00361201 4.73838e-22)
(0.0117 0.00362721 -4.80573e-22)
(0.011682 0.00362308 -4.76646e-22)
(0.288004 0.0956238 -6.84295e-24)
(0.366816 0.124743 5.72267e-24)
(0.427452 0.148762 -9.13177e-24)
(0.464864 0.165427 3.98355e-24)
(0.475903 0.173048 3.61634e-24)
(0.460023 0.170833 1.79469e-21)
(0.41954 0.159069 0)
(0.359226 0.139024 -1.53481e-23)
(0.285263 0.112654 0)
(0.203904 0.0821488 -2.2919e-21)
(0.12055 0.0495441 2.66761e-21)
(0.0390253 0.0164635 2.67682e-21)
(0.195033 0.063141 -1.07259e-21)
(0.122539 0.0390442 1.87731e-21)
(0.123054 0.0391696 0)
(0.0732621 0.0230283 -1.81116e-21)
(0.0736193 0.0231296 0)
(0.0356261 0.011116 -6.38122e-22)
(0.0356933 0.0111219 0)
(0.0358276 0.0111583 0)
(0.0357828 0.0111572 0)
(0.0115254 0.00357633 -8.80685e-25)
(0.0115564 0.00358391 -4.56247e-22)
(0.0116077 0.00359676 -4.64784e-22)
(0.01158 0.00358931 0)
(0.285129 0.0946614 3.49193e-21)
(0.363047 0.123451 1.04392e-23)
(0.423049 0.147201 2.31877e-21)
(0.460248 0.16372 2.01403e-21)
(0.471459 0.171341 -3.61049e-24)
(0.456007 0.169261 1.60894e-24)
(0.416073 0.157698 -1.67963e-21)
(0.356366 0.13788 0)
(0.283008 0.111736 0)
(0.20228 0.081476 -2.16231e-21)
(0.119581 0.0491319 -5.05603e-21)
(0.0387146 0.0163244 2.50997e-21)
(0.19315 0.0625261 -2.97555e-21)
(0.121401 0.0386757 3.6127e-21)
(0.121907 0.0387965 7.12511e-24)
(0.0725964 0.0228179 -4.3724e-22)
(0.072941 0.022917 -6.90809e-24)
(0.0352971 0.0110113 -6.11159e-22)
(0.0353695 0.0110241 -2.39666e-24)
(0.0355164 0.0110587 0)
(0.035462 0.0110598 0)
(0.0114187 0.00354301 -3.17198e-24)
(0.0114433 0.00354702 -4.40552e-22)
(0.0114852 0.00355945 -4.47151e-22)
(0.0114682 0.00355509 4.44897e-22)
(0.282206 0.093687 6.55135e-24)
(0.359182 0.122123 -2.58399e-21)
(0.41858 0.145594 -2.14222e-21)
(0.455622 0.161978 1.92715e-21)
(0.467075 0.169647 -8.05941e-25)
(0.452068 0.167724 -1.60646e-24)
(0.412673 0.156358 2.99138e-24)
(0.353527 0.136746 -6.21552e-24)
(0.280758 0.11082 0)
(0.200657 0.0808009 3.66079e-23)
(0.118608 0.048715 9.0077e-24)
(0.0383872 0.0161834 2.39354e-21)
(0.191241 0.0619017 1.00195e-21)
(0.120284 0.0383183 -1.71885e-21)
(0.120794 0.0384421 -1.7825e-21)
(0.0719283 0.0226029 -1.67025e-21)
(0.0722713 0.0226997 0)
(0.0349774 0.0109126 0)
(0.0350452 0.0109233 5.85971e-22)
(0.0351802 0.0109548 6.05827e-22)
(0.0351338 0.0109589 2.32031e-24)
(0.011319 0.00351066 -1.58328e-24)
(0.0113488 0.00352062 -4.24584e-22)
(0.0113953 0.00352883 4.3516e-22)
(0.0113661 0.00352598 -4.28572e-22)
(0.279159 0.0926699 -1.1965e-23)
(0.355137 0.120719 -2.54413e-21)
(0.413968 0.143902 -2.05411e-21)
(0.450977 0.160205 -1.83069e-21)
(0.462745 0.167976 8.04643e-25)
(0.448202 0.166226 0)
(0.409312 0.155039 -8.62999e-24)
(0.350693 0.13561 6.2139e-24)
(0.278506 0.1099 1.69056e-21)
(0.199037 0.0801232 -7.13429e-24)
(0.117619 0.0482922 -5.92084e-25)
(0.0380516 0.0160443 -8.99227e-24)
(0.189254 0.0612539 9.47727e-22)
(0.119161 0.037955 -3.19562e-24)
(0.119675 0.0380845 -1.66747e-21)
(0.0712865 0.0224027 4.82232e-24)
(0.0716265 0.0224985 1.62631e-21)
(0.0346664 0.010812 0)
(0.0347226 0.0108147 -1.11543e-24)
(0.0348801 0.0108589 -2.25073e-24)
(0.034824 0.0108581 3.3684e-24)
(0.0112182 0.00348002 -4.07296e-22)
(0.0112395 0.0034867 0)
(0.0112767 0.00349257 -4.15776e-22)
(0.0112547 0.00349263 -4.12808e-22)
(0.275849 0.091567 -9.11876e-23)
(0.350793 0.119185 0)
(0.409189 0.142104 3.989e-21)
(0.446325 0.15843 0)
(0.458483 0.166357 5.68542e-24)
(0.444393 0.16476 0)
(0.40597 0.153725 1.09522e-23)
(0.347866 0.134475 0)
(0.276262 0.108977 -1.56925e-21)
(0.19739 0.0794315 7.13782e-24)
(0.116627 0.0478713 -1.62682e-23)
(0.0377 0.0158994 2.071e-21)
(0.187045 0.0605426 4.43313e-21)
(0.118009 0.037585 -1.5769e-21)
(0.118566 0.0377293 -1.62715e-21)
(0.0706428 0.0221969 2.71311e-24)
(0.0709684 0.0222917 4.01849e-22)
(0.0343635 0.0107166 1.05909e-24)
(0.0344269 0.0107273 -1.05837e-24)
(0.0345703 0.0107676 0)
(0.0345114 0.0107619 0)
(0.0111073 0.00344443 3.91992e-22)
(0.0111421 0.00345206 -3.94331e-22)
(0.011188 0.00346366 7.90688e-25)
(0.011164 0.00346213 -3.9896e-22)
(0.27212 0.0903153 0)
(0.346018 0.117434 -4.63971e-21)
(0.40425 0.140231 9.43257e-25)
(0.441724 0.15672 5.96721e-24)
(0.454311 0.164788 -3.12845e-25)
(0.440634 0.163311 0)
(0.402645 0.152411 -1.33562e-21)
(0.345045 0.133333 1.36607e-21)
(0.273994 0.108041 5.91979e-24)
(0.19574 0.0787355 -6.1847e-24)
(0.115611 0.0474412 -1.90405e-21)
(0.037341 0.0157488 -3.57335e-24)
(0.184412 0.0596994 0)
(0.116703 0.0371673 1.53512e-21)
(0.117356 0.0373439 -1.52318e-21)
(0.0699867 0.0219918 0)
(0.0703361 0.0220897 1.11841e-21)
(0.0340623 0.010624 -3.06979e-24)
(0.0341282 0.0106304 -5.17978e-22)
(0.0342581 0.0106691 -5.29213e-22)
(0.0342164 0.0106699 -1.02481e-24)
(0.0110232 0.00341681 3.77646e-22)
(0.0110452 0.00342405 -3.79665e-22)
(0.011085 0.00343597 -3.87079e-22)
(0.0110622 0.00343222 -3.83295e-22)
(0.267573 0.0887356 1.32904e-21)
(0.340765 0.115441 -2.27174e-21)
(0.399318 0.138447 0)
(0.437279 0.155096 -3.27716e-25)
(0.450242 0.163254 -1.0469e-23)
(0.436911 0.161869 1.25549e-21)
(0.399326 0.151094 4.99773e-24)
(0.342214 0.132185 1.27355e-21)
(0.271711 0.107092 0)
(0.194069 0.0780322 1.54802e-21)
(0.114572 0.0469998 1.7605e-21)
(0.0369873 0.0156007 1.0103e-23)
(0.180711 0.0585165 2.07063e-21)
(0.114984 0.0366328 -1.12387e-23)
(0.115935 0.0368992 1.49396e-21)
(0.0692857 0.0217697 -1.78487e-21)
(0.0696577 0.0218748 1.12388e-23)
(0.0337619 0.010528 0)
(0.0338311 0.0105423 0)
(0.0339629 0.0105778 -1.00274e-24)
(0.0339087 0.0105724 5.03647e-22)
(0.0109152 0.00338481 3.60289e-22)
(0.0109511 0.00339222 -3.66026e-22)
(0.0109888 0.00340558 0)
(0.0109749 0.00340517 0)
(0.26185 0.0865856 2.63488e-21)
(0.335418 0.11357 -1.51677e-23)
(0.394667 0.136809 -1.66826e-21)
(0.433032 0.153534 -5.65117e-24)
(0.446264 0.161746 -1.28617e-21)
(0.43322 0.160435 -4.50697e-24)
(0.39601 0.149776 -1.1611e-21)
(0.339361 0.131023 -4.45845e-24)
(0.269422 0.10614 1.25596e-21)
(0.192383 0.0773187 -1.4191e-21)
(0.113541 0.0465598 -1.61126e-21)
(0.0366155 0.0154451 -6.53642e-24)
(0.17403 0.0561424 1.24698e-23)
(0.111805 0.0356549 3.30964e-23)
(0.113665 0.0362668 -1.42051e-21)
(0.0683741 0.0214901 -9.53862e-24)
(0.0689067 0.0216309 -1.36597e-21)
(0.0334738 0.0104383 -5.01995e-24)
(0.0335244 0.0104454 9.40554e-25)
(0.0336543 0.0104819 0)
(0.0336069 0.0104786 -9.40545e-25)
(0.0108294 0.00335607 0)
(0.0108596 0.00336668 -3.51096e-22)
(0.0108936 0.00337673 -3.56965e-22)
(0.0108723 0.00337335 -3.54693e-22)
(0.255754 0.0845528 1.01797e-23)
(0.330618 0.111945 1.86241e-21)
(0.390411 0.13528 1.24826e-23)
(0.428971 0.152026 1.32541e-21)
(0.442365 0.160264 0)
(0.429563 0.15901 4.51022e-24)
(0.392702 0.148456 1.09622e-21)
(0.336519 0.129858 -1.09745e-21)
(0.267121 0.105177 -4.33055e-24)
(0.190698 0.0765997 3.31044e-23)
(0.112488 0.0461048 1.45942e-21)
(0.0362305 0.0152843 0)
(0.165961 0.0536553 -4.09736e-22)
(0.102942 0.0325012 -1.10815e-23)
(0.108452 0.0345776 -2.21122e-23)
(0.0665365 0.0209773 4.01906e-23)
(0.0676668 0.0212898 3.21396e-22)
(0.0331393 0.0103347 4.54506e-22)
(0.033228 0.0103512 -9.16713e-22)
(0.0333845 0.0103934 9.2111e-25)
(0.0333173 0.0103793 0)
(0.0107378 0.00332938 6.70883e-22)
(0.0107627 0.00333635 -3.38014e-22)
(0.0107886 0.00334408 -3.4447e-22)
(0.0107738 0.00334335 -3.4112e-22)
(0.250862 0.0829087 2.34761e-21)
(0.326537 0.110507 0)
(0.386468 0.133843 0)
(0.425063 0.150573 9.72667e-24)
(0.438545 0.158809 0)
(0.425945 0.157596 -2.1092e-21)
(0.389416 0.147134 0)
(0.33368 0.128688 1.0172e-21)
(0.264823 0.104204 1.07091e-21)
(0.188993 0.0758653 -1.17578e-21)
(0.111404 0.0456382 -1.29678e-21)
(0.0358435 0.0151243 -2.2675e-24)
(0.161213 0.0518961 -2.33347e-21)
(0.0931065 0.0297468 6.22578e-22)
(0.0966585 0.0307719 6.8093e-22)
(0.0570939 0.0176444 0)
(0.064298 0.0202455 -1.98182e-22)
(0.032362 0.0101276 0)
(0.0326923 0.0101978 3.44899e-24)
(0.0330022 0.0102835 -6.25477e-24)
(0.0328613 0.0102518 -3.45768e-24)
(0.0106423 0.00329969 -3.23674e-22)
(0.0106721 0.00330595 3.24105e-22)
(0.0107176 0.00332024 -3.31657e-22)
(0.010692 0.00331303 -3.28967e-22)
(0.247252 0.0816288 -1.76584e-23)
(0.322974 0.109228 0)
(0.382778 0.132502 0)
(0.421294 0.149171 -9.74373e-24)
(0.4348 0.157377 1.05216e-21)
(0.422366 0.156188 2.70621e-25)
(0.386152 0.145812 1.94614e-23)
(0.330847 0.127507 0)
(0.262519 0.103223 9.51523e-22)
(0.187269 0.0751223 2.06469e-21)
(0.110322 0.0451713 0)
(0.0354409 0.0149561 3.23129e-24)
(0.158638 0.0509186 6.57872e-22)
(0.0903855 0.0285423 -9.59158e-24)
(0.0913271 0.0288882 -5.99439e-22)
(0.0450045 0.0141992 -9.42693e-22)
(0.0480426 0.0155072 1.91893e-22)
(0.0189863 0.00444704 0)
(0.0279827 0.00831595 0)
(0.0317951 0.0100191 1.29677e-23)
(0.030583 0.00948291 1.9461e-22)
(0.0104144 0.00323445 -3.10705e-22)
(0.0105305 0.00325941 3.13923e-22)
(0.0106068 0.00328705 -2.38198e-24)
(0.0105678 0.00327643 -3.16652e-22)
(0.244364 0.0806116 2.22173e-21)
(0.319753 0.108082 0)
(0.379295 0.131238 5.18688e-24)
(0.417642 0.147807 0)
(0.431129 0.155966 0)
(0.418835 0.154786 -8.94336e-22)
(0.382902 0.144485 -8.74069e-22)
(0.328025 0.126323 -8.37703e-22)
(0.260208 0.102231 -8.57528e-22)
(0.185549 0.0743723 8.92133e-22)
(0.10922 0.0446872 -9.7114e-22)
(0.0350267 0.0147867 8.9017e-22)
(0.156843 0.0503469 -3.29676e-21)
(0.0892517 0.0281626 -1.17723e-21)
(0.0896817 0.0282612 9.58614e-24)
(0.0437784 0.0136234 -2.85945e-22)
(0.0441982 0.0137774 0)
(0.0103696 0.00325971 3.02827e-22)
(0.0106406 0.00335849 -1.57145e-22)
(0.0127324 0.00399391 -1.66333e-22)
(0.0113324 0.00376584 0)
(0.00525495 0.00118301 0)
(0.00908357 0.00291744 1.31233e-22)
(0.0102207 0.00320443 3.06632e-22)
(0.00975192 0.00312096 1.38819e-22)
(0.241875 0.0797595 0)
(0.316791 0.107036 1.64638e-21)
(0.375971 0.130028 -1.0122e-23)
(0.4141 0.146479 -1.11487e-21)
(0.427528 0.154571 -9.7091e-22)
(0.415342 0.153392 8.25443e-22)
(0.379692 0.14316 2.90589e-24)
(0.325216 0.12513 0)
(0.257911 0.10123 -7.48604e-22)
(0.183814 0.0736053 7.83279e-22)
(0.108088 0.0441918 -1.7655e-24)
(0.0346012 0.0146092 0)
(0.15533 0.0498931 6.51387e-22)
(0.0884487 0.027951 1.12264e-21)
(0.0887748 0.0280117 9.08062e-24)
(0.043334 0.0134908 0)
(0.043527 0.0135467 2.81437e-22)
(0.0102461 0.00318026 -7.64501e-25)
(0.0102568 0.00317441 -2.95787e-22)
(0.0103284 0.00320727 3.04127e-22)
(0.0102857 0.00319228 0)
(0.23965 0.0790049 -1.92783e-21)
(0.314013 0.106056 0)
(0.372784 0.128865 1.2011e-21)
(0.410652 0.145178 9.94725e-22)
(0.423993 0.153191 9.09098e-22)
(0.411904 0.152001 6.06542e-24)
(0.376505 0.141829 -2.90561e-24)
(0.322425 0.123928 6.77634e-22)
(0.255604 0.100215 6.46858e-22)
(0.182048 0.0728208 -5.52235e-25)
(0.106943 0.0436854 -6.27561e-22)
(0.0341677 0.0144268 0)
(0.153994 0.0494772 -6.34153e-22)
(0.0877273 0.0277468 -1.07953e-21)
(0.0880356 0.0278109 0)
(0.0430098 0.0134014 1.03415e-24)
(0.0431711 0.0134509 -2.74992e-22)
(0.0101931 0.00316206 -2.77436e-22)
(0.010201 0.00315845 -2.80468e-22)
(0.0102298 0.0031668 -2.84812e-22)
(0.0102227 0.00317227 -2.83854e-22)
(0.237591 0.0783066 -1.48099e-23)
(0.311374 0.105122 0)
(0.369703 0.127735 -4.41418e-24)
(0.407289 0.143899 -9.27515e-22)
(0.420528 0.151822 0)
(0.408509 0.150612 -5.54929e-24)
(0.373353 0.140493 -1.27378e-21)
(0.319646 0.122715 -5.6921e-22)
(0.253294 0.0991847 0)
(0.180269 0.0720207 5.05551e-22)
(0.105769 0.0431607 0)
(0.0337143 0.0142383 0)
(0.152752 0.0490774 -5.95945e-22)
(0.0870577 0.0275349 0)
(0.0873303 0.0275999 2.12491e-21)
(0.0426848 0.0133145 2.02763e-24)
(0.0428598 0.0133628 -3.05838e-24)
(0.0101356 0.00314207 -5.23868e-25)
(0.0101498 0.00314124 -2.68979e-22)
(0.0101723 0.0031507 5.38392e-25)
(0.0101727 0.00315561 -6.6934e-25)
(0.235641 0.077644 7.22946e-24)
(0.308841 0.104225 -1.41513e-21)
(0.36672 0.126634 2.44099e-25)
(0.404011 0.142637 9.32991e-22)
(0.417126 0.150461 0)
(0.405169 0.149222 6.24507e-22)
(0.370236 0.13915 0)
(0.316881 0.121489 1.03379e-24)
(0.250976 0.098135 0)
(0.178468 0.0712003 0)
(0.10457 0.0426207 -2.55455e-22)
(0.0332398 0.0140433 0)
(0.151553 0.0486927 -1.1467e-21)
(0.0863872 0.0273207 9.88347e-22)
(0.0866715 0.0273883 -3.92462e-24)
(0.0423642 0.0132132 3.88216e-24)
(0.0425244 0.0132644 -9.96476e-22)
(0.0100637 0.00312427 -2.54792e-22)
(0.0100792 0.00312338 -2.59259e-22)
(0.0101123 0.00313131 -2.63662e-22)
(0.0101091 0.00313693 0)
(0.233784 0.0770122 -9.32721e-23)
(0.306412 0.103356 -1.35308e-21)
(0.36382 0.12555 -9.96967e-22)
(0.400812 0.14139 -8.82507e-22)
(0.413793 0.149105 -1.30849e-24)
(0.401872 0.147828 -1.07401e-24)
(0.367142 0.137795 0)
(0.314119 0.120242 0)
(0.248642 0.0970613 -1.18185e-25)
(0.176634 0.070355 2.05453e-22)
(0.103329 0.0420623 -5.60153e-23)
(0.0327509 0.0138406 -1.41423e-25)
(0.150408 0.0483179 1.52934e-21)
(0.085757 0.027124 9.37363e-22)
(0.0860255 0.0271857 1.93485e-21)
(0.0420456 0.0131097 2.38451e-22)
(0.0422091 0.0131618 0)
(0.0099862 0.00309929 -2.46313e-22)
(0.0100002 0.00309783 4.81975e-25)
(0.0100364 0.00310963 -2.53027e-22)
(0.0100314 0.00311297 -2.50867e-22)
(0.232005 0.0763997 -9.24387e-23)
(0.30405 0.102505 -1.28154e-21)
(0.361014 0.124488 9.40879e-22)
(0.397689 0.14015 1.59407e-24)
(0.410522 0.147749 1.30847e-24)
(0.398627 0.146429 1.07411e-24)
(0.364076 0.136425 0)
(0.311366 0.118976 0)
(0.246286 0.0959613 1.18274e-25)
(0.174773 0.0694883 9.77873e-23)
(0.102051 0.0414821 0)
(0.0322431 0.0136324 4.13214e-22)
(0.149314 0.0479571 1.99138e-21)
(0.0851383 0.0269263 8.9283e-22)
(0.0854039 0.026989 9.12852e-25)
(0.0417526 0.0130252 0)
(0.0418975 0.0130652 -9.08336e-22)
(0.00992235 0.00307501 -2.35606e-22)
(0.00993491 0.0030762 -4.6721e-25)
(0.00996061 0.00308529 -2.427e-22)
(0.00995461 0.00308873 -2.3944e-22)
(0.230278 0.0758034 1.50468e-21)
(0.301776 0.101673 0)
(0.358286 0.123435 -9.64653e-22)
(0.39464 0.138916 0)
(0.407314 0.146393 0)
(0.395425 0.14502 0)
(0.361033 0.135037 -3.70355e-22)
(0.30861 0.117685 2.36007e-22)
(0.243915 0.0948337 -4.43404e-23)
(0.172861 0.068588 -1.08308e-22)
(0.100736 0.0408853 -2.42377e-25)
(0.0317093 0.0134178 2.65491e-25)
(0.148249 0.0476059 -4.95679e-22)
(0.0845538 0.0267332 8.5053e-22)
(0.0848034 0.026797 -1.75398e-21)
(0.041452 0.0129319 0)
(0.0416042 0.0129754 0)
(0.00985556 0.00305807 0)
(0.00986079 0.00305558 -2.27185e-22)
(0.00988684 0.00306091 -2.32068e-22)
(0.00988352 0.00306658 -2.30496e-22)
(0.228622 0.0752232 1.5174e-21)
(0.299573 0.100854 1.08098e-21)
(0.355631 0.122389 -1.6672e-24)
(0.391659 0.137682 -1.29784e-24)
(0.404166 0.145032 0)
(0.392266 0.143598 3.50752e-22)
(0.358016 0.133628 -5.11056e-22)
(0.305844 0.116359 0)
(0.241508 0.0936705 9.10115e-23)
(0.170905 0.0676579 0)
(0.0993625 0.0402673 6.05738e-25)
(0.0311631 0.0132031 2.12859e-24)
(0.147231 0.0472691 -2.25891e-21)
(0.0839666 0.0265487 8.06938e-22)
(0.0842163 0.0266086 3.23186e-24)
(0.0411753 0.0128398 0)
(0.0413235 0.0128876 8.26384e-22)
(0.00978068 0.00303551 -8.41035e-25)
(0.00978758 0.00303293 -2.17306e-22)
(0.00982297 0.00304237 -2.22758e-22)
(0.00980987 0.00304444 -2.20097e-22)
(0.227023 0.0746575 0)
(0.297446 0.100041 0)
(0.353051 0.121345 1.27274e-24)
(0.388754 0.136453 -6.83579e-22)
(0.401079 0.143666 0)
(0.389153 0.142158 2.8042e-22)
(0.355009 0.132189 0)
(0.303064 0.114999 3.14997e-26)
(0.239053 0.0924674 0)
(0.168893 0.0666958 4.6241e-22)
(0.0979292 0.0396375 -3.63765e-25)
(0.0306124 0.0129791 1.23265e-21)
(0.146248 0.0469472 4.47643e-22)
(0.0834141 0.0263699 7.72167e-22)
(0.0836492 0.0264282 0)
(0.0408962 0.0127565 3.08608e-24)
(0.0410417 0.012799 -3.08181e-24)
(0.00971745 0.00301368 -8.11102e-25)
(0.00972924 0.00301231 -2.07833e-22)
(0.00975609 0.00302267 -2.1234e-22)
(0.00975324 0.00302549 -2.1035e-22)
(0.225491 0.0740977 -1.39356e-21)
(0.295389 0.0992279 0)
(0.35054 0.120307 7.3451e-22)
(0.385919 0.135225 0)
(0.398053 0.142287 0)
(0.386077 0.140695 -3.21142e-22)
(0.352012 0.130716 -1.90984e-26)
(0.300273 0.113602 -3.15141e-26)
(0.236563 0.0912249 -7.07244e-22)
(0.166803 0.0656952 -6.55945e-22)
(0.0964295 0.039019 0)
(0.0301964 0.0126683 -1.55577e-21)
(0.1453 0.0466485 1.64664e-21)
(0.0828594 0.0262088 -7.36616e-22)
(0.0830963 0.0262572 -7.51523e-25)
(0.0406287 0.0126723 0)
(0.0407667 0.0127137 0)
(0.00964845 0.00299439 -1.96831e-22)
(0.00966134 0.00299312 -1.98863e-22)
(0.00969144 0.00300185 0)
(0.00968923 0.0030057 -2.01435e-22)
(0.224032 0.0735251 6.23405e-25)
(0.293387 0.0984161 0)
(0.348114 0.119283 -7.81036e-22)
(0.38316 0.133991 0)
(0.39509 0.140892 3.16242e-22)
(0.383038 0.139202 -7.91922e-26)
(0.34903 0.129206 1.91047e-26)
(0.297455 0.112157 1.07552e-22)
(0.234003 0.0899356 5.49757e-22)
(0.164663 0.0646791 0)
(0.0948234 0.0383333 0)
(0.0305331 0.0123866 0)
(0.144518 0.0462084 -8.11985e-25)
(0.0823538 0.0261334 2.81287e-24)
(0.0825532 0.0261253 -7.37669e-22)
(0.0403608 0.0125908 0)
(0.0404951 0.01263 0)
(0.00958866 0.00297421 -1.88528e-22)
(0.00960114 0.00297495 -1.9021e-22)
(0.00962629 0.00298232 0)
(0.00962084 0.00298495 -1.92351e-22)
(0.222588 0.0729576 -6.22832e-25)
(0.291465 0.0976298 8.74447e-22)
(0.345765 0.118259 0)
(0.380481 0.132749 0)
(0.392188 0.139475 -3.93417e-22)
(0.380034 0.137674 7.91685e-26)
(0.346046 0.12765 1.73204e-22)
(0.294592 0.110664 -1.46747e-25)
(0.231429 0.0886034 0)
(0.162202 0.0635929 0)
(0.0948068 0.0375595 0)
(0.0263514 0.0100077 0)
(0.14361 0.0459048 0)
(0.0821343 0.0257484 0)
(0.0821588 0.0261075 6.99931e-22)
(0.0400191 0.0125489 0)
(0.0402102 0.0125617 6.86355e-22)
(0.00953357 0.0029538 0)
(0.00953883 0.00295363 -1.82286e-22)
(0.00956004 0.00296131 -1.86296e-22)
(0.00955646 0.00296397 3.61487e-25)
(0.221211 0.0724156 0)
(0.289623 0.0968528 0)
(0.343509 0.117234 0)
(0.37788 0.13149 -1.31955e-22)
(0.389343 0.138028 -2.45654e-25)