/*--------------------------------*- C++ -*----------------------------------*\
| =========                 |                                                 |
| \\      /  F ield         | OpenFOAM: The Open Source CFD Toolbox           |
|  \\    /   O peration     | Version:  v1912                                 |
|   \\  /    A nd           | Website:  www.openfoam.com                      |
|    \\/     M anipulation  |                                                 |
\*---------------------------------------------------------------------------*/
FoamFile
{
    version     2.0;
    format      ascii;
    class       surfaceScalarField;
    location    "70";
    object      phi;
}
// * * * * * * * * * * * * * * * * * * * * * * * * * * * * * * * * * * * * * //

dimensions      [0 3 -1 0 0 0 0];
oriented        oriented;


internalField   nonuniform List<scalar> 
7351
(
-3.42684e-06
0.00135627
-1.24989e-05
0.00411633
-2.56167e-06
0.00135889
-3.18052e-05
0.00686742
-1.25447e-05
0.00412638
-3.43365e-06
0.00136252
-5.71417e-05
0.00950274
-3.10878e-05
0.00688606
-1.29012e-05
0.00413602
-2.26642e-06
0.001365
-8.76069e-05
0.011858
-5.55645e-05
0.00952728
-2.91143e-05
0.00690242
-9.99791e-06
0.00414397
-2.21836e-06
0.00136746
-0.000132429
0.0137533
-8.67044e-05
0.0118892
-5.05679e-05
0.00954886
-2.70797e-05
0.0069197
-9.78762e-06
0.00415172
-2.23526e-06
0.00136982
-0.000170479
0.0149909
-0.000125148
0.0137918
-8.31064e-05
0.0119219
-4.967e-05
0.00957159
-2.24726e-05
0.00693254
-9.62022e-06
0.00415924
-1.32007e-06
0.00137123
-0.000219477
0.0154422
-0.000170592
0.0150364
-0.000120402
0.0138292
-7.69663e-05
0.0119493
-3.98442e-05
0.00958907
-1.92844e-05
0.00694231
-7.76367e-06
0.00416573
-1.42018e-06
0.00137262
-0.000258524
0.0150202
-0.000212344
0.015484
-0.000161342
0.0150774
-0.000107931
0.0138603
-6.22215e-05
0.0119718
-3.55609e-05
0.00960541
-1.6433e-05
0.00695102
-5.9434e-06
0.00417023
-1.45363e-06
0.00137404
-0.00029354
0.0137729
-0.00025982
0.0150678
-0.000200366
0.0155231
-0.000135032
0.0151046
-8.71961e-05
0.0138853
-5.49753e-05
0.0119913
-3.14266e-05
0.00962041
-1.51729e-05
0.00696024
-5.30113e-06
0.00417404
-1.59773e-06
0.00137561
-0.000320542
0.0118066
-0.000304043
0.013817
-0.000239514
0.0151069
-0.000168394
0.0155565
-0.000114645
0.0151321
-7.06553e-05
0.013901
-4.35845e-05
0.0120034
-2.23639e-05
0.00962758
-1.25092e-05
0.00696742
-5.97955e-06
0.00417841
-1.6028e-06
0.00137726
-0.000332029
0.0092953
-0.000335677
0.0118385
-0.000259304
0.013837
-0.00018823
0.0151268
-0.000131405
0.0155733
-8.95175e-05
0.015151
-5.76087e-05
0.013915
-3.43121e-05
0.0120154
-2.21245e-05
0.00963717
-9.41242e-06
0.00697086
-3.43861e-06
0.00418029
-1.11024e-06
0.00137846
0.00643028
-0.00018993
-0.000111349
-0.000359999
0.00931954
-0.000272157
0.0118512
-0.000195608
0.0138443
-0.000142703
0.0151381
-9.69546e-05
0.0155807
-6.50041e-05
0.0151583
-4.02129e-05
0.0139208
-2.77075e-05
0.0120209
-1.33474e-05
0.00964111
-9.54463e-06
0.00697701
-5.06323e-06
0.00418434
-3.94937e-07
0.00137893
0.00644026
-0.000173644
-0.000196271
-0.00212249
0.00208219
-0.000149575
-8.26301e-05
-0.000249686
0.00929729
-0.000178562
0.0118344
-0.000136541
0.0138383
-9.50423e-05
0.0151362
-7.22727e-05
0.0155879
-5.15285e-05
0.0151696
-3.45721e-05
0.0139277
-2.30826e-05
0.0120307
-1.79281e-05
0.00964954
-9.04616e-06
0.00698106
-3.75762e-06
0.00418775
-1.15096e-06
0.00138007
0.00637581
-5.82109e-05
-0.000126986
-0.00206613
0.00204353
-0.000151051
-0.000180222
-0.00136454
0.00130805
-6.16533e-05
-3.13998e-05
-2.46388e-05
-0.000133857
0.00925246
-0.000108946
0.0118066
-8.26353e-05
0.0138257
-6.51095e-05
0.015129
-4.83458e-05
0.0155847
-3.32386e-05
0.0151683
-2.90235e-05
0.0139337
-1.81723e-05
0.012031
-1.25628e-05
0.0096531
-9.85082e-06
0.00698718
-4.55019e-06
0.00419113
-2.02883e-06
0.00138205
0.00629604
-1.01036e-05
-4.39409e-05
-0.00199697
0.00197438
-3.55857e-05
-8.03975e-05
-0.00129168
0.00124879
-3.86033e-05
-6.95478e-05
-8.22398e-05
-8.16154e-05
-0.000414114
0.000387427
-3.49513e-05
-0.000427732
-1.77662e-05
-9.59978e-06
-6.21051e-05
0.0092058
-5.61581e-05
0.0117803
-5.03786e-05
0.0138111
-3.77009e-05
0.0151184
-3.00319e-05
0.0155816
-2.54329e-05
0.0151647
-2.17285e-05
0.0139372
-1.76649e-05
0.0120361
-1.69287e-05
0.00966019
-1.09795e-05
0.0069936
-6.71551e-06
0.00419576
-1.13457e-06
0.00138312
0.00624901
9.52142e-08
-1.51399e-05
-0.00194701
0.00194272
-5.8147e-06
-1.65782e-05
-0.00119711
0.0011674
-7.72932e-07
-5.08154e-06
-2.17121e-05
-6.98387e-06
-0.000318968
0.000300224
-1.98601e-05
-0.000341845
-4.66793e-05
0.000362673
-5.74862e-05
-6.07917e-05
-0.000237251
0.00021201
-9.69843e-06
-0.000251122
-3.88086e-06
-1.61502e-06
-3.00344e-05
0.00917952
-3.05187e-05
0.0117603
-2.63366e-05
0.0137996
-2.54213e-05
0.0151138
-1.91056e-05
0.0155752
-2.14104e-05
0.0151644
-1.64252e-05
0.013936
-2.12115e-05
0.0120404
-1.6394e-05
0.00966558
-1.31032e-05
0.00699994
-6.65835e-06
0.00420124
-2.83981e-06
0.00138594
0.00622001
4.55932e-06
-5.57547e-06
-0.00193061
0.00193143
-6.94941e-07
-2.99464e-06
-0.00115218
0.00114627
1.05367e-06
-9.48343e-07
-1.68907e-06
3.2479e-07
-0.000275713
0.000275335
-3.8773e-07
-0.000280297
-4.84347e-07
0.000285172
-6.64919e-06
-2.10053e-06
-0.000107771
8.79106e-05
-0.000154452
0.00017511
-2.05855e-05
-4.01358e-05
-7.0417e-05
6.07216e-05
-7.42958e-05
-1.00234e-05
0.00915919
-1.57865e-05
0.0117499
-1.43626e-05
0.0137887
-1.03974e-05
0.0151051
-1.64549e-05
0.0155703
-1.40529e-05
0.0151621
-2.67036e-05
0.0139415
-2.61723e-05
0.0120501
-2.24986e-05
0.00967494
-1.6297e-05
0.00700956
-9.63517e-06
0.00420803
-1.88704e-06
0.00138784
0.00620875
4.21699e-06
-2.97866e-06
-0.00192607
0.00192938
1.23052e-06
-2.31959e-07
-0.00114324
0.0011422
2.6704e-07
1.13973e-07
-4.15301e-07
4.66334e-07
-0.000273012
0.000273854
2.12329e-07
-0.000274125
1.59135e-07
0.000273672
-2.77335e-08
-1.30311e-07
-7.86815e-05
7.8296e-05
-7.91634e-05
8.1264e-05
4.01358e-05
-1.82597e-06
0.00914509
4.14686e-07
0.011735
-2.59697e-06
0.0137808
-8.12664e-06
0.0150967
-1.2759e-05
0.015569
-2.48449e-05
0.0151602
-2.41685e-05
0.0139394
-2.93287e-05
0.0120569
-2.62974e-05
0.00968493
-1.80992e-05
0.00701802
-1.00508e-05
0.00421621
-2.53585e-06
0.00139041
0.00620416
2.47541e-06
2.9795e-07
-0.00192602
0.00192928
9.58533e-07
3.96854e-07
-0.00114155
0.00114254
-1.4462e-07
3.71546e-07
1.09249e-08
3.96566e-07
-0.000273921
0.000274119
7.64369e-08
-0.000273945
1.51915e-07
0.000273662
-2.11453e-07
1.91509e-07
-7.82956e-05
7.85089e-05
-7.81372e-05
7.82675e-05
4.08965e-06
0.00914157
8.49047e-07
0.0117317
-9.0245e-07
0.0137737
-3.03639e-06
0.015087
-1.51083e-05
0.0155592
-2.88997e-05
0.0151649
-4.02966e-05
0.0139504
-3.62926e-05
0.0120669
-3.20124e-05
0.00969884
-2.34732e-05
0.00703146
-1.04788e-05
0.00422418
-3.31725e-06
0.00139373
0.00620395
2.55477e-06
1.75937e-06
-0.00192922
0.00192994
1.72371e-06
3.43716e-07
-0.00114231
0.00114317
1.56371e-07
-5.00523e-08
3.0575e-07
3.28381e-07
-0.000274803
0.000274607
4.45622e-08
-0.000274412
-2.78392e-08
0.0002741
2.64577e-08
8.06789e-08
-7.86461e-05
7.87246e-05
-7.84915e-05
7.83e-05
3.86643e-06
0.00913842
7.39175e-06
0.0117233
3.48012e-06
0.013767
-1.33513e-05
0.0150852
-2.58687e-05
0.0155562
-3.74637e-05
0.0151621
-4.79688e-05
0.0139621
-4.99174e-05
0.0120848
-4.18453e-05
0.00971723
-2.49721e-05
0.00704597
-1.05641e-05
0.00423143
-2.33387e-06
0.00139606
0.00620371
2.49614e-06
1.62268e-06
-0.00193102
0.00193179
1.79513e-06
7.03128e-07
-0.00114267
0.00114433
2.70979e-07
-2.17406e-07
4.34803e-07
3.93612e-07
-0.000274937
0.000275123
-3.07938e-08
-0.000275157
1.7637e-07
0.000274951
-3.23826e-08
1.27371e-07
-7.88015e-05
7.8845e-05
-7.88305e-05
7.87498e-05
9.62857e-06
0.0091363
7.71389e-06
0.0117191
-2.63595e-07
0.013754
-1.27046e-05
0.0150721
-3.62527e-05
0.015555
-5.39034e-05
0.015168
-6.13078e-05
0.0139735
-5.98786e-05
0.0121029
-4.48523e-05
0.00973712
-2.74521e-05
0.00706287
-1.36517e-05
0.00424274
-3.16078e-06
0.00139919
0.00620716
3.07104e-06
3.09687e-06
-0.00193203
0.00193386
6.50235e-07
1.37215e-06
-0.00114498
0.00114616
2.11588e-07
4.1996e-07
-2.18087e-07
2.73142e-07
-0.000275654
0.000275866
5.03199e-08
-0.000276041
1.58855e-07
0.000275519
3.06075e-08
-1.33982e-07
-7.91192e-05
7.90882e-05
-7.89414e-05
7.88141e-05
6.40902e-06
0.00913746
4.33678e-06
0.0117144
-9.38037e-06
0.0137506
-3.01944e-05
0.015066
-5.56853e-05
0.0155567
-7.73589e-05
0.015184
-8.44209e-05
0.013998
-7.09221e-05
0.012129
-4.97061e-05
0.00975937
-2.80569e-05
0.00707726
-1.18001e-05
0.00425135
-3.58171e-06
0.00140274
0.00620947
1.01799e-06
3.06732e-06
-0.00193524
0.00193682
1.49942e-06
1.73046e-06
-0.00114726
0.00114735
2.78767e-07
2.72608e-07
-6.00142e-08
3.27617e-07
-0.000276133
0.000276581
-2.33715e-07
-0.00027588
1.75998e-07
0.000275708
-5.40065e-08
1.05134e-07
-7.91398e-05
7.91885e-05
-7.89829e-05
7.91169e-05
6.30612e-06
0.00913557
1.22729e-06
0.0117039
-1.28879e-05
0.0137334
-4.56574e-05
0.015056
-7.60666e-05
0.0155554
-9.67453e-05
0.0151964
-9.47126e-05
0.0140218
-7.7877e-05
0.0121571
-5.46816e-05
0.00978598
-3.0915e-05
0.00709635
-1.32896e-05
0.00426102
-3.13954e-06
0.00140582
0.00621014
2.61649e-06
2.99136e-06
-0.00193922
0.0019385
1.70964e-06
6.5814e-07
-0.00114894
0.00115036
-2.65889e-07
3.61046e-07
-1.89646e-07
3.34819e-07
-0.000276831
0.000277065
3.92589e-08
-0.000276674
1.08827e-07
0.000276499
1.70474e-08
1.49956e-07
-7.94188e-05
7.91861e-05
-7.92412e-05
7.91361e-05
3.97717e-06
0.00913269
-6.13401e-06
0.011697
-3.47843e-05
0.0137224
-7.38751e-05
0.0150538
-0.000112351
0.015571
-0.000122942
0.0152246
-0.000116527
0.0140604
-8.70298e-05
0.0121895
-5.45986e-05
0.00980964
-3.03342e-05
0.00711336
-1.14002e-05
0.00426923
-2.27252e-06
0.00140804
0.00621002
1.17702e-06
2.91212e-06
-0.00194019
0.00194203
7.73641e-07
1.29977e-06
-0.00115023
0.00115182
-1.50175e-07
2.47425e-07
4.15037e-07
3.62953e-07
-0.000277332
0.000277321
-2.53606e-07
-0.000277083
1.18683e-07
0.000276859
2.2939e-08
1.1502e-07
-7.94595e-05
7.94981e-05
-7.93519e-05
7.92019e-05
1.7627e-06
0.00912487
-1.65076e-05
0.0116788
-5.85177e-05
0.0137071
-0.000111234
0.0150527
-0.000145985
0.0155941
-0.000154184
0.0152622
-0.000123346
0.0140967
-9.02261e-05
0.0122251
-5.65949e-05
0.00983587
-2.72143e-05
0.00712913
-1.10936e-05
0.004278
-2.12109e-06
0.00141011
0.00620755
1.25618e-06
2.95829e-06
-0.00194333
0.00194371
7.65985e-07
1.58789e-06
-0.00115251
0.00115321
1.90593e-07
-1.2119e-07
4.24595e-07
1.88554e-07
-0.000278029
0.000277828
4.22516e-08
-0.000277865
7.49882e-08
0.000277688
4.30432e-08
1.81521e-07
-7.97577e-05
7.95047e-05
-7.96375e-05
7.95225e-05
-4.29987e-06
0.00911256
-3.74102e-05
0.0116576
-9.71187e-05
0.0136929
-0.000154175
0.0150608
-0.000187002
0.0156269
-0.000166649
0.0153055
-0.000130388
0.0141369
-8.83093e-05
0.0122567
-4.79531e-05
0.00985657
-2.31611e-05
0.00714116
-8.99823e-06
0.00428483
-1.72506e-06
0.0014118
0.0062004
-1.03689e-07
2.94066e-06
-0.00194525
0.00194574
7.68795e-07
1.41849e-06
-0.00115404
0.00115473
3.00152e-07
-2.53764e-07
4.1856e-07
3.25114e-07
-0.00027808
0.000278496
-2.30249e-07
-0.000278301
1.01439e-07
0.000278176
7.7478e-08
6.50727e-08
-7.98011e-05
7.98414e-05
-7.97277e-05
7.95462e-05
-1.34531e-05
0.00908866
-6.82428e-05
0.0116288
-0.000147924
0.0136867
-0.000210638
0.0150845
-0.000211566
0.0156718
-0.000180288
0.0153554
-0.000130363
0.0141789
-7.91439e-05
0.0122879
-4.36918e-05
0.00987706
-1.99761e-05
0.0071521
-6.10816e-06
0.00428918
-6.08278e-07
0.00141237
0.00618574
-1.81851e-06
3.00337e-06
-0.00194697
0.00194637
4.79008e-07
1.6973e-06
-0.00115598
0.00115615
1.88207e-07
4.14508e-07
4.22332e-07
-2.54708e-07
-0.000278668
0.000278972
-1.3633e-08
-0.000279031
9.92297e-08
0.000278833
7.34409e-08
1.20942e-07
-8.00862e-05
7.98546e-05
-7.99844e-05
7.99193e-05
-3.39589e-05
0.00905428
-0.000120986
0.0116017
-0.000218994
0.013695
-0.000256234
0.0151291
-0.000229713
0.0157212
-0.000172284
0.0153973
-0.000115496
0.0142152
-6.71409e-05
0.0123113
-3.62178e-05
0.00989326
-1.65928e-05
0.00716255
-3.75897e-06
0.0042923
-3.80988e-07
0.00141272
0.00615644
-7.65635e-06
2.9862e-06
-0.00194864
0.00194626
5.54158e-07
7.37714e-07
-0.00115756
0.00115793
-1.13646e-07
2.08919e-07
3.87451e-07
-1.06684e-07
-0.000279475
0.00027958
8.16614e-08
-0.000278928
-1.30302e-07
0.000279311
8.3126e-08
1.29794e-07
-8.0144e-05
8.01278e-05
-8.00469e-05
7.99259e-05
-7.19699e-05
0.00900528
-0.000197144
0.0115799
-0.000282075
0.0137208
-0.000276533
0.0151759
-0.000216397
0.0157653
-0.000154607
0.0154364
-9.77094e-05
0.0142458
-5.79745e-05
0.012333
-3.03331e-05
0.00990698
-9.67192e-06
0.00716844
-2.9146e-06
0.00429481
6.69437e-07
0.00141202
0.00610243
-1.80863e-05
8.25638e-08
-0.00194837
0.00194203
-1.33824e-06
8.71008e-07
-0.0011581
0.0011585
-2.59368e-07
4.06498e-07
3.83746e-07
1.85179e-07
-0.000279848
0.000279708
1.96837e-08
-0.000279775
1.30191e-07
0.000279939
2.34005e-08
5.37486e-08
-8.02113e-05
8.02925e-05
-8.03411e-05
8.02113e-05
-0.000140767
0.0089488
-0.000296869
0.0115946
-0.000323519
0.0137678
-0.000265559
0.015225
-0.000192541
0.0158032
-0.000128412
0.015467
-7.88299e-05
0.0142666
-4.35149e-05
0.0123462
-1.83399e-05
0.00991562
-5.88956e-06
0.00717139
1.0701e-06
0.00429438
1.0951e-06
0.0014109
0.00601676
-4.5394e-05
-9.73578e-06
-0.00194329
0.00192899
-3.80456e-06
-1.18826e-06
-0.00115905
0.00115755
-7.34386e-08
2.16481e-07
3.92861e-07
-7.73781e-08
-0.00028067
0.000280337
7.1737e-08
-0.000280141
-1.1973e-07
0.000280068
2.47954e-08
1.13909e-07
-8.04972e-05
8.05154e-05
-8.03683e-05
8.03146e-05
-0.000270341
0.00892228
-0.000355641
0.0116267
-0.000301362
0.0138036
-0.000220864
0.0152533
-0.000154323
0.015829
-9.64074e-05
0.0154846
-5.69648e-05
0.01428
-3.04656e-05
0.0123583
-1.03541e-05
0.00992006
-1.21806e-06
0.00717365
2.69824e-06
0.00429275
1.47071e-06
0.0014094
0.00592026
-0.000120807
-5.30835e-05
-0.00192616
0.00189664
-1.59074e-05
-6.92364e-06
-0.00115621
0.0011522
-2.00316e-07
3.84582e-07
3.75184e-07
-2.25354e-07
-0.000280633
0.000280735
-1.82935e-07
-0.000280554
1.31915e-07
0.000280696
2.96687e-08
6.18045e-08
-8.05353e-05
8.06068e-05
-8.06546e-05
8.05407e-05
-0.00037739
0.00894392
-0.000324036
0.0116493
-0.000237857
0.0138205
-0.000168521
0.0152675
-0.000110858
0.0158435
-7.06e-05
0.0154982
-3.677e-05
0.0142863
-1.46263e-05
0.0123626
-4.11073e-06
0.00992294
2.80414e-06
0.00717353
3.28742e-06
0.00429091
2.78448e-06
0.00140659
0.00592048
-0.00020805
-0.000169609
-0.001873
0.00181541
-6.3238e-05
-2.94545e-05
-0.00114538
0.00113079
-1.52622e-06
1.80658e-07
4.35639e-07
-5.44595e-07
-0.000281048
0.000280758
8.21674e-08
-0.000280743
7.77555e-08
0.000281083
2.52599e-08
1.13895e-07
-8.08278e-05
8.06428e-05
-8.06971e-05
8.06353e-05
-0.000326122
0.008946
-0.000228223
0.0116397
-0.000162657
0.0138146
-0.000116489
0.0152731
-7.77597e-05
0.0158506
-4.77576e-05
0.0155092
-2.47161e-05
0.0142964
-8.48815e-06
0.0123669
4.19095e-06
0.00992153
6.29373e-06
0.0071705
6.90705e-06
0.00428677
3.36152e-06
0.00140321
0.00587039
-9.70183e-05
-0.000179074
-0.00177929
0.00174858
-0.00017738
-0.000133502
-0.00110535
0.00105493
-1.09133e-05
-1.92338e-06
-3.82937e-07
-3.63325e-06
-0.000280666
0.000279368
-2.37773e-07
-0.000280676
1.82153e-07
0.000281121
6.42218e-08
-1.0454e-07
-8.08589e-05
8.09386e-05
-8.07815e-05
8.06676e-05
-0.000177268
0.00889495
-0.000138321
0.0116153
-0.000106175
0.0138042
-7.35438e-05
0.0152688
-4.81808e-05
0.015851
-2.50066e-05
0.0155094
-9.85355e-06
0.0142977
1.47241e-06
0.0123696
8.19278e-06
0.00991962
1.26995e-05
0.00716469
9.87331e-06
0.00428024
3.80977e-06
0.00139938
0.00577184
-1.73262e-05
-6.14301e-05
-0.0017051
0.00166567
-5.76206e-05
-0.000135601
-0.000974243
0.000927715
-6.67394e-05
-6.41413e-05
-1.45905e-05
-3.82345e-05
-0.000274427
0.000265326
-1.81733e-06
-0.000275764
-5.87003e-07
0.000279184
-2.01969e-07
-2.14084e-07
-8.10762e-05
8.08355e-05
-8.08962e-05
8.10007e-05
-8.10987e-05
0.00883772
-7.43203e-05
0.0115834
-6.0459e-05
0.0137911
-4.32234e-05
0.0152639
-2.57558e-05
0.0158517
-9.55748e-06
0.0155091
2.73213e-06
0.0142964
1.32223e-05
0.0123646
1.60062e-05
0.00991629
1.43829e-05
0.00716017
9.51194e-06
0.00427452
4.86104e-06
0.0013945
0.0057078
6.05725e-07
-1.7723e-05
-0.00162711
0.00161678
-7.03186e-06
-2.28872e-05
-0.000861288
0.000811775
-1.35262e-06
-6.77926e-06
-4.93381e-05
-1.9841e-05
-0.000185406
0.000159603
-4.09447e-05
-0.000226865
-2.269e-05
0.000254823
-4.09357e-06
-1.02805e-05
-7.98316e-05
7.80127e-05
-8.0419e-05
8.06331e-05
-3.69136e-05
0.00880021
-3.70566e-05
0.0115599
-3.07811e-05
0.0137787
-2.12946e-05
0.0152594
-9.10083e-06
0.0158513
1.96119e-06
0.0155099
1.55369e-05
0.0142941
1.69669e-05
0.0123636
2.08506e-05
0.00990981
1.75671e-05
0.0071521
1.36808e-05
0.00426569
5.1619e-06
0.00138933
0.00567375
3.75159e-06
-6.65829e-06
-0.00160253
0.00160328
-1.87912e-07
-3.48469e-06
-0.000789573
0.00078248
2.91565e-07
-2.59033e-07
-7.21804e-07
2.57428e-08
-8.36414e-05
8.22856e-05
-9.04219e-05
0.000110263
-4.09456e-05
-6.3637e-05
7.39175e-05
-1.49136e-05
0.00877806
-1.6586e-05
0.0115457
-1.19152e-05
0.0137693
-7.5958e-07
0.015251
6.26064e-06
0.015847
1.67468e-05
0.0155087
1.82723e-05
0.0142928
2.61967e-05
0.0123582
2.51923e-05
0.00990217
2.33593e-05
0.00714241
1.59166e-05
0.00425493
6.04406e-06
0.00138327
0.00565822
4.33794e-06
-3.78918e-06
-0.00159742
0.00159981
1.31311e-06
-8.13791e-07
-0.000778898
0.000778597
1.22634e-07
-3.82835e-08
-3.03669e-08
1.19035e-07
-8.13259e-05
8.16131e-05
-8.15872e-05
8.15615e-05
-1.77523e-06
0.00876316
-3.68742e-06
0.0115374
2.2471e-06
0.0137662
9.38829e-06
0.0152479
1.91671e-05
0.0158445
2.35122e-05
0.0155034
3.36582e-05
0.0142853
3.34736e-05
0.0123499
3.29177e-05
0.0098926
2.81932e-05
0.00713013
1.7881e-05
0.00424309
7.05676e-06
0.0013762
0.00565406
3.90495e-06
-1.55569e-06
-0.00159572
0.00159974
2.72964e-07
2.93536e-07
-0.000777491
0.000778664
2.01706e-07
-9.55994e-08
1.17117e-07
1.62469e-07
-8.16599e-05
8.17777e-05
-8.17e-05
8.15809e-05
2.35591e-06
0.00875712
6.42988e-06
0.0115333
1.07614e-05
0.0137649
1.72283e-05
0.0152498
2.84223e-05
0.0158396
3.38351e-05
0.0155032
3.40049e-05
0.0142848
3.73683e-05
0.0123455
3.57924e-05
0.009885
3.19644e-05
0.00711604
2.14152e-05
0.00422872
8.14983e-06
0.00136804
0.00565367
3.16966e-06
-4.60803e-07
-0.00159761
0.00160042
1.06134e-06
5.57099e-07
-0.000778771
0.0007791
4.25957e-08
-1.27656e-07
1.01592e-07
7.61269e-08
-8.1956e-05
8.21525e-05
-8.20545e-05
8.1892e-05
5.13552e-06
0.00875834
1.27536e-05
0.0115312
2.05049e-05
0.0137615
2.80144e-05
0.0152502
3.13697e-05
0.015842
4.35093e-05
0.0154937
4.82274e-05
0.0142739
4.97676e-05
0.0123315
4.40716e-05
0.00987288
3.72221e-05
0.00710022
2.41813e-05
0.00421268
9.24633e-06
0.00135879
0.00565506
3.17955e-06
5.52599e-07
-0.00159994
0.00160201
1.07928e-06
1.32932e-08
-0.00077951
0.000780591
5.67298e-08
-1.02958e-07
7.30335e-08
6.09473e-08
-8.21985e-05
8.2236e-05
-8.23282e-05
8.22521e-05
9.46581e-06
0.00876165
1.75984e-05
0.0115341
2.28673e-05
0.0137667
3.66862e-05
0.0152449
4.60221e-05
0.0158395
5.01125e-05
0.0154918
5.2048e-05
0.0142716
5.56307e-05
0.0123199
5.26006e-05
0.0098575
4.31868e-05
0.00708121
2.83472e-05
0.00419358
1.02893e-05
0.00134849
0.00566062
3.24898e-06
6.16968e-07
-0.00160171
0.00160409
7.76106e-07
8.41187e-07
-0.000780451
0.00078146
-4.98687e-08
1.04109e-07
7.62139e-08
7.17734e-08
-8.22615e-05
8.23139e-05
-8.23673e-05
8.23063e-05
1.06522e-05
0.00876852
1.88827e-05
0.0115381
3.20886e-05
0.0137713
3.98234e-05
0.015251
4.8258e-05
0.0158414
5.78565e-05
0.015486
6.46137e-05
0.0142626
6.34823e-05
0.0123091
6.09766e-05
0.00983971
4.77742e-05
0.00706178
3.18959e-05
0.00417197
1.18464e-05
0.00133664
0.00566607
3.40348e-06
1.79306e-06
-0.00160384
0.00160627
8.02669e-07
8.64487e-07
-0.000782137
0.000782762
5.98746e-08
7.65551e-08
7.96668e-08
7.65438e-08
-8.25635e-05
8.25108e-05
-8.24607e-05
8.23889e-05
1.25607e-05
0.00877487
2.32141e-05
0.011547
3.32514e-05
0.0137778
4.64276e-05
0.0152529
5.95067e-05
0.0158397
6.68051e-05
0.0154838
7.47172e-05
0.0142514
7.38972e-05
0.0122961
6.95471e-05
0.00981793
5.72989e-05
0.00703637
3.49851e-05
0.00414883
1.30646e-05
0.00132358
0.00567438
3.39214e-06
8.19864e-07
-0.00160716
0.00160959
9.50358e-07
8.9444e-07
-0.000783677
0.00078433
6.38067e-08
7.40698e-08
-1.07412e-07
5.40028e-08
-8.27401e-05
8.27973e-05
-8.26653e-05
8.25887e-05
1.37415e-05
0.00878427
2.51361e-05
0.011555
3.95241e-05
0.0137847
5.15468e-05
0.0152608
6.65491e-05
0.01584
7.71106e-05
0.0154814
8.26528e-05
0.0142427
8.9014e-05
0.0122767
8.02489e-05
0.00979498
6.47866e-05
0.00700657
4.10175e-05
0.00412088
1.38464e-05
0.00130973
0.00568279
3.43083e-06
1.90333e-06
-0.00160949
0.00161197
8.90868e-07
9.21789e-07
-0.000785009
0.000785912
1.01383e-07
-6.78639e-08
8.09518e-08
1.28339e-07
-8.28166e-05
8.28781e-05
-8.27432e-05
8.26892e-05
1.37731e-05
0.00879567
2.77892e-05
0.0115668
4.58493e-05
0.0137904
6.39264e-05
0.0152635
7.76419e-05
0.0158394
9.14794e-05
0.0154726
9.94953e-05
0.0142322
9.90996e-05
0.0122578
9.21694e-05
0.00976759
7.18148e-05
0.00697578
4.45106e-05
0.00409022
1.30841e-05
0.00129665
0.00569276
3.04161e-06
7.31035e-07
-0.00161294
0.00161545
8.97258e-07
9.3098e-07
-0.000786673
0.000787595
5.63655e-08
-9.93592e-08
8.36089e-08
7.42703e-08
-8.30163e-05
8.3115e-05
-8.30858e-05
8.29574e-05
1.50671e-05
0.00880833
3.19032e-05
0.0115807
5.0861e-05
0.0138035
7.10656e-05
0.01527
8.75158e-05
0.0158434
0.000101224
0.0154709
0.000113182
0.0142181
0.000109713
0.0122403
0.000102932
0.00973648
8.24361e-05
0.00693785
4.87618e-05
0.00405453
1.69586e-05
0.00127968
0.00570522
1.3659e-06
1.25007e-06
-0.00161536
0.0016178
5.8793e-07
8.19694e-07
-0.000788369
0.000789288
-1.07319e-07
7.29518e-08
8.01538e-08
7.06651e-08
-8.3172e-05
8.32258e-05
-8.32721e-05
8.31978e-05
1.82518e-05
0.00882203
3.66917e-05
0.0115949
6.06743e-05
0.0138139
7.84923e-05
0.0152791
0.000100439
0.0158442
0.000116793
0.0154673
0.000126662
0.0142011
0.000129787
0.0122134
0.000116452
0.00970246
9.03932e-05
0.00689622
5.17259e-05
0.00401976
3.70328e-05
0.00124264
0.00571821
2.8091e-06
2.43885e-06
-0.00161906
0.00162218
-1.76291e-06
-1.62947e-08
-0.000789951
0.00079031
1.19345e-07
1.03127e-07
7.45804e-08
7.96872e-08
-8.34463e-05
8.33365e-05
-8.3375e-05
8.33043e-05
2.20802e-05
0.00883657
4.38281e-05
0.0116117
6.5183e-05
0.0138272
9.21379e-05
0.0152874
0.000115372
0.0158456
0.000134548
0.0154594
0.000144497
0.0141864
0.000140881
0.012189
0.00013071
0.00966214
9.84619e-05
0.00684948
8.56791e-05
0.00397111
7.97701e-05
0.00573018
5.66135e-06
4.47505e-06
-0.0016282
0.00162596
-1.50837e-06
6.56063e-06
-3.57236e-06
-0.000790375
0.000788585
1.60446e-08
6.27344e-09
4.5618e-08
-1.32329e-07
-8.35929e-05
8.37102e-05
-8.34903e-05
8.34106e-05
2.68289e-05
0.00885361
4.65751e-05
0.0116303
7.41527e-05
0.0138452
0.000100549
0.0153022
0.000127368
0.0158528
0.000148239
0.0154556
0.000160999
0.0141663
0.000162433
0.0121573
0.000142028
0.00961857
0.000130544
0.00680461
0.000148909
0.00574553
5.80812e-06
5.65096e-06
-0.00162903
0.00163092
2.34424e-06
1.42653e-06
1.97082e-06
-5.61171e-07
-0.000490259
0.00049563
-6.87846e-06
-0.000464902
-1.8794e-05
0.000320325
1.65732e-08
-2.27307e-07
-8.36272e-05
8.36417e-05
-8.36222e-05
8.37545e-05
2.69404e-05
0.00887317
5.43877e-05
0.0116501
8.36243e-05
0.0138621
0.0001193
0.0153102
0.000149436
0.0158516
0.000170717
0.0154459
0.000182071
0.0141467
0.00017946
0.0121198
0.00017353
0.00957558
0.000197583
0.00576278
4.76919e-06
4.9443e-06
-0.00163336
0.00163683
1.48841e-06
8.53388e-07
1.89815e-06
1.3131e-06
-0.000501041
0.000502151
1.2311e-06
-0.000500175
5.60368e-07
-0.000497468
-7.38337e-07
-2.40043e-06
-0.000298433
0.000292908
-1.35115e-06
3.09943e-06
8.36593e-05
8.3433e-05
3.08355e-05
0.00889676
6.00942e-05
0.0116736
9.59957e-05
0.0138854
0.000131085
0.0153286
0.000162742
0.0158596
0.000190279
0.0154377
0.000197789
0.0141283
0.000207849
0.0120855
0.000232602
0.00578196
5.34752e-06
6.29056e-06
-0.00163963
0.0016425
1.1474e-06
7.62624e-07
1.42514e-06
7.17277e-07
-0.000504474
0.000505116
8.43601e-07
-0.000503878
2.58464e-07
-0.000502794
8.10864e-07
6.68674e-07
-0.000291715
0.000292847
9.89502e-08
-0.00029121
5.14395e-08
-0.000291574
-3.76128e-07
-1.06638e-06
-8.65324e-05
8.5182e-05
3.42496e-05
0.00892253
6.9664e-05
0.0116999
0.000109555
0.0139069
0.000151238
0.0153401
0.000185668
0.0158642
0.000205211
0.0154303
0.000230797
0.0141054
0.000253437
0.00580337
5.9497e-06
6.91129e-06
-0.00164665
0.00164985
1.28655e-06
8.7572e-07
1.25519e-06
8.82019e-07
-0.000506618
0.000507168
5.96644e-07
-0.000506314
4.58895e-07
-0.000505138
2.46774e-07
6.94658e-07
-0.000293866
0.000294533
1.76555e-07
-0.000293804
1.93781e-07
-0.000293248
2.53066e-07
2.6594e-07
-8.37901e-05
8.38876e-05
-8.37394e-05
-8.41156e-05
4.10805e-05
0.00895115
7.78207e-05
0.0117317
0.000124501
0.0139337
0.000167662
0.0153581
0.000199592
0.0158698
0.000236362
0.0154247
0.000261279
0.00583094
6.8014e-06
6.68825e-06
-0.00165439
0.00165802
1.34986e-06
9.81063e-07
1.37156e-06
9.91853e-07
-0.000508778
0.000509785
2.79179e-07
-0.000508431
5.29938e-07
-0.000507675
4.98522e-07
3.74164e-07
-0.000295675
0.00029614
1.32964e-07
-0.000295345
1.27078e-07
-0.000295061
-3.8579e-08
1.66014e-07
-8.45991e-05
8.47746e-05
-8.44061e-05
-8.41535e-05
4.48257e-05
0.00898408
9.22572e-05
0.0117639
0.000142507
0.0139588
0.000184521
0.0153732
0.000226418
0.0158798
0.000252663
0.00585948
7.61361e-06
8.68549e-06
-0.00166192
0.00166629
1.51093e-06
9.24067e-07
1.69025e-06
1.10089e-06
-0.00051157
0.000512232
6.87254e-07
-0.00051074
1.52597e-07
-0.000509931
5.60671e-07
8.45294e-07
-0.000297296
0.000297419
1.57614e-07
-0.000296738
-2.94505e-08
-0.000296381
1.40946e-07
1.32932e-07
-8.50284e-05
8.5161e-05
-8.49018e-05
-8.49406e-05
5.39088e-05
0.00902246
0.000105532
0.0118009
0.000155985
0.0139874
0.000202228
0.0153974
0.000229853
0.0058939
9.10584e-06
1.03633e-05
-0.00167179
0.00167649
1.75329e-06
1.15919e-06
1.87978e-06
1.30934e-06
-0.000514289
0.000515029
7.70866e-07
-0.000513956
5.93332e-07
-0.000512476
2.10195e-07
8.55812e-07
-0.00029847
0.0002992
-4.09107e-08
-0.000298458
1.38814e-07
-0.000298063
1.64411e-07
2.01216e-07
-8.54052e-05
8.55623e-05
-8.54349e-05
-8.52939e-05
6.46768e-05
0.00906328
0.000124377
0.0118325
0.000171857
0.0140178
0.000192333
0.00593509
1.16772e-05
1.18138e-05
-0.00168314
0.00168881
2.00301e-06
1.44149e-06
2.15272e-06
1.56302e-06
-0.000517411
0.000518543
6.19933e-07
-0.000516966
7.15808e-07
-0.000515784
6.95998e-07
5.54513e-07
-0.00030034
0.000301117
-3.98417e-09
-0.000299963
2.14476e-07
-0.000299898
1.45715e-07
1.57344e-07
-8.60664e-05
8.60251e-05
-8.59279e-05
-8.57635e-05
8.19753e-05
0.0091057
0.000133774
0.0118706
0.000149123
0.00598377
1.72041e-05
1.60795e-05
-0.00169628
0.00170391
1.75318e-06
2.29315e-06
1.89637e-06
2.43875e-06
-0.000521453
0.000522352
1.10267e-06
-0.00052045
4.38555e-07
-0.000519138
8.39418e-07
9.68045e-07
-0.000302525
0.000302937
2.08388e-07
-0.000302007
1.9691e-07
-0.000301498
1.86577e-07
1.73973e-07
-8.65427e-05
8.65386e-05
-8.63283e-05
-8.61825e-05
9.81685e-05
0.00914128
0.000102798
0.00603106
2.81621e-05
2.26924e-05
-0.0017141
0.0017239
3.9916e-06
3.40088e-06
2.93127e-06
2.95824e-06
-0.000526375
0.000526909
1.2159e-06
-0.000525054
9.70663e-07
-0.000523704
5.45355e-07
1.08625e-06
-0.000304668
0.000305548
2.23579e-07
-0.000304441
2.09272e-07
-0.000303654
5.22985e-08
2.5095e-07
-8.7096e-05
8.7304e-05
-8.68993e-05
-8.67126e-05
6.82066e-05
2.41797e-05
4.96415e-05
-0.00173688
0.00175041
8.66559e-06
5.944e-06
4.90827e-06
4.80828e-06
-0.00053264
0.000534428
2.20094e-06
-0.000530698
1.45678e-06
-0.000528591
8.22564e-07
1.27538e-06
-0.000307608
0.000308582
2.40388e-07
-0.000306701
6.24505e-08
-0.000306395
2.38409e-07
2.38188e-07
-8.78162e-05
8.80391e-05
-8.76073e-05
-8.7555e-05
-0.0017712
1.21548e-05
2.44549e-05
1.70402e-05
1.18119e-05
-0.000542481
0.000546801
4.3408e-06
-0.000539481
2.94167e-06
-0.000537202
2.62657e-06
2.03397e-06
-0.000311223
0.000312979
4.42791e-07
-0.00031012
3.52191e-07
-0.000309587
2.8795e-07
2.69155e-07
-8.85776e-05
8.88169e-05
-8.85155e-05
-8.82773e-05
-0.000563225
1.60835e-05
-0.000556087
1.73118e-05
-0.000550748
1.16977e-05
7.86362e-06
-0.000318687
0.000321885
1.14035e-06
-0.000316457
7.09724e-07
-0.000314518
6.86423e-07
4.94658e-07
-8.9725e-05
9.0167e-05
-8.93734e-05
-8.9086e-05
-0.000340235
2.2622e-05
-0.000333916
1.09906e-05
-0.000327448
5.22797e-06
2.30011e-06
-9.2057e-05
9.31962e-05
-9.13477e-05
-9.06616e-05
-0.000111714
-0.000100724
-9.54963e-05
-2.9408e-05
2.94764e-05
1.36381e-05
-4.25006e-05
-0.000123975
0.000114971
3.86095e-05
3.32323e-05
-0.000142769
6.62933e-06
-4.86773e-05
3.34878e-05
8.13078e-05
-0.000244886
0.000238509
4.51978e-05
4.70887e-05
-0.000257928
1.87777e-05
-0.000154014
3.03462e-06
-5.11101e-05
4.22989e-05
0.000229627
1.38258e-05
6.73664e-05
-0.000863769
8.05943e-05
0.000872341
-2.35697e-05
7.60767e-05
-0.000866202
-0.000262371
1.09237e-05
-0.000160873
1.23436e-06
-5.18846e-05
2.61917e-05
0.000217414
4.05667e-06
6.35049e-05
-6.49371e-05
-0.0029326
0.00295073
0.0001317
-1.16037e-05
0.00084603
-1.91913e-05
2.32501e-05
-0.00285266
-1.81962e-05
-0.000862398
-2.98179e-06
-0.000269371
4.02028e-06
-0.000163021
-1.57093e-06
-5.01741e-05
0.000210082
2.13806e-06
6.18955e-05
-3.32824e-05
0.000191037
-0.0034766
0.00351165
9.9841e-05
-6.15408e-06
-4.17271e-06
-8.65576e-05
-0.00336238
1.24989e-05
-0.000117009
-0.00276953
2.91113e-05
-0.000859815
3.63197e-06
7.65715e-06
-0.000268329
-3.67934e-06
-0.000160847
-2.81956e-07
-4.97978e-05
0.00020629
1.64491e-06
6.0762e-05
0.000271447
-0.00310213
0.00316046
4.43227e-05
0.00020398
-0.000214307
-0.00297017
-0.000273508
-0.00320002
-0.00021838
4.83704e-05
-0.00261156
1.67904e-05
-0.000840283
4.30892e-06
5.88564e-06
-0.000268252
3.06326e-06
-0.00026334
-0.000157981
2.3959e-07
-4.97758e-05
2.99748e-07
0.000294013
-0.00189376
0.00199222
-5.18949e-05
-0.000363601
-0.00173909
-0.000461464
-0.00277702
-0.000446855
-0.00296807
-0.000810981
1.22604e-05
7.42315e-06
-0.000317997
4.8201e-05
-0.00237371
2.98821e-05
-0.000788618
-8.75811e-08
-5.60339e-06
-0.000259565
8.93926e-07
-0.00025526
1.558e-06
-0.00015677
5.069e-08
-4.97891e-05
0.000250843
0.000143955
1.77992e-05
-0.000210361
-0.00055514
0.000339703
-0.000660484