/*--------------------------------*- C++ -*----------------------------------*\
| =========                 |                                                 |
| \\      /  F ield         | OpenFOAM: The Open Source CFD Toolbox           |
|  \\    /   O peration     | Version:  v1912                                 |
|   \\  /    A nd           | Website:  www.openfoam.com                      |
|    \\/     M anipulation  |                                                 |
\*---------------------------------------------------------------------------*/
FoamFile
{
    version     2.0;
    format      ascii;
    class       volVectorField;
    location    "190";
    object      U;
}
// * * * * * * * * * * * * * * * * * * * * * * * * * * * * * * * * * * * * * //

dimensions      [0 1 -1 0 0 0 0];


internalField   nonuniform List<vector> 
3754
(
(0.0488232 -0.0206622 0)
(0.149947 -0.0617707 -2.09999e-23)
(0.0483223 -0.0204571 9.76334e-24)
(0.252413 -0.101935 0)
(0.148442 -0.0611603 1.03313e-23)
(0.0478436 -0.0202544 -9.82183e-24)
(0.351997 -0.139346 7.40381e-21)
(0.249924 -0.100936 8.09114e-24)
(0.146991 -0.0605643 9.98159e-21)
(0.04738 -0.0200563 0)
(0.442377 -0.171658 -6.50906e-21)
(0.348547 -0.137976 7.11789e-21)
(0.247486 -0.0999524 -8.17591e-21)
(0.145554 -0.0599743 -9.25324e-24)
(0.0469151 -0.01986 0)
(0.515866 -0.196162 5.6671e-24)
(0.43801 -0.169944 -6.2671e-21)
(0.345149 -0.136631 0)
(0.245089 -0.0989925 2.96572e-25)
(0.144133 -0.0593895 9.27565e-24)
(0.0464658 -0.0196693 0)
(0.564744 -0.210366 -2.18892e-25)
(0.510671 -0.19415 -5.70174e-21)
(0.433705 -0.168271 -5.767e-24)
(0.341812 -0.135318 6.59818e-21)
(0.242709 -0.0980316 7.52412e-24)
(0.142748 -0.0588184 0)
(0.0460138 -0.019478 0)
(0.582931 -0.21261 5.29502e-24)
(0.558839 -0.20811 5.37021e-21)
(0.505566 -0.192198 0)
(0.429487 -0.166634 -5.80299e-21)
(0.338501 -0.134005 6.34935e-24)
(0.240362 -0.0970825 0)
(0.141373 -0.0582517 0)
(0.0455609 -0.0192863 0)
(0.567577 -0.202579 0)
(0.576458 -0.210169 -5.34672e-21)
(0.553048 -0.205929 0)
(0.500555 -0.190284 -1.00843e-23)
(0.425298 -0.165006 1.62449e-23)
(0.335215 -0.132704 0)
(0.238039 -0.0961458 0)
(0.139998 -0.0576843 0)
(0.0451186 -0.0190978 -7.70022e-24)
(0.519883 -0.18147 -6.13176e-24)
(0.560669 -0.200006 5.43651e-21)
(0.57011 -0.207821 0)
(0.547362 -0.203798 -4.98592e-21)
(0.495586 -0.188388 1.00941e-23)
(0.421143 -0.163391 -4.17161e-25)
(0.331968 -0.131419 0)
(0.235736 -0.0952125 0)
(0.138636 -0.0571224 0)
(0.0446887 -0.018918 7.73743e-24)
(0.444843 -0.151767 0)
(0.512647 -0.178805 0)
(0.553907 -0.197559 -5.24869e-21)
(0.563919 -0.205549 4.88612e-21)
(0.541765 -0.201699 -4.80787e-21)
(0.490667 -0.186509 0)
(0.417035 -0.161792 -1.02912e-23)
(0.328743 -0.130137 0)
(0.233457 -0.0942929 0)
(0.137312 -0.0565748 7.68908e-21)
(0.0442555 -0.0187382 0)
(0.349961 -0.116649 4.09293e-21)
(0.437286 -0.149006 -2.52415e-23)
(0.505602 -0.176329 5.58301e-21)
(0.547407 -0.195229 -2.00849e-23)
(0.557882 -0.203325 4.69529e-21)
(0.536243 -0.199628 0)
(0.485803 -0.184649 0)
(0.412952 -0.160203 0)
(0.325564 -0.128877 0)
(0.231207 -0.0933768 -6.25209e-21)
(0.135988 -0.0560319 -7.39794e-21)
(0.0438305 -0.0185584 0)
(0.243863 -0.0793974 -5.80984e-21)
(0.341886 -0.11375 3.91924e-24)
(0.430028 -0.14654 1.19359e-24)
(0.499006 -0.174021 0)
(0.541165 -0.192971 0)
(0.551974 -0.201151 1.81577e-23)
(0.530799 -0.197585 -4.46117e-21)
(0.48098 -0.182808 0)
(0.408922 -0.158632 4.77428e-21)
(0.322399 -0.127617 0)
(0.228981 -0.0924805 6.00875e-21)
(0.134698 -0.0554994 -3.40998e-24)
(0.0434106 -0.018379 0)
(0.163069 -0.0523375 2.02128e-21)
(0.234139 -0.0760819 2.301e-21)
(0.158918 -0.0509403 -2.00006e-21)
(0.334357 -0.111266 0)
(0.423587 -0.144339 -6.12962e-21)
(0.492846 -0.171835 5.31024e-21)
(0.535149 -0.1908 0)
(0.546188 -0.199021 4.37072e-21)
(0.525429 -0.195573 -8.19401e-24)
(0.476223 -0.18099 -8.7021e-21)
(0.40493 -0.15708 0)
(0.319299 -0.126389 -5.03311e-21)
(0.226799 -0.091595 1.18551e-25)
(0.133417 -0.0549704 3.41578e-24)
(0.0429985 -0.0182025 0)
(0.108057 -0.0342698 1.08964e-24)
(0.152629 -0.048471 -1.99348e-21)
(0.225891 -0.0733786 -1.02439e-21)
(0.146037 -0.0469421 -1.95781e-21)
(0.104374 -0.0331688 1.33452e-21)
(0.328348 -0.109216 7.15222e-21)
(0.417854 -0.142342 -5.90864e-21)
(0.48705 -0.169783 1.95161e-23)
(0.529326 -0.188699 0)
(0.540524 -0.196941 8.43289e-24)
(0.520145 -0.193594 4.1186e-21)
(0.471537 -0.179202 4.16301e-24)
(0.401008 -0.155551 4.4159e-21)
(0.316242 -0.125171 -2.31588e-24)
(0.224658 -0.0907278 2.75565e-24)
(0.13216 -0.0544478 0)
(0.0426149 -0.0180393 0)
(0.0664872 -0.0209438 6.22342e-22)
(0.0967971 -0.0301654 0)
(0.141426 -0.0452314 0)
(0.220853 -0.0715373 -2.29297e-21)
(0.138852 -0.0443614 3.79227e-21)
(0.0876139 -0.0279784 4.51281e-22)
(0.0628864 -0.0198393 2.20077e-24)
(0.0651354 -0.0206384 0)
(0.323472 -0.10754 -2.79095e-23)
(0.412659 -0.140538 8.20638e-25)
(0.481543 -0.167839 -7.25954e-25)
(0.523685 -0.186669 0)
(0.534977 -0.194903 0)
(0.514947 -0.191648 0)
(0.466923 -0.177437 0)
(0.397144 -0.154043 2.11228e-24)
(0.313255 -0.123984 2.31771e-24)
(0.222562 -0.089874 2.53066e-24)
(0.130966 -0.0539496 -6.27451e-21)
(0.0422211 -0.017874 0)
(0.0388504 -0.0121598 0)
(0.0590198 -0.018499 0)
(0.0522602 -0.0154898 -3.55324e-22)
(0.083274 -0.0263359 4.42766e-22)
(0.137042 -0.0435725 7.37039e-21)
(0.217432 -0.0703877 2.14224e-21)
(0.135924 -0.0432695 -3.66718e-21)
(0.0815652 -0.0256502 -2.14384e-21)
(0.0419033 -0.0134497 -5.81261e-22)
(0.0452936 -0.0143748 -1.98446e-23)
(0.0363485 -0.0114729 5.27716e-22)
(0.0380417 -0.0119725 -5.71346e-22)
(0.319266 -0.106121 0)
(0.407842 -0.138878 5.66071e-21)
(0.476283 -0.165987 -1.89076e-23)
(0.518197 -0.184697 0)
(0.529543 -0.192911 -3.75354e-24)
(0.509846 -0.189736 -3.82049e-21)
(0.462377 -0.175701 3.85865e-21)
(0.393366 -0.15257 -4.05955e-21)
(0.310331 -0.122817 -4.44688e-21)
(0.220531 -0.0890431 5.08738e-21)
(0.129783 -0.0534589 -6.01417e-21)
(0.0418464 -0.0177163 0)
(0.0125254 -0.0038967 0)
(0.033673 -0.0101856 5.42377e-22)
(0.0229888 -0.00550957 2.61204e-22)
(0.0400999 -0.0126053 -6.35743e-22)
(0.0392795 -0.0123309 9.38074e-24)
(0.0806121 -0.0253107 -4.22127e-21)
(0.134874 -0.0428751 -3.61141e-21)
(0.214662 -0.0695301 -2.0159e-21)
(0.134115 -0.0427318 -3.51741e-21)
(0.08001 -0.0251165 3.30416e-21)
(0.0387468 -0.01209 -4.51656e-24)
(0.0389623 -0.0121468 1.77011e-21)
(0.0138463 -0.00451338 4.02198e-22)
(0.015364 -0.00505442 0)
(0.0116299 -0.00373082 -3.94949e-22)
(0.0122894 -0.00383581 4.04494e-22)
(0.315486 -0.10486 -6.54387e-21)
(0.403294 -0.137316 -5.43935e-21)
(0.471206 -0.164206 -8.76951e-24)
(0.512856 -0.182781 -4.10114e-21)
(0.524219 -0.190957 3.75862e-21)
(0.504823 -0.187859 -3.6515e-21)
(0.457938 -0.174003 3.69706e-21)
(0.389677 -0.151127 7.96071e-24)
(0.307489 -0.121678 0)
(0.218557 -0.0882378 4.87546e-21)
(0.128647 -0.0529846 0)
(0.0414798 -0.017563 0)
(0.0108986 -0.0035343 -2.52409e-22)
(0.00638739 -0.00147816 -5.24222e-23)
(0.0128774 -0.00405451 4.27992e-22)
(0.0125412 -0.00391649 7.86674e-22)
(0.0385626 -0.0120081 1.1465e-21)
(0.0384598 -0.0120041 4.41957e-24)
(0.079524 -0.0249683 3.249e-21)
(0.133249 -0.0424119 0)
(0.212213 -0.0687652 -1.97984e-21)
(0.132626 -0.0422955 -2.96834e-23)
(0.0790873 -0.0248532 8.16852e-22)
(0.0383017 -0.0119434 -4.37902e-24)
(0.0383449 -0.0119412 -4.41209e-26)
(0.0123704 -0.0038382 7.71441e-22)
(0.0124355 -0.00386258 1.81475e-24)
(0.311962 -0.10369 1.27918e-20)
(0.398969 -0.135841 -1.03473e-23)
(0.466298 -0.162484 4.37895e-21)
(0.507634 -0.180907 3.9471e-21)
(0.518996 -0.189047 -1.73274e-24)
(0.499914 -0.186018 1.74871e-24)
(0.45359 -0.172337 7.09567e-21)
(0.386082 -0.149715 3.72808e-21)
(0.304731 -0.12057 0)
(0.216641 -0.0874497 0)
(0.127543 -0.0525276 2.62894e-24)
(0.0411113 -0.0174067 -5.42058e-21)
(0.0123197 -0.00382248 7.61573e-22)
(0.0122895 -0.00381914 7.55471e-22)
(0.0381751 -0.0118828 0)
(0.038096 -0.0118904 1.09845e-21)
(0.0786652 -0.0247292 -1.23436e-23)
(0.131841 -0.0419919 3.32838e-21)
(0.209931 -0.0680454 -1.12212e-20)
(0.131237 -0.0418684 -3.19445e-24)
(0.0782717 -0.0246154 3.1007e-21)
(0.0379529 -0.0118491 1.07683e-21)
(0.0380098 -0.0118396 -1.07868e-21)
(0.0122555 -0.00380202 -7.43596e-22)
(0.0122592 -0.00380584 7.48376e-22)
(0.308651 -0.102592 1.22959e-23)
(0.394799 -0.134412 0)
(0.46151 -0.160809 -4.20628e-21)
(0.502528 -0.179081 3.79392e-21)
(0.513881 -0.18717 1.73428e-24)
(0.495103 -0.184214 -6.73535e-21)
(0.449356 -0.170709 -3.39212e-21)
(0.382581 -0.148335 -1.70364e-24)
(0.302047 -0.119488 0)
(0.214792 -0.0866932 0)
(0.126455 -0.0520734 -5.13776e-24)
(0.0407797 -0.0172608 7.36825e-24)
(0.0122167 -0.00378607 7.37688e-22)
(0.012185 -0.00378428 -7.29204e-22)
(0.037829 -0.0117909 0)
(0.0377651 -0.0117917 4.12726e-24)
(0.0778738 -0.0244932 -3.0151e-24)
(0.130479 -0.0415688 3.2183e-21)
(0.207765 -0.0673448 3.66192e-21)
(0.129894 -0.0414505 3.17802e-21)
(0.077477 -0.0243751 -2.91944e-24)
(0.0375876 -0.011739 0)
(0.0376667 -0.011738 1.05262e-21)
(0.0121417 -0.00377184 -1.01961e-24)
(0.0121706 -0.00377351 -7.27478e-22)
(0.305438 -0.101524 -6.03582e-21)
(0.390745 -0.133033 -2.30903e-24)
(0.456846 -0.159178 -4.04137e-21)
(0.497513 -0.177282 0)
(0.508861 -0.185328 3.32176e-21)
(0.490402 -0.182446 0)
(0.44523 -0.169117 -3.17279e-24)
(0.379191 -0.146996 -3.40838e-21)
(0.299468 -0.118446 0)
(0.212996 -0.0859525 4.2166e-21)
(0.125404 -0.0516297 1.00114e-20)
(0.0404381 -0.0171208 0)
(0.0121201 -0.00376184 2.80865e-24)
(0.0120982 -0.00375695 7.10621e-22)
(0.0374594 -0.0116769 1.03742e-21)
(0.037399 -0.011681 0)
(0.077088 -0.0242474 2.92218e-24)
(0.129172 -0.0411534 -3.10416e-21)
(0.205639 -0.0666628 6.94835e-21)
(0.128604 -0.0410325 -3.06662e-21)
(0.0766995 -0.024137 7.37046e-22)
(0.0372257 -0.0116285 0)
(0.0373003 -0.0116292 0)
(0.0120252 -0.00373562 7.01397e-22)
(0.0120612 -0.00373929 -1.41313e-21)
(0.302345 -0.100502 0)
(0.386804 -0.131686 2.31286e-24)
(0.452263 -0.157573 -1.95594e-24)
(0.492593 -0.175517 -3.49814e-21)
(0.503939 -0.183519 3.22333e-21)
(0.485812 -0.180712 -3.10165e-21)
(0.441219 -0.167562 3.10475e-21)
(0.375921 -0.145694 0)
(0.296968 -0.117431 -3.55636e-21)
(0.211238 -0.0852267 -4.03676e-21)
(0.124386 -0.0512093 -2.38715e-24)
(0.0400928 -0.0169772 8.93757e-24)
(0.0119977 -0.00372258 -6.93994e-22)
(0.0119713 -0.00371915 6.90799e-22)
(0.0371086 -0.0115691 0)
(0.0370401 -0.0115631 0)
(0.0763088 -0.024004 7.24718e-22)
(0.1279 -0.0407506 -2.98359e-21)
(0.203611 -0.0660037 -1.70026e-21)
(0.127332 -0.040633 -3.97259e-23)
(0.07594 -0.0238933 2.73254e-24)
(0.036858 -0.0115139 0)
(0.0369234 -0.0115125 -9.81946e-22)
(0.0119192 -0.00370274 6.82163e-22)
(0.0119506 -0.00370665 -6.87219e-22)
(0.299326 -0.0994941 0)
(0.382933 -0.130365 4.52357e-21)
(0.447745 -0.15599 3.73138e-21)
(0.487745 -0.173777 -3.29478e-21)
(0.499112 -0.181737 -3.35883e-23)
(0.481334 -0.179013 0)
(0.437344 -0.166047 2.97292e-21)
(0.372755 -0.144428 0)
(0.294532 -0.11644 3.29322e-24)
(0.209531 -0.0845257 0)
(0.123373 -0.0507899 -4.50629e-21)
(0.0397717 -0.0168418 -4.46684e-21)
(0.0118901 -0.00368952 6.76013e-22)
(0.0118562 -0.00367961 6.71903e-22)
(0.0367267 -0.0114509 -9.64892e-22)
(0.0366503 -0.0114511 -3.73845e-24)
(0.0755805 -0.0237735 -2.73577e-24)
(0.12665 -0.0403513 2.93352e-21)
(0.201615 -0.065357 1.64047e-21)
(0.126112 -0.0402347 2.85213e-21)
(0.0752049 -0.0236669 2.71458e-21)
(0.0365005 -0.0113972 0)
(0.0365693 -0.0114019 3.74158e-24)
(0.0117946 -0.00366376 6.62177e-22)
(0.0118175 -0.0036659 -6.67338e-22)
(0.296353 -0.0985064 -5.24817e-21)
(0.379105 -0.129058 0)
(0.443291 -0.15443 0)
(0.482962 -0.172054 3.15723e-21)
(0.494376 -0.17998 -5.85997e-24)
(0.47698 -0.177344 -2.80671e-21)
(0.43358 -0.164567 -1.41196e-24)
(0.369676 -0.143195 0)
(0.292165 -0.115479 -1.60398e-24)
(0.207861 -0.0838422 3.63128e-21)
(0.122387 -0.0503821 8.55806e-21)
(0.0394498 -0.0167052 0)
(0.0117641 -0.00365028 0)
(0.0117342 -0.00364667 6.51673e-22)
(0.0363624 -0.0113365 0)
(0.0363028 -0.0113364 0)
(0.0748406 -0.0235378 -1.98865e-21)
(0.125444 -0.0399685 0)
(0.199646 -0.0647194 0)
(0.124897 -0.0398522 2.76284e-23)
(0.0744837 -0.0234348 1.32784e-21)
(0.0361486 -0.0112923 9.19636e-22)
(0.0362092 -0.011289 -3.58078e-24)
(0.0116787 -0.00362595 6.42986e-22)
(0.0117167 -0.00363461 -6.47513e-22)
(0.293415 -0.0975282 0)
(0.37532 -0.127762 7.88343e-24)
(0.438862 -0.152874 0)
(0.47823 -0.170341 0)
(0.489725 -0.178238 0)
(0.472731 -0.175705 -1.40672e-24)
(0.429927 -0.163125 2.69587e-21)
(0.366686 -0.141996 0)
(0.289847 -0.114542 -3.02846e-21)
(0.206225 -0.0831738 -3.43517e-21)
(0.121413 -0.0499751 -4.03685e-21)
(0.0391179 -0.0165657 -3.99246e-21)
(0.0116373 -0.00361157 6.36481e-22)
(0.0116181 -0.00360746 6.31895e-22)
(0.0360311 -0.0112324 -9.00347e-22)
(0.0359574 -0.0112273 -3.48618e-24)
(0.0741256 -0.0233148 -1.00259e-23)
(0.124239 -0.0395862 0)
(0.197708 -0.0640904 1.5289e-21)
(0.123714 -0.0394713 -2.67602e-21)
(0.0737702 -0.0232132 -2.52136e-21)
(0.0358 -0.0111799 -8.80561e-22)
(0.0358755 -0.0111901 -8.81414e-22)
(0.0115634 -0.00359281 1.76848e-24)
(0.0115956 -0.00359595 -6.28389e-22)
(0.290504 -0.0965547 9.40336e-24)
(0.371538 -0.126468 -7.89093e-24)
(0.434434 -0.151314 1.27511e-23)
(0.473525 -0.168623 -5.60239e-24)
(0.485156 -0.17651 -5.12286e-24)
(0.468596 -0.174095 -2.5489e-21)
(0.426369 -0.161717 0)
(0.363762 -0.140829 1.41835e-24)
(0.287583 -0.113628 0)
(0.204599 -0.0825049 3.25451e-21)
(0.120434 -0.0495673 2.9884e-23)
(0.0387861 -0.0164249 -1.47686e-23)
(0.0115433 -0.00358097 6.17752e-22)
(0.0115143 -0.0035737 0)
(0.0356686 -0.0111186 0)
(0.0356217 -0.0111201 0)
(0.0734337 -0.0230979 0)
(0.123074 -0.0392167 0)
(0.195789 -0.0634635 1.46008e-21)
(0.12255 -0.0390995 -2.54935e-21)
(0.0730702 -0.0229928 2.44325e-21)
(0.0354647 -0.0110768 8.53679e-22)
(0.0355321 -0.01108 0)
(0.0114582 -0.0035589 1.17375e-24)
(0.0114893 -0.00356733 6.07626e-22)
(0.287584 -0.0955783 -4.79141e-21)
(0.367708 -0.125154 -1.45419e-23)
(0.429959 -0.149726 -3.25012e-21)
(0.468838 -0.166892 -2.83392e-21)
(0.480658 -0.174786 5.11417e-24)
(0.464549 -0.172514 -2.3081e-24)
(0.422888 -0.160345 2.4065e-21)
(0.360898 -0.139688 0)
(0.285326 -0.112714 0)
(0.202971 -0.0818349 3.07451e-21)
(0.119452 -0.049156 3.57589e-21)
(0.0384625 -0.0162851 -3.53457e-21)
(0.0114185 -0.0035424 5.96498e-22)
(0.0114006 -0.00353811 -5.94008e-22)
(0.0353555 -0.0110189 0)
(0.0352979 -0.0110227 0)
(0.0727439 -0.0228822 -9.33344e-24)
(0.12191 -0.0388404 9.69374e-24)
(0.193878 -0.0628397 4.10642e-21)
(0.121391 -0.0387269 -4.93669e-21)
(0.0723955 -0.0227809 6.0874e-22)
(0.0351292 -0.0109707 8.20282e-22)
(0.0352034 -0.0109815 3.21942e-24)
(0.0113508 -0.00352542 3.92029e-24)
(0.0113747 -0.0035296 5.8871e-22)
(0.284618 -0.0945873 -9.0468e-24)
(0.363779 -0.123803 3.61874e-21)
(0.42541 -0.148091 3.03258e-21)
(0.464134 -0.165123 -2.72114e-21)
(0.476216 -0.173074 1.15414e-24)
(0.460577 -0.170969 2.30433e-24)
(0.419474 -0.159006 -4.32302e-24)
(0.358053 -0.138557 8.97083e-24)
(0.283073 -0.111801 0)
(0.201342 -0.0811623 -2.61212e-23)
(0.118466 -0.048739 -1.27714e-23)
(0.0381254 -0.0161421 3.30984e-21)
(0.011328 -0.00351193 -5.82394e-22)
(0.0112976 -0.00350922 5.74316e-22)
(0.0350132 -0.0109128 -8.14529e-22)
(0.0349644 -0.0109195 3.12655e-24)
(0.0720646 -0.022664 0)
(0.120777 -0.0384802 2.41943e-21)
(0.191944 -0.0622059 -1.37497e-21)
(0.120258 -0.0383626 2.36216e-21)
(0.0717139 -0.0225632 2.27002e-21)
(0.0348066 -0.0108716 0)
(0.034875 -0.0108795 -7.96789e-22)
(0.0112492 -0.0034924 1.75576e-24)
(0.0112789 -0.00350298 5.69532e-22)
(0.281526 -0.0935532 1.66919e-23)
(0.359658 -0.122371 3.55734e-21)
(0.420707 -0.146369 2.90627e-21)
(0.459405 -0.163322 0)
(0.471825 -0.171386 -1.1522e-24)
(0.456675 -0.169466 0)
(0.416096 -0.157688 1.24854e-23)
(0.355211 -0.137425 -1.74167e-23)
(0.280816 -0.110885 -2.41889e-21)
(0.199715 -0.0804865 1.01929e-23)
(0.117464 -0.0483147 8.5029e-25)
(0.0377842 -0.0160005 -3.10256e-21)
(0.0112076 -0.00347476 5.58906e-22)
(0.0111845 -0.0034749 5.55427e-22)
(0.0347091 -0.0108171 3.0401e-24)
(0.0346494 -0.0108191 -1.53664e-24)
(0.071406 -0.0224584 -2.23378e-21)
(0.119644 -0.0381165 2.29187e-21)
(0.189934 -0.0615469 -1.3072e-21)
(0.119119 -0.0379927 0)
(0.0710626 -0.0223594 1.08167e-23)
(0.034487 -0.0107691 0)
(0.0345457 -0.0107704 -1.5078e-24)
(0.0111473 -0.00346183 5.48286e-22)
(0.011168 -0.00346857 0)
(0.278159 -0.0924287 9.83133e-23)
(0.355235 -0.120811 -3.4256e-21)
(0.415822 -0.144533 -2.86958e-21)
(0.45466 -0.161518 0)
(0.467498 -0.16975 -8.21177e-24)
(0.452829 -0.167994 0)
(0.412735 -0.156373 -8.16303e-24)
(0.352376 -0.136292 8.4469e-24)
(0.278566 -0.109964 2.27014e-21)
(0.19806 -0.0797959 -1.01977e-23)
(0.116462 -0.0478919 2.30408e-23)
(0.0374306 -0.015853 0)
(0.0111175 -0.00344609 -1.0649e-24)
(0.0110921 -0.00344477 5.36253e-22)
(0.0343909 -0.0107229 0)
(0.0343296 -0.0107197 0)
(0.0707397 -0.022249 -5.4376e-22)
(0.11852 -0.0377538 2.24128e-21)
(0.187696 -0.0608246 -6.18561e-21)
(0.117956 -0.0376152 2.17827e-21)
(0.0704093 -0.02215 5.32704e-22)
(0.0341803 -0.010672 -1.43807e-24)
(0.0342446 -0.0106805 1.43709e-24)
(0.0110339 -0.00342548 -5.29366e-22)
(0.0110688 -0.00343386 5.34373e-22)
(0.274376 -0.0911546 4.02171e-21)
(0.350344 -0.119018 3.20638e-21)
(0.410762 -0.142622 -1.33746e-24)
(0.449962 -0.159781 2.29707e-21)
(0.463262 -0.168168 4.42196e-25)
(0.449032 -0.166539 0)
(0.40939 -0.15506 1.93061e-21)
(0.349545 -0.135152 -1.9692e-21)
(0.276294 -0.10903 -8.52643e-24)
(0.196404 -0.0791007 8.85151e-24)
(0.11544 -0.0474595 2.71421e-21)
(0.0370721 -0.0157002 5.00673e-24)
(0.0110118 -0.00341727 5.237e-22)
(0.010988 -0.00341364 5.19085e-22)
(0.0340751 -0.0106237 0)
(0.0340304 -0.010627 7.14961e-22)
(0.0700989 -0.0220422 -1.54018e-21)
(0.117299 -0.0373623 2.1142e-21)
(0.18503 -0.0599639 0)
(0.116637 -0.0371923 -2.12066e-21)
(0.069748 -0.0219412 0)
(0.0338734 -0.0105771 5.52926e-24)
(0.0339411 -0.0105824 -1.37036e-24)
(0.0109483 -0.0033975 -5.11731e-22)
(0.0109698 -0.00340502 5.14632e-22)
(0.269727 -0.0895388 1.95428e-21)
(0.344952 -0.116979 3.17489e-21)
(0.405704 -0.140801 -2.45565e-21)
(0.445422 -0.158132 -8.13708e-24)
(0.45913 -0.166619 7.77131e-24)
(0.445271 -0.16509 -1.81832e-21)
(0.406051 -0.153741 -7.25113e-24)
(0.346705 -0.134005 -1.85244e-21)
(0.274005 -0.108084 0)
(0.19473 -0.0783981 -2.20176e-21)
(0.114399 -0.0470158 -2.51528e-21)
(0.0367206 -0.0155503 -1.41768e-23)
(0.0109142 -0.00338684 0)
(0.0108993 -0.00338662 0)
(0.0337748 -0.0105295 1.36839e-24)
(0.0337189 -0.0105264 -6.89179e-22)
(0.0694165 -0.0218252 -4.90244e-22)
(0.115865 -0.03691 -2.07172e-21)
(0.181273 -0.058759 -2.89587e-21)
(0.114905 -0.0366492 1.5641e-23)
(0.0690405 -0.0217172 2.43305e-21)
(0.0335718 -0.0104796 0)
(0.0336413 -0.0104918 0)
(0.0108388 -0.00336466 -9.86507e-22)
(0.0108746 -0.0033729 4.97566e-22)
(0.263871 -0.0873441 -3.69536e-21)
(0.339461 -0.115064 -2.90556e-21)
(0.400932 -0.139128 2.3941e-21)
(0.441086 -0.156547 8.14955e-24)
(0.455091 -0.165096 1.86166e-21)
(0.441543 -0.163648 -1.74508e-21)
(0.402714 -0.152419 1.68361e-21)
(0.343841 -0.132844 6.49533e-24)
(0.271713 -0.107134 -1.82979e-21)
(0.193042 -0.0776853 2.02295e-21)
(0.113369 -0.0465739 2.3035e-21)
(0.0363519 -0.0153934 9.17962e-24)
(0.0108177 -0.00335695 4.88478e-22)
(0.0107956 -0.00335366 4.84025e-22)
(0.0334653 -0.0104331 6.66595e-22)
(0.0334157 -0.0104323 -1.2915e-24)
(0.0686591 -0.021578 1.92446e-21)
(0.113578 -0.0362678 1.94879e-21)
(0.174495 -0.056347 -1.73245e-23)
(0.111703 -0.0356577 -1.51672e-23)
(0.0681246 -0.0214353 4.61603e-22)
(0.0332804 -0.0103888 7.90541e-24)
(0.0333321 -0.0103942 -1.26809e-24)
(0.0107525 -0.00333563 0)
(0.0107819 -0.00334651 4.79655e-22)
(0.257636 -0.0852671 3.41038e-21)
(0.334531 -0.113401 -2.68131e-21)
(0.396568 -0.137571 -1.79466e-23)
(0.436943 -0.155016 -1.91272e-21)
(0.451134 -0.163599 1.71939e-21)
(0.437848 -0.162215 0)
(0.399384 -0.151095 -1.59169e-21)
(0.340989 -0.13168 1.59301e-21)
(0.26941 -0.106173 -1.68692e-21)
(0.191359 -0.0769671 -1.85889e-21)
(0.112319 -0.0461175 -2.09704e-21)
(0.0359706 -0.0152319 0)
(0.0107125 -0.00332433 4.71332e-22)
(0.010697 -0.00332372 4.67276e-22)
(0.0331924 -0.0103428 -1.26667e-24)
(0.0331234 -0.0103315 0)
(0.0674159 -0.0212348 -4.49964e-22)
(0.108329 -0.0345552 1.00404e-21)
(0.166316 -0.0538245 5.71229e-22)
(0.102791 -0.0324839 1.52237e-23)
(0.0662843 -0.0209175 -5.60029e-23)
(0.0329449 -0.0102855 -6.26959e-22)
(0.0330338 -0.0102992 6.34819e-22)
(0.0106601 -0.00330842 -9.19845e-22)
(0.0106848 -0.00331598 4.63278e-22)
(0.252625 -0.083591 -3.34546e-21)
(0.330339 -0.111933 0)
(0.39253 -0.136107 0)
(0.432959 -0.153542 -1.40013e-23)
(0.447258 -0.162128 -1.66936e-21)
(0.434192 -0.160791 3.06477e-21)
(0.396077 -0.149771 -5.97341e-24)
(0.338142 -0.130511 -1.0412e-23)
(0.267111 -0.105203 -1.56212e-21)
(0.189656 -0.0762335 1.69269e-21)
(0.11124 -0.0456502 1.88757e-21)
(0.035588 -0.0150717 3.26322e-24)
(0.0106406 -0.00329979 4.55402e-22)
(0.0106141 -0.00329282 4.51996e-22)
(0.0328091 -0.0102337 6.63939e-24)
(0.0326668 -0.0102051 -4.77532e-24)
(0.0640452 -0.0201792 -6.17687e-22)
(0.0964845 -0.0307309 -9.50301e-22)
(0.16149 -0.0520476 3.34446e-21)
(0.0929099 -0.0297203 -8.76914e-22)
(0.0568455 -0.0175788 0)
(0.0321697 -0.0100772 -3.03425e-22)
(0.0324981 -0.0101459 4.76336e-24)
(0.0105638 -0.00327917 4.44847e-22)
(0.010593 -0.0032854 -4.46211e-22)
(0.248924 -0.0822872 2.52243e-23)
(0.326684 -0.110629 0)
(0.388755 -0.134741 0)
(0.429118 -0.152118 1.73159e-21)
(0.443459 -0.16068 -1.52654e-21)
(0.430577 -0.159374 -3.78172e-25)
(0.392793 -0.148446 -3.01929e-23)
(0.335302 -0.129332 1.35412e-21)
(0.264809 -0.104225 5.24428e-24)
(0.187937 -0.0754918 -3.03079e-21)
(0.110166 -0.0451839 0)
(0.0351907 -0.0149039 -3.27083e-24)
(0.0105293 -0.00326724 2.66393e-24)
(0.0104897 -0.00325709 4.35557e-22)
(0.0316079 -0.00996549 -1.81021e-23)
(0.0304034 -0.00943366 -2.71917e-22)
(0.0478119 -0.0154397 -1.61321e-22)
(0.0911186 -0.0288481 8.4543e-22)
(0.158865 -0.0510612 -9.25309e-22)
(0.0901665 -0.0285152 1.34626e-23)
(0.0447715 -0.0141399 1.21459e-21)
(0.0188623 -0.00442338 0)
(0.0278111 -0.00826572 0)
(0.0103374 -0.00321397 6.3857e-22)
(0.0104518 -0.00323939 -4.32002e-22)
(0.245963 -0.0812515 -3.13538e-21)
(0.323381 -0.10946 0)
(0.385194 -0.133453 -7.4217e-24)
(0.425398 -0.150734 0)
(0.439735 -0.159253 0)
(0.42701 -0.157964 1.31034e-21)
(0.389523 -0.147117 1.29023e-21)
(0.332473 -0.12815 0)
(0.262499 -0.103236 1.26826e-21)
(0.186224 -0.0747443 -1.34505e-21)
(0.109072 -0.0447014 1.46257e-21)
(0.0347828 -0.0147353 0)
(0.0101468 -0.00318408 -4.21795e-22)
(0.00968263 -0.00310062 -1.93276e-22)
(0.0126463 -0.00396672 2.36571e-22)
(0.0112533 -0.00374386 0)
(0.0439643 -0.0137204 0)
(0.0894571 -0.0282208 -1.34559e-23)
(0.157029 -0.0504802 4.66023e-21)
(0.0890152 -0.0281322 1.65833e-21)
(0.0435446 -0.0135674 3.98048e-22)
(0.0102945 -0.00324211 -4.22769e-22)
(0.0105641 -0.00333637 2.1886e-22)
(0.00521437 -0.00117479 0)
(0.00901775 -0.00289609 -1.85429e-22)
(0.243409 -0.0803814 0)
(0.320345 -0.108392 -2.33374e-21)
(0.381796 -0.132221 1.44767e-23)
(0.421791 -0.149387 0)
(0.436083 -0.157844 1.40323e-21)
(0.423482 -0.156562 -1.21615e-21)
(0.386294 -0.14579 -4.35635e-24)
(0.329658 -0.126958 0)
(0.260205 -0.102238 1.12476e-21)
(0.184498 -0.0739809 -1.17477e-21)
(0.107951 -0.0442089 0)
(0.0343645 -0.0145591 0)
(0.0102547 -0.00318794 -4.21648e-22)
(0.0102116 -0.00317592 0)
(0.0432922 -0.0134904 1.26299e-23)
(0.0885311 -0.0279671 -1.38055e-25)
(0.155475 -0.0500165 -9.14034e-22)
(0.0881917 -0.027915 -1.59094e-21)
(0.0430956 -0.0134335 0)
(0.0101719 -0.00316328 6.95673e-25)
(0.0101833 -0.00315498 4.10452e-22)
(0.241123 -0.0796102 2.74299e-21)
(0.317497 -0.10739 2.2247e-21)
(0.378539 -0.131036 -7.05241e-24)
(0.418281 -0.148066 -1.43955e-21)
(0.432499 -0.156452 -1.31647e-21)
(0.420011 -0.155164 -1.18263e-21)
(0.383088 -0.144458 1.09656e-21)
(0.326861 -0.125759 -1.0382e-21)
(0.257903 -0.101227 -1.01066e-21)
(0.182744 -0.0732017 8.88216e-25)
(0.106819 -0.0437066 1.02267e-21)
(0.0339389 -0.0143784 0)
(0.0101568 -0.00314793 -7.7464e-25)
(0.0101486 -0.0031556 3.94909e-22)
(0.0429291 -0.013392 3.83172e-22)
(0.087769 -0.0277605 0)
(0.154097 -0.0495876 0)
(0.0874445 -0.0277041 1.51614e-21)
(0.0427626 -0.0133411 -1.4433e-24)
(0.0101177 -0.00314448 3.85997e-22)
(0.0101267 -0.00313854 3.90159e-22)
(0.239003 -0.0788934 -2.60382e-21)
(0.31479 -0.106436 0)
(0.375392 -0.129886 6.30627e-24)
(0.414859 -0.14677 1.34479e-21)
(0.428986 -0.155071 1.16201e-21)
(0.416582 -0.153769 -1.0293e-21)
(0.379918 -0.143122 1.93755e-21)
(0.324078 -0.12455 8.8612e-22)
(0.255599 -0.100204 0)
(0.180978 -0.0724084 -8.21903e-22)
(0.105661 -0.0431871 0)
(0.0334944 -0.0141919 0)
(0.0100978 -0.00313118 -7.4915e-25)
(0.0100968 -0.00313813 6.34654e-25)
(0.042607 -0.0133007 -1.38054e-24)
(0.0870364 -0.0275422 -1.50483e-21)
(0.152809 -0.0491742 1.6849e-21)
(0.0867477 -0.0274841 0)
(0.0424242 -0.0132503 2.82878e-24)
(0.0100581 -0.00312379 7.28243e-25)
(0.0100733 -0.00312073 3.73983e-22)
(0.236995 -0.0782128 -1.0224e-23)
(0.312193 -0.105518 -7.45387e-24)
(0.372345 -0.128765 -3.52325e-25)
(0.411522 -0.145492 -1.33696e-21)
(0.425536 -0.153699 0)
(0.413208 -0.152375 -9.44405e-22)
(0.376782 -0.14178 0)
(0.321309 -0.123329 -1.64114e-24)
(0.25329 -0.0991622 0)
(0.179194 -0.0715965 0)
(0.104479 -0.0426533 5.62507e-22)
(0.0330295 -0.0139993 -3.13332e-22)
(0.0100352 -0.00311111 3.66699e-22)
(0.0100306 -0.00311857 0)
(0.0422573 -0.0131977 1.3818e-21)
(0.086349 -0.0273223 -1.40985e-21)
(0.151566 -0.0487731 1.6059e-21)
(0.0860469 -0.0272604 -1.37474e-21)
(0.0420893 -0.0131444 -3.41951e-22)
(0.00998269 -0.003105 3.54012e-22)
(0.00999953 -0.00310184 3.60407e-22)
(0.235081 -0.0775614 -4.60959e-24)
(0.309702 -0.104631 1.91032e-21)
(0.369383 -0.127663 1.4325e-21)
(0.408266 -0.144231 1.26371e-21)
(0.422156 -0.152333 1.92787e-24)
(0.409878 -0.150976 1.63679e-24)
(0.373671 -0.140426 8.02033e-22)
(0.318545 -0.12209 0)
(0.250968 -0.0980985 2.38961e-25)
(0.177379 -0.0707612 -4.5134e-22)
(0.103259 -0.0421022 3.21154e-22)
(0.0325512 -0.0137995 5.27009e-26)
(0.00995567 -0.00308833 3.51747e-22)
(0.00994908 -0.00309356 3.48699e-22)
(0.0419267 -0.0130905 0)
(0.0856727 -0.0271097 -2.70639e-21)
(0.150379 -0.0483829 7.63726e-22)
(0.0853888 -0.0270528 -1.31323e-21)
(0.0417541 -0.0130357 -1.26413e-24)
(0.00990167 -0.00307905 3.42092e-22)
(0.00991688 -0.0030755 3.42116e-22)
(0.233248 -0.0769315 -2.23847e-21)
(0.30728 -0.103761 1.80545e-21)
(0.366515 -0.126585 -1.35088e-21)
(0.405086 -0.142978 -2.30026e-24)
(0.418837 -0.150969 -1.92782e-24)
(0.406599 -0.149574 -7.60318e-22)
(0.370589 -0.139061 0)
(0.315793 -0.120833 0)
(0.248626 -0.0970105 -2.39127e-25)
(0.175542 -0.0699065 -5.43849e-22)
(0.102004 -0.0415306 0)
(0.0320554 -0.0135951 -2.52143e-22)
(0.00987597 -0.00306297 3.37217e-22)
(0.00986837 -0.00306825 3.33751e-22)
(0.0415986 -0.0129879 1.26776e-21)
(0.0850243 -0.0269027 -1.2763e-24)
(0.149245 -0.0480064 -2.38168e-23)
(0.0847434 -0.0268448 -1.24983e-21)
(0.0414464 -0.0129453 0)
(0.00983323 -0.00305346 6.34816e-25)
(0.0098474 -0.00305258 -6.48751e-25)
(0.231468 -0.0763179 -2.12787e-21)
(0.304945 -0.102914 0)
(0.363726 -0.125518 1.35904e-21)
(0.40198 -0.141732 0)
(0.415582 -0.149605 0)
(0.403366 -0.148164 0)
(0.367531 -0.137678 6.09775e-22)
(0.313042 -0.119553 -4.62001e-22)
(0.246274 -0.0958973 2.39784e-22)
(0.173656 -0.0690202 -9.24241e-23)
(0.100715 -0.0409447 1.66673e-25)
(0.031536 -0.0133854 -1.96507e-25)
(0.00979771 -0.0030371 3.22249e-22)
(0.0097929 -0.00304467 3.1868e-22)
(0.0412912 -0.0128927 0)
(0.0843978 -0.0267011 2.45e-21)
(0.148139 -0.0476425 6.91469e-22)
(0.0841348 -0.0266426 -1.18933e-21)
(0.0411315 -0.0128466 1.15055e-24)
(0.00976284 -0.00303515 0)
(0.00976941 -0.00303074 3.16597e-22)
(0.229756 -0.0757235 -2.12014e-21)
(0.302681 -0.102079 -1.52855e-21)
(0.361009 -0.124458 2.34952e-24)
(0.398942 -0.140488 1.86308e-24)
(0.412387 -0.148239 0)
(0.400176 -0.146743 -5.76466e-22)
(0.364503 -0.136277 4.19367e-22)
(0.310281 -0.118241 0)
(0.243887 -0.0947511 7.73978e-23)
(0.171731 -0.0681069 0)
(0.0993712 -0.0403404 -4.72012e-25)
(0.0310082 -0.0131782 -2.00045e-24)
(0.00973023 -0.00301732 3.09079e-22)
(0.00971578 -0.00302126 3.05271e-22)
(0.0409967 -0.0127997 -1.15297e-21)
(0.0837866 -0.0265045 4.50499e-24)
(0.147078 -0.0472935 3.16107e-21)
(0.0835216 -0.0264504 -1.13514e-21)
(0.0408426 -0.0127498 0)
(0.00968426 -0.0030113 5.79349e-25)
(0.00969267 -0.00300676 3.02028e-22)
(0.228101 -0.0751447 0)
(0.300493 -0.101254 0)
(0.358369 -0.123402 -1.79659e-24)
(0.39598 -0.139249 9.65828e-22)
(0.409255 -0.146869 0)
(0.397034 -0.145306 0)
(0.361485 -0.134848 0)
(0.30751 -0.116897 4.57166e-26)
(0.241457 -0.0935681 0)
(0.169753 -0.0671657 0)
(0.097972 -0.0397294 3.05734e-25)
(0.0304827 -0.0129658 -1.18459e-21)
(0.00965982 -0.00299634 2.94457e-22)
(0.00965565 -0.00300104 2.9156e-22)
(0.0407026 -0.0127068 2.74572e-22)
(0.0831925 -0.026317 0)
(0.146049 -0.0469633 -6.19561e-22)
(0.0829418 -0.0262648 -1.07436e-21)
(0.0405495 -0.0126623 4.28459e-24)
(0.0096182 -0.00298847 0)
(0.0096311 -0.00298515 2.88998e-22)
(0.226514 -0.0745754 1.92154e-21)
(0.298379 -0.100428 0)
(0.355798 -0.122351 -1.04076e-21)
(0.39309 -0.138012 0)
(0.406184 -0.145488 0)
(0.39393 -0.143849 5.13466e-22)
(0.35848 -0.133388 9.45524e-26)
(0.30473 -0.11552 -4.57347e-26)
(0.238995 -0.09235 1.87287e-22)
(0.167701 -0.0661912 5.48599e-22)
(0.0965129 -0.0391393 0)
(0.0301052 -0.0126728 1.53882e-21)
(0.0095923 -0.00297462 0)
(0.00958864 -0.00298026 2.16193e-25)
(0.0404131 -0.0126171 0)
(0.0826101 -0.0261398 1.04268e-24)
(0.145053 -0.0466598 -2.27777e-21)
(0.0823538 -0.0260983 1.01986e-21)
(0.0402677 -0.012574 0)
(0.00954561 -0.00296817 2.72018e-22)
(0.0095599 -0.00296488 2.76187e-22)
(0.225004 -0.0739923 -8.52987e-25)
(0.29632 -0.0996024 0)
(0.353313 -0.121315 0)
(0.390275 -0.136772 0)
(0.403176 -0.144093 -5.05567e-22)
(0.390863 -0.142365 1.54789e-25)
(0.355491 -0.131895 -9.45796e-26)
(0.301926 -0.114098 -1.19252e-22)
(0.236464 -0.09109 -4.58268e-22)
(0.165605 -0.0652119 0)
(0.0949561 -0.0384969 0)
(0.0305085 -0.0124183 0)
(0.00952352 -0.00295405 0)
(0.00951671 -0.0029585 2.65632e-22)
(0.0401258 -0.0125294 0)
(0.0820301 -0.0260045 1.0081e-21)
(0.144226 -0.0462176 1.115e-24)
(0.0818083 -0.0260216 3.86672e-24)