/*--------------------------------*- C++ -*----------------------------------*\
| =========                 |                                                 |
| \\      /  F ield         | OpenFOAM: The Open Source CFD Toolbox           |
|  \\    /   O peration     | Version:  v1912                                 |
|   \\  /    A nd           | Website:  www.openfoam.com                      |
|    \\/     M anipulation  |                                                 |
\*---------------------------------------------------------------------------*/
FoamFile
{
    version     2.0;
    format      ascii;
    class       volVectorField;
    location    "150";
    object      U;
}
// * * * * * * * * * * * * * * * * * * * * * * * * * * * * * * * * * * * * * //

dimensions      [0 1 -1 0 0 0 0];


internalField   nonuniform List<vector> 
3673
(
(0.0769625 0.0260214 -7.17053e-22)
(0.231009 0.0765811 7.46607e-25)
(0.0764501 0.0258503 0)
(0.38264 0.124406 0)
(0.229566 0.0761088 -7.46933e-25)
(0.0759638 0.0256864 0)
(0.526815 0.168061 0)
(0.38035 0.12367 0)
(0.228153 0.0756429 0)
(0.0754793 0.025526 -5.40578e-22)
(0.656857 0.205703 0)
(0.523809 0.167104 0)
(0.378093 0.122942 0)
(0.226757 0.0751874 0)
(0.0750071 0.0253681 5.37301e-22)
(0.765147 0.235273 0)
(0.653192 0.204542 5.7369e-25)
(0.520809 0.166153 0)
(0.375877 0.122234 0)
(0.225399 0.0747402 -5.18614e-22)
(0.0745373 0.0252108 0)
(0.844267 0.254902 0)
(0.760905 0.233925 3.005e-22)
(0.649572 0.203402 -5.73153e-25)
(0.517857 0.165218 0)
(0.373671 0.121521 0)
(0.224033 0.0742867 0)
(0.0740653 0.0250546 0)
(0.887987 0.263184 -2.99696e-22)
(0.839461 0.253367 -2.81799e-22)
(0.756705 0.232603 0)
(0.645959 0.202267 2.73993e-22)
(0.514914 0.164284 0)
(0.371479 0.120811 -4.60732e-25)
(0.222667 0.0738375 0)
(0.0736006 0.0249003 -7.62273e-22)
(0.892102 0.259402 5.54701e-24)
(0.882563 0.261444 5.39202e-25)
(0.834686 0.251861 0)
(0.752523 0.231296 1.57347e-23)
(0.642372 0.201142 0)
(0.511963 0.163348 0)
(0.369283 0.120103 4.60675e-25)
(0.221314 0.0733906 3.86777e-22)
(0.0731321 0.024744 0)
(0.855109 0.243719 3.0129e-22)
(0.885973 0.257438 2.77978e-22)
(0.877166 0.25974 -2.69373e-22)
(0.829939 0.25038 -2.48317e-22)
(0.74833 0.22999 -4.56529e-25)
(0.63876 0.20001 0)
(0.509007 0.16241 0)
(0.367088 0.119391 -3.91688e-25)
(0.21994 0.0729373 0)
(0.0726679 0.0245885 0)
(0.778737 0.217298 6.10066e-25)
(0.848203 0.241518 -2.84232e-22)
(0.879861 0.255517 2.68386e-22)
(0.871804 0.258074 2.54552e-22)
(0.825184 0.248905 0)
(0.744137 0.228685 4.56242e-25)
(0.63513 0.19887 0)
(0.506045 0.161467 0)
(0.364893 0.118681 1.11331e-24)
(0.218589 0.0724898 0)
(0.0722077 0.0244323 0)
(0.667969 0.182248 -3.69313e-24)
(0.771028 0.214866 -2.6951e-22)
(0.841287 0.239372 -2.6466e-22)
(0.873816 0.25366 -2.22552e-24)
(0.866476 0.256433 9.62707e-25)
(0.820431 0.247433 -2.27695e-22)
(0.739912 0.227368 0)
(0.631489 0.197725 0)
(0.503083 0.160521 0)
(0.362676 0.117959 -1.05425e-24)
(0.217245 0.0720437 0)
(0.0717492 0.0242756 0)
(0.530495 0.141351 2.75143e-24)
(0.659473 0.179608 3.33619e-23)
(0.763211 0.212491 2.82583e-22)
(0.834507 0.237339 -5.2279e-22)
(0.867886 0.251857 1.94548e-24)
(0.86118 0.254801 2.2022e-22)
(0.815664 0.245955 0)
(0.735659 0.226041 0)
(0.627823 0.19657 -3.89491e-22)
(0.500099 0.159567 0)
(0.360493 0.11725 3.55918e-22)
(0.215911 0.0715969 3.30681e-22)
(0.0713006 0.0241277 0)
(0.375731 0.0975931 0)
(0.521192 0.138572 3.02691e-22)
(0.650628 0.176984 2.68063e-22)
(0.755678 0.210314 2.78644e-22)
(0.82799 0.235397 -2.47333e-22)
(0.862071 0.250084 -1.70378e-24)
(0.855905 0.253178 0)
(0.810876 0.244473 -7.42919e-25)
(0.731401 0.224714 3.54854e-22)
(0.624165 0.195418 0)
(0.497138 0.158619 -3.02047e-22)
(0.358329 0.116539 -2.69269e-22)
(0.214588 0.0711556 0)
(0.0708459 0.0239777 0)
(0.365483 0.0948137 -6.13724e-23)
(0.250406 0.0639253 -2.22362e-24)
(0.253646 0.0648182 -1.44516e-22)
(0.510883 0.13562 -3.14767e-22)
(0.64234 0.174702 2.26948e-24)
(0.748709 0.208296 2.59591e-22)
(0.821764 0.233527 -1.73248e-24)
(0.856363 0.248343 1.70571e-24)
(0.850653 0.251563 1.48365e-24)
(0.806092 0.242993 1.43894e-24)
(0.727126 0.223381 -1.02614e-24)
(0.620499 0.194257 0)
(0.494183 0.157666 0)
(0.356166 0.115829 3.03438e-22)
(0.213279 0.0707189 0)
(0.0704006 0.0238278 0)
(0.351845 0.0911983 6.92742e-23)
(0.238055 0.0606407 1.01708e-22)
(0.245427 0.0627928 0)
(0.167061 0.0421384 2.30263e-24)
(0.169295 0.0426324 1.04237e-22)
(0.256006 0.0652978 0)
(0.501817 0.1332 -5.2878e-26)
(0.635151 0.172683 4.08883e-24)
(0.742271 0.206394 2.32609e-22)
(0.815761 0.23172 3.34767e-24)
(0.850743 0.246633 1.93343e-22)
(0.84543 0.24996 -1.85652e-22)
(0.801303 0.241512 -1.0224e-24)
(0.722862 0.222046 3.2715e-25)
(0.616851 0.193101 3.18132e-22)
(0.491269 0.156727 -2.57933e-22)
(0.354042 0.115131 -2.81089e-22)
(0.21197 0.0702826 -2.52142e-22)
(0.0699656 0.0236818 0)
(0.341759 0.0884199 4.93985e-24)
(0.219804 0.056165 -2.51118e-22)
(0.22804 0.0578375 8.17218e-23)
(0.155341 0.0391626 0)
(0.163311 0.0412417 2.43167e-23)
(0.103508 0.0258898 -3.94904e-23)
(0.104326 0.0260723 8.15608e-23)
(0.105288 0.0262706 3.3557e-25)
(0.170718 0.0429613 0)
(0.10489 0.0261624 4.18261e-23)
(0.494846 0.131248 2.92042e-22)
(0.628898 0.170868 -2.60051e-22)
(0.736261 0.204618 2.10459e-22)
(0.809962 0.229983 -2.02955e-22)
(0.845213 0.244954 4.2157e-24)
(0.840237 0.248369 0)
(0.796535 0.240036 3.25985e-25)
(0.718612 0.220717 -2.89324e-22)
(0.613228 0.19195 2.97924e-22)
(0.488362 0.155788 2.38951e-22)
(0.351948 0.114443 2.04941e-22)
(0.210705 0.0698583 -2.31763e-22)
(0.0695389 0.0235386 -2.68575e-22)
(0.335918 0.0866118 -3.36439e-22)
(0.211842 0.0537191 1.90903e-24)
(0.214657 0.0546067 0)
(0.131006 0.0330838 1.1644e-22)
(0.141133 0.0352135 -6.92657e-23)
(0.090921 0.0224545 2.4659e-24)
(0.0969071 0.0244783 -1.97099e-24)
(0.102316 0.0257011 0)
(0.100321 0.0251804 -1.77853e-25)
(0.0606383 0.0150592 5.50899e-25)
(0.0610957 0.0151445 -3.74128e-23)
(0.105656 0.0263479 -3.35653e-25)
(0.0615875 0.015251 3.71272e-23)
(0.105951 0.0264264 -4.45831e-23)
(0.0613623 0.0152008 0)
(0.489322 0.129666 -2.49685e-22)
(0.623276 0.169241 -2.33931e-22)
(0.730576 0.202949 0)
(0.804333 0.228301 3.71162e-22)
(0.839766 0.243305 -6.97233e-25)
(0.835084 0.246791 0)
(0.791791 0.238567 1.54046e-22)
(0.714392 0.219393 -2.70976e-22)
(0.609657 0.190812 -2.50459e-25)
(0.485526 0.154867 2.62858e-22)
(0.349868 0.113752 1.88776e-22)
(0.209463 0.0694407 -6.932e-23)
(0.0691162 0.0233971 0)
(0.332004 0.0855301 2.95415e-22)
(0.20856 0.0527155 -1.73008e-24)
(0.209846 0.0530778 -1.91162e-24)
(0.125363 0.0312881 1.6423e-24)
(0.127024 0.0318327 -2.80181e-23)
(0.0621274 0.0156759 3.67882e-23)
(0.0647653 0.0163823 -4.02795e-23)
(0.0798706 0.0188068 -7.03636e-24)
(0.070181 0.0179135 6.09754e-25)
(0.0516651 0.0121076 2.30716e-24)
(0.0562472 0.0140745 0)
(0.0599431 0.0149339 0)
(0.0586893 0.0146913 -3.44104e-23)
(0.0195773 0.00481708 -2.07247e-25)
(0.0196964 0.00484077 2.07352e-25)
(0.0617758 0.0153016 -3.78341e-23)
(0.0198377 0.00487436 -4.47691e-25)
(0.0619408 0.015336 4.08132e-23)
(0.0197888 0.00486695 -2.79052e-23)
(0.484615 0.128349 -2.29267e-22)
(0.618114 0.167764 2.01354e-22)
(0.725162 0.201366 -3.76461e-22)
(0.79886 0.22667 -1.69965e-22)
(0.834395 0.24168 -1.5851e-22)
(0.829973 0.245226 -2.99947e-22)
(0.787079 0.237106 -2.86643e-25)
(0.710216 0.218079 0)
(0.606127 0.18968 -2.31052e-22)
(0.482719 0.153949 0)
(0.347853 0.113084 1.73678e-22)
(0.208243 0.0690296 0)
(0.068704 0.0232588 9.11418e-23)
(0.328846 0.0847483 3.20056e-22)
(0.206536 0.0522595 1.63619e-24)
(0.207379 0.0524532 1.02868e-22)
(0.123657 0.0308234 2.38948e-23)
(0.124333 0.0310083 2.2945e-23)
(0.0599753 0.0148402 -3.23931e-23)
(0.0601709 0.0149043 -5.32415e-25)
(0.0610153 0.0151835 3.726e-23)
(0.0604446 0.0149994 -3.3827e-23)
(0.0200952 0.00506951 -2.96256e-23)
(0.0214979 0.00561731 4.26861e-23)
(0.0346657 0.00598075 -1.95093e-24)
(0.0237923 0.00626975 -1.04741e-23)
(0.0169019 0.0043354 -3.66183e-23)
(0.0181086 0.00463538 -2.53571e-23)
(0.0193892 0.0047834 -2.49926e-23)
(0.0190146 0.0047254 -2.52136e-23)
(0.0198872 0.00489007 2.10127e-25)
(0.0199338 0.00489829 3.04862e-23)
(0.480426 0.1272 -2.31535e-22)
(0.613287 0.166391 2.00915e-22)
(0.719953 0.199846 3.48733e-22)
(0.793493 0.225074 7.48616e-24)
(0.829088 0.240078 1.51103e-22)
(0.824909 0.243675 0)
(0.78242 0.235658 0)
(0.7061 0.216777 0)
(0.602653 0.188562 2.44035e-22)
(0.479977 0.153051 2.30852e-22)
(0.345881 0.112426 0)
(0.207052 0.0686262 0)
(0.0682983 0.0231232 0)
(0.326073 0.0840625 5.63057e-23)
(0.204833 0.0518752 -8.9321e-23)
(0.205568 0.052054 -5.34214e-24)
(0.122601 0.0305929 0)
(0.123085 0.0307061 -9.54665e-23)
(0.0594911 0.0147087 2.98431e-23)
(0.0595596 0.0147382 -3.11053e-23)
(0.0597871 0.0147919 3.10711e-23)
(0.0596697 0.0147674 -3.20404e-23)
(0.019246 0.00473108 4.57464e-23)
(0.0193057 0.0047529 -2.30285e-23)
(0.0195973 0.00485215 0)
(0.0193907 0.00477726 4.82507e-23)
(0.0096165 0.00153193 2.39598e-24)
(0.476578 0.126152 -1.66461e-24)
(0.608693 0.16509 -3.55095e-22)
(0.714899 0.198379 1.6772e-22)
(0.78823 0.223514 0)
(0.823846 0.238496 0)
(0.819897 0.242138 0)
(0.777816 0.234222 1.26314e-22)
(0.70204 0.215489 -1.01373e-22)
(0.599255 0.187462 -2.03078e-22)
(0.4773 0.152167 -2.16858e-22)
(0.343951 0.11178 2.0037e-22)
(0.205883 0.0682325 0)
(0.0679051 0.0229932 -7.70097e-23)
(0.323514 0.0834125 -5.04796e-23)
(0.203264 0.0514945 -8.63336e-23)
(0.203939 0.0516717 -8.37408e-23)
(0.121672 0.030387 1.02062e-22)
(0.122128 0.0304961 -8.63682e-23)
(0.0591021 0.0146217 0)
(0.0591701 0.0146512 -2.74394e-23)
(0.0593593 0.0146866 2.86024e-23)
(0.0592737 0.0146702 2.8193e-23)
(0.0191113 0.00469433 -2.23246e-25)
(0.0191269 0.00470541 -2.14953e-23)
(0.0191995 0.00471717 -2.63737e-25)
(0.0191496 0.00470947 2.18054e-23)
(0.472933 0.125164 1.96542e-22)
(0.604278 0.163849 -1.57383e-22)
(0.709961 0.196948 -1.44322e-22)
(0.783047 0.221978 1.35577e-22)
(0.818667 0.236933 1.29142e-22)
(0.814942 0.240615 9.03024e-25)
(0.773275 0.2328 -1.13233e-22)
(0.698063 0.214217 0)
(0.595935 0.18638 1.90733e-22)
(0.474702 0.151306 -1.69916e-22)
(0.342083 0.111152 -1.61499e-25)
(0.204757 0.0678508 0)
(0.067516 0.0228669 7.25657e-23)
(0.321081 0.082789 8.4234e-25)
(0.201767 0.0511221 6.83947e-24)
(0.20242 0.0512965 7.4176e-23)
(0.120765 0.0301675 1.71054e-23)
(0.121205 0.0302803 9.49863e-23)
(0.0586948 0.0145287 -2.47009e-23)
(0.0587679 0.0145598 -2.43387e-23)
(0.0589639 0.0145985 8.16299e-25)
(0.0588767 0.0145801 -1.00296e-24)
(0.0189967 0.00466671 1.87907e-23)
(0.019016 0.00467847 1.95579e-25)
(0.0190784 0.00468649 -2.06588e-23)
(0.0190359 0.00468056 -2.85914e-25)
(0.46944 0.124218 1.80175e-22)
(0.599987 0.16264 1.60087e-22)
(0.705119 0.195546 -1.45021e-22)
(0.777932 0.220464 -1.33745e-22)
(0.81354 0.235382 -3.56819e-24)
(0.810043 0.239104 1.14954e-22)
(0.768808 0.231391 0)
(0.694174 0.212963 0)
(0.592712 0.185319 -2.05424e-22)
(0.472154 0.150453 0)
(0.340244 0.11053 1.61398e-25)
(0.203638 0.0674723 -1.61934e-22)
(0.0671187 0.0227321 -7.35188e-23)
(0.318734 0.0821779 3.92067e-23)
(0.200309 0.0507547 -6.23366e-23)
(0.20094 0.0509244 6.55788e-23)
(0.119884 0.0299519 6.58518e-23)
(0.120321 0.0300635 -5.3153e-23)
(0.0582767 0.0144263 0)
(0.0583496 0.0144565 -4.35622e-23)
(0.0585505 0.0145008 0)
(0.058459 0.0144803 -1.01537e-24)
(0.0188679 0.00463615 1.26936e-25)
(0.0188918 0.00464857 1.75156e-23)
(0.0189609 0.00465869 3.64492e-23)
(0.0189164 0.00465185 -2.83471e-25)
(0.466058 0.123299 2.87609e-25)
(0.595787 0.16146 -1.30755e-22)
(0.70036 0.19417 1.2287e-22)
(0.772865 0.218962 -1.24367e-22)
(0.808455 0.233842 -1.15189e-22)
(0.805211 0.237603 -1.0695e-22)
(0.764428 0.229997 1.94362e-25)
(0.690373 0.211726 1.86976e-22)
(0.589559 0.184274 0)
(0.469686 0.149624 0)
(0.338462 0.109927 1.31448e-22)
(0.202524 0.0670931 0)
(0.0667333 0.0226019 -7.28954e-26)
(0.316451 0.0815804 -3.29886e-23)
(0.198884 0.0503882 -5.4887e-23)
(0.199506 0.0505585 -6.34965e-23)
(0.119021 0.029739 4.49645e-23)
(0.119452 0.0298475 -8.86918e-23)
(0.0578576 0.0143245 0)
(0.0579349 0.0143549 -1.86599e-23)
(0.0581348 0.0143988 -1.97251e-23)
(0.058045 0.0143788 -2.02439e-23)
(0.0187326 0.00460259 1.45288e-23)
(0.0187589 0.00461497 2.59323e-25)
(0.0188285 0.00462711 1.58018e-23)
(0.0187833 0.00462013 -3.14592e-23)
(0.462768 0.122404 2.2403e-23)
(0.591659 0.160298 -1.36597e-22)
(0.695636 0.192804 -2.24907e-25)
(0.76784 0.217473 0)
(0.803422 0.232309 1.06811e-22)
(0.800442 0.23611 0)
(0.760136 0.228618 9.61716e-23)
(0.686674 0.210512 -1.86183e-25)
(0.586489 0.183251 0)
(0.46726 0.148807 0)
(0.336679 0.109324 0)
(0.20143 0.066721 -1.60103e-22)
(0.0663731 0.0224765 0)
(0.314221 0.0809935 1.18843e-22)
(0.197492 0.0500334 5.4427e-23)
(0.198108 0.0501998 0)
(0.11818 0.0295258 3.98297e-23)
(0.1186 0.0296337 -1.21341e-23)
(0.0574504 0.0142237 0)
(0.0575212 0.0142541 1.70601e-23)
(0.0577179 0.0142961 1.04187e-24)
(0.0576274 0.0142763 3.42476e-23)
(0.0185968 0.00456965 1.2633e-23)
(0.0186242 0.00458194 2.6392e-25)
(0.0186937 0.00459415 2.81877e-23)
(0.0186486 0.00458723 0)
(0.459524 0.121518 0)
(0.587581 0.159151 0)
(0.690939 0.191445 1.86735e-26)
(0.762818 0.215977 1.93623e-25)
(0.798415 0.230772 3.9806e-25)
(0.795743 0.234623 -9.3491e-23)
(0.755934 0.227253 0)
(0.683058 0.209314 0)
(0.583489 0.182245 9.06596e-23)
(0.464883 0.148005 0)
(0.334923 0.108725 1.2986e-22)
(0.200341 0.0663407 1.31976e-25)
(0.0659795 0.0223421 -1.16306e-22)
(0.312045 0.0804186 0)
(0.196138 0.0496843 6.56673e-24)
(0.196738 0.0498479 0)
(0.117354 0.0293188 -9.60584e-24)
(0.117768 0.0294249 -2.08835e-23)
(0.0570446 0.0141228 0)
(0.0571163 0.0141518 8.0816e-25)
(0.0573112 0.0141954 1.57066e-23)
(0.0572233 0.0141747 1.43346e-23)
(0.0184674 0.0045376 0)
(0.0184918 0.0045505 0)
(0.0185584 0.00456101 2.45421e-23)
(0.0185118 0.00455434 -2.39196e-23)
(0.456332 0.120646 -1.02786e-22)
(0.583504 0.158002 0)
(0.686232 0.19008 9.42934e-23)
(0.7578 0.214476 -1.93548e-25)
(0.793441 0.229229 0)
(0.79111 0.233138 0)
(0.75182 0.225901 0)
(0.679528 0.208137 -8.23627e-23)
(0.580553 0.181256 0)
(0.462507 0.147197 0)
(0.333182 0.108124 0)
(0.199236 0.0659576 1.08197e-22)
(0.0655671 0.0222066 -2.23095e-22)
(0.309878 0.0798452 1.18763e-22)
(0.194805 0.0493418 3.5101e-23)
(0.195401 0.0495029 1.54725e-25)
(0.116549 0.0291154 3.03983e-23)
(0.116953 0.0292187 -8.74204e-24)
(0.056645 0.0140254 0)
(0.0567186 0.0140514 1.26254e-23)
(0.0569064 0.0140951 8.81717e-25)
(0.0568351 0.014079 9.75852e-25)
(0.0183346 0.00450508 0)
(0.0183603 0.0045174 2.53342e-25)
(0.018428 0.00452931 0)
(0.0183842 0.0045221 -2.76813e-25)
(0.453135 0.119773 -5.94183e-25)
(0.579407 0.156851 -1.04666e-22)
(0.681477 0.1887 0)
(0.752742 0.212947 0)
(0.788479 0.227669 3.06607e-25)
(0.78654 0.231653 0)
(0.747783 0.224565 0)
(0.676059 0.206976 1.62268e-25)
(0.577634 0.180271 -8.64376e-23)
(0.460158 0.146395 0)
(0.3314 0.107512 1.74865e-22)
(0.198113 0.0655724 1.17495e-22)
(0.0651546 0.0220659 1.08941e-22)
(0.307747 0.0792804 -2.00394e-23)
(0.193492 0.0490053 2.95495e-23)
(0.194084 0.0491642 -3.22759e-23)
(0.115758 0.0289165 -3.30225e-23)
(0.116158 0.0290173 -1.48194e-23)
(0.0562608 0.0139298 0)
(0.0563322 0.0139548 1.06937e-23)
(0.056514 0.013997 0)
(0.0564466 0.0139816 9.7095e-25)
(0.0182027 0.00447417 0)
(0.0182417 0.00448727 -8.28987e-24)
(0.0182954 0.00449733 2.95967e-25)
(0.0182551 0.00449049 8.97058e-24)
(0.449916 0.118894 3.81545e-25)
(0.575244 0.155679 0)
(0.676614 0.187276 5.86558e-25)
(0.747623 0.211378 0)
(0.783518 0.226083 -6.98692e-23)
(0.782023 0.23017 7.3563e-23)
(0.743814 0.223245 -1.55788e-25)
(0.672632 0.205828 7.86207e-23)
(0.574723 0.179284 -3.23574e-25)
(0.457789 0.145584 -1.47977e-22)
(0.32962 0.106895 0)
(0.19695 0.0651648 0)
(0.0647372 0.021925 -2.75609e-22)
(0.30561 0.0787108 -1.69906e-23)
(0.192194 0.0486665 -1.11267e-25)
(0.19278 0.0488263 5.97877e-23)
(0.11498 0.0287227 -3.34427e-23)
(0.115374 0.0288196 1.8161e-23)
(0.05588 0.0138356 0)
(0.0559508 0.0138598 0)
(0.0561305 0.0139007 9.11551e-25)
(0.0560622 0.0138857 9.52353e-25)
(0.018081 0.00444431 6.54001e-24)
(0.0181184 0.00445692 5.53951e-26)
(0.0181704 0.00446625 7.44403e-24)
(0.0181313 0.00445949 1.47592e-23)
(0.446623 0.117993 0)
(0.570917 0.154459 0)
(0.671588 0.185788 -6.37899e-23)
(0.742397 0.209745 1.32093e-22)
(0.778544 0.22447 -7.37654e-23)
(0.777551 0.228699 -7.10935e-23)
(0.739888 0.221942 -1.49222e-25)
(0.669211 0.204679 8.14816e-23)
(0.571803 0.178291 -8.4554e-23)
(0.455396 0.144755 0)
(0.327794 0.106255 0)
(0.195782 0.0647545 1.40932e-22)
(0.0643163 0.02178 1.41425e-22)
(0.30342 0.0781275 0)
(0.19092 0.0483315 -1.85996e-23)
(0.19151 0.0484953 2.7527e-23)
(0.114222 0.0285291 -4.34516e-24)
(0.114609 0.0286266 -3.02969e-23)
(0.0555115 0.0137456 0)
(0.0555779 0.0137682 7.25083e-24)
(0.0557557 0.0138078 7.95096e-24)
(0.0556884 0.0137923 7.76301e-24)
(0.0179568 0.00441399 5.25945e-24)
(0.0179946 0.00442641 0)
(0.0180469 0.00443561 1.24871e-23)
(0.0180061 0.00442876 6.25014e-24)
(0.44318 0.117059 -5.87656e-23)
(0.566333 0.153161 7.04274e-23)
(0.666311 0.184191 -6.43931e-23)
(0.737023 0.208033 0)
(0.773565 0.222852 7.14163e-23)
(0.773118 0.227246 0)
(0.735982 0.220648 -1.52455e-22)
(0.665793 0.203528 7.64366e-23)
(0.568859 0.17728 -8.46457e-23)
(0.45296 0.143905 0)
(0.325933 0.105597 0)
(0.194587 0.0643294 2.06112e-22)
(0.0638634 0.0216284 2.69392e-23)
(0.301156 0.0775267 5.68007e-23)
(0.189631 0.0479956 1.364e-23)
(0.190239 0.048163 0)
(0.113475 0.0283382 1.1398e-23)
(0.11385 0.0284319 -7.41089e-24)
(0.0551454 0.0136528 0)
(0.0552154 0.0136745 5.5933e-24)
(0.0553851 0.013717 6.37194e-24)
(0.05532 0.0137033 -5.43435e-24)
(0.0178407 0.00438551 4.11408e-24)
(0.0178743 0.00439738 3.58014e-26)
(0.0179269 0.00440634 4.88577e-24)
(0.017886 0.00439883 4.67052e-24)
(0.439429 0.116045 7.57822e-25)
(0.561306 0.151709 -4.08831e-23)
(0.660658 0.182436 0)
(0.731525 0.206271 4.71016e-23)
(0.768598 0.22125 -1.30317e-25)
(0.768723 0.225817 1.42339e-22)
(0.732087 0.219356 5.95462e-25)
(0.662346 0.202358 1.55376e-22)
(0.565878 0.176248 0)
(0.45047 0.14303 -3.49001e-25)
(0.32403 0.104922 -1.66597e-22)
(0.193351 0.0638921 4.90168e-23)
(0.0633856 0.0214677 2.11845e-22)
(0.298669 0.0768712 2.2928e-24)
(0.188332 0.0476521 0)
(0.188943 0.0478224 3.03122e-23)
(0.112738 0.0281503 -1.25992e-23)
(0.113108 0.028242 2.49405e-24)
(0.0547889 0.0135651 3.85931e-24)
(0.054861 0.0135861 4.07208e-24)
(0.055024 0.0136253 9.70377e-25)
(0.0549624 0.0136126 4.69091e-24)
(0.0177196 0.00435402 2.92323e-24)
(0.0177564 0.00436546 0)
(0.0178031 0.00437762 3.63355e-24)
(0.0177734 0.00437437 2.089e-25)
(0.435113 0.114875 4.66626e-23)
(0.555634 0.150023 -1.87299e-25)
(0.654646 0.180537 -5.06088e-23)
(0.725968 0.204515 4.88695e-23)
(0.763691 0.219696 -1.30225e-22)
(0.764373 0.224404 0)
(0.728187 0.218053 -7.28339e-23)
(0.658868 0.201168 0)
(0.562833 0.175185 0)
(0.44794 0.142133 3.48917e-25)
(0.322088 0.104228 -3.94334e-22)
(0.192064 0.0634343 -1.96519e-22)
(0.0628995 0.0213022 -2.15058e-22)
(0.29569 0.0761157 0)
(0.186894 0.0472773 9.40748e-24)
(0.187617 0.0474749 -1.31119e-23)
(0.111989 0.0279577 -1.57511e-24)
(0.112377 0.028054 -1.01785e-23)
(0.0544498 0.013479 2.34259e-24)
(0.0545159 0.0135003 -2.63533e-24)
(0.0546747 0.0135389 0)
(0.0546153 0.0135243 -3.20968e-24)
(0.0176033 0.00432633 1.81829e-24)
(0.0176413 0.00433711 0)
(0.0176846 0.00434803 5.41116e-24)
(0.0176568 0.0043453 -2.66558e-24)
(0.429836 0.11341 0)
(0.549098 0.147997 1.86772e-25)
(0.648397 0.178605 -5.28957e-23)
(0.720515 0.202849 6.39535e-23)
(0.758902 0.218185 -9.80995e-25)
(0.760065 0.222993 0)
(0.724276 0.216733 -1.11016e-24)
(0.655343 0.199951 6.06779e-25)
(0.559746 0.174097 0)
(0.445363 0.141211 3.7595e-22)
(0.320111 0.103514 4.05863e-25)
(0.190729 0.0629535 4.53631e-25)
(0.0624018 0.0211351 2.41588e-23)
(0.291671 0.0750806 2.18407e-24)
(0.185075 0.046837 1.10538e-26)
(0.186064 0.0470879 -1.10458e-26)
(0.111199 0.0277553 -3.03429e-25)
(0.111633 0.0278593 1.84714e-25)
(0.0541112 0.0133938 9.33e-25)
(0.054182 0.013416 7.70128e-25)
(0.0543347 0.0134528 -1.92258e-24)
(0.0542781 0.0134397 0)
(0.0174985 0.00429954 0)
(0.0175307 0.00431043 1.0894e-24)
(0.0175739 0.00432158 -1.54753e-24)
(0.0175462 0.00431729 -1.51197e-24)
(0.42285 0.111349 2.57902e-23)
(0.541927 0.14581 0)
(0.642322 0.176837 3.77663e-25)
(0.715315 0.201269 0)
(0.754247 0.2167 9.10986e-25)
(0.755791 0.221581 0)
(0.720343 0.215397 5.47447e-25)
(0.651783 0.198708 -6.06687e-25)
(0.55662 0.172983 2.67428e-24)
(0.442759 0.140265 3.84073e-25)
(0.318059 0.102765 0)
(0.189386 0.0624733 -2.52042e-22)
(0.0618903 0.0209608 2.29634e-23)
(0.28464 0.0732292 -2.99553e-23)
(0.181974 0.0461112 -3.57635e-24)
(0.183813 0.0465839 4.47393e-26)
(0.110246 0.0275258 -1.55645e-24)
(0.110798 0.0276466 1.08699e-24)
(0.0537774 0.0133114 0)
(0.0538491 0.0133331 3.89245e-25)
(0.0540013 0.0133676 -4.61631e-25)
(0.0539459 0.0133536 2.24878e-25)
(0.0173891 0.00427294 -4.08308e-25)
(0.0174252 0.00428438 3.06145e-25)
(0.0174645 0.00429405 4.65882e-25)
(0.0174388 0.00429121 -4.8937e-25)
(0.414175 0.108774 -4.21305e-23)
(0.53507 0.143934 0)
(0.636774 0.175227 7.08256e-25)
(0.710408 0.199749 -4.34231e-23)
(0.749711 0.215236 -4.355e-25)
(0.751548 0.220165 0)
(0.716399 0.214041 0)
(0.648185 0.197438 -2.33603e-22)
(0.553447 0.171836 -1.79432e-22)
(0.440084 0.139286 4.34656e-25)
(0.315988 0.102005 0)
(0.188018 0.0619721 -2.85963e-22)
(0.0613624 0.0207812 3.54285e-22)
(0.272443 0.0699035 2.01119e-23)
(0.174247 0.0440482 1.31678e-24)
(0.179137 0.0455613 5.32535e-24)
(0.10855 0.0271663 0)
(0.109601 0.0273724 -2.08277e-24)
(0.053417 0.0132223 3.51112e-24)
(0.0535056 0.0132475 1.99219e-24)
(0.0536596 0.0132803 0)
(0.0536088 0.0132659 8.40505e-25)
(0.0172876 0.00424817 -1.52025e-24)
(0.0173209 0.00425884 -1.06776e-24)
(0.017359 0.00426737 -6.14102e-25)
(0.017333 0.00426396 0)
(0.406215 0.106712 -6.24899e-25)
(0.52931 0.14234 -3.96657e-23)
(0.631802 0.17373 1.37784e-23)
(0.705773 0.198291 -6.07043e-25)
(0.745287 0.213793 0)
(0.747337 0.218745 0)
(0.712446 0.212666 7.02328e-23)
(0.644568 0.196144 1.63008e-22)
(0.550237 0.170665 3.84055e-25)
(0.437389 0.138283 -4.34559e-25)
(0.313855 0.101211 -2.8654e-22)
(0.186624 0.0614611 -3.26741e-22)
(0.0608184 0.0205915 4.02415e-22)
(0.262562 0.0673676 7.61004e-25)
(0.155816 0.0396609 -1.37277e-23)
(0.165247 0.0413737 8.42191e-23)
(0.103417 0.0259478 -8.16796e-25)
(0.106922 0.0268404 -4.53727e-24)
(0.0528196 0.013094 0)
(0.0530403 0.0131398 -4.42734e-24)
(0.0532832 0.0131917 -9.48751e-25)
(0.0531799 0.0131616 -4.29062e-24)
(0.0171786 0.00422176 -5.46114e-24)
(0.0172193 0.00423294 -2.29851e-24)
(0.0172569 0.0042416 0)
(0.0172305 0.00423799 1.52589e-25)
(0.40049 0.105122 1.71968e-23)
(0.524544 0.140928 3.59877e-23)
(0.627269 0.172335 0)
(0.701345 0.196883 6.0794e-25)
(0.740959 0.212367 -3.57898e-23)
(0.743161 0.21732 -4.05316e-25)
(0.708492 0.211272 2.57279e-25)
(0.640925 0.194824 0)
(0.546999 0.169462 -3.83899e-25)
(0.434635 0.137248 4.87724e-22)
(0.311731 0.10041 2.88279e-25)
(0.185176 0.0609173 -3.69764e-22)
(0.0602331 0.0203993 0)
(0.257699 0.0657661 3.58522e-23)
(0.147508 0.0371441 -5.7777e-24)
(0.150036 0.0379739 -7.01965e-28)
(0.0776842 0.0200981 1.32556e-23)
(0.0919521 0.022569 -3.53257e-23)
(0.0491462 0.0119912 -5.95618e-25)
(0.0511573 0.0128572 -2.10406e-26)
(0.0525446 0.013053 3.52925e-26)
(0.0520428 0.0129613 5.97473e-24)
(0.0170183 0.00418183 0)
(0.0170918 0.00419857 -4.39049e-25)
(0.0171539 0.00421769 2.67685e-24)
(0.017109 0.00420565 -1.83508e-25)
(0.396388 0.1039 -4.31415e-25)
(0.520447 0.139691 4.53215e-24)
(0.623088 0.171043 -2.70265e-25)
(0.697102 0.195523 1.62579e-23)
(0.736729 0.210957 6.01485e-25)
(0.739024 0.215887 4.05504e-25)
(0.704548 0.209859 -5.13859e-25)
(0.637263 0.193473 0)
(0.54374 0.168233 -2.15633e-22)
(0.431859 0.136185 2.76017e-25)
(0.309521 0.0995662 -3.44087e-22)
(0.183662 0.0603593 0)
(0.0596233 0.020195 -1.02137e-21)
(0.254993 0.0649668 7.52517e-24)
(0.145211 0.0363236 -2.25725e-24)
(0.146046 0.0365704 1.3267e-23)
(0.0715916 0.0177344 5.58033e-24)
(0.0727227 0.0182876 -1.38093e-25)
(0.0183921 0.00494403 -2.33425e-24)
(0.0205842 0.00508407 2.51981e-24)
(0.0447912 0.0102286 -9.44138e-25)
(0.0301706 0.00506352 0)
(0.0157591 0.00401647 2.49085e-24)
(0.0164762 0.00411976 6.85505e-26)
(0.0169388 0.00416708 4.36059e-24)
(0.0167751 0.00414153 3.71998e-25)
(0.393074 0.102936 -5.11876e-24)
(0.516773 0.138592 4.90824e-24)
(0.619173 0.169826 1.80262e-23)
(0.693019 0.194197 0)
(0.732582 0.209552 -2.82314e-25)
(0.734926 0.214445 0)
(0.700612 0.208423 5.66094e-23)
(0.633599 0.192097 0)
(0.540456 0.166969 0)
(0.429046 0.135095 3.23525e-24)
(0.307276 0.0987018 0)
(0.18211 0.0597809 9.85371e-22)
(0.0590124 0.0199846 -5.73108e-22)
(0.253004 0.0644937 1.09971e-23)
(0.144098 0.0361032 1.12069e-25)
(0.144542 0.0361877 -1.14696e-23)
(0.0706775 0.0174529 6.37993e-26)
(0.0710252 0.0175514 -1.24839e-23)
(0.0167055 0.00410844 4.50449e-24)
(0.0167763 0.00414298 5.13363e-24)
(0.0172588 0.00435807 -2.518e-24)
(0.0168376 0.00420945 -3.11002e-24)
(0.0146756 0.00369587 5.18178e-27)
(0.00830456 0.00128454 -7.18946e-23)
(0.390257 0.102137 -5.40221e-24)
(0.51345 0.137597 1.91953e-23)
(0.615467 0.16866 0)
(0.689072 0.192897 0)
(0.728516 0.208153 -1.89699e-23)
(0.730869 0.21299 -5.47812e-23)
(0.696685 0.206964 2.61834e-25)
(0.629926 0.19069 0)
(0.537145 0.165673 2.52239e-22)
(0.426172 0.133962 -3.12625e-22)
(0.30497 0.0978036 -4.11049e-22)
(0.180511 0.0591752 0)
(0.0583482 0.0197629 -6.51349e-22)
(0.251303 0.0640896 -1.40776e-23)
(0.143235 0.0359378 0)
(0.143596 0.0360161 -1.72553e-23)
(0.0702647 0.0173803 0)
(0.0704473 0.0174196 -4.81081e-24)
(0.0166415 0.00408689 -4.60091e-24)
(0.0166492 0.00408908 -4.89813e-24)
(0.016684 0.00410231 0)
(0.0166707 0.00409849 4.63159e-24)
(0.387748 0.101426 -1.64119e-23)
(0.510362 0.136664 2.30693e-25)
(0.611939 0.167536 -1.27313e-23)
(0.68524 0.191614 2.06461e-23)
(0.724526 0.206752 -1.32417e-23)
(0.726855 0.211519 -1.6649e-25)
(0.692778 0.205477 -5.54927e-23)
(0.626256 0.189249 0)
(0.533787 0.164334 2.75092e-23)
(0.423261 0.132794 0)
(0.30259 0.0968656 0)
(0.178853 0.0585507 0)
(0.0576696 0.0195391 -7.41337e-22)
(0.24981 0.0637123 0)
(0.142443 0.0357534 0)
(0.142779 0.0358404 2.21714e-23)
(0.0699057 0.0173064 -6.70259e-24)
(0.0700868 0.0173537 0)
(0.016592 0.00407828 0)
(0.0165938 0.00407947 -5.52767e-24)
(0.0166208 0.00408587 9.77863e-24)
(0.0166201 0.00408486 -3.9121e-26)
(0.385473 0.100777 -2.60368e-25)
(0.507446 0.135772 1.41508e-23)
(0.608543 0.166436 2.07929e-23)
(0.681508 0.190338 1.38137e-23)
(0.720605 0.205343 0)
(0.722882 0.210028 8.20644e-23)
(0.688892 0.203963 -5.54162e-23)
(0.622564 0.187771 3.13091e-22)
(0.530408 0.162957 2.70643e-25)
(0.420311 0.131593 -3.7603e-22)
(0.300164 0.0958997 0)
(0.177154 0.0579068 0)
(0.0569722 0.0193074 8.5186e-22)
(0.24844 0.0633528 3.00501e-25)
(0.141692 0.0355656 0)
(0.142005 0.0356506 0)
(0.0695439 0.0172212 -7.704e-24)
(0.0697254 0.017271 9.8679e-26)
(0.016515 0.00405774 -2.77952e-25)
(0.0165266 0.00406308 0)
(0.0165617 0.00407448 5.99473e-24)
(0.0165559 0.00407027 6.26964e-24)
(0.383324 0.100156 4.48524e-25)
(0.504666 0.134911 -2.4445e-23)
(0.605273 0.165356 0)
(0.67788 0.189068 1.20299e-26)
(0.716752 0.203924 -2.84389e-23)
(0.718953 0.208514 5.38608e-23)
(0.685017 0.202416 -1.40243e-22)
(0.618864 0.186255 -9.52514e-23)
(0.527021 0.161546 3.29584e-22)
(0.417303 0.130344 0)
(0.297715 0.0949031 0)
(0.175368 0.0572223 -7.81013e-22)
(0.0562301 0.0190733 9.45762e-22)
(0.247141 0.0630037 -1.23122e-25)
(0.140981 0.035382 1.36157e-25)
(0.141277 0.0354668 -1.362e-25)
(0.0692013 0.0171381 0)
(0.0693683 0.0171823 0)
(0.0164339 0.00403879 0)
(0.016446 0.00404387 7.76665e-24)
(0.0164824 0.0040538 7.2879e-24)
(0.0164773 0.00405103 7.54151e-24)
(0.381296 0.0995639 -4.4832e-25)
(0.502019 0.134076 0)
(0.602107 0.164285 4.14574e-23)
(0.674338 0.187794 2.55029e-23)
(0.712971 0.20249 3.35118e-26)
(0.715066 0.206974 5.44224e-23)
(0.681161 0.200833 8.94574e-23)
(0.615174 0.184696 0)
(0.52359 0.160082 0)
(0.414263 0.129047 -4.56067e-22)
(0.29513 0.0938442 0)
(0.173503 0.0565318 0)
(0.055443 0.0187923 1.07861e-21)
(0.245905 0.0626642 2.76471e-26)
(0.14029 0.0352037 -1.57053e-25)
(0.140588 0.0352903 1.57107e-25)
(0.0688591 0.0170538 0)
(0.0690319 0.017099 0)
(0.0163643 0.0040209 0)
(0.0163661 0.00402463 -9.12178e-24)
(0.0164038 0.00403395 -8.53015e-24)
(0.0163958 0.00403109 8.78737e-24)
(0.379363 0.0989895 -8.58039e-23)
(0.499471 0.133251 -1.14419e-22)
(0.599049 0.163217 -2.75711e-23)
(0.670884 0.186509 0)
(0.709251 0.201034 1.54531e-26)
(0.71122 0.205403 0)
(0.677319 0.199207 0)
(0.611463 0.183088 0)
(0.520104 0.158557 3.99893e-22)
(0.411121 0.127695 0)
(0.292465 0.0927477 0)
(0.171534 0.0558211 -9.89216e-22)
(0.0548135 0.018361 1.22395e-21)
(0.244726 0.0623402 1.00606e-22)
(0.139641 0.0350302 -1.67527e-25)
(0.139916 0.0351125 3.56616e-25)
(0.0685271 0.016971 0)
(0.0686937 0.017018 0)
(0.0162808 0.00400233 1.06044e-23)
(0.0162949 0.00400697 -1.02837e-23)
(0.0163313 0.00401579 -9.66097e-24)
(0.0163247 0.0040128 9.83357e-24)
(0.377529 0.0984362 7.97938e-23)
(0.497033 0.132437 -2.55092e-25)
(0.596087 0.162144 0)
(0.66751 0.185211 0)
(0.705595 0.199556 -1.68406e-23)
(0.707416 0.203798 -1.78468e-23)
(0.673495 0.197539 -6.21355e-23)
(0.607722 0.181426 0)
(0.51659 0.156985 -3.88831e-25)
(0.407889 0.126278 0)
(0.289738 0.0916136 0)
(0.169411 0.0549558 -1.12235e-21)
(0.055311 0.0180046 1.42529e-21)
(0.243604 0.0620408 2.34643e-25)
(0.13901 0.0348687 3.99002e-25)
(0.139265 0.0349417 -5.87992e-25)
(0.0682099 0.0168894 0)
(0.0683736 0.0169331 -1.20673e-23)
(0.016207 0.00398287 1.18699e-23)
(0.016217 0.00398824 -1.15879e-23)
(0.016255 0.00399997 0)
(0.016245 0.00399479 0)
(0.37578 0.0978957 1.1565e-22)
(0.494701 0.131621 9.72359e-23)
(0.593231 0.161064 0)
(0.664219 0.183901 1.755e-23)
(0.702008 0.198055 1.7949e-23)
(0.703654 0.202154 4.43863e-23)
(0.669683 0.195821 0)
(0.603983 0.179708 0)
(0.512993 0.15534 4.14003e-22)
(0.404651 0.124802 0)
(0.286594 0.0903481 0)
(0.169474 0.0538553 6.14121e-23)
(0.0493064 0.0151622 -5.96022e-23)
(0.242547 0.0617722 -1.36235e-22)
(0.138395 0.0347284 0)
(0.138653 0.0347911 5.74102e-23)
(0.0679078 0.0168144 0)