/*--------------------------------*- C++ -*----------------------------------*\
| =========                 |                                                 |
| \\      /  F ield         | OpenFOAM: The Open Source CFD Toolbox           |
|  \\    /   O peration     | Version:  v1912                                 |
|   \\  /    A nd           | Website:  www.openfoam.com                      |
|    \\/     M anipulation  |                                                 |
\*---------------------------------------------------------------------------*/
FoamFile
{
    version     2.0;
    format      ascii;
    class       volScalarField;
    location    "20";
    object      p;
}
// * * * * * * * * * * * * * * * * * * * * * * * * * * * * * * * * * * * * * //

dimensions      [0 2 -2 0 0 0 0];


internalField   nonuniform List<scalar> 
3753
(
-0.181778
-0.184554
-0.173699
-0.189612
-0.17655
-0.166192
-0.195799
-0.181633
-0.169133
-0.159232
-0.201729
-0.187873
-0.174312
-0.16225
-0.152627
-0.206316
-0.193769
-0.180623
-0.167547
-0.155702
-0.146242
-0.209737
-0.198392
-0.186527
-0.17395
-0.161101
-0.149355
-0.140026
-0.21236
-0.201828
-0.191183
-0.179904
-0.167612
-0.154817
-0.14316
-0.133978
-0.215151
-0.204628
-0.194681
-0.184588
-0.173636
-0.161398
-0.148653
-0.137118
-0.12813
-0.218462
-0.207566
-0.19765
-0.188157
-0.178371
-0.167482
-0.155261
-0.142611
-0.131254
-0.122486
-0.222635
-0.211117
-0.200766
-0.191241
-0.181988
-0.172264
-0.161365
-0.149216
-0.136722
-0.125568
-0.116968
-0.227041
-0.215386
-0.204493
-0.194531
-0.185168
-0.175934
-0.166171
-0.155314
-0.14329
-0.130987
-0.119996
-0.111452
-0.231074
-0.219926
-0.208821
-0.198388
-0.188554
-0.179162
-0.169862
-0.160108
-0.149357
-0.137506
-0.125354
-0.114417
-0.105832
-0.223911
-0.233204
-0.236028
-0.213296
-0.202774
-0.192513
-0.182621
-0.173133
-0.163807
-0.154139
-0.143531
-0.131809
-0.119716
-0.108741
-0.100063
-0.217164
-0.225738
-0.228642
-0.235396
-0.239131
-0.207218
-0.19693
-0.186607
-0.17661
-0.167079
-0.15782
-0.148275
-0.137782
-0.126113
-0.113983
-0.102933
-0.0942047
-0.211079
-0.219269
-0.221626
-0.227757
-0.231429
-0.236632
-0.238074
-0.240835
-0.20135
-0.191043
-0.18063
-0.170577
-0.161089
-0.151934
-0.142489
-0.132034
-0.120321
-0.108123
-0.0970499
-0.0883719
-0.205177
-0.213347
-0.215628
-0.221464
-0.224195
-0.22867
-0.229875
-0.233595
-0.232888
-0.237811
-0.239918
-0.242399
-0.195441
-0.185049
-0.174575
-0.164549
-0.155155
-0.146097
-0.136687
-0.126186
-0.114402
-0.102183
-0.0912036
-0.0826572
-0.199237
-0.207425
-0.20971
-0.215611
-0.218338
-0.222734
-0.223789
-0.226618
-0.225466
-0.229567
-0.230408
-0.234624
-0.23448
-0.238744
-0.240982
-0.243393
-0.189436
-0.178993
-0.168528
-0.158571
-0.149265
-0.140247
-0.130794
-0.120215
-0.108391
-0.0962773
-0.085486
-0.0771405
-0.193194
-0.201422
-0.203739
-0.209661
-0.212444
-0.21691
-0.217973
-0.220805
-0.219727
-0.223847
-0.225063
-0.227849
-0.226554
-0.235617
-0.236161
-0.18333
-0.17287
-0.162453
-0.152582
-0.143331
-0.134299
-0.124776
-0.114144
-0.102396
-0.0905097
-0.079978
-0.0718304
-0.187043
-0.195288
-0.197655
-0.203598
-0.206434
-0.210918
-0.212007
-0.21493
-0.213823
-0.218021
-0.219286
-0.222127
-0.220848
-0.177158
-0.166738
-0.156386
-0.146568
-0.137334
-0.128255
-0.118675
-0.108073
-0.0965317
-0.0849602
-0.074687
-0.0667132
-0.180807
-0.189059
-0.191456
-0.197409
-0.200301
-0.204787
-0.205889
-0.208868
-0.207757
-0.211986
-0.21332
-0.21627
-0.214931
-0.170932
-0.160542
-0.150247
-0.140486
-0.131252
-0.122141
-0.11257
-0.102112
-0.0908803
-0.0796534
-0.0696025
-0.0617823
-0.174538
-0.182773
-0.185195
-0.19113
-0.194057
-0.198544
-0.199677
-0.202706
-0.201567
-0.205808
-0.207167
-0.210175
-0.208816
-0.164689
-0.15436
-0.144128
-0.134398
-0.125166
-0.116056
-0.106565
-0.0963483
-0.0854886
-0.0745668
-0.064696
-0.0570073
-0.168261
-0.176488
-0.178905
-0.184842
-0.187782
-0.192235
-0.193371
-0.196425
-0.195278
-0.19954
-0.200926
-0.203989
-0.202598
-0.158442
-0.148162
-0.137994
-0.128321
-0.119118
-0.110065
-0.100734
-0.0908358
-0.0803338
-0.0696646
-0.0599469
-0.0523998
-0.162036
-0.170231
-0.172648
-0.178566
-0.181487
-0.185961
-0.187106
-0.190163
-0.188998
-0.193224
-0.194598
-0.197681
-0.196286
-0.152285
-0.142081
-0.131982
-0.122356
-0.113206
-0.104244
-0.0951315
-0.0855666
-0.0753763
-0.0649116
-0.0553461
-0.0479802
-0.1559
-0.164045
-0.166436
-0.17235
-0.175256
-0.179698
-0.180832
-0.183872
-0.182708
-0.186964
-0.188348
-0.191415
-0.190014
-0.146198
-0.136063
-0.126049
-0.116507
-0.10743
-0.098604
-0.0897466
-0.0804961
-0.070566
-0.06029
-0.050921
-0.0437661
-0.149875
-0.157965
-0.160333
-0.166194
-0.169063
-0.173524
-0.174657
-0.177675
-0.176518
-0.180714
-0.182081
-0.185131
-0.183733
-0.140273
-0.130227
-0.120295
-0.110818
-0.101816
-0.093145
-0.0845486
-0.0755732
-0.0658703
-0.0558155
-0.046687
-0.0397779
-0.143973
-0.151985
-0.154312
-0.160149
-0.162983
-0.167382
-0.168498
-0.171484
-0.170333
-0.174561
-0.175922
-0.178948
-0.177573
-0.134429
-0.124472
-0.114631
-0.105228
-0.0963174
-0.0878311
-0.0794838
-0.07076
-0.0613046
-0.0515166
-0.0426673
-0.0360112
-0.138158
-0.146118
-0.148422
-0.154178
-0.156965
-0.161352
-0.162479
-0.165423
-0.164283
-0.168427
-0.16977
-0.172774
-0.171396
-0.128717
-0.11885
-0.109079
-0.0997209
-0.0909168
-0.0826307
-0.0745344
-0.0660733
-0.0568971
-0.0474189
-0.0388599
-0.0324465
-0.132415
-0.140301
-0.14258
-0.148314
-0.151079
-0.155377
-0.156472
-0.159387
-0.15825
-0.162404
-0.16375
-0.166721
-0.165353
-0.123028
-0.113245
-0.103534
-0.0942444
-0.0856014
-0.077554
-0.0697207
-0.0615412
-0.0526873
-0.0435336
-0.0352499
-0.0290359
-0.126679
-0.134532
-0.136806
-0.14247
-0.145214
-0.14951
-0.150626
-0.153496
-0.152379
-0.15642
-0.157732
-0.16068
-0.159311
-0.117381
-0.107664
-0.0979981
-0.0888297
-0.08041
-0.0726307
-0.0650797
-0.0572141
-0.0486953
-0.0398484
-0.0317924
-0.0257346
-0.120938
-0.128731
-0.131007
-0.136671
-0.139414
-0.143647
-0.144725
-0.147598
-0.146483
-0.150544
-0.151879
-0.154775
-0.15343
-0.111691
-0.102053
-0.0924883
-0.0835396
-0.0754064
-0.0679106
-0.0606537
-0.0531177
-0.0449218
-0.0363282
-0.0284468
-0.0224926
-0.115133
-0.122911
-0.125198
-0.130817
-0.133574
-0.137826
-0.138936
-0.141787
-0.140672
-0.144661
-0.145957
-0.148858
-0.147519
-0.106002
-0.0964592
-0.0871063
-0.0784715
-0.0706311
-0.0634173
-0.0564718
-0.0492601
-0.0413348
-0.0329293
-0.0251607
-0.0192877
-0.109298
-0.117001
-0.119313
-0.124946
-0.127729
-0.131938
-0.133029
-0.135918
-0.134794
-0.138823
-0.140157
-0.143028
-0.141691
-0.10037
-0.0910051
-0.0819993
-0.0736695
-0.0661025
-0.0591763
-0.0525455
-0.0456185
-0.0378914
-0.0295981
-0.0219084
-0.0161156
-0.103605
-0.110973
-0.113346
-0.11897
-0.121801
-0.126038
-0.127163
-0.130058
-0.128932
-0.132924
-0.134232
-0.137146
-0.135799
-0.0948236
-0.0858604
-0.0771891
-0.0691246
-0.0618219
-0.0551991
-0.0488625
-0.0421476
-0.0345316
-0.0262912
-0.0186875
-0.0129882
-0.098008
-0.105114
-0.107316
-0.112766
-0.115748
-0.120014
-0.121142
-0.124106
-0.122964
-0.127007
-0.128359
-0.131276
-0.129924
-0.089716
-0.0811017
-0.0726532
-0.0648177
-0.0577974
-0.0514749
-0.0453771
-0.038785
-0.0311942
-0.0230009
-0.0155114
-0.00994299
-0.0929958
-0.0994977
-0.101649
-0.106817
-0.109322
-0.1137
-0.114897
-0.118035
-0.116855
-0.120961
-0.122335
-0.125316
-0.123945
-0.0850102
-0.0765879
-0.0683367
-0.0607547
-0.0540313
-0.0479744
-0.0420236
-0.0354513
-0.0278516
-0.0197358
-0.0124125
-0.00702443
-0.0884068
-0.0948888
-0.096787
-0.101128
-0.103495
-0.107698
-0.107812
-0.111406
-0.110083
-0.114554
-0.116066
-0.119239
-0.117791
-0.0805657
-0.0722767
-0.0642325
-0.0569284
-0.0504889
-0.0446222
-0.0387153
-0.0320944
-0.0245006
-0.0165297
-0.00944496
-0.00427989
-0.0840184
-0.0904224
-0.0922788
-0.0967092
-0.0988335
-0.101802
-0.102632
-0.104626
-0.103961
-0.109346
-0.108867
-0.112569
-0.110902
-0.0762769
-0.0681614
-0.0603556
-0.0533323
-0.0471231
-0.0413406
-0.0353804
-0.0286995
-0.0211761
-0.0134419
-0.00665061
-0.00174492
-0.0797329
-0.0860623
-0.087888
-0.0922912
-0.0944012
-0.0974288
-0.0982192
-0.100369
-0.0995584
-0.0721226
-0.0642036
-0.05667
-0.0499132
-0.0438414
-0.0380398
-0.0319895
-0.0252936
-0.0179361
-0.0105185
-0.00407025
0.000546238
-0.0755711
-0.0817663
-0.0835663
-0.0879305
-0.0900212
-0.0930388
-0.0938102
-0.0959589
-0.0951629
-0.0681514
-0.0604729
-0.0531915
-0.0466103
-0.0405736
-0.0346881
-0.0285567
-0.021927
-0.0148361
-0.00780378
-0.00173057
0.00257197
-0.0715332
-0.0775823
-0.0793423
-0.0836213
-0.0856806
-0.0886741
-0.0894432
-0.0915694
-0.0907822
-0.0643111
-0.0568764
-0.0498205
-0.0433443
-0.0372639
-0.0312767
-0.0251287
-0.0186658
-0.0119266
-0.00532407
0.000349884
0.00430542
-0.0676664
-0.0735243
-0.0752366
-0.079416
-0.0814247
-0.0843487
-0.0851157
-0.0872194
-0.0864311
-0.0606896
-0.0534711
-0.0465459
-0.0400735
-0.0339083
-0.027851
-0.0217662
-0.0155616
-0.0092349
-0.00308769
0.00215382
0.00571915
-0.0639715
-0.0696598
-0.0712906
-0.0753481
-0.0772896
-0.0801397
-0.0808927
-0.0829408
-0.0821652
-0.0571755
-0.0501232
-0.0432748
-0.0367689
-0.0305239
-0.0244587
-0.0185242
-0.012649
-0.00676799
-0.00110169
0.00365885
0.0067706
-0.0604433
-0.0659813
-0.067544
-0.071472
-0.0733163
-0.0760786
-0.0768076
-0.0787879
-0.0780239
-0.0538403
-0.0468873
-0.0400312
-0.0334539
-0.0271615
-0.0211533
-0.0154374
-0.00993442
-0.00452123
0.000624547
0.00483335
0.00741129
-0.0570573
-0.0624701
-0.063967
-0.0677951
-0.0695495
-0.0722046
-0.0729104
-0.0747945
-0.0740596
-0.0505495
-0.043637
-0.0367565
-0.0301359
-0.0238504
-0.0179639
-0.0125176
-0.00741282
-0.00249421
0.00207117
0.00563172
0.00758199
-0.053794
-0.059101
-0.0605512
-0.0642871
-0.0659609
-0.0685392
-0.0692187
-0.07101
-0.0702939
-0.0473849
-0.0404539
-0.0335109
-0.0268628
-0.0206284
-0.0149099
-0.00976476
-0.00507615
-0.000694861
0.00319833
0.00600664
0.00721818
-0.0506168
-0.0558499
-0.0572556
-0.0609183
-0.0625349
-0.0650448
-0.0657031
-0.0674056
-0.0667219
-0.0441828
-0.0371976
-0.0302492
-0.0236351
-0.017497
-0.0119885
-0.00717075
-0.00293267
0.000840467
0.00395475
0.00590233
0.00627621
-0.0474889
-0.0526906
-0.0540621
-0.0576547
-0.0592288
-0.0616767
-0.0623215
-0.0639642
-0.0632974
-0.0409997
-0.0339902
-0.0270526
-0.0204822
-0.0144767
-0.00920961
-0.0047462
-0.00101341
0.00204999
0.00428498
0.00527546
0.00465404
-0.0442296
-0.0496387
-0.0509509
-0.0544713
-0.0560104
-0.0584043
-0.0590305
-0.0606374
-0.0599936
-0.0376758
-0.0307381
-0.0238764
-0.017397
-0.0115689
-0.0065774
-0.00252248
0.000610069
0.00286431
0.00410749
0.00416184
0.00175435
-0.0407954
-0.0462664
-0.0478696
-0.0514436
-0.0528817
-0.0551759
-0.0557934
-0.0573805
-0.0567439
-0.0344539
-0.0276163
-0.0207837
-0.014415
-0.00879659
-0.00412586
-0.000570662
0.00184314
0.00314901
0.00352531
0.00161742
-0.0374432
-0.0423703
-0.0439547
-0.047917
-0.0494955
-0.0500596
-0.052087
-0.0526366
-0.0541652
-0.0535616
-0.0312528
-0.0244857
-0.0177462
-0.0115381
-0.00616757
-0.00191314
0.000996648
0.00251001
0.00296941
0.00138384
-0.0342527
-0.0389458
-0.0404286
-0.0437029
-0.044504
-0.0455146
-0.0464474
-0.0487841
-0.0486979
-0.0512061
-0.0507871
-0.0282219
-0.0214999
-0.0148226
-0.00877668
-0.00373171
-5.2746e-05
0.00198171
0.00258807
0.00118152
-0.0312011
-0.0357461
-0.0371299
-0.0402339
-0.0409612
-0.0418588
-0.0426509
-0.0449791
-0.0458585
-0.0468202
-0.0478161
-0.0495149
-0.0500596
-0.0252237
-0.0185302
-0.0119523
-0.00613323
-0.0015764
0.00124662
0.00225893
0.00104945
-0.0282936
-0.0327404
-0.0340468
-0.0370511
-0.0377172
-0.0385503
-0.0392762
-0.0414982
-0.0422882
-0.0431396
-0.0440223
-0.0456967
-0.0466012
-0.047557
-0.0485528
-0.0223615
-0.0156526
-0.0091474
-0.00367078
0.000108478
0.00179669
0.000933687
-0.0254705
-0.0298997
-0.0311431
-0.0340758
-0.0346999
-0.0354804
-0.0361593
-0.0383078
-0.0390307
-0.0398264
-0.0406294
-0.0422132
-0.0430262
-0.0438684
-0.0447496
-0.0194644
-0.012705
-0.00637954
-0.00153492
0.00106439
0.000765905
-0.0226857
-0.0271774
-0.0283812
-0.0312816
-0.0318721
-0.0326028
-0.0332411
-0.0353314
-0.0360043
-0.0367409
-0.0374971
-0.0390147
-0.0397669
-0.0405535
-0.0413591
-0.016552
-0.00973261
-0.00377453
-1.24061e-05
0.000513698
-0.0198435
-0.024522
-0.025704
-0.0286377
-0.0292026
-0.0298981
-0.0305026
-0.032556
-0.0331866
-0.033872
-0.0345745
-0.0360358
-0.0367371
-0.0374617
-0.0382175
-0.0134512
-0.00667054
-0.00157469
0.000151983
-0.0168762
-0.021859
-0.0230602
-0.0261273
-0.0266635
-0.0273192
-0.0279038
-0.029968
-0.0305513
-0.0311972
-0.0318504
-0.0332699
-0.0339171
-0.0345947
-0.0353
-0.0101456
-0.00376131
-0.000403752
-0.0136403
-0.0191371
-0.0203859
-0.0236877
-0.024217
-0.0248534
-0.0254194
-0.0275637
-0.0280988
-0.0286951
-0.0293119
-0.0307106
-0.031303
-0.0319302
-0.0325796
-0.00655779
-0.00125619
-0.00984258
-0.0162985
-0.0176443
-0.0213413
-0.0218352
-0.0224689
-0.0230086
-0.0253035
-0.0258032
-0.0263631
-0.0269409
-0.0283522
-0.0288961
-0.0294718
-0.0300727
-0.00238975
-0.00393163
-0.0127173
-0.0146107
-0.0191647
-0.0196422
-0.0202199
-0.0207327
-0.0233143
-0.0237313
-0.0242145
-0.0247284
-0.0261875
-0.0266785
-0.0272101
-0.0277636
-0.00395515
-0.00933658
-0.0160996
-0.0171078
-0.0179678
-0.0185926
-0.0218692
-0.022145
-0.0224769
-0.0228474
-0.0244144
-0.0247636
-0.0251816
-0.0256535
-0.00342001
-0.00830922
-0.0122314
-0.0143696
-0.0194365
-0.0204856
-0.0210998
-0.0215067
-0.0235576
-0.0236394
-0.0237994
-0.0240369
-0.00371234
-0.0103536
-0.0147206
-0.0175611
-0.0218042
-0.0227881
-0.0232164
-0.0233889
-0.00365983
-0.011294
-0.0163534
-0.0197495
-0.0878856
-0.0858941
-0.0895374
-0.0872563
-0.0834259
-0.0925479
-0.09132
-0.0885403
-0.0847563
-0.0813553
-0.0933183
-0.0939327
-0.0941547
-0.0896245
-0.0867667
-0.0826104
-0.0794406
-0.09503
-0.0951702
-0.0976419
-0.0971078
-0.090389
-0.0863898
-0.0845818
-0.0807374
-0.077383
-0.0962568
-0.0971259
-0.104675
-0.0999952
-0.101146
-0.0929123
-0.0833141
-0.0821085
-0.082963
-0.0786089
-0.0756284
-0.098476
-0.0987262
-0.106963
-0.102615
-0.0999128
-0.0956921
-0.0861075
-0.0768123
-0.0792115
-0.0805101
-0.0790325
-0.0769236
-0.0737628
-0.100481
-0.109435
-0.105057
-0.101769
-0.0983118
-0.0890936
-0.0798301
-0.0753565
-0.0708795
-0.0723326
-0.0771979
-0.0756886
-0.0751237
-0.0718897
-0.111708
-0.107016
-0.10045
-0.0918834
-0.0830098
-0.074128
-0.0734596
-0.0719976
-0.0686104
-0.0654558
-0.066354
-0.0700308
-0.0680177
-0.0733391
-0.0698527
-0.113532
-0.108425
-0.102006
-0.0941699
-0.0859375
-0.0774494
-0.0687991
-0.0712972
-0.0696385
-0.0657473
-0.0632207
-0.0601274
-0.0608657
-0.063509
-0.0679591
-0.0671829
-0.068155
-0.11483
-0.109389
-0.103102
-0.0958624
-0.0883219
-0.0804453
-0.0722115
-0.0635088
-0.0644955
-0.0637839
-0.0606689
-0.0578935
-0.05503
-0.0557039
-0.058079
-0.0613963
-0.0623996
-0.0664987
-0.0653631
-0.115709
-0.110091
-0.103923
-0.0970836
-0.0900925
-0.0828548
-0.0752351
-0.067009
-0.0583086
-0.0595435
-0.0584666
-0.0554043
-0.0530516
-0.0505615
-0.0511075
-0.0532467
-0.0558591
-0.0569453
-0.116321
-0.110668
-0.104619
-0.0980183
-0.0913873
-0.0846405
-0.0776311
-0.0700775
-0.0618052
-0.0535432
-0.0542866
-0.0532505
-0.0508068
-0.0488933
-0.046767
-0.0469892
-0.0490862
-0.0512945
-0.0522279
-0.116809
-0.1112
-0.105255
-0.0988222
-0.0924009
-0.0859655
-0.0793947
-0.0724711
-0.0648881
-0.0568307
-0.0493825
-0.0504299
-0.0488539
-0.0469461
-0.0453237
-0.0438582
-0.0438751
-0.0451501
-0.0471098
-0.048368
-0.117248
-0.111702
-0.105856
-0.0995598
-0.0932857
-0.0870286
-0.0807214
-0.0742151
-0.0672798
-0.059806
-0.0523379
-0.0459981
-0.0475017
-0.0459115
-0.044994
-0.0436973
-0.0428155
-0.041705
-0.0417312
-0.0425494
-0.0434417
-0.044238
-0.0460139
-0.0474094
-0.117659
-0.112179
-0.106424
-0.100256
-0.0941031
-0.0879744
-0.0818117
-0.0755367
-0.0690155
-0.0621388
-0.05508
-0.048529
-0.0433677
-0.0448834
-0.044032
-0.0428641
-0.0422582
-0.0416612
-0.0410814
-0.0399583
-0.040232
-0.0409178
-0.0414052
-0.0419473
-0.0426459
-0.0433437
-0.118046
-0.112626
-0.106965
-0.100909
-0.0948725
-0.088856
-0.0828043
-0.0766449
-0.0703395
-0.0638529
-0.0572815
-0.0509627
-0.0454649
-0.0412252
-0.0420522
-0.041589
-0.0411694
-0.0407473
-0.0403669
-0.0396967
-0.0381912
-0.0389116
-0.0398042
-0.0402617
-0.0406453
-0.0409182
-0.0413051
-0.118411
-0.113056
-0.107473
-0.101527
-0.0955933
-0.0896877
-0.0837406
-0.0776738
-0.0714678
-0.0651823
-0.0589463
-0.0529911
-0.0475839
-0.0429633
-0.0391871
-0.0406339
-0.0403792
-0.0401646
-0.0398484
-0.0393004
-0.0382296
-0.0359717
-0.0373559
-0.0386923
-0.0394518
-0.0397728
-0.0400411
-0.0402734
-0.118757
-0.113472
-0.107966
-0.102111
-0.0962759
-0.0904669
-0.0846285
-0.0786561
-0.0725297
-0.0663359
-0.0602782
-0.0545928
-0.0494429
-0.0448344
-0.0406884
-0.036883
-0.0398712
-0.0396948
-0.0393055
-0.0389916
-0.0380363
-0.0362462
-0.0331216
-0.035023
-0.0372464
-0.038449
-0.0387997
-0.0393824
-0.0395961
-0.119089
-0.113883
-0.108445
-0.102673
-0.096919
-0.0912021
-0.0854595
-0.079593
-0.0735523
-0.0674324
-0.0614614
-0.0559298
-0.0509955
-0.0465795
-0.042414
-0.038296
-0.0341318
-0.0391765
-0.0389427
-0.0381631
-0.0377975
-0.0361629
-0.0332961
-0.0296253
-0.0316508
-0.0347784
-0.0370362
-0.0374588
-0.0384326
-0.0387285
-0.11942
-0.114293
-0.108924
-0.103209
-0.0975321
-0.0918919
-0.0862395
-0.0804697
-0.0745313
-0.0684932
-0.0625953
-0.0571479
-0.0523533
-0.0481244
-0.0441217
-0.0399793
-0.0355774
-0.0308843
-0.038111
-0.0377799
-0.0364726
-0.0359808
-0.0330723
-0.0294183
-0.0258872
-0.0276566
-0.0309883
-0.0345918
-0.0350081
-0.0370357
-0.0374308
-0.119756
-0.114725
-0.109401
-0.103732
-0.0981119
-0.0925439
-0.0869671
-0.0812883
-0.0754474
-0.0695094
-0.0636935
-0.0583222
-0.0536176
-0.0495306
-0.0457083
-0.0417119
-0.0372874
-0.0324607
-0.027353
-0.0365326
-0.0362857
-0.0333519
-0.0324007
-0.0287047
-0.0254311
-0.0220011
-0.0236465
-0.0266223
-0.0299851
-0.0309944
-0.0347372
-0.0348712
-0.120115
-0.115181
-0.109897
-0.104241
-0.0986668
-0.0931555
-0.0876493
-0.0820471
-0.0762992
-0.0704603
-0.0647436
-0.0594569
-0.054838
-0.0508576
-0.0471922
-0.0433729
-0.0390701
-0.0342306
-0.0290311
-0.0237236
-0.0333424
-0.0321037
-0.0285194
-0.0275275
-0.0244873
-0.0212673
-0.0186375
-0.0188432
-0.0225057
-0.0252683
-0.0262251
-0.029488
-0.0307529
-0.0345339
-0.0342927
-0.120498
-0.115674
-0.110416
-0.104753
-0.0991959
-0.0937325
-0.0882837
-0.0827532
-0.0770843
-0.0713416
-0.0657256
-0.0605381
-0.0560106
-0.0521338
-0.048599
-0.0449487
-0.0408009
-0.0360474
-0.0308367
-0.025473
-0.0203542
-0.0331629
-0.0319112
-0.0280955
-0.026888
-0.0240051
-0.0230936
-0.0202433
-0.0168427
-0.0159987
-0.018933
-0.0210025
-0.0219452
-0.0245033
-0.0256396
-0.0291986
-0.0305509
-0.120925
-0.116211
-0.110971
-0.105268
-0.0997076
-0.0942725
-0.0888749
-0.0834041
-0.0778097
-0.0721503
-0.0666345
-0.0615482
-0.0571223
-0.0533506
-0.0499429
-0.0464417
-0.0424516
-0.0378047
-0.032622
-0.0272214
-0.0220279
-0.0174778
-0.0277936
-0.0265045
-0.0233139
-0.022285
-0.0196317
-0.0182239
-0.016392
-0.0146392
-0.0155195
-0.0136304
-0.0175424
-0.0202029
-0.021216
-0.024035
-0.0252344
-0.121401
-0.1168
-0.11155
-0.105796
-0.100206
-0.0947797
-0.0894196
-0.0840039
-0.0784742
-0.072893
-0.0674676
-0.0624839
-0.0581598
-0.0544969
-0.0512132
-0.0478581
-0.0440148
-0.039484
-0.034343
-0.0289084
-0.023622
-0.0189128
-0.0149191
-0.0228499
-0.0217876
-0.0191202
-0.0187492
-0.0161605
-0.0158077
-0.0142785
-0.0124452
-0.0132641
-0.0152609
-0.014777
-0.0114776
-0.0171798
-0.0167196
-0.0196901
-0.0207184
-0.121937
-0.117428
-0.112152
-0.106332
-0.1007
-0.0952587
-0.0899185
-0.0845489
-0.0790815
-0.0735711
-0.0682302
-0.063344
-0.0591229
-0.0555648
-0.0524023
-0.0491876
-0.0454927
-0.0410749
-0.0359717
-0.0304877
-0.0250935
-0.0202358
-0.0161277
-0.0126536
-0.0186387
-0.0179188
-0.0140157
-0.0135625
-0.0119986
-0.0103916
-0.0109968
-0.0129144
-0.0123963
-0.00948202
-0.122521
-0.118075
-0.11275
-0.106872
-0.101186
-0.0957108
-0.0903745
-0.0850397
-0.0796288
-0.0741895
-0.068926
-0.0641329
-0.0600122
-0.0565573
-0.0535064
-0.0504255
-0.046875
-0.0425839
-0.0375408
-0.0320146
-0.0264733
-0.0214257
-0.0171783
-0.0136954
-0.0106582
-0.0116385
-0.011172
-0.00989799
-0.00833356
-0.00899418
-0.010578
-0.0100596
-0.00779599
-0.123149
-0.118709
-0.113317
-0.107393
-0.101659
-0.0961417
-0.0907886
-0.0854769
-0.0801166
-0.074748
-0.0695628
-0.0648551
-0.0608328
-0.0574775
-0.0545323
-0.0515713
-0.0481587
-0.043995
-0.039024
-0.0334744
-0.0278065
-0.0225457
-0.0180881
-0.0145254
-0.0116142
-0.00894886
-0.00943737
-0.00900576
-0.00780341
-0.00665206
-0.00705184
-0.00856791
-0.00814581
-0.00619673
-0.123799
-0.119297
-0.113813
-0.107877
-0.102113
-0.0965472
-0.0911634
-0.0858589
-0.0805467
-0.0752485
-0.0701452
-0.0655194
-0.0615891
-0.0583317
-0.0554849
-0.0526339
-0.0493449
-0.0453097
-0.0404367
-0.0348997
-0.0291229
-0.0236563
-0.0189489
-0.015201
-0.012298
-0.00985615
-0.00740511
-0.00774608
-0.00682777
-0.00600042
-0.00493578
-0.00501022
-0.00665529
-0.00603615
-0.00477365
-0.124457
-0.119793
-0.11423
-0.108306
-0.102533
-0.0969259
-0.0914965
-0.0861905
-0.0809208
-0.0756961
-0.0706778
-0.066136
-0.0622894
-0.0591244
-0.0563719
-0.0536202
-0.0504435
-0.0465231
-0.0417429
-0.0362456
-0.0304226
-0.0247921
-0.0198373
-0.0158371
-0.0127942
-0.0104449
-0.0083181
-0.00600406
-0.00593122
-0.00533653
-0.00481283
-0.00409447
-0.00350455
-0.00329958
-0.00424366
-0.00375717
-0.00612391
-0.0053496
-0.0036263
-0.125075
-0.12014
-0.114541
-0.108678
-0.102912
-0.0972714
-0.0917978
-0.0864733
-0.0812423
-0.0760948
-0.0711694
-0.0667137
-0.0629454
-0.0598625
-0.0571982
-0.0545384
-0.051462
-0.0476506
-0.0429724
-0.0375362
-0.0316915
-0.0259473
-0.0207864
-0.0165253
-0.0132512
-0.0108184
-0.00886806
-0.00692618
-0.00479717
-0.00467643
-0.00412731
-0.00328972
-0.00288078
-0.00263319
-0.00242839
-0.00198965
-0.0024891
-0.00209528
-0.00358994
-0.00307124
-0.00275392
-0.125569
-0.12031
-0.114735
-0.108986
-0.103246
-0.0975876
-0.0920652
-0.0867177
-0.0815162
-0.0764519
-0.0716267
-0.067265
-0.0635689
-0.0605568
-0.0579694
-0.0553934
-0.0524084
-0.0486928
-0.0441013
-0.0387284
-0.0329072
-0.0271067
-0.0217994
-0.0173144
-0.0137823
-0.0111445
-0.00916521
-0.0074617
-0.00568595
-0.00382408
-0.00257112
-0.00217436
-0.00178909
-0.00146407
-0.00155603
-0.00165808
-0.00105017
-0.00119166
-0.000881993
-0.00180432
-0.00141566
-0.0021403
-0.125876
-0.120364
-0.114829
-0.109214
-0.103525
-0.0978636
-0.092308
-0.0869331
-0.0817608
-0.0767777
-0.0720615
-0.0677981
-0.0641764
-0.0612174
-0.0586937
-0.05619
-0.0532872
-0.0496634
-0.045166
-0.0398647
-0.0340666
-0.0282425
-0.022847
-0.0181997
-0.0144408
-0.0115562
-0.00940785
-0.00773301
-0.00620738
-0.00463639
-0.00308817
-0.00105743
-0.000776793
-0.000721367
-0.000465413
-0.000813274
-0.00116222
-0.000441239
-0.000295379
-6.03912e-05
-0.000522717
-0.000245504
-0.00176052
-0.126003
-0.119128
-0.121611
-0.109338
-0.113665
-0.116085
-0.103721
-0.0980856
-0.092525
-0.0871405
-0.0819935
-0.0770936
-0.0724877
-0.0683276
-0.0647764
-0.0618624
-0.0593788
-0.0569342
-0.0541024
-0.0505594
-0.0461405
-0.0409081
-0.0351629
-0.0293439
-0.0238989
-0.0191454
-0.0152203
-0.0121182
-0.00974707
-0.00794267
-0.00647166
-0.00512247
-0.00381067
-0.00259145
-1.7778e-05
0.000179173
-1.4396e-05
0.000175126
-0.000370163
-0.000898484
-0.000111919
0.000254988
0.000424196
0.000328993
0.00052164
-0.00156689
-0.124729
-0.127295
-0.118406
-0.119645
-0.121056
-0.122279
-0.103813
-0.108171
-0.110608
-0.112971
-0.114162
-0.115547
-0.11675
-0.0982303
-0.0927094
-0.0873492
-0.0822433
-0.077425
-0.07293
-0.068869
-0.0653851
-0.0625022
-0.0600398
-0.0576303
-0.054858
-0.0513897
-0.0470594
-0.0419062
-0.0362029
-0.0303981
-0.0249335
-0.0201157
-0.0160781
-0.0128142
-0.0102418
-0.00824492
-0.00668074
-0.00539105
-0.00425597
-0.00322434
-0.00229797
0.0006445
0.000762435
0.000379698
0.000509903
-0.000166428
-0.000811646
-1.24385e-06
0.000525791
0.000633658
0.000833725
0.000943355
-0.00149388
-0.123982
-0.125256
-0.126751
-0.118392
-0.119714
-0.121024
-0.122305
-0.0982901
-0.102596
-0.105053
-0.107446
-0.108652
-0.110075
-0.111276
-0.11291
-0.114188
-0.115484
-0.116767
-0.0928469
-0.087566
-0.0825327
-0.0778061
-0.0734168
-0.0694482
-0.0660167
-0.0631502
-0.060685
-0.0582886
-0.055555
-0.0521504
-0.0478899
-0.0428117
-0.0371812
-0.031412
-0.0259426
-0.0210857
-0.0169737
-0.0135971
-0.0108736
-0.00870052
-0.00697927
-0.0056153
-0.00451884
-0.00362232
-0.00285851
-0.00215014
0.000990837
0.00104161
0.000527006
0.00060917
-0.000144964
-0.000847628
-5.25364e-05
0.000572585
0.000636559
0.001052
0.00109737
-0.00146579
-0.123984
-0.125337
-0.126737
-0.0929297
-0.0970702
-0.0995075
-0.101862
-0.103062
-0.104494
-0.10571
-0.107353
-0.108652
-0.109976
-0.111265
-0.0877771
-0.0828704
-0.0782582
-0.0739783
-0.0700889
-0.066691
-0.0638157
-0.0613263
-0.0589138
-0.0561996
-0.0528458
-0.0486661
-0.0436713
-0.038103
-0.0323781
-0.0269234
-0.0220452
-0.0178809
-0.0144247
-0.0115928
-0.00928411
-0.00741293
-0.00591829
-0.00475629
-0.00387907
-0.00321945
-0.00266065
-0.00208043
0.00108184
0.00108655
0.000483557
0.000529534
-0.000267118
-0.000896095
-0.000266838
0.000454861
0.000483691
0.00104341
0.0010466
-0.00153658
-0.0879451
-0.0917895
-0.0941373
-0.0963865
-0.0975647
-0.0989624
-0.100169
-0.10178
-0.103064
-0.104386
-0.105688
-0.0832205
-0.0787731
-0.0746202
-0.0708094
-0.067425
-0.0645138
-0.0619679
-0.0595141
-0.056792
-0.0534734
-0.0493525
-0.0444364
-0.0389582
-0.033299
-0.0278724
-0.0229887
-0.0187878
-0.0152706
-0.0123582
-0.00994906
-0.00796048
-0.00634225
-0.00507013
-0.00412331
-0.00345939
-0.00298781
-0.00255771
-0.0020591
0.000980172
0.000949095
0.000294077
0.000297457
-0.000525986
-0.00111597
-0.0005465
0.000155665
0.000124751
0.000873345
0.000832007
-0.00158477
-0.0834983
-0.0869449
-0.0891386
-0.0912002
-0.092323
-0.0936357
-0.0948066
-0.0963526
-0.0975986
-0.098882
-0.10016
-0.079275
-0.0753023
-0.0715937
-0.0682232
-0.0652503
-0.0626162
-0.060089
-0.057337
-0.0540347
-0.0499788
-0.0451496
-0.0397514
-0.0341651
-0.0287883
-0.0239132
-0.0196877
-0.0161226
-0.0131451
-0.0106581
-0.00857974
-0.00686247
-0.00548558
-0.00443727
-0.00369792
-0.003211
-0.00286067
-0.00248398
-0.00200961
0.0007292
0.000647257
-0.000138563
-0.000212921
-0.000953158
-0.00126439
-0.000965761
-0.000431405
-0.000441126
0.000508938
0.000390225
-0.0015508
-0.0796381
-0.0826519
-0.0846433
-0.0864507
-0.0874982
-0.0886924
-0.0897943
-0.0912172
-0.0923881
-0.0935918
-0.0948165
-0.0759086
-0.0723679
-0.0690461
-0.0660156
-0.0632686
-0.0606389
-0.0578286
-0.0545266
-0.0505127
-0.045764
-0.0404748
-0.0349828
-0.0296643
-0.024814
-0.020578
-0.0169744
-0.0139421
-0.0113898
-0.00923933
-0.00744405
-0.00598407
-0.0048459
-0.00400897
-0.00343714
-0.0030594
-0.00275298
-0.00237426
-0.00189787
0.000177164
-9.30837e-05
-0.000884727
-0.000940799
-0.00114029
-0.001315
-0.00106208
-0.000986621
-0.000924104
-0.000566267
-0.00033148
-0.00154672
-0.0763003
-0.0789151
-0.0806994
-0.0822349
-0.0831861
-0.0842383
-0.0852476
-0.0865022
-0.0875778
-0.0886734
-0.0898099
-0.0729923
-0.0698004
-0.0667605
-0.0639094
-0.0611557
-0.0582652
-0.0549443
-0.0509794
-0.0463209
-0.0411304
-0.035737
-0.0304984
-0.0256891
-0.0214555
-0.017823
-0.0147427
-0.012134
-0.00992168
-0.0080619
-0.00653531
-0.00532631
-0.00440539
-0.00373231
-0.00326442
-0.00292935
-0.00260965
-0.00220337
-0.00177337
-0.00106469
-0.00100407
-0.00107828
-0.00104425
-0.00126232
-0.00145091
-0.00126403
-0.00112823
-0.00111296
-0.000966622
-0.000975797
2.91861e-07
-0.00161873
-0.0733498
-0.0756531
-0.0772513
-0.0785431
-0.0794013
-0.0803193
-0.0812277
-0.0822965
-0.0832578
-0.0842263
-0.0852529
-0.0703505
-0.0673914
-0.0644901
-0.0616242
-0.0586367
-0.0552837
-0.0513476
-0.0467736
-0.0417065
-0.0364333
-0.0312882
-0.0265354
-0.022314
-0.0186623
-0.0155441
-0.0128854
-0.0106186
-0.00870236
-0.00711937
-0.00585317
-0.00486899
-0.00411485
-0.00354291
-0.00311182
-0.0027588
-0.00240003
-0.00199722
-0.00169901
-0.000954876
-0.000892011
-0.00103661
-0.00109147
-0.00129643
-0.00130201
-0.00152436
-0.00168276
-0.0015846
-0.00142451
-0.00144894
-0.00116512
-0.0012361
-0.000909855
-0.000942556
-0.00175594
-0.0706253
-0.072732
-0.0741889
-0.0753029
-0.0760757
-0.0768797
-0.0776951
-0.0785972
-0.0794519
-0.0802991
-0.0812103
-0.0678007
-0.0649362
-0.0620092
-0.0589375
-0.055541
-0.0516374
-0.0471557
-0.042209
-0.0370651
-0.0320283
-0.0273403
-0.0231466
-0.0194906
-0.0163426
-0.0136409
-0.0113253
-0.00935945
-0.0077263
-0.00641057
-0.00537553
-0.00456111
-0.00390461
-0.0033648
-0.00291917
-0.00252932
-0.0021502
-0.00181626
-0.0016794
-0.00100236
-0.00108011
-0.00134082
-0.00143205
-0.00166806
-0.00171065
-0.00188848
-0.00199472
-0.00198055
-0.00187441
-0.00193006
-0.00154142
-0.00165553
-0.00117074
-0.00125756
-0.00193532
-0.0679732
-0.0700069
-0.0713703
-0.0723857
-0.0730951
-0.0738211
-0.0745611
-0.0753393
-0.0761014
-0.076846
-0.0776551
-0.0651825
-0.0622655
-0.0591496
-0.055719
-0.0518323
-0.0474371
-0.0426293
-0.0376294
-0.032708
-0.0281023
-0.0239529
-0.0203026
-0.0171325
-0.0143948
-0.0120393
-0.0100297
-0.00835188
-0.00699107
-0.00591108
-0.00504847
-0.0043309
-0.00370523
-0.00315318
-0.00267276
-0.00225459
-0.00190495
-0.00167705
-0.00168777
-0.00136011
-0.00147201
-0.00180524
-0.00194646
-0.00216894
-0.00221501
-0.0022623
-0.00235552
-0.00251645
-0.00236503
-0.00238151
-0.00210303
-0.00226174
-0.00160034
-0.00173069
-0.00207247
-0.0652633
-0.0673432
-0.0686628
-0.0696629
-0.0703286
-0.0710087
-0.071696
-0.0724044
-0.0731021
-0.0737754
-0.0745054
-0.0623719
-0.0592615
-0.0558231
-0.0519631
-0.0476513
-0.0429739
-0.0381208
-0.0333324
-0.028821
-0.0247227
-0.0210867
-0.0179064
-0.015146
-0.0127572
-0.0107103
-0.00899308
-0.00759195
-0.00647016
-0.00556447
-0.0047982
-0.00410894
-0.0034687
-0.00288545
-0.00238388
-0.00198273
-0.00170047
-0.0015638
-0.00166679
-0.00188778
-0.00205356
-0.00243436
-0.00257949
-0.00251224
-0.00229421
-0.00288911
-0.00264257
-0.00308999
-0.00314301
-0.00271717
-0.00284298
-0.00223657
-0.0024167
-0.00205768
-0.0623943
-0.0646278
-0.0659468
-0.0670076
-0.0676526
-0.0683212
-0.0689785
-0.0696718
-0.0703294
-0.0709605
-0.0716385
-0.0592843
-0.0558689
-0.0520447
-0.0478091