/*--------------------------------*- C++ -*----------------------------------*\
| =========                 |                                                 |
| \\      /  F ield         | OpenFOAM: The Open Source CFD Toolbox           |
|  \\    /   O peration     | Version:  v1912                                 |
|   \\  /    A nd           | Website:  www.openfoam.com                      |
|    \\/     M anipulation  |                                                 |
\*---------------------------------------------------------------------------*/
FoamFile
{
    version     2.0;
    format      ascii;
    class       surfaceScalarField;
    location    "20";
    object      phi;
}
// * * * * * * * * * * * * * * * * * * * * * * * * * * * * * * * * * * * * * //

dimensions      [0 3 -1 0 0 0 0];
oriented        oriented;


internalField   nonuniform List<scalar> 
7351
(
-3.18562e-05
0.000882547
-5.17915e-05
0.00358157
-3.82443e-05
0.00092236
-8.85974e-05
0.00656751
-6.86543e-05
0.00361446
-3.38923e-05
0.000963821
-0.000125651
0.00927778
-0.000103189
0.00660379
-6.69673e-05
0.00365501
-2.07887e-05
0.000993153
-0.000165835
0.0114897
-0.000141443
0.00931893
-9.90705e-05
0.00664224
-5.17288e-05
0.00369243
-1.2155e-05
0.00101042
-0.00020261
0.0131159
-0.000181064
0.0115314
-0.000134264
0.00935971
-8.77097e-05
0.00668445
-3.98369e-05
0.0037246
-7.7924e-06
0.00102195
-0.000228279
0.0141141
-0.000216771
0.0131538
-0.000174964
0.0115765
-0.000126224
0.00940268
-7.32716e-05
0.00672236
-3.26423e-05
0.00375034
-6.97568e-06
0.00102815
-0.000251631
0.014499
-0.000248023
0.0141482
-0.000210479
0.0131941
-0.000161984
0.0116168
-0.000109076
0.00944102
-6.27636e-05
0.00675416
-2.81219e-05
0.00377042
-5.76898e-06
0.00103369
-0.000275154
0.0142423
-0.00027048
0.0145226
-0.000240283
0.0141808
-0.000193218
0.0132276
-0.000142233
0.0116521
-9.84296e-05
0.00947676
-5.51957e-05
0.00678158
-2.41868e-05
0.00378715
-2.19697e-06
0.001034
-0.000295123
0.0133333
-0.00029755
0.0142732
-0.000261492
0.0145479
-0.000210942
0.0142017
-0.000168645
0.0132557
-0.000129171
0.011684
-8.81787e-05
0.00950901
-5.03201e-05
0.00680684
-1.90077e-05
0.00380236
5.68343e-06
0.00102741
-0.000331369
0.0117338
-0.000333344
0.0133672
-0.00028447
0.0142971
-0.000230605
0.0145683
-0.000189384
0.0142231
-0.000148863
0.0132747
-0.000112249
0.0117075
-7.37497e-05
0.00953131
-4.19755e-05
0.00682963
-9.76167e-06
0.00381619
1.41655e-05
0.00100885
-0.000357501
0.00947166
-0.000365947
0.0117699
-0.000293262
0.0133798
-0.000235937
0.014305
-0.000195053
0.0145751
-0.000163033
0.0142377
-0.000130531
0.0132926
-9.60058e-05
0.0117298
-6.61158e-05
0.00955469
-2.95939e-05
0.00684776
5.20505e-06
0.00382156
2.1702e-05
0.000982694
0.00673168
-0.000186684
-0.000162427
-0.000404922
0.00950825
-0.000306325
0.0117821
-0.000234785
0.0133782
-0.000195851
0.0143055
-0.000163167
0.0145744
-0.000135975
0.0142424
-0.000106891
0.0133022
-8.16382e-05
0.0117443
-4.77763e-05
0.00957165
-1.64202e-05
0.00686737
1.61466e-05
0.00382176
2.3187e-05
0.000953822
0.00675361
-0.000159245
-0.000269453
-0.00231221
0.00229879
-0.000171907
-0.000105132
-0.000288702
0.00949072
-0.000214498
0.0117612
-0.000182216
0.0133642
-0.000152712
0.0142953
-0.000137118
0.0145751
-0.000116321
0.0142515
-9.20293e-05
0.0133124
-6.60742e-05
0.0117624
-3.89737e-05
0.00959232
-1.7993e-06
0.00688174
2.53181e-05
0.00381626
1.84961e-05
0.000935685
0.00668562
-3.03761e-05
-0.00019049
-0.00224839
0.00225263
-0.000165221
-0.000219787
-0.00153595
0.00147878
-7.14654e-05
-4.22782e-05
-2.57493e-05
-0.000165797
0.00944152
-0.000147624
0.0117274
-0.00013214
0.013344
-0.000123169
0.0142806
-0.000108978
0.0145669
-8.96623e-05
0.0142486
-7.53931e-05
0.0133206
-4.84321e-05
0.0117701
-1.93855e-05
0.00960753
9.36948e-06
0.00689639
2.53329e-05
0.00380868
7.01268e-06
0.000928609
0.00658947
2.03254e-05
-9.25739e-05
-0.00216617
0.00217152
-3.59929e-05
-0.000104109
-0.00144949
0.00140768
-3.54795e-05
-8.92895e-05
-0.000102704
-8.84074e-05
-0.000480396
0.000451868
-4.25372e-05
-0.000499651
-2.23854e-05
-1.01788e-05
-9.30569e-05
0.00938357
-9.90582e-05
0.0116908
-0.000102073
0.0133206
-9.24222e-05
0.0142635
-8.21925e-05
0.0145588
-7.04176e-05
0.0142431
-5.47018e-05
0.0133262
-3.283e-05
0.0117831
-1.00936e-05
0.00962599
1.33063e-05
0.0069078
1.47551e-05
0.00380156
-3.34386e-06
0.000933587
0.00652373
2.59511e-05
-5.4077e-05
-0.00210893
0.00213031
-2.47958e-06
-3.06205e-05
-0.00133761
0.00131057
5.6189e-06
-1.4745e-05
-3.4069e-05
1.93755e-07
-0.000360211
0.000345984
-2.18747e-05
-0.000395365
-5.47381e-05
0.000416268
-6.74104e-05
-6.7918e-05
-0.000276812
0.000246644
-1.20742e-05
-0.00029423
-4.44868e-06
-1.72806e-06
-5.85649e-05
0.0093444
-6.99741e-05
0.0116611
-7.16665e-05
0.0133014
-7.0843e-05
0.0142519
-5.96694e-05
0.0145477
-5.21162e-05
0.0142404
-3.45459e-05
0.0133272
-2.25892e-05
0.0117948
-1.7591e-06
0.00964114
8.74951e-06
0.00691556
2.26903e-06
0.00379617
-1.43337e-05
0.000944131
0.00647419
2.65078e-05
-3.8033e-05
-0.00208898
0.00211217
2.08489e-06
-1.33057e-05
-0.00128147
0.00127926
5.98409e-06
-7.46195e-06
-8.7249e-06
6.63466e-06
-0.00030989
0.000315619
-1.34617e-07
-0.000322022
-2.37216e-06
0.000321172
-9.16725e-06
-5.36119e-07
-0.000123525
0.000101485
-0.000178454
0.000201235
-2.22351e-05
-4.54014e-05
-7.96816e-05
6.76776e-05
-8.40585e-05
-3.75197e-05
0.00930658
-5.35919e-05
0.0116375
-5.38396e-05
0.0132811
-4.50331e-05
0.014237
-4.22523e-05
0.0145377
-2.97325e-05
0.0142357
-2.95795e-05
0.0133346
-1.71574e-05
0.0118112
-6.31736e-06
0.00965675
-3.98025e-06
0.00692089
-1.40966e-05
0.00379341
-1.61796e-05
0.000957648
0.00644265
2.34642e-05
-3.06489e-05
-0.00208208
0.0021039
3.72579e-06
-8.23272e-06
-0.00126585
0.00126882
4.0105e-06
-5.3763e-06
-5.45077e-06
5.38834e-06
-0.000306127
0.000311438
2.43906e-07
-0.000312866
-1.1605e-06
0.000307754
-1.18093e-06
1.27659e-06
-8.94808e-05
8.93404e-05
-9.18177e-05
9.23538e-05
4.54014e-05
-2.27358e-05
0.00927887
-2.52046e-05
0.0116136
-2.70387e-05
0.0132668
-2.68064e-05
0.0142226
-2.26962e-05
0.0145315
-2.44928e-05
0.0142312
-1.62327e-05
0.0133335
-1.68441e-05
0.0118213
-1.54203e-05
0.00966785
-1.65638e-05
0.00692251
-2.21936e-05
0.003795
-1.70744e-05
0.000969959
0.00642018
2.08786e-05
-2.39905e-05
-0.00207847
0.00209776
3.03247e-06
-6.02797e-06
-0.00125942
0.00126348
3.17991e-06
-4.39202e-06
-3.96212e-06
4.86723e-06
-0.000306336
0.00031031
-2.19958e-08
-0.000310784
-9.08619e-07
0.000306844
-9.34293e-07
1.42966e-06
-8.81294e-05
8.82647e-05
-8.93631e-05
8.80865e-05
-1.21583e-05
0.00925908
-1.86205e-05
0.0115988
-1.5031e-05
0.013252
-7.44029e-06
0.014208
-9.60036e-06
0.0145169
-1.64608e-05
0.0142316
-2.52925e-05
0.0133425
-2.4468e-05
0.011831
-2.82348e-05
0.00967817
-3.07964e-05
0.00692775
-2.55896e-05
0.00380218
-1.34489e-05
0.00098703
0.00640477
2.1984e-05
-1.95103e-05
-0.00207834
0.00209395
4.40003e-06
-4.7368e-06
-0.0012555
0.00125906
3.19524e-06
-4.53046e-06
-3.01464e-06
4.5846e-06
-0.000306477
0.000309481
-1.08601e-07
-0.000310123
-9.67083e-07
0.00030663
-4.47603e-07
1.25062e-06
-8.784e-05
8.77995e-05
-8.87544e-05
8.73247e-05
-1.88507e-06
0.00924849
5.18833e-06
0.0115867
7.94397e-06
0.0132424
-7.46876e-07
0.0142006
-6.89227e-06
0.0145078
-1.63865e-05
0.0142228
-3.10381e-05
0.0133482
-4.21081e-05
0.011843
-4.49018e-05
0.00969054
-3.6404e-05
0.00693859
-2.43931e-05
0.00381364
-1.21569e-05
0.00100084
0.00639525
2.35531e-05
-1.82777e-05
-0.00207649
0.00209216
5.18992e-06
-3.05135e-06
-0.00125215
0.00125697
3.34138e-06
-4.53986e-06
-2.55161e-06
4.55334e-06
-0.000305795
0.000309033
-2.28588e-07
-0.000309834
-6.75577e-07
0.000306632
-3.77839e-07
1.25123e-06
-8.75581e-05
8.73631e-05
-8.8564e-05
8.73134e-05
9.56304e-06
0.00923678
1.14444e-05
0.0115761
1.34195e-05
0.0132241
1.07024e-05
0.0141822
-7.84941e-06
0.0144983
-2.81504e-05
0.0142192
-4.45502e-05
0.0133504
-5.52184e-05
0.0118532
-5.17942e-05
0.00970515
-4.10198e-05
0.00695523
-2.72146e-05
0.00383186
-1.25748e-05
0.00101906
0.00639347
2.64673e-05
-1.51281e-05
-0.00207554
0.00209383
4.94227e-06
-1.5083e-06
-0.00125179
0.00125641
3.31053e-06
-3.58577e-06
-3.00858e-06
4.60279e-06
-0.000306007
0.000309226
-1.11441e-07
-0.000310065
-6.07803e-07
0.000306575
-2.21187e-07
9.84536e-07
-8.74769e-05
8.71907e-05
-8.81947e-05
8.69434e-05
1.68396e-05
0.00924006
2.54402e-05
0.0115736
2.08234e-05
0.0132195
5.07876e-06
0.0141699
-2.02947e-05
0.0144907
-4.80767e-05
0.0142226
-6.78879e-05
0.0133618
-6.95567e-05
0.0118695
-5.99117e-05
0.00972442
-4.28537e-05
0.00697372
-2.68981e-05
0.00384858
-1.68323e-05
0.00103718
0.00639776
2.57508e-05
-1.50503e-05
-0.00207791
0.00209666
6.69232e-06
-2.92985e-07
-0.00125324
0.00125803
3.5266e-06
-3.82721e-06
-2.86982e-06
4.60901e-06
-0.00030606
0.000309629
-4.21422e-07
-0.00030935
-5.77057e-07
0.000306181
-2.65081e-07
1.24184e-06
-8.72948e-05
8.71008e-05
-8.79284e-05
8.69438e-05
2.04165e-05
0.00923624
2.43352e-05
0.0115604
2.05604e-05
0.0131983
-5.4612e-06
0.0141539
-3.65519e-05
0.0144782
-6.63113e-05
0.0142201
-7.95119e-05
0.0133716
-7.85989e-05
0.0118894
-6.74024e-05
0.00975015
-4.94149e-05
0.00699757
-3.3724e-05
0.00386715
-2.00133e-05
0.00105913
0.00640313
2.93932e-05
-1.38475e-05
-0.00208336
0.00210203
7.5007e-06
-1.27075e-06
-0.00125503
0.00126127
2.96709e-06
-3.36137e-06
-2.81145e-06
4.89244e-06
-0.000307057
0.00031056
-6.32226e-08
-0.000310231
-5.9003e-07
0.000306933
-1.53216e-07
1.33966e-06
-8.73718e-05
8.68998e-05
-8.80135e-05
8.67716e-05
2.70279e-05
0.00924323
3.09485e-05
0.0115607
1.02917e-05
0.0131892
-2.68409e-05
0.0141454
-6.90281e-05
0.0144812
-9.12459e-05
0.0142318
-0.000102328
0.013395
-9.13346e-05
0.0119132
-7.24003e-05
0.009774
-5.49344e-05
0.00702065
-3.89898e-05
0.00388636
-2.28367e-05
0.00108099
0.00641242
2.84878e-05
-1.34159e-05
-0.00208738
0.00210906
7.02761e-06
-7.19908e-08
-0.00125795
0.00126624
3.05132e-06
-3.70764e-06
-2.31067e-06
4.67314e-06
-0.000307735
0.000310936
-3.9909e-07
-0.000310908
-5.75665e-07
0.000307528
-1.45016e-07
1.26791e-06
-8.75155e-05
8.74007e-05
-8.80959e-05
8.67562e-05
2.49462e-05
0.00923815
1.6145e-05
0.0115437
-1.63306e-05
0.0131726
-6.34089e-05
0.0141385
-0.000101418
0.0144902
-0.000122859
0.0142518
-0.000112449
0.0134165
-9.93304e-05
0.0119415
-8.10959e-05
0.00980085
-6.07229e-05
0.00704239
-4.63134e-05
0.00390898
-2.34905e-05
0.00110345
0.00641858
2.92682e-05
-1.05011e-05
-0.00209592
0.00211732
7.43069e-06
4.08065e-07
-0.00126312
0.00126999
3.40346e-06
-3.69204e-06
-2.11387e-06
4.68939e-06
-0.000309426
0.000312684
-2.79291e-08
-0.000312313
-5.61619e-07
0.000308881
-1.10933e-07
1.36462e-06
-8.77762e-05
8.73225e-05
-8.84382e-05
8.71702e-05
2.46418e-05
0.00924103
4.64816e-06
0.0115354
-4.80544e-05
0.0131643
-0.000103831
0.0141417
-0.00014224
0.0145099
-0.000137937
0.0142777
-0.000124318
0.0134415
-0.00010509
0.0119653
-8.21113e-05
0.00982211
-6.58593e-05
0.00706189
-4.91276e-05
0.00393336
-2.11266e-05
0.00112278
0.00642231
2.62135e-05
-9.02843e-06
-0.00210434
0.00212432
7.80395e-06
1.29462e-06
-0.00126865
0.00127672
3.4484e-06
-3.92755e-06
-2.22767e-06
4.49531e-06
-0.00031023
0.000314018
-3.6745e-07
-0.000313694
-5.39295e-07
0.000310379
-8.27764e-08
1.18322e-06
-8.81041e-05
8.80946e-05
-8.86207e-05
8.72561e-05
1.04403e-05
0.00922298
-3.73051e-05
0.0115127
-0.000107317
0.0131614
-0.00016365
0.0141621
-0.000169777
0.0145413
-0.000156187
0.0143095
-0.000131484
0.0134682
-0.000104981
0.0119887
-8.70912e-05
0.00984308
-7.0229e-05
0.00708186
-4.76414e-05
0.00395797
-1.54736e-05
0.00113642
0.00641584
2.24942e-05
-5.75335e-06
-0.00211383
0.0021325
7.18424e-06
1.87837e-06
-0.00127495
0.00128085
3.23639e-06
-2.4462e-06
-1.6492e-06
4.04118e-06
-0.000312469
0.00031621
-8.4832e-08
-0.000315577
-4.49218e-07
0.000312137
-6.11101e-08
1.25123e-06
-8.85146e-05
8.81423e-05
-8.91247e-05
8.79415e-05
-9.61709e-06
0.00920807
-8.67169e-05
0.0115055
-0.000177157
0.0131818
-0.000211379
0.0142043
-0.000192369
0.0145776
-0.000155444
0.0143336
-0.000125947
0.0134888
-0.000102883
0.0120036
-8.81358e-05
0.00985981
-7.08967e-05
0.00710392
-4.21474e-05
0.00398292
-9.22053e-06
0.00114402
0.00639694
1.17392e-05
-5.44297e-06
-0.00212348
0.00213723
6.71979e-06
1.68595e-06
-0.00128096
0.00128778
2.63889e-06
-2.74781e-06
-1.61264e-06
3.72454e-06
-0.000314471
0.000317526
-4.03515e-08
-0.000316728
-6.92168e-07
0.000314159
3.71435e-09
1.19098e-06
-8.90323e-05
8.89688e-05
-8.94067e-05
8.81555e-05
-5.93286e-05
0.00916927
-0.000181158
0.0114987
-0.000252931
0.0132185
-0.000238022
0.0142498
-0.000186004
0.014608
-0.000146648
0.014354
-0.000117575
0.013503
-0.000101778
0.0120167
-8.74756e-05
0.00987532
-6.37929e-05
0.0071243
-3.46563e-05
0.0040067
-2.61776e-06
0.00114498
0.00635038
-3.08552e-06
-7.90043e-06
-0.00213104
0.00214029
2.90176e-06
1.2431e-06
-0.0012853
0.00129002
2.08046e-06
-1.66561e-06
-9.03751e-07
4.0859e-06
-0.000316666
0.000319395
-8.98478e-08
-0.000318853
-2.99067e-07
0.000316097
-1.50826e-08
1.09805e-06
-8.92535e-05
8.91321e-05
-9.00549e-05
8.88639e-05
-0.000136212
0.00913886
-0.000285179
0.0115443
-0.000295159
0.013281
-0.000232282
0.0142952
-0.000170847
0.0146311
-0.000129882
0.0143652
-0.000107232
0.0135071
-9.36238e-05
0.0120215
-7.74723e-05
0.00988777
-5.55728e-05
0.0071442
-2.23837e-05
0.00402513
1.59159e-06
0.00114188
0.00627261
-3.81676e-05
-2.12231e-05
-0.00213297
0.0021308
-1.42014e-06
-1.59975e-06
-0.00128965
0.00129346
1.71713e-06
-2.42646e-06
-9.8052e-07
2.98489e-06
-0.000318609
0.000320456
-1.45831e-07
-0.000320444
-5.59945e-07
0.000317816
4.86064e-08
1.05118e-06
-9.00184e-05
8.98739e-05
-9.02661e-05
8.9168e-05
-0.000290802
0.00913511
-0.0003595
0.0116008
-0.000280817
0.0133264
-0.000195497
0.0143194
-0.000141193
0.0146418
-0.000106483
0.0143637
-9.17107e-05
0.0135045
-8.32258e-05
0.0120266
-6.71035e-05
0.00989857
-4.36101e-05
0.0071645
-1.31993e-05
0.00403842
2.54977e-06
0.0011375
0.00618471
-0.000126683
-7.4143e-05
-0.00212057
0.00210139
-1.73078e-05
-9.71227e-06
-0.00128935
0.00128853
9.35563e-07
-1.69173e-06
-8.02552e-07
2.73582e-06
-0.000319988
0.000322499
-4.7801e-07
-0.000321779
-2.45255e-07
0.000319581
8.66662e-08
9.5679e-07
-9.00829e-05
8.97987e-05
-9.08088e-05
8.97576e-05
-0.000407887
0.00919739
-0.000319355
0.0116496
-0.000218414
0.0133513
-0.00015108
0.0143268
-0.000106727
0.01464
-8.71252e-05
0.0143577
-7.53525e-05
0.0134955
-6.71065e-05
0.0120259
-5.54971e-05
0.00990973
-3.15439e-05
0.00718187
-7.90651e-06
0.00404741
7.67686e-07
0.00113497
0.00621592
-0.000217065
-0.000221935
-0.00206358
0.00201012
-7.4155e-05
-3.72501e-05
-0.0012795
0.00126698
-1.0363e-06
-2.6383e-06
-1.06602e-06
1.43437e-06
-0.000321202
0.00032274
-3.45163e-07
-0.000322924
-3.61697e-07
0.000321294
3.55622e-08
8.75542e-07
-9.07377e-05
9.03037e-05
-9.09123e-05
8.99555e-05
-0.000348119
0.00922035
-0.000225573
0.0116523
-0.000150505
0.0133494
-0.000105501
0.0143256
-7.84479e-05
0.0146313
-6.72823e-05
0.0143498
-6.28089e-05
0.0134912
-5.68542e-05
0.0120269
-4.04032e-05
0.00991786
-2.15694e-05
0.00719443
-4.5864e-06
0.00405096
-4.90887e-06
0.00113776
0.00618201
-7.7106e-05
-0.000234919
-0.0019518
0.00193649
-0.000200296
-0.000162765
-0.00123268
0.0011742
-1.29159e-05
-3.72171e-06
-1.34538e-06
-2.28671e-06
-0.000321889
0.000322227
-8.34181e-07
-0.000323492
-2.81783e-07
0.000322231
8.69732e-08
5.73255e-07
-9.06579e-05
9.03783e-05
-9.11175e-05
9.0242e-05
-0.000181618
0.0091863
-0.000131302
0.0116396
-9.70434e-05
0.0133409
-6.78149e-05
0.0143124
-5.25496e-05
0.0146152
-4.55667e-05
0.0143317
-4.56682e-05
0.0134793
-4.16781e-05
0.0120276
-3.02647e-05
0.00992565
-1.28778e-05
0.0072014
-7.0621e-06
0.00405134
-1.23662e-05
0.00114824
0.00608833
1.48905e-05
-0.000103175
-0.0018595
0.00183985
-5.85089e-05
-0.000158486
-0.00107414
0.00102484
-7.21046e-05
-7.80232e-05
-1.8092e-05
-4.41944e-05
-0.000314711
0.000304346
-2.94315e-06
-0.000317903
-1.20034e-06
0.000320719
-2.93258e-07
2.02277e-07
-9.11033e-05
9.03831e-05
-9.12114e-05
9.06382e-05
-8.08945e-05
0.0091338
-7.08934e-05
0.0116133
-5.40755e-05
0.0133287
-3.79192e-05
0.0142994
-2.89934e-05
0.0145998
-2.69385e-05
0.0143137
-2.83405e-05
0.013466
-2.48972e-05
0.0120214
-1.93511e-05
0.00993092
-1.40484e-05
0.00720694
-1.69942e-05
0.00405402
-2.01997e-05
0.00116654
0.00602788
3.57557e-05
-5.4802e-05
-0.00176921
0.00178653
-2.1181e-06
-3.22128e-05
-0.000943388
0.000893234
3.86867e-06
-1.29617e-05
-6.17051e-05
-1.5949e-05
-0.000205415
0.000178631
-4.5146e-05
-0.000258005
-2.50731e-05
0.000290981
-4.57771e-06
-1.10658e-05
-8.88046e-05
8.5698e-05
-9.01487e-05
8.99464e-05
-3.36534e-05
0.00910334
-3.19505e-05
0.011595
-2.4366e-05
0.0133146
-1.5432e-05
0.014284
-9.85386e-06
0.0145813
-1.14054e-05
0.0142953
-1.16605e-05
0.0134513
-1.81316e-05
0.012019
-1.58424e-05
0.00993142
-1.89919e-05
0.00720752
-2.55362e-05
0.00405783
-2.78752e-05
0.00119321
0.00599937
3.84477e-05
-4.2614e-05
-0.00174211
0.00177119
5.67857e-06
-1.09088e-05
-0.00086254
0.000860636
4.52628e-06
-4.92598e-06
-5.74405e-06
4.68215e-06
-8.77028e-05
9.14785e-05
-0.000100806
0.000116755
-4.50973e-05
-7.0117e-05
8.11828e-05
-1.1567e-05
0.00908426
-1.08802e-05
0.0115844
-1.78495e-06
0.013304
1.06365e-05
0.0142652
1.15605e-05
0.014559
8.42457e-06
0.0142752
-5.15649e-06
0.0134375
-9.78901e-06
0.0120115
-1.81492e-05
0.00992921
-2.57061e-05
0.0072065
-3.69671e-05
0.00406566
-3.40566e-05
0.00122648
0.00598966
4.06458e-05
-4.11045e-05
-0.00173633
0.00176788
7.29736e-06
-7.54889e-06
-0.000849716
0.000854646
3.95748e-06
-4.05372e-06
-4.34579e-06
4.19963e-06
-8.56485e-05
9.02706e-05
-9.04954e-05
8.58133e-05
3.67193e-06
0.00907438
5.88785e-06
0.0115788
1.70183e-05
0.0132957
2.61509e-05
0.0142474
2.9128e-05
0.0145353
1.80433e-05
0.0142492
8.54466e-06
0.013417
-8.25989e-06
0.0120003
-2.17767e-05
0.00992423
-3.58516e-05
0.00720469
-4.831e-05
0.00407957
-3.90862e-05
0.00126582
0.00599239
4.19074e-05
-3.96991e-05
-0.00173332
0.00176668
6.62766e-06
-6.62637e-06
-0.000847237
0.000854941
4.09053e-06
-4.17586e-06
-3.85103e-06
4.0291e-06
-8.59614e-05
8.9942e-05
-9.00699e-05
8.58703e-05
1.03343e-05
0.00907279
2.23174e-05
0.011577
3.45413e-05
0.0132895
4.26909e-05
0.014234
4.38378e-05
0.0145088
2.91126e-05
0.0142277
5.10872e-06
0.0134026
-1.42096e-05
0.0119919
-3.3332e-05
0.00992124
-4.80641e-05
0.00720425
-5.77021e-05
0.00409836
-4.40684e-05
0.00131077
0.00600015
4.44309e-05
-4.08045e-05
-0.00173299
0.00176688
8.11025e-06
-6.02728e-06
-0.000848366
0.000854793
4.26279e-06
-4.38636e-06
-4.17317e-06
4.21572e-06
-8.60771e-05
9.03481e-05
-9.01863e-05
8.61572e-05
1.8177e-05
0.00907816
3.52856e-05
0.0115739
5.02969e-05
0.0132763
5.7627e-05
0.0142144
4.79615e-05
0.0144858
3.42615e-05
0.0141959
9.33221e-06
0.0133776
-1.58813e-05
0.0119741
-4.15901e-05
0.00991482
-5.92719e-05
0.00720623
-6.767e-05
0.0041231
-4.98081e-05
0.00136263
0.00601025
4.86293e-05
-3.98621e-05
-0.00173303
0.00176825
9.04617e-06
-6.83344e-06
-0.000848756
0.000857203
4.58696e-06
-4.61219e-06
-4.31969e-06
4.41855e-06
-8.60063e-05
9.02811e-05
-9.03916e-05
8.61759e-05
3.01898e-05
0.00908687
5.0929e-05
0.0115782
6.34361e-05
0.0132728
7.23205e-05
0.0141899
6.14369e-05
0.0144583
3.40117e-05
0.0141713
1.16704e-06
0.0133608
-2.60008e-05
0.0119588
-5.09253e-05
0.00990707
-7.02294e-05
0.00720976
-7.72902e-05
0.00415233
-5.72409e-05
0.00142255
0.00602374
5.28675e-05
-3.91501e-05
-0.00173369
0.00177138
1.01678e-05
-5.4261e-06
-0.00085049
0.000859286
4.95423e-06
-4.76832e-06
-4.80978e-06
4.85073e-06
-8.58071e-05
9.05091e-05
-9.03996e-05
8.5981e-05
3.68943e-05
0.00909562
5.67129e-05
0.0115768
7.51826e-05
0.0132616
7.45135e-05
0.0141712
5.73278e-05
0.0144324
2.96873e-05
0.014142
-2.47157e-06
0.0133373
-3.63381e-05
0.0119447
-6.1472e-05
0.00989932
-8.35517e-05
0.00721759
-8.94037e-05
0.00418706
-6.56886e-05
0.00149173
0.00603912
5.65994e-05
-3.59617e-05
-0.00173635
0.00177499
1.15594e-05
-4.5998e-06
-0.00085372
0.000862843
5.40624e-06
-4.93633e-06
-5.02054e-06
5.17857e-06
-8.5831e-05
9.08098e-05
-9.05746e-05
8.57239e-05
4.81649e-05
0.00911051
7.38372e-05
0.0115868
8.55007e-05
0.0132561
8.12981e-05
0.0141501
5.99562e-05
0.0144041
2.44427e-05
0.0141166
-1.02071e-05
0.0133121
-4.57153e-05
0.0119298
-7.32047e-05
0.00989032
-9.37211e-05
0.00722399
-0.000104084
0.00422847
-7.50287e-05
0.00157036
0.00605802
5.86111e-05
-3.55518e-05
-0.00174116
0.00178108
1.28522e-05
-3.57167e-06
-0.000857996
0.000866661
5.80219e-06
-5.10367e-06
-5.40239e-06
5.4429e-06
-8.60174e-05
9.13894e-05
-9.09608e-05
8.57823e-05
5.30843e-05
0.00912173
7.76886e-05
0.0115852
8.87386e-05
0.0132423
7.70301e-05
0.0141301
5.21647e-05
0.0143752
1.60152e-05
0.0140898
-2.29773e-05
0.0132896
-5.28144e-05
0.0119106
-8.45244e-05
0.00988286
-0.000107724
0.00722991
-0.000116965
0.00427356
-8.33854e-05
0.00165702
0.00608189
6.05545e-05
-3.169e-05
-0.00174716
0.00178801
1.33041e-05
-2.85595e-06
-0.000861722
0.00087088
6.01724e-06
-5.22012e-06
-5.19586e-06
5.74117e-06
-8.61737e-05
9.16488e-05
-9.13538e-05
8.59109e-05
6.56731e-05
0.00914266
9.18195e-05
0.011593
9.54011e-05
0.0132316
7.91926e-05
0.0141071
4.65411e-05
0.0143467
9.53607e-06
0.0140588
-2.93849e-05
0.0132675
-6.64303e-05
0.0118939
-9.63416e-05
0.00987332
-0.000123068
0.00723833
-0.000130941
0.00432381
-9.01697e-05
0.00174954
0.00610867
6.36653e-05
-2.91266e-05
-0.00175643
0.00179881
1.38151e-05
-2.10055e-06
-0.000866759
0.000875902
6.10383e-06
-5.30695e-06
-5.24445e-06
5.80007e-06
-8.65333e-05
9.21554e-05
-9.19743e-05
8.62332e-05
7.66519e-05
0.00915043
9.04899e-05
0.0115914
8.57197e-05
0.0132201
6.70461e-05
0.0140833
3.37039e-05
0.0143208
-5.7041e-06
0.0140345
-4.20816e-05
0.0132436
-8.16979e-05
0.0118806
-0.000110004
0.00986205
-0.000133338
0.00724267
-0.000139672
0.00437524
-8.77869e-05
0.00183882
0.00612992
7.44516e-05
-1.59248e-05
-0.0017698
0.00181498
1.56899e-05
-8.58686e-07
-0.000871854
0.000881996
5.70966e-06
-4.85579e-06
-5.06526e-06
5.75546e-06
-8.70067e-05
9.25467e-05
-9.25129e-05
8.67128e-05
8.86539e-05
0.00916429
9.10636e-05
0.0115976
8.37399e-05
0.0132098
5.57456e-05
0.014064
2.22796e-05
0.0142945
-1.75601e-05
0.0140118
-5.68579e-05
0.01322
-8.9586e-05
0.0118608
-0.000120077
0.00984975
-0.000140907
0.00724514
-0.000142858
0.00443134
-6.29724e-05
0.00190242
0.00614846
7.25733e-05
-8.90062e-07
-0.0017929
0.00184165
2.4089e-05
4.83773e-06
-0.000880093
0.000892841
5.60308e-06
-4.45763e-06
-4.89619e-06
5.5031e-06
-8.7725e-05
9.30085e-05
-9.29097e-05
8.71543e-05
7.86318e-05
0.0091714
7.88459e-05
0.0115948
6.48688e-05
0.0131943
4.1957e-05
0.0140408
6.55765e-06
0.0142686
-3.26889e-05
0.0139866
-7.10923e-05
0.0132017
-0.000105678
0.0118473
-0.000124055
0.00983397
-0.000140123
0.00724366
-0.000105031
0.00447416
1.63075e-05
0.00617611
7.04948e-05
-1.45189e-05
-0.00182622
0.00187728
1.1923e-05
1.17579e-05
1.52901e-05
-0.000895752
0.00091715
4.79507e-06
-2.48081e-06
-3.81342e-06
4.76284e-06
-8.89107e-05
9.40925e-05
-9.34922e-05
8.79891e-05
7.21057e-05
0.00918803
7.02383e-05
0.0115991
5.50341e-05
0.0131867
2.40311e-05
0.0140259
-1.39795e-05
0.0142503
-5.45067e-05
0.0139693
-8.8347e-05
0.0131843
-0.000109092
0.0118332
-0.000122722
0.00981717
-9.95719e-05
0.00723858
-1.41382e-05
0.00620488
6.66143e-05
-2.42641e-05
-0.00185307
0.00190515
1.63209e-05
2.40811e-06
1.3416e-05
-3.80533e-06
-0.000581848
0.000599782
-5.28872e-06
-0.000555989
-1.33548e-05
0.000375442
-1.41868e-06
3.51807e-06
-9.20649e-05
9.67175e-05
-9.47942e-05
9.00314e-05
5.59549e-05
0.00919469
5.44388e-05
0.011591
3.47639e-05
0.0131688
6.36631e-06
0.0140002
-3.33421e-05
0.0142257
-7.36399e-05
0.0139536
-0.000101306
0.0131779
-0.000108756
0.0118211
-8.5048e-05
0.00980363
-1.94868e-05
0.00623598
6.28943e-05
-3.42657e-05
-0.00187201
0.00192515
1.44412e-05
-8.95629e-07
1.24669e-05
-4.10251e-06
-0.000606657
0.000617869
4.26031e-06
-0.00060738
2.82793e-06
-0.000597936
3.94259e-06
-1.92308e-06
-0.000358265
0.000356693
-2.93778e-06
4.21211e-06
9.55548e-05
9.93245e-05
4.88793e-05
0.00920832
4.45559e-05
0.0115888
2.07388e-05
0.0131577
-1.94003e-05
0.0139865
-6.47662e-05
0.0142171
-9.79713e-05
0.0139517
-0.000113558
0.0131844
-8.50418e-05
0.0118221
-2.34994e-05
0.00626227
6.18068e-05
-4.05233e-05
-0.00188707
0.00193975
1.30813e-05
-2.76878e-06
1.06716e-05
-7.37803e-06
-0.000616064
0.000626702
2.87262e-06
-0.000618611
1.48139e-06
-0.000612033
5.26542e-06
1.51841e-06
-0.000360932
0.000364456
3.75642e-07
-0.000359267
9.7335e-07
-0.000356158
7.77275e-07
-1.3071e-06
-0.000103537
0.000100895
3.69423e-05
0.00920697
2.66994e-05
0.0115709
-6.40341e-06
0.0131338
-5.09855e-05
0.0139681
-9.67765e-05
0.0142173
-0.000124611
0.0139658
-0.000100367
0.0132015
-4.62476e-05
0.00628451
6.31293e-05
-4.50358e-05
-0.00189883
0.00195247
1.27197e-05
-4.14956e-06
9.28258e-06
-9.08022e-06
-0.000621328
0.000631635
1.92111e-06
-0.000625143
8.6951e-07
-0.00061878
3.65571e-06
3.20637e-07
-0.000368454
0.000371035
2.00735e-07
-0.000368305
8.21958e-07
-0.000364905
1.53591e-06
9.38848e-07
-0.000101334
0.000101564
-0.000100418
-9.95879e-05
3.62739e-05
0.00920544
1.44398e-05
0.0115575
-3.38043e-05
0.0131195
-9.46195e-05
0.0139682
-0.000140112
0.0142364
-0.000130189
0.0139978
-8.43442e-05
0.00630049
6.64202e-05
-4.85994e-05
-0.00190802
0.00196302
1.30068e-05
-4.4362e-06
9.26869e-06
-1.01783e-05
-0.00062419
0.000635042
1.16869e-06
-0.000628713
3.74759e-07
-0.00062322
3.36242e-06
-8.3982e-07
-0.000373083
0.000374978
-2.3344e-08
-0.000373271
4.60519e-07
-0.00037082
8.53841e-07
4.33337e-07
-0.000104681
0.000104719
-0.000103952
-0.000102503
2.73607e-05
0.00918323
-1.00736e-05
0.011527
-8.08881e-05
0.0131069
-0.000151386
0.0139849
-0.00016895
0.0142784
-0.000133801
0.0063061
7.30243e-05
-4.8068e-05
-0.00191534
0.00197296
1.39842e-05
-4.91809e-06
9.72034e-06
-1.05733e-05
-0.00062662
0.000637489
1.70328e-06
-0.000630917
-2.20112e-07
-0.000625372
3.23498e-06
-7.10224e-07
-0.000375718
0.000376939
-1.04314e-07
-0.000375979
1.56401e-07
-0.000373836
9.46283e-07
2.25758e-07
-0.000106296
0.00010609
-0.000105937
-0.000105153
2.75005e-05
0.00915558
-4.51252e-05
0.0115031
-0.000152668
0.0131166
-0.000214602
0.0140347
-0.000195547
0.00629728
8.2258e-05
-4.80367e-05
-0.0019239
0.00198409
1.60681e-05
-4.07792e-06
1.11306e-05
-1.05215e-05
-0.000629069
0.000640544
2.05409e-06
-0.00063424
3.0757e-07
-0.000627546
2.91463e-06
-7.03663e-07
-0.000376938
0.000379034
-3.27179e-07
-0.000377976
3.11957e-07
-0.00037596
8.76587e-07
1.65868e-07
-0.000107287
0.000107003
-0.00010721
-0.000106316
1.11615e-05
0.00909614
-0.000121152
0.0114712
-0.000255187
0.0131578
-0.00028325
0.00626519
9.39977e-05
-5.08833e-05
-0.00193208
0.00199693
1.8885e-05
-3.10346e-06
1.31616e-05
-1.00317e-05
-0.000632305
0.000644891
2.50087e-06
-0.000637561
8.52497e-07
-0.000630752
3.93077e-06
-9.09315e-07
-0.00037957
0.00038174
-2.69975e-07
-0.000379975
4.53776e-07
-0.000378139
9.49962e-07
1.69393e-07
-0.000108176
0.000107716
-0.000107972
-0.000107168
-3.56555e-05
0.00901425
-0.000261904
0.0114808
-0.000394112
0.00618603
0.000100791
-6.53142e-05
-0.00193901
0.00201129
2.13433e-05
-2.23797e-06
1.5123e-05
-9.08394e-06
-0.000636893
0.000650235
3.94519e-06
-0.000641902
1.14896e-06
-0.000634415
4.88258e-06
9.13602e-08
-0.000382908
0.000384673
1.25533e-07
-0.000383031
5.50194e-07
-0.000380507
1.06446e-06
2.02652e-07
-0.000109231
0.000108798
-0.00010882
-0.000107886
-0.000183045
0.00892657
-0.000501217
0.00604291
7.58645e-05
-0.00012504
-0.00193966
0.0020204
2.39358e-05
-7.53954e-06
1.71202e-05
-1.18765e-05
-0.000642551
0.00065708
5.34818e-06
-0.000648225
2.71871e-06
-0.000639824
5.68473e-06
9.06527e-07
-0.000386812
0.000389498
3.70531e-07
-0.000387176
7.40431e-07
-0.000384055
1.09854e-06
4.45686e-07
-0.000110405
0.000110209
-0.000109977
-0.000109001
-0.000526929
-6.18905e-05
-0.0002724
-0.00190687
0.00198256
2.12543e-05
-2.78966e-05
1.35919e-05
-2.62566e-05
-0.000643749
0.000662281
4.14481e-06
-0.000653496
1.39799e-06
-0.000643653
6.33584e-06
1.14056e-06
-0.000393054
0.000396314
1.1698e-06
-0.000392481
1.17024e-06
-0.000389359
1.83346e-06
7.57688e-07
-0.000112063
0.000112001
-0.000111558
-0.000110655
-0.00176555
-4.71063e-05
-6.80442e-05
-4.59077e-07
-5.76536e-05
-0.00063515
0.000664503
-1.02636e-05
-0.000652534
-1.13078e-05
-0.000640701
9.92851e-07
-4.88527e-06
-0.00039735
0.000399836
1.15656e-06
-0.000398616
1.87458e-06
-0.000395677
2.6573e-06
1.46574e-06
-0.000115311
0.000115956
-0.000114375
-0.000112758
-0.000614928
-5.78043e-05
-0.000647689
-3.78534e-05
-0.000632207
-1.76444e-05
-2.59959e-05
-0.00038711
0.000384066
-8.26395e-06
-0.000395083
-3.79644e-06
-0.000394609
2.15781e-07
2.39667e-07
-0.000121467
0.000122336
-0.00011984
-0.000117422
-0.000356316
-3.37443e-05
-0.000369597
-2.55581e-05
-0.000371297
-1.70747e-05
-1.36364e-05
-0.000118848
0.000110139
-0.000122712
-0.000122576
-5.31565e-05
-7.90967e-05
-9.65031e-05
1.76101e-05
-1.92895e-05
-1.00998e-05
3.00403e-05
8.63982e-05
-7.48799e-05
-3.44089e-05
-3.18673e-05
0.000111722
-3.892e-06
3.61572e-05
-2.73196e-05
-5.37646e-05
0.00018443
-0.00016539
-5.7786e-05
-4.57969e-05
0.000202406
-1.67958e-05
0.000130075
1.32116e-06
3.90794e-05
-4.07735e-05
-0.000157322
-1.55294e-05
-4.34101e-05
0.000616796
-0.000154315
-0.000561405
3.3122e-05
-9.05007e-05
0.000641825
0.000220983
-1.78021e-06
0.000140045
1.81911e-06
4.06681e-05
-3.51039e-05
-0.000142031
-5.95699e-06
-3.88613e-05
5.15882e-05
0.00222976
-0.00215927
-0.000304262
7.55973e-06
-0.000554556
0.00010249
-0.000308405
0.00238604
1.36628e-05
0.000726605
1.53534e-05
0.000234592
-1.57791e-06
0.000147411
-6.33679e-07
4.19578e-05
-0.000139529
7.23483e-08
-3.59263e-05
5.3661e-05
-0.000167224
0.00416682
-0.0041042
-0.000377933
8.75005e-06
-3.7877e-06
-0.000396917
0.00427596
9.12785e-06
-0.000224144
0.00257382
7.52021e-05
0.000730234
1.80881e-06
9.84438e-06
0.00024825
-3.04428e-06
0.000149814
-1.10141e-07
4.2306e-05
-0.000129513
3.26335e-06
-3.63839e-05
-0.000287193
0.0062791
-0.00620539
-0.000463283
-0.000129363
-0.000480523
0.00638046
-0.000349273
0.00443601
-0.000151198
-2.62271e-05
0.00273603
5.53249e-05
0.000795999
-3.13632e-07
1.3472e-05
0.0002476
3.67668e-06
0.000255061
0.000153643
8.95137e-07
4.22344e-05
4.19797e-07
-0.000406178
0.00823456
-0.00815848
-0.000549177
-0.000560674
0.00832988
-0.00045627
0.00651835
-0.000298184
0.00461199
0.000767825
-5.05004e-06
1e-05