/*--------------------------------*- C++ -*----------------------------------*\
| =========                 |                                                 |
| \\      /  F ield         | OpenFOAM: The Open Source CFD Toolbox           |
|  \\    /   O peration     | Version:  v1912                                 |
|   \\  /    A nd           | Website:  www.openfoam.com                      |
|    \\/     M anipulation  |                                                 |
\*---------------------------------------------------------------------------*/
FoamFile
{
    version     2.0;
    format      ascii;
    class       volVectorField;
    location    "20";
    object      U;
}
// * * * * * * * * * * * * * * * * * * * * * * * * * * * * * * * * * * * * * //

dimensions      [0 1 -1 0 0 0 0];


internalField   nonuniform List<vector> 
3753
(
(0.0278816 0.0264557 0)
(0.127674 0.0737934 5.62312e-22)
(0.027345 0.0261297 -2.6048e-22)
(0.236477 0.112125 0)
(0.125832 0.0733493 -2.75495e-22)
(0.0274498 0.0256889 2.61815e-22)
(0.334324 0.140267 -2.12544e-19)
(0.233784 0.111442 -2.17412e-22)
(0.124562 0.072538 -2.6884e-19)
(0.0277158 0.0252991 2.41659e-22)
(0.414316 0.161783 1.89125e-19)
(0.330878 0.139282 -2.03361e-19)
(0.231351 0.110337 2.15148e-19)
(0.123884 0.0716794 2.43778e-22)
(0.0277571 0.0249388 -2.44036e-19)
(0.473116 0.177551 -1.74023e-22)
(0.409839 0.160519 1.81383e-19)
(0.327529 0.137906 0)
(0.229574 0.109258 2.01077e-22)
(0.123342 0.0708034 -2.44451e-22)
(0.0275804 0.0245623 0)
(0.509646 0.186652 6.69044e-24)
(0.467622 0.176075 1.76151e-19)
(0.405554 0.158883 1.7001e-22)
(0.324766 0.136638 -1.88733e-19)
(0.228105 0.108152 -2.01344e-22)
(0.12269 0.0698784 0)
(0.0273442 0.0241253 0)
(0.523516 0.187927 -1.68468e-22)
(0.503195 0.185071 -1.68033e-19)
(0.462441 0.174252 0)
(0.401842 0.157394 1.68059e-19)
(0.322335 0.135398 0)
(0.226653 0.10695 0)
(0.121911 0.0688604 0)
(0.0272778 0.0236503 -2.17583e-19)
(0.51455 0.180986 0)
(0.516478 0.186301 1.70629e-19)
(0.497189 0.183112 0)
(0.457808 0.172515 3.11711e-22)
(0.39845 0.155982 -4.80789e-22)
(0.31996 0.13405 0)
(0.225115 0.105621 0)
(0.121209 0.0677961 0)
(0.0274788 0.0231838 1.99418e-22)
(0.481521 0.166488 1.85805e-22)
(0.50718 0.179342 -1.72289e-19)
(0.509933 0.184282 0)
(0.491789 0.181172 1.59626e-19)
(0.453514 0.170881 -3.11975e-22)
(0.395149 0.154492 1.13997e-23)
(0.317538 0.132565 0)
(0.223571 0.104205 0)
(0.120755 0.0667372 0)
(0.0278139 0.0227882 -2.00048e-22)
(0.423796 0.145115 1.0004e-22)
(0.474174 0.164776 -9.12274e-23)
(0.500353 0.177311 1.68942e-19)
(0.504025 0.182223 -1.5724e-19)
(0.486783 0.179312 1.54714e-19)
(0.449358 0.169206 0)
(0.391833 0.152871 3.05798e-22)
(0.315077 0.13097 0)
(0.222154 0.102769 0)
(0.120564 0.0657419 -2.03131e-19)
(0.0279594 0.0224469 0)
(0.342325 0.116759 -1.1999e-19)
(0.416497 0.143125 6.74967e-22)
(0.467351 0.162703 -1.76528e-19)
(0.494258 0.175247 6.47491e-22)
(0.498567 0.180227 -1.51818e-19)
(0.481962 0.17744 0)
(0.44523 0.167425 0)
(0.388488 0.151155 -1.41785e-22)
(0.312681 0.129336 0)
(0.220908 0.10134 1.61543e-19)
(0.120343 0.0647793 1.9435e-19)
(0.027668 0.0221655 0)
(0.245233 0.0809651 1.67389e-19)
(0.334698 0.114202 -1.1459e-22)
(0.409717 0.140886 -2.31348e-23)
(0.461331 0.160685 0)
(0.488662 0.17324 0)
(0.493345 0.178225 -5.92349e-22)
(0.477213 0.175483 1.45011e-19)
(0.441109 0.165558 0)
(0.385186 0.149383 1.41912e-22)
(0.310366 0.127675 0)
(0.219717 0.0999106 -1.54596e-19)
(0.11982 0.0638273 8.63219e-23)
(0.0268276 0.0219003 0)
(0.235148 0.0771792 -6.61015e-20)
(0.169767 0.0568535 5.62752e-20)
(0.175298 0.0569319 -5.79568e-20)
(0.327678 0.111622 0)
(0.403996 0.138889 1.92632e-19)
(0.455891 0.158769 -1.70851e-19)
(0.483344 0.171245 0)
(0.488233 0.176162 -1.42766e-19)
(0.472518 0.173456 2.66011e-22)
(0.437049 0.163648 1.37996e-19)
(0.381955 0.147584 0)
(0.308136 0.125998 0)
(0.218396 0.0984376 -3.50395e-24)
(0.118728 0.0628396 -8.63553e-23)
(0.025573 0.0216406 0)
(0.226722 0.0740243 3.07401e-20)
(0.154627 0.051678 5.56012e-20)
(0.163507 0.052036 5.61062e-20)
(0.115226 0.0366735 -5.0912e-20)
(0.11995 0.0370664 1.30265e-20)
(0.322344 0.109602 -2.19559e-19)
(0.398989 0.137133 1.85425e-19)
(0.450773 0.156886 -6.32013e-22)
(0.478166 0.169179 0)
(0.483218 0.174023 -2.77791e-22)
(0.467912 0.17139 -1.32609e-19)
(0.433077 0.161712 0)
(0.378796 0.145751 6.30076e-23)
(0.305845 0.124253 6.46566e-23)
(0.216748 0.0969074 -7.1987e-23)
(0.117038 0.0618442 0)
(0.0241781 0.0213604 0)
(0.22209 0.0721498 6.88331e-20)
(0.146731 0.0493505 -1.11451e-19)
(0.150623 0.0486598 0)
(0.094343 0.0297446 -1.31506e-20)
(0.106208 0.0315614 0)
(0.0721549 0.0234835 1.1897e-21)
(0.0752763 0.0238678 1.73576e-20)
(0.0766581 0.0245106 -1.81412e-20)
(0.318072 0.108054 8.57912e-22)
(0.394366 0.135454 -2.21266e-23)
(0.445816 0.154943 2.07726e-23)
(0.473105 0.16704 0)
(0.478314 0.171853 0)
(0.46341 0.169321 0)
(0.429177 0.15976 0)
(0.37562 0.143868 -6.31441e-23)
(0.303377 0.12245 1.32387e-19)
(0.214665 0.0953433 -6.47869e-23)
(0.114904 0.0608795 1.5856e-19)
(0.0228912 0.0210484 0)
(0.219076 0.0710487 -6.49879e-20)
(0.143921 0.0483245 1.08879e-19)
(0.146183 0.0473654 -2.18954e-19)
(0.0878425 0.0279423 6.40003e-20)
(0.0900151 0.0274969 -1.31213e-20)
(0.0459877 0.0152115 1.70954e-20)
(0.0502362 0.0153706 5.83825e-22)
(0.0676763 0.0202224 -5.62067e-22)
(0.0588658 0.0166774 9.28238e-21)
(0.0419352 0.013694 -1.65128e-20)
(0.0441948 0.0138981 2.50876e-22)
(0.0449492 0.0143229 2.56057e-22)
(0.314269 0.106656 0)
(0.389924 0.133726 -1.80028e-19)
(0.440997 0.152906 6.15513e-22)
(0.468173 0.164849 0)
(0.473534 0.169679 1.24895e-22)
(0.458996 0.167256 1.25861e-19)
(0.425279 0.157784 -1.23155e-19)
(0.372334 0.141937 5.02414e-21)
(0.300616 0.120604 0)
(0.21216 0.0937949 -1.25689e-19)
(0.112542 0.0599534 1.49633e-19)
(0.021901 0.020709 0)
(0.216516 0.0700855 6.1523e-20)
(0.142202 0.0476229 1.05262e-19)
(0.144109 0.0465986 1.0755e-19)
(0.0864298 0.0275312 -9.94328e-20)
(0.0875474 0.0269837 1.26109e-19)
(0.0427529 0.0144162 1.35705e-22)
(0.0433017 0.0139029 -5.23883e-20)
(0.0444241 0.0137319 1.89819e-20)
(0.0434621 0.0140127 -8.30932e-22)
(0.014759 0.0050598 -1.20637e-20)
(0.016329 0.0048782 0)
(0.038919 0.0110753 -1.57563e-20)
(0.0256716 0.00495133 -6.88568e-21)
(0.0129473 0.00463868 1.1636e-20)
(0.0137622 0.0045954 0)
(0.0139535 0.00474225 0)
(0.310653 0.105229 2.03487e-19)
(0.385599 0.131909 1.73747e-19)
(0.4363 0.150834 2.87532e-22)
(0.463375 0.16268 1.36904e-19)
(0.468847 0.167544 -1.24496e-19)
(0.454594 0.165216 1.18357e-19)
(0.421308 0.155802 -1.14542e-19)
(0.368839 0.139988 1.17511e-19)
(0.297529 0.118738 0)
(0.209355 0.0923029 -1.18475e-19)
(0.110278 0.0590657 0)
(0.0212298 0.0203584 0)
(0.214016 0.0691484 6.0411e-20)
(0.140669 0.0469831 9.25832e-22)
(0.142516 0.0459197 0)
(0.0854452 0.0271293 -2.47878e-20)
(0.0864514 0.0265638 -9.81585e-20)
(0.0423309 0.0142554 1.32949e-22)
(0.0427364 0.013753 -2.66632e-22)
(0.0429917 0.0135628 -3.45043e-20)
(0.0427682 0.0139172 1.33682e-22)
(0.0134779 0.00474452 -2.32644e-20)
(0.0136831 0.00454171 -6.2205e-23)
(0.0139768 0.00450546 -1.28291e-20)
(0.013698 0.0046019 0)
(0.0122783 0.00414123 8.25147e-21)
(0.00745993 0.00160723 1.41097e-21)
(0.307109 0.103775 -3.99325e-19)
(0.381405 0.130087 3.31429e-22)
(0.43174 0.148778 -1.4356e-19)
(0.458669 0.160558 -1.32145e-19)
(0.464185 0.165477 5.7838e-23)
(0.450133 0.163211 -5.73408e-23)
(0.417168 0.153832 -2.21951e-19)
(0.365091 0.13802 -1.11713e-19)
(0.294186 0.116889 0)
(0.206486 0.0908734 0)
(0.108336 0.0582191 -6.0667e-23)
(0.0207579 0.0199978 1.26181e-19)
(0.211503 0.0682446 3.45384e-19)
(0.139104 0.0464569 9.65654e-23)
(0.14095 0.0453061 -1.00193e-19)
(0.084447 0.0267911 -9.45771e-20)
(0.085485 0.0262013 2.76391e-24)
(0.0419145 0.0140662 -3.30414e-20)
(0.0423243 0.0135493 3.29675e-20)
(0.0425597 0.0133592 0)
(0.0423452 0.0137309 -3.35741e-20)
(0.0133516 0.00469198 2.27658e-20)
(0.0135173 0.00449704 -2.28346e-20)
(0.0135491 0.00445773 -2.30752e-20)
(0.0135144 0.00458025 -2.29761e-20)
(0.303668 0.102367 -3.85464e-22)
(0.377317 0.128318 0)
(0.427261 0.146828 1.3815e-19)
(0.453997 0.158563 -1.27077e-19)
(0.459471 0.163502 -5.78844e-23)
(0.445534 0.161261 1.08261e-19)
(0.412831 0.151871 1.03789e-19)
(0.361133 0.136042 4.92872e-23)
(0.290742 0.115076 0)
(0.203791 0.0895307 0)
(0.10675 0.057386 -1.17893e-19)
(0.0203991 0.0196323 2.50002e-21)
(0.209 0.0674473 -1.12976e-19)
(0.137534 0.0460111 -9.64565e-20)
(0.139391 0.0448005 -9.72448e-20)
(0.0834266 0.0265434 8.9717e-23)
(0.0844523 0.0259057 9.2293e-23)
(0.0414394 0.0139092 0)
(0.0418792 0.0133767 -3.25878e-20)
(0.0421445 0.0131969 0)
(0.0419395 0.0135711 1.26822e-22)
(0.0131817 0.00463136 3.36564e-23)
(0.013367 0.00443245 2.23693e-20)
(0.013406 0.00439016 -2.25863e-20)
(0.0133558 0.00451585 2.24267e-20)
(0.300277 0.10108 1.89625e-19)
(0.373323 0.126697 7.44795e-23)
(0.422848 0.145007 1.32758e-19)
(0.449292 0.156671 0)
(0.454652 0.161602 0)
(0.440786 0.159335 0)
(0.408338 0.149887 9.81889e-23)
(0.357096 0.134055 1.00297e-19)
(0.287411 0.113339 0)
(0.201404 0.0882705 -4.78508e-23)
(0.105461 0.056536 -2.26551e-19)
(0.0200024 0.0192417 0)
(0.206547 0.0667513 -2.15321e-19)
(0.13602 0.0456724 9.3406e-20)
(0.137813 0.0443811 9.40791e-20)
(0.08243 0.0263521 -2.26887e-20)
(0.0834517 0.0257017 -8.98053e-23)
(0.0409765 0.0138316 0)
(0.0414002 0.0132857 0)
(0.0416402 0.0130475 -3.19505e-20)
(0.0414451 0.0134683 0)
(0.01301 0.00457468 -2.17666e-20)
(0.0132032 0.00437344 4.36791e-20)
(0.0132632 0.00434595 -8.67165e-23)
(0.013223 0.0044676 -2.19837e-20)
(0.297032 0.099948 0)
(0.369422 0.125227 -7.45053e-23)
(0.418428 0.143335 6.43707e-23)
(0.444531 0.154895 1.16779e-19)
(0.449737 0.159752 0)
(0.435938 0.157404 1.00918e-19)
(0.403793 0.147868 -9.33682e-20)
(0.353147 0.132096 0)
(0.284328 0.111711 4.36688e-23)
(0.199307 0.0870684 9.17362e-20)
(0.104299 0.0556506 5.30439e-23)
(0.0195705 0.0188149 -1.86576e-22)
(0.204267 0.066182 5.28163e-20)
(0.134623 0.0454008 5.11102e-22)
(0.136367 0.0440965 9.13412e-20)
(0.0815091 0.0261796 -8.45518e-23)
(0.0824447 0.0254991 -2.23217e-20)
(0.0405231 0.0137522 0)
(0.0409303 0.0131993 3.04278e-20)
(0.0412026 0.0129887 0)
(0.0409986 0.0133968 0)
(0.0128545 0.00455864 -2.12384e-20)
(0.0130353 0.00435563 2.13453e-20)
(0.0130752 0.00429545 2.15126e-20)
(0.0130299 0.00443469 -2.14786e-20)
(0.293901 0.0989564 0)
(0.365591 0.12387 -1.45736e-19)
(0.414024 0.141743 -1.22134e-19)
(0.439743 0.153157 -1.55289e-22)
(0.444792 0.157887 2.48043e-21)
(0.431086 0.155408 0)
(0.399338 0.14582 -9.17245e-20)
(0.349404 0.130215 0)
(0.281506 0.110197 -8.46665e-23)
(0.19741 0.0858903 0)
(0.103136 0.0546944 1.01139e-19)
(0.0192003 0.0183839 1.86464e-19)
(0.202158 0.0656343 -5.09615e-20)
(0.133351 0.0451433 -8.72162e-20)
(0.134999 0.0438277 -8.92729e-20)
(0.0807186 0.0260508 -8.42014e-20)
(0.0816099 0.0253874 8.46297e-23)
(0.0401099 0.0137047 0)
(0.0405052 0.01315 1.1632e-22)
(0.0407164 0.0129022 2.99127e-20)
(0.0405098 0.0133395 -1.16236e-22)
(0.0127021 0.00452384 -2.06985e-20)
(0.0128671 0.00432139 2.0803e-20)
(0.0129291 0.00428388 -2.10499e-20)
(0.01288 0.00440904 -2.09352e-20)
(0.290934 0.0980033 1.65222e-19)
(0.361853 0.122587 0)
(0.409679 0.140223 0)
(0.434989 0.151428 -1.03755e-19)
(0.439895 0.155965 1.92911e-22)
(0.426334 0.153353 8.80418e-20)
(0.395059 0.143792 4.27656e-23)
(0.345896 0.128441 0)
(0.278891 0.108773 4.09816e-23)
(0.195579 0.0847028 -7.93111e-20)
(0.101988 0.0537304 6.39523e-21)
(0.0189686 0.0179724 8.69257e-20)
(0.200248 0.0650847 0)
(0.13224 0.0448701 -8.98251e-22)
(0.133795 0.0435941 0)
(0.0800016 0.025869 -4.12662e-20)
(0.0808293 0.0252181 6.15712e-20)
(0.0397792 0.0136593 -2.87377e-20)
(0.0401442 0.0131052 1.11713e-22)
(0.0403214 0.0128763 0)
(0.0401499 0.0133052 0)
(0.0125567 0.00451331 -2.01495e-20)
(0.0127328 0.00431642 2.02614e-20)
(0.0127628 0.00425251 0)
(0.0127163 0.00439467 -2.03993e-20)
(0.288131 0.0970994 0)
(0.358258 0.121328 -2.52773e-22)
(0.405431 0.138666 0)
(0.430332 0.149626 0)
(0.435106 0.153958 0)
(0.421733 0.151259 4.49153e-23)
(0.390982 0.141826 -8.17254e-20)
(0.342572 0.126775 0)
(0.276349 0.107403 7.87195e-20)
(0.193755 0.0835188 -7.37201e-20)
(0.100933 0.0528258 6.35109e-21)
(0.0189471 0.0175962 -1.43679e-22)
(0.198564 0.0644888 -4.7476e-20)
(0.131255 0.0445493 8.19655e-20)
(0.132728 0.0433109 0)
(0.0794117 0.0257053 7.91028e-20)
(0.0801581 0.0250903 -3.1173e-22)
(0.0394495 0.0135953 2.75541e-20)
(0.0398286 0.0130567 2.77735e-20)
(0.040002 0.0128246 2.80733e-20)
(0.0398096 0.01325 -1.09005e-22)
(0.0124561 0.00449347 -5.19821e-23)
(0.0126135 0.00429447 1.97051e-20)
(0.012621 0.00424668 -1.99514e-20)
(0.0125973 0.00437974 -1.98373e-20)
(0.28555 0.0961478 -2.95397e-22)
(0.354824 0.120052 2.53153e-22)
(0.401311 0.137076 -4.13939e-22)
(0.425788 0.147749 1.82263e-22)
(0.430451 0.151889 1.64486e-22)
(0.417295 0.149182 7.85904e-20)
(0.387052 0.139955 0)
(0.339316 0.125213 4.28207e-21)
(0.273817 0.106092 0)
(0.19194 0.0823855 -6.78639e-20)
(0.100061 0.0520201 7.94288e-20)
(0.0191709 0.0172864 7.29204e-20)
(0.197069 0.0638703 -4.53154e-20)
(0.130456 0.0442058 7.79804e-20)
(0.131822 0.0430258 0)
(0.0788824 0.025481 -7.61099e-20)
(0.0796134 0.024901 0)
(0.0392284 0.0135267 -2.67858e-20)
(0.0395645 0.0129959 0)
(0.0396747 0.0127802 0)
(0.0395321 0.0132031 0)
(0.0123469 0.00447999 -3.69922e-23)
(0.012504 0.00428888 -1.9154e-20)
(0.0125335 0.00423044 -1.94172e-20)
(0.0124888 0.00436341 0)
(0.283125 0.095206 1.50265e-19)
(0.351508 0.11872 4.63877e-22)
(0.397282 0.135389 1.05481e-19)
(0.42134 0.145777 9.23491e-20)
(0.425893 0.14978 -1.64313e-22)
(0.412947 0.147167 7.14544e-23)
(0.383168 0.138204 -6.91928e-20)
(0.33606 0.123754 0)
(0.27125 0.104849 0)
(0.190203 0.0813611 -6.25061e-20)
(0.0994629 0.0513507 -1.39487e-19)
(0.0195857 0.0170488 6.31366e-20)
(0.195731 0.063242 -1.2703e-19)
(0.129724 0.0438259 1.50528e-19)
(0.131052 0.0426677 2.9595e-22)
(0.0784921 0.0252794 -1.83826e-20)
(0.0791241 0.0247348 -2.90798e-22)
(0.0389843 0.0134386 -2.57683e-20)
(0.0393331 0.0129201 -1.01059e-22)
(0.0394695 0.0127136 0)
(0.0393044 0.0131318 0)
(0.0122862 0.00445361 -1.25924e-22)
(0.0124176 0.00426397 -1.85766e-20)
(0.0124131 0.00421758 -1.88036e-20)
(0.0123937 0.00434717 1.87411e-20)
(0.280838 0.0941997 2.83842e-22)
(0.348248 0.117324 -1.14621e-19)
(0.393283 0.133633 -9.63141e-20)
(0.416898 0.143742 8.76069e-20)
(0.421359 0.147697 -3.65558e-23)
(0.408614 0.145263 -7.13778e-23)
(0.379271 0.136576 1.25643e-22)
(0.332761 0.122387 -2.39038e-22)
(0.268704 0.103709 0)
(0.18863 0.080476 -6.23627e-21)
(0.0991512 0.0508114 2.34043e-22)
(0.0200677 0.0168751 5.76896e-20)
(0.194468 0.0626539 4.24338e-20)
(0.129128 0.0434919 -7.18343e-20)
(0.130382 0.0423524 -7.4112e-20)
(0.078098 0.0250308 -7.07604e-20)
(0.0787398 0.0244935 0)
(0.0388603 0.0133397 0)
(0.0391658 0.0128397 2.48122e-20)
(0.0392331 0.01265 2.55578e-20)
(0.0391026 0.0130608 9.82611e-23)
(0.0122033 0.00443108 -5.47839e-23)
(0.0123456 0.00425156 -1.80315e-20)
(0.0123609 0.00419575 1.83814e-20)
(0.0123168 0.00432846 -1.8175e-20)
(0.278508 0.0931872 -5.19874e-22)
(0.344892 0.115851 -1.12646e-19)
(0.389146 0.131755 -9.1519e-20)
(0.412368 0.141669 -8.27101e-20)
(0.416782 0.145695 3.65086e-23)
(0.404255 0.143491 0)
(0.37534 0.13506 -3.60293e-22)
(0.329452 0.121113 2.38912e-22)
(0.266241 0.102684 5.39597e-20)
(0.187281 0.0797272 -2.06556e-22)
(0.0990585 0.0503739 -2.22946e-23)
(0.0204864 0.0167523 -2.12101e-22)
(0.193138 0.0620909 4.02264e-20)
(0.128522 0.043177 -1.33667e-22)
(0.1298 0.0420307 -6.96356e-20)
(0.0777873 0.0248725 2.04308e-22)
(0.0783658 0.0243323 6.88914e-20)
(0.038672 0.0132362 0)
(0.038987 0.0127198 -4.74048e-23)
(0.0391151 0.0125512 -9.55402e-23)
(0.0389513 0.0129518 1.43065e-22)
(0.0121793 0.00439629 -1.73761e-20)
(0.012292 0.0042206 0)
(0.0122676 0.00417507 -1.7663e-20)
(0.0122467 0.00430352 -1.76138e-20)
(0.275966 0.0920781 -3.7385e-21)
(0.341222 0.114238 0)
(0.38474 0.129767 1.76119e-19)
(0.407696 0.139634 0)
(0.412157 0.14382 2.57658e-22)
(0.39988 0.141828 0)
(0.371409 0.133627 4.53583e-22)
(0.326205 0.119936 0)
(0.263942 0.101779 -5.5038e-20)
(0.186136 0.0790788 2.06454e-22)
(0.0990817 0.0499995 -4.01158e-22)
(0.0207199 0.0166437 4.55314e-20)
(0.191538 0.0615436 1.88831e-19)
(0.127883 0.0429382 -6.59705e-20)
(0.129197 0.0417778 -6.79045e-20)
(0.0774373 0.0247008 8.92914e-23)
(0.0780412 0.0241547 1.70385e-20)
(0.0385851 0.0131574 4.52017e-23)
(0.0388753 0.0126619 -4.51793e-23)
(0.0389363 0.0124901 0)
(0.0387916 0.0128837 0)
(0.0120884 0.00436161 1.67915e-20)
(0.0122302 0.00418612 -1.68712e-20)
(0.0122447 0.00414409 3.37218e-23)
(0.0122048 0.00427069 -1.70855e-20)
(0.272895 0.0908402 0)
(0.336941 0.11239 -1.98269e-19)
(0.379993 0.127715 4.16559e-23)
(0.402938 0.13771 2.71497e-22)
(0.407546 0.142055 -1.61716e-23)
(0.395536 0.14024 0)
(0.367536 0.132261 -5.57225e-20)
(0.323084 0.118853 4.87723e-20)
(0.261817 0.100971 1.96237e-22)
(0.185175 0.0784949 -1.71443e-22)
(0.0990455 0.0496227 -4.93041e-20)
(0.0207101 0.0165327 -7.2373e-23)
(0.189325 0.0608583 0)
(0.127023 0.0426862 6.38319e-20)
(0.128481 0.0415374 -6.36656e-20)
(0.0770423 0.0246384 0)
(0.0776624 0.0240606 4.76205e-20)
(0.0384084 0.0130951 -1.03608e-22)
(0.0387364 0.0125845 -2.21484e-20)
(0.0388218 0.0124076 -2.2622e-20)
(0.0386737 0.0128154 -4.38497e-23)
(0.0120828 0.00433646 1.62149e-20)
(0.0121915 0.00416598 -1.63274e-20)
(0.0121694 0.00412738 -1.66111e-20)
(0.0121451 0.00424892 -1.64735e-20)
(0.268716 0.0891806 5.52238e-20)
(0.33195 0.110256 -9.50109e-20)
(0.375099 0.125761 0)
(0.39825 0.135909 -1.6544e-23)
(0.403017 0.140361 -4.6787e-22)
(0.391266 0.138695 5.32153e-20)
(0.363775 0.130962 2.04091e-22)
(0.320127 0.117853 4.87909e-20)
(0.25987 0.100223 0)
(0.184285 0.077916 3.90685e-20)
(0.0988082 0.0491998 4.41567e-20)
(0.020469 0.0164136 1.9559e-22)
(0.185608 0.0596235 8.56344e-20)
(0.125629 0.042277 -4.63512e-22)
(0.127444 0.0412338 6.21304e-20)
(0.0765638 0.0245959 -7.56832e-20)
(0.0772387 0.0239992 4.77112e-22)
(0.0382597 0.013077 0)
(0.038572 0.0125696 0)
(0.0386461 0.0123732 -4.2924e-23)
(0.0384913 0.0127827 2.16014e-20)
(0.011992 0.00431562 1.55282e-20)
(0.0121349 0.00414573 -1.57508e-20)
(0.0121378 0.00410238 0)
(0.012108 0.00423084 0)
(0.262892 0.0868136 1.07335e-19)
(0.326669 0.108202 -6.6798e-22)
(0.370377 0.123954 -7.57281e-20)
(0.393734 0.134171 -2.55328e-22)
(0.398608 0.138696 -5.71285e-20)
(0.387118 0.137193 -1.91875e-22)
(0.360173 0.129734 -4.54623e-20)
(0.317339 0.116911 -1.64463e-22)
(0.258061 0.0994951 4.29826e-20)
(0.183346 0.0772805 -3.47122e-20)
(0.0983113 0.0487302 -3.89931e-20)
(0.0200221 0.0162701 -1.23362e-22)
(0.177764 0.0566513 4.97284e-22)
(0.122293 0.0410551 1.33316e-21)
(0.125304 0.0405668 -5.88662e-20)
(0.0757918 0.0245623 -3.65308e-22)
(0.0766732 0.0239668 -5.79465e-20)
(0.0380786 0.0131066 -1.80435e-22)
(0.0383898 0.0125771 4.02346e-23)
(0.0384785 0.0123611 0)
(0.0383183 0.0127903 -4.02378e-23)
(0.0119503 0.00430942 0)
(0.0120744 0.0041413 -1.51644e-20)
(0.0120615 0.00409229 -1.5397e-20)
(0.0120295 0.00421751 -1.53161e-20)
(0.256497 0.0844474 4.18608e-22)
(0.321841 0.106358 8.20785e-20)
(0.366009 0.122229 5.58314e-22)
(0.389413 0.132456 5.81955e-20)
(0.394338 0.137058 0)
(0.38313 0.135748 1.92129e-22)
(0.356754 0.128577 4.48627e-20)
(0.314722 0.116008 -3.82646e-20)
(0.256294 0.098725 -1.38003e-22)
(0.182258 0.0765597 -5.76676e-21)
(0.0974978 0.0482133 3.37488e-20)
(0.0194766 0.0161033 0)
(0.168262 0.0532887 -1.65838e-20)
(0.11106 0.0365776 -4.20075e-22)
(0.11895 0.0381708 -8.9445e-22)
(0.0738206 0.0241639 1.68615e-21)
(0.0755113 0.0238329 1.35886e-20)
(0.0378259 0.0131759 1.9263e-20)
(0.0381796 0.012627 -3.89541e-20)
(0.0383172 0.0123969 3.92804e-23)
(0.0381252 0.0128252 0)
(0.0118706 0.00432671 2.88288e-20)
(0.0119979 0.00415238 -1.45613e-20)
(0.0119916 0.00408829 -1.48556e-20)
(0.0119566 0.00422389 -1.47289e-20)
(0.251413 0.0824564 1.01789e-19)
(0.317697 0.104672 0)
(0.361958 0.120525 0)
(0.385276 0.130748 4.2315e-22)
(0.390236 0.135461 0)
(0.379329 0.134375 -8.88336e-20)
(0.353516 0.127469 0)
(0.312201 0.115095 3.88448e-20)
(0.254472 0.0978771 3.10602e-20)
(0.180926 0.075761 -2.6578e-20)
(0.0964101 0.0476633 -2.84379e-20)
(0.0189527 0.0159222 -2.97398e-23)
(0.16309 0.050966 -1.01395e-19)
(0.098952 0.0332548 2.60543e-20)
(0.10391 0.0331735 2.74057e-20)
(0.061249 0.0189674 0)
(0.0712267 0.0223873 -8.40024e-21)
(0.0370864 0.0130628 0)
(0.0377541 0.0126264 1.45253e-22)
(0.0380239 0.0124481 -2.26207e-22)
(0.0377649 0.0128882 -1.4559e-22)
(0.0117678 0.00435953 -1.38059e-20)
(0.0119066 0.00416818 1.38844e-20)
(0.0119353 0.0041076 -1.42484e-20)
(0.0118829 0.00423643 -1.41088e-20)
(0.247664 0.0808396 -7.60907e-22)
(0.314059 0.103054 0)
(0.358153 0.118832 0)
(0.38132 0.12907 -4.23981e-22)
(0.386319 0.133927 4.49886e-20)
(0.375709 0.133077 1.15531e-23)
(0.3504 0.126392 2.61813e-21)
(0.309681 0.114135 0)
(0.252502 0.096946 3.21633e-20)
(0.17934 0.0749233 5.0445e-20)
(0.095185 0.0471109 0)
(0.0185371 0.0157088 3.97133e-23)
(0.160538 0.0496548 2.75114e-20)
(0.0961023 0.032118 -3.96043e-22)
(0.0978713 0.0313707 -2.51577e-20)
(0.0464803 0.0148671 -4.03099e-20)
(0.0498574 0.0155803 8.4176e-21)
(0.0203079 0.00403495 0)
(0.031798 0.00932541 0)
(0.0367054 0.01203 5.56337e-22)
(0.0350726 0.0115795 8.30901e-21)
(0.0115368 0.00437241 -1.3041e-20)
(0.0117755 0.00420834 1.32453e-20)
(0.0118144 0.0041446 -9.14466e-23)
(0.0117506 0.00429138 -1.34109e-20)
(0.244687 0.0793905 9.22696e-20)
(0.310753 0.101435 0)
(0.354561 0.11713 2.20209e-22)
(0.377547 0.127436 0)
(0.382583 0.132479 0)
(0.372223 0.131843 -3.73127e-20)
(0.347316 0.125315 -3.59775e-20)
(0.307073 0.113116 -2.88909e-20)
(0.250336 0.0959559 -2.37678e-20)
(0.177579 0.0740831 2.3937e-20)
(0.093936 0.0465544 -1.84642e-20)
(0.0182817 0.0154585 7.68925e-21)
(0.158775 0.0486041 -1.36311e-19)
(0.0950306 0.0315174 -4.89523e-20)
(0.0962218 0.0307513 3.9723e-22)
(0.0456365 0.014672 -1.20374e-20)
(0.046203 0.014286 0)
(0.0105397 0.00405795 1.29441e-20)
(0.0108637 0.00389687 -6.64267e-21)
(0.0126693 0.00373804 -7.45976e-21)
(0.0113325 0.00418206 0)
(0.00615102 0.00135848 0)
(0.0102499 0.00358404 5.86005e-21)
(0.0114323 0.00405363 1.29142e-20)
(0.0109083 0.00403387 5.96465e-21)
(0.242046 0.0779551 0)
(0.307651 0.099819 6.90266e-20)
(0.351136 0.115478 -4.27776e-22)
(0.373956 0.125896 -4.77174e-20)
(0.37899 0.131119 -4.16833e-20)
(0.368791 0.130655 3.45532e-20)
(0.344185 0.12422 1.18439e-22)
(0.304328 0.112051 0)
(0.248015 0.0949528 -2.02308e-20)
(0.175726 0.0732664 1.45329e-20)
(0.0927629 0.0459757 -2.54083e-23)
(0.0181929 0.0151458 0)
(0.157137 0.0475502 2.67641e-20)
(0.0941316 0.0308853 4.62345e-20)
(0.0953163 0.0301952 3.73622e-22)
(0.0453139 0.0144287 0)
(0.0457461 0.0141334 1.18163e-20)
(0.0105233 0.00408025 -2.78791e-23)
(0.0106511 0.00386934 -1.24176e-20)
(0.0106794 0.00377474 1.26998e-20)
(0.0106213 0.00391788 0)
(0.239598 0.0765258 -7.88528e-20)
(0.304723 0.0982096 0)
(0.347898 0.113892 5.01045e-20)
(0.370509 0.124453 4.21418e-20)
(0.375464 0.129844 3.89229e-20)
(0.365332 0.129489 2.57805e-22)
(0.340949 0.1231 -1.18613e-22)
(0.301453 0.110967 2.60024e-20)
(0.245592 0.0939778 2.14477e-20)
(0.173865 0.0724732 -1.13659e-23)
(0.0917433 0.0453329 -9.5957e-21)
(0.0182557 0.014764 0)
(0.155556 0.0464687 -2.58237e-20)
(0.0931549 0.0302378 -4.4119e-20)
(0.094327 0.0295796 0)
(0.0448888 0.0140953 4.34348e-23)
(0.0454117 0.0138539 -1.15791e-20)
(0.0104975 0.00403305 -1.18129e-20)
(0.0106212 0.00384237 -1.18824e-20)
(0.0106312 0.00378158 -1.20561e-20)
(0.0105984 0.00392199 -1.20687e-20)
(0.237264 0.0750974 -6.01846e-22)
(0.301957 0.0966961 0)
(0.344802 0.112439 -1.82539e-22)
(0.36714 0.123127 -3.91439e-20)
(0.371931 0.12863 0)
(0.361795 0.128334 -2.35328e-22)
(0.337608 0.121971 -5.1291e-20)
(0.298491 0.109901 -1.92973e-20)
(0.243156 0.0930512 0)
(0.172087 0.0716816 7.55246e-21)
(0.0908769 0.0445759 0)
(0.0184296 0.0142991 0)
(0.15395 0.0454396 -2.41359e-20)
(0.0921682 0.029592 0)
(0.0933343 0.028965 8.61159e-20)
(0.0443653 0.0137667 8.48716e-23)
(0.0448982 0.0135292 -1.28131e-22)
(0.0103922 0.00394535 -2.21248e-23)
(0.0105366 0.00375761 -1.13437e-20)
(0.0105816 0.00372244 2.28671e-23)
(0.0105475 0.00385221 -2.98097e-23)
(0.235057 0.0737568 2.92549e-22)
(0.299345 0.0952756 -5.77575e-20)
(0.341812 0.111091 1.17813e-23)
(0.363794 0.121885 3.90629e-20)
(0.368337 0.127454 0)
(0.358172 0.127182 2.61334e-20)
(0.334201 0.120856 0)
(0.295515 0.108881 3.83288e-23)
(0.240774 0.0921723 0)
(0.170422 0.0708537 0)
(0.0901465 0.0436675 -2.21172e-21)
(0.0187053 0.0137526 0)
(0.152463 0.0444407 -4.61244e-20)
(0.0911244 0.028981 3.98401e-20)
(0.0922574 0.0283688 -1.57979e-22)
(0.043839 0.0134315 1.61545e-22)
(0.044374 0.0132119 -4.14104e-20)
(0.010263 0.00387062 -1.07171e-20)
(0.0103957 0.00368139 -1.08802e-20)
(0.0104492 0.00363905 -1.11053e-20)
(0.0104102 0.0037742 0)
(0.233028 0.0725025 -4.0097e-21)
(0.296866 0.0940092 -5.47464e-20)
(0.33886 0.109872 -4.06242e-20)
(0.360412 0.120713 -3.64638e-20)
(0.364679 0.126301 -5.40867e-23)
(0.35449 0.126043 -4.44876e-23)
(0.330779 0.119773 0)
(0.292585 0.107929 0)
(0.238481 0.0913342 -4.21256e-24)
(0.168851 0.0699417 1.73879e-21)
(0.0895052 0.042593 8.49456e-22)
(0.0191108 0.0131306 -5.44442e-24)
(0.151111 0.0435332 6.09189e-20)
(0.0902808 0.0284166 3.75564e-20)
(0.0912952 0.0278381 7.74627e-20)
(0.0433003 0.0131088 9.80622e-21)
(0.0437965 0.0128914 0)
(0.0101237 0.00377918 -1.02949e-20)
(0.0102594 0.00359522 2.01149e-23)
(0.0103251 0.00356489 -1.05915e-20)
(0.0102833 0.00369031 -1.05194e-20)
(0.231143 0.0714008 -3.94113e-21)
(0.294474 0.0928396 -5.1255e-20)
(0.335934 0.108718 3.78331e-20)
(0.356986 0.11957 6.53492e-23)
(0.36097 0.125159 5.41679e-23)
(0.350801 0.124929 4.45588e-23)
(0.327405 0.118753 0)
(0.289743 0.107059 0)
(0.236268 0.0905105 4.21235e-24)
(0.167343 0.0689201 2.90202e-21)
(0.0889362 0.0413659 0)
(0.0197191 0.0124631 1.20353e-20)
(0.149957 0.0426984 7.87429e-20)
(0.0895094 0.0278872 3.55657e-20)
(0.0904683 0.0273351 3.64622e-23)
(0.0429294 0.0128233 0)
(0.0433311 0.0126061 -3.72809e-20)
(0.00999525 0.00370317 -9.76057e-21)
(0.0101169 0.00352098 -1.93993e-23)
(0.010167 0.00347988 -1.00926e-20)
(0.0101215 0.00360966 -9.96234e-21)
(0.229409 0.070396 5.87011e-20)
(0.292154 0.0917825 0)
(0.332981 0.107625 -3.79836e-20)
(0.353515 0.118453 0)
(0.357249 0.124044 0)
(0.34715 0.123868 0)
(0.324112 0.11782 -1.51268e-20)
(0.286985 0.10626 1.08624e-20)
(0.234106 0.0896699 -3.03024e-21)
(0.165829 0.0677748 1.18685e-21)
(0.0884617 0.0400439 -4.11238e-24)
(0.020644 0.0117865 6.1156e-24)
(0.148943 0.04198 -1.95504e-20)
(0.0889185 0.0274265 3.3678e-20)
(0.0897509 0.0268839 -6.94952e-20)
(0.0425763 0.0125357 0)
(0.0429661 0.0123375 0)
(0.00991234 0.00363391 0)
(0.010013 0.00345564 -9.3674e-21)
(0.0100459 0.0034117 -9.59463e-21)
(0.0100101 0.00353728 -9.54323e-21)
(0.227811 0.0694913 5.88985e-20)
(0.28987 0.0907404 4.12191e-20)
(0.330001 0.106537 -6.23568e-23)
(0.350021 0.117358 -4.85877e-23)
(0.353554 0.122976 0)
(0.343577 0.122888 1.46095e-20)
(0.32091 0.116985 -2.26028e-20)
(0.284269 0.105514 0)
(0.231915 0.0887899 -1.00772e-21)
(0.164285 0.0665397 0)
(0.088135 0.0387091 8.66321e-24)
(0.0220514 0.0111783 2.53171e-23)
(0.14816 0.041302 -8.75221e-20)
(0.0884366 0.0270464 3.17067e-20)
(0.0891918 0.0265047 1.27154e-22)
(0.0423368 0.0122899 0)
(0.0426595 0.0120914 3.35661e-20)
(0.00981559 0.00356518 -3.45296e-23)
(0.00991713 0.00338861 -8.91957e-21)
(0.00995925 0.00334991 -9.15665e-21)
(0.0099117 0.00346876 -9.06764e-21)
(0.226333 0.0685742 0)
(0.287569 0.089721 0)
(0.326974 0.105505 4.82404e-23)
(0.346533 0.116332 -2.49077e-20)
(0.349919 0.121986 0)
(0.340092 0.12201 1.20102e-20)
(0.317769 0.116244 0)
(0.281542 0.1048 -1.89346e-24)
(0.229635 0.0878661 0)
(0.162707 0.0652779 2.55996e-21)
(0.0880994 0.03751 -4.54477e-24)
(0.0240957 0.0107182 1.24775e-20)
(0.14754 0.0405854 1.72394e-20)
(0.0882003 0.026686 3.00637e-20)
(0.0888052 0.0261768 0)
(0.0421471 0.0120993 1.249e-22)
(0.0424346 0.0118952 -1.24695e-22)
(0.00976182 0.00350793 -3.31147e-23)
(0.00985856 0.00333739 -8.47789e-21)
(0.00987834 0.00329661 -8.69932e-21)
(0.00984836 0.0034136 -8.63403e-21)
(0.224855 0.0675891 -5.16369e-20)
(0.285197 0.0887024 0)
(0.323913 0.104532 2.60153e-20)
(0.343072 0.115387 0)
(0.346357 0.121101 0)
(0.336684 0.12124 -1.16049e-20)
(0.314645 0.115573 -2.64007e-24)
(0.278744 0.104094 1.89336e-24)
(0.227249 0.0869249 -2.0805e-21)
(0.161139 0.0640859 -3.80252e-21)
(0.0885097 0.0366468 0)
(0.0270528 0.0104701 -1.0715e-20)
(0.147035 0.0395352 6.07412e-20)
(0.0882553 0.026206 -2.82847e-20)
(0.0886767 0.0258092 -2.9132e-23)
(0.0421098 0.011941 0)
(0.0422986 0.0117322 0)
(0.00971344 0.00347022 -8.01368e-21)
(0.00980467 0.00329954 -8.07895e-21)
(0.0098237 0.00325492 0)
(0.00979456 0.00337175 -8.22994e-21)
(0.22321 0.0665593 2.1613e-23)
(0.282685 0.0878351 0)
(0.320832 0.1037 -2.63348e-20)
(0.339651 0.114556 0)
(0.342873 0.120337 1.14796e-20)
(0.333326 0.120565 -3.38221e-24)
(0.311493 0.114937 2.641e-24)
(0.275836 0.103372 1.62799e-21)
(0.224748 0.0860016 3.23234e-21)
(0.159734 0.0631264 0)
(0.0893878 0.0362116 0)
(0.0310884 0.0106899 0)
(0.146315 0.0382013 -2.96422e-23)
(0.0889382 0.0251743 1.06602e-22)
(0.0890229 0.025137 -2.81965e-20)
(0.0423329 0.011731 0)
(0.0423457 0.0115754 0)
(0.00972409 0.0034344 -7.60855e-21)
(0.00979949 0.00327166 -7.68659e-21)
(0.00979314 0.00322564 0)
(0.00976558 0.00333713 -7.80586e-21)
(0.221219 0.0657841 -2.16387e-23)
(0.280119 0.0871035 2.85073e-20)
(0.317745 0.102963 0)
(0.336284 0.113855 0)
(0.339457 0.119691 -1.12846e-20)
(0.329985 0.119948 3.38412e-24)
(0.308277 0.114294 -4.62373e-21)
(0.27281 0.102632 9.58809e-26)
(0.222281 0.0851673 0)
(0.158228 0.0624759 0)
(0.0921819 0.03641 0)
(0.0320388 0.00893144 0)
(0.144775 0.0377459 0)
(0.0901302 0.0238408 0)
(0.0898293 0.0236551 2.63474e-20)
(0.0434809 0.0112415 0)
(0.0429199 0.0112631 2.685e-20)
(0.00981197 0.00338328 0)
(0.009856 0.00322493 -7.28308e-21)
(0.00980789 0.00319148 -7.49558e-21)
(0.0097915 0.00329957 1.45372e-23)
(0.219197 0.0651982 0)
(0.277492 0.0865418 0)
(0.314659 0.102386 0)
(0.332974 0.113294 -2.71703e-21)
(0.336095 0.119128 -6.35467e-24)
(0.326645 0.119337 2.92104e-21)