/*--------------------------------*- C++ -*----------------------------------*\
| =========                 |                                                 |
| \\      /  F ield         | OpenFOAM: The Open Source CFD Toolbox           |
|  \\    /   O peration     | Version:  v1912                                 |
|   \\  /    A nd           | Website:  www.openfoam.com                      |
|    \\/     M anipulation  |                                                 |
\*---------------------------------------------------------------------------*/
FoamFile
{
    version     2.0;
    format      ascii;
    class       surfaceScalarField;
    location    "170";
    object      phi;
}
// * * * * * * * * * * * * * * * * * * * * * * * * * * * * * * * * * * * * * //

dimensions      [0 3 -1 0 0 0 0];
oriented        oriented;


internalField   nonuniform List<scalar> 
7194
(
-1.81781e-06
0.0013191
0.00395958
-1.96857e-06
0.00132107
-9.12595e-06
0.00396673
-2.12143e-06
0.00132319
-2.42591e-05
0.00657205
-9.51235e-06
0.00397413
-2.12549e-06
0.00132532
-4.49206e-05
0.00905006
-2.4129e-05
0.00658667
-9.51719e-06
0.00398152
-2.00681e-06
0.00132733
-7.51705e-05
0.0112889
-4.81894e-05
0.00907412
-2.36534e-05
0.0066008
-9.39216e-06
0.0039889
-2.04883e-06
0.00132937
-0.000115861
0.0131519
-7.92029e-05
0.01132
-4.54867e-05
0.00909596
-2.427e-05
0.00661568
-9.77611e-06
0.00399663
-1.73281e-06
0.00133111
-0.000162168
0.0145115
-0.000119532
0.0131922
-7.91e-05
0.0113536
-4.64728e-05
0.00911816
-2.18533e-05
0.00662776
-8.13575e-06
0.00400303
-1.60917e-06
0.00133272
-0.000208277
0.0152557
-0.000165096
0.014557
-0.000117888
0.013231
-7.343e-05
0.0113805
-4.15541e-05
0.00913786
-1.96594e-05
0.00663928
-7.3174e-06
0.00400874
-1.50565e-06
0.00133422
-0.000249418
0.015315
-0.000214453
0.015305
-0.000162448
0.0146016
-0.000112602
0.0132702
-7.08359e-05
0.0114098
-3.79186e-05
0.00915612
-1.83242e-05
0.00665029
-6.69565e-06
0.00401393
-1.18008e-06
0.0013354
-0.000279688
0.0146551
-0.000258351
0.0153589
-0.000211459
0.0153541
-0.000155959
0.014645
-0.000101103
0.0133004
-6.18784e-05
0.0114338
-3.36937e-05
0.00917149
-1.56346e-05
0.00665923
-4.62702e-06
0.00401738
-1.19414e-06
0.0013366
-0.000293049
0.0133115
-0.000300595
0.0146974
-0.000258297
0.0154057
-0.000197821
0.0153959
-0.000137131
0.014681
-9.22257e-05
0.0133308
-5.44676e-05
0.0114545
-3.00834e-05
0.00918594
-1.4283e-05
0.00666889
-5.25345e-06
0.00402144
-8.61819e-07
0.00133746
-0.000286201
0.0113674
-0.000330939
0.0133419
-0.000296589
0.0147357
-0.000237275
0.0154451
-0.000173525
0.0154323
-0.000122669
0.0147114
-7.86327e-05
0.013355
-4.77178e-05
0.0114722
-2.58169e-05
0.00919747
-1.10071e-05
0.00667464
-4.63305e-06
0.00402521
-7.67434e-07
0.00133823
-0.000245779
0.00895695
-0.000350832
0.0113873
-0.000326795
0.0133721
-0.000263627
0.014762
-0.000201023
0.0154726
-0.000149367
0.015459
-0.000102547
0.0147353
-6.59661e-05
0.0133732
-3.96683e-05
0.011486
-2.16114e-05
0.00920808
-1.14887e-05
0.00668149
-4.22788e-06
0.00402867
-8.03683e-07
0.00133903
-5.05938e-05
0.0062329
-0.000109721
-0.000357468
0.00896359
-0.000344031
0.0114046
-0.000276238
0.0133847
-0.000217373
0.0147784
-0.000166623
0.0154899
-0.000119689
0.0154762
-8.43558e-05
0.0147537
-5.81646e-05
0.0133917
-3.65393e-05
0.011501
-2.08122e-05
0.0092174
-1.03584e-05
0.00668763
-4.06716e-06
0.00403193
-7.88456e-07
0.00133982
0.0021154
-0.00213355
-3.24473e-05
-0.000141656
0.00621884
-0.000201749
0.00206946
-6.37787e-05
-0.000349294
0.00896885
-0.000268887
0.0113972
-0.000211466
0.0133788
-0.000166914
0.0147787
-0.000129539
0.0154997
-0.000101302
0.0154931
-7.37741e-05
0.0147693
-4.79926e-05
0.0134032
-3.04735e-05
0.0115106
-1.75958e-05
0.00922464
-8.80625e-06
0.00669236
-3.94505e-06
0.00403509
-8.56386e-07
0.00134068
-2.00577e-05
0.0013949
-0.0014198
-9.07055e-07
-6.64018e-06
0.00203884
-0.000111035
-0.000195195
0.00620459
-0.000139849
0.00201107
-0.000173982
0.00135152
-1.54972e-05
-4.90458e-06
-0.00022803
0.008928
-0.000183581
0.0113693
-0.000153952
0.0133658
-0.00012865
0.0147778
-0.000105255
0.0155037
-8.0781e-05
0.0155001
-5.76613e-05
0.014779
-4.25542e-05
0.0134152
-2.79337e-05
0.011521
-1.89801e-05
0.00923481
-1.03411e-05
0.00669876
-3.48925e-06
0.00403772
-1.09833e-06
0.00134177
-3.60025e-06
-5.89645e-08
0.000445406
-0.000445547
-7.65713e-07
0.000440518
-1.75269e-06
0.00129707
-1.68474e-05
-3.97429e-05
0.00198732
-0.000171441
-0.000100356
0.00611853
-4.16128e-05
0.00195662
-0.000109153
0.00126288
-8.6852e-05
-5.29321e-05
-0.000438253
0.000428245
-5.4887e-06
-2.63938e-06
-0.000124653
0.00886907
-0.000116988
0.0113324
-0.000107443
0.0133446
-9.60206e-05
0.0147685
-8.00965e-05
0.015503
-6.39747e-05
0.0155064
-5.22884e-05
0.0147887
-3.86444e-05
0.0134259
-2.7315e-05
0.0115293
-1.73355e-05
0.00924181
-1.08784e-05
0.00670615
-5.04516e-06
0.00404167
-1.15904e-06
0.00134293
-0.000448087
-1.06059e-06
-1.80194e-08
0.000260858
-0.000261562
-6.17943e-08
0.00025938
-2.74539e-07
0.000420574
-9.17686e-06
0.000399078
-1.82466e-05
0.00123484
-7.99103e-05
-6.3491e-05
0.00191066
-5.43964e-05
-3.64906e-05
0.0060386
-8.23121e-06
0.00189334
-2.42868e-05
0.00118305
-1.69942e-05
-4.03744e-05
-0.000379304
0.000352325
-5.98726e-05
-3.31585e-05
-0.000257153
0.000252427
-7.62339e-07
-4.12949e-07
-6.70002e-05
0.00881908
-7.46151e-05
0.0112995
-7.61099e-05
0.0133247
-7.24453e-05
0.0147609
-6.49964e-05
0.015504
-5.80951e-05
0.0155122
-4.69748e-05
0.0147971
-3.69596e-05
0.0134356
-2.93587e-05
0.0115413
-2.07188e-05
0.00925165
-1.0722e-05
0.00671183
-5.36817e-06
0.00404588
-1.22598e-06
0.00134416
-0.000262509
-1.13755e-07
-4.46479e-08
7.55482e-05
-7.561e-05
7.52737e-05
0.000244973
-1.72296e-06
0.000230502
-3.77562e-06
0.000330766
-5.83515e-05
0.000310732
-4.34573e-05
0.00114161
-1.03887e-05
-2.56795e-06
0.00186938
-1.25361e-05
-1.53059e-05
0.00598753
-6.28533e-07
0.00186658
-5.43272e-06
0.00112064
-1.7545e-07
-3.13446e-06
-0.000289007
0.000278318
-6.30519e-06
-1.86488e-05
-0.00020706
0.000168454
-2.12672e-05
-9.71623e-06
-7.48607e-05
7.40984e-05
-3.72235e-05
0.00878169
-4.88829e-05
0.0112723
-5.42191e-05
0.0133065
-5.46307e-05
0.0147505
-5.41916e-05
0.0155001
-4.91343e-05
0.0155144
-4.33359e-05
0.0148034
-3.82055e-05
0.0134444
-2.97287e-05
0.0115503
-2.05198e-05
0.00926144
-1.37347e-05
0.00672019
-6.2133e-06
0.00405087
-1.54943e-06
0.00134571
-7.57238e-05
7.23754e-05
6.85998e-05
0.000147719
-3.76164e-05
0.000104262
0.000270204
-2.27534e-06
0.000268307
-6.70478e-07
0.00110908
-1.20032e-06
2.16164e-07
0.00185481
-3.53426e-06
-7.87865e-06
0.00595723
9.53305e-07
0.00185519
-1.0049e-06
0.00110374
5.48723e-07
-6.38009e-07
-0.000265547
0.000265464
-9.27707e-08
-3.74547e-07
-8.56131e-05
7.9308e-05
-5.88836e-05
3.76164e-05
-2.19969e-05
0.0087548
-3.34379e-05
0.0112515
-4.05673e-05
0.0132924
-4.67137e-05
0.014743
-4.76777e-05
0.0154987
-4.68318e-05
0.0155179
-4.60641e-05
0.0148113
-4.08374e-05
0.0134555
-3.27849e-05
0.0115626
-2.52611e-05
0.00927297
-1.52237e-05
0.0067292
-6.97973e-06
0.0040563
-1.58737e-06
0.0013473
7.70326e-05
7.63621e-05
0.000264437
-1.72996e-07
0.000264629
2.45076e-08
0.00110032
-3.3423e-07
2.23897e-07
0.00184872
-1.41473e-06
-4.99124e-06
0.00593858
1.64916e-06
0.0018503
-6.25964e-07
0.00109923
4.02549e-07
-3.22901e-07
-0.000263934
0.000264424
5.91214e-08
5.6345e-08
-7.59876e-05
7.58948e-05
-1.39986e-05
0.00873536
-2.48723e-05
0.0112358
-3.19799e-05
0.0132777
-3.77846e-05
0.0147331
-4.44809e-05
0.0154963
-4.78082e-05
0.0155196
-4.94694e-05
0.0148199
-4.55384e-05
0.0134683
-3.95496e-05
0.0115769
-2.868e-05
0.00928643
-1.71105e-05
0.00673933
-7.82497e-06
0.00406253
-1.9499e-06
0.00134925
7.57218e-05
7.57463e-05
0.000264176
-8.63016e-08
0.000264344
5.55208e-08
0.00109785
-1.88277e-07
1.51515e-07
0.00184597
-6.55264e-07
-3.14045e-06
0.00592675
9.64839e-07
0.00184765
-2.95745e-08
0.00109713
2.63234e-07
-1.61297e-07
-0.000263941
0.000264311
3.2917e-08
8.04676e-08
-7.58027e-05
7.58618e-05
-1.01433e-05
0.00872063
-1.72303e-05
0.0112211
-2.74306e-05
0.0132673
-3.5543e-05
0.0147242
-4.38329e-05
0.0154924
-5.35202e-05
0.0155237
-5.5892e-05
0.0148303
-5.44013e-05
0.0134831
-4.53865e-05
0.0115936
-3.41511e-05
0.00930347
-2.05245e-05
0.00675203
-9.39045e-06
0.00406997
-2.05001e-06
0.0013513
7.57755e-05
7.5831e-05
0.000264191
-6.84711e-08
0.00026431
3.26069e-08
0.00109658
-1.51797e-07
4.6974e-08
0.00184505
-5.43576e-07
-1.85794e-06
0.00591773
7.39958e-07
0.00184579
2.24961e-07
0.00109639
2.52701e-07
-9.54625e-08
-0.000264083
0.000264335
1.06139e-08
6.56437e-08
-7.59115e-05
7.59444e-05
-7.05212e-06
0.00871046
-1.4263e-05
0.0112079
-2.49591e-05
0.0132568
-3.63414e-05
0.0147167
-4.92513e-05
0.0154881
-5.9189e-05
0.015527
-6.59801e-05
0.0148419
-6.36559e-05
0.0135014
-5.35411e-05
0.011613
-3.60316e-05
0.00931897
-2.08558e-05
0.0067635
-8.93173e-06
0.00407686
-1.86184e-06
0.00135316
7.5876e-05
7.59086e-05
0.000264263
-7.94281e-08
0.000264293
1.68116e-08
0.0010959
-8.76095e-08
3.47862e-08
0.00184432
-3.87866e-07
-1.47585e-06
0.00591099
1.16184e-06
0.00184488
1.81153e-07
0.00109607
1.64172e-07
-1.0785e-07
-0.000264127
0.000264371
8.30612e-09
7.09897e-08
-7.59742e-05
7.59848e-05
-5.91108e-06
0.0087021
-1.29901e-05
0.0111959
-2.39661e-05
0.0132444
-4.21006e-05
0.0147096
-6.09184e-05
0.0154898
-7.57105e-05
0.0155367
-7.96319e-05
0.0148578
-7.33192e-05
0.0135212
-5.88478e-05
0.0116358
-4.12417e-05
0.00933936
-2.30006e-05
0.00677757
-8.83746e-06
0.00408383
-1.93142e-06
0.00135509
7.59054e-05
7.59222e-05
0.000264364
-8.0267e-08
0.000264385
1.40846e-08
0.00109574
-1.99076e-08
-4.42513e-08
0.00184361
-2.10079e-07
-1.17337e-06
0.00590528
9.7175e-07
0.00184455
2.26519e-07
0.0010958
1.62521e-07
-4.30643e-08
-0.000264208
0.00026437
2.16908e-09
6.83044e-08
-7.59932e-05
7.60015e-05
-4.09635e-06
0.00869321
-1.26983e-05
0.0111847
-2.84395e-05
0.0132307
-4.73208e-05
0.014696
-7.08676e-05
0.015485
-8.95433e-05
0.0155466
-9.749e-05
0.014882
-8.70267e-05
0.0135494
-6.65723e-05
0.0116611
-4.35333e-05
0.00935989
-2.24992e-05
0.00679123
-9.53477e-06
0.00409144
-2.51069e-06
0.0013576
7.59212e-05
7.59353e-05
0.00026443
-7.99275e-08
0.000264378
8.56759e-09
0.00109565
-1.8422e-08
-3.83346e-08
0.00184356
-1.82485e-07
-6.3911e-07
0.005901
8.28247e-07
0.00184429
2.34902e-07
0.00109574
1.66298e-07
-3.1179e-08
-0.000264238
0.000264395
5.5667e-09
9.70386e-08
-7.60036e-05
7.60058e-05
-5.04692e-06
0.00868556
-1.51042e-05
0.0111713
-3.42344e-05
0.0132176
-6.49236e-05
0.01469
-9.41777e-05
0.0154896
-0.00011303
0.0155622
-0.000113272
0.0149083
-9.74229e-05
0.0135802
-7.15544e-05
0.0116891
-4.4755e-05
0.00938215
-2.28402e-05
0.00680454
-7.77884e-06
0.0040967
-7.36964e-07
0.00135834
7.59259e-05
7.59344e-05
0.000264459
-8.33732e-08
0.000264405
1.62918e-08
0.00109562
-1.11728e-08
-4.85021e-08
0.00184364
1.37508e-08
-3.40875e-07
0.00589585
4.36426e-07
0.0018442
2.71757e-07
0.00109571
1.64862e-07
-2.21206e-08
-0.000264308
0.000264468
6.15119e-09
6.54037e-08
-7.60315e-05
7.60371e-05
-4.32883e-06
0.00867478
-2.03059e-05
0.0111574
-4.80329e-05
0.0132007
-8.46828e-05
0.0146805
-0.000118616
0.0154952
-0.00013675
0.0155856
-0.000130125
0.014941
-0.000106869
0.0136155
-7.51856e-05
0.0117196
-4.21575e-05
0.00940147
-2.14289e-05
0.00681819
-6.7566e-06
0.00410272
-6.67331e-07
0.001359
7.59537e-05
7.597e-05
0.000264545
-8.78038e-08
0.000264388
1.08517e-07
0.00109577
-6.51849e-09
-3.83516e-08
0.0018438
5.99157e-08
1.86256e-07
0.00589208
-7.41089e-07
0.0018441
1.34905e-07
0.00109589
1.69083e-07
-1.58816e-08
-0.000264379
0.000264551
-6.44376e-09
-1.33639e-08
-7.60354e-05
7.60415e-05
-7.52364e-06
0.008662
-2.77427e-05
0.0111371
-6.48487e-05
0.0131809
-0.000113635
0.0146755
-0.000151345
0.0155098
-0.00016358
0.0156191
-0.000145002
0.0149791
-0.000111143
0.0136515
-7.23991e-05
0.0117498
-4.12317e-05
0.00942127
-1.7526e-05
0.00682896
-6.24951e-06
0.00410831
-4.1622e-07
0.00135942
7.59537e-05
7.60622e-05
0.00026459
-4.63883e-08
0.00026444
1.11851e-07
0.00109598
3.75886e-09
-3.24494e-08
0.00184419
9.79103e-08
1.06329e-06
0.00588453
-1.03586e-06
0.0018433
1.48105e-07
0.00109596
1.69968e-07
-1.3229e-08
-0.000264436
0.00026461
-5.25119e-09
-1.13719e-08
-7.60489e-05
7.60424e-05
-1.11735e-05
0.00864543
-4.057e-05
0.0111128
-9.52188e-05
0.0131625
-0.000151642
0.0146758
-0.000188252
0.0155345
-0.000185775
0.0156599
-0.00015507
0.015023
-0.000111157
0.0136903
-6.83247e-05
0.0117769
-3.65251e-05
0.00944027
-1.60643e-05
0.00683877
-3.04193e-06
0.00411093
-1.94719e-07
0.00135962
7.59961e-05
7.61079e-05
0.000264693
-7.87092e-08
0.000264547
1.127e-07
0.00109607
3.51536e-09
-2.37501e-08
0.00184419
1.74847e-07
1.39571e-06
0.00587396
-2.00088e-06
0.00184334
-1.87667e-07
0.00109608
1.65836e-07
-1.96726e-08
-0.000264544
0.00026472
-5.47643e-09
-1.01276e-08
-7.60965e-05
7.60913e-05
-1.82997e-05
0.00862316
-6.46002e-05
0.0110822
-0.000135482
0.0131463
-0.000199427
0.014687
-0.000223367
0.015572
-0.000197592
0.0157024
-0.000153724
0.0150656
-0.000101996
0.0137239
-6.11586e-05
0.0118015
-3.10938e-05
0.0094553
-1.07845e-05
0.00684651
-2.78416e-06
0.00411352
1.78964e-07
0.00135944
7.60126e-05
7.61253e-05
0.000264767
-4.36443e-08
0.000264664
7.96316e-08
0.00109628
9.97362e-11
-2.92743e-08
0.00184427
4.66227e-07
9.10214e-07
0.0058582
-3.44505e-06
0.00184268
-4.0963e-07
0.00109591
1.79426e-07
3.31796e-09
-0.000264622
0.000264796
-8.15854e-09
2.22252e-08
-7.61152e-05
7.61097e-05
-3.08313e-05
0.00858939
-0.000100835
0.0110476
-0.000191774
0.0131387
-0.00024896
0.0147126
-0.00024129
0.0156157
-0.000200853
0.0157495
-0.000142799
0.0151064
-9.28842e-05
0.0137557
-5.19893e-05
0.0118224
-2.29938e-05
0.00946751
-6.58514e-06
0.00685031
7.1178e-07
0.00411299
1.73183e-06
0.0013577
7.6066e-05
7.61457e-05
0.00026488
-8.37176e-08
0.000264759
9.13734e-08
0.00109637
1.84635e-08
-1.16807e-08
0.00184304
5.4373e-07
1.63391e-06
0.00583162
-5.88863e-06
0.00184024
-6.40594e-07
0.00109584
1.08541e-07
7.21748e-09
-0.000264753
0.000264929
2.68902e-09
9.55763e-09
-7.61679e-05
7.61598e-05
-5.54011e-05
0.00854396
-0.000161246
0.011017
-0.000260039
0.0131498
-0.000281236
0.0147526
-0.000245644
0.0156605
-0.000184668
0.0157914
-0.000126682
0.0151402
-7.73475e-05
0.013781
-4.14465e-05
0.0118409
-1.58308e-05
0.00947675
-3.13834e-06
0.00685416
1.61536e-06
0.0041131
2.06441e-06
0.00135564
7.6076e-05
7.61674e-05
0.000265025
-7.75564e-08
0.000264917
9.65945e-08
0.00109636
9.38426e-08
-6.3107e-08
0.00184191
-3.98345e-08
-1.85921e-07
0.00578845
-1.20478e-05
0.00183697
-9.47299e-07
0.00109558
5.04571e-08
8.1001e-08
-0.000264913
0.000265023
-1.5541e-09
1.18988e-08
-7.6177e-05
7.61797e-05
-0.000104363
0.00848708
-0.000242688
0.0109997
-0.000310753
0.0131793
-0.000287885
0.0147948
-0.000224273
0.0157001
-0.000159634
0.0158243
-0.000103881
0.0151667
-6.17268e-05
0.0138013
-2.88621e-05
0.0118539
-9.48564e-06
0.0094831
9.20624e-07
0.00685486
5.22841e-06
0.00410994
2.4627e-06
0.00135318
7.61021e-05
7.61987e-05
0.000265162
-4.51699e-08
0.00026503
6.90262e-08
0.00109549
1.77362e-07
-1.25954e-07
0.00183759
-8.06537e-07
-5.21385e-06
0.00571727
-2.79684e-05
0.00182842
-2.87675e-06
0.00109445
-9.72622e-11
9.91522e-08
-0.000265065
0.00026511
5.66207e-09
4.55405e-08
-7.62106e-05
7.62091e-05
-0.000192328
0.00843672
-0.000330179
0.0110191
-0.000322558
0.0132139
-0.00025622
0.0148267
-0.000188726
0.0157292
-0.000130048
0.0158505
-8.24736e-05
0.0151875
-4.39302e-05
0.0138164
-1.86076e-05
0.011863
-2.47867e-06
0.0094865
3.58893e-06
0.0068565
7.27854e-06
0.00410513
2.84392e-06
0.00135033
7.61639e-05
7.62329e-05
0.00026536
-7.25929e-08
0.000265131
1.02577e-07
0.00109362
1.92589e-07
-1.70263e-07
0.0018265
-3.2917e-06
-2.60402e-05
0.00562205
-7.10614e-05
0.00180728
-8.75185e-06
0.00109096
-3.12729e-07
9.79819e-08
-0.000265215
0.000265245
-2.97397e-08
1.53359e-08
-7.62785e-05
7.62841e-05
-0.000323321
0.00842986
-0.000348643
0.0110452
-0.000275621
0.0132333
-0.000206413
0.0148444
-0.000147403
0.0157466
-9.97974e-05
0.0158678
-5.88624e-05
0.0152024
-2.94104e-05
0.0138272
-8.70305e-06
0.0118693
3.86921e-06
0.00948622
1.07509e-05
0.00685303
7.60703e-06
0.00410036
3.3191e-06
0.00134701
7.62115e-05
7.63141e-05
0.000265465
-2.76369e-08
0.000265217
7.78113e-08
0.00108771
4.4628e-07
-4.90536e-07
0.00179531
-1.40649e-05
-9.54949e-05
0.00556899
-0.000174776
0.00175527
-3.10218e-05
0.0010796
-8.05656e-07
1.58245e-07
-0.000265263
0.000264985
-3.42358e-08
5.17014e-08
-7.63295e-05
7.62997e-05
-0.000362695
0.00844391
-0.000275343
0.0110449
-0.000206168
0.0132331
-0.000154089
0.0148511
-0.000108498
0.0157553
-6.96595e-05
0.0158786
-3.95213e-05
0.0152125
-1.4007e-05
0.0138325
2.6939e-06
0.0118704
1.13765e-05
0.00948559
1.18938e-05
0.00684874
9.16974e-06
0.00409451
3.85758e-06
0.00134316
7.62721e-05
7.63499e-05
0.000265478
-4.70342e-08
0.00026491
7.79045e-08
0.00106684
1.39085e-07
-1.4375e-06
0.00171945
-5.96776e-05
-0.000195624
0.00556243
-0.000160511
0.00167063
-0.000125951
0.00103966
-3.5882e-06
-2.52219e-07
-0.000265043
0.000264314
-7.66259e-08
2.48707e-08
-7.64016e-05
7.63674e-05
-0.00023951
0.00840808
-0.000179003
0.0110178
-0.000139257
0.0132183
-0.000103746
0.0148464
-7.41899e-05
0.0157598
-4.69216e-05
0.015886
-2.08158e-05
0.0152193
-3.80853e-06
0.013839
1.06745e-05
0.0118711
1.52548e-05
0.00948223
1.9426e-05
0.00683848
1.07106e-05
0.00408766
4.58779e-06
0.00133857
7.63203e-05
7.63982e-05
0.000264554
-1.01201e-07
0.000263144
-2.70693e-08
0.000992634
-2.17045e-06
-1.04843e-05
0.00164337
-0.000168366
-0.00010682
0.00547241
-4.26675e-05
0.00160994
-0.000127084
0.000917992
-3.70212e-05
-1.42885e-05
-0.000262961
0.000259894
-5.21292e-07
-6.94476e-08
-7.64231e-05
7.63465e-05
-0.000121139
0.00835021
-0.00010655
0.0109851
-8.96175e-05
0.0132041
-6.95085e-05
0.0148417
-4.86267e-05
0.0157615
-2.4974e-05
0.0158902
-6.91574e-06
0.0152224
8.14951e-06
0.0138415
1.79598e-05
0.0118684
2.14829e-05
0.00948018
1.74296e-05
0.00683176
1.51549e-05
0.00407709
6.30514e-06
0.00133226
7.62453e-05
7.62182e-05
0.000258329
-6.05138e-07
0.000249575
-1.73085e-06
0.000872572
-5.94506e-05
-6.34955e-05
0.00155789
-5.47718e-05
-3.17004e-05
0.00538827
-5.29854e-06
0.0015353
-2.00713e-05
0.000808997
-1.86286e-05
-4.48802e-05
-0.000239101
0.000212034
-9.95416e-06
-3.81383e-06
-7.61488e-05
7.56275e-05
-5.65901e-05
0.00830026
-5.89919e-05
0.0109544
-5.31378e-05
0.0131878
-4.11152e-05
0.0148342
-2.33492e-05
0.0157599
-7.26124e-06
0.0158905
6.57836e-06
0.015224
2.04507e-05
0.013839
2.56131e-05
0.0118643
2.81526e-05
0.00946945
2.54838e-05
0.00682144
1.5313e-05
0.00406808
5.76524e-06
0.0013265
7.50223e-05
7.32915e-05
0.000174628
-2.20449e-05
0.000148611
-3.74786e-05
0.00076182
-6.35224e-06
-1.24202e-06
0.00151207
-8.46966e-06
-1.10265e-05
0.00534094
1.7668e-06
0.00150936
-2.59617e-06
0.000742528
9.79783e-08
-8.77436e-07
-0.000103731
8.51023e-05
-6.94777e-05
5.95235e-05
-2.72864e-05
0.00826855
-3.28584e-05
0.0109342
-2.84026e-05
0.0131751
-1.93846e-05
0.0148302
-9.02951e-06
0.0157617
4.2626e-06
0.0158928
1.68826e-05
0.0152276
2.71988e-05
0.0138374
3.14037e-05
0.0118611
3.26709e-05
0.00946227
2.78997e-05
0.00680885
1.90839e-05
0.00405476
6.58599e-06
0.00131991
3.74786e-05
7.875e-05
7.7508e-05
0.000734108
-1.946e-07
1.45034e-07
0.0014997
-1.36307e-06
-4.99819e-06
0.00531551
3.14275e-06
0.00150136
1.02718e-07
0.00073145
1.45596e-07
-8.41209e-08
-7.66306e-05
7.67285e-05
-1.13039e-05
0.008247
-1.38451e-05
0.0109196
-1.21862e-05
0.0131679
-4.06962e-06
0.0148253
6.66366e-06
0.0157593
1.81949e-05
0.0158915
2.91038e-05
0.0152257
3.52298e-05
0.0138336
3.9644e-05
0.0118541
4.11053e-05
0.00944906
3.17651e-05
0.00679617
2.14782e-05
0.00403987
8.50526e-06
0.00131141
7.65339e-05
7.6679e-05
0.000729981
-1.85027e-08
1.25251e-07
0.0014965
-1.32164e-07
-2.80514e-06
0.00530412
2.89381e-06
0.00149921
4.26595e-07
0.000730018
9.53724e-08
-3.03353e-08
-7.65949e-05
7.67405e-05
-3.35392e-06
0.0082365
-3.22544e-06
0.0109106
1.02275e-06
0.0131628
8.6706e-06
0.0148232
1.91721e-05
0.0157583
2.83411e-05
0.0158923
3.83512e-05
0.0152225
4.38949e-05
0.0138293
4.83287e-05
0.0118469
4.34416e-05
0.00943738
3.719e-05
0.00678046
2.1551e-05
0.00402683
8.06345e-06
0.00130334
7.6722e-05
7.68472e-05
0.000729827
-3.04264e-08
9.00099e-08
0.0014963
1.12382e-07
-1.19018e-06
0.00529923
2.72239e-06
0.00149866
5.2572e-07
0.000730209
6.36371e-08
-1.96164e-08
-7.68169e-05
7.69123e-05
1.86642e-06
0.00823141
3.83987e-06
0.0109078
9.47022e-06
0.013162
1.67886e-05
0.0148256
2.67433e-05
0.0157599
3.83446e-05
0.0158923
4.55111e-05
0.0152209
5.38628e-05
0.0138238
5.54031e-05
0.0118349
4.95373e-05
0.00942504
4.07349e-05
0.00676127
2.43534e-05
0.00401054
8.96786e-06
0.00129438
7.68819e-05
7.69719e-05
0.000730243
-4.22739e-09
8.25073e-08
0.00149715
3.28888e-07
-2.60552e-07
0.00529829
3.06771e-06
0.00149928
5.84589e-07
0.000730744
5.27004e-08
-2.76449e-08
-7.69523e-05
7.70159e-05
4.31429e-06
0.00823094
9.11595e-06
0.0109082
1.69409e-05
0.0131618
2.62709e-05
0.0148261
3.61385e-05
0.0157621
4.68561e-05
0.015891
5.61241e-05
0.0152187
6.06624e-05
0.0138185
5.75205e-05
0.0118269
5.49606e-05
0.00941081
4.24381e-05
0.00674319
2.98779e-05
0.00398963
9.37758e-06
0.001285
7.70117e-05
7.70942e-05
0.000730995
2.83149e-08
4.94216e-08
0.0014986
4.25949e-07
-9.77072e-08
0.00529974
2.96156e-06
0.00150107
5.98363e-07
0.000731469
3.30917e-08
7.7594e-08
-7.70665e-05
7.71192e-05
7.5171e-06
0.00823254
1.441e-05
0.0109107
2.25598e-05
0.0131655
3.3888e-05
0.0148283
4.60619e-05
0.0157629
5.54173e-05
0.0158917
6.34839e-05
0.0152158
6.91006e-05
0.013807
7.19028e-05
0.01181
6.27014e-05
0.00939055
5.27907e-05
0.00672027
3.05265e-05
0.00396848
9.9625e-06
0.00127504
7.71476e-05
7.7197e-05
0.000731808
3.13578e-08
5.50188e-08
0.00150053
4.3872e-07
8.21692e-07
0.00530393
2.50847e-06
0.00150287
6.25767e-07
0.000732387
2.04783e-08
-8.38906e-10
-7.72746e-05
7.73076e-05
9.01492e-06
0.00823793
1.71023e-05
0.0109162
2.74976e-05
0.0131719
4.08547e-05
0.0148336
5.21612e-05
0.0157661
6.48135e-05
0.0158903
7.51203e-05
0.0152098
7.90195e-05
0.0137998
8.13934e-05
0.0117913
7.23192e-05
0.00937102
5.43874e-05
0.00669641
3.43178e-05
0.00394412
1.34502e-05
0.00126159
7.7339e-05
7.7394e-05
0.000732775
7.39522e-09
4.29266e-08
0.00150307
6.17132e-07
1.10248e-06
0.00530926
2.58053e-06
0.0015049
6.73932e-07
0.000733347
2.44679e-08
2.9388e-08
-7.73932e-05
7.74136e-05
1.04535e-05
0.00824458
2.10679e-05
0.0109226
3.35668e-05
0.0131792
4.67361e-05
0.014839
6.09474e-05
0.01577
7.43707e-05
0.0158911
8.2342e-05
0.0152065
8.73829e-05
0.0137939
8.45679e-05
0.011779
8.00493e-05
0.00934536
6.13418e-05
0.00666939
3.77794e-05
0.00391979
2.77072e-05
0.00123388
7.7421e-05
7.7464e-05
0.000733873
3.34532e-08
5.77068e-08
0.00150534
6.63411e-07
1.26709e-06
0.00531612
2.33059e-06
0.00150698
9.41095e-07
0.000734514
2.79886e-08
5.24757e-09
-7.74933e-05
7.75178e-05
1.15807e-05
0.00825407
2.49834e-05
0.0109312
4.13856e-05
0.0131846
5.55396e-05
0.0148444
7.17864e-05
0.0157726
8.2284e-05
0.0158911
9.33702e-05
0.0152005
9.76838e-05
0.0137807
9.61059e-05
0.011763
8.59322e-05
0.00932077
6.80134e-05
0.00663916
5.83092e-05
0.00388919
5.46393e-05
7.75512e-05
7.76089e-05
0.000735083
3.49029e-08
5.90592e-08
0.00150749
7.57185e-07
1.14872e-06
0.00532492
1.62435e-06
0.00150927
5.53626e-07
0.000735913
1.05663e-07
6.16422e-09
-7.76142e-05
7.76422e-05
1.31088e-05
0.00826594
2.80537e-05
0.0109445
4.51187e-05
0.013195
6.33164e-05
0.0148529
7.91303e-05
0.0157758
9.38972e-05
0.0158906
0.000102891
0.0151953
0.000106435
0.0137704
0.00010385
0.0117451
9.13748e-05
0.00929741
8.77842e-05
0.00660968
9.96137e-05
7.76771e-05
7.77361e-05
0.000736566
7.19608e-08
3.16348e-08
0.00151011
3.06826e-07
7.84489e-07
0.00533608
1.16676e-06
0.00151193
-1.96964e-07
0.000737062
3.12051e-08
2.6826e-08
-7.77423e-05
7.78479e-05
1.72416e-05
0.00827676
3.39341e-05
0.0109557
5.12619e-05
0.013207
6.95658e-05
0.0148624
8.68788e-05
0.0157828
0.000102789
0.0158907
0.000112382
0.0151894
0.00011967
0.0137546
0.000116716
0.0117197
0.00011405
0.00927114
0.000129598
7.79199e-05
7.79515e-05
0.000737303
1.61277e-08
4.92132e-08
0.00151404
-1.3274e-06
1.5089e-06
0.00534666
5.15147e-06
0.00151713
-1.91928e-06
0.000737156
-6.22018e-10
-4.95407e-08
-7.79784e-05
7.80095e-05
2.08692e-05
0.00828982
3.70355e-05
0.0109699
5.80437e-05
0.0132186
7.85523e-05
0.0148708
9.82508e-05
0.0157873
0.000110901
0.0158922
0.000122956
0.0151861
0.000128236
0.0137431
0.000133853
0.0116999
0.000151151
7.80257e-05
7.80749e-05
0.000735783
2.36566e-08
2.26138e-08
0.00151515
5.2082e-06
-1.7229e-06
5.33902e-06
0.00535695
5.23995e-06
0.00151947
-3.95378e-07
1.23571e-06
0.000435224
-2.19639e-07
0.000298862
-3.76922e-09
-7.80253e-05
7.80247e-05
2.24248e-05
0.00830443
4.24348e-05
0.0109855
6.32406e-05
0.0132339
8.68414e-05
0.0148822
0.000104635
0.0157936
0.000121367
0.0158938
0.000130215
0.0151841
0.000143083
0.0137338
0.000159789
7.80484e-05
7.8071e-05
0.00045613
-1.56973e-05
0.000461204
-6.79672e-06
0.00152174
1.24443e-06
1.82487e-06
4.62726e-06
0.00537025
4.49877e-06
0.00152422
1.24303e-06
1.50978e-06
0.000463868
-3.05984e-06
0.000466024
-9.1968e-07
-7.80672e-05
7.78476e-05
0.000280328
2.83736e-06
2.43177e-05
0.00832255
4.67345e-05
0.011002
7.14373e-05
0.0132493
9.46487e-05
0.0148921
0.000113702
0.0158012
0.000130014
0.015894
0.000146167
0.015181
0.000164486
0.000274417
-8.85744e-07
0.000466961
3.06675e-07
0.000468258
5.28198e-07
0.00152654
1.02311e-06
1.28792e-06
4.85569e-06
0.00538517
4.54568e-06
0.00152919
7.70607e-07
1.07993e-06
0.000468857
6.44584e-07
0.000469552
8.14838e-07
0.000272401
-1.04415e-06
0.000271995
-5.13375e-07
8.06849e-05
2.77252e-05
0.00834156
5.14915e-05
0.011022
7.86792e-05
0.0132652
0.000100903
0.0149049
0.000120622
0.0158106
0.000138825
0.0159013
0.000157906
7.97992e-05
0.000272301
6.02659e-10
0.000272723
1.05516e-07
0.000469976
5.98433e-07
0.000470843
4.20972e-07
0.00153226
7.82717e-07
1.00396e-06
5.21818e-06
0.0054027
4.97462e-06
0.00153492
1.05967e-06
8.24168e-07
0.0004712
4.14024e-07
0.000471711
5.68702e-07
0.000273206
1.61623e-07
0.000273874
1.46808e-07
7.8755e-05
7.82417e-05
3.05563e-05
0.00836249
5.80075e-05
0.0110427
8.49728e-05
0.0132812
0.000106183
0.0149194
0.000127263
0.0158222
0.000141238
7.82423e-05
7.83478e-05
0.000274288
1.85253e-07
0.000274574
1.34819e-07
0.000472076
4.17949e-07
0.000472616
4.63677e-07
0.00153828
1.04694e-06
8.08433e-07
5.90755e-06
0.00542196
5.38795e-06
0.00154134
1.12258e-06
7.96878e-07
0.000473298
3.77996e-07
0.000473748
3.73624e-07
0.00027489
9.82446e-08
0.000275359
9.95544e-08
7.85094e-05
7.86562e-05
3.50883e-05
0.00838541
6.47086e-05
0.0110629
9.02907e-05
0.0132971
0.000110889
0.0149358
0.000117602
7.88415e-05
7.89763e-05
0.000275682
9.43583e-08
0.000276019
1.27085e-07
0.000474214
5.81444e-07
0.000474638
3.83821e-07
0.00154511
1.2339e-06
9.0247e-07
6.65162e-06
0.00544419
6.21272e-06
0.00154839
1.22142e-06
8.87442e-07
0.000475426
3.34935e-07
0.000475819
4.04152e-07
0.00027634
5.68497e-08
0.000276621
9.26551e-08
7.90745e-05
7.91741e-05
4.06477e-05
0.00840947
7.15499e-05
0.0110817
9.11646e-05
0.0133168
9.15953e-05
7.92685e-05
7.93955e-05
0.000277077
1.25262e-07
0.000277368
9.31913e-08
0.00047643
6.22908e-07
0.000476916
4.1619e-07
0.00155238
1.36795e-06
1.28812e-06
8.04987e-06
0.00546967
7.11781e-06
0.00155617
1.13054e-06
1.28993e-06
0.000477765
3.72883e-07
0.000478037
6.1476e-07
0.000277606
9.70621e-08
0.000277909
1.0105e-07
7.94524e-05
7.9545e-05
4.93741e-05
0.00843165
7.26596e-05
0.0111002
6.49894e-05
7.96703e-05
7.97635e-05
0.000278436
9.6093e-08
0.000278644
2.07589e-07
0.000478888
5.17268e-07
0.0004797
4.76006e-07
0.00156144
1.31126e-06
1.47261e-06
1.05012e-05
0.00549828
1.02532e-05
0.00156563
1.42593e-06
1.49661e-06
0.00048034
4.90828e-07
0.000480946
6.83174e-07
0.000278934
8.26673e-08
0.000279437
1.11922e-07
7.98605e-05
7.99616e-05
5.40888e-05
0.00845022
4.23229e-05
8.00577e-05
8.02653e-05
0.00027981
1.44087e-07
0.00028017
1.16607e-07
0.00048167
5.87359e-07
0.00048258
5.62683e-07
0.00157244
1.73474e-06
1.96158e-06
1.45822e-05
0.00552197
1.58188e-05
0.00157815
2.17088e-06
2.36917e-06
0.000483488
5.18371e-07
0.000484142
8.42317e-07
0.000280543
1.17829e-07
0.000281147
7.92002e-08
8.03479e-05
8.04599e-05
2.82319e-05
8.06039e-05
8.07205e-05
0.000281581
1.52846e-07
0.000282009
1.35056e-07
0.000485154
7.2229e-07
0.00048637
7.46326e-07
0.00158659
2.77626e-06
3.37357e-06
3.1134e-05
1.23745e-05
0.0015936
3.82669e-06
4.97419e-06
0.000487582
9.58897e-07
0.000488631
1.31965e-06
0.000282389
1.38463e-07
0.000283087
1.43877e-07
8.08384e-05
8.09176e-05
8.10704e-05
8.12055e-05
0.000283622
1.86949e-07
0.000284193
1.75826e-07
0.000489997
1.41021e-06
0.000491764
1.60639e-06
0.00160588
8.06273e-06
1.07894e-05
1.61086e-05
7.84958e-06
0.000493781
1.80962e-06
0.000495926
2.82928e-06
0.000284934
2.17781e-07
0.000285962
2.91863e-07
8.13439e-05
8.14878e-05
8.16747e-05
8.18505e-05
0.000287021
3.51417e-07
0.000288242
3.85042e-07
0.000499065
4.92444e-06
0.000502354
7.49979e-06
0.000506746
1.17162e-05
1.12624e-05
0.000289568
4.83834e-07
0.000291667
7.29834e-07
8.20683e-05
8.23602e-05
8.27116e-05
8.30966e-05
0.000295112
1.47943e-06
0.000299227
3.38442e-06
0.000303492
7.45111e-06
1.53144e-05
8.35804e-05
8.43102e-05
8.57897e-05
8.91741e-05
9.66252e-05
-3.91394e-06
3.9138e-06
2.36099e-06
-6.27501e-06
-1.6382e-05
5.08057e-06
1.52149e-05
4.89299e-06
-1.89142e-05
1.1772e-06
-7.45236e-06
9.41535e-06
6.42283e-05
-6.3671e-05
4.26535e-06
1.09494e-05
3.26971e-06
-2.10069e-05
5.50634e-07
-8.00311e-06
-7.32275e-06
9.9314e-05
4.80178e-06
-8.73782e-05
-1.91642e-06
8.41908e-06
6.19904e-05
-1.51388e-06
-6.62104e-05
9.03293e-06
-2.19702e-05
2.41067e-07
-8.24432e-06
-4.4796e-06
0.000103418
8.79343e-06
-0.000393779
-4.91265e-06
0.00040349
-5.63898e-06
1.13716e-05
-8.95607e-05
-3.5527e-06
-7.6135e-07
5.85229e-05
-2.51229e-07
-1.17411e-06
-7.01107e-05
-5.64927e-07
8.27153e-06
-2.29033e-05
1.35403e-07
-8.37982e-06
-3.21808e-06
9.24278e-05
1.63494e-05
-2.14189e-06
-0.000385794
8.08382e-07
-0.00134276
-1.57046e-05
0.00135355
4.40994e-06
0.000410453
1.52625e-05
-9.90976e-05
-2.47841e-06
-3.24762e-06
-7.26701e-05
-3.65532e-07
-6.28241e-07
5.56238e-05
-1.91237e-07
-1.2815e-07
8.02026e-06
-2.33329e-05
1.71313e-07
-8.55122e-06
7.46768e-05
2.15132e-05
-2.09994e-06
-1.66435e-06
-0.000384004