/*--------------------------------*- C++ -*----------------------------------*\
| =========                 |                                                 |
| \\      /  F ield         | OpenFOAM: The Open Source CFD Toolbox           |
|  \\    /   O peration     | Version:  v1912                                 |
|   \\  /    A nd           | Website:  www.openfoam.com                      |
|    \\/     M anipulation  |                                                 |
\*---------------------------------------------------------------------------*/
FoamFile
{
    version     2.0;
    format      ascii;
    class       volScalarField;
    location    "130";
    object      p;
}
// * * * * * * * * * * * * * * * * * * * * * * * * * * * * * * * * * * * * * //

dimensions      [0 2 -2 0 0 0 0];


internalField   nonuniform List<scalar> 
3754
(
0.30862
0.305396
0.342439
0.299116
0.335425
0.449127
0.290389
0.322343
0.426882
0.626648
0.611905
0.280009
0.30608
0.385205
0.57903
0.523655
0.737382
0.745519
0.687028
0.715459
0.268697
0.288816
0.337948
0.457786
0.391269
0.58815
0.641121
0.533628
0.577046
0.257025
0.271737
0.295592
0.312758
0.452962
0.501143
0.295398
0.279618
0.451324
0.245403
0.255333
0.260785
0.250828
-0.244587
-0.187676
0.210172
0.198093
-0.126194
-0.145351
0.234147
0.239876
0.232385
0.208775
-0.260631
-0.442971
-0.387846
-0.404351
-0.0917029
-0.374921
0.223474
0.225584
0.208911
0.177753
-0.192727
-0.339075
-0.359821
-0.46796
-0.451122
-0.357897
-0.472961
0.213575
0.212605
0.189243
0.150541
-0.14308
-0.298114
-0.267822
-0.34523
-0.384628
-0.346191
-0.361284
-0.475735
0.204571
0.201039
0.172649
0.127288
-0.109391
-0.259826
-0.254558
-0.235364
-0.268665
-0.292679
-0.386081
-0.296482
-0.340882
-0.354994
-0.366357
0.196581
0.190922
0.158626
0.108224
-0.0857907
-0.228203
-0.240547
-0.231596
-0.225518
-0.233257
-0.246748
-0.271945
-0.307896
-0.29145
-0.344967
-0.35717
0.189667
0.182291
0.146783
0.0927552
-0.0698463
-0.20256
-0.227263
-0.225742
-0.223839
-0.214012
-0.223376
-0.229612
-0.233641
-0.248501
-0.267162
-0.279088
-0.307317
-0.292947
0.183915
0.175152
0.136815
0.0802666
-0.0598639
-0.183014
-0.216111
-0.219736
-0.221104
-0.213515
-0.203479
-0.21006
-0.217725
-0.224135
-0.230827
-0.229608
-0.239616
-0.253779
-0.245274
-0.268086
-0.278831
0.179357
0.16953
0.128497
0.0703203
-0.0543687
-0.169076
-0.207704
-0.214948
-0.218293
-0.21249
-0.20246
-0.204438
-0.191972
-0.21625
-0.218376
-0.223106
-0.226095
-0.23356
-0.229163
-0.227929
-0.241875
-0.253209
-0.246006
0.176068
0.165418
0.121683
0.0625126
-0.0523444
-0.160038
-0.201995
-0.211681
-0.216028
-0.211634
-0.201811
-0.19131
-0.193099
-0.202221
-0.208395
-0.181208
-0.211832
-0.216067
-0.219933
-0.217495
-0.223467
-0.226307
-0.236001
-0.229298
-0.226829
0.174065
0.162848
0.116259
0.0565617
-0.0531596
-0.155406
-0.198833
-0.20993
-0.214524
-0.21107
-0.201619
-0.191097
-0.181121
-0.181441
-0.191539
-0.196635
-0.201208
-0.204472
-0.206916
-0.210068
-0.215808
-0.175105
-0.215522
-0.220177
-0.217747
-0.2238
-0.226429
-0.235568
-0.229341
0.173428
0.161812
0.112168
0.0522821
-0.0564884
-0.154853
-0.198176
-0.209665
-0.213911
-0.210863
-0.201729
-0.191199
-0.18112
-0.174033
-0.176203
-0.181805
-0.183291
-0.191061
-0.193823
-0.195487
-0.19784
-0.214587
-0.165291
-0.215614
-0.220373
-0.218094
0.174173
0.162355
0.109398
0.0496394
-0.0622656
-0.158232
-0.200005
-0.210882
-0.214237
-0.211106
-0.202091
-0.191493
-0.181254
-0.173204
-0.164479
-0.166108
-0.174512
-0.178746
-0.181355
-0.184253
-0.180373
-0.187648
-0.155075
0.176391
0.164468
0.10802
0.0486353
-0.070742
-0.165512
-0.204327
-0.213541
-0.215524
-0.211837
-0.202703
-0.191927
-0.181484
-0.172644
-0.163742
-0.154313
-0.155854
-0.164225
-0.169197
-0.173659
-0.176125
-0.178053
-0.179604
-0.181273
-0.184784
-0.179016
-0.145556
0.180094
0.168217
0.108158
0.0493738
-0.0824537
-0.176861
-0.211132
-0.217628
-0.217754
-0.21309
-0.203554
-0.192477
-0.181766
-0.172293
-0.163107
-0.153631
-0.144769
-0.146403
-0.15405
-0.158959
-0.163351
-0.166046
-0.168252
-0.170527
-0.17416
-0.176467
-0.178179
-0.179535
-0.136009
0.185384
0.173589
0.110066
0.0518987
-0.0982921
-0.192535
-0.220457
-0.223114
-0.220925
-0.214866
-0.204647
-0.193119
-0.182071
-0.172071
-0.162567
-0.153027
-0.144083
-0.135526
-0.136496
-0.144633
-0.149291
-0.153205
-0.155791
-0.157957
-0.160282
-0.163846
-0.166366
-0.168385
-0.170409
-0.128489
0.192251
0.180684
0.114107
0.0562271
-0.119551
-0.213023
-0.232309
-0.230003
-0.225003
-0.217172
-0.20597
-0.193849
-0.182381
-0.171921
-0.162089
-0.152466
-0.143448
-0.134999
-0.127766
-0.129196
-0.13442
-0.139721
-0.143797
-0.146286
-0.148265
-0.150471
-0.153649
-0.156071
-0.158048
-0.160134
-0.120598
0.200759
0.189507
0.120917
0.0621448
-0.14819
-0.238877
-0.246768
-0.23827
-0.229978
-0.219977
-0.20752
-0.194649
-0.182692
-0.171791
-0.161643
-0.151906
-0.142818
-0.13441
-0.127013
-0.119903
-0.121191
-0.127657
-0.131708
-0.132766
-0.136808
-0.138802
-0.141114
-0.144212
-0.146518
-0.14833
-0.150318
-0.112475
0.210818
0.200257
0.131388
0.0693119
-0.186983
-0.270855
-0.263866
-0.247938
-0.235801
-0.223258
-0.209266
-0.195515
-0.182989
-0.171655
-0.161192
-0.151325
-0.14216
-0.133748
-0.126227
-0.119133
-0.111857
-0.113031
-0.119501
-0.12354
-0.12684
-0.12895
-0.13086
-0.133179
-0.132218
-0.138056
-0.13901
-0.140944
-0.104809
0.222417
0.213089
0.14668
0.0764223
-0.239313
-0.309692
-0.283628
-0.25898
-0.242448
-0.226955
-0.211189
-0.196421
-0.183268
-0.171481
-0.160714
-0.150699
-0.141456
-0.133009
-0.125396
-0.118296
-0.111172
-0.104223
-0.105338
-0.111183
-0.115461
-0.118711
-0.120791
-0.122662
-0.12458
-0.127097
-0.129162
-0.130919
-0.134217
-0.131417
-0.0975742
0.235271
0.228664
0.167608
0.0806903
-0.307364
-0.355779
-0.305766
-0.271327
-0.249824
-0.231014
-0.213239
-0.197352
-0.183506
-0.171258
-0.160181
-0.150013
-0.140688
-0.132198
-0.124509
-0.117393
-0.110406
-0.103575
-0.097014
-0.0980642
-0.10382
-0.107566
-0.109594
-0.112478
-0.114575
-0.116509
-0.118995
-0.120986
-0.122738
-0.124563
-0.127278
-0.129221
-0.130921
-0.133968
-0.0906447
0.248971
0.247797
0.195579
0.0830805
-0.393791
-0.407252
-0.329493
-0.284592
-0.257752
-0.23531
-0.215371
-0.198271
-0.183692
-0.170958
-0.159578
-0.149249
-0.139848
-0.131311
-0.123567
-0.116429
-0.109552
-0.102857
-0.0964008
-0.0901075
-0.0911469
-0.0966156
-0.100218
-0.10411
-0.107665
-0.112203
-0.112798
-0.114666
-0.116482
-0.11919
-0.121063
-0.122893
-0.124619
-0.083914
0.262811
0.269388
0.235605
0.0961395
-0.509341
-0.458738
-0.352974
-0.297866
-0.265781
-0.239652
-0.217496
-0.199148
-0.183795
-0.170568
-0.158881
-0.148396
-0.138922
-0.130347
-0.122567
-0.115414
-0.10862
-0.102058
-0.0957331
-0.0895525
-0.0834878
-0.0843409
-0.0897327
-0.0932074
-0.0969025
-0.100337
-0.103408
-0.105253
-0.108842
-0.106778
-0.111655
-0.11279
-0.114807
-0.116526
-0.0777328
0.275942
0.28953
0.293904
0.11451
-0.650748
-0.503625
-0.372808
-0.309639
-0.273102
-0.243685
-0.219486
-0.199922
-0.183795
-0.170062
-0.158078
-0.147439
-0.1379
-0.129299
-0.121502
-0.11435
-0.107621
-0.101183
-0.0949942
-0.0889598
-0.083038
-0.0773932
-0.0780466
-0.0828911
-0.086417
-0.0900036
-0.0932963
-0.0962109
-0.0980005
-0.101302
-0.099524
-0.0723255
0.287363
0.310069
0.306273
0.33816
0.258824
0.317365
0.386572
-0.636701
-0.117865
-0.775231
-0.536754
-0.77511
-0.384038
-0.318251
-0.278649
-0.246924
-0.221141
-0.200527
-0.183656
-0.169432
-0.157154
-0.146369
-0.136772
-0.128159
-0.120367
-0.113231
-0.106568
-0.100238
-0.0941832
-0.0883021
-0.0825401
-0.0769959
-0.0718744
-0.0727413
-0.0772408
-0.0794667
-0.0832781
-0.086599
-0.0893143
-0.0910511
-0.0942165
-0.0925009
-0.0665669
0.29634
0.327698
0.36331
0.387943
0.41561
0.386261
0.116416
0.130513
-0.65774
-0.628058
-0.339208
-0.942924
-0.823932
-0.801979
-0.59124
-0.385913
-0.514852
-0.763195
-0.322518
-0.281764
-0.248921
-0.222251
-0.200872
-0.183361
-0.168671
-0.15611
-0.14518
-0.135533
-0.126919
-0.119149
-0.112053
-0.105458
-0.099234
-0.0933022
-0.0875746
-0.0819754
-0.0765478
-0.0714113
-0.0661954
-0.0669069
-0.0714885
-0.0744161
-0.0776325
-0.0793069
-0.0831391
-0.0843163
-0.0874592
-0.0857953
-0.0609219
0.302014
0.339176
0.408235
0.424132
0.457036
0.499328
0.452559
0.40217
0.123598
0.0531614
0.434283
-0.0889346
-0.852384
-0.766535
-0.584601
-0.416452
-0.322595
-0.367618
-0.515296
-0.282764
-0.249639
-0.222721
-0.200907
-0.182901
-0.167803
-0.154968
-0.143887
-0.134186
-0.125575
-0.117842
-0.110802
-0.10429
-0.0981702
-0.0923622
-0.086777
-0.0813406
-0.0760418
-0.0709405
-0.0658059
-0.0605915
-0.0612456
-0.0657128
-0.0685608
-0.0716394
-0.0745061
-0.0770312
-0.0784998
-0.0793069
-0.0799777
-0.0555483
0.303815
0.345034
0.428675
0.426433
0.530907
0.554494
0.5042
0.544939
0.600916
0.569746
0.487727
0.157241
-0.768153
-0.62041
-0.557719
-0.411163
-0.319741
-0.282283
-0.370941
-0.487093
-0.537891
-0.249456
-0.222675
-0.20067
-0.182323
-0.166887
-0.153788
-0.142535
-0.132756
-0.12414
-0.116445
-0.109474
-0.103052
-0.0970478
-0.0913629
-0.0859186
-0.0806335
-0.0754766
-0.0704496
-0.065408
-0.0602684
-0.055241
-0.0558549
-0.0601267
-0.062882
-0.0658915
-0.0686632
-0.071076
-0.0724927
-0.0752723
-0.0738497
-0.0770524
-0.0784573
-0.0784265
-0.0800286
-0.0503696
0.301386
0.340834
0.491121
0.573715
0.581889
0.627619
0.650882
0.67983
0.667195
0.548706
0.528877
0.644176
0.578635
0.221594
-0.422358
-0.395028
-0.330895
-0.280512
-0.306672
-0.248615
-0.3592
-0.380202
-0.483657
-0.529685
-0.222263
-0.200261
-0.181712
-0.166012
-0.152662
-0.141204
-0.131306
-0.122647
-0.114974
-0.108065
-0.101743
-0.0958572
-0.090306
-0.0849993
-0.079865
-0.0748502
-0.0699324
-0.0649985
-0.0599611
-0.054959
-0.0500902
-0.0506588
-0.0547672
-0.0574292
-0.0603057
-0.0629941
-0.0653325
-0.066737
-0.0694594
-0.0680524
-0.0711988
-0.0725291
-0.0752678
-0.0739334
-0.0453488
0.295108
0.329721
0.455052
0.663545
0.603289
0.685616
0.682585
0.651472
0.671463
0.688564
0.729647
0.772804
0.753159
0.464292
-0.414704
-0.394972
-0.35849
-0.335121
-0.321446
-0.287939
-0.247259
-0.269946
-0.312085
-0.302344
-0.221479
-0.379835
-0.199709
-0.181123
-0.165257
-0.151689
-0.140002
-0.12993
-0.121171
-0.113471
-0.106601
-0.100364
-0.0946004
-0.0891832
-0.0840234
-0.0790369
-0.0741712
-0.0693791
-0.064575
-0.0596618
-0.0547205
-0.0498492
-0.0450871
-0.045624
-0.0495969
-0.0521758
-0.0549375
-0.0575349
-0.0597607
-0.0611192
-0.0637666
-0.0623917
-0.0654456
-0.0667672
-0.0694754
-0.0681455
-0.0404504
0.285338
0.313754
0.411414
0.472676
0.742373
0.520732
0.586643
0.432809
0.77925
0.773294
0.759373
-0.356545
-0.29058
-0.28181
-0.253344
-0.220282
-0.238716
-0.274133
-0.265225
-0.301457
-0.198946
-0.375131
-0.180527
-0.164624
-0.150919
-0.139015
-0.128736
-0.11981
-0.112017
-0.105128
-0.0989452
-0.0932814
-0.0879996
-0.0829847
-0.078154
-0.0734387
-0.0687903
-0.0641277
-0.0593639
-0.0545193
-0.0496767
-0.044887
-0.0402065
-0.0407226
-0.0445859
-0.0470972
-0.0497596
-0.0522769
-0.0544112
-0.0557207
-0.0582729
-0.0569498
-0.0598632
-0.0611438
-0.0637768
-0.062476
-0.0356628
0.272579
0.29415
0.367794
0.396597
0.0526536
0.0762599
0.678554
0.109239
0.113651
-0.287782
-0.280695
-0.255763
-0.24784
-0.22524
-0.197879
-0.213214
-0.238075
-0.274076
-0.266083
-0.179818
-0.164044
-0.150313
-0.138264
-0.127792
-0.118666
-0.110711
-0.103733
-0.0975369
-0.0919351
-0.0867621
-0.0818898
-0.0772115
-0.0726572
-0.0681611
-0.063655
-0.0590539
-0.0543468
-0.0495735
-0.0447861
-0.0400511
-0.0354356
-0.0359468
-0.0397049
-0.0421596
-0.0447438
-0.0471948
-0.0492523
-0.0505168
-0.0529862
-0.0517106
-0.054508
-0.0557452
-0.0582826
-0.0570284
-0.0309509
0.257191
0.272011
0.32677
0.337428
0.0260245
-0.0193143
-0.00282756
-0.0153707
0.000734786
-0.255156
-0.247241
-0.223756
-0.20211
-0.178801
-0.19181
-0.212812
-0.234251
-0.241397
-0.163405
-0.149774
-0.137686
-0.127096
-0.117785
-0.109642
-0.102506
-0.0962273
-0.0906161
-0.085508
-0.0807479
-0.076218
-0.0718219
-0.0674917
-0.06315
-0.0587266
-0.0541825
-0.0495295
-0.0447901
-0.0400301
-0.0353373
-0.030793
-0.0312016
-0.0349494
-0.0373541
-0.0398583
-0.0422521
-0.0442522
-0.0454827
-0.0478822
-0.046646
-0.049345
-0.0505433
-0.0529985
-0.0517867
-0.0265164
0.239598
0.24809
0.288535
0.289579
0.0460222
0.01692
0.0125177
-0.019958
-0.0213336
0.0133865
-0.0237391
-0.253301
-0.246837
-0.225878
-0.220355
-0.200847
-0.182418
-0.162507
-0.173233
-0.191417
-0.209395
-0.215255
-0.149185
-0.137175
-0.12657
-0.117145
-0.108838
-0.101526
-0.0951016
-0.0894081
-0.0842917
-0.0795987
-0.075185
-0.0709426
-0.066776
-0.0626125
-0.0583729
-0.0540141
-0.0495179
-0.0448861
-0.0401511
-0.0354092
-0.0307762
-0.0264034
-0.0267111
-0.0302126
-0.0326148
-0.0351077
-0.0374381
-0.0393804
-0.0405817
-0.0429229
-0.0417172
-0.0443408
-0.0455089
-0.0478962
-0.0467183
-0.022376
0.220065
0.223018
0.252801
0.247599
0.059171
0.023683
0.0301853
0.0111283
0.00422459
0.00803734
0.00927995
-0.21959
-0.202556
-0.197504
-0.181417
-0.161232
-0.148444
-0.173298
-0.188752
-0.1933
-0.209138
-0.214392
-0.136622
-0.126106
-0.116659
-0.10826
-0.100803
-0.0942194
-0.0883873
-0.0831946
-0.078497
-0.0741522
-0.0700308
-0.0660245
-0.0620356
-0.0579913
-0.0538275
-0.0495185
-0.0450393
-0.0403984
-0.0356581
-0.0309478
-0.0264327
-0.0222325
-0.0226108
-0.0259458
-0.0278936
-0.0303758
-0.0327507
-0.0346293
-0.0358161
-0.0380972
-0.0369123
-0.0394661
-0.0406086
-0.0429386
-0.0417884
-0.0181063
0.198892
0.197202
0.219433
0.210889
0.0649914
0.0283686
0.0330746
0.0231457
0.0242509
0.0247489
0.0227405
0.00690481
0.00558379
-0.201642
-0.197253
-0.182927
-0.178483
-0.164431
-0.147508
-0.156794
-0.135941
-0.1729
-0.189209
-0.19284
-0.125605
-0.116226
-0.107822
-0.100291
-0.0935777
-0.0876024
-0.0822839
-0.0775177
-0.0731711
-0.0691248
-0.065247
-0.0614289
-0.0575747
-0.0536191
-0.0495119
-0.0452228
-0.0407302
-0.0360661
-0.0313246
-0.0266737
-0.0222621
-0.0180016
-0.0183015
-0.0217047
-0.0238343
-0.0261331
-0.027918
-0.0299742
-0.0311101
-0.0334007
-0.0322392
-0.034708
-0.0358364
-0.0381124
-0.0369805
-0.0138352
0.17624
0.171017
0.188305
0.179124
0.0671372
0.0321741
0.0353284
0.0243282
0.0180496
0.0193542
0.0249274
0.0226274
0.0206883
0.0181471
0.0225258
0.0259926
-0.182125
-0.178111
-0.165412
-0.162126
-0.149945
-0.135118
-0.143513
-0.158373
-0.15477
-0.124992
-0.174507
-0.170192
-0.188238
-0.11576
-0.10743
-0.0998993
-0.0931243
-0.0870395
-0.0815951
-0.0767173
-0.0723103
-0.0682726
-0.064478
-0.0607997
-0.0571323
-0.05338
-0.049491
-0.0454106
-0.0411113
-0.0365851
-0.0318929
-0.0271574
-0.0225468
-0.0180863
-0.0137679
-0.0140261
-0.0174159
-0.0195158
-0.0218005
-0.0239446
-0.0257299
-0.0267559
-0.0281412
-0.0278811
-0.0304966
-0.0311768
-0.0333985
-0.0323212
-0.00969048
0.152288
0.144766
0.159372
0.151647
0.0668814
0.0354707
0.0372099
0.0258812
0.0184756
0.013181
0.0161369
0.0191356
0.0155599
0.0226567
0.0235806
0.0250825
0.0223461
0.0239329
-0.181238
-0.178128
-0.161413
-0.150829
-0.147598
-0.137409
-0.124229
-0.131464
-0.144732
-0.141929
-0.158101
-0.154869
-0.115193
-0.107003
-0.099543
-0.0927751
-0.0866425
-0.0811063
-0.0761206
-0.0716186
-0.0675339
-0.0637604
-0.0601788
-0.0566675
-0.0531168
-0.049444
-0.0455922
-0.0415078
-0.0371735
-0.032601
-0.0278735
-0.0231225
-0.0184506
-0.0139146
-0.00963871
-0.00986987
-0.013184
-0.0152522
-0.0175272
-0.0196201
-0.0213786
-0.0224144
-0.0245242
-0.0234776
-0.0257677
-0.0268422
-0.0279423
-0.0283083
-0.0056187
0.127411
0.118889
0.13272
0.127933
0.0649535
0.0379073
0.0383107
0.0273425
0.0188788
0.0135283
0.00870107
0.0112643
0.0138662
0.0152383
0.0164268
0.0178262
0.0204085
0.0130525
0.0243171
0.0232889
0.0245346
0.021985
-0.149968
-0.147156
-0.138225
-0.135307
-0.126122
-0.114501
-0.121073
-0.130995
-0.14458
-0.142537
-0.106486
-0.0991561
-0.0924536
-0.0863315
-0.0807607
-0.0757031
-0.0711104
-0.0669485
-0.0631451
-0.0596014
-0.0562051
-0.0528288
-0.0493734
-0.0457513
-0.0419055
-0.0377902
-0.0334016
-0.0287668
-0.0239808
-0.019142
-0.0143743
-0.00982865
-0.00559079
-0.00578615
-0.00903942
-0.0110813
-0.0133053
-0.0153699
-0.0171089
-0.0181487
-0.0202201
-0.0191798
-0.0214356
-0.0224637
-0.0245745
-0.0235264
-0.0258106
-0.0267938
-0.0273445
-0.0282169
-0.00163382
0.102953
0.0940809
0.108757
0.107726
0.0621097
0.0394818
0.0386385
0.0283747
0.0193356
0.013824
0.00884307
0.00341301
0.00735004
0.00948533
0.0105728
0.0114927
0.01268
0.0141299
0.0151543
0.0162874
0.0175844
0.0222218
0.0125103
0.0239045
0.0229376
0.0240178
-0.13735
-0.134588
-0.125393
-0.116231
-0.105852
-0.111612
-0.120889
-0.129412
-0.132303
-0.141925
-0.0986924
-0.0921011
-0.0860372
-0.0804856
-0.0754089
-0.0707565
-0.0665251
-0.0626621
-0.0591096
-0.0557729
-0.0525335
-0.0492719
-0.0458843
-0.0422833
-0.0384157
-0.0342458
-0.0297811
-0.0250578
-0.0201591
-0.0151969
-0.0103692
-0.00582656
-0.00161173
-0.00166362
-0.00494749
-0.00696781
-0.00916068
-0.0111977
-0.012892
-0.0139189
-0.0159668
-0.0149332
-0.017168
-0.0181974
-0.0202785
-0.0192424
-0.0214997
-0.0224954
-0.0246028
-0.0235885
0.00228145
0.0800344
0.0718229
0.0882736
0.0910513
0.0590047
0.0404352
0.0384201
0.0289639
0.0198283
0.0142336
0.00926721
0.00462589
0.00510863
0.00342576
0.00306245
0.00707134
0.00780226
0.0083873
0.00968128
0.0106183
0.0113738
0.012456
0.0138409
-0.136697
-0.134661
-0.126113
-0.12363
-0.115546
-0.107378
-0.0981248
-0.103291
-0.111292
-0.11892
-0.122435
-0.0916786
-0.0857054
-0.0802175
-0.0751697
-0.070503
-0.0662319
-0.0623157
-0.0587275
-0.0554048
-0.0522486
-0.0491471
-0.0459767
-0.0426299
-0.0390228
-0.0351078
-0.0308583
-0.0262896
-0.0214348
-0.0163876
-0.0113192
-0.00644729
-0.001892
0.00228508
0.0021563
-0.000124517
-0.0028361
-0.00509389
-0.00708421
-0.00875354
-0.00976737
-0.0117841
-0.0107652
-0.0129499
-0.013966
-0.0160234
-0.0149965
-0.0172324
-0.0182271
-0.0203129
-0.0193063
0.00607698
0.0548764
0.0547238
0.0724172
0.0781946
0.0561539
0.0409497
0.03787
0.0291714
0.0202872
0.0147003
0.00984199
0.00561194
0.00522155
0.00260872
0.00420425
0.00472593
0.00331447
0.00426016
-0.000606527
0.00676107
0.00716299
0.00755233
0.00813734
0.0093884
-0.116223
-0.114006
-0.106832
-0.0995411
-0.0911239
-0.0956584
-0.103067
-0.109917
-0.112169
-0.118599
-0.121986
-0.0853031
-0.0799091
-0.0749287
-0.0702888
-0.0660187
-0.0620755
-0.058456
-0.0551186
-0.0520007
-0.0490097
-0.0460271
-0.0429222
-0.039592
-0.0359528
-0.0319643
-0.0276064
-0.0228965
-0.0178777
-0.0126839
-0.00751784
-0.00259212
0.00195732
0.00605946
0.00210215
0.00592852
-0.00166399
-0.00298885
-0.0046795
-0.00567464
-0.00766057
-0.00665446
-0.00880981
-0.00981336
-0.0118391
-0.0108263
-0.013014
-0.0139966
-0.0160576
-0.0150613
0.00977366
0.0252979
0.0459689
0.0621343
0.0694291
0.0539265
0.0411673
0.0371118
0.0290729
0.0206326
0.0151258
0.0104105
0.00634131
0.00517027
0.00228422
0.000911812
0.00162921
0.00293375
-0.00286013
0.003783
0.00405356
0.00436254
0.00426759
-0.00164927
0.00702171
-0.115795
-0.11387
-0.10745
-0.105381
-0.0990714
-0.0903842
-0.0848072
-0.0951758
-0.101575
-0.104092
-0.109755
-0.111888
-0.0795322
-0.0746449
-0.0700651
-0.0658325
-0.0618967
-0.0582668
-0.0549141
-0.0518063
-0.048879
-0.0460348
-0.0431483
-0.0400911
-0.0367519
-0.0330553
-0.0289646
-0.0244648
-0.0195831
-0.0143909
-0.00905067
-0.00378312
0.00118523
0.00570749
0.00975012
0.00576592
0.00277377
0.000788736
0.00961787
-0.0013991
-0.00350433
-0.00212551
-0.00473867
-0.00571576
-0.00771458
-0.00671297
-0.00887047
-0.00984131
-0.011872
-0.0108882
0.0134259
0.0465426
0.0570523
0.0645064
0.0524273
0.0411521
0.0362426
0.0287333
0.0208248
0.0154337
0.0108886
0.00692643
0.00514514
0.00229479
-0.00190149
-0.00128133
-0.00302025
-0.00145875
0.00107699
0.00175579
0.00160577
0.00231237
0.00307902
-0.00309124
-0.107062
-0.105092
-0.0996619
-0.0978863
-0.0914901
-0.0842162
-0.0885416
-0.0790686
-0.0950494
-0.101245
-0.104284
-0.0742991
-0.0697985
-0.0656318
-0.061733
-0.0581207
-0.0547693
-0.051666
-0.0487674
-0.0460141
-0.0432994
-0.0404961
-0.0374615
-0.0340911
-0.0303094
-0.0260862
-0.0214157
-0.0163469
-0.0109734
-0.00548442
-0.000117145
0.00488296
0.00938467
0.0133993
0.00940597
0.00645434
0.00466421
0.00311737
0.00214801
0.00123428
0.000285954
0.0132703
-0.000816303
-0.00181113
-0.00313735
-0.00364734
-0.00478872
-0.0057401
-0.00774603
-0.00677254
0.0170386
0.0548464
0.0623256
0.0514075
0.0408934
0.0353083
0.0282195
0.0208486
0.0155896
0.011216
0.00737833
0.0051722
0.00242907
-0.000973849
-0.00229189
-0.00267559
-0.00341021
-0.00268694
-0.00202906
0.000425076
-0.00239674
-0.0993098
-0.0972597
-0.091888
-0.0902348
-0.0852258
-0.0785148
-0.0822353
-0.0888864
-0.0880582
-0.0738834
-0.0957935
-0.0939544
-0.101003
-0.103911
-0.0694728
-0.065388
-0.0615492
-0.0579794
-0.0546542
-0.0515612
-0.0486803
-0.0459795
-0.0433876
-0.0407894
-0.0380466
-0.0350154
-0.0315892
-0.0276947
-0.0233117
-0.0184513
-0.0131844
-0.00762194
-0.00197925
0.00348172
0.00851554
0.0130189
0.0170138
0.0130512
0.0101033
0.00832233
0.00678112
0.00587066
0.00505385
0.00418269
0.0168794
-0.00290758
-0.00364024
0.0206135
0.0614937
0.0503794
0.040312
0.0343311
0.0275696
0.0207018
0.0155776
0.0113647
0.00766995
0.00521673
0.00256881
-0.000517665
-0.00195375
-0.00296582
-0.00299756
-0.00285749
-0.00306763
-0.00302965
-0.00351084
-0.00288792
-0.00198824
-0.0990346
-0.0973788
-0.0854446
-0.0840868
-0.0794056
-0.0734012
-0.0767346
-0.082832
-0.0813553
-0.0880043
-0.0690709
-0.0650884
-0.0613226
-0.0578148
-0.0545357
-0.0514696
-0.0486082
-0.0459431
-0.0434277
-0.0409804
-0.0384819
-0.035781
-0.0327333
-0.0292256
-0.0251931
-0.0206299
-0.0155654
-0.0100881
-0.00432762
0.00146721
0.00702573
0.0121059
0.0166157
0.0205811
0.0166584
0.0137433
0.0119716
0.0104336
0.0095262
0.00870616
0.00784384
0.0204345
0.0241334
0.0491182
0.0393173
0.0332871
0.0267997
0.0203719
0.0153947
0.0113301
0.00778971
0.00522824
0.00269954
-8.5919e-05
-0.00160626
-0.00250136
-0.00275531
-0.00290277
-0.0036137
-0.00308547
-0.00428373
-0.00309393
-0.0030414
-0.00309843
-0.00365018
-0.00298923
-0.0848698
-0.083891
-0.0797545
-0.0783932
-0.0742783
-0.0685819
-0.0717458
-0.07722
-0.075835
-0.0827534
-0.0813434
-0.0647262
-0.0610423
-0.0576071
-0.0543885
-0.0513677
-0.0485372
-0.0459035
-0.0434366
-0.0410888
-0.0387756
-0.0363557
-0.0336818
-0.0305936
-0.0269815
-0.0227914
-0.0180322
-0.0127493
-0.00704762
-0.001086
0.00486891
0.01053
0.0156619
0.0201722
0.0240973
0.0202032
0.0173407
0.0155875
0.0140721
0.0131726
0.0123556
0.0114956
0.0239516
0.0275988
0.0380556
0.0321221
0.0259159
0.0198625
0.0150394
0.0111231
0.00773917
0.00516905
0.00278115
0.00030348
-0.00121805
-0.00209649
-0.00252137
-0.0034679
-0.00324475
-0.00289503
-0.00290835
-0.00329079
-0.00578375
-0.00304457
-0.00188938
-0.00320353
-0.00319898
-0.0793941
-0.0781736
-0.0748244
-0.073135
-0.0692922
-0.0643046
-0.0670537
-0.0722217
-0.0711065
-0.0770993
-0.0756165
-0.0606974
-0.0573459
-0.0541984
-0.0512364
-0.0484488
-0.045853
-0.0434229
-0.0411406
-0.0389503
-0.0367466
-0.0343965
-0.031726
-0.0285772
-0.0248432
-0.0204793
-0.0155073
-0.00999214
-0.00405626
0.00211674
0.00823481
0.0139999
0.0191651
0.0236595
0.0275351
0.0236714
0.0208858
0.0191489
0.0176648
0.0167772
0.0159685
0.0151172
0.027471
0.0309007
0.0309187
0.0248595
0.0191618
0.014519
0.0107568
0.00753357
0.00501635
0.00278169
0.000587592
-0.00088613
-0.00177814
-0.00234742
-0.00323923
-0.00412074
-0.00392666
-0.00354379
-0.00344685
-0.00308255
-0.00299956
-0.00297464
-0.00729023
-0.00196895
-0.00202755
-0.00348435
-0.0749512
-0.072759
-0.0688487
-0.0649364
-0.0602847
-0.062977
-0.0667969
-0.0720666
-0.07051
-0.0570209
-0.0539582
-0.0510645
-0.0483293
-0.0457802
-0.043387
-0.0411514
-0.0390405
-0.036985
-0.0348842
-0.0325778
-0.0298954
-0.02667
-0.0227985
-0.0182428
-0.013044
-0.0072835
-0.00110151
0.0052885
0.0115756
0.0174394
0.0226231
0.0270662
0.0308492
0.0272557
0.0243402
0.0226507
0.0212063
0.0203268
0.0195263
0.0186849
0.0307397
0.0237141
0.0182392
0.0138559
0.0102614
0.00719334
0.00476756
0.00267942
0.000735912
-0.000654899
-0.00155514
-0.00220787
-0.00306067
-0.0039321
-0.00472598
-0.00452372
-0.00414943
-0.00407788
-0.00372861
-0.0036402
-0.00354663
-0.00321254
-0.00336403
-0.00314904
-0.0029343
-0.00796122
-0.0747568
-0.0726262
-0.0692202
-0.0681131
-0.0645837
-0.0608969
-0.0566311
-0.0589849
-0.0628767
-0.0660807
-0.0672149
-0.0719282
-0.0706305
-0.0536623
-0.0508471
-0.0481703
-0.0456745
-0.0433238
-0.0411297
-0.0390727
-0.0371127
-0.0351812
-0.0331593
-0.0308859
-0.0281749
-0.024858
-0.020831
-0.0160704
-0.0106317
-0.00461161
0.00182549
0.00843504
0.0148747
0.0208175
0.0260114
0.0303965
0.0305025
0.0278557
0.0262695
0.0246383
0.0238018
0.023043
0.0222055
0.0172017
0.0130167
0.00964343
0.00673765
0.00442453
0.0024762
0.000747428
-0.000543039
-0.00142526
-0.00211005
-0.00290874
-0.00374377
-0.00453133
-0.00554506
-0.00505864
-0.00466912
-0.00465193
-0.00432936
-0.00426282
-0.00410861
-0.00377178
-0.00394914
-0.00370744
-0.00362768
-0.0033213
-0.00346762
-0.0647882
-0.0637172
-0.0605353
-0.0571796
-0.0533164
-0.0554465
-0.0587659
-0.0617575
-0.0636377
-0.0505834
-0.0479656
-0.0455317
-0.0432275
-0.0410762
-0.0390628
-0.0371629
-0.0353411
-0.0335139
-0.031561
-0.0293026
-0.0265488
-0.0231242
-0.0189298
-0.0139511
-0.00825893
-0.00196654
0.00473528
0.0115702
0.0181515
0.0241379
0.0293179
0.0311882
0.0295195
0.0281748
0.0272773
0.0266634
0.0255983
0.0121014
0.00888642
0.00619237
0.00400641
0.00217946
0.000630682
-0.000552137
-0.00139534
-0.00206571
-0.00279454
-0.00355171
-0.00426958
-0.00500479
-0.00436567
-0.00631116
-0.00531404
-0.00505535
-0.00483221
-0.00485127
-0.0046731
-0.00436355
-0.00455874
-0.00431747
-0.00418066
-0.00384824
-0.00400347
-0.0607528
-0.0598502
-0.05689
-0.0538643
-0.0502986
-0.0522001
-0.0552286
-0.0581576
-0.0590821
-0.0615595
-0.0635605
-0.0477087
-0.0453476
-0.043095
-0.0409884
-0.0390167
-0.0371613
-0.0354073
-0.033705
-0.0319725
-0.0300683
-0.0278118
-0.0250014
-0.0214576
-0.017083
-0.0118734
-0.00591555
0.000656704
0.00761656
0.0146656
0.0213914
0.0274238
0.0315148
0.0306807
0.0298729
0.0290637
0.0281429
0.0272644
0.0269605
0.00807644
0.00552683
0.00350798
0.00180333
0.000406946
-0.00067467
-0.00146315
-0.00209108
-0.00273232
-0.00339012
-0.00400498
-0.0045431
-0.00417576
-0.00457156
-0.00458944
-0.00456903
-0.00716348
-0.00515543
-0.00528918
-0.00509004
-0.00488645
-0.00509515
-0.00490677
-0.0047512
-0.00444543
-0.00460853
-0.0605679
-0.0597709
-0.0571286
-0.0562621
-0.0536754
-0.0507806
-0.0473677
-0.0493431
-0.0520044
-0.0546122
-0.0554641
-0.0580586
-0.058943
-0.0451206
-0.0429236
-0.0408657
-0.0389352
-0.0371193
-0.0354126
-0.0337861
-0.0321928
-0.0305328
-0.0286662
-0.0263994
-0.0235197
-0.0198449
-0.0152791
-0.00982898
-0.00359022
0.00327741
0.010498
0.0177326
0.0245773
0.031429
0.0324073
0.0306122
0.0298697
0.029084
0.00481932
0.00291314
0.00136743
9.81664e-05
-0.0008912
-0.00162058
-0.00219036
-0.00273777
-0.00328267
-0.00378873
-0.00420034
-0.00402826
-0.0043345
-0.00485558
-0.00488404
-0.00479724
-0.00473094
-0.00443267
-0.0053898
-0.00863534
-0.00516709
-0.00477667
-0.00537061
-0.0052196
-0.00498572
-0.00515867
-0.0569586
-0.0561613
-0.0536825
-0.0532854
-0.0505684
-0.0468951
-0.0448618
-0.0487152
-0.0514674
-0.0522292
-0.054464
-0.0553171
-0.0427087
-0.0407053
-0.0388211
-0.0370418
-0.0353731
-0.0337967
-0.0322865
-0.0307807
-0.0291828
-0.0273413
-0.0250499
-0.0220914
-0.0182775
-0.0135123
-0.00781296
-0.00128897
0.00587467
0.0133707
0.0208014
0.0324124
0.0022904
0.000845593
-0.0002817
-0.00117929
-0.001849
-0.00235897
-0.00281371
-0.00324803
-0.0036441
-0.00396029
-0.00391179
-0.00415582
-0.00463276
-0.00500626
-0.00507314
-0.00498231
-0.00503515
-0.00496651
-0.00493123
-0.00486311
-0.00463177
-0.00452058
-0.00940411
-0.00552044
-0.00449579
-0.0533551
-0.0535045
-0.0507862
-0.0502063
-0.0473318
-0.0445913
-0.0460124
-0.0424404
-0.0487202
-0.0513599
-0.0518839
-0.0405019
-0.0386736
-0.0369331
-0.0352986
-0.0337586
-0.0323003
-0.0308858
-0.0294576
-0.0279082
-0.026077
-0.0237532
-0.0207103
-0.0167488
-0.0117751
-0.00580486
0.00101598
0.00846142
0.0162169
0.000301672
-0.000743669
-0.00152387
-0.00212958
-0.00258316
-0.00295736
-0.00329042
-0.00358404
-0.00381444
-0.00382912
-0.00401975
-0.0044345
-0.00477182
-0.00500521
-0.00569511
-0.00504231
-0.0052006
-0.00511569
-0.00513964
-0.00512097
-0.00502914
-0.00509559
-0.0534973
-0.0506004
-0.0495345
-0.0475134
-0.0468305
-0.0450448
-0.0421104
-0.0435952
-0.0462089
-0.0455429
-0.0402474
-0.0490432
-0.0483293
-0.0512969
-0.0517227
-0.0384904
-0.0367928
-0.0351951
-0.0336848
-0.032262
-0.0309024
-0.0295732
-0.0282073
-0.0266928
-0.0248647
-0.0225038
-0.0193681
-0.0152573
-0.010071
-0.00381862
0.00332107
0.0110694
-0.00122334
-0.00193767
-0.00245034
-0.00284751
-0.00315526
-0.00340461
-0.00360735
-0.00376093
-0.00379033
-0.00393192
-0.00426744
-0.00457555
-0.00482009
-0.00501519
-0.0052402
-0.00517689
-0.00602213
-0.0067698
-0.00498632
-0.00531073
-0.00529764
-0.00517408
-0.0052443
-0.0504802
-0.0496866
-0.0448566
-0.04485
-0.042406
-0.0399443
-0.0413158
-0.0436591
-0.0431501
-0.0382802
-0.036619
-0.0350627
-0.033582
-0.032188
-0.0308627
-0.0295915
-0.0283327
-0.0270163
-0.0255289
-0.0236975
-0.0212934
-0.0180642
-0.0137952
-0.00837775
-0.00184322
0.00561337
-0.0023625
-0.00282467
-0.00314281
-0.0033926
-0.0035764
-0.00370628
-0.00379146
-0.0038064
-0.00389341
-0.00414099
-0.00439764
-0.00463238
-0.00487382
-0.00531112
-0.00524554
-0.00515292
-0.00533954
-0.00533064
-0.00531725
-0.00539072
-0.00591663
-0.004019
-0.00516472
-0.00517793
-0.044884
-0.042521
-0.0419705
-0.0402336
-0.0380517
-0.0392043
-0.0414979
-0.0409533
-0.0435165
-0.0431477
-0.0364056
-0.034897
-0.0334503
-0.032087
-0.030787
-0.0295503
-0.0283529
-0.0271512
-0.0258758
-0.0244077
-0.0225726
-0.0201279
-0.0168075
-0.0123714
-0.0066915
0.000150355
-0.0032017
-0.00348287
-0.00365989
-0.00379028
-0.00386425
-0.00389347
-0.00387749
-0.00390766
-0.00406201
-0.00425214
-0.00444684
-0.0046871
-0.00506477
-0.00525085
-0.00556134
-0.00522342
-0.00535283
-0.00530872
-0.00532725
-0.00525875
-0.00539426
-0.00540237
-0.00540616
-0.00550339
-0.00597882
-0.00494381
-0.042366
-0.0418719
-0.0403535
-0.0398361
-0.0382642
-0.0361458
-0.0373892
-0.039356
-0.0388484
-0.041439