/*--------------------------------*- C++ -*----------------------------------*\
| =========                 |                                                 |
| \\      /  F ield         | OpenFOAM: The Open Source CFD Toolbox           |
|  \\    /   O peration     | Version:  v1912                                 |
|   \\  /    A nd           | Website:  www.openfoam.com                      |
|    \\/     M anipulation  |                                                 |
\*---------------------------------------------------------------------------*/
FoamFile
{
    version     2.0;
    format      ascii;
    class       volVectorField;
    location    "130";
    object      U;
}
// * * * * * * * * * * * * * * * * * * * * * * * * * * * * * * * * * * * * * //

dimensions      [0 1 -1 0 0 0 0];


internalField   nonuniform List<vector> 
3754
(
(0.995605 0.0027735 1.17352e-22)
(0.996005 0.00845574 0)
(0.950593 0.0112896 1.69643e-22)
(0.99663 0.0134604 0)
(0.95556 0.0329579 0)
(0.812346 0.0370291 -2.201e-21)
(0.997134 0.0173561 0)
(0.965003 0.0507924 -1.43635e-20)
(0.841585 0.0982388 1.50782e-22)
(0.514799 0.0507546 1.19247e-21)
(0.531298 0.145805 1.03149e-21)
(0.997496 0.0199447 -2.00244e-22)
(0.976998 0.0631352 1.42868e-20)
(0.892286 0.144511 0)
(0.577981 0.236594 9.34186e-22)
(0.64566 0.305303 -3.99593e-21)
(0.117622 0.101499 -2.34904e-22)
(0.111484 0.0337384 2.40824e-22)
(0.15835 0.225639 0)
(0.132106 0.166425 0)
(0.997829 0.0213337 0)
(0.988441 0.0706399 6.15723e-22)
(0.93437 0.166345 0)
(0.718115 0.355526 3.01271e-21)
(0.801059 0.379545 -4.70091e-21)
(0.250205 0.312664 -1.08565e-22)
(0.197803 0.276241 2.48037e-21)
(0.478323 0.476344 -7.97806e-22)
(0.345002 0.410088 0)
(0.998206 0.0217761 0)
(0.997541 0.0741783 0)
(0.963834 0.166855 -1.93066e-22)
(0.953648 0.446614 -1.30315e-20)
(0.661906 0.549904 9.87744e-22)
(0.575384 0.517394 -9.12142e-22)
(0.778554 0.505318 0)
(0.295762 0.33093 -2.98794e-21)
(0.132657 0.203494 6.90266e-21)
(0.998624 0.0215207 0)
(1.00407 0.0745192 -8.73952e-23)
(0.986853 0.157845 0)
(1.06211 0.42282 1.62412e-20)
(0.889116 0.318428 -9.66256e-22)
(1.06162 0.387682 2.68861e-21)
(0.556381 0.400629 1.57892e-21)
(0.398478 0.342631 -1.43308e-21)
(0.755939 0.377902 -1.27763e-21)
(0.533154 0.271402 1.09369e-21)
(0.999031 0.0207537 -1.92185e-23)
(1.00853 0.0723369 0)
(1.00585 0.146398 7.80523e-23)
(1.10556 0.371412 0)
(1.18714 0.309202 -1.64481e-21)
(0.629007 0.0924269 -5.99387e-21)
(0.544171 0.145691 1.73344e-21)
(0.919632 0.143442 6.48555e-21)
(0.240364 0.149918 0)
(0.249726 0.082271 0)
(0.999386 0.0195915 3.68718e-20)
(1.01161 0.0682493 2.08594e-23)
(1.02148 0.13451 2.94964e-23)
(1.11848 0.314971 -1.05781e-20)
(1.28478 0.299507 0)
(1.01437 0.141943 1.23319e-20)
(0.422744 0.022455 -3.53666e-22)
(0.271088 0.0193364 1.49655e-22)
(0.374723 0.0482762 -1.18517e-22)
(0.723789 0.0700887 0)
(0.133255 0.00947718 -2.55002e-23)
(0.999672 0.0181171 -3.63201e-20)
(1.01384 0.0628001 0)
(1.03355 0.122366 0)
(1.12135 0.265895 2.08073e-20)
(1.30162 0.27563 6.39184e-24)
(1.26588 0.177921 -1.16493e-20)
(0.824014 0.0510448 -1.18943e-20)
(0.578536 0.0533608 3.28504e-21)
(0.201117 0.0014078 1.39945e-22)
(0.32235 0.020624 -2.93797e-21)
(0.186111 0.0051701 2.76031e-22)
(0.0823856 0.00206686 5.97743e-23)
(0.999887 0.0163965 0)
(1.01551 0.0564136 -3.4839e-20)
(1.0423 0.109853 0)
(1.12226 0.224328 -1.0164e-20)
(1.28746 0.246552 0)
(1.35544 0.186632 -1.73539e-20)
(1.15456 0.103357 3.10825e-20)
(0.734097 0.0231767 -2.29892e-20)
(0.463107 0.0147499 0)
(0.492883 0.0167787 1.30521e-23)
(0.0581715 -0.000855938 -1.31018e-22)
(0.266837 0.00401403 -1.586e-22)
(0.138738 0.00727899 5.39493e-22)
(0.158546 0.00391475 -1.39105e-22)
(0.0575442 0.000230234 -8.014e-23)
(1.00004 0.014483 3.73083e-24)
(1.01683 0.0493704 6.62917e-20)
(1.04845 0.0969736 2.77065e-20)
(1.12297 0.188472 0)
(1.26686 0.215815 1.49062e-24)
(1.36662 0.180423 2.06643e-21)
(1.31688 0.129983 -1.89002e-20)
(1.06381 0.0676703 2.07831e-20)
(0.69791 0.0200065 -2.8379e-21)
(0.449526 0.00909126 3.28441e-22)
(0.445053 0.00327952 -3.30625e-22)
(0.252564 0.00302219 -3.20631e-22)
(0.12063 -0.00127386 -4.84876e-22)
(0.118641 0.00210797 8.28678e-22)
(0.041095 0.000822262 1.23101e-24)
(0.0494381 0.000171686 -1.21939e-24)
(1.00013 0.0124129 0)
(1.01793 0.0418467 -3.15496e-20)
(1.05278 0.0838368 -2.7319e-20)
(1.12353 0.157076 1.41971e-20)
(1.24867 0.186425 0)
(1.3506 0.166415 1.60682e-20)
(1.36969 0.137451 0)
(1.26324 0.0984849 -4.38547e-24)
(1.00194 0.0520308 2.07182e-20)
(0.66884 0.0211314 2.81917e-21)
(0.452136 0.00969443 4.91054e-21)
(0.453441 0.00633385 0)
(0.26902 0.00282781 -4.27255e-21)
(0.250259 -0.000616128 -2.403e-24)
(0.113638 0.00193194 2.21305e-22)
(0.114948 -0.000771228 4.52569e-22)
(0.0352616 -0.000510008 6.93223e-23)
(0.0359223 0.00026373 -1.32959e-22)
(1.00016 0.0102146 0)
(1.01892 0.0339487 3.05898e-24)
(1.05588 0.0705289 0)
(1.12395 0.129015 -1.49867e-20)
(1.23466 0.15916 -1.30987e-24)
(1.33009 0.150366 0)
(1.37252 0.134391 -4.03139e-24)
(1.34981 0.113582 0)
(1.21446 0.0813221 -1.85132e-20)
(0.953059 0.0465412 0)
(0.637761 0.0210894 1.18177e-20)
(0.43624 0.00831761 -3.08121e-22)
(0.442626 0.00818499 -4.52698e-21)
(0.29444 0.00360634 -7.62455e-22)
(0.291311 0.00176227 -2.50102e-22)
(0.150599 0.00411774 1.24117e-20)
(0.130925 -0.00162842 0)
(0.112675 -0.00161542 0)
(0.119665 0.000354698 -1.68131e-21)
(0.0343995 0.000273167 -1.24697e-22)
(0.035022 -0.000245801 0)
(1.00015 0.00790196 0)
(1.01987 0.0257407 0)
(1.05818 0.0570917 -2.08921e-20)
(1.12447 0.103333 0)
(1.22456 0.133675 0)
(1.31242 0.134309 -2.65645e-20)
(1.35968 0.127235 0)
(1.37198 0.117775 1.65711e-20)
(1.32418 0.0999817 0)
(1.1691 0.0730536 1.80382e-20)
(0.911072 0.0436876 0)
(0.344315 0.00540741 -1.44106e-20)
(0.610142 0.0206904 -1.13755e-20)
(0.283946 0.00203884 -7.66436e-22)
(0.290572 0.00357261 -2.52672e-22)
(0.180194 0.00177042 0)
(0.179789 0.000923493 2.30981e-21)
(0.171218 -0.000341483 1.41606e-24)
(0.178137 0.0010353 -9.1066e-23)
(0.0670328 0.00385235 -1.19249e-20)
(0.044396 -0.000522253 1.18216e-21)
(0.034482 -0.000378874 0)
(0.0384248 -6.92576e-05 7.212e-24)
(1.0001 0.00548338 7.85296e-25)
(1.02088 0.0172518 0)
(1.06001 0.0435613 2.02096e-20)
(1.12539 0.0792314 0)
(1.21803 0.109556 8.8287e-21)
(1.29912 0.11856 2.68957e-20)
(1.34529 0.118823 -3.21226e-20)
(1.36791 0.116443 -5.01828e-20)
(1.36325 0.108609 0)
(1.29452 0.0929563 -1.69946e-20)
(1.12724 0.0686734 0)
(0.874605 0.0423722 1.90256e-20)
(0.326267 0.00515919 1.29111e-20)
(0.12662 0.00189547 2.2235e-21)
(0.129119 -0.000690795 -6.60073e-22)
(0.591793 0.0223719 -2.15666e-20)
(0.171072 0.000461877 7.57396e-22)
(0.172944 0.00113955 3.724e-22)
(0.177865 0.00110821 -9.21829e-23)
(0.176838 0.00171929 8.34545e-22)
(0.10407 0.00051428 0)
(0.104241 0.000311884 -6.35926e-22)
(0.0973877 -0.000301169 2.4513e-21)
(0.10253 0.000266599 -6.24275e-22)
(0.0186023 0.00102141 3.22356e-21)
(1.00001 0.00295014 0)
(1.02201 0.00849795 -2.48776e-20)
(1.06153 0.0299447 -1.78684e-20)
(1.12697 0.0559848 1.22933e-26)
(1.21495 0.0864392 -8.43053e-21)
(1.29028 0.103191 -6.87515e-24)
(1.33369 0.110148 3.18246e-20)
(1.35718 0.112912 1.55793e-22)
(1.36783 0.111107 0)
(1.34802 0.104139 0)
(1.26325 0.0891621 0)
(1.08922 0.0663119 -1.68001e-20)
(0.844013 0.0428103 1.83029e-20)
(0.330543 0.00673094 -1.19334e-23)
(0.12223 0.00169094 0)
(0.120773 -0.000526821 -7.3391e-23)
(0.0289523 0.00042325 1.13829e-22)
(0.0291669 2.89928e-05 0)
(0.029722 8.37617e-05 5.77794e-23)
(0.0298017 -0.000508509 0)
(0.0984333 -0.000403263 0)
(0.574612 0.0213356 -1.06486e-20)
(0.100414 0.000632445 -3.18421e-22)
(0.102733 0.000364244 1.58516e-22)
(0.101998 0.000526411 0)
(0.0330245 2.33612e-05 0)
(0.0332324 9.58963e-06 0)
(0.0313384 -0.000573253 -1.6647e-21)
(0.0326265 -8.38032e-05 4.19176e-22)
(0.999898 0.000287851 5.12024e-20)
(1.02333 -0.000508233 4.85272e-20)
(1.06284 0.0162171 1.73163e-20)
(1.12946 0.0328541 -1.73987e-25)
(1.21533 0.0639687 3.98699e-24)
(1.28588 0.0882457 -1.05814e-23)
(1.32588 0.10162 3.09092e-20)
(1.34723 0.108743 3.27817e-20)
(1.36066 0.110845 -3.35887e-20)
(1.36113 0.109083 0)
(1.32871 0.102047 1.89109e-24)
(1.2324 0.0868744 1.8553e-24)
(1.05517 0.0653181 0)
(0.816373 0.0409547 2.2197e-24)
(0.328963 0.00748296 8.76575e-21)
(0.15816 0.000910697 -2.57503e-22)
(0.136876 0.00102186 4.67364e-21)
(0.0294097 0.000432695 -9.77427e-22)
(0.0274336 -0.00013411 5.76463e-23)
(0.0277551 2.47119e-05 -5.5811e-23)
(0.0277321 -0.000394274 5.61895e-23)
(0.0309661 -0.000281787 -1.33482e-23)
(0.552429 0.0203524 -1.01977e-20)
(0.0318652 6.85185e-05 1.32241e-23)
(0.0326039 9.10223e-06 -1.12732e-22)
(0.0323833 3.66663e-05 6.66224e-24)
(0.9998 -0.00252767 -5.04298e-20)
(1.02491 -0.00973086 -7.13979e-20)
(1.06389 0.00230575 0)
(1.13307 0.00911885 0)
(1.21931 0.0418065 -3.89072e-24)
(1.28598 0.0737542 2.41355e-20)
(1.32207 0.0934352 -3.01636e-20)
(1.34021 0.104577 0)
(1.35194 0.109677 3.31685e-20)
(1.35782 0.110904 1.97125e-24)
(1.34992 0.108737 0)
(1.30775 0.100842 -1.51348e-20)
(1.20306 0.0854267 -1.86887e-24)
(1.02407 0.0629184 1.55671e-20)
(0.788066 0.039088 0)
(0.313764 0.00705601 1.27813e-20)
(0.15594 0.00301105 0)
(0.159006 0.00114482 4.68256e-21)
(0.0767754 0.000258579 0)
(0.0717501 0.000118789 3.82308e-23)
(0.0492347 0.00290496 -3.91873e-21)
(0.0333112 -0.000598199 1.13322e-21)
(0.529966 0.0193346 0)
(0.999767 -0.00551464 0)
(1.02674 -0.0191056 4.66068e-20)
(1.06448 -0.0119005 0)
(1.138 -0.0159712 0)
(1.22719 0.0196564 -4.22132e-24)
(1.29074 0.0597716 -4.79782e-20)
(1.32244 0.0857159 3.06866e-20)
(1.33673 0.100695 -7.93693e-24)
(1.34524 0.108401 0)
(1.35049 0.111591 4.01628e-24)
(1.35061 0.111967 -1.96705e-24)
(1.33651 0.1088 1.49976e-20)
(1.28655 0.0999268 0)
(1.17527 0.0830237 -1.43239e-20)
(0.993853 0.0603617 -1.4879e-20)
(0.76073 0.0374084 0)
(0.297677 0.00631678 -5.19192e-24)
(0.145626 0.00278392 -1.90768e-21)
(0.149422 0.000716798 -2.5388e-22)
(0.0731836 0.00102454 8.05427e-23)
(0.074509 0.00041652 1.62229e-22)
(0.0763642 0.000628181 -1.61162e-22)
(0.0766654 0.000144673 -6.4124e-22)
(0.0242622 -4.49174e-05 0)
(0.0230359 -0.000499843 0)
(0.0136382 0.000828776 0)
(0.510555 0.0181984 0)
(0.999873 -0.00867988 -5.14284e-20)
(1.02869 -0.0285011 -4.76267e-20)
(1.06424 -0.0266071 3.021e-20)
(1.14459 -0.0432586 1.33644e-20)
(1.23948 -0.00277085 1.209e-20)
(1.30047 0.046365 2.38258e-20)
(1.3272 0.0785971 -2.99123e-20)
(1.33707 0.0972673 7.61335e-24)
(1.34169 0.107367 7.93219e-24)
(1.34412 0.112086 0)
(1.34482 0.113787 -1.86731e-24)
(1.34128 0.11303 -2.99918e-20)
(1.32225 0.108731 2.84383e-20)
(1.26553 0.0981491 1.36537e-20)
(1.14811 0.0803029 2.72374e-20)
(0.965009 0.05804 0)
(0.736198 0.0357117 1.54529e-20)
(0.284581 0.00578685 2.62182e-21)
(0.136823 0.00249017 0)
(0.139781 0.000391178 1.23902e-22)
(0.0676153 0.000942546 0)
(0.068705 0.000254694 7.76781e-23)
(0.0701922 0.000561586 0)
(0.0709561 -5.7548e-05 -1.58357e-22)
(0.0228498 0.000112408 -4.66006e-23)
(0.0235323 -7.90494e-06 -7.01765e-23)
(0.0242397 7.67987e-05 7.05755e-23)
(0.0244395 -1.74146e-06 0)
(0.497131 0.0182383 -1.74535e-20)
(1.00018 -0.0119823 5.06493e-20)
(1.03045 -0.0377542 4.65584e-20)
(1.06271 -0.0421981 7.96568e-22)
(1.15357 -0.0737773 -1.27104e-20)
(1.25717 -0.0257462 -3.93506e-20)
(1.31581 0.033616 0)
(1.3368 0.0722114 9.11844e-25)
(1.34157 0.0944528 0)
(1.34179 0.106767 3.30678e-20)
(1.34053 0.112801 3.25831e-20)
(1.33888 0.115277 0)
(1.33718 0.115567 2.97128e-20)
(1.3311 0.113653 -5.65728e-20)
(1.30757 0.107794 -1.34486e-20)
(1.24439 0.0958548 -1.29582e-20)
(1.12185 0.0777136 0)
(0.938463 0.0557985 -1.34731e-20)
(0.715464 0.0348579 1.47019e-20)
(0.281222 0.0061637 0)
(0.130334 0.00241592 -3.80067e-21)
(0.132015 0.000288943 0)
(0.0632519 0.000850433 0)
(0.0640858 0.00017851 -7.55222e-23)
(0.0652421 0.000479692 -7.62027e-23)
(0.065803 -0.000161019 0)
(0.0209876 0.00010253 0)
(0.0215474 -3.23791e-05 4.52442e-23)
(0.0220721 7.94409e-05 0)
(0.0222096 -3.82291e-05 9.17475e-23)
(0.487445 0.0175221 1.66818e-20)
(1.00072 -0.0153279 -5.36446e-20)
(1.03149 -0.0466944 -4.93729e-20)
(1.05967 -0.0593461 -2.9192e-20)
(1.16637 -0.108778 -1.40678e-20)
(1.28185 -0.0494781 -6.06858e-21)
(1.33784 0.0216214 -5.84201e-20)
(1.35197 0.06672 -3.26308e-20)
(1.35078 0.0924039 -7.78509e-24)
(1.34601 0.106759 -3.24723e-20)
(1.34046 0.113933 -3.21376e-20)
(1.33531 0.116932 7.38668e-24)
(1.33175 0.117607 -2.9654e-20)
(1.32884 0.116647 -5.1222e-23)
(1.32049 0.113394 -1.67485e-24)
(1.2924 0.106191 0)
(1.22344 0.0934862 0)
(1.0971 0.0751791 0)
(0.914556 0.0540554 0)
(0.697684 0.0334554 1.39546e-20)
(0.285061 0.00616385 -1.82717e-20)
(0.137989 0.00313516 2.2233e-22)
(0.130006 -0.000139831 1.6123e-21)
(0.0599353 0.000803004 -2.86834e-22)
(0.060284 0.000160292 0)
(0.0612779 0.000459874 0)
(0.0617046 -0.000162155 -7.29193e-23)
(0.019592 9.3241e-05 0)
(0.020043 -3.83272e-05 0)
(0.0204464 7.4104e-05 2.20022e-23)
(0.0204982 -5.0088e-05 -2.18668e-23)
(0.475446 0.0168709 1.58432e-20)
(1.00143 -0.018572 5.28037e-20)
(1.03119 -0.0552454 -2.55868e-21)
(1.05544 -0.0789853 1.17274e-23)
(1.18504 -0.149644 1.32532e-20)
(1.31528 -0.0740325 3.09369e-20)
(1.36761 0.0105873 -7.19074e-21)
(1.37349 0.0623117 3.16424e-20)
(1.36537 0.0913081 2.39469e-23)
(1.35492 0.107494 -3.33146e-20)
(1.34451 0.115619 3.24549e-20)
(1.33521 0.118971 3.10751e-20)
(1.32829 0.119729 5.88145e-20)
(1.32406 0.118977 2.78306e-20)
(1.32023 0.116805 2.63511e-20)
(1.30944 0.112395 -2.95264e-24)
(1.27699 0.104317 0)
(1.20318 0.0910557 0)
(1.07409 0.0728904 0)
(0.892995 0.0519856 -2.42171e-20)
(0.680087 0.0319383 -1.33177e-20)
(0.279616 0.00640275 -4.16578e-24)
(0.152574 0.00284417 0)
(0.149496 0.000752764 -1.62832e-21)
(0.0759341 0.00264189 -4.28628e-21)
(0.0667743 -0.000245263 0)
(0.0621696 0.00021564 -4.54972e-21)
(0.0596461 -0.000458741 0)
(0.0184563 8.1819e-05 1.65733e-22)
(0.0187939 -3.82594e-05 0)
(0.0191559 7.42274e-05 -2.10989e-23)
(0.0191842 -4.60148e-05 6.31679e-23)
(0.461535 0.0161755 -3.53001e-24)
(1.00215 -0.0215434 0)
(1.02908 -0.0634254 5.01143e-20)
(1.05105 -0.1021 1.23652e-23)
(1.21102 -0.197543 -9.75519e-24)
(1.35765 -0.0992416 4.67404e-20)
(1.40436 0.000943345 6.09352e-20)
(1.40081 0.0592944 0)
(1.3853 0.0913999 1.6291e-23)
(1.36882 0.109156 6.6114e-20)
(1.35314 0.11799 -3.18971e-20)
(1.33922 0.121525 -3.06603e-20)
(1.32824 0.122194 -2.9127e-20)
(1.32082 0.121306 -2.76387e-20)
(1.31627 0.119356 -2.61115e-20)
(1.3114 0.116185 0)
(1.29813 0.110994 2.94241e-24)
(1.26178 0.102251 0)
(1.18389 0.0886672 0)
(1.05278 0.0703974 6.96637e-23)
(0.872527 0.0497883 0)
(0.662342 0.0305662 0)
(0.269869 0.00619383 4.23917e-24)
(0.148142 0.00313717 7.12315e-24)
(0.150504 0.00122423 -7.89413e-22)
(0.0913738 0.00130406 0)
(0.0911719 0.000642599 6.39276e-23)
(0.0898528 0.000567601 -6.25723e-23)
(0.0863236 -0.000134659 2.00576e-21)
(0.0331218 0.00229027 2.74915e-21)
(0.0224242 -0.000209831 0)
(0.0200604 -7.59126e-05 1.33156e-21)
(0.0184973 -0.000124969 8.25481e-23)
(0.447747 0.015403 -7.06783e-21)
(1.00267 -0.0240268 -2.30296e-22)
(1.02498 -0.0712647 0)
(1.04729 -0.129464 3.68145e-20)
(1.24269 -0.253379 -1.53812e-20)
(1.40433 -0.123941 -4.44654e-20)
(1.44218 -0.00658058 -1.55924e-23)
(1.42903 0.0581447 7.34671e-20)
(1.40753 0.0929809 -1.63629e-23)
(1.38629 0.111952 -1.00384e-19)
(1.36597 0.121195 3.23983e-20)
(1.34754 0.124708 -1.53565e-23)
(1.33227 0.125141 2.82533e-23)
(1.32089 0.123938 2.73139e-20)
(1.31335 0.121792 -2.5804e-20)
(1.30845 0.118919 0)
(1.30248 0.115083 0)
(1.28689 0.10931 -2.16424e-20)
(1.24702 0.100073 0)
(1.16563 0.0860998 1.01676e-20)
(1.03261 0.0677959 1.02095e-20)
(0.852798 0.0477763 0)
(0.645363 0.0292735 0)
(0.26 0.00571085 6.91304e-21)
(0.141952 0.00275129 0)
(0.144018 0.00107639 -1.93993e-22)
(0.0874792 0.00140476 2.44622e-22)
(0.0885748 0.000794135 2.47327e-22)
(0.0898194 0.000930108 2.48841e-22)
(0.0903793 0.000328958 4.99332e-22)
(0.051825 0.000372564 -5.25396e-23)
(0.0520878 0.000205797 1.64158e-22)
(0.0510289 0.000158213 0)
(0.0484036 -2.77788e-05 1.31636e-23)
(0.00913242 0.000610897 -2.8932e-22)
(0.43526 0.0147055 0)
(1.00282 -0.0257537 -6.21456e-20)
(1.01861 -0.0782991 2.19099e-22)
(1.04271 -0.161452 -3.54638e-20)
(1.2726 -0.317505 1.43665e-20)
(1.44169 -0.144135 -9.0317e-24)
(1.46547 -0.0107086 -1.8867e-23)
(1.44459 0.0594703 5.63248e-21)
(1.42233 0.0963144 1.67248e-23)
(1.40129 0.116031 6.64041e-20)
(1.37982 0.125352 -9.66742e-20)
(1.35886 0.128626 0)
(1.34015 0.128675 2.87028e-20)
(1.32491 0.127027 -9.15304e-25)
(1.31359 0.124475 5.09829e-20)
(1.306 0.121415 6.07196e-24)
(1.30073 0.117947 5.33418e-24)
(1.29369 0.113647 2.13685e-20)
(1.2759 0.107419 -2.38503e-24)
(1.2328 0.0976947 -1.93112e-20)
(1.14819 0.0834181 -9.54878e-21)
(1.01336 0.0653574 0)
(0.834201 0.0459339 0)
(0.629866 0.0281015 0)
(0.251136 0.00533693 3.81226e-24)
(0.135677 0.00278683 0)
(0.138255 0.000747943 1.63937e-21)
(0.0830245 0.00038801 0)
(0.0840951 0.00045565 0)
(0.0851211 0.000813776 0)
(0.0859429 0.000272808 4.79325e-22)
(0.0492803 0.000405108 0)
(0.0502414 0.000283114 -1.59013e-22)
(0.051027 0.000284131 0)
(0.0512939 0.000147611 1.06072e-22)
(0.0161258 2.21009e-05 7.41197e-23)
(0.0163695 1.95775e-06 -1.29655e-22)
(0.0159877 -6.0875e-05 -1.81866e-23)
(0.0154061 -0.000330019 5.73091e-22)
(0.424945 0.0141103 6.24285e-21)
(1.00267 -0.0263822 1.26438e-19)
(1.00925 -0.0828729 -2.31811e-22)
(1.03187 -0.195973 0)
(1.28407 -0.385587 1.55173e-20)
(1.44411 -0.154153 0)
(1.44459 -0.00903697 -2.34848e-23)
(1.42136 0.0637182 -7.80962e-20)
(1.40951 0.101323 0)
(1.39966 0.121212 -1.73083e-23)
(1.38568 0.130359 6.41171e-20)
(1.36808 0.133274 -2.84269e-23)
(1.34945 0.132846 -2.82929e-20)
(1.33209 0.130662 0)
(1.3175 0.127581 -6.33832e-23)
(1.30645 0.124094 -5.98809e-24)
(1.29886 0.120461 2.22025e-20)
(1.29326 0.11661 -5.3051e-24)
(1.28516 0.111959 1.97019e-20)
(1.26524 0.10531 1.88604e-20)
(1.21906 0.0951805 0)
(1.13147 0.0808461 0)
(0.995217 0.0631202 0)
(0.817069 0.0442748 0)
(0.616361 0.0271062 0)
(0.244141 0.00508298 -7.06716e-21)
(0.130312 0.0025998 0)
(0.132287 0.000754817 7.82626e-22)
(0.0616535 0.00051431 1.24385e-22)
(0.0631438 3.13425e-05 -1.19738e-22)
(0.0469106 -0.000444474 -5.18031e-23)
(0.0479118 4.36546e-05 -1.31064e-25)
(0.0481398 0.000218214 5.10705e-23)
(0.0484872 0.000128608 -2.5772e-22)
(0.0152095 2.8957e-05 -1.7976e-23)
(0.0156243 1.56834e-05 -1.81551e-23)
(0.0159031 1.57401e-05 0)
(0.0159313 -4.40664e-06 -7.32742e-23)
(0.417943 0.0138372 0)
(1.00231 -0.0255325 -6.3583e-20)
(0.99673 -0.0832878 0)
(1.00529 -0.224216 5.72599e-20)
(1.24865 -0.44449 -1.50645e-20)
(1.37335 -0.15516 2.52867e-23)
(1.33446 0.000681859 -1.14977e-19)
(1.32117 0.0703342 6.57433e-23)
(1.33811 0.107012 -4.09776e-23)
(1.3574 0.126495 0)
(1.36612 0.13552 6.67067e-20)
(1.36359 0.138263 -2.84753e-23)
(1.35318 0.137497 -5.64149e-20)
(1.33878 0.13482 2.63256e-20)
(1.32366 0.131178 -6.48643e-23)
(1.31014 0.127155 0)
(1.29954 0.123099 -2.1957e-20)
(1.29206 0.119122 3.61398e-25)
(1.28612 0.115007 -1.94946e-20)
(1.27693 0.110053 2.32059e-24)
(1.25487 0.103051 1.73854e-20)
(1.20576 0.0927147 0)
(1.11557 0.078459 0)
(0.978311 0.0610949 0)
(0.801614 0.042852 -8.79795e-21)
(0.605222 0.026462 -9.5435e-21)
(0.24163 0.00492715 1.66469e-21)
(0.12651 0.0025027 1.6215e-21)
(0.127544 0.000665988 -1.81738e-22)
(0.0589114 0.000464031 0)
(0.0600965 0.000147828 -6.70032e-22)
(0.0138531 0.000199564 -1.79525e-23)
(0.0140039 -0.000123755 3.56965e-23)
(0.0141306 -0.000250144 -3.71526e-23)
(0.0142381 0.00015189 -4.73936e-26)
(0.0144597 -0.000210228 3.39894e-23)
(0.0148896 -2.89247e-05 1.72185e-23)
(0.0149122 1.31178e-05 -3.46719e-23)
(0.0149568 -6.3151e-06 3.50342e-23)
(0.413949 0.0139811 1.0701e-20)
(1.00131 -0.0230724 0)
(0.982452 -0.0797292 -7.27095e-20)
(0.951321 -0.233065 -8.77124e-20)
(1.13009 -0.488168 -8.78899e-21)
(1.17362 -0.148179 5.02708e-21)
(1.08199 0.0163332 1.32185e-19)
(1.10416 0.0765081 -5.89689e-23)
(1.17484 0.11054 -4.71722e-23)
(1.24532 0.129512 3.66092e-23)
(1.29652 0.139034 -6.88768e-20)
(1.32618 0.142415 -2.90452e-23)
(1.33769 0.141947 5.65235e-20)
(1.33624 0.139173 2.61183e-20)
(1.32714 0.135161 -2.43899e-20)
(1.31493 0.130641 0)
(1.30287 0.126074 1.01105e-23)
(1.29294 0.121698 0)
(1.28562 0.117511 1.8986e-20)
(1.27931 0.113196 0)
(1.26896 0.108002 -1.70955e-20)
(1.24478 0.100795 -2.04915e-24)
(1.193 0.0903911 0)
(1.10058 0.0762729 0)
(0.962708 0.0593212 7.84356e-21)
(0.787897 0.0417516 8.22226e-21)
(0.596062 0.0261258 8.88464e-21)
(0.245641 0.00540598 -1.49291e-20)
(0.128321 0.00238337 5.3176e-21)
(0.125791 0.00044313 -2.75607e-21)
(0.0568416 0.000437001 -1.16788e-21)
(0.0576263 0.000136926 -3.76145e-23)
(0.0131791 0.000188746 -1.69882e-23)
(0.0133094 -0.000128215 1.69308e-23)
(0.0135457 -0.000177182 3.4922e-23)
(0.0135475 0.000151616 0)
(0.409364 0.0137497 0)
(0.999819 -0.0189607 0)
(0.965882 -0.0697204 -4.60879e-21)
(0.94034 -0.166599 2.69877e-20)
(0.917746 -0.166228 2.93486e-20)
(0.961499 -0.560322 1.53141e-20)
(0.858 -0.550268 2.45619e-20)
(0.864625 -0.289991 3.192e-20)
(1.06784 -0.202078 1.26145e-19)
(0.906975 -0.477858 -1.31775e-22)
(0.785105 -0.136881 -7.87201e-20)
(0.653456 0.0320985 0)
(0.632432 0.00916369 -6.12362e-20)
(0.756856 0.0778211 1.24217e-22)
(0.905674 0.106798 1.00165e-22)
(1.04379 0.126289 -4.15654e-23)
(1.15402 0.137767 -3.81454e-24)
(1.23324 0.143397 3.05409e-23)
(1.28346 0.144621 -5.8121e-20)
(1.3095 0.142767 -6.21343e-23)
(1.31773 0.139029 0)
(1.31467 0.134354 2.24395e-20)
(1.30593 0.129399 0)
(1.29571 0.124565 -1.00569e-23)
(1.28663 0.120023 -1.8757e-20)
(1.27952 0.115708 1.75378e-20)
(1.27278 0.111257 -3.92505e-24)
(1.26122 0.105933 1.56715e-20)
(1.23502 0.098638 0)
(1.18083 0.0882365 0)
(1.08652 0.0743214 0)
(0.94839 0.0578382 -7.23145e-21)
(0.775647 0.0408965 -7.64811e-21)
(0.58723 0.0255221 0)
(0.2462 0.00562544 0)
(0.140751 0.00237154 0)
(0.134866 0.00165139 4.86657e-21)
(0.0592424 9.3206e-05 -6.76039e-21)
(0.0564768 1.48614e-05 0)
(0.012607 0.000176599 -1.60895e-23)
(0.0126993 -0.000125066 -2.82947e-25)
(0.0129046 -0.000170879 3.30389e-23)
(0.0129185 0.000147755 1.6196e-23)
(0.402392 0.0135743 0)
(0.998225 -0.0132471 -6.15796e-22)
(0.952069 -0.0529624 7.93879e-20)
(0.893737 -0.151216 -2.93423e-20)
(0.872288 -0.13436 -3.42747e-20)
(0.823681 -0.263802 5.55743e-22)
(0.758958 -0.535543 -3.67742e-20)
(0.650964 -0.505149 -2.82563e-21)
(0.830436 -0.609127 3.60253e-21)
(0.591068 -0.188235 2.20388e-20)
(0.26159 -0.100763 -1.76692e-21)
(0.447531 -0.266023 2.74974e-21)
(0.220336 -0.00722885 -3.71324e-21)
(0.274309 0.0262346 -2.94649e-20)
(0.473739 0.0145164 3.32441e-20)
(0.300512 0.0538235 9.6753e-20)
(0.341899 0.070194 4.16499e-20)
(0.198653 0.0113588 -9.18827e-20)
(0.277051 0.0121307 -9.23921e-23)
(0.567014 0.0902055 -1.49362e-22)
(0.765283 0.11218 -1.12813e-22)
(0.934183 0.127824 4.5011e-23)
(1.07018 0.137934 -7.0609e-23)
(1.17157 0.142931 6.154e-20)
(1.23989 0.143749 -5.42785e-20)
(1.27981 0.141594 0)
(1.29796 0.137629 -2.24699e-20)
(1.30144 0.132776 -8.02248e-25)
(1.29666 0.127694 0)
(1.28862 0.122772 0)
(1.28056 0.118167 -1.73488e-20)
(1.27369 0.113795 0)
(1.26649 0.109297 -1.54702e-20)
(1.25373 0.103936 1.8451e-24)
(1.22565 0.0966184 0)
(1.16928 0.086286 1.57995e-24)
(1.07337 0.0726289 -6.54921e-21)
(0.935196 0.0565811 0)
(0.764082 0.0399498 0)
(0.577513 0.025012 0)
(0.241693 0.00563762 0)
(0.141156 0.00304276 1.12995e-21)
(0.141717 0.00132247 0)
(0.078236 0.000610268 9.95828e-22)
(0.0705068 0.00070047 3.1479e-23)
(0.0150652 0.000507234 2.40562e-21)
(0.0133174 -0.000315247 -3.3909e-23)
(0.0123643 -0.000196032 -1.56229e-23)
(0.0126315 0.000119794 4.72513e-23)
(0.394105 0.0133539 0)
(0.996643 -0.00628708 7.52484e-20)
(0.942878 -0.0301755 6.37042e-22)
(0.853295 -0.109616 3.46909e-20)
(0.838552 -0.0826061 6.9297e-22)
(0.773859 -0.245647 -4.02963e-20)
(0.726285 -0.21462 8.38477e-20)
(0.690118 -0.433222 5.0199e-23)
(0.736426 -0.446213 1.13769e-20)
(0.468548 -0.451253 -3.51438e-21)
(0.526631 -0.445842 1.1713e-22)
(0.613122 -0.568905 1.18759e-20)
(0.280049 -0.247511 0)
(0.0706917 0.0210956 -1.92698e-20)
(0.122152 0.0116828 1.03499e-22)
(0.0637007 0.0245566 -8.46313e-20)
(0.11814 0.0463261 7.98144e-20)
(0.258268 0.0586322 0)
(0.127206 0.0263206 -7.44953e-20)
(0.047323 0.000790095 7.2873e-20)
(0.467611 0.0847148 0)
(0.666006 0.106466 0)
(0.844906 0.123007 0)
(0.995621 0.133894 9.85044e-23)
(1.11304 0.139515 -2.7022e-23)
(1.19646 0.14085 0)
(1.24919 0.139097 0)
(1.27718 0.135391 2.10663e-23)
(1.28753 0.13069 -9.74409e-24)
(1.28711 0.125684 -1.78297e-20)
(1.28154 0.120799 0)
(1.27466 0.116212 0)
(1.26807 0.111865 -3.54746e-24)
(1.26044 0.107398 -3.35288e-24)
(1.24654 0.102056 0)
(1.21669 0.094772 0)
(1.15834 0.0845597 1.24655e-20)
(1.06104 0.071152 0)
(0.922742 0.0553616 0)
(0.752469 0.0391171 0)
(0.567157 0.0245945 -7.1094e-21)
(0.235532 0.00543261 6.01931e-22)
(0.137491 0.00296502 1.05405e-21)
(0.139201 0.00146428 0)
(0.0781099 0.000933869 -1.05563e-21)
(0.0789003 0.000519968 -1.37337e-22)
(0.0369451 0.000333677 0)
(0.0361055 -3.27404e-06 -6.56126e-22)
(0.0230789 0.00159425 -7.93167e-21)
(0.0338868 0.000160304 0)
(0.385448 0.0131246 3.93877e-21)
(0.995276 0.00125075 -1.50383e-19)
(0.93441 -0.0025273 -3.46593e-21)
(0.828445 -0.055178 0)
(0.82295 -0.0341667 -4.88139e-20)
(0.688804 -0.165815 -4.58375e-20)
(0.662353 -0.10769 -7.28093e-22)
(0.634135 -0.40887 -1.37964e-20)
(0.579117 -0.38016 1.22532e-20)
(0.488363 -0.304518 1.5948e-20)
(0.529157 -0.344522 -1.44039e-20)
(0.539561 -0.559306 -2.3818e-22)
(0.410241 -0.44621 4.0692e-21)
(0.0201777 0.00684939 -4.16701e-20)
(-0.00206233 0.0101185 1.24714e-21)
(0.00619598 -0.00324313 -1.51367e-21)
(0.0194749 0.0143753 -4.67194e-20)
(0.070852 0.0210208 -1.01935e-22)
(0.225681 0.0484134 0)
(0.0449753 0.0133933 1.43203e-20)
(-0.000259646 -0.00920477 -4.63929e-20)
(0.00791266 0.000397708 2.06134e-20)
(0.405443 0.0750979 0)
(0.592921 0.0980268 9.17772e-23)
(0.771817 0.115659 7.30998e-23)
(0.929567 0.127639 -3.60072e-23)
(1.05798 0.134365 2.77843e-23)
(1.15372 0.136712 -4.70425e-20)
(1.21802 0.135747 0)
(1.25557 0.132605 1.79926e-23)
(1.27297 0.128266 3.54141e-20)
(1.27722 0.12348 0)
(1.27439 0.118728 0)
(1.26886 0.114244 0)
(1.26264 0.109993 3.52067e-24)
(1.25462 0.105606 2.31286e-25)
(1.23964 0.100327 0)
(1.20812 0.0931195 0)
(1.14796 0.0830368 0)
(1.04936 0.0697907 0)
(0.910608 0.0542904 0)
(0.740763 0.0384567 3.16872e-23)
(0.556657 0.0242314 -3.26863e-21)
(0.229122 0.00527773 5.54492e-22)
(0.133202 0.00279019 -9.81857e-22)
(0.135039 0.00132246 0)
(0.0755195 0.000867525 -9.8979e-22)
(0.0768444 0.000554959 0)
(0.0359641 0.000444187 0)
(0.0363245 5.37513e-06 1.59231e-22)
(0.0367381 -9.77784e-05 3.25958e-22)
(0.0367723 0.000353394 -1.61885e-22)
(0.0113764 4.69326e-05 -1.22987e-23)
(0.011194 -6.46302e-05 -3.95737e-22)
(0.00631259 0.000442494 3.11849e-21)
(0.0107645 -0.000244736 0)
(0.376866 0.0129533 0)
(0.994178 0.00869485 7.49816e-20)
(0.936433 0.0285735 -9.17456e-20)
(0.757189 0.0804399 4.02246e-20)
(0.644578 -0.0403467 0)
(0.641032 0.0419421 0)
(0.455855 -0.254979 0)
(0.428269 -0.200994 2.01936e-20)
(0.387064 -0.0861073 0)
(0.405343 -0.144197 -2.03487e-20)
(0.401456 -0.491617 2.59584e-20)
(0.314886 -0.395909 -2.2466e-20)
(0.206678 -0.319579 -2.04609e-20)
(0.260957 -0.366369 -4.70871e-22)
(0.338759 -0.438984 1.7969e-21)
(-0.0104254 0.00419352 -2.1247e-20)
(0.00189322 6.4857e-05 0)
(0.00661104 0.00877427 5.95993e-23)
(0.0702466 0.0170273 -4.1408e-20)
(0.0140471 0.000235348 1.41879e-20)
(0.199351 0.0412734 1.53242e-19)
(0.015317 0.00234713 -7.03265e-23)
(0.0112362 0.00665637 1.55811e-22)
(-0.00715341 -0.00231082 1.10159e-20)
(0.000313691 -0.000250851 7.90096e-22)
(0.360525 0.0667231 0)
(0.535964 0.0893159 -9.62422e-23)
(0.710409 0.107393 7.40264e-20)
(0.870548 0.12036 -2.73113e-24)
(1.0063 0.128327 5.11414e-20)
(1.11197 0.131845 1.81866e-24)
(1.1866 0.131868 0)
(1.23328 0.129462 -1.78632e-20)
(1.25779 0.125626 0)
(1.26695 0.121166 0)
(1.26711 0.116638 -1.42936e-20)
(1.26311 0.112329 0)
(1.25738 0.108223 3.02553e-24)
(1.24903 0.103954 3.07421e-24)
(1.23302 0.0987737 0)
(1.19995 0.0916587 -1.09154e-20)
(1.13808 0.0816705 0)
(1.03807 0.0686088 0)
(0.898682 0.0534391 2.68583e-23)
(0.729162 0.0379308 0)
(0.546321 0.0239549 0)
(0.222816 0.00520133 0)
(0.12896 0.00271083 -9.05481e-22)
(0.130767 0.0012569 0)
(0.0728511 0.000792606 -1.55198e-22)
(0.074121 0.000481752 1.03538e-22)
(0.0344677 0.000421277 0)
(0.0348344 -1.32166e-05 1.86573e-22)
(0.0354385 -9.24663e-05 -3.81887e-23)
(0.0352861 0.000343909 7.58476e-25)
(0.0109965 5.78746e-05 0)
(0.0111839 -2.34778e-05 0)
(0.0113083 -3.73962e-05 1.24318e-23)
(0.0113291 4.89192e-05 0)
(0.368674 0.0128513 0)
(0.99344 0.0155838 0)
(0.943292 0.0553485 4.1067e-21)
(0.809064 0.150891 1.08696e-21)
(0.390813 0.279111 -2.06531e-20)
(0.514523 0.368404 -2.23459e-21)
(0.375392 -0.0265177 0)
(0.375308 0.0312588 0)
(0.419585 0.145247 1.98339e-21)
(0.388777 0.0905522 0)
(0.164971 -0.259406 -1.47685e-21)
(0.134063 -0.192225 -1.521e-21)
(0.0981976 -0.0564609 -2.83123e-20)
(0.112073 -0.124044 2.73621e-20)
(0.153835 -0.262494 -1.79954e-21)
(-0.00928144 -0.000884919 -1.23651e-20)
(-0.00290786 -0.00183303 0)
(0.00288001 -1.63536e-05 -1.19046e-22)
(-0.00123958 0.00235487 1.03342e-20)
(-0.000114597 -3.0019e-05 -1.1239e-20)
(0.0151057 0.00757245 -1.21049e-20)
(0.0630948 0.0143411 -1.53134e-19)
(0.0160726 -0.000315811 6.36482e-20)
(0.00081357 0.00019413 -1.00494e-20)
(0.00226131 -0.0019417 -1.56286e-20)
(0.178418 0.0361482 0)
(0.000645152 -0.00112952 -1.32652e-20)
(0.324944 0.0593579 0)
(0.488961 0.0809168 -1.75611e-19)
(0.657336 0.0990303 3.27214e-23)
(0.817232 0.112808 5.69934e-20)
(0.957709 0.121883 0)
(1.07133 0.126592 2.10126e-23)
(1.1551 0.127671 0)
(1.21043 0.126095 -3.22623e-23)
(1.24201 0.122858 0)
(1.25626 0.118817 1.9725e-22)
(1.25965 0.114591 0)
(1.25738 0.110512 5.91541e-24)
(1.25225 0.10659 -1.17882e-20)
(1.24365 0.102468 -2.63859e-24)
(1.22668 0.0974033 1.06574e-20)
(1.19212 0.0903734 0)
(1.12854 0.0805026 -9.72953e-21)
(1.02709 0.0676722 9.60678e-21)
(0.887023 0.052788 0)
(0.717834 0.0375441 0)
(0.536422 0.0237824 0)
(0.216778 0.00516952 0)
(0.124837 0.00267274 0)
(0.126586 0.00124754 -4.31234e-22)
(0.0702991 0.000768698 4.75809e-23)