/*--------------------------------*- C++ -*----------------------------------*\
| =========                 |                                                 |
| \\      /  F ield         | OpenFOAM: The Open Source CFD Toolbox           |
|  \\    /   O peration     | Version:  v1912                                 |
|   \\  /    A nd           | Website:  www.openfoam.com                      |
|    \\/     M anipulation  |                                                 |
\*---------------------------------------------------------------------------*/
FoamFile
{
    version     2.0;
    format      ascii;
    class       surfaceScalarField;
    location    "270";
    object      phi;
}
// * * * * * * * * * * * * * * * * * * * * * * * * * * * * * * * * * * * * * //

dimensions      [0 3 -1 0 0 0 0];
oriented        oriented;


internalField   nonuniform List<scalar> 
7194
(
-1.80705e-06
0.00131963
0.00396101
-1.95717e-06
0.00132159
-9.08276e-06
0.00396814
-2.10901e-06
0.0013237
-2.41705e-05
0.00657432
-9.46686e-06
0.0039755
-2.11228e-06
0.00132581
-4.47847e-05
0.00905324
-2.40364e-05
0.00658889
-9.46912e-06
0.00398286
-1.99332e-06
0.0013278
-7.50003e-05
0.0112931
-4.80484e-05
0.00907725
-2.35568e-05
0.00660297
-9.34256e-06
0.0039902
-2.03528e-06
0.00132984
-0.000115683
0.0131571
-7.90262e-05
0.0113241
-4.53392e-05
0.00909904
-2.41704e-05
0.0066178
-9.72569e-06
0.00399789
-1.71905e-06
0.00133156
-0.000162014
0.0145177
-0.000119346
0.0131974
-7.89161e-05
0.0113577
-4.63209e-05
0.00912119
-2.17504e-05
0.00662983
-8.08401e-06
0.00400426
-1.59521e-06
0.00133315
-0.000208176
0.0152627
-0.000164935
0.0145633
-0.000117693
0.0132362
-7.32379e-05
0.0113846
-4.13965e-05
0.00914083
-1.95536e-05
0.0066413
-7.26463e-06
0.00400993
-1.49154e-06
0.00133465
-0.000249388
0.0153224
-0.000214346
0.0153121
-0.000162276
0.0146079
-0.000112398
0.0132754
-7.06372e-05
0.0114138
-3.77561e-05
0.00915903
-1.82162e-05
0.00665225
-6.64201e-06
0.00401508
-1.16573e-06
0.00133581
-0.000279731
0.0146626
-0.000258317
0.0153664
-0.000211343
0.0153612
-0.000155777
0.0146512
-0.000100889
0.0133056
-6.16715e-05
0.0114377
-3.35266e-05
0.00917434
-1.5524e-05
0.00666113
-4.57219e-06
0.00401849
-1.17967e-06
0.00133699
-0.00029315
0.0133186
-0.00030064
0.014705
-0.000258255
0.0154133
-0.000197691
0.0154031
-0.000136935
0.0146873
-9.20015e-05
0.013336
-5.42537e-05
0.0114585
-2.99122e-05
0.00918873
-1.41705e-05
0.00667073
-5.19819e-06
0.00402251
-8.47127e-07
0.00133784
-0.000286336
0.0113736
-0.000331051
0.013349
-0.000296625
0.0147433
-0.000237216
0.0154528
-0.000173377
0.0154395
-0.00012246
0.0147177
-7.8398e-05
0.0133601
-4.74976e-05
0.0114761
-2.56418e-05
0.0092002
-1.08924e-05
0.00667642
-4.57709e-06
0.00402624
-7.52617e-07
0.00133859
-0.00024591
0.00896195
-0.000350992
0.0113936
-0.000326899
0.0133793
-0.000263641
0.0147698
-0.000200941
0.0154804
-0.000149203
0.0154663
-0.000102325
0.0147417
-6.5722e-05
0.0133783
-3.94419e-05
0.0114899
-2.14328e-05
0.00921074
-1.13729e-05
0.00668322
-4.17131e-06
0.00402965
-7.88748e-07
0.00133938
-5.06224e-05
0.0062364
-0.00010978
-0.000357651
0.00896861
-0.00034418
0.0114109
-0.00027631
0.013392
-0.000217358
0.0147862
-0.00016652
0.0154977
-0.000119506
0.0154835
-8.41206e-05
0.0147601
-5.79134e-05
0.0133968
-3.63086e-05
0.0115047
-2.06311e-05
0.00922
-1.02411e-05
0.00668929
-4.01005e-06
0.00403288
-7.7341e-07
0.00134015
0.00211656
-0.00213471
-3.24658e-05
-0.00014173
0.00622233
-0.000201854
0.00207059
-6.38128e-05
-0.000349465
0.0089739
-0.00026899
0.0114036
-0.000211499
0.0133861
-0.00016687
0.0147865
-0.000129413
0.0155076
-0.000101106
0.0155005
-7.35302e-05
0.0147757
-4.7734e-05
0.0134082
-3.02381e-05
0.0115143
-1.7412e-05
0.00922717
-8.68751e-06
0.00669397
-3.88743e-06
0.00403599
-8.41231e-07
0.00134099
-2.00709e-05
0.00139564
-0.00142056
-9.07887e-07
-6.64391e-06
0.00203995
-0.000111093
-0.000195295
0.00620808
-0.000139919
0.00201217
-0.000174072
0.00135224
-1.55052e-05
-4.90718e-06
-0.000228131
0.00893304
-0.000183636
0.0113757
-0.000153952
0.0133732
-0.000128582
0.0147857
-0.000105114
0.0155116
-8.0572e-05
0.0155075
-5.74071e-05
0.0147854
-4.22903e-05
0.0134203
-2.76949e-05
0.0115246
-1.87949e-05
0.00923728
-1.02217e-05
0.0067003
-3.43111e-06
0.00403858
-1.08312e-06
0.00134208
-3.60261e-06
-5.95799e-08
0.000445636
-0.000445778
-7.66289e-07
0.000440746
-1.75373e-06
0.00129777
-1.68559e-05
-3.97632e-05
0.0019884
-0.000171529
-0.000100405
0.00612199
-4.16286e-05
0.00195769
-0.000109208
0.00126355
-8.68965e-05
-5.2959e-05
-0.00043848
0.000428466
-5.49153e-06
-2.64081e-06
-0.000124696
0.0088741
-0.000117004
0.0113387
-0.000107416
0.013352
-9.59332e-05
0.0147765
-7.99397e-05
0.015511
-6.37549e-05
0.0155138
-5.20288e-05
0.0147951
-3.83763e-05
0.013431
-2.70737e-05
0.0115329
-1.71483e-05
0.00924421
-1.07581e-05
0.00670763
-4.98686e-06
0.00404248
-1.14371e-06
0.00134322
-0.000448319
-1.06134e-06
-1.83136e-08
0.000260991
-0.000261696
-6.1885e-08
0.000259512
-2.74706e-07
0.000420792
-9.1815e-06
0.000399284
-1.82559e-05
0.0012355
-7.99513e-05
-6.35234e-05
0.00191171
-5.44221e-05
-3.65044e-05
0.00604202
-8.22901e-06
0.00189438
-2.42963e-05
0.00118369
-1.70022e-05
-4.03948e-05
-0.000379501
0.000352508
-5.99033e-05
-3.31753e-05
-0.000257285
0.000252556
-7.62726e-07
-4.13205e-07
-6.70118e-05
0.0088241
-7.46075e-05
0.0113059
-7.6064e-05
0.0133322
-7.23436e-05
0.0147689
-6.48298e-05
0.0155121
-5.787e-05
0.0155197
-4.67103e-05
0.0148034
-3.66885e-05
0.0134406
-2.9116e-05
0.0115449
-2.05309e-05
0.00925398
-1.06007e-05
0.00671324
-5.30948e-06
0.00404665
-1.21058e-06
0.00134443
-0.000262643
-1.13842e-07
-4.47515e-08
7.55872e-05
-7.5649e-05
7.53125e-05
0.000245098
-1.72386e-06
0.00023062
-3.77754e-06
0.000330938
-5.83815e-05
0.000310894
-4.34794e-05
0.00114223
-1.03936e-05
-2.56863e-06
0.00187041
-1.25396e-05
-1.53088e-05
0.00599094
-6.23155e-07
0.00186762
-5.43237e-06
0.00112124
-1.74936e-07
-3.13562e-06
-0.000289157
0.000278463
-6.30821e-06
-1.86582e-05
-0.000207166
0.000168541
-2.12782e-05
-9.72124e-06
-7.48993e-05
7.41365e-05
-3.72193e-05
0.00878672
-4.88609e-05
0.0112787
-5.41604e-05
0.013314
-5.45182e-05
0.0147586
-5.40177e-05
0.0155082
-4.8903e-05
0.0155219
-4.30679e-05
0.0148098
-3.79328e-05
0.0134494
-2.94844e-05
0.0115538
-2.03306e-05
0.00926371
-1.36132e-05
0.00672154
-6.15436e-06
0.00405159
-1.53399e-06
0.00134597
-7.57629e-05
7.24127e-05
6.86351e-05
0.000147795
-3.76357e-05
0.000104316
0.000270346
-2.27636e-06
0.000268448
-6.70654e-07
0.00110969
-1.20059e-06
2.16736e-07
0.00185584
-3.5334e-06
-7.87846e-06
0.00596064
9.58638e-07
0.00185622
-1.00277e-06
0.00110434
5.49522e-07
-6.37953e-07
-0.000265687
0.000265605
-9.26545e-08
-3.74614e-07
-8.56574e-05
7.93492e-05
-5.89139e-05
3.76357e-05
-2.19854e-05
0.00875984
-3.34074e-05
0.011258
-4.05007e-05
0.0133
-4.65961e-05
0.0147512
-4.74993e-05
0.0155068
-4.65979e-05
0.0155254
-4.57955e-05
0.0148177
-4.05639e-05
0.0134605
-3.25399e-05
0.011566
-2.50716e-05
0.00927517
-1.51017e-05
0.00673049
-6.92056e-06
0.00405698
-1.57189e-06
0.00134754
7.70728e-05
7.64022e-05
0.000264577
-1.72999e-07
0.000264769
2.4627e-08
0.00110092
-3.34105e-07
2.24396e-07
0.00184976
-1.41335e-06
-4.99019e-06
0.00594199
1.65422e-06
0.00185134
-6.24213e-07
0.00109983
4.0317e-07
-3.22767e-07
-0.000264075
0.000264565
5.92907e-08
5.64674e-08
-7.60275e-05
7.59349e-05
-1.39837e-05
0.00874042
-2.48375e-05
0.0112423
-3.19084e-05
0.0132853
-3.76616e-05
0.0147413
-4.43001e-05
0.0155045
-4.75737e-05
0.0155272
-4.9201e-05
0.0148263
-4.52651e-05
0.0134732
-3.93051e-05
0.0115803
-2.84902e-05
0.00928856
-1.69881e-05
0.00674056
-7.76566e-06
0.00406317
-1.93445e-06
0.00134947
7.57619e-05
7.57865e-05
0.000264317
-8.62785e-08
0.000264486
5.56387e-08
0.00109846
-1.88173e-07
1.51872e-07
0.001847
-6.53945e-07
-3.13888e-06
0.00593018
9.69031e-07
0.00184868
-2.78958e-08
0.00109773
2.63687e-07
-1.61167e-07
-0.000264083
0.000264453
3.30463e-08
8.05808e-08
-7.5843e-05
7.59023e-05
-1.01272e-05
0.00872571
-1.71919e-05
0.0112276
-2.73568e-05
0.013275
-3.54188e-05
0.0147325
-4.36516e-05
0.0155006
-5.32879e-05
0.0155313
-5.56253e-05
0.0148367
-5.413e-05
0.013488
-4.51425e-05
0.0115969
-3.39615e-05
0.00930553
-2.0402e-05
0.0067532
-9.33115e-06
0.00407057
-2.0346e-06
0.00135151
7.5816e-05
7.58717e-05
0.000264333
-6.84644e-08
0.000264452
3.26856e-08
0.00109718
-1.51745e-07
4.72013e-08
0.00184609
-5.42516e-07
-1.85605e-06
0.00592117
7.43631e-07
0.00184683
2.26501e-07
0.001097
2.53088e-07
-9.53569e-08
-0.000264225
0.000264478
1.07059e-08
6.57255e-08
-7.59522e-05
7.59853e-05
-7.03528e-06
0.00871555
-1.42237e-05
0.0112145
-2.48846e-05
0.0132644
-3.62181e-05
0.014725
-4.90728e-05
0.0154964
-5.89593e-05
0.0155346
-6.57173e-05
0.0148483
-6.33871e-05
0.0135063
-5.32984e-05
0.0116163
-3.58415e-05
0.00932097
-2.07329e-05
0.0067646
-8.87228e-06
0.00407741
-1.84643e-06
0.00135335
7.59168e-05
7.59495e-05
0.000264406
-7.94468e-08
0.000264437
1.68628e-08
0.00109651
-8.75705e-08
3.49588e-08
0.00184536
-3.86951e-07
-1.47408e-06
0.00591444
1.16543e-06
0.00184592
1.82446e-07
0.00109668
1.64471e-07
-1.07791e-07
-0.00026427
0.000264515
8.38111e-09
7.10596e-08
-7.60152e-05
7.60259e-05
-5.89456e-06
0.00870722
-1.2951e-05
0.0112025
-2.38918e-05
0.0132521
-4.19811e-05
0.0147179
-6.07466e-05
0.0154982
-7.5489e-05
0.0155444
-7.93747e-05
0.0148643
-7.30533e-05
0.013526
-5.86058e-05
0.011639
-4.10521e-05
0.00934129
-2.28778e-05
0.0067786
-8.77802e-06
0.00408434
-1.91612e-06
0.00135527
7.59465e-05
7.59634e-05
0.000264508
-8.02979e-08
0.000264528
1.41222e-08
0.00109635
-1.98633e-08
-4.41549e-08
0.00184466
-2.09257e-07
-1.17172e-06
0.00590874
9.74944e-07
0.0018456
2.27666e-07
0.00109642
1.62785e-07
-4.3002e-08
-0.000264352
0.000264515
2.22967e-09
6.83629e-08
-7.60344e-05
7.60428e-05
-4.07974e-06
0.00869835
-1.26601e-05
0.0111913
-2.83689e-05
0.0132385
-4.72054e-05
0.0147044
-7.07022e-05
0.0154934
-8.93294e-05
0.0155543
-9.72407e-05
0.0148884
-8.67654e-05
0.0135542
-6.6332e-05
0.0116643
-4.33438e-05
0.00936176
-2.23763e-05
0.0067922
-9.47558e-06
0.0040919
-2.49559e-06
0.00135777
7.59625e-05
7.59766e-05
0.000264575
-7.99665e-08
0.000264522
8.59393e-09
0.00109626
-1.84046e-08
-3.82631e-08
0.00184461
-1.818e-07
-6.37423e-07
0.00590447
8.31091e-07
0.00184534
2.35895e-07
0.00109636
1.6654e-07
-3.1134e-08
-0.000264382
0.000264539
5.62032e-09
9.71054e-08
-7.6045e-05
7.60472e-05
-5.03182e-06
0.00869072
-1.50686e-05
0.011178
-3.41684e-05
0.0132255
-6.48195e-05
0.0146985
-9.40263e-05
0.0154981
-0.000112829
0.0155699
-0.000113031
0.0149147
-9.71656e-05
0.013585
-7.13154e-05
0.0116923
-4.45657e-05
0.00938395
-2.27175e-05
0.00680544
-7.71981e-06
0.00409712
-7.21856e-07
0.00135849
7.59673e-05
7.59759e-05
0.000264604
-8.34205e-08
0.000264549
1.63153e-08
0.00109623
-1.11711e-08
-4.8456e-08
0.00184469
1.4402e-08
-3.39277e-07
0.00589934
4.3878e-07
0.00184525
2.7263e-07
0.00109633
1.65081e-07
-2.20922e-08
-0.000264453
0.000264613
6.19873e-09
6.54476e-08
-7.6073e-05
7.60786e-05
-4.31427e-06
0.00867997
-2.02746e-05
0.0111641
-4.79764e-05
0.0132086
-8.45917e-05
0.0146891
-0.00011848
0.0155037
-0.000136563
0.0155935
-0.000129892
0.0149474
-0.000106616
0.0136203
-7.49478e-05
0.0117227
-4.19681e-05
0.0094032
-2.13065e-05
0.00681903
-6.69793e-06
0.0041031
-6.52425e-07
0.00135914
7.59952e-05
7.60115e-05
0.00026469
-8.78585e-08
0.000264533
1.08586e-07
0.00109639
-6.53417e-09
-3.83199e-08
0.00184485
6.04599e-08
1.8791e-07
0.00589557
-7.39664e-07
0.00184515
1.35559e-07
0.0010965
1.69286e-07
-1.58684e-08
-0.000264524
0.000264696
-6.4091e-09
-1.33678e-08
-7.60769e-05
7.60831e-05
-7.51192e-06
0.0086672
-2.7717e-05
0.0111438
-6.48038e-05
0.0131888
-0.000113563
0.0146842
-0.000151229
0.0155184
-0.000163408
0.015627
-0.000144777
0.0149856
-0.000110892
0.0136563
-7.21614e-05
0.0117528
-4.10429e-05
0.00942293
-1.74039e-05
0.00682974
-6.19139e-06
0.00410864
-4.0151e-07
0.00135954
7.59953e-05
7.61039e-05
0.000264735
-4.64248e-08
0.000264585
1.11918e-07
0.00109659
3.7322e-09
-3.24319e-08
0.00184524
9.83466e-08
1.06522e-06
0.00588803
-1.03484e-06
0.00184436
1.48639e-07
0.00109657
1.7015e-07
-1.3234e-08
-0.000264581
0.000264755
-5.221e-09
-1.13789e-08
-7.60905e-05
7.60841e-05
-1.11648e-05
0.00865065
-4.05532e-05
0.0111196
-9.51936e-05
0.0131705
-0.000151594
0.0146845
-0.000188159
0.0155432
-0.000185617
0.0156678
-0.000154852
0.0150296
-0.000110908
0.013695
-6.80872e-05
0.0117799
-3.63366e-05
0.00944187
-1.59431e-05
0.00683949
-2.98427e-06
0.00411122
-1.80217e-07
0.00135972
7.60377e-05
7.61496e-05
0.000264838
-7.87675e-08
0.000264693
1.12763e-07
0.00109669
3.47035e-09
-2.37462e-08
0.00184525
1.75215e-07
1.39763e-06
0.00587747
-2.00064e-06
0.0018444
-1.8745e-07
0.00109669
1.65999e-07
-1.96981e-08
-0.00026469
0.000264865
-5.45173e-09
-1.01384e-08
-7.61382e-05
7.6133e-05
-1.82961e-05
0.0086284
-6.45991e-05
0.011089
-0.000135483
0.0131543
-0.000199411
0.0146958
-0.000223298
0.0155808
-0.000197444
0.0157104
-0.000153508
0.0150722
-0.000101746
0.0137287
-6.09212e-05
0.0118045
-3.09059e-05
0.00945683
-1.0664e-05
0.00684717
-2.7273e-06
0.00411377
1.93221e-07
0.00135953
7.60542e-05
7.6167e-05
0.000264912
-4.36872e-08
0.000264809
7.9672e-08
0.0010969
3.89096e-11
-2.92882e-08
0.00184533
4.66652e-07
9.11674e-07
0.00586171
-3.44582e-06
0.00184374
-4.09648e-07
0.00109653
1.79578e-07
3.28736e-09
-0.000264767
0.000264941
-8.14e-09
2.22285e-08
-7.61568e-05
7.61514e-05
-3.08358e-05
0.00859463
-0.000100857
0.0110544
-0.000191811
0.0131467
-0.000248976
0.0147215
-0.000241235
0.0156246
-0.000200711
0.0157576
-0.000142582
0.015113
-9.26339e-05
0.0137604
-5.17519e-05
0.0118253
-2.28066e-05
0.00946897
-6.46572e-06
0.00685091
7.67982e-07
0.00411319
1.74576e-06
0.00135778
7.61077e-05
7.61874e-05
0.000265025
-8.37855e-08
0.000264904
9.14167e-08
0.00109699
1.83988e-08
-1.16985e-08
0.00184411
5.44112e-07
1.6357e-06
0.00583513
-5.89091e-06
0.0018413
-6.40827e-07
0.00109646
1.08639e-07
7.17454e-09
-0.000264898
0.000265075
2.70908e-09
9.54927e-09
-7.62096e-05
7.62015e-05
-5.54205e-05
0.0085492
-0.000161305
0.0110239
-0.00026012
0.0131579
-0.000281276
0.0147615
-0.000245597
0.0156695
-0.000184522
0.0157995
-0.000126462
0.0151468
-7.70953e-05
0.0137857
-4.12092e-05
0.0118437
-1.56448e-05
0.00947815
-3.02052e-06
0.00685469
1.67045e-06
0.00411327
2.07796e-06
0.0013557
7.61177e-05
7.62091e-05
0.000265171
-7.76234e-08
0.000265063
9.66378e-08
0.00109698
9.38084e-08
-6.3165e-08
0.00184298
-3.9834e-08
-1.85147e-07
0.00579195
-1.20536e-05
0.00183803
-9.4775e-07
0.0010962
5.05105e-08
8.09877e-08
-0.000265058
0.000265168
-1.54065e-09
1.18887e-08
-7.62187e-05
7.62214e-05
-0.000104411
0.0084923
-0.000242797
0.0110065
-0.000310868
0.0131875
-0.000287933
0.0148038
-0.000224219
0.0157092
-0.000159482
0.0158326
-0.000103656
0.0151734
-6.14733e-05
0.013806
-2.86252e-05
0.0118567
-9.30145e-06
0.00948443
1.03682e-06
0.00685533
5.28261e-06
0.00411006
2.47599e-06
0.00135323
7.61437e-05
7.62404e-05
0.000265307
-4.52218e-08
0.000265175
6.90513e-08
0.00109611
1.77367e-07
-1.26054e-07
0.00183866
-8.06961e-07
-5.21572e-06
0.00572073
-2.79832e-05
0.00182948
-2.87826e-06
0.00109507
-7.76902e-11
9.91433e-08
-0.00026521
0.000265255
5.67588e-09
4.55467e-08
-7.62523e-05
7.62507e-05
-0.000192429
0.00844193
-0.000330343
0.011026
-0.000322683
0.0132222
-0.000256255
0.0148359
-0.000188658
0.0157384
-0.000129886
0.0158588
-8.22448e-05
0.0151941
-4.36754e-05
0.013821
-1.83722e-05
0.0118658
-2.2966e-06
0.00948776
3.70318e-06
0.00685691
7.33165e-06
0.00410521
2.85699e-06
0.00135037
7.62055e-05
7.62746e-05
0.000265505
-7.26609e-08
0.000265276
1.02619e-07
0.00109424
1.92603e-07
-1.70387e-07
0.00182756
-3.29339e-06
-2.60534e-05
0.00562546
-7.11002e-05
0.00180833
-8.75649e-06
0.00109157
-3.12879e-07
9.79767e-08
-0.00026536
0.00026539
-2.97473e-08
1.53246e-08
-7.63201e-05
7.63258e-05
-0.000323498
0.00843509
-0.000348818
0.0110522
-0.000275721
0.0132417
-0.000206423
0.0148536
-0.000147319
0.0157558
-9.96265e-05
0.0158762
-5.86294e-05
0.0152091
-2.9156e-05
0.0138318
-8.46982e-06
0.0118719
4.04885e-06
0.00948742
1.08638e-05
0.00685338
7.65926e-06
0.00410041
3.33199e-06
0.00134704
7.62531e-05
7.63558e-05
0.00026561
-2.768e-08
0.000265362
7.78399e-08
0.00108832
4.46455e-07
-4.90816e-07
0.00179635
-1.40723e-05
-9.5547e-05
0.00557238
-0.000174874
0.00175629
-3.10384e-05
0.00108022
-8.06047e-07
1.58306e-07
-0.000265408
0.00026513
-3.42459e-08
5.17107e-08
-7.63711e-05
7.63413e-05
-0.000362894
0.00844916
-0.000275475
0.0110519
-0.00020623
0.0132415
-0.000154074
0.0148604
-0.000108399
0.0157646
-6.94804e-05
0.015887
-3.92867e-05
0.0152192
-1.37532e-05
0.0138371
2.92516e-06
0.0118731
1.15539e-05
0.00948673
1.20045e-05
0.00684903
9.22105e-06
0.00409452
3.87027e-06
0.00134317
7.63137e-05
7.63915e-05
0.000265623
-4.70817e-08
0.000265054
7.79381e-08
0.00106744
1.39155e-07
-1.43823e-06
0.00172045
-5.97097e-05
-0.000195734
0.00556582
-0.0001606
0.0016716
-0.000126021
0.00104025
-3.58999e-06
-2.52246e-07
-0.000265188
0.000264458
-7.66537e-08
2.48734e-08
-7.64432e-05
7.6409e-05
-0.000239636
0.00841333
-0.00017908
0.0110248
-0.000139283
0.0132267
-0.000103708
0.0148557
-7.40788e-05
0.0157692
-4.67388e-05
0.0158945
-2.05803e-05
0.0152261
-3.55752e-06
0.0138436
1.09028e-05
0.0118737
1.54295e-05
0.0094833
1.95354e-05
0.00683872
1.07612e-05
0.00408763
4.60029e-06
0.00133857
7.63619e-05
7.64398e-05
0.000264699
-1.01264e-07
0.000263288
-2.70784e-08
0.000993197
-2.1714e-06
-1.04898e-05
0.00164432
-0.00016846
-0.000106879
0.00547575
-4.26876e-05
0.00161088
-0.000127153
0.000918514
-3.70412e-05
-1.42959e-05
-0.000263105
0.000260037
-5.21531e-07
-6.94645e-08
-7.64647e-05
7.6388e-05
-0.000121195
0.00835544
-0.000106586
0.0109921
-8.96195e-05
0.0132126
-6.94576e-05
0.0148511
-4.85094e-05
0.015771
-2.47884e-05
0.0158987
-6.68216e-06
0.0152292
8.39793e-06
0.0138461
1.81849e-05
0.011871
2.16551e-05
0.00948118
1.75368e-05
0.00683194
1.52046e-05
0.00407702
6.31742e-06
0.00133225
7.62868e-05
7.62597e-05
0.000258471
-6.05417e-07
0.000249712
-1.73173e-06
0.000873068
-5.94832e-05
-6.35307e-05
0.0015588
-5.48011e-05
-3.1715e-05
0.00539157
-5.29684e-06
0.00153619
-2.00807e-05
0.000809458
-1.86385e-05
-4.49048e-05
-0.000239232
0.000212151
-9.95957e-06
-3.81582e-06
-7.61902e-05
7.56687e-05
-5.66097e-05
0.00830546
-5.90033e-05
0.0109614
-5.31238e-05
0.0131963
-4.10554e-05
0.0148436
-2.32268e-05
0.0157694
-7.0758e-06
0.0158991
6.80964e-06
0.0152308
2.06966e-05
0.0138436
2.58351e-05
0.0118668
2.83225e-05
0.0094704
2.55898e-05
0.00682155
1.53621e-05
0.00406798
5.77732e-06
0.00132647
7.50633e-05
7.33316e-05
0.000174725
-2.20571e-05
0.000148693
-3.74991e-05
0.000762255
-6.35567e-06
-1.24245e-06
0.00151295
-8.47269e-06
-1.10299e-05
0.00534422
1.77127e-06
0.00151025
-2.5957e-06
0.000742954
9.82429e-08
-8.77834e-07
-0.000103788
8.51497e-05
-6.95157e-05
5.95562e-05
-2.7292e-05
0.00827375
-3.28594e-05
0.0109412
-2.83809e-05
0.0131836
-1.93209e-05
0.0148397
-8.90891e-06
0.0157712
4.44417e-06
0.0159015
1.71097e-05
0.0152344
2.74403e-05
0.013842
3.16224e-05
0.0118635
3.28383e-05
0.00946315
2.80041e-05
0.00680891
1.9132e-05
0.00405462
6.5977e-06
0.00131988
3.74991e-05
7.8794e-05
7.75516e-05
0.000734531
-1.94658e-07
1.45259e-07
0.00150058
-1.36236e-06
-4.99947e-06
0.00531878
3.14661e-06
0.00150225
1.04164e-07
0.000731874
1.45844e-07
-8.41024e-08
-7.66738e-05
7.6772e-05
-1.13042e-05
0.0082522
-1.38403e-05
0.0109266
-1.21628e-05
0.0131765
-4.00671e-06
0.0148348
6.78244e-06
0.0157689
1.83734e-05
0.0159002
2.93277e-05
0.0152325
3.54674e-05
0.0138381
3.986e-05
0.0118565
4.1271e-05
0.00944988
3.18678e-05
0.00679618
2.15252e-05
0.00403969
8.51639e-06
0.00131136
7.65773e-05
7.67226e-05
0.000730404
-1.84769e-08
1.25446e-07
0.00149738
-1.31411e-07
-2.80638e-06
0.00530738
2.89633e-06
0.0015001
4.27542e-07
0.000730443
9.55655e-08
-3.03137e-08
-7.66385e-05
7.67843e-05
-3.35367e-06
0.00824171
-3.22089e-06
0.0109177
1.04509e-06
0.0131714
8.73014e-06
0.0148329
1.92866e-05
0.015768
2.85143e-05
0.015901
3.85705e-05
0.0152294
4.41291e-05
0.0138338
4.85424e-05
0.0118492
4.36044e-05
0.00943815
3.72907e-05
0.00678041
2.15964e-05
0.00402661
8.07388e-06
0.00130329
7.67659e-05
7.68913e-05
0.000730252
-3.04445e-08
9.01445e-08
0.00149718
1.12677e-07
-1.1915e-06
0.0053025
2.72381e-06
0.00149955
5.26212e-07
0.000730635
6.37658e-08
-1.96293e-08
-7.6861e-05
7.69566e-05
1.86524e-06
0.00823663
3.84128e-06
0.0109149
9.48753e-06
0.0131707
1.6841e-05
0.0148353
2.685e-05
0.0157697
3.85124e-05
0.0159011
4.57251e-05
0.0152278
5.40943e-05
0.0138283
5.56139e-05
0.0118372
4.96975e-05
0.00942574
4.08332e-05
0.00676117
2.43967e-05
0.00401029
8.97726e-06
0.00129431
7.69261e-05
7.70163e-05
0.00073067
-4.26685e-09
8.25997e-08
0.00149803
3.28868e-07
-2.62251e-07
0.00530156
3.06839e-06
0.00150017
5.84686e-07
0.000731171
5.27894e-08
-2.76909e-08
-7.69966e-05
7.70604e-05
4.30968e-06
0.00823616
9.11206e-06
0.0109153
1.69512e-05
0.0131705
2.63162e-05
0.0148358
3.62384e-05
0.0157719
4.70181e-05
0.0158998
5.63348e-05
0.0152255
6.08902e-05
0.013823
5.7727e-05
0.0118292
5.51178e-05
0.00941146
4.25329e-05
0.00674304
2.9918e-05
0.00398935
9.38561e-06
0.00128492
7.70561e-05
7.71387e-05
0.000731422
2.82691e-08
4.94683e-08
0.00149948
4.25599e-07
-1.0028e-07
0.00530301
2.96119e-06
0.00150195
5.98102e-07
0.000731896
3.31421e-08
7.75856e-08
-7.71111e-05
7.71638e-05
7.50871e-06
0.00823776
1.43995e-05
0.0109178
2.25608e-05
0.0131743
3.39246e-05
0.0148382
4.61555e-05
0.0157728
5.55739e-05
0.0159005
6.36903e-05
0.0152227
6.93254e-05
0.0138114
7.21079e-05
0.0118122
6.28549e-05
0.00939113
5.2881e-05
0.00672008
3.05624e-05
0.00396817
9.96903e-06
0.00127495
7.71921e-05
7.72416e-05
0.000732235
3.12929e-08
5.5048e-08
0.00150141
4.38e-07
8.18577e-07
0.00530719
2.50668e-06
0.00150375
6.25121e-07
0.000732814
2.05024e-08
-9.11833e-10
-7.73192e-05
7.73523e-05
9.00042e-06
0.00824316
1.70815e-05
0.0109233
2.74876e-05
0.0131807
4.08822e-05
0.0148434
5.2247e-05
0.0157761
6.49659e-05
0.0158993
7.53245e-05
0.0152167
7.92416e-05
0.0138043
8.1595e-05
0.0117934
7.24675e-05
0.00937155
5.44707e-05
0.00669617
3.43473e-05
0.0039438
1.34548e-05
0.0012615
7.73836e-05
7.74386e-05
0.000733202
7.29683e-09
4.29291e-08
0.00150395
6.16093e-07
1.09812e-06
0.00531251
2.57721e-06
0.00150579
6.72872e-07
0.000733773
2.44721e-08
2.93105e-08
-7.74377e-05
7.74582e-05
1.04303e-05
0.00824981
2.10355e-05
0.0109298
3.35463e-05
0.0131881
4.67548e-05
0.0148489
6.10278e-05
0.0157801
7.45194e-05
0.0159001
8.25421e-05
0.0152134
8.76013e-05
0.0137983
8.47632e-05
0.0117811
8.019e-05
0.00934583
6.14152e-05
0.0066691
3.78013e-05
0.00391945
2.77079e-05
0.00123379
7.74655e-05
7.75085e-05
0.000734298
3.33473e-08
5.76967e-08
0.00150622
6.61862e-07
1.26054e-06
0.00531936
2.32434e-06
0.00150786
9.39537e-07
0.000734938
2.79748e-08
5.13418e-09
-7.75378e-05
7.75622e-05
1.15445e-05
0.0082593
2.49378e-05
0.0109384
4.13571e-05
0.0131935
5.55528e-05
0.0148544
7.18637e-05
0.0157827
8.24285e-05
0.0159002
9.35681e-05
0.0152075
9.78986e-05
0.0137851
9.6295e-05
0.011765
8.60614e-05
0.00932118
6.80731e-05
0.00663883
5.83178e-05
0.00388884
5.46399e-05
7.75956e-05
7.76533e-05
0.000735506
3.47716e-08
5.90248e-08
0.00150837
7.54777e-07
1.13759e-06
0.00532815
1.61172e-06
0.00151014
5.50569e-07
0.000736334
1.05663e-07
6.0189e-09
-7.76584e-05
7.76864e-05
1.30552e-05
0.00827118
2.79963e-05
0.0109517
4.50819e-05
0.0132039
6.33246e-05
0.0148629
7.92027e-05
0.0157859
9.40399e-05
0.0158997
0.000103086
0.0152023
0.000106644
0.0137748
0.000104028
0.0117471
9.1488e-05
0.00929777
8.78227e-05
0.00660932
9.96179e-05
7.77212e-05
7.77802e-05
0.000736985
7.18071e-08
3.15448e-08
0.00151097
3.02042e-07
7.63557e-07
0.0053393
1.14158e-06
0.00151279
-2.03918e-07
0.000737478
3.11102e-08
2.66337e-08
-7.77862e-05
7.78919e-05
1.71761e-05
0.008282
3.38715e-05
0.0109629
5.12201e-05
0.013216
6.95687e-05
0.0148726
8.69472e-05
0.015793
0.000102928
0.0158999
0.000112572
0.0151964
0.000119873
0.013759
0.000116882
0.0117217
0.00011414
0.00927145
0.000129625
7.79637e-05
7.79952e-05
0.000737715
1.58402e-08
4.90349e-08
0.00151489
-1.3392e-06
1.47911e-06
0.00534988
5.12511e-06
0.00151797
-1.93581e-06
0.000737562
-9.09867e-10
-4.9956e-08
-7.80219e-05
7.8053e-05
2.08014e-05
0.00829507
3.69688e-05
0.0109772
5.79985e-05
0.0132276
7.85524e-05
0.014881
9.83178e-05
0.0157976
0.000111037
0.0159014
0.000123143
0.0151931
0.000128428
0.0137474
0.000134
0.0117018
0.000151228
7.80688e-05
7.81178e-05
0.000736178
2.30809e-08
2.21348e-08
0.00151598
5.20152e-06
-1.73306e-06
5.3141e-06
0.00536015
5.21679e-06
0.00152028
-4.04054e-07
1.22806e-06
0.00043545
-2.20334e-07
0.000299016
-4.4488e-09
-7.80679e-05
7.8067e-05
2.23577e-05
0.00830969
4.23668e-05
0.0109928
6.31913e-05
0.013243
8.68386e-05
0.0148924
0.000104697
0.015804
0.000121501
0.015903
0.000130395
0.0151911
0.000143265
0.0137381
0.000159923
7.80901e-05
7.81122e-05
0.000456362
-1.57102e-05
0.000461434
-6.80512e-06
0.00152254
1.23746e-06
1.81848e-06
4.60552e-06
0.00537342
4.47817e-06
0.00152502
1.23709e-06
1.50427e-06
0.000464096
-3.0659e-06
0.000466248
-9.24406e-07
-7.81077e-05
7.78874e-05
0.000280468
2.83835e-06
2.4252e-05
0.0083278
4.66649e-05
0.0110094
7.13865e-05
0.0132584
9.46432e-05
0.0149025
0.000113763
0.0158117
0.000130145
0.0159033
0.000146344
0.015188
0.000164663
0.00027455
-8.87147e-07
0.000467183
3.02816e-07
0.000468477
5.24705e-07
0.00152732
1.01772e-06
1.28283e-06
4.83647e-06
0.00538831
4.52721e-06
0.00152996
7.65605e-07
1.07526e-06
0.000469072
6.41571e-07
0.000469764
8.12169e-07
0.00027253
-1.04581e-06
0.00027212
-5.14731e-07
8.07258e-05
2.76617e-05
0.0083468
5.14206e-05
0.0110293
7.86264e-05
0.0132744
0.000100894
0.0149154
0.000120682
0.0158212
0.000138957
0.0159107
0.000158086
7.98386e-05
0.000272423
-4.7e-10
0.000272843
1.04579e-07
0.000470186
5.95789e-07
0.000471051
4.18366e-07
0.00153302
7.78054e-07
9.99524e-07
5.20058e-06
0.00540581
4.95754e-06
0.00153567
1.05546e-06
8.19986e-07
0.000471405
4.11631e-07
0.000471914
5.66511e-07
0.000273324
1.60826e-07
0.00027399
1.46112e-07
7.87928e-05
7.82781e-05
3.04937e-05
0.00836773
5.79361e-05
0.01105
8.49177e-05
0.0132904
0.000106172
0.0149299
0.000127324
0.0158328
0.000141377
7.82776e-05
7.83822e-05
0.000274401
1.84595e-07
0.000274686
1.34184e-07
0.000472276
4.15715e-07
0.000472814
4.61518e-07
0.00153902
1.04288e-06
8.04341e-07
5.89086e-06
0.00542504
5.37146e-06
0.00154207
1.11872e-06
7.92989e-07
0.000473493
3.75947e-07
0.000473942
3.71665e-07
0.000274999
9.76453e-08
0.000275467
9.90141e-08
7.8543e-05
7.86891e-05
3.50265e-05
0.00839064
6.46364e-05
0.0110703
9.02334e-05
0.0133064
0.000110878
0.0149463
0.000117669
7.88737e-05
7.90079e-05
0.000275789
9.38064e-08
0.000276124
1.26567e-07
0.000474405
5.79546e-07
0.000474828
3.81853e-07
0.00154583
1.23012e-06
8.98607e-07
6.63522e-06
0.00544724
6.19642e-06
0.0015491
1.21773e-06
8.83712e-07
0.000475613
3.33056e-07
0.000476004
4.02365e-07
0.000276443
5.63341e-08
0.000276723
9.21998e-08
7.91056e-05
7.92046e-05
4.05857e-05
0.00841469
7.14769e-05
0.011089
9.11049e-05
0.0133261
9.15871e-05
7.92984e-05
7.94249e-05
0.000277178
1.24797e-07
0.000277467
9.27231e-08
0.000476613
6.21142e-07
0.000477097
4.14337e-07
0.00155309
1.36427e-06
1.28445e-06
8.03338e-06
0.00547269
7.10091e-06
0.00155687
1.12677e-06
1.28632e-06
0.000477944
3.71097e-07
0.000478214
6.1312e-07
0.000277703
9.66143e-08
0.000278005
1.00643e-07
7.94813e-05
7.95735e-05
4.93131e-05
0.00843686
7.25846e-05
0.0111076
6.49259e-05
7.96983e-05
7.9791e-05
0.00027853
9.5653e-08
0.000278738
2.07188e-07
0.000479063
5.15502e-07
0.000479873
4.74198e-07
0.00156213
1.30742e-06
1.46886e-06
1.04845e-05
0.00550128
1.02361e-05
0.00156631
1.42205e-06
1.49284e-06
0.000480511
4.89082e-07
0.000481116
6.81541e-07
0.000279026
8.22386e-08
0.000279528
1.1154e-07
7.98876e-05
7.99882e-05
5.40273e-05
0.00845541
4.22375e-05
8.00839e-05
8.02911e-05
0.0002799
1.43676e-07
0.000280258
1.16185e-07
0.000481838
5.85567e-07
0.000482746
5.60841e-07
0.00157311
1.73074e-06
1.95768e-06
1.45645e-05
0.00552495
1.58e-05
0.00157881
2.16684e-06
2.36522e-06
0.000483651
5.16545e-07
0.000484303
8.40623e-07
0.00028063
1.17417e-07
0.000281232
7.88088e-08
8.03733e-05
8.04849e-05
2.81566e-05
8.06285e-05
8.07447e-05
0.000281665
1.5243e-07
0.000282092
1.34629e-07
0.000485314
7.20406e-07
0.000486527
7.44392e-07
0.00158724
2.77185e-06
3.36915e-06
3.11201e-05
1.23501e-05
0.00159425
3.82157e-06
4.96895e-06
0.000487737
9.57037e-07
0.000488784
1.31789e-06
0.00028247
1.38039e-07
0.000283167
1.43483e-07
8.08621e-05
8.09409e-05
8.10934e-05
8.1228e-05
0.000283701
1.86514e-07
0.00028427
1.7538e-07
0.000490148
1.4082e-06
0.000491913
1.6042e-06
0.00160653
8.0569e-06
1.07834e-05
1.61037e-05
7.84077e-06
0.000493927
1.80712e-06
0.00049607
2.82656e-06
0.00028501
2.1735e-07
0.000286036
2.91482e-07
8.1366e-05
8.15095e-05
8.1696e-05
8.18714e-05
0.000287093
3.50974e-07
0.000288313
3.84554e-07
0.000499205
4.92119e-06
0.000502493
7.49549e-06
0.000506886
1.17111e-05
1.12557e-05
0.000289637
4.83263e-07
0.000291734
7.29177e-07
8.20888e-05
8.23802e-05
8.27312e-05
8.31158e-05
0.000295177
1.47851e-06
0.000299289
3.38299e-06
0.000303552
7.44888e-06
1.53116e-05
8.3599e-05
8.43282e-05
8.58067e-05
8.91897e-05
9.66386e-05
-5.46146e-06
5.46143e-06
3.29167e-06
-8.75329e-06
-2.37851e-05
7.8439e-06
2.14026e-05
7.46308e-06
-2.79564e-05
1.58356e-06
-1.03369e-05
1.7944e-05
0.00010182
-0.000104457
6.16288e-06
1.52395e-05
4.87916e-06
-3.12521e-05
7.12533e-07
-1.10494e-05
-1.31161e-05
0.000285757
2.66627e-05
-0.000281362
-2.71323e-06
1.47403e-05
9.59552e-05
-2.1659e-06
-0.000110528
1.25263e-05
-3.27055e-05
3.20052e-07
-1.13695e-05
-6.97614e-06
0.000280744
2.67319e-05
-3.78491e-05
2.6518e-05
3.80043e-05
-8.99945e-06
2.65764e-05
-0.000294075
-4.86162e-06
-1.04543e-06
9.03476e-05
-3.23461e-07
-1.65389e-06
-0.000117163
-7.10293e-07
1.14808e-05
-3.40394e-05
1.64502e-07
-1.15341e-05
-4.42818e-06
0.000261516
2.61707e-05
-2.52085e-06
-4.05666e-05
2.94453e-05
-0.000799109
2.99588e-05
0.000795664
3.19529e-05
3.26257e-05
2.51209e-05
-0.000311658
-3.06178e-06
-4.4774e-06
-0.00012081
-4.20467e-07
-7.94456e-07
8.62893e-05
-2.3617e-07
-1.3404e-07
1.11572e-05
-3.45853e-05
1.9267e-07
-1.1727e-05
0.0002382
2.77783e-05
-2.56102e-06
-1.89982e-06
-5.12029e-05