/*--------------------------------*- C++ -*----------------------------------*\
| =========                 |                                                 |
| \\      /  F ield         | OpenFOAM: The Open Source CFD Toolbox           |
|  \\    /   O peration     | Version:  v1912                                 |
|   \\  /    A nd           | Website:  www.openfoam.com                      |
|    \\/     M anipulation  |                                                 |
\*---------------------------------------------------------------------------*/
FoamFile
{
    version     2.0;
    format      ascii;
    class       volScalarField;
    location    "240";
    object      p;
}
// * * * * * * * * * * * * * * * * * * * * * * * * * * * * * * * * * * * * * //

dimensions      [0 2 -2 0 0 0 0];


internalField   nonuniform List<scalar> 
3754
(
-0.00631129
-0.00628222
-0.00607703
-0.00623544
-0.00604898
-0.00584072
-0.00619446
-0.00600117
-0.00581394
-0.00561879
-0.00616582
-0.00595952
-0.00576977
-0.00559318
-0.0054009
-0.00615569
-0.00592804
-0.00573145
-0.00554848
-0.00537592
-0.00518996
-0.00617298
-0.00591369
-0.00569915
-0.0055072
-0.00533347
-0.00516486
-0.00498886
-0.00622767
-0.00592296
-0.00567939
-0.00547467
-0.00529708
-0.00512333
-0.00496433
-0.00479206
-0.00632162
-0.00596368
-0.00568088
-0.00545608
-0.00526811
-0.00508791
-0.00492289
-0.00476831
-0.00460139
-0.00645668
-0.0060414
-0.00570932
-0.00545785
-0.0052508
-0.00505932
-0.00488671
-0.00472836
-0.00457848
-0.0044181
-0.00662776
-0.00615785
-0.00576676
-0.00548365
-0.00525323
-0.00504521
-0.00485889
-0.00469488
-0.00453911
-0.00439436
-0.00424078
-0.00681724
-0.00631384
-0.00584851
-0.00553489
-0.00528155
-0.00505181
-0.00484584
-0.0046696
-0.0045042
-0.00435629
-0.00421844
-0.00406448
-0.00698004
-0.0065181
-0.00595266
-0.00561218
-0.00534027
-0.00508284
-0.00485396
-0.00465664
-0.00447903
-0.00432604
-0.00418042
-0.0040428
-0.0038957
-0.00706182
-0.00675013
-0.00708524
-0.00607704
-0.00571345
-0.00542891
-0.00514278
-0.00488792
-0.00466427
-0.00446889
-0.0043015
-0.0041463
-0.00400633
-0.00387483
-0.00372899
-0.00710906
-0.00704183
-0.00623064
-0.00668342
-0.00706562
-0.00583535
-0.00554231
-0.00523146
-0.00494992
-0.0046972
-0.004478
-0.00428891
-0.00412249
-0.00397697
-0.00383879
-0.00370926
-0.00356822
-0.00717332
-0.00726811
-0.00643877
-0.0059854
-0.00629854
-0.00678083
-0.00706755
-0.00705898
-0.00567204
-0.0053463
-0.00503977
-0.0047589
-0.00451289
-0.00429782
-0.00411398
-0.00395498
-0.00380822
-0.00367512
-0.00354773
-0.00341451
-0.00720424
-0.00698463
-0.00761857
-0.00649929
-0.00621596
-0.00581366
-0.00607411
-0.00640134
-0.00673331
-0.00682402
-0.00700845
-0.00711024
-0.00548069
-0.00515214
-0.00484873
-0.00457604
-0.0043326
-0.00412383
-0.0039459
-0.00378617
-0.00364741
-0.00351435
-0.00339565
-0.00325826
-0.00725056
-0.00656567
-0.00816204
-0.00663381
-0.00655215
-0.00629758
-0.00599687
-0.00562012
-0.00587144
-0.00616892
-0.00645306
-0.00652754
-0.00670278
-0.00631265
-0.0071239
-0.00717864
-0.00528244
-0.00496302
-0.00466502
-0.00439408
-0.00415851
-0.00395594
-0.00377727
-0.00362709
-0.00348772
-0.00336172
-0.00323957
-0.00311057
-0.00665082
-0.00889268
-0.00666447
-0.00662099
-0.00639449
-0.00632335
-0.00606909
-0.00578673
-0.00542356
-0.0056687
-0.00595315
-0.00619525
-0.00627127
-0.00650856
-0.00656311
-0.00509233
-0.00477331
-0.00448204
-0.00422003
-0.00398914
-0.00378807
-0.00361964
-0.00346905
-0.00333456
-0.00320886
-0.00309204
-0.00296186
-0.0064259
-0.0063641
-0.00615836
-0.00608837
-0.005854
-0.0055856
-0.00523028
-0.00547547
-0.00574829
-0.00598066
-0.00604443
-0.00623934
-0.00629752
-0.0048987
-0.00459401
-0.00430681
-0.00404772
-0.00382315
-0.00363116
-0.00346341
-0.00331754
-0.00318506
-0.00305984
-0.00294461
-0.00281506
-0.00619046
-0.00612282
-0.00593244
-0.00588109
-0.00565074
-0.00538728
-0.00503577
-0.00528312
-0.00555298
-0.00577879
-0.00583718
-0.00601527
-0.00607968
-0.00472067
-0.00441275
-0.00413225
-0.00388403
-0.00366383
-0.00347508
-0.00331336
-0.00316836
-0.00303484
-0.00291495
-0.0027996
-0.00267721
-0.00596513
-0.00591485
-0.00573026
-0.00567816
-0.00545477
-0.00519353
-0.00485356
-0.005091
-0.00535479
-0.00558342
-0.00563694
-0.00581134
-0.00587441
-0.00453355
-0.00423883
-0.00396745
-0.00372119
-0.00350944
-0.00332645
-0.00316573
-0.00302022
-0.00289226
-0.00277114
-0.00265973
-0.00253715
-0.00576665
-0.00571081
-0.00553096
-0.00548761
-0.00526453
-0.00500231
-0.00466462
-0.00490855
-0.0051623
-0.00538331
-0.00544034
-0.00561815
-0.00567112
-0.00436088
-0.00407072
-0.00380369
-0.00356611
-0.00336094
-0.00318176
-0.00302036
-0.00287868
-0.00274918
-0.00262984
-0.00252206
-0.0024004
-0.00556522
-0.00552327
-0.00534264
-0.00528986
-0.00507005
-0.00481494
-0.00449097
-0.00472124
-0.00497677
-0.00519621
-0.00524299
-0.00541888
-0.00547335
-0.00418877
-0.00390624
-0.00364424
-0.00341725
-0.00321734
-0.00303923
-0.00288047
-0.00273728
-0.00260824
-0.00249375
-0.00238487
-0.0022678
-0.00537581
-0.00532191
-0.00514652
-0.0050983
-0.00488482
-0.00463462
-0.0043143
-0.00454502
-0.00479134
-0.00500427
-0.00505736
-0.00523131
-0.0052779
-0.00402221
-0.00374348
-0.00349516
-0.00327457
-0.00308005
-0.00290224
-0.00273943
-0.00259511
-0.00247149
-0.00235706
-0.00225347
-0.00213699
-0.0051783
-0.00513146
-0.00496143
-0.00491336
-0.00469928
-0.00445621
-0.00414706
-0.00437057
-0.00461207
-0.00482565
-0.00486391
-0.00503757
-0.005092
-0.00385863
-0.00359077
-0.00335094
-0.00314005
-0.00294556
-0.00276217
-0.00259828
-0.00245841
-0.0023353
-0.00222671
-0.00212305
-0.00200828
-0.00499186
-0.00495158
-0.00477216
-0.00472848
-0.00452065
-0.00428317
-0.00398145
-0.00420311
-0.00443769
-0.00464232
-0.00468675
-0.00485778
-0.00489234
-0.00370146
-0.00344341
-0.00321645
-0.00300934
-0.00281062
-0.00262227
-0.00245885
-0.00232224
-0.00220697
-0.00209694
-0.00199462
-0.00188149
-0.00480519
-0.00476298
-0.004595
-0.00454888
-0.00434584
-0.00411703
-0.0038224
-0.00403659
-0.00426777
-0.00446839
-0.0045074
-0.0046729
-0.00471689
-0.00354978
-0.00330522
-0.00308982
-0.002883
-0.00267074
-0.00247962
-0.00232212
-0.00219478
-0.00207845
-0.00196998
-0.00186896
-0.00175915
-0.00463147
-0.00458018
-0.00441986
-0.00437314
-0.00418201
-0.00395269
-0.00366708
-0.00387865
-0.00409849
-0.00429452
-0.00433739
-0.00450092
-0.00453335
-0.00340528
-0.00318019
-0.00297371
-0.00274666
-0.00252431
-0.0023391
-0.00219411
-0.00206787
-0.00195275
-0.00184509
-0.00174723
-0.00163622
-0.00445606
-0.00440271
-0.00425254
-0.00420962
-0.00401571
-0.0037959
-0.00351909
-0.00372513
-0.00393951
-0.00412629
-0.00417033
-0.00432615
-0.00436356
-0.00327439
-0.003069
-0.00284773
-0.0025959
-0.00237611
-0.00220926
-0.00207049
-0.00194398
-0.00182847
-0.00172459
-0.00162433
-0.00151653
-0.004288
-0.00423679
-0.00408228
-0.00404513
-0.00385741
-0.00364105
-0.00337734
-0.00358135
-0.00378522
-0.00396892
-0.00400431
-0.00415975
-0.00419995
-0.00315647
-0.00296937
-0.00269523
-0.00243405
-0.00224167
-0.00208829
-0.00194873
-0.00182303
-0.00171072
-0.00160242
-0.00150568
-0.00139394
-0.00411264
-0.00407346
-0.00392435
-0.0038835
-0.00370366
-0.00349424
-0.00324202
-0.00344299
-0.00363698
-0.00381274
-0.00385122
-0.0040014
-0.00403118
-0.00308346
-0.0028257
-0.00250948
-0.0022905
-0.00212402
-0.00197149
-0.0018316
-0.00170649
-0.00159111
-0.0014848
-0.0013851
-0.00127306
-0.00395451
-0.00390993
-0.00376794
-0.0037332
-0.00355925
-0.0033522
-0.00315111
-0.00331256
-0.00349503
-0.00366648
-0.00369533
-0.0038431
-0.00388037
-0.00299271
-0.00260066
-0.00235308
-0.00217688
-0.00201286
-0.00185794
-0.00171734
-0.00159104
-0.00147345
-0.00136649
-0.00126405
-0.00115297
-0.00379754
-0.00376046
-0.00362158
-0.00358753
-0.00342115
-0.00322436
-0.00317024
-0.00319361
-0.0033607
-0.00352392
-0.00355333
-0.00369833
-0.00372007
-0.00271426
-0.00242326
-0.00224501
-0.00207259
-0.00190288
-0.00174685
-0.00160561
-0.00147494
-0.00135832
-0.0012464
-0.00114581
-0.00103085
-0.00365003
-0.00361209
-0.00348253
-0.00345666
-0.00328667
-0.00318693
-0.00284275
-0.00330642
-0.00319805
-0.0033943
-0.00341473
-0.0035527
-0.0035793
-0.00250023
-0.00232742
-0.00214926
-0.00196588
-0.0017948
-0.0016379
-0.00149358
-0.00136327
-0.00124149
-0.00113053
-0.0010258
-0.000907617
-0.00351122
-0.00348175
-0.00335164
-0.00333288
-0.00313823
-0.00300703
-0.00260557
-0.00281025
-0.00352499
-0.00326234
-0.00327287
-0.00341868
-0.00344401
-0.0024175
-0.0022395
-0.0020443
-0.00186078
-0.00169033
-0.00153169
-0.00138508
-0.00125135
-0.00112818
-0.00101191
-0.000902616
-0.000783131
-0.003384
-0.00335727
-0.0031601
-0.0031021
-0.00305235
-0.00277798
-0.00251797
-0.00269751
-0.00285001
-0.00387998
-0.00296004
-0.00329646
-0.00332256
-0.0023378
-0.00213431
-0.0019409
-0.00175973
-0.00158834
-0.00142756
-0.00127978
-0.0011398
-0.00101168
-0.000890193
-0.000780833
-0.000656393
-0.00323965
-0.0031461
-0.00277984
-0.00296249
-0.0028391
-0.00265832
-0.00243454
-0.00258052
-0.00277214
-0.00291876
-0.00295916
-0.00453763
-0.00300261
-0.00223278
-0.0020309
-0.00184231
-0.00166013
-0.00148854
-0.0013268
-0.00117144
-0.00102959
-0.000894354
-0.000771326
-0.000655171
-0.000524182
-0.00291821
-0.00287345
-0.00270947
-0.00254329
-0.00233061
-0.00247344
-0.00264032
-0.00279071
-0.00284208
-0.00212537
-0.00193279
-0.00174406
-0.00156468
-0.00139207
-0.00122515
-0.00106849
-0.000917732
-0.000779147
-0.000647987
-0.000525634
-0.00038973
-0.00276117
-0.00272381
-0.00258704
-0.00243244
-0.00222295
-0.00236935
-0.00252854
-0.0026593
-0.00269497
-0.00202691
-0.00183492
-0.00165096
-0.00147241
-0.00129746
-0.00112884
-0.000963066
-0.000806379
-0.000659497
-0.000521057
-0.000393522
-0.00024997
-0.00263191
-0.00260384
-0.00247564
-0.00232412
-0.00212245
-0.00226481
-0.00242247
-0.00255203
-0.00258225
-0.00192902
-0.00174154
-0.00156006
-0.00138273
-0.00120722
-0.00103065
-0.000858883
-0.000693552
-0.000537454
-0.000391978
-0.000256326
-0.000106198
-0.00252285
-0.00249459
-0.00236852
-0.00222156
-0.00202229
-0.00216435
-0.00231608
-0.00244248
-0.0024714
-0.00183352
-0.00165105
-0.00147523
-0.00129695
-0.00111795
-0.000936151
-0.000754915
-0.000578892
-0.000413187
-0.000258158
-0.000114748
4.55258e-05
-0.00241556
-0.00238903
-0.00226703
-0.0021176
-0.00192575
-0.002065
-0.00221456
-0.00233712
-0.00236661
-0.00174291
-0.00156812
-0.00139159
-0.0012159
-0.00103191
-0.000840758
-0.000649397
-0.000462313
-0.000285329
-0.000119042
3.33446e-05
0.000202659
-0.0023114
-0.00228699
-0.0021625
-0.00201981
-0.00183296
-0.00196883
-0.00211213
-0.00224129
-0.00226163
-0.00165787
-0.00148562
-0.00131703
-0.00113762
-0.000946381
-0.000746603
-0.0005425
-0.00034224
-0.000151522
2.45662e-05
0.000188478
0.000366744
-0.00220845
-0.00218323
-0.00206492
-0.00192396
-0.00174561
-0.00187604
-0.00201542
-0.00213262
-0.00215928
-0.00157541
-0.00141327
-0.00124432
-0.00106158
-0.000862633
-0.000652181
-0.000433638
-0.000219067
-1.42342e-05
0.000176396
0.000350231
0.000537977
-0.00211017
-0.0020838
-0.00196734
-0.00183346
-0.00166019
-0.00178679
-0.00192278
-0.00203613
-0.00206069
-0.00150226
-0.00134576
-0.00117546
-0.000986448
-0.000780527
-0.000556952
-0.000324509
-9.08116e-05
0.000130374
0.000335134
0.000521984
0.000713647
-0.00201123
-0.00198671
-0.00187489
-0.00174521
-0.0015836
-0.00170084
-0.00183166
-0.00194413
-0.00196858
-0.0014364
-0.00128276
-0.0011076
-0.000914831
-0.000700351
-0.00046234
-0.000209696
4.34103e-05
0.000283439
0.000502831
0.000704491
0.000907364
-0.00191765
-0.00189389
-0.00178675
-0.00166253
-0.0015167
-0.00161922
-0.00174467
-0.0018505
-0.00187536
-0.00137845
-0.00121957
-0.00104169
-0.000847936
-0.000621058
-0.000365414
-8.99817e-05
0.000183715
0.000442932
0.000686457
0.000904488
0.0010886
-0.00182789
-0.00180619
-0.00170158
-0.00158378
-0.00145748
-0.00154854
-0.00166016
-0.0017658
-0.00178505
-0.00132029
-0.00115336
-0.0009848
-0.000783122
-0.000542721
-0.000265714
3.24862e-05
0.000332169
0.000623414
0.000874107
0.0011871
0.000448717
-0.00174179
-0.00172217
-0.00161709
-0.00153902
-0.00139976
-0.00160873
-0.00156294
-0.00168486
-0.00170327
-0.00125057
-0.00110126
-0.000931401
-0.000722326
-0.000464535
-0.000162637
0.000163285
0.00049959
0.000789807
0.00120579
0.000540909
-0.00166167
-0.00164313
-0.00150085
-0.00146155
-0.00133341
-0.00142691
-0.00230184
-0.00181206
-0.00160089
-0.00162226
-0.00119686
-0.00105471
-0.000884497
-0.000663072
-0.000383898
-5.6114e-05
0.00030939
0.000643814
0.00111903
0.000571341
-0.00157904
-0.00156268
-0.000802934
-0.00160866
-0.00153107
-0.00140076
-0.00127558
-0.00136812
-0.00149644
-0.00145923
-0.00152835
-0.00115185
-0.00101707
-0.00084123
-0.000605844
-0.000303248
6.43912e-05
0.000432148
0.000946302
0.000513894
-0.00138429
-0.00159175
-0.00155341
-0.00144155
-0.00141536
-0.00133869
-0.00122833
-0.00131268
-0.00140461
-0.00138155
-0.00151938
-0.00148754
-0.00159117
-0.0011179
-0.000984309
-0.000803212
-0.000548712
-0.000212006
0.000163773
0.000691963
0.000397417
-0.00161624
-0.00157928
-0.00145985
-0.00143446
-0.00136927
-0.00135459
-0.00128688
-0.00119269
-0.00126684
-0.00134264
-0.00132828
-0.00142
-0.00140001
-0.00154084
-0.00151062
-0.00108976
-0.000960793
-0.000766553
-0.000487031
-0.000136302
0.000369722
0.000240663
-0.00147482
-0.00145146
-0.00138402
-0.00137304
-0.00131731
-0.00130368
-0.00124489
-0.00116532
-0.00122943
-0.00129472
-0.00128412
-0.00135755
-0.00134454
-0.00143337
-0.00141614
-0.00107376
-0.000939536
-0.000730543
-0.00043228
9.60636e-06
6.19771e-05
-0.0013988
-0.00138791
-0.00133284
-0.00131943
-0.00127144
-0.00126111
-0.00121235
-0.00114909
-0.00120178
-0.00125557
-0.00124408
-0.00131067
-0.00129973
-0.00137205
-0.00135963
-0.00106261
-0.00092434
-0.000692855
-0.000348224
-0.000119099
-0.00134669
-0.0013338
-0.00128679
-0.00127626
-0.00123502
-0.00122932
-0.00118878
-0.00114111
-0.00118491
-0.00122354
-0.00121573
-0.00126868
-0.00125942
-0.00132535
-0.00131229
-0.00106338
-0.000899305
-0.00066458
-0.00028394
-0.00130369
-0.00128983
-0.00124781
-0.00124378
-0.00121063
-0.00120392
-0.00117495
-0.00115018
-0.0011772
-0.001203
-0.00119859
-0.00123448
-0.0012299
-0.00128006
-0.0012725
-0.00105376
-0.000915954
-0.000418702
-0.00126093
-0.00125445
-0.00122261
-0.00121681
-0.00119306
-0.00118968
-0.00117509
-0.00116049
-0.00118629
-0.00119236
-0.00118764
-0.00121298
-0.00121069
-0.00124585
-0.00124263
-0.00110536
-0.000520354
-0.00123302
-0.00122797
-0.00120478
-0.00120195
-0.0011852
-0.00119039
-0.00118554
-0.00126374
-0.00119555
-0.00119145
-0.00119602
-0.0012002
-0.00119724
-0.00122345
-0.00121974
-0.0005935
-0.00121659
-0.00121202
-0.00119579
-0.0011976
-0.00119452
-0.0012024
-0.00123033
-0.000706346
-0.00130502
-0.00120216
-0.00120647
-0.00119938
-0.0012004
-0.00120738
-0.00120604
-0.00120413
-0.00120329
-0.00120206
-0.00120714
-0.00121833
-0.00123646
-0.00134409
-0.000660772
-0.00126942
-0.00129413
-0.0012088
-0.0012127
-0.00120683
-0.00120613
-0.00120761
-0.00120982
-0.0012254
-0.00123943
-0.00132943
-0.00140399
-0.00136516
-0.000562583
-0.0012666
-0.0012905
-0.00121166
-0.00121478
-0.00122421
-0.00123703
-0.00131666
-0.00141832
-0.00152119
-0.000577854
-0.00126117
-0.00128755
-0.00131585
-0.00140952
-0.00165791
-0.00072576
-0.0933752
-0.09322
-0.0923721
-0.0924258
-0.0930523
-0.0928912
-0.0923139
-0.0923254
-0.0926595
-0.0931318
-0.0930948
-0.0932162
-0.0921011
-0.0923926
-0.0921423
-0.0926339
-0.0934531
-0.0935163
-0.0933078
-0.0934706
-0.0918877
-0.0921894
-0.0919245
-0.092521
-0.0921294
-0.0943251
-0.0935902
-0.0939633
-0.0935332
-0.0937517
-0.0916422
-0.0919548
-0.0916895
-0.0926717
-0.0915876
-0.0916942
-0.0945038
-0.0944367
-0.0937312
-0.0937895
-0.0940232
-0.0939885
-0.0914382
-0.0917426
-0.0914759
-0.0928108
-0.0917569
-0.0907121
-0.0912439
-0.091518
-0.0946696
-0.0942548
-0.0938706
-0.0942022
-0.0912288
-0.0912762
-0.0929454
-0.0919054
-0.090872
-0.0898373
-0.0904469
-0.0908174
-0.0910882
-0.0913123
-0.0948195
-0.0940043
-0.091013
-0.0910557
-0.093076
-0.0920408
-0.0910202
-0.0899942
-0.0889573
-0.089509
-0.0899557
-0.0905158
-0.0905507
-0.0906747
-0.0908739
-0.0949581
-0.0941348
-0.0907829
-0.0908279
-0.0932059
-0.0921714
-0.0911565
-0.0901448
-0.089119
-0.0880889
-0.0886304
-0.0890726
-0.0894305
-0.0898176
-0.0898475
-0.0904311
-0.0906296
-0.0950909
-0.0942644
-0.090597
-0.0933371
-0.0923027
-0.091289
-0.090286
-0.0892764
-0.0882518
-0.0872757
-0.0877461
-0.0881831
-0.0885569
-0.0889935
-0.0892718
-0.0894928
-0.0898985
-0.089684
-0.0900525
-0.090401
-0.0952205
-0.0943867
-0.0934617
-0.092437
-0.0914238
-0.0904242
-0.0894262
-0.0884143
-0.0874127
-0.0863366
-0.0869086
-0.0874184
-0.0876392
-0.0880894
-0.0883972
-0.0886184
-0.0890389
-0.0888253
-0.0953415
-0.0944793
-0.0935557
-0.0925651
-0.0915627
-0.0905657
-0.0895741
-0.0885746
-0.0875654
-0.0865179
-0.0854051
-0.0859665
-0.0864456
-0.0868116
-0.0874304
-0.0874363
-0.0876814
-0.088154
-0.0879301
-0.0954339
-0.0944928
-0.0935644
-0.0926601
-0.0916953
-0.0907121
-0.089726
-0.0887354
-0.0877314
-0.0866959
-0.0856049
-0.0844524
-0.0850368
-0.0855258
-0.0858877
-0.0863283
-0.0865755
-0.0867653
-0.0872004
-0.0874411
-0.0954512
-0.0943377
-0.0933922
-0.092663
-0.0917913
-0.0908504
-0.0898822
-0.088901
-0.0879053
-0.0868804
-0.0858082
-0.0846673
-0.0834558
-0.0840699
-0.0845756
-0.0849594
-0.085436
-0.0857196
-0.0859659
-0.0863893
-0.0861545
-0.0865742
-0.0866619
-0.0876395
-0.0953101
-0.0938688
-0.0928837
-0.0924714
-0.0917878
-0.0909474
-0.0900275
-0.0890696
-0.0880866
-0.0870744
-0.086018
-0.0848962
-0.0836919
-0.0824022
-0.0830516
-0.0835791
-0.0839859
-0.0844831
-0.0847809
-0.0850283
-0.0854958
-0.0852523
-0.0856837
-0.0859235
-0.0863484
-0.0861325
-0.0948754
-0.0928788
-0.0918191
-0.0919174
-0.0915729
-0.0909346
-0.0901254
-0.0892235
-0.08827
-0.0872764
-0.0862378
-0.0851361
-0.0839507
-0.082665
-0.0812996
-0.0819709
-0.0825266
-0.0829581
-0.0834797
-0.0837961
-0.0840523
-0.0845387
-0.0842899
-0.0847392
-0.0849796
-0.0854455
-0.0852148
-0.0939515
-0.0911221
-0.0899405
-0.0907683
-0.0909662
-0.0906902
-0.0901012
-0.0893214
-0.0884333
-0.0874768
-0.0864644
-0.0853872
-0.0842254
-0.0829596
-0.0815871
-0.0801737
-0.0808173
-0.0814078
-0.0818661
-0.0824211
-0.082755
-0.0830266
-0.0835382
-0.0832763
-0.0837493
-0.0840013
-0.0844853
-0.0842482
-0.0923043
-0.0883758
-0.0870184
-0.0887553
-0.0897221
-0.0900226
-0.0898221
-0.0892816
-0.0885303
-0.0876502
-0.0866838
-0.0856426
-0.0845121
-0.0832745
-0.0819154
-0.080464
-0.0788943
-0.0796848
-0.0802598
-0.0806862
-0.0812875
-0.0816561
-0.0819371
-0.0824814
-0.0822086
-0.0827044
-0.082972
-0.0834849
-0.0832285
-0.0897212
-0.0845288
-0.0829437
-0.0856428
-0.0875604
-0.0886717
-0.0890818
-0.088959
-0.0884707
-0.0877448
-0.0868676
-0.0858828
-0.0847996
-0.0836016
-0.0822724
-0.0808132
-0.0792348
-0.0774942
-0.0783062
-0.0790281
-0.0796242
-0.0801467
-0.0804559
-0.0807621
-0.081358
-0.0810703
-0.0816005
-0.0818808
-0.0824241
-0.0821563
-0.0860914
-0.0796478
-0.0777945
-0.0813266
-0.0842422
-0.0863456
-0.0876065
-0.0881341
-0.0880967
-0.08766
-0.0869571
-0.0860768
-0.0850624
-0.0839238
-0.0826426
-0.0812082
-0.0796259
-0.0778938
-0.0759941
-0.0768773
-0.0776246
-0.0781454
-0.0788538
-0.0792377
-0.0798154
-0.0801589
-0.0798707
-0.0803817
-0.0807062
-0.0813007
-0.0810148
-0.0814707
-0.0739787
-0.0718374
-0.0759015
-0.0796719
-0.0828046
-0.0850974
-0.08652
-0.0871738
-0.087224
-0.0868398
-0.0861573
-0.0852657
-0.0842103
-0.0830004
-0.0816209
-0.0800637
-0.0783393
-0.0764399
-0.0744651
-0.0753268
-0.0761285
-0.0767126
-0.0774517
-0.0778689
-0.078235
-0.0789017
-0.0785357
-0.0789791
-0.079994
-0.0800323
-0.0795642
-0.0760876
-0.0678701
-0.0654436
-0.0696557
-0.0739628
-0.0779667
-0.0813179
-0.0838099
-0.0854009
-0.0861872
-0.0863298
-0.085999
-0.0853323
-0.0844214
-0.0833111
-0.0820142
-0.08052
-0.0788251
-0.0769444
-0.0748916
-0.0726494
-0.0739047
-0.0745857
-0.0751285
-0.0759408
-0.0764179
-0.0768062
-0.0775307
-0.0771575
-0.0778064
-0.0781543
-0.0787628
-0.0784668
-0.0789078
-0.080257
-0.0702688
-0.0616985
-0.0590144
-0.0629835
-0.0674279
-0.0719678
-0.076201
-0.0797725
-0.082468
-0.0842361
-0.0851619
-0.0854008
-0.0851229
-0.0844677
-0.0835273
-0.0823486
-0.080948
-0.0793257
-0.0774823
-0.0754384
-0.0732201
-0.0719857
-0.0708402
-0.072806
-0.0743004
-0.0748382
-0.0752418
-0.0760321
-0.0756309
-0.0763432
-0.076725
-0.0774548
-0.0770902
-0.0777403
-0.0780822
-0.0787155
-0.0784161
-0.0643667
-0.0558322
-0.052942
-0.0563124
-0.060486
-0.0651469
-0.0699082
-0.0743634
-0.0781553
-0.0810602
-0.0830119
-0.0840813
-0.0844202
-0.084196
-0.0835462
-0.0825662
-0.081306
-0.0797881
-0.0780263
-0.0760272
-0.0738184
-0.0714464
-0.0702944
-0.0713996
-0.0722726
-0.0689406
-0.0729691
-0.0745078
-0.0743298
-0.074735
-0.0751576
-0.0759545
-0.0755565
-0.0762664
-0.0766384
-0.0773733
-0.0770212
-0.0587253
-0.0506162
-0.0475895
-0.0500568
-0.0535918
-0.057949
-0.0628073
-0.0677744
-0.0724449
-0.0764561
-0.0795723
-0.0817095
-0.0829292
-0.0833729
-0.0831993
-0.0825492
-0.0815203
-0.0801676
-0.0785225
-0.0766118
-0.0744541
-0.0720927
-0.0695791
-0.0683823
-0.0695818
-0.0704938
-0.0710641
-0.0715055
-0.071958
-0.0723887
-0.0669826
-0.0728251
-0.0732262
-0.0731913
-0.074238
-0.0746569
-0.0750746
-0.0758684
-0.0754831
-0.0536693
-0.0463464
-0.043258
-0.0445971
-0.0471798
-0.050853
-0.05537
-0.0604032
-0.0655603
-0.0704361
-0.0746608
-0.0779859
-0.0803143
-0.0816899
-0.0822364
-0.0821131
-0.0814578
-0.0803714
-0.0789186
-0.0771399
-0.0750764
-0.0727675
-0.0702608
-0.0676277
-0.0664154
-0.0676211
-0.0685869
-0.0691979
-0.0696833
-0.0701371
-0.0705626
-0.0650161
-0.073542
-0.0741809
-0.0494879
-0.0432018
-0.0401112
-0.0402341
-0.0416448
-0.044315
-0.0480991
-0.052747
-0.0579309
-0.0632598
-0.0683259
-0.0727553
-0.0762881
-0.0788087
-0.080338
-0.0809923
-0.0809174
-0.080252
-0.0791041
-0.0775466
-0.0756329
-0.0734198
-0.0709651
-0.0683268
-0.0656029
-0.0645714
-0.0655769
-0.0665427
-0.0672368
-0.0677271
-0.0682117
-0.0686548
-0.062806
-0.046369
-0.041183
-0.0381257
-0.0371148
-0.037284
-0.0387403
-0.0414703
-0.0453328
-0.050081
-0.0553894
-0.0608667
-0.0661062
-0.0707283
-0.074463
-0.077172
-0.0788584
-0.0796186
-0.0795912
-0.0789151
-0.077703
-0.0760414
-0.0739989
-0.0716439
-0.0690507
-0.0662962
-0.0634565
-0.062168
-0.0635222
-0.0648612
-0.0650652
-0.0656238
-0.0661712
-0.066653
-0.0605226
-0.0443382
-0.0401186
-0.0371055
-0.0351868
-0.0342206
-0.034416
-0.035894
-0.0386514
-0.0425586
-0.047375
-0.0527778
-0.0583779
-0.0637693
-0.0685704
-0.0724949
-0.0753889
-0.0772288
-0.0780959
-0.078118
-0.0774315
-0.0761587
-0.0743996
-0.0722371
-0.0697518
-0.0670321
-0.0641696
-0.061226
-0.0598402
-0.0611934
-0.0623101
-0.0629186
-0.0634558
-0.0646775
-0.0644761
-0.0581728
-0.0432499
-0.0397379
-0.0367627
-0.0342262
-0.0323701
-0.031437
-0.0316405
-0.0331132
-0.0358668
-0.039784
-0.0446339
-0.0500981
-0.0557918
-0.0613109
-0.0662693
-0.0703726
-0.0734412
-0.0754333
-0.076407
-0.076479
-0.0757886
-0.0744631
-0.0726174
-0.0703487
-0.0677509
-0.0649235
-0.0619722
-0.058927
-0.0574538
-0.058867
-0.0600414
-0.0607444
-0.0613158
-0.0618429
-0.0623896
-0.0628492
-0.0632628
-0.0649959
-0.055745
-0.0428478
-0.0397626
-0.0368129
-0.0339289
-0.0314807
-0.0296819
-0.028771
-0.0289653
-0.030408
-0.0331257
-0.0370181
-0.0418646
-0.0473548
-0.0531087
-0.0587267
-0.0638207
-0.0680825
-0.0713179
-0.0734566
-0.0745366
-0.0746658
-0.0739787
-0.0726144
-0.070698
-0.0683419
-0.065654
-0.0627503
-0.0597171
-0.056566
-0.0549671
-0.0564323
-0.0576593
-0.058382
-0.0589818
-0.0595662
-0.0601459
-0.0606262
-0.0612069
-0.0617249
-0.0622548
-0.0532263
-0.0428597
-0.03997
-0.0370334
-0.0340048
-0.0312323
-0.0288718
-0.0271274
-0.0262301
-0.0264
-0.0277886
-0.0304403
-0.0342718
-0.0390763
-0.0445541
-0.0503328
-0.0560173
-0.0612191
-0.0656213
-0.0690071
-0.0712853
-0.0724758
-0.0726689
-0.072001
-0.0706149
-0.0686485
-0.0662289
-0.0634833
-0.0605229
-0.0574136
-0.0541389
-0.0523631
-0.0538812
-0.0551671
-0.0559207
-0.0565478
-0.0571552
-0.0577603
-0.0582479
-0.0588584
-0.059422
-0.0599937
-0.0505961
-0.0430603
-0.0402169
-0.0372853
-0.0342346
-0.0313335
-0.0286754
-0.0264044
-0.0247117
-0.0238222
-0.0239528
-0.0252657
-0.0278223
-0.0315573
-0.0362806
-0.0417053
-0.0474701
-0.0531861
-0.0584655
-0.0629826
-0.0665045
-0.0689183
-0.0702185
-0.0704889
-0.0698573
-0.0684712
-0.0664797
-0.0640283
-0.061251
-0.058249
-0.0550579
-0.0516272
-0.0496178
-0.0511942
-0.0525577
-0.0533421
-0.0540025
-0.0546382
-0.0552672
-0.0557781
-0.0564195
-0.0570022
-0.0576036
-0.0478265
-0.0432999
-0.0411533
-0.0396553
-0.0381813
-0.034486
-0.036747
-0.0315708
-0.0288016
-0.0262607
-0.02408
-0.0224385
-0.0215499
-0.0216304
-0.0228502
-0.0252855
-0.0288884
-0.0334904
-0.0388209
-0.0445307
-0.0502395
-0.0555621
-0.0601677
-0.0638091
-0.0663507
-0.0677694
-0.06813
-0.0675552
-0.0661941
-0.064209
-0.0617561
-0.0589659
-0.0559264
-0.0526318
-0.0490012
-0.0466961
-0.0483412
-0.0497972
-0.050623
-0.0513227
-0.051994
-0.0526603
-0.0531975
-0.0538593
-0.0544825
-0.0550995
-0.0448696
-0.0442562
-0.0426984
-0.0415866
-0.040841
-0.0401351
-0.0393772
-0.0385935
-0.0378798
-0.0353396
-0.0318195
-0.0339716
-0.0372036
-0.0364789
-0.0290447
-0.0264099
-0.0239887
-0.0218998
-0.0203085
-0.019419
-0.0194426
-0.0205534
-0.0228403
-0.0262794
-0.0307214
-0.0359151
-0.0415268
-0.0471886
-0.0525199
-0.0571864
-0.0609281
-0.0635937
-0.0651345
-0.0656012
-0.0651054
-0.0638001
-0.0618533
-0.0594206
-0.0566305
-0.053539
-0.0501002
-0.0462154
-0.0435454
-0.0452801
-0.0468539
-0.0477215
-0.0484834
-0.0491877
-0.0499057
-0.0504605
-0.0511723
-0.0518236
-0.052479
-0.0416698
-0.0439335
-0.0431986
-0.0424094
-0.0415868
-0.0408631
-0.0401995
-0.0394584
-0.0385929
-0.0379
-0.0357315
-0.0350505
-0.0326307
-0.0292887
-0.0313303
-0.034405
-0.0337142
-0.0372642
-0.0365549
-0.0266568
-0.0241589
-0.021859
-0.0198632
-0.0183245
-0.0174328
-0.0173928
-0.0183815
-0.0205009
-0.0237454
-0.0279894
-0.0330036
-0.0384747
-0.0440467
-0.04935
-0.0540496
-0.0578755
-0.0606586
-0.0623276
-0.0629155
-0.0625231
-0.0613031
-0.0594197
-0.0570272
-0.054229
-0.0510522
-0.0474227
-0.0431986
-0.0401373
-0.041941
-0.0436694
-0.0446011
-0.0454262
-0.0461832
-0.0469634
-0.0475453
-0.0483129
-0.049004
-0.0497112
-0.0381839
-0.0439585
-0.0432688
-0.0424972
-0.0357312
-0.0350694
-0.0330026
-0.0323544
-0.0300568
-0.0268947
-0.0288248
-0.0317401
-0.031084
-0.0344619
-0.0337852
-0.0244074
-0.0220474
-0.0198696
-0.0179698
-0.0164842
-0.0155913
-0.0154857
-0.016344
-0.018278
-0.0213012
-0.0253127
-0.0301067
-0.035393
-0.0408347
-0.0460737
-0.0507786
-0.0546711
-0.0575639
-0.059365
-0.0600886
-0.0598255
-0.0587149
-0.0569163
-0.0545648
-0.051736
-0.0484333
-0.0445413
-0.0398818
-0.0365244
-0.0382184
-0.0401529
-0.0411863
-0.0420958
-0.0429215
-0.0437778
-0.0444052
-0.0452249
-0.0459821
-0.0467377
-0.0343875
-0.0330024
-0.0323718
-0.0304084
-0.0297934
-0.0276193
-0.0246378
-0.0264559
-0.0292105
-0.0285895
-0.0317931
-0.0311496
-0.0222953
-0.0200732
-0.0180192
-0.0162155
-0.0147868
-0.0138943
-0.0137237
-0.0144466
-0.0161823
-0.0189614
-0.0227075
-0.0272419
-0.0323024
-0.0375752
-0.0427165
-0.0473996
-0.0513388
-0.0543321
-0.0562673
-0.0571417
-0.0570239
-0.0560431
-0.0543362
-0.0520118
-0.0491239
-0.0456264
-0.0413949
-0.0362606
-0.0325094
-0.0344192
-0.0362751
-0.0373521
-0.038386
-0.039324
-0.0402762
-0.04095
-0.0418634
-0.042687
-0.0435149
-0.0302682
-0.0304082
-0.029809
-0.0279506
-0.0273688
-0.0253185
-0.0225172
-0.0242237
-0.0268171
-0.0262314
-0.0292592
-0.0286496
-0.0203186
-0.0182342
-0.016303
-0.0145979
-0.0132276
-0.0123407
-0.012107
-0.0126926
-0.0142212
-0.0167365
-0.0201899
-0.0244303
-0.0292292
-0.0342973
-0.0393084
-0.0439415
-0.047907
-0.0509891
-0.053059
-0.0540886
-0.0541317
-0.0532854
-0.0516614
-0.0493435
-0.0463376
-0.0425852
-0.0379531
-0.0323326
-0.0281389
-0.030029
-0.0322789
-0.0335549
-0.0342383
-0.035207
-0.0362723
-0.0370645
-0.0381161
-0.0390504
-0.0399797
-0.0257615
-0.0279505
-0.0273828
-0.0256294
-0.0250808
-0.023154
-0.0205308
-0.0221268
-0.0245605
-0.0240099
-0.0268615
-0.0262859
-0.0184747
-0.016526
-0.0147174
-0.0131109
-0.0118034
-0.0109252
-0.0106331
-0.0110839
-0.0123985
-0.0146376
-0.0177742
-0.0216948
-0.0262008
-0.0310324
-0.035883
-0.0404386
-0.0444076
-0.0475651
-0.0497617
-0.0509506
-0.0511498
-0.0504304
-0.0488735
-0.0465144
-0.0433433
-0.0392719
-0.0341979
-0.0280539
-0.0234525
-0.025496
-0.0278428
-0.0289181
-0.030069
-0.0310502
-0.0322599
-0.0337458
-0.0334117
-0.0347019
-0.0358933
-0.0209143
-0.025629
-0.0250931
-0.0234445
-0.0229289
-0.0211241
-0.0186764
-0.0201636
-0.0224397
-0.0219238
-0.0246006
-0.024059
-0.0167601
-0.0149448
-0.0132568
-0.0117499
-0.0105069
-0.00964336
-0.00929863
-0.00961632
-0.0107179
-0.0126714
-0.0154775
-0.0190573
-0.0232462
-0.0278155
-0.0324768
-0.0369272
-0.0408767
-0.0440898
-0.0464017
-0.0477331
-0.0480779
-0.0474676
-0.0459351
-0.0434959
-0.0400969
-0.0356563
-0.0301125
-0.0234268
-0.0184789
-0.0206376
-0.0231476
-0.0243027
-0.0255455
-0.0266544
-0.0278402
-0.0285692
-0.0296684
-0.0306012
-0.0315031
-0.0341293
-0.0158763
-0.0234437
-0.0229393
-0.0213944
-0.0209113
-0.0192268
-0.0169506
-0.0183315
-0.020453
-0.0199712
-0.0224756
-0.0219677
-0.0151708
-0.013485
-0.0119158
-0.0105082
-0.00933229
-0.0084871
-0.00809564
-0.00828704
-0.00917604
-0.0108422
-0.0133128
-0.0165403
-0.0203967
-0.0246809
-0.0291277
-0.0334474
-0.0373509
-0.0405955
-0.0429967
-0.0444509
-0.0449129
-0.0443708
-0.0428267
-0.0402441
-0.0365673
-0.0317343
-0.0256941
-0.0185746
-0.0133329
-0.0155199
-0.018134
-0.019328
-0.0206472
-0.0218502
-0.0231128
-0.0238976
-0.0251273
-0.0262606
-0.027413
-0.02816
-0.0292643
-0.0302843
-0.0311136
-0.010828
-0.0213931
-0.0209199
-0.0194772
-0.0190261
-0.0174591
-0.0153494
-0.0166272
-0.0185981
-0.0181497
-0.0204848
-0.0200101
-0.0137016
-0.0121414
-0.0106886
-0.00937868
-0.0082704
-0.00744816
-0.00701547
-0.00708598
-0.00776899
-0.00915571
-0.0112925
-0.0141654
-0.0176806
-0.021664
-0.0258768
-0.0300395
-0.0338684
-0.0371121
-0.0395709
-0.0411096
-0.0416462
-0.0411294
-0.0395117
-0.0367439
-0.0327582
-0.0275046
-0.0210441
-0.0136582
-0.00821609
-0.0102938
-0.0129236