/*--------------------------------*- C++ -*----------------------------------*\
| =========                 |                                                 |
| \\      /  F ield         | OpenFOAM: The Open Source CFD Toolbox           |
|  \\    /   O peration     | Version:  v1912                                 |
|   \\  /    A nd           | Website:  www.openfoam.com                      |
|    \\/     M anipulation  |                                                 |
\*---------------------------------------------------------------------------*/
FoamFile
{
    version     2.0;
    format      ascii;
    class       surfaceScalarField;
    location    "240";
    object      phi;
}
// * * * * * * * * * * * * * * * * * * * * * * * * * * * * * * * * * * * * * //

dimensions      [0 3 -1 0 0 0 0];
oriented        oriented;


internalField   nonuniform List<scalar> 
7354
(
-3.56467e-06
0.00134756
-1.3288e-05
0.0041324
-2.81536e-06
0.00135038
-3.3961e-05
0.00694937
-1.35851e-05
0.00414317
-3.86265e-06
0.00135424
-6.15108e-05
0.00968606
-3.36867e-05
0.00696947
-1.42929e-05
0.0041536
-2.82265e-06
0.00135706
-9.49987e-05
0.012163
-6.05649e-05
0.00971294
-3.21863e-05
0.00698736
-1.16529e-05
0.00416243
-2.86431e-06
0.00135993
-0.000143498
0.0141783
-9.49171e-05
0.0121974
-5.61351e-05
0.00973688
-3.05653e-05
0.00700627
-1.16146e-05
0.00417118
-2.84693e-06
0.00136277
-0.000184817
0.0155087
-0.000137035
0.0142205
-9.20601e-05
0.0122333
-5.57869e-05
0.0097621
-2.61368e-05
0.00702079
-1.14555e-05
0.00417979
-1.84333e-06
0.00136462
-0.000236519
0.016004
-0.000186098
0.0155577
-0.000133092
0.0142615
-8.6408e-05
0.0122639
-4.60742e-05
0.00978204
-2.29654e-05
0.0070323
-9.45792e-06
0.0041874
-1.78251e-06
0.0013664
-0.000276462
0.015565
-0.000230347
0.0160483
-0.000177521
0.0156022
-0.000120945
0.014296
-7.16707e-05
0.0122895
-4.18286e-05
0.0098009
-1.99559e-05
0.0070428
-7.38491e-06
0.004193
-1.67448e-06
0.00136807
-0.000314063
0.0142452
-0.00027909
0.0156137
-0.000218917
0.0160897
-0.000151026
0.0156322
-0.000100004
0.0143244
-6.44025e-05
0.0123121
-3.75241e-05
0.00981847
-1.84256e-05
0.00705384
-6.49245e-06
0.00419782
-1.72706e-06
0.00136979
-0.000339312
0.0121618
-0.000320994
0.0142871
-0.000258855
0.0156536
-0.000186458
0.0161251
-0.000130393
0.0156626
-8.31506e-05
0.0143431
-5.26595e-05
0.0123272
-2.80276e-05
0.00982808
-1.54347e-05
0.00706278
-6.98646e-06
0.00420308
-1.74832e-06
0.00137154
-0.000343248
0.00952509
-0.000351842
0.0121927
-0.00027715
0.0143054
-0.000206346
0.0156735
-0.000148568
0.0161433
-0.000104625
0.0156841
-6.96931e-05
0.0143601
-4.29467e-05
0.0123422
-2.75198e-05
0.00984016
-1.20509e-05
0.00706784
-4.37643e-06
0.0042057
-1.35573e-06
0.00137289
-0.000114211
0.00654748
-0.000193712
-0.00037244
0.00954569
-0.000286747
0.0122023
-0.000211648
0.0143107
-0.000159521
0.0156845
-0.000113087
0.0161517
-7.92794e-05
0.0156937
-5.16036e-05
0.0143688
-3.59299e-05
0.0123506
-1.83107e-05
0.00984642
-1.20886e-05
0.00707555
-6.09138e-06
0.00421044
-7.32632e-07
0.00137362
0.00215264
-8.41389e-05
-0.000200815
0.00655301
-0.000177156
0.00211095
-0.000152022
-0.000259648
0.00951859
-0.000190828
0.0121814
-0.00015101
0.0143022
-0.00011041
0.0156818
-8.75706e-05
0.01616
-6.52611e-05
0.0157073
-4.56177e-05
0.0143785
-3.09833e-05
0.0123632
-2.28819e-05
0.00985721
-1.15853e-05
0.00708105
-4.85553e-06
0.00421456
-1.4598e-06
0.00137508
0.00137948
-2.49747e-05
0.00209331
-0.000183168
-0.000130132
0.00648319
-5.9691e-05
0.00206954
-0.000153394
0.00132141
-6.22259e-05
-3.17342e-05
-0.000141142
0.0094689
-0.000119259
0.0121497
-9.5396e-05
0.0142872
-7.94301e-05
0.0156737
-6.27304e-05
0.0161575
-4.61979e-05
0.0157079
-3.97449e-05
0.0143873
-2.58058e-05
0.0123662
-1.73329e-05
0.00986296
-1.24256e-05
0.00708861
-5.62106e-06
0.00421872
-2.22723e-06
0.00137731
0.000431547
-9.70672e-06
0.00130422
-8.34126e-05
-8.25627e-05
0.00202125
-8.1834e-05
-4.57507e-05
0.00639862
-1.08183e-05
0.00199789
-3.63348e-05
0.00125973
-3.89267e-05
-6.99775e-05
-0.00041773
0.000390751
-3.52472e-05
-1.79169e-05
-6.78868e-05
0.00941753
-6.52105e-05
0.0121195
-6.2234e-05
0.01427
-5.1082e-05
0.015662
-4.36829e-05
0.016155
-3.80175e-05
0.0157062
-3.20982e-05
0.0143935
-2.51996e-05
0.012374
-2.1761e-05
0.00987229
-1.3501e-05
0.00709649
-7.66193e-06
0.00422415
-1.20097e-06
0.0013785
0.000252825
-1.55774e-06
0.000365289
-5.79507e-05
0.000344006
-6.12796e-05
0.00120688
-2.19481e-05
-7.0332e-06
0.00196934
-1.72014e-05
-1.65318e-05
0.00634775
-4.86113e-07
0.00196472
-6.19911e-06
0.00117655
-7.98536e-07
-5.20544e-06
-0.000320994
0.000302044
-1.99762e-05
-4.69651e-05
-0.000238874
0.000213391
-9.76412e-06
-3.96594e-06
-3.51049e-05
0.00938742
-3.87527e-05
0.012096
-3.7312e-05
0.0142562
-3.82822e-05
0.0156566
-3.22888e-05
0.0161492
-3.37627e-05
0.0157079
-2.65181e-05
0.0143949
-2.87619e-05
0.012381
-2.10933e-05
0.00987988
-1.54921e-05
0.00710432
-7.41363e-06
0.00423036
-2.87732e-06
0.00138138
7.47262e-05
0.000176122
-2.06819e-05
0.000155157
-4.03142e-05
0.000286783
-6.68759e-06
0.000281863
-2.1135e-06
0.00116081
-1.79345e-06
3.28116e-07
0.00195166
-3.46878e-06
-6.89481e-06
0.00631553
4.00319e-06
0.00195222
-1.04571e-06
0.00115461
1.04951e-06
-1.04827e-06
-0.000277159
0.000276763
-4.02928e-07
-5.01051e-07
-0.000108192
8.8216e-05
-7.07603e-05
6.09961e-05
-1.47236e-05
0.00936339
-2.37219e-05
0.0120824
-2.50073e-05
0.0142429
-2.27239e-05
0.0156471
-2.94714e-05
0.0161449
-2.60475e-05
0.0157074
-3.70324e-05
0.0144031
-3.37189e-05
0.0123937
-2.71629e-05
0.00989155
-1.85436e-05
0.00711545
-1.03215e-05
0.0042378
-1.95602e-06
0.00138333
4.03142e-05
8.15284e-05
7.94149e-05
0.000275012
-4.18621e-08
0.000275473
-1.33677e-07
0.00115117
-5.03744e-07
4.78589e-07
0.00194604
-7.18629e-07
-4.24403e-06
0.0063014
3.65154e-06
0.00194917
8.75911e-07
0.00114984
2.59795e-07
2.24494e-08
-0.00027428
0.000275125
2.03948e-07
1.45591e-07
-7.89138e-05
7.85109e-05
-6.30536e-06
0.00934598
-6.94293e-06
0.0120644
-1.27467e-05
0.0142329
-2.02756e-05
0.0156379
-2.55533e-05
0.0161445
-3.7099e-05
0.0157075
-3.42354e-05
0.0144036
-3.6775e-05
0.0124033
-3.08528e-05
0.00990386
-2.02312e-05
0.00712536
-1.07379e-05
0.00424658
-2.66345e-06
0.00138599
7.8469e-05
7.83354e-05
0.000274848
-2.26217e-07
0.000275137
1.88938e-07
0.00114881
-9.14123e-08
3.99814e-07
0.00194501
-8.64051e-08
-9.36985e-07
0.00629416
1.87658e-06
0.00194807
5.92537e-07
0.00114958
-1.5957e-07
2.69857e-07
-0.000275023
0.000275217
6.62486e-08
1.36277e-07
-7.8481e-05
7.86849e-05
-2.77698e-07
0.00933931
-6.57026e-06
0.0120582
-1.10263e-05
0.0142237
-1.49612e-05
0.0156273
-2.78626e-05
0.0161352
-4.11408e-05
0.0157144
-5.07366e-05
0.0144176
-4.37519e-05
0.0124162
-3.65525e-05
0.00992018
-2.56552e-05
0.00714027
-1.12028e-05
0.00425511
-3.43124e-06
0.00138942
7.84587e-05
7.86476e-05
0.000275116
1.00242e-08
0.000275438
7.76764e-08
0.00114895
2.09239e-07
3.30679e-07
0.00194728
-1.50468e-07
5.9273e-07
0.00629132
1.96716e-06
0.0019478
1.36105e-06
0.00114956
1.41212e-07
-1.50051e-07
-0.000275752
0.000275557
3.51599e-08
-4.401e-08
-7.87839e-05
7.88501e-05
-4.34463e-07
0.00933317
2.79905e-07
0.0120469
-6.36898e-06
0.0142151
-2.54956e-05
0.0156249
-3.8863e-05
0.0161329
-4.98337e-05
0.0157135
-5.84892e-05
0.0144323
-5.76419e-05
0.0124372
-4.65392e-05
0.00994106
-2.71479e-05
0.00715622
-1.12656e-05
0.00426295
-2.36948e-06
0.00139179
7.88602e-05
7.89379e-05
0.000275816
-4.9115e-08
0.000276024
1.22395e-07
0.00114869
3.29661e-07
3.89715e-07
0.00194816
2.3357e-07
4.58355e-07
0.00628853
1.89691e-06
0.00194868
1.44112e-06
0.00115011
2.53482e-07
-3.20539e-07
-0.000275715
0.000275898
-4.19059e-08
1.58958e-07
-7.88939e-05
7.89291e-05
5.43419e-06
0.00932802
5.67472e-07
0.01204
-1.02062e-05
0.0141998
-2.47232e-05
0.0156108
-4.94748e-05
0.0161326
-6.67176e-05
0.0157217
-7.21354e-05
0.0144468
-6.77801e-05
0.0124585
-4.95284e-05
0.00996344
-2.96074e-05
0.00717456
-1.42864e-05
0.00427486
-3.0837e-06
0.00139487
7.88799e-05
7.90023e-05
0.000276215
1.29506e-08
0.000276744
-1.39095e-07
0.00115039
-3.12552e-07
2.70709e-07
0.00194823
9.07388e-07
1.99878e-06
0.00628948
2.48015e-06
0.00194984
2.89386e-07
0.0011513
1.97351e-07
3.27712e-07
-0.000276281
0.000276493
4.06977e-08
1.426e-07
-7.91613e-05
7.91194e-05
2.22056e-06
0.00932637
-2.73558e-06
0.0120325
-1.94329e-05
0.0141945
-4.26536e-05
0.0156039
-6.94647e-05
0.0161353
-9.08846e-05
0.0157404
-9.59165e-05
0.014475
-7.90328e-05
0.012488
-5.43783e-05
0.00998821
-3.00813e-05
0.00719035
-1.22405e-05
0.00428402
-3.40256e-06
0.00139827
7.91323e-05
7.89933e-05
0.000276251
-7.05201e-08
0.000276423
9.88577e-08
0.00115205
-1.58616e-07
3.2313e-07
0.00195055
1.2883e-06
1.97979e-06
0.00628934
3.822e-07
0.00195188
1.14921e-06
0.0011519
2.61417e-07
1.78941e-07
-0.000276591
0.000277032
-2.44026e-07
1.59581e-07
-7.91359e-05
7.91766e-05
2.1074e-06
0.00932152
-5.93437e-06
0.012019
-2.29928e-05
0.0141749
-5.85344e-05
0.015593
-9.04521e-05
0.0161349
-0.000110836
0.0157553
-0.000106401
0.0145023
-8.60264e-05
0.0125196
-5.92914e-05
0.0100174
-3.27872e-05
0.0072109
-1.35605e-05
0.00429417
-2.86381e-06
0.00140113
7.9106e-05
7.92048e-05
0.000276873
2.895e-10
0.000277052
1.44606e-07
0.00115313
-2.76996e-07
3.29708e-07
0.00195365
2.08394e-07
1.94688e-06
0.00628753
1.97167e-06
0.00195268
1.35332e-06
0.00115429
-2.83413e-07
2.74618e-07
-0.000277137
0.000277368
3.0051e-08
9.35135e-08
-7.93644e-05
7.91203e-05
-1.94896e-07
0.00931578
-1.33108e-05
0.0120093
-4.53796e-05
0.0141617
-8.75583e-05
0.0155901
-0.000127903
0.016152
-0.000137822
0.0157868
-0.000128779
0.0145451
-9.52236e-05
0.0125556
-5.89438e-05
0.0100436
-3.19475e-05
0.00722928
-1.14523e-05
0.00430276
-1.94524e-06
0.00140308
7.91206e-05
7.92652e-05
0.000277083
7.54308e-09
0.000277305
1.08179e-07
0.00115382
3.23848e-07
3.53644e-07
0.00195376
8.6553e-07
1.87051e-06
0.00628497
4.93483e-07
0.00195533
4.02935e-07
0.00115519
-1.74343e-07
1.60071e-07
-0.000277476
0.000277455
-2.63321e-07
1.03474e-07
-7.93587e-05
7.93888e-05
-2.42443e-06
0.00930489
-2.39112e-05
0.0119878
-6.97271e-05
0.0141439
-0.000126053
0.0155883
-0.00016259
0.0161767
-0.000170002
0.015828
-0.000135559
0.0145854
-9.82087e-05
0.0125948
-6.06854e-05
0.0100723
-2.84944e-05
0.00724632
-1.09877e-05
0.0043118
-1.79541e-06
0.00140487
7.93962e-05
7.95044e-05
0.000277752
2.73901e-08
0.000277931
1.75005e-07
0.00115553
3.44034e-07
1.74198e-07
0.00195605
1.14878e-06
1.95003e-06
0.00628002
5.68787e-07
0.00195616
3.88254e-07
0.00115598
1.62598e-07
-2.05309e-07
-0.00027803
0.000277823
3.24491e-08
6.05388e-08
-7.96079e-05
7.93445e-05
-8.49425e-06
0.00928948
-4.51322e-05
0.0119632
-0.00010928
0.0141271
-0.000170246
0.0155959
-0.000204883
0.0162116
-0.000182635
0.0158751
-0.000142499
0.0146297
-9.58597e-05
0.01263
-5.14701e-05
0.0100953
-2.41124e-05
0.00725945
-8.77377e-06
0.00431878
-1.44605e-06
0.00140631
7.93719e-05
7.95469e-05
0.000278104
6.32165e-08
0.000278221
5.70492e-08
0.00115649
3.33361e-07
3.06134e-07
0.00195712
9.9044e-07
1.93456e-06
0.00627039
-7.92648e-07
0.00195729
3.91674e-07
0.00115695
2.66656e-07
-3.36497e-07
-0.000277929
0.000278333
-2.41208e-07
8.64367e-08
-7.96074e-05
7.96398e-05
-1.77372e-05
0.00926208
-7.65886e-05
0.0119305
-0.000161394
0.0141182
-0.000228427
0.0156195
-0.000230055
0.016259
-0.00019642
0.015929
-0.000142059
0.0146759
-8.59906e-05
0.0126645
-4.67623e-05
0.0101179
-2.0668e-05
0.00727134
-5.82619e-06
0.00432315
-3.91528e-07
0.0014067
7.9703e-05
7.976e-05
0.000278608
5.85185e-08
0.000278801
1.1278e-07
0.00115787
3.47575e-07
-2.76944e-07
0.00195796
1.27118e-06
2.03436e-06
0.00625312
-2.50231e-06
0.00195705
1.10792e-07
0.00115777
1.56244e-07
3.35093e-07
-0.00027838
0.000278671
-2.48003e-08
8.50294e-08
-7.98465e-05
7.96052e-05
-3.84175e-05
0.00922391
-0.000130308
0.0118995
-0.000234373
0.0141242
-0.000275252
0.0156646
-0.000248517
0.0163111
-0.000187685
0.0159746
-0.000126199
0.0147161
-7.31802e-05
0.0126909
-3.8786e-05
0.0101361
-1.70815e-05
0.00728259
-3.46718e-06
0.00432622
-2.34846e-07
0.00140693
7.96638e-05
7.97766e-05
0.000278949
6.96227e-08
0.000278552
1.20162e-07
0.00115886
3.08169e-07
-1.27216e-07
0.00195876
3.28221e-07
2.0419e-06
0.00622101
-8.35661e-06
0.00195606
1.9594e-07
0.00115898
-1.45596e-07
1.32267e-07
-0.000279031
0.000279117
6.963e-08
-1.44053e-07
-7.98616e-05
7.98368e-05
-7.69252e-05
0.00917053
-0.00020487
0.01187
-0.000298911
0.0141478
-0.000295945
0.0157121
-0.000234303
0.0163577
-0.000168867
0.0160173
-0.000107291
0.0147502
-6.33158e-05
0.0127155
-3.24795e-05
0.0101514
-9.92453e-06
0.00728904
-2.66182e-06
0.00432865
7.73234e-07
0.00140615
7.99064e-05
8.00265e-05
0.000279416
9.37173e-09
0.000279243
4.50575e-08
0.00115883
3.13355e-07
1.63872e-07
0.00195763
4.73109e-07
-8.33689e-07
0.00616377
-1.88492e-05
0.00195096
-1.68463e-06
0.00115898
-2.88348e-07
3.31357e-07
-0.000279259
0.000279104
8.81735e-09
1.16813e-07
-7.98824e-05
7.9952e-05
-0.000146376
0.00911204
-0.000312808
0.0118839
-0.000341335
0.0141932
-0.000284216
0.015762
-0.000209098
0.016398
-0.00014118
0.0160512
-8.72444e-05
0.0147742
-4.7998e-05
0.012731
-1.99313e-05
0.0101615
-6.01328e-06
0.00729239
1.32544e-06
0.00432809
1.16371e-06
0.00140499
7.99613e-05
8.00064e-05
0.000279405
1.24197e-08
0.000279464
1.05005e-07
0.00115923
3.19245e-07
-9.54562e-08
0.00195169
-1.56873e-06
-1.0632e-05
0.00607427
-4.6249e-05
0.001937
-4.15713e-06
0.0011575
-1.03012e-07
1.45947e-07
-0.000279927
0.000279578
6.06002e-08
-1.32243e-07
-8.01232e-05
8.0132e-05
-0.00027777
0.009077
-0.000369641
0.0119122
-0.000318231
0.0142273
-0.000237592
0.0157905
-0.000168983
0.0164258
-0.000107446
0.0160714
-6.41007e-05
0.0147903
-3.41608e-05
0.0127452
-1.15393e-05
0.010167
-1.22281e-06
0.00729494
2.92264e-06
0.00432633
1.51357e-06
0.00140347
8.01443e-05
8.02493e-05
0.00027988
1.67768e-08
0.000279731
5.37194e-08
0.00115587
3.10193e-07
-2.46881e-07
0.00193365
-7.28465e-06
-5.41285e-05
0.00597268
-0.000122045
0.00190363
-1.62269e-05
0.00115163
-2.33466e-07
3.12539e-07
-0.000279757
0.000279846
-1.91856e-07
1.19579e-07
-8.0117e-05
8.01775e-05
-0.000386255
0.00909361
-0.000336985
0.0119309
-0.000252523
0.0142422
-0.000183048
0.0158046
-0.000123407
0.0164417
-8.01275e-05
0.0160874
-4.26971e-05
0.0147988
-1.74725e-05
0.0127511
-4.98487e-06
0.0101707
2.87988e-06
0.00729498
3.46048e-06
0.00432438
2.81631e-06
0.00140066
8.01943e-05
8.0248e-05
0.000280141
1.43237e-08
0.000279789
1.05104e-07
0.00114455
3.6991e-07
-5.65395e-07
0.00187928
-2.97849e-05
-0.000171226
0.00596745
-0.000209794
0.0018208
-6.35623e-05
0.00112975
-1.55369e-06
1.20063e-07
-0.000280037
0.000279733
7.03389e-08
6.47884e-08
-8.03675e-05
8.01756e-05
-0.000333942
0.00909057
-0.000238834
0.0119172
-0.000174858
0.014234
-0.000128823
0.01581
-8.85582e-05
0.0164502
-5.58918e-05
0.0161006
-2.97713e-05
0.0148111
-1.08629e-05
0.012757
3.64147e-06
0.01017
6.40605e-06
0.00729203
7.06861e-06
0.00432013
3.3741e-06
0.00139728
8.01899e-05
8.02949e-05
0.00028005
5.2687e-08
0.000279597
-1.12562e-07
0.00110404
-4.31686e-07
-3.64448e-06
0.00178347
-0.000133899
-0.000180465
0.00591192
-9.79487e-05
0.00175154
-0.000177861
0.00105334
-1.08972e-05
-1.96621e-06
-0.000279546
0.000278238
-2.45939e-07
1.70966e-07
-8.03597e-05
8.043e-05
-0.000182807
0.00903455
-0.000146736
0.0118891
-0.000116411
0.0142216
-8.39598e-05
0.0158054
-5.73582e-05
0.0164516
-3.17722e-05
0.0161026
-1.39769e-05
0.0148142
-3.62766e-07
0.012761
7.78791e-06
0.0101686
1.2875e-05
0.00728623
9.98629e-06
0.00431352
3.78984e-06
0.0013935
8.04827e-05
8.03701e-05
0.000278015
-2.08868e-07
0.000274592
-2.21155e-07
0.000972119
-1.45735e-05
-3.81003e-05
0.0017069
-0.000135825
-6.22102e-05
0.00580917
-1.78493e-05
0.00166672
-5.77659e-05
0.000924693
-6.65178e-05
-6.39177e-05
-0.000273216
0.00026413
-1.81156e-06
-5.90585e-07
-8.05411e-05
8.02951e-05
-8.52427e-05
0.00897306
-8.11763e-05
0.0118539
-6.9058e-05
0.0142067
-5.21551e-05
0.0158002
-3.36022e-05
0.0164535
-1.52893e-05
0.0161039
-6.14121e-07
0.0148145
1.19121e-05
0.0127569
1.57796e-05
0.0101657
1.44621e-05
0.00728175
9.50065e-06
0.00430781
4.81331e-06
0.00138868
8.00862e-05
7.9865e-05
0.000253626
-4.06895e-06
0.000225736
-1.02106e-05
0.000857639
-4.90459e-05
-1.97247e-05
0.00162754
-2.30332e-05
-1.83421e-05
0.00574213
1.47284e-07
0.00161687
-7.18068e-06
0.000807973
-1.35246e-06
-6.74714e-06
-0.000184353
0.000158484
-4.06491e-05
-2.25343e-05
-7.92744e-05
7.74628e-05
-4.03699e-05
0.00893225
-4.28601e-05
0.0118277
-3.81588e-05
0.0141927
-2.90406e-05
0.0157956
-1.58777e-05
0.016454
-2.95396e-06
0.0161062
1.28848e-05
0.0148135
1.58041e-05
0.0127569
2.06301e-05
0.0101595
1.75166e-05
0.00727374
1.35825e-05
0.00429904
5.06759e-06
0.00138362
7.33939e-05
6.31834e-05
0.000109439
8.97139e-05
0.000785645
-7.31376e-07
2.65244e-08
0.00160219
-3.65585e-06
-7.26158e-06
0.00570573
3.28689e-06
0.00160269
-3.59576e-07
0.000778456
2.83193e-07
-2.74454e-07
-8.29668e-05
8.16144e-05
-4.06491e-05
-1.79976e-05
0.0089074
-2.17384e-05
0.0118113
-1.84384e-05
0.0141821
-7.42626e-06
0.0157872
4.34847e-07
0.0164507
1.26788e-05
0.0161064
1.58204e-05
0.0148135
2.52528e-05
0.0127523
2.48553e-05
0.0101522
2.31649e-05
0.00726415
1.56604e-05
0.00428845
5.88427e-06
0.00137773
8.08831e-05
8.09097e-05
0.000774725
-4.3409e-08
1.19318e-07
0.00159644
-1.01034e-06
-4.36616e-06
0.00568823
3.87345e-06
0.00159861
1.11995e-06
0.000774306
1.14949e-07
-5.57406e-08
-8.06352e-05
8.09185e-05
-4.55806e-06
0.00889021
-8.32075e-06
0.0118011
-3.55578e-06
0.0141782
3.4096e-06
0.0157842
1.41222e-05
0.0164492
1.98697e-05
0.0161024
3.1747e-05
0.014807
3.25338e-05
0.0127446
3.24339e-05
0.0101429
2.77409e-05
0.00725207
1.74096e-05
0.00427692
6.81516e-06
0.00137091
8.08751e-05
8.09945e-05
0.000773034
1.01383e-07
1.61049e-07
0.00159416
8.84148e-08
-2.10215e-06
0.00568232
3.4555e-06
0.00159795
7.5409e-08
0.000774076
1.90972e-07
-1.1288e-07
-8.09388e-05
8.10538e-05
-2.72369e-07
0.00888217
2.18586e-06
0.0117954
5.44691e-06
0.0141762
1.17824e-05
0.0157865
2.39166e-05
0.0164452
3.06103e-05
0.0161035
3.1893e-05
0.0148076
3.61473e-05
0.0127409
3.48808e-05
0.0101358
3.11315e-05
0.00723835
2.06972e-05
0.00426304
7.80559e-06
0.00136311
8.11553e-05
8.13164e-05
0.000774005
8.73066e-08
7.31949e-08
0.0015955
3.547e-07
-9.74513e-07
0.00568028
2.73751e-06
0.00159808
8.69377e-07
0.000774194
3.19675e-08
-1.45382e-07
-8.12035e-05
8.13946e-05
2.6743e-06
0.00888168
8.83948e-06
0.011792
1.56902e-05
0.0141723
2.31263e-05
0.0157873
2.70379e-05
0.0164487
4.05004e-05
0.0160949
4.62404e-05
0.0147975
4.83642e-05
0.0127274
4.2729e-05
0.0101242
3.59346e-05
0.00722311
2.31451e-05
0.0042477
8.77632e-06
0.00135433
8.1482e-05
8.15553e-05
0.000774432
5.87433e-08
5.80671e-08
0.00159729
-1.7524e-07
5.70648e-08
0.00568013
2.77329e-06
0.00159913
8.93195e-07
0.000775375
4.5946e-08
-1.18818e-07
-8.14099e-05
8.14419e-05
7.14198e-06
0.00888338
1.39131e-05
0.0117938
1.82692e-05
0.0141771
3.21662e-05
0.0157822
4.21296e-05
0.0164471
4.69854e-05
0.0160942
4.95579e-05
0.0147963
5.36051e-05
0.0127165
5.06652e-05
0.0101094
4.1344e-05
0.00720491
2.6943e-05
0.00422953
9.65626e-06
0.00134468
8.15007e-05
8.15587e-05
0.000775068
6.41201e-08
6.79385e-08
0.00159853
6.56639e-07
1.50092e-07
0.00568425
2.86871e-06
0.0016007
6.03542e-07
0.000775933
-5.92975e-08
8.65167e-08
-8.14399e-05
8.14859e-05
8.45025e-06
0.00888884
1.53614e-05
0.0117967
2.78418e-05
0.0141815
3.53598e-05
0.0157889
4.41394e-05
0.01645
5.44033e-05
0.0160893
6.16948e-05
0.0147882
6.06696e-05
0.0127065
5.82607e-05
0.0100925
4.52176e-05
0.00718664
3.00322e-05
0.00420916
1.09959e-05
0.00133368
8.15501e-05
8.16181e-05
0.000776448
6.69758e-08
7.38063e-08
0.00160016
6.91763e-07
1.34522e-06
0.00568831
3.04249e-06
0.00160238
6.39331e-07
0.000776941
5.01518e-08
6.0852e-08
-8.17046e-05
8.16453e-05
1.04301e-05
0.00889377
1.98336e-05
0.0118047
2.90106e-05
0.0141878
4.19408e-05
0.0157911
5.52452e-05
0.0164491
6.27924e-05
0.0160882
7.09996e-05
0.0147779
7.01447e-05
0.0126946
6.58667e-05
0.0100719
5.39957e-05
0.00716267
3.25372e-05
0.00418761
1.19058e-05
0.00132177
8.17122e-05
8.17859e-05
0.000777698
-1.16483e-07
5.13408e-08
0.001603
7.29388e-07
3.9515e-07
0.0056953
3.04304e-06
0.00160524
7.95568e-07
0.000778223
5.45589e-08
5.8555e-08
-8.18468e-05
8.18968e-05
1.16979e-05
0.0089019
2.18352e-05
0.0118119
3.53115e-05
0.0141944
4.67727e-05
0.0157996
6.17115e-05
0.0164502
7.22918e-05
0.0160869
7.77608e-05
0.0147703
8.42313e-05
0.0126763
7.54566e-05
0.0100504
6.05113e-05
0.0071347
3.78579e-05
0.00416166
1.22068e-05
0.00130957
8.17804e-05
8.18318e-05
0.000778756
6.96281e-08
1.25859e-07
0.00160488
7.64185e-07
1.48829e-06
0.00570242
3.09311e-06
0.00160718
7.39406e-07
0.00077954
9.19165e-08
-8.08066e-08
-8.18903e-05
8.19447e-05
1.17542e-05
0.00891199
2.44508e-05
0.0118227
4.1457e-05
0.0141998
5.88496e-05
0.0158025
7.20843e-05
0.0164504
8.56885e-05
0.016079
9.34568e-05
0.0147611
9.28347e-05
0.0126589
8.60635e-05
0.0100249
6.63308e-05
0.00710623
4.03394e-05
0.00413353
1.06361e-05
0.00129893
8.20142e-05
8.21399e-05
0.000780157
7.39918e-08
7.18191e-08
0.00160789
7.76377e-07
3.3052e-07
0.00571111
2.72907e-06
0.00161023
7.52293e-07
0.00078096
4.75634e-08
-1.12096e-07
-8.20591e-05
8.21507e-05
1.30928e-05
0.00892334
2.84759e-05
0.0118357
4.60791e-05
0.0142125
6.5249e-05
0.0158093
8.08671e-05
0.0164552
9.39408e-05
0.0160785
0.000105542
0.0147484
0.000101685
0.0126433
9.5217e-05
0.00999598
7.5524e-05
0.00707104
4.31169e-05
0.00410105
1.32554e-05
0.00128568
8.22247e-05
8.22965e-05
0.000781595
6.99253e-08
6.88015e-08
0.00160988
6.71753e-07
8.65147e-07
0.00572222
1.11181e-06
0.00161216
4.55013e-07
0.000782402
-1.13965e-07
5.90955e-08
-8.21844e-05
8.22317e-05
1.62502e-05
0.00893557
3.29873e-05
0.0118488
5.53769e-05
0.0142224
7.16541e-05
0.0158185
9.24779e-05
0.0164567
0.000107862
0.0160762
0.00011707
0.014733
0.00012004
0.0126184
0.000106852
0.00996465
8.14604e-05
0.0070327
4.37208e-05
0.00407058
3.17953e-05
0.00125388
8.23014e-05
8.237e-05
0.00078293
6.50488e-08
7.78347e-08
0.00161316
-1.40305e-07
2.03854e-06
0.00573386
2.5783e-06
0.00161609
-1.82212e-06
0.000783186
1.11031e-07
8.77119e-08
-8.24291e-05
8.23148e-05
2.00081e-05
0.00894854
3.97659e-05
0.0118644
5.90159e-05
0.014235
8.28733e-05
0.0158281
0.000105748
0.0164588
0.000123673
0.0160696
0.000132777
0.0147202
0.000128728
0.0125966
0.000116238
0.00992987
8.6886e-05
0.00698953
7.43987e-05
0.00402798
7.40623e-05
8.23798e-05
8.24577e-05
0.000783139
3.50888e-08
-1.3006e-07
0.00162167
-3.53453e-06
4.18118e-06
0.0057442
5.48074e-06
0.00161922
6.50384e-06
-1.48248e-06
0.000781315
8.79154e-09
-7.34863e-09
-8.25454e-05
8.26562e-05
2.44812e-05
0.00896383
4.18259e-05
0.0118816
6.69132e-05
0.014251
9.21098e-05
0.0158418
0.000115577
0.0164669
0.000134869
0.0160675
0.000146751
0.0147022
0.000147998
0.0125648
0.000129974
0.00988678
0.000115011
0.00694892
0.000136015
8.26911e-05
8.25609e-05
0.000461028
-9.08682e-09
-2.49517e-07
0.000317011
0.00162196
-5.55411e-07
2.00214e-06
5.2621e-06
0.00575792
5.495e-06
0.0016237
1.41045e-06
2.32953e-06
0.000486257
-1.8724e-05
0.00049164
-6.86632e-06
-8.25535e-05
8.25621e-05
2.41578e-05
0.0089815
4.88732e-05
0.0118997
7.50482e-05
0.0142681
0.000107844
0.0158495
0.000135433
0.0164663
0.000154842
0.0160594
0.000165201
0.014685
0.000162096
0.0125327
0.000155152
0.00984664
0.000179356
8.25531e-05
8.23037e-05
0.000295219
3.06862e-06
0.000493464
-2.3798e-06
0.000496171
-7.04669e-07
0.00162584
1.26417e-06
1.86029e-06
4.41532e-06
0.00577335
4.31871e-06
0.00162913
7.816e-07
1.42152e-06
0.000497018
5.63206e-07
0.00049813
1.21673e-06
0.000289717
-1.36391e-06
2.74899e-05
0.00900288
5.35003e-05
0.0119212
8.57441e-05
0.0142902
0.000117176
0.0158678
0.000145792
0.0164754
0.000171491
0.0160531
0.000177838
0.0146693
0.000187166
0.0125007
0.000210941
8.53723e-05
0.000288399
-1.06296e-06
0.000288064
-3.69827e-07
0.000498733
6.60749e-07
0.000499791
8.01835e-07
0.00163157
6.23936e-07
1.34629e-06
5.62165e-06
0.00579045
4.7676e-06
0.00163419
6.54617e-07
1.04915e-06
0.000500342
2.31016e-07
0.000500962
8.01539e-07
0.000288572
5.55122e-08
0.000289693
9.50198e-08
8.40083e-05
3.02535e-05
0.00902612
6.18225e-05
0.0119451
9.72667e-05
0.0143101
0.000134711
0.0158788
0.00016579
0.0164811
0.000183149
0.0160478
0.000208032
0.0146484
0.000229225
8.29453e-05
8.25753e-05
0.000290087
2.65611e-07
0.000290638
2.50865e-07
0.000500927
6.58529e-07
0.000502054
2.19408e-07
0.00163791
7.55325e-07
1.14791e-06
6.10178e-06
0.00580937
5.22982e-06
0.00164077
7.38957e-07
1.1608e-06
0.000502298
4.10394e-07
0.000502807
5.40105e-07
0.00029068
1.89386e-07
0.000291317
1.63834e-07
8.26308e-05
8.27255e-05
3.6277e-05
0.00905167
6.83121e-05
0.0119741
0.000109705
0.0143351
0.000147953
0.0158967
0.00017624
0.016488
0.000211574
0.0160443
0.000234739
8.2991e-05
8.32418e-05
0.000291816
1.59336e-07
0.000292079
-4.38428e-08
0.000503237
3.25316e-07
0.00050393
4.54323e-07
0.0016448
8.36692e-07
1.23559e-06
5.73083e-06
0.00583398
5.92856e-06
0.00164802
8.16228e-07
1.19612e-06
0.000504202
4.67363e-07
0.000505149
2.13288e-07
0.000292371
1.18427e-07
0.000292795
1.16405e-07
8.34311e-05
8.35948e-05
3.90005e-05
0.00908098
8.0771e-05
0.012003
0.000124756
0.0143583
0.00016132
0.0159116
0.00020013
0.0164994
0.000223773
8.37541e-05
8.37102e-05
0.000292997
1.22376e-07
0.000293321
1.29953e-07
0.000505207
7.78715e-07
0.00050594
5.03e-07
0.00165131
9.15809e-07
1.52252e-06
7.54325e-06
0.0058589
6.53918e-06
0.00165518
7.31359e-07
1.32728e-06
0.000506674
8.15646e-08
0.000507265
6.04919e-07
0.000293828
-3.94113e-08
0.000293904
1.37648e-07
8.38286e-05
8.39449e-05
4.67345e-05
0.00911502
9.13853e-05
0.0120364
0.000134602
0.014385
0.000175543
0.0159362
0.000198976
8.40672e-05
8.41971e-05
0.000294496
1.86547e-07
0.000294849
1.49887e-07
0.000507405
7.76042e-07
0.000508785
1.43212e-07
0.00165996
1.09146e-06
1.67636e-06
8.97994e-06
0.0058889
7.7595e-06
0.00166404
9.29419e-07
1.5288e-06
0.000509011
5.04957e-07
0.000509663
6.75206e-07
0.000294806
1.23608e-07
0.000295472
-6.08484e-08
8.41577e-05
8.42952e-05
5.56206e-05
0.00915078
0.000106934
0.0120641
0.000146627
0.0144139
0.000160352
8.44817e-05
8.46316e-05
0.000296108
1.40502e-07
0.000296123
1.28303e-07
0.000510291
4.64216e-07
0.000511358
6.0882e-07
0.00166982
1.30054e-06
1.90029e-06
1.00646e-05
0.00592456
9.89432e-06
0.00167469
1.16129e-06
1.72479e-06
0.000511677
6.10265e-07
0.000512697
5.09484e-07
0.000296432
1.9533e-07
0.000297134
-2.69541e-08
8.47552e-05
8.46943e-05
7.01989e-05
0.00918751
0.000112006
0.0120987
0.000117722
8.48348e-05
8.4963e-05
0.000297445
1.53615e-07
0.000297889
1.65282e-07
0.000513144
8.53608e-07
0.000514314
7.29554e-07
0.00168107
2.10512e-06
1.57832e-06
1.36947e-05
0.00596643
1.46286e-05
0.00168765
1.92437e-06
1.39344e-06
0.000515161
3.15014e-07
0.000515922
9.63921e-07
0.000298325
1.74261e-07
0.000298656
1.78508e-07
8.51584e-05
8.51314e-05
8.2068e-05
0.00921745
7.40141e-05
8.5285e-05
8.54503e-05
0.000299284
2.25039e-07
0.000299985
2.82658e-08
0.000517083
9.43531e-07
0.000518252
4.09383e-07
0.00169635
2.51065e-06
2.48557e-06
1.91884e-05
0.00600597
2.33397e-05
0.00170465
2.87819e-06
3.44782e-06
0.000519371
8.05614e-07
0.000519728
1.03673e-06
0.000300119
1.812e-07
0.000300894
1.88802e-07
8.56246e-05
8.58031e-05
4.44819e-05
8.60281e-05
8.60563e-05
0.000301631
2.06791e-07
0.000301836
2.04606e-07
0.000521156
1.08215e-06
0.00052301
6.31764e-07
0.00171561
4.0867e-06
4.14008e-06
4.25444e-05
1.57365e-05
0.00172654
4.92885e-06
7.4778e-06
0.000524662
1.22585e-06
0.000526171
1.93992e-06
0.000302613
2.88836e-08
0.000303453
1.96816e-07
8.62376e-05
8.64263e-05
8.66332e-05
8.68378e-05
0.000304309
2.26283e-07
0.0003047
2.41254e-07
0.000528533
1.72437e-06
0.000530406
2.26737e-06
0.00174422
1.00231e-05
1.48396e-05
2.14737e-05
8.89392e-06
0.000532862
2.47269e-06
0.000536605
3.73503e-06
0.000305625
3.01072e-07
0.000307182
3.83174e-07
8.68668e-05
8.70637e-05
8.72901e-05
8.75315e-05
0.00030848
4.26847e-07
0.000310145
6.02604e-07
0.000539701
6.92719e-06
0.000544191
1.03504e-05
0.000550394
1.52704e-05
1.33782e-05
0.000312016
6.02204e-07
0.000314764
9.87747e-07
8.78327e-05
8.82161e-05
8.86431e-05
8.92459e-05
0.000319649
2.0417e-06
0.000325253
4.74672e-06
0.000330506
1.00184e-05
2.0602e-05
8.98482e-05
9.08361e-05
9.28779e-05
9.76248e-05
0.000107643
1.41761e-05
-1.41797e-05
-6.07522e-05
2.06975e-05
5.42225e-05
7.32877e-06
-2.15109e-05
-7.34608e-05
2.00338e-05
-0.000120967
2.78155e-05
0.000113842
1.67955e-05
3.74197e-05
3.63743e-06
-2.51537e-05
1.23201e-05
-8.21429e-05
-0.000131589
3.06551e-05
-2.36714e-05
-0.000418782
6.63592e-05
0.000403888
0.000106963
7.08727e-06
3.03234e-05
1.61915e-06
-2.67721e-05
1.94307e-05
-0.000138702
7.27525e-06
-8.78009e-05
6.96474e-05
-0.000438359
-4.27662e-05
-0.00145958
0.00141155
0.000157055
-1.52358e-05
0.000383315
-6.97592e-06
9.88115e-05
2.44539e-06
2.78745e-05
8.57695e-07
-2.76291e-05
1.50676e-05
-0.000146497
4.26787e-06
-9.12132e-05
-4.53252e-05
0.000168275
-0.00151294
-8.10533e-06
-0.000460523
-2.60042e-05
0.000111879
-1.19022e-05
-0.00203678
0.00198128
0.000212493
0.000363844
-4.61394e-06
-1.93198e-06
9.42813e-05
1.10483e-06
2.67704e-05
3.30797e-07
-2.79608e-05
-0.000150337
2.44325e-06
-9.33329e-05
0.000227075
-0.00209561
-3.27009e-05
0.000139852
-0.0015993
-2.08802e-05
-6.778e-06
-0.000482601
-3.86444e-06
0.000184391
-1.53513e-06
-0.00235597
0.00229708
0.000271321
9.07727e-05
-5.03976e-07
8.93436e-05
2.62656e-05
3.61735e-07
-2.83288e-05
-0.000154674
1.72761e-06
-9.47042e-05
0.000288083
-0.002417
0.000223431
-0.00217923
0.0001259
-0.0016889
-1.72799e-05
-1.91157e-05
-0.000496514
-2.84233e-06
-4.1393e-06
-0.000156812
0.000250921
-2.32939e-07
-0.00240422
0.00235178
0.000323727
3.10093e-07
-2.8641e-05
1.62095e-06
-9.60191e-05
0.000340416
-0.00245658
0.000298262
-0.00249185
0.000223406
-0.00227677
0.000135395
-0.00178247
-2.2447e-05
-1.94902e-05
0.000509494
-0.000520678
-1.65676e-06
-4.46269e-06
-3.20464e-06
-2.9403e-06
0.00015933
-1.37853e-06
-0.000160799
0.000306606
-0.00216375
0.00212804
0.00035938
3.0688e-07
-2.89501e-05
-9.7092e-05
0.000373576
-0.00219693
0.000356338
-0.00251468
0.000309976
-0.00257845
0.000239181
-0.00238062
0.000163643
-0.0018878
-3.48632e-05
-2.3585e-05
0.000533044
-0.000547022
-8.50608e-06
-7.13653e-06
0.00016467
-0.00015615
-1.01832e-05
0.000164011
-3.81012e-06