/*--------------------------------*- C++ -*----------------------------------*\
| =========                 |                                                 |
| \\      /  F ield         | OpenFOAM: The Open Source CFD Toolbox           |
|  \\    /   O peration     | Version:  v1912                                 |
|   \\  /    A nd           | Website:  www.openfoam.com                      |
|    \\/     M anipulation  |                                                 |
\*---------------------------------------------------------------------------*/
FoamFile
{
    version     2.0;
    format      ascii;
    class       volVectorField;
    location    "280";
    object      U;
}
// * * * * * * * * * * * * * * * * * * * * * * * * * * * * * * * * * * * * * //

dimensions      [0 1 -1 0 0 0 0];


internalField   nonuniform List<vector> 
3673
(
(0.0769514 0.0260171 -7.03838e-22)
(0.230993 0.0765715 7.34124e-25)
(0.0764369 0.0258452 0)
(0.382652 0.124399 0)
(0.229544 0.0760971 -7.34452e-25)
(0.0759483 0.0256806 0)
(0.526901 0.16807 0)
(0.380355 0.123661 0)
(0.228126 0.0756293 0)
(0.0754616 0.0255195 -5.27368e-22)
(0.657062 0.205743 0)
(0.523886 0.167111 0)
(0.37809 0.122931 0)
(0.226724 0.0751718 0)
(0.0749873 0.0253609 5.24202e-22)
(0.765501 0.235353 0)
(0.65339 0.204579 5.66092e-25)
(0.520878 0.166157 0)
(0.375865 0.122219 0)
(0.22536 0.0747227 -5.05995e-22)
(0.0745153 0.0252029 0)
(0.844774 0.255025 0)
(0.761255 0.234004 2.96916e-22)
(0.649763 0.203436 -5.65566e-25)
(0.517918 0.165219 0)
(0.373652 0.121504 0)
(0.223988 0.0742674 0)
(0.0740413 0.025046 0)
(0.888619 0.263344 -2.96306e-22)
(0.839967 0.253489 -2.78406e-22)
(0.757051 0.232679 0)
(0.646142 0.202299 2.70141e-22)
(0.514966 0.164282 0)
(0.371452 0.120792 -4.50943e-25)
(0.222617 0.0738164 0)
(0.0735746 0.024891 -7.36922e-22)
(0.892805 0.259586 5.59168e-24)
(0.883197 0.261604 5.32708e-25)
(0.835192 0.251982 0)
(0.752865 0.231371 1.57343e-23)
(0.642549 0.201172 0)
(0.512006 0.163344 0)
(0.369248 0.120081 4.50892e-25)
(0.221259 0.0733677 3.74636e-22)
(0.0731041 0.0247341 0)
(0.855816 0.243907 2.97745e-22)
(0.88668 0.257622 2.74568e-22)
(0.877803 0.259901 -2.66048e-22)
(0.830444 0.250501 -2.44975e-22)
(0.748668 0.230064 -4.4974e-25)
(0.638929 0.200037 0)
(0.509042 0.162402 0)
(0.367045 0.119367 -3.82177e-25)
(0.219879 0.0729127 0)
(0.072638 0.0245779 0)
(0.779381 0.217471 6.02566e-25)
(0.848913 0.241706 -2.80739e-22)
(0.880572 0.255702 2.65055e-22)
(0.872443 0.258236 2.51285e-22)
(0.825689 0.249027 0)
(0.744471 0.228757 4.49458e-25)
(0.635292 0.198896 0)
(0.506072 0.161457 0)
(0.364843 0.118654 1.0851e-24)
(0.218523 0.0724634 0)
(0.0721759 0.0244211 0)
(0.6685 0.18239 -3.64331e-24)
(0.771672 0.215038 -2.65689e-22)
(0.841999 0.239561 -2.61185e-22)
(0.87453 0.253846 -2.20573e-24)
(0.867117 0.256595 9.50002e-25)
(0.820935 0.247554 -2.24423e-22)
(0.740241 0.227439 0)
(0.631645 0.197748 0)
(0.503102 0.160508 0)
(0.362618 0.117929 -1.02637e-24)
(0.217174 0.0720156 0)
(0.0717154 0.0242637 0)
(0.530886 0.141455 2.71334e-24)
(0.660001 0.17975 3.3405e-23)
(0.763855 0.212663 2.78877e-22)
(0.835222 0.237528 -5.15952e-22)
(0.868603 0.252044 1.91989e-24)
(0.861824 0.254964 2.17032e-22)
(0.816167 0.246076 0)
(0.735984 0.226111 0)
(0.627972 0.196591 -3.82263e-22)
(0.50011 0.159552 0)
(0.360428 0.117218 3.46622e-22)
(0.215835 0.0715671 3.19449e-22)
(0.071265 0.0241153 0)
(0.375978 0.097658 0)
(0.521577 0.138674 2.9785e-22)
(0.651152 0.177124 2.63935e-22)
(0.756322 0.210485 2.74969e-22)
(0.828708 0.235587 -2.43927e-22)
(0.862792 0.250271 -1.67886e-24)
(0.856551 0.253341 0)
(0.811378 0.244594 -7.30583e-25)
(0.731721 0.224783 3.48219e-22)
(0.624307 0.195436 0)
(0.497141 0.158601 -2.94133e-22)
(0.358256 0.116504 -2.60118e-22)
(0.214507 0.0711241 0)
(0.0708083 0.0239646 0)
(0.365721 0.0948754 -5.99668e-23)
(0.250548 0.0639619 -2.188e-24)
(0.253791 0.0648559 -1.42279e-22)
(0.51126 0.135719 -3.0995e-22)
(0.64286 0.17484 2.23748e-24)
(0.749353 0.208467 2.5602e-22)
(0.822484 0.233717 -1.70666e-24)
(0.857088 0.248532 1.68076e-24)
(0.8513 0.251727 1.45956e-24)
(0.806593 0.243114 1.41447e-24)
(0.727442 0.223448 -1.00702e-24)
(0.620633 0.194273 0)
(0.494178 0.157646 0)
(0.356086 0.115792 2.9454e-22)
(0.213192 0.0706856 0)
(0.0703612 0.0238141 0)
(0.352071 0.0912564 6.79866e-23)
(0.238187 0.0606741 9.93941e-23)
(0.245566 0.0628281 0)
(0.167144 0.0421595 2.23521e-24)
(0.169379 0.0426541 1.02673e-22)
(0.256152 0.0653362 0)
(0.502187 0.133297 -5.48594e-26)
(0.635669 0.172821 4.02701e-24)
(0.742915 0.206566 2.29014e-22)
(0.816483 0.231911 3.29632e-24)
(0.851471 0.246822 1.90239e-22)
(0.846079 0.250125 -1.82564e-22)
(0.801804 0.241632 -1.00429e-24)
(0.723175 0.222112 3.20851e-25)
(0.616979 0.193115 3.11295e-22)
(0.491256 0.156704 -2.50348e-22)
(0.353954 0.115092 -2.72404e-22)
(0.211879 0.0702476 -2.41694e-22)
(0.0699243 0.0236675 0)
(0.341977 0.0884756 4.85444e-24)
(0.219924 0.056195 -2.46547e-22)
(0.228165 0.0578686 7.93779e-23)
(0.155416 0.0391811 0)
(0.163392 0.0412619 2.385e-23)
(0.103553 0.025901 -3.87824e-23)
(0.104371 0.0260837 8.01527e-23)
(0.105334 0.0262823 3.30118e-25)
(0.170804 0.0429834 0)
(0.104935 0.026174 4.11248e-23)
(0.495212 0.131344 2.87434e-22)
(0.629413 0.171006 -2.5605e-22)
(0.736907 0.20479 2.06966e-22)
(0.810688 0.230175 -1.99692e-22)
(0.845944 0.245145 4.18508e-24)
(0.840889 0.248535 0)
(0.797034 0.240156 3.20016e-25)
(0.71892 0.220781 -2.83061e-22)
(0.613349 0.191962 2.91234e-22)
(0.488341 0.155762 2.31547e-22)
(0.351853 0.114401 1.96445e-22)
(0.210609 0.0698216 -2.21599e-22)
(0.0694958 0.0235237 -2.47668e-22)
(0.336132 0.0866664 -3.31167e-22)
(0.211956 0.0537477 1.87432e-24)
(0.214773 0.0546357 0)
(0.131067 0.0330988 1.14362e-22)
(0.1412 0.0352297 -6.74253e-23)
(0.0909591 0.0224636 2.3975e-24)
(0.0969481 0.0244885 -1.92551e-24)
(0.10236 0.0257122 0)
(0.100363 0.025191 -1.77882e-25)
(0.0606621 0.0150652 5.40787e-25)
(0.0611199 0.0151505 -3.67574e-23)
(0.105702 0.0263596 -3.302e-25)
(0.0616121 0.0152572 3.64912e-23)
(0.105997 0.0264383 -4.38877e-23)
(0.0613867 0.0152069 0)
(0.489684 0.129761 -2.45193e-22)
(0.62379 0.169378 -2.30068e-22)
(0.731223 0.203122 0)
(0.805061 0.228495 3.64748e-22)
(0.840501 0.243498 -6.8528e-25)
(0.835738 0.246957 0)
(0.79229 0.238687 1.51064e-22)
(0.714696 0.219456 -2.64848e-22)
(0.609772 0.190822 -2.44162e-25)
(0.485498 0.154839 2.55665e-22)
(0.349766 0.113708 1.80496e-22)
(0.209362 0.0694024 -6.93328e-23)
(0.0690713 0.0233816 0)
(0.332215 0.0855842 2.90145e-22)
(0.208672 0.0527437 -1.696e-24)
(0.209959 0.053106 -1.87687e-24)
(0.125422 0.0313024 1.6099e-24)
(0.127083 0.0318472 -2.7486e-23)
(0.0621524 0.015682 3.61155e-23)
(0.0647913 0.0163886 -3.958e-23)
(0.0799035 0.0188144 -6.60943e-24)
(0.0702096 0.0179206 5.8622e-25)
(0.0516848 0.0121122 2.2235e-24)
(0.0562691 0.0140799 0)
(0.0599666 0.0149397 0)
(0.0587122 0.014697 -3.3757e-23)
(0.0195845 0.00481884 -2.03312e-25)
(0.0197037 0.00484256 2.03415e-25)
(0.0618006 0.0153078 -3.72004e-23)
(0.0198452 0.00487618 -4.48097e-25)
(0.0619658 0.0153423 4.01771e-23)
(0.0197962 0.00486876 -2.74033e-23)
(0.484975 0.128444 -2.24759e-22)
(0.618628 0.167901 1.97507e-22)
(0.725809 0.20154 -3.69622e-22)
(0.799592 0.226865 -1.66792e-22)
(0.835132 0.241874 -1.55523e-22)
(0.830629 0.245393 -2.94131e-22)
(0.787577 0.237226 -2.80897e-25)
(0.710516 0.218141 0)
(0.606235 0.189688 -2.24696e-22)
(0.482682 0.153918 0)
(0.347744 0.113038 1.65648e-22)
(0.208137 0.0689896 0)
(0.0686572 0.0232427 8.13238e-23)
(0.329055 0.0848023 3.13669e-22)
(0.206647 0.0522876 1.60239e-24)
(0.207491 0.0524813 1.00688e-22)
(0.123715 0.0308376 2.33827e-23)
(0.12439 0.0310225 2.24626e-23)
(0.0599996 0.0148461 -3.17137e-23)
(0.0601951 0.0149102 -5.21689e-25)
(0.0610398 0.0151894 3.65541e-23)
(0.060469 0.0150054 -3.31475e-23)
(0.0201024 0.0050713 -2.90857e-23)
(0.0215056 0.00561925 4.19814e-23)
(0.0346786 0.00598308 -1.88019e-24)
(0.0238011 0.00627192 -1.03314e-23)
(0.016908 0.0043369 -3.63842e-23)
(0.0181153 0.00463705 -2.48465e-23)
(0.0193964 0.00478515 -2.44956e-23)
(0.0190216 0.00472712 -2.47193e-23)
(0.0198948 0.00489191 2.10589e-25)
(0.0199414 0.00490015 2.99905e-23)
(0.480784 0.127295 -2.27139e-22)
(0.6138 0.166528 1.97158e-22)
(0.720602 0.20002 3.41996e-22)
(0.794228 0.22527 7.48982e-24)
(0.829829 0.240272 1.48175e-22)
(0.825567 0.243843 0)
(0.782918 0.235777 0)
(0.706397 0.216837 0)
(0.602755 0.188568 2.3783e-22)
(0.479933 0.153017 2.24058e-22)
(0.345766 0.112377 0)
(0.206941 0.0685845 0)
(0.0682497 0.0231065 0)
(0.326281 0.0841164 5.49527e-23)
(0.204943 0.0519032 -8.72041e-23)
(0.205678 0.052082 -5.35179e-24)
(0.122658 0.030607 0)
(0.123142 0.0307203 -9.3448e-23)
(0.0595152 0.0147146 2.91807e-23)
(0.0595838 0.0147441 -3.04398e-23)
(0.0598114 0.0147978 3.03954e-23)
(0.0596939 0.0147733 -3.13708e-23)
(0.0192531 0.00473281 4.47771e-23)
(0.0193128 0.00475463 -2.25391e-23)
(0.0196044 0.0048539 0)
(0.0193978 0.00477899 4.72668e-23)
(0.00961978 0.00153247 2.5267e-24)
(0.476935 0.126246 -1.63017e-24)
(0.609206 0.165228 -3.47656e-22)
(0.71555 0.198554 1.64406e-22)
(0.788967 0.223711 0)
(0.824591 0.238692 0)
(0.820557 0.242307 0)
(0.778313 0.234341 1.23524e-22)
(0.702333 0.215549 -9.8548e-23)
(0.599351 0.187466 -1.97071e-22)
(0.477248 0.152132 -2.10274e-22)
(0.343828 0.111729 1.92877e-22)
(0.205767 0.0681891 0)
(0.0678547 0.0229758 -6.78431e-23)
(0.323719 0.0834662 -4.91454e-23)
(0.203373 0.0515224 -8.42621e-23)
(0.204049 0.0516996 -8.16165e-23)
(0.121728 0.0304011 9.96057e-23)
(0.122184 0.0305102 -8.43805e-23)
(0.059126 0.0146276 0)
(0.0591941 0.0146571 -2.67852e-23)
(0.0593834 0.0146925 2.79422e-23)
(0.0592978 0.0146761 2.75373e-23)
(0.0191184 0.00469606 -2.27634e-25)
(0.019134 0.00470714 -2.10179e-23)
(0.0192066 0.00471891 -2.63901e-25)
(0.0191567 0.00471121 2.13262e-23)
(0.473288 0.125258 1.9223e-22)
(0.604791 0.163987 -1.53674e-22)
(0.710613 0.197123 -1.41053e-22)
(0.783787 0.222176 1.32584e-22)
(0.819414 0.23713 1.26316e-22)
(0.815604 0.240784 8.85955e-25)
(0.773772 0.232919 -1.10531e-22)
(0.698352 0.214275 0)
(0.596025 0.186382 1.84913e-22)
(0.474643 0.151268 -1.63546e-22)
(0.341953 0.111099 -1.5455e-25)
(0.204636 0.0678058 0)
(0.0674638 0.0228489 6.37334e-23)
(0.321286 0.0828424 8.22501e-25)
(0.201874 0.0511498 6.84502e-24)
(0.202528 0.0513242 7.20915e-23)
(0.12082 0.0301814 1.66174e-23)
(0.121261 0.0302943 9.25416e-23)
(0.0587184 0.0145346 -2.4062e-23)
(0.0587916 0.0145656 -2.3695e-23)
(0.0589877 0.0146044 8.18018e-25)
(0.0589004 0.014586 -1.00384e-24)
(0.0190037 0.00466843 1.83236e-23)
(0.0190231 0.0046802 1.95708e-25)
(0.0190855 0.00468823 -2.01822e-23)
(0.0190429 0.00468228 -2.86634e-25)
(0.469794 0.124313 1.75946e-22)
(0.600499 0.162778 1.56472e-22)
(0.705773 0.195722 -1.41825e-22)
(0.778675 0.220663 -1.30815e-22)
(0.814291 0.235581 -3.58184e-24)
(0.810708 0.239273 1.12278e-22)
(0.769305 0.23151 0)
(0.69446 0.21302 0)
(0.592796 0.185319 -1.99777e-22)
(0.472088 0.150413 0)
(0.340107 0.110474 1.54455e-25)
(0.203512 0.0674256 -1.53636e-22)
(0.0670648 0.0227136 -6.50321e-23)
(0.318937 0.0822311 3.79655e-23)
(0.200415 0.050782 -6.0313e-23)
(0.201046 0.0509518 6.35329e-23)
(0.119939 0.0299656 6.3942e-23)
(0.120376 0.0300773 -5.17066e-23)
(0.0582997 0.014432 0)
(0.0583727 0.0144622 -4.22956e-23)
(0.0585739 0.0145066 0)
(0.0584823 0.0144861 -1.01641e-24)
(0.0188748 0.00463783 1.23337e-25)
(0.0188987 0.00465027 1.70526e-23)
(0.018968 0.00466041 3.55171e-23)
(0.0189233 0.00465356 -2.84225e-25)
(0.466411 0.123393 2.79522e-25)
(0.596299 0.161598 -1.27194e-22)
(0.701015 0.194347 1.19719e-22)
(0.773611 0.219162 -1.21497e-22)
(0.809209 0.234041 -1.12498e-22)
(0.805878 0.237773 -1.04341e-22)
(0.764924 0.230116 1.8944e-25)
(0.690656 0.211781 1.81802e-22)
(0.589637 0.184271 0)
(0.469613 0.149581 0)
(0.338318 0.109869 1.24711e-22)
(0.202392 0.0670448 0)
(0.0666776 0.0225828 -6.4761e-26)
(0.316651 0.0816333 -3.17959e-23)
(0.198988 0.0504152 -5.28936e-23)
(0.19961 0.0505857 -6.1492e-23)
(0.119075 0.0297524 4.35554e-23)
(0.119505 0.0298611 -8.58349e-23)
(0.05788 0.0143301 0)
(0.0579574 0.0143605 -1.80346e-23)
(0.0581577 0.0144045 -1.90953e-23)
(0.0580677 0.0143845 -1.96186e-23)
(0.0187393 0.00460423 1.40729e-23)
(0.0187657 0.00461664 2.59568e-25)
(0.0188353 0.0046288 1.53449e-23)
(0.0187901 0.0046218 -3.05431e-23)
(0.463119 0.122498 2.2427e-23)
(0.592171 0.160436 -1.33105e-22)
(0.696292 0.192982 -2.18937e-25)
(0.768589 0.217674 0)
(0.80418 0.23251 1.04197e-22)
(0.801111 0.236282 0)
(0.760634 0.228737 9.36833e-23)
(0.686955 0.210566 -1.81212e-25)
(0.586562 0.183246 0)
(0.46718 0.148762 0)
(0.336528 0.109263 0)
(0.201294 0.0666711 -1.52467e-22)
(0.0663156 0.0224568 0)
(0.31442 0.081046 1.153e-22)
(0.197595 0.05006 5.24703e-23)
(0.198211 0.0502266 0)
(0.118232 0.029539 3.84401e-23)
(0.118653 0.0296471 -1.16622e-23)
(0.0574722 0.0142291 0)
(0.0575431 0.0142596 1.64455e-23)
(0.0577402 0.0143017 1.03899e-24)
(0.0576495 0.0142818 3.30181e-23)
(0.0186034 0.00457124 1.21822e-23)
(0.0186308 0.00458355 2.64201e-25)
(0.0187004 0.00459579 2.72776e-23)
(0.0186553 0.00458886 0)
(0.459874 0.121612 0)
(0.588093 0.15929 0)
(0.691597 0.191623 1.85481e-26)
(0.763571 0.216179 1.88312e-25)
(0.799177 0.230974 3.87901e-25)
(0.796415 0.234795 -9.10587e-23)
(0.756432 0.227372 0)
(0.683336 0.209368 0)
(0.583555 0.182238 8.81426e-23)
(0.464795 0.147956 0)
(0.334765 0.108662 1.23666e-22)
(0.2002 0.0662892 1.24976e-25)
(0.0659203 0.0223218 -1.08806e-22)
(0.312242 0.0804707 0)
(0.196238 0.0497106 6.57349e-24)
(0.196839 0.0498743 0)
(0.117405 0.0293317 -9.15077e-24)
(0.11782 0.029438 -1.99475e-23)
(0.0570657 0.014128 0)
(0.0571376 0.0141571 8.10265e-25)
(0.0573328 0.0142008 1.50962e-23)
(0.0572447 0.0141801 1.37254e-23)
(0.0184737 0.00453915 0)
(0.0184982 0.00455206 0)
(0.0185649 0.00456261 2.36421e-23)
(0.0185183 0.00455591 -2.30239e-23)
(0.45668 0.12074 -9.88109e-23)
(0.584016 0.158141 0)
(0.686891 0.190259 9.13174e-23)
(0.758555 0.214679 -1.88237e-25)
(0.794206 0.229432 0)
(0.791786 0.23331 0)
(0.752319 0.22602 0)
(0.679804 0.20819 -8.00598e-23)
(0.580615 0.181248 0)
(0.462412 0.147147 0)
(0.333018 0.108059 0)
(0.199091 0.0659046 1.01236e-22)
(0.0655064 0.0221857 -2.08808e-22)
(0.310073 0.0798969 1.14189e-22)
(0.194903 0.0493676 3.32066e-23)
(0.195501 0.0495289 1.47275e-25)
(0.116598 0.029128 2.90478e-23)
(0.117003 0.0292315 -8.28521e-24)
(0.0566654 0.0140305 0)
(0.0567391 0.0140565 1.20286e-23)
(0.0569273 0.0141003 8.83768e-25)
(0.0568559 0.0140842 9.77196e-25)
(0.0183406 0.00450656 0)
(0.0183664 0.00451891 2.53675e-25)
(0.0184342 0.00453085 0)
(0.0183904 0.00452362 -2.77667e-25)
(0.453482 0.119866 -5.71406e-25)
(0.579918 0.15699 -1.0137e-22)
(0.682137 0.188879 0)
(0.753501 0.213151 0)
(0.789249 0.227872 2.97336e-25)
(0.78722 0.231826 0)
(0.748284 0.224683 0)
(0.676332 0.207027 1.58047e-25)
(0.57769 0.18026 -8.41441e-23)
(0.460056 0.146342 0)
(0.331229 0.107445 1.69259e-22)
(0.197963 0.0655179 1.10861e-22)
(0.0650923 0.0220446 1.02141e-22)
(0.307939 0.0793317 -1.89008e-23)
(0.193589 0.0490306 2.76793e-23)
(0.194181 0.0491898 -3.03842e-23)
(0.115806 0.0289288 -3.12429e-23)
(0.116207 0.0290298 -1.39167e-23)
(0.0562805 0.0139348 0)
(0.056352 0.0139597 1.01058e-23)
(0.0565342 0.014002 0)
(0.0564667 0.0139866 9.72345e-25)
(0.0182086 0.0044756 0)
(0.0182476 0.00448872 -7.85254e-24)
(0.0183014 0.00449881 2.96359e-25)
(0.0182611 0.00449195 8.53318e-24)
(0.45026 0.118988 3.66445e-25)
(0.575754 0.155818 0)
(0.677276 0.187456 5.64749e-25)
(0.748384 0.211582 0)
(0.784292 0.226287 -6.75136e-23)
(0.782707 0.230345 7.13602e-23)
(0.744316 0.223364 -1.51762e-25)
(0.672904 0.205878 7.6518e-23)
(0.574773 0.179272 -3.14805e-25)
(0.45768 0.145529 -1.43216e-22)
(0.329442 0.106826 0)
(0.196795 0.0651088 0)
(0.0646733 0.0219032 -2.62681e-22)
(0.3058 0.0787615 -1.58713e-23)
(0.192289 0.0486914 -1.04064e-25)
(0.192875 0.0488514 5.60729e-23)
(0.115026 0.0287346 -3.12411e-23)
(0.115421 0.0288317 1.72726e-23)
(0.0558989 0.0138404 0)
(0.0559699 0.0138646 0)
(0.0561499 0.0139056 9.13714e-25)
(0.0560815 0.0138905 9.53785e-25)
(0.0180866 0.00444567 6.10981e-24)
(0.0181241 0.00445831 5.2014e-26)
(0.0181761 0.00446767 7.00936e-24)
(0.018137 0.00446089 1.38975e-23)
(0.446965 0.118086 0)
(0.571426 0.154598 0)
(0.67225 0.185968 -6.10017e-23)
(0.743161 0.20995 1.27185e-22)
(0.779322 0.224676 -7.15497e-23)
(0.778238 0.228874 -6.8991e-23)
(0.740391 0.222061 -1.45581e-25)
(0.669481 0.204729 7.94679e-23)
(0.571848 0.178277 -8.24779e-23)
(0.45528 0.144698 0)
(0.327609 0.106184 0)
(0.195623 0.0646971 1.3495e-22)
(0.064251 0.0217577 1.3532e-22)
(0.303608 0.0781776 0)
(0.191013 0.0483559 -1.6801e-23)
(0.191603 0.0485199 2.57187e-23)
(0.114267 0.0285407 -3.90986e-24)
(0.114655 0.0286384 -2.81152e-23)
(0.0555296 0.0137501 0)
(0.0555961 0.0137728 6.68127e-24)
(0.0557744 0.0138125 7.37643e-24)
(0.0557069 0.013797 7.19073e-24)
(0.0179622 0.00441529 4.83474e-24)
(0.018 0.00442774 0)
(0.0180524 0.00443697 1.16288e-23)
(0.0180115 0.00443009 5.82343e-24)
(0.44352 0.117151 -5.50675e-23)
(0.56684 0.153299 6.73513e-23)
(0.666973 0.184371 -6.174e-23)
(0.737789 0.208239 0)
(0.774347 0.223058 6.92974e-23)
(0.773809 0.227422 0)
(0.736487 0.220768 -1.48625e-22)
(0.666061 0.203577 7.45422e-23)
(0.568899 0.177264 -8.26618e-23)
(0.452837 0.143846 0)
(0.325742 0.105524 0)
(0.194423 0.0642707 2.00439e-22)
(0.0637966 0.0216056 2.68953e-23)
(0.301342 0.0775762 5.36222e-23)
(0.189722 0.0480196 1.1867e-23)
(0.19033 0.0481871 0)
(0.113518 0.0283494 1.05565e-23)
(0.113895 0.0284434 -6.54942e-24)
(0.0551627 0.0136572 0)
(0.0552328 0.0136789 5.03312e-24)
(0.055403 0.0137215 5.80231e-24)
(0.0553377 0.0137078 -4.86562e-24)
(0.0178457 0.00438674 3.69176e-24)
(0.0178794 0.00439863 3.25067e-26)
(0.0179321 0.00440763 4.462e-24)
(0.0178912 0.0044001 4.25176e-24)
(0.439767 0.116136 7.02098e-25)
(0.561811 0.151846 -3.78543e-23)
(0.661319 0.182616 0)
(0.732293 0.206477 4.48302e-23)
(0.769384 0.221458 -1.26265e-25)
(0.769418 0.225994 1.38579e-22)
(0.732594 0.219476 5.80942e-25)
(0.662611 0.202407 1.51744e-22)
(0.565912 0.176231 0)
(0.45034 0.142969 -3.41288e-25)
(0.323832 0.104847 -1.62012e-22)
(0.193183 0.0638321 4.90137e-23)
(0.0633175 0.0214445 2.06373e-22)
(0.298852 0.07692 2.28269e-24)
(0.18842 0.0476755 0)
(0.189032 0.047846 2.68023e-23)
(0.11278 0.0281612 -1.09344e-23)
(0.113151 0.0282531 2.07166e-24)
(0.0548054 0.0135693 3.31104e-24)
(0.0548777 0.0135903 3.52154e-24)
(0.055041 0.0136296 9.68341e-25)
(0.0549793 0.0136169 4.14203e-24)
(0.0177244 0.00435519 2.50998e-24)
(0.0177612 0.00436665 0)
(0.0178081 0.00437884 3.21879e-24)
(0.0177783 0.00437558 2.09812e-25)
(0.435447 0.114966 4.32111e-23)
(0.556136 0.150159 -1.64919e-25)
(0.655305 0.180716 -4.81707e-23)
(0.726738 0.204722 4.67236e-23)
(0.764481 0.219905 -1.26421e-22)
(0.765072 0.224582 0)
(0.728695 0.218173 -7.11352e-23)
(0.659131 0.201216 0)
(0.562862 0.175167 0)
(0.447803 0.14207 3.4121e-25)
(0.321885 0.104151 -3.85692e-22)
(0.191892 0.0633731 -1.91482e-22)
(0.0628302 0.0212785 -2.09953e-22)
(0.29587 0.0761634 0)
(0.18698 0.0473001 7.70651e-24)
(0.187705 0.047498 -1.13959e-23)
(0.11203 0.0279682 -7.49845e-25)
(0.112418 0.0280647 -8.9398e-24)
(0.0544655 0.013483 1.80408e-24)
(0.0545318 0.0135043 -2.09461e-24)
(0.054691 0.013543 0)
(0.0546314 0.0135283 -2.66616e-24)
(0.0176077 0.00432742 1.41426e-24)
(0.0176459 0.00433823 0)
(0.0176893 0.00434918 4.58741e-24)
(0.0176614 0.00434643 -2.25507e-24)
(0.430165 0.113498 0)
(0.549594 0.148131 1.64454e-25)
(0.649055 0.178783 -5.05747e-23)
(0.721287 0.203057 6.19611e-23)
(0.759696 0.218395 -9.52872e-25)
(0.760767 0.223173 0)
(0.724784 0.216854 -1.08496e-24)
(0.655604 0.199998 5.94567e-25)
(0.55977 0.174078 0)
(0.445219 0.141146 3.68724e-22)
(0.319902 0.103435 3.97692e-25)
(0.190553 0.0628913 4.44039e-25)
(0.0623314 0.0211111 2.411e-23)
(0.291846 0.0751268 3.20299e-24)
(0.185159 0.0468592 4.47319e-27)
(0.186149 0.0471103 -4.46996e-27)
(0.111238 0.0277654 -7.03412e-25)
(0.111673 0.0278697 1.82484e-25)
(0.0541261 0.0133975 9.34639e-25)
(0.054197 0.0134197 7.7242e-25)
(0.0543501 0.0134567 -1.38656e-24)
(0.0542934 0.0134436 0)
(0.0175027 0.00430057 0)
(0.017535 0.00431148 6.86944e-25)
(0.0175783 0.00432267 -1.14473e-24)
(0.0175506 0.00431835 -1.10757e-24)
(0.423172 0.111435 2.91562e-23)
(0.542418 0.145942 0)
(0.642977 0.177014 3.60102e-25)
(0.716089 0.201477 0)
(0.755045 0.216912 8.84555e-25)
(0.756497 0.221762 0)
(0.720853 0.215518 5.3523e-25)
(0.65204 0.198755 -5.94476e-25)
(0.556638 0.172961 2.73879e-24)
(0.442609 0.140198 3.77205e-25)
(0.317843 0.102685 0)
(0.189207 0.06241 -2.47628e-22)
(0.0618188 0.0209364 2.29125e-23)
(0.284808 0.0732728 -3.38708e-23)
(0.182056 0.0461323 -5.25065e-24)
(0.183896 0.0466055 7.0649e-26)
(0.110284 0.0275355 -1.95577e-24)
(0.110837 0.0276566 1.48146e-24)
(0.0537915 0.0133149 0)
(0.0538634 0.0133367 9.10176e-25)
(0.0540159 0.0133713 6.85249e-26)
(0.0539604 0.0133572 -3.02983e-25)
(0.017393 0.0042739 -1.19362e-24)
(0.0174292 0.00428536 -4.85678e-25)
(0.0174687 0.00429507 6.61509e-26)
(0.0174429 0.00429221 -9.12735e-26)
(0.414487 0.108857 -4.53235e-23)
(0.535555 0.144065 0)
(0.637428 0.175404 6.77476e-25)
(0.711184 0.199958 -4.16548e-23)
(0.750514 0.215449 -4.227e-25)
(0.752257 0.220348 0)
(0.71691 0.214163 0)
(0.64844 0.197485 -2.29328e-22)
(0.55346 0.171814 -1.76501e-22)
(0.439927 0.139218 4.28606e-25)
(0.315767 0.101924 0)
(0.187835 0.0619079 -2.81843e-22)
(0.0612899 0.0207565 3.50047e-22)
(0.2726 0.0699436 2.28679e-23)
(0.174322 0.044067 1.36763e-24)
(0.179216 0.0455814 6.97989e-24)
(0.108586 0.0271755 0)
(0.109638 0.0273819 -2.47917e-24)
(0.0534304 0.0132257 4.02165e-24)
(0.0535191 0.0132509 2.50338e-24)
(0.0536735 0.0132838 0)
(0.0536225 0.0132694 8.41941e-25)
(0.0172913 0.00424906 -1.90847e-24)
(0.0173246 0.00425976 -1.45748e-24)
(0.0173628 0.00426832 -1.01053e-24)
(0.0173368 0.00426489 0)
(0.406519 0.106793 -5.81195e-25)
(0.52979 0.14247 -3.7357e-23)
(0.632456 0.173907 1.38222e-23)
(0.706551 0.198501 -5.82247e-25)
(0.746093 0.214008 0)
(0.74805 0.218928 0)
(0.712957 0.212789 6.88964e-23)
(0.644821 0.196191 1.60309e-22)
(0.550244 0.170642 3.78792e-25)
(0.437226 0.138214 -4.28513e-25)
(0.313629 0.101129 -2.83239e-22)
(0.186438 0.061396 -3.22903e-22)
(0.060745 0.0205665 3.98468e-22)
(0.262709 0.067405 6.55811e-25)
(0.155879 0.0396765 -1.4517e-23)
(0.165316 0.0413904 8.65919e-23)
(0.10345 0.0259558 -1.1104e-24)
(0.106957 0.0268492 -5.99794e-24)
(0.0528323 0.0130971 0)
(0.0530532 0.013143 -4.93063e-24)
(0.0532964 0.013195 -9.50693e-25)
(0.053193 0.0131648 -4.79651e-24)
(0.017182 0.0042226 -6.22102e-24)
(0.0172227 0.0042338 -2.68184e-24)
(0.0172605 0.00424249 0)
(0.0172341 0.00423886 1.53491e-25)
(0.400787 0.105201 1.72046e-23)
(0.52502 0.141056 3.38725e-23)
(0.627922 0.172512 0)
(0.702126 0.197094 5.83104e-25)
(0.741769 0.212583 -3.44202e-23)
(0.743877 0.217505 -3.95737e-25)
(0.709004 0.211396 2.52621e-25)
(0.641175 0.194871 0)
(0.547002 0.169438 -3.7864e-25)
(0.434466 0.137178 4.82142e-22)
(0.3115 0.100326 2.85141e-25)
(0.184988 0.0608515 -3.66219e-22)
(0.0601591 0.020374 0)
(0.257841 0.0658022 3.3543e-23)
(0.147565 0.0371584 -7.182e-24)
(0.150095 0.0379884 -4.65567e-26)
(0.0777068 0.0201033 1.40185e-23)
(0.0919802 0.0225754 -3.60035e-23)
(0.0491578 0.0119939 -8.15269e-25)
(0.0511694 0.0128601 -5.21536e-26)
(0.0525572 0.0130561 3.91779e-26)
(0.0520553 0.0129644 6.46944e-24)
(0.0170215 0.00418261 0)
(0.017095 0.00419937 -4.39397e-25)
(0.0171573 0.00421852 3.05417e-24)
(0.0171123 0.00420646 -1.8432e-25)
(0.396681 0.103978 2.15928e-24)
(0.52092 0.13982 2.47413e-24)
(0.623741 0.171221 -2.45572e-25)
(0.697885 0.195735 1.62482e-23)
(0.737543 0.211175 5.81746e-25)
(0.739742 0.216074 3.95918e-25)
(0.70506 0.209983 -5.04841e-25)
(0.63751 0.19352 0)
(0.543737 0.168208 -2.13163e-22)
(0.431685 0.136113 2.73564e-25)
(0.309286 0.0994813 -3.41248e-22)
(0.183471 0.0602928 0)
(0.0595487 0.0201695 -1.01469e-21)
(0.255133 0.0650026 5.26166e-24)
(0.145267 0.0363376 -3.59625e-24)
(0.146103 0.0365842 1.46743e-23)
(0.0716116 0.0177391 6.99064e-24)
(0.072743 0.0182923 -1.82048e-25)
(0.0183956 0.00494489 -2.10764e-24)
(0.0205883 0.00508481 2.31016e-24)
(0.0448013 0.0102307 -1.07296e-24)
(0.030177 0.00506469 0)
(0.0157621 0.00401718 3.26027e-24)
(0.0164793 0.00412052 7.43022e-26)
(0.0169419 0.00416786 4.73416e-24)
(0.0167783 0.00414229 3.66567e-25)
(0.393364 0.103013 -2.77831e-24)
(0.517245 0.138721 6.78096e-24)
(0.619826 0.170005 1.79978e-23)
(0.693805 0.194411 0)
(0.733399 0.209772 -2.72841e-25)
(0.735648 0.214633 0)
(0.701124 0.208549 5.55543e-23)
(0.633843 0.192145 0)
(0.540448 0.166944 0)
(0.428867 0.135022 3.16831e-24)
(0.307037 0.0986162 0)
(0.181916 0.0597139 9.79372e-22)
(0.0589372 0.019959 -5.70091e-22)
(0.253141 0.0645293 1.17603e-23)
(0.144153 0.0361172 1.22047e-25)
(0.144598 0.0362015 -1.27672e-23)
(0.0706973 0.0174576 6.87163e-26)
(0.0710451 0.0175561 -1.38088e-23)
(0.0167089 0.00410929 4.85331e-24)
(0.0167797 0.00414377 5.49173e-24)
(0.0172621 0.00435882 -2.91929e-24)
(0.016841 0.00421031 -3.47391e-24)
(0.0146783 0.00369642 -3.92795e-26)
(0.0083059 0.00128477 -7.22917e-23)
(0.390544 0.102215 -7.54848e-24)
(0.51392 0.137725 1.9193e-23)
(0.616121 0.16884 0)
(0.68986 0.193112 0)
(0.729337 0.208375 -1.79238e-23)
(0.731593 0.213181 -5.37497e-23)
(0.697198 0.207091 2.58095e-25)
(0.630168 0.190737 0)
(0.537133 0.165647 2.50098e-22)
(0.425988 0.133889 -3.10443e-22)
(0.304727 0.0977173 -4.08612e-22)
(0.180316 0.0591079 0)
(0.0582726 0.0197373 -6.48615e-22)
(0.251438 0.0641251 -1.47872e-23)
(0.143289 0.0359518 0)
(0.14365 0.03603 -1.84539e-23)
(0.0702843 0.017385 0)
(0.070467 0.0174243 -5.12929e-24)
(0.016645 0.00408775 -4.91954e-24)
(0.0166527 0.00408989 -5.22967e-24)
(0.0166874 0.00410312 0)
(0.0166741 0.00409936 4.96473e-24)
(0.388033 0.101503 -1.84277e-23)
(0.510831 0.136793 2.54941e-25)
(0.612593 0.167717 -1.39769e-23)
(0.686032 0.191831 2.06121e-23)
(0.725351 0.206976 -1.22923e-23)
(0.727582 0.211711 -1.63007e-25)
(0.693291 0.205606 -5.45935e-23)
(0.626495 0.189298 0)
(0.533771 0.164308 2.74189e-23)
(0.423072 0.13272 0)
(0.302343 0.096779 0)
(0.178656 0.0584833 0)
(0.057594 0.0195136 -7.38888e-22)
(0.249943 0.0637476 0)
(0.142496 0.0357672 0)
(0.142833 0.0358542 2.32815e-23)
(0.0699247 0.0173111 -6.98424e-24)
(0.0701061 0.0173584 0)
(0.0165954 0.00407913 0)
(0.0165972 0.00408028 -5.83439e-24)
(0.0166243 0.00408669 1.04143e-23)
(0.0166236 0.00408573 -4.15727e-26)
(0.385755 0.100854 -2.75496e-25)
(0.507913 0.135902 1.55413e-23)
(0.609199 0.166618 2.07656e-23)
(0.682303 0.190557 1.28129e-23)
(0.721434 0.20557 0)
(0.723613 0.210223 8.03539e-23)
(0.689406 0.204093 -5.45939e-23)
(0.622802 0.18782 3.10481e-22)
(0.530388 0.162932 2.68832e-25)
(0.420118 0.131519 -3.74238e-22)
(0.299915 0.095813 0)
(0.176956 0.0578396 0)
(0.0568967 0.019282 8.49608e-22)
(0.24857 0.0633879 3.08815e-25)
(0.141743 0.0355791 0)
(0.142057 0.0356642 0)
(0.0695623 0.0172258 -7.96615e-24)
(0.0697441 0.0172756 1.02937e-25)
(0.0165184 0.00405857 -2.77934e-25)
(0.01653 0.00406387 0)
(0.0165652 0.00407529 6.29113e-24)
(0.0165592 0.00407112 6.55892e-24)
(0.383604 0.100233 4.60725e-25)
(0.505132 0.135041 -2.56969e-23)
(0.60593 0.16554 0)
(0.678677 0.18929 1.91991e-26)
(0.717585 0.204153 -2.76016e-23)
(0.719686 0.208712 5.30512e-23)
(0.685532 0.202548 -1.38682e-22)
(0.619099 0.186305 -9.44935e-23)
(0.526997 0.161521 3.27933e-22)
(0.417106 0.130271 0)
(0.297462 0.0948167 0)
(0.175169 0.0571556 -7.79143e-22)
(0.0561553 0.0190483 9.43859e-22)
(0.247269 0.0630385 -1.27713e-25)
(0.141031 0.0353952 1.39775e-25)
(0.141327 0.0354801 -1.39818e-25)
(0.0692188 0.0171425 0)
(0.0693862 0.0171868 0)
(0.0164371 0.00403958 0)
(0.0164492 0.00404462 8.03105e-24)
(0.0164857 0.00405457 7.56439e-24)
(0.0164805 0.00405185 7.81109e-24)
(0.381574 0.0996412 -4.60516e-25)
(0.502484 0.134206 0)
(0.602765 0.16447 4.23203e-23)
(0.675138 0.188017 2.62579e-23)
(0.713807 0.202722 3.18703e-26)
(0.715802 0.207174 5.36794e-23)
(0.681676 0.200967 8.87216e-23)
(0.615407 0.184748 0)
(0.523563 0.160057 0)
(0.414063 0.128974 -4.54687e-22)
(0.294876 0.0937586 0)
(0.173304 0.0564662 0)
(0.0553694 0.018768 1.07687e-21)
(0.24603 0.0626988 2.72039e-26)
(0.140338 0.0352167 -1.6033e-25)
(0.140636 0.0353032 1.60384e-25)
(0.0688757 0.017058 0)
(0.069049 0.0171033 0)
(0.0163672 0.00402164 0)
(0.0163691 0.00402533 -9.36875e-24)
(0.0164069 0.00403468 -8.78697e-24)
(0.0163989 0.00403186 9.03739e-24)
(0.379638 0.099067 -8.70986e-23)
(0.499934 0.133383 -1.16333e-22)
(0.599707 0.163404 -2.83903e-23)
(0.671687 0.186736 0)
(0.710091 0.201269 1.40835e-26)
(0.711959 0.205606 0)
(0.677835 0.199343 0)
(0.611695 0.183141 0)
(0.520074 0.158534 3.98584e-22)
(0.410917 0.127623 0)
(0.29221 0.0926637 0)
(0.171336 0.0557574 -9.87876e-22)
(0.0547421 0.0183379 1.22244e-21)
(0.244848 0.0623746 1.02144e-22)
(0.139687 0.0350428 -1.70631e-25)
(0.139963 0.0351251 3.62476e-25)
(0.0685427 0.0169749 0)
(0.0687098 0.0170221 0)
(0.0162835 0.00400301 1.08248e-23)
(0.0162976 0.00400762 -1.05092e-23)
(0.0163342 0.00401647 -9.89645e-24)
(0.0163275 0.00401352 1.00605e-23)
(0.377801 0.0985142 8.09108e-23)
(0.497495 0.13257 -2.58585e-25)
(0.596747 0.162332 0)
(0.668316 0.18544 0)
(0.706439 0.199793 -1.742e-23)
(0.708157 0.204003 -1.72907e-23)
(0.674011 0.197677 -6.15973e-23)
(0.607953 0.18148 0)
(0.516557 0.156964 -3.87722e-25)
(0.407683 0.126208 0)
(0.289482 0.0915321 0)
(0.169215 0.0548951 -1.12126e-21)
(0.055241 0.017983 1.42381e-21)
(0.243724 0.0620751 2.37473e-25)
(0.139054 0.0348809 4.04149e-25)
(0.13931 0.034954 -5.95894e-25)
(0.0682243 0.016893 0)
(0.0683886 0.0169369 -1.2255e-23)
(0.0162094 0.00398349 1.20702e-23)
(0.0162195 0.00398882 -1.17951e-23)
(0.0162576 0.00400059 0)
(0.0162476 0.00399545 0)
(0.376049 0.0979746 1.1658e-22)
(0.495162 0.131755 9.79543e-23)
(0.593891 0.161255 0)
(0.665028 0.184132 1.8154e-23)
(0.702856 0.198295 1.73879e-23)
(0.704398 0.202362 4.43406e-23)
(0.6702 0.195962 0)
(0.604212 0.179765 0)
(0.512958 0.15532 4.13307e-22)
(0.404443 0.124735 0)
(0.286338 0.0902704 0)
(0.16928 0.0537988 6.15886e-23)
(0.0492468 0.0151449 -5.95684e-23)
(0.242662 0.061807 -1.37358e-22)
(0.138435 0.0347404 0)
(0.138695 0.034803 5.8013e-23)
(0.0679208 0.0168178 0)