/*--------------------------------*- C++ -*----------------------------------*\
| =========                 |                                                 |
| \\      /  F ield         | OpenFOAM: The Open Source CFD Toolbox           |
|  \\    /   O peration     | Version:  v1912                                 |
|   \\  /    A nd           | Website:  www.openfoam.com                      |
|    \\/     M anipulation  |                                                 |
\*---------------------------------------------------------------------------*/
FoamFile
{
    version     2.0;
    format      ascii;
    class       surfaceScalarField;
    location    "260";
    object      phi;
}
// * * * * * * * * * * * * * * * * * * * * * * * * * * * * * * * * * * * * * //

dimensions      [0 3 -1 0 0 0 0];
oriented        oriented;


internalField   nonuniform List<scalar> 
7194
(
-1.8071e-06
0.00131954
0.00396071
-1.9572e-06
0.00132149
-9.08257e-06
0.00396784
-2.10902e-06
0.0013236
-2.41695e-05
0.0065738
-9.46662e-06
0.0039752
-2.11229e-06
0.00132572
-4.4782e-05
0.00905252
-2.40353e-05
0.00658837
-9.46888e-06
0.00398255
-1.99334e-06
0.00132771
-7.49948e-05
0.0112922
-4.80454e-05
0.00907653
-2.35557e-05
0.00660246
-9.34231e-06
0.0039899
-2.03529e-06
0.00132974
-0.000115673
0.013156
-7.90203e-05
0.0113232
-4.53364e-05
0.00909831
-2.41692e-05
0.00661729
-9.72538e-06
0.00399759
-1.71906e-06
0.00133146
-0.000161999
0.0145165
-0.000119336
0.0131964
-7.89102e-05
0.0113568
-4.6318e-05
0.00912046
-2.17494e-05
0.00662931
-8.0838e-06
0.00400396
-1.59523e-06
0.00133306
-0.000208156
0.0152614
-0.000164919
0.0145621
-0.000117683
0.0132351
-7.32324e-05
0.0113837
-4.13939e-05
0.00914011
-1.95527e-05
0.00664078
-7.26446e-06
0.00400963
-1.49155e-06
0.00133455
-0.000249363
0.0153212
-0.000214325
0.0153109
-0.000162261
0.0146067
-0.000112389
0.0132743
-7.06318e-05
0.0114129
-3.77538e-05
0.00915831
-1.82153e-05
0.00665173
-6.64185e-06
0.00401478
-1.16576e-06
0.00133572
-0.000279702
0.0146614
-0.000258291
0.0153651
-0.000211322
0.0153599
-0.000155763
0.01465
-0.00010088
0.0133045
-6.16669e-05
0.0114368
-3.35245e-05
0.00917362
-1.55233e-05
0.00666061
-4.57217e-06
0.00401818
-1.17969e-06
0.0013369
-0.00029312
0.0133175
-0.00030061
0.0147037
-0.000258229
0.015412
-0.000197672
0.0154018
-0.000136922
0.0146861
-9.19936e-05
0.0133349
-5.42496e-05
0.0114575
-2.99104e-05
0.009188
-1.417e-05
0.00667021
-5.19809e-06
0.0040222
-8.47156e-07
0.00133774
-0.000286308
0.0113727
-0.000331019
0.0133479
-0.000296595
0.0147421
-0.000237192
0.0154516
-0.00017336
0.0154383
-0.000122448
0.0147165
-7.83912e-05
0.013359
-4.7494e-05
0.0114751
-2.56403e-05
0.00919947
-1.0892e-05
0.0066759
-4.57701e-06
0.00402593
-7.52645e-07
0.0013385
-0.000245887
0.0089612
-0.000350959
0.0113926
-0.000326867
0.0133782
-0.000263614
0.0147685
-0.000200921
0.0154791
-0.000149188
0.015465
-0.000102315
0.0147405
-6.57163e-05
0.0133772
-3.9439e-05
0.0114889
-2.14316e-05
0.00921001
-1.13724e-05
0.0066827
-4.17124e-06
0.00402935
-7.8877e-07
0.00133928
-5.06179e-05
0.00623589
-0.000109771
-0.000357619
0.00896786
-0.000344148
0.0114099
-0.000276282
0.0133908
-0.000217336
0.0147849
-0.000166502
0.0154964
-0.000119494
0.0154822
-8.41124e-05
0.0147589
-5.79084e-05
0.0133957
-3.63059e-05
0.0115038
-2.063e-05
0.00921927
-1.02407e-05
0.00668877
-4.00998e-06
0.00403257
-7.73429e-07
0.00134006
0.00211639
-0.00213454
-3.2463e-05
-0.000141718
0.00622183
-0.000201838
0.00207042
-6.38075e-05
-0.000349435
0.00897315
-0.000268965
0.0114026
-0.000211478
0.013385
-0.000166852
0.0147853
-0.000129399
0.0155063
-0.000101096
0.0154992
-7.35229e-05
0.0147745
-4.77298e-05
0.0134071
-3.02359e-05
0.0115134
-1.74111e-05
0.00922644
-8.68723e-06
0.00669345
-3.88736e-06
0.00403569
-8.41242e-07
0.0013409
-2.0069e-05
0.00139553
-0.00142044
-9.07786e-07
-6.64336e-06
0.00203979
-0.000111084
-0.000195279
0.00620758
-0.000139908
0.00201201
-0.000174058
0.00135213
-1.5504e-05
-4.90677e-06
-0.000228111
0.0089323
-0.000183618
0.0113747
-0.000153936
0.0133721
-0.000128568
0.0147844
-0.000105102
0.0155103
-8.05632e-05
0.0155062
-5.74013e-05
0.0147841
-4.22866e-05
0.0134192
-2.7693e-05
0.0115237
-1.87938e-05
0.00923655
-1.02212e-05
0.00669978
-3.43106e-06
0.00403828
-1.08311e-06
0.00134198
-3.60228e-06
-5.95325e-08
0.000445602
-0.000445743
-7.66217e-07
0.000440712
-1.75358e-06
0.00129767
-1.68545e-05
-3.976e-05
0.00198825
-0.000171515
-0.000100396
0.00612149
-4.1625e-05
0.00195754
-0.000109199
0.00126345
-8.68896e-05
-5.29548e-05
-0.000438446
0.000428433
-5.49108e-06
-2.6406e-06
-0.000124684
0.00887336
-0.000116992
0.0113378
-0.000107404
0.0133509
-9.59218e-05
0.0147753
-7.99303e-05
0.0155097
-6.37477e-05
0.0155125
-5.20235e-05
0.0147939
-3.8373e-05
0.0134298
-2.70718e-05
0.011532
-1.71474e-05
0.00924347
-1.07577e-05
0.00670711
-4.98669e-06
0.00404218
-1.1437e-06
0.00134313
-0.000448284
-1.06124e-06
-1.82953e-08
0.000260971
-0.000261675
-6.18785e-08
0.000259492
-2.74682e-07
0.000420759
-9.18078e-06
0.000399253
-1.82544e-05
0.0012354
-7.99451e-05
-6.35184e-05
0.00191156
-5.44177e-05
-3.65013e-05
0.00604154
-8.22817e-06
0.00189423
-2.42943e-05
0.00118359
-1.70009e-05
-4.03917e-05
-0.000379471
0.00035248
-5.98986e-05
-3.31727e-05
-0.000257265
0.000252536
-7.62664e-07
-4.13172e-07
-6.70049e-05
0.00882337
-7.4599e-05
0.011305
-7.60547e-05
0.013331
-7.23345e-05
0.0147677
-6.48218e-05
0.0155108
-5.78634e-05
0.0155184
-4.67056e-05
0.0148022
-3.66854e-05
0.0134395
-2.9114e-05
0.0115439
-2.05298e-05
0.00925325
-1.06003e-05
0.00671272
-5.30929e-06
0.00404635
-1.21056e-06
0.00134434
-0.000262623
-1.13828e-07
-4.47453e-08
7.55814e-05
-7.56432e-05
7.53067e-05
0.000245079
-1.72373e-06
0.000230602
-3.77725e-06
0.000330912
-5.83769e-05
0.00031087
-4.34761e-05
0.00114214
-1.03928e-05
-2.56842e-06
0.00187026
-1.25386e-05
-1.53074e-05
0.00599046
-6.22907e-07
0.00186747
-5.43188e-06
0.00112115
-1.74908e-07
-3.13537e-06
-0.000289135
0.000278442
-6.30773e-06
-1.86568e-05
-0.00020715
0.000168528
-2.12766e-05
-9.72049e-06
-7.48935e-05
7.41309e-05
-3.7215e-05
0.00878599
-4.88547e-05
0.0112778
-5.41532e-05
0.0133129
-5.45109e-05
0.0147574
-5.40109e-05
0.0155069
-4.88974e-05
0.0155206
-4.30637e-05
0.0148086
-3.79296e-05
0.0134483
-2.94824e-05
0.0115529
-2.03294e-05
0.00926297
-1.36125e-05
0.00672102
-6.1541e-06
0.00405129
-1.53395e-06
0.00134587
-7.57571e-05
7.24071e-05
6.86299e-05
0.000147784
-3.76328e-05
0.000104308
0.000270325
-2.27619e-06
0.000268428
-6.70604e-07
0.0011096
-1.20049e-06
2.16728e-07
0.00185569
-3.53307e-06
-7.87765e-06
0.00596016
9.58778e-07
0.00185607
-1.00263e-06
0.00110426
5.4949e-07
-6.37899e-07
-0.000265667
0.000265584
-9.26436e-08
-3.74585e-07
-8.56509e-05
7.93432e-05
-5.89094e-05
3.76328e-05
-2.19824e-05
0.00875912
-3.34027e-05
0.011257
-4.04948e-05
0.0132988
-4.65897e-05
0.0147499
-4.74932e-05
0.0155055
-4.65927e-05
0.0155241
-4.57911e-05
0.0148164
-4.05606e-05
0.0134594
-3.25376e-05
0.0115651
-2.50701e-05
0.00927443
-1.51009e-05
0.00672997
-6.92025e-06
0.00405668
-1.57184e-06
0.00134744
7.7067e-05
7.63964e-05
0.000264557
-1.72985e-07
0.000264749
2.46271e-08
0.00110083
-3.34078e-07
2.24384e-07
0.00184961
-1.41316e-06
-4.9896e-06
0.00594152
1.6543e-06
0.00185119
-6.24076e-07
0.00109975
4.0315e-07
-3.22737e-07
-0.000264055
0.000264545
5.92888e-08
5.6464e-08
-7.60218e-05
7.59292e-05
-1.39815e-05
0.0087397
-2.48336e-05
0.0112414
-3.19035e-05
0.0132842
-3.76563e-05
0.0147401
-4.42946e-05
0.0155032
-4.75686e-05
0.0155259
-4.91965e-05
0.0148251
-4.52616e-05
0.0134721
-3.93024e-05
0.0115793
-2.84885e-05
0.00928782
-1.69871e-05
0.00674004
-7.76528e-06
0.00406287
-1.93437e-06
0.00134938
7.57562e-05
7.57808e-05
0.000264297
-8.62725e-08
0.000264466
5.56351e-08
0.00109837
-1.88154e-07
1.51869e-07
0.00184686
-6.5381e-07
-3.13844e-06
0.00592971
9.69161e-07
0.00184854
-2.78008e-08
0.00109765
2.63681e-07
-1.61146e-07
-0.000264063
0.000264433
3.30468e-08
8.05755e-08
-7.58373e-05
7.58966e-05
-1.01254e-05
0.00872499
-1.71888e-05
0.0112267
-2.73526e-05
0.0132739
-3.54139e-05
0.0147312
-4.36463e-05
0.0154993
-5.32825e-05
0.01553
-5.56205e-05
0.0148354
-5.41258e-05
0.0134869
-4.51394e-05
0.011596
-3.39593e-05
0.00930479
-2.04008e-05
0.00675267
-9.33065e-06
0.00407027
-2.03451e-06
0.00135141
7.58103e-05
7.58659e-05
0.000264313
-6.84589e-08
0.000264432
3.26847e-08
0.0010971
-1.51727e-07
4.72086e-08
0.00184594
-5.42389e-07
-1.85573e-06
0.00592069
7.43765e-07
0.00184669
2.26574e-07
0.00109691
2.53084e-07
-9.53399e-08
-0.000264205
0.000264458
1.0709e-08
6.57222e-08
-7.59465e-05
7.59795e-05
-7.03381e-06
0.00871483
-1.42211e-05
0.0112135
-2.48808e-05
0.0132633
-3.62134e-05
0.0147238
-4.90674e-05
0.0154951
-5.89537e-05
0.0155333
-6.57117e-05
0.014847
-6.33823e-05
0.0135051
-5.32946e-05
0.0116153
-3.58392e-05
0.00932023
-2.07317e-05
0.00676407
-8.87182e-06
0.0040771
-1.84636e-06
0.00135326
7.59111e-05
7.59438e-05
0.000264386
-7.94398e-08
0.000264416
1.68638e-08
0.00109642
-8.7557e-08
3.49673e-08
0.00184522
-3.86842e-07
-1.47381e-06
0.00591397
1.16551e-06
0.00184578
1.82516e-07
0.00109659
1.64473e-07
-1.07773e-07
-0.00026425
0.000264495
8.38468e-09
7.10562e-08
-7.60095e-05
7.60202e-05
-5.89329e-06
0.00870651
-1.29487e-05
0.0112016
-2.38883e-05
0.013251
-4.19762e-05
0.0147167
-6.07405e-05
0.0154969
-7.54822e-05
0.0155431
-7.93682e-05
0.014863
-7.30478e-05
0.0135249
-5.86017e-05
0.0116381
-4.10494e-05
0.00934055
-2.28764e-05
0.00677808
-8.77757e-06
0.00408403
-1.91604e-06
0.00135517
7.59408e-05
7.59576e-05
0.000264487
-8.02908e-08
0.000264508
1.41234e-08
0.00109627
-1.98556e-08
-4.4141e-08
0.00184451
-2.09168e-07
-1.17149e-06
0.00590827
9.75021e-07
0.00184545
2.27724e-07
0.00109633
1.62787e-07
-4.29899e-08
-0.000264332
0.000264494
2.23368e-09
6.83597e-08
-7.60287e-05
7.60371e-05
-4.07872e-06
0.00869764
-1.2658e-05
0.0111904
-2.83652e-05
0.0132374
-4.72003e-05
0.0147032
-7.06955e-05
0.0154921
-8.93217e-05
0.015553
-9.72329e-05
0.0148872
-8.67589e-05
0.0135531
-6.63274e-05
0.0116634
-4.3341e-05
0.00936101
-2.23749e-05
0.00679168
-9.47508e-06
0.00409159
-2.49546e-06
0.00135767
7.59568e-05
7.59709e-05
0.000264555
-7.99594e-08
0.000264502
8.59543e-09
0.00109618
-1.83978e-08
-3.82504e-08
0.00184446
-1.81724e-07
-6.37258e-07
0.005904
8.31158e-07
0.0018452
2.35943e-07
0.00109627
1.66541e-07
-3.11239e-08
-0.000264362
0.000264519
5.62394e-09
9.70999e-08
-7.60393e-05
7.60415e-05
-5.03083e-06
0.00869001
-1.50665e-05
0.0111771
-3.41645e-05
0.0132243
-6.48131e-05
0.0146973
-9.40179e-05
0.0154968
-0.000112819
0.0155686
-0.000113022
0.0149135
-9.71583e-05
0.0135839
-7.13104e-05
0.0116913
-4.45628e-05
0.0093832
-2.27162e-05
0.00680492
-7.71943e-06
0.00409682
-7.21861e-07
0.00135839
7.59616e-05
7.59702e-05
0.000264584
-8.34133e-08
0.000264529
1.63161e-08
0.00109615
-1.1166e-08
-4.84438e-08
0.00184455
1.44538e-08
-3.39158e-07
0.00589887
4.38856e-07
0.00184511
2.72665e-07
0.00109624
1.6508e-07
-2.2084e-08
-0.000264433
0.000264593
6.20198e-09
6.54443e-08
-7.60673e-05
7.60729e-05
-4.31345e-06
0.00867926
-2.02722e-05
0.0111632
-4.79716e-05
0.0132075
-8.4584e-05
0.0146878
-0.00011847
0.0155024
-0.000136552
0.0155921
-0.000129882
0.0149462
-0.000106608
0.0136192
-7.49426e-05
0.0117217
-4.19655e-05
0.00940245
-2.13053e-05
0.0068185
-6.69763e-06
0.00410279
-6.52426e-07
0.00135904
7.59895e-05
7.60058e-05
0.00026467
-8.78512e-08
0.000264513
1.0858e-07
0.0010963
-6.53053e-09
-3.83097e-08
0.00184471
6.04977e-08
1.87965e-07
0.0058951
-7.39518e-07
0.00184501
1.35594e-07
0.00109642
1.69283e-07
-1.58619e-08
-0.000264504
0.000264676
-6.4052e-09
-1.33654e-08
-7.60712e-05
7.60774e-05
-7.51095e-06
0.00866649
-2.77142e-05
0.0111429
-6.47979e-05
0.0131877
-0.000113553
0.0146829
-0.000151216
0.0155171
-0.000163395
0.0156257
-0.000144766
0.0149843
-0.000110884
0.0136551
-7.21565e-05
0.0117519
-4.10403e-05
0.00942219
-1.7403e-05
0.00682921
-6.19112e-06
0.00410833
-4.01522e-07
0.00135945
7.59896e-05
7.60982e-05
0.000264715
-4.64209e-08
0.000264565
1.11911e-07
0.00109651
3.73377e-09
-3.24235e-08
0.0018451
9.83705e-08
1.06518e-06
0.00588756
-1.0347e-06
0.00184421
1.48662e-07
0.00109649
1.70146e-07
-1.32291e-08
-0.000264561
0.000264735
-5.21753e-09
-1.1377e-08
-7.60848e-05
7.60784e-05
-1.11637e-05
0.00864994
-4.05496e-05
0.0111187
-9.51854e-05
0.0131694
-0.000151581
0.0146833
-0.000188144
0.0155419
-0.000185602
0.0156665
-0.00015484
0.0150283
-0.0001109
0.0136939
-6.80827e-05
0.0117789
-3.63345e-05
0.00944112
-1.59423e-05
0.00683896
-2.98424e-06
0.00411091
-1.80235e-07
0.00135963
7.6032e-05
7.61439e-05
0.000264818
-7.87614e-08
0.000264673
1.12755e-07
0.00109661
3.47057e-09
-2.37398e-08
0.0018451
1.75221e-07
1.39754e-06
0.005877
-2.00044e-06
0.00184425
-1.87411e-07
0.00109661
1.65994e-07
-1.96941e-08
-0.00026467
0.000264845
-5.44857e-09
-1.01368e-08
-7.61325e-05
7.61273e-05
-1.82945e-05
0.00862769
-6.45936e-05
0.0110881
-0.000135472
0.0131532
-0.000199394
0.0146945
-0.000223279
0.0155795
-0.000197429
0.0157091
-0.000153497
0.0150709
-0.000101739
0.0137275
-6.09173e-05
0.0118035
-3.09043e-05
0.00945608
-1.06636e-05
0.00684664
-2.72727e-06
0.00411346
1.93184e-07
0.00135943
7.60485e-05
7.61613e-05
0.000264892
-4.36841e-08
0.000264789
7.96667e-08
0.00109681
3.79597e-11
-2.92829e-08
0.00184519
4.66624e-07
9.11597e-07
0.00586124
-3.44553e-06
0.0018436
-4.09605e-07
0.00109644
1.79571e-07
3.28833e-09
-0.000264747
0.000264921
-8.13699e-09
2.22273e-08
-7.61512e-05
7.61457e-05
-3.08333e-05
0.00859393
-0.000100849
0.0110535
-0.000191796
0.0131456
-0.000248955
0.0147202
-0.000241216
0.0156233
-0.000200696
0.0157563
-0.000142572
0.0151117
-9.26276e-05
0.0137592
-5.17489e-05
0.0118244
-2.28056e-05
0.00946822
-6.46567e-06
0.00685038
7.6777e-07
0.00411289
1.74561e-06
0.00135769
7.6102e-05
7.61817e-05
0.000265005
-8.37797e-08
0.000264884
9.14101e-08
0.0010969
1.83949e-08
-1.16961e-08
0.00184396
5.44065e-07
1.63554e-06
0.00583466
-5.89046e-06
0.00184116
-6.40778e-07
0.00109638
1.08636e-07
7.17362e-09
-0.000264878
0.000265055
2.71096e-09
9.54876e-09
-7.62039e-05
7.61958e-05
-5.54162e-05
0.0085485
-0.000161292
0.011023
-0.000260099
0.0131568
-0.000281253
0.0147603
-0.000245578
0.0156682
-0.000184508
0.0157982
-0.000126453
0.0151456
-7.70905e-05
0.0137846
-4.12071e-05
0.0118428
-1.56444e-05
0.0094774
-3.02071e-06
0.00685417
1.67019e-06
0.00411296
2.0778e-06
0.00135561
7.6112e-05
7.62034e-05
0.000265151
-7.76184e-08
0.000265043
9.66305e-08
0.00109689
9.37971e-08
-6.31604e-08
0.00184283
-3.98496e-08
-1.85198e-07
0.00579149
-1.20527e-05
0.00183789
-9.47692e-07
0.00109612
5.05098e-08
8.09794e-08
-0.000265038
0.000265148
-1.53881e-09
1.18876e-08
-7.6213e-05
7.62157e-05
-0.000104403
0.00849161
-0.000242778
0.0110056
-0.000310842
0.0131864
-0.00028791
0.0148026
-0.000224202
0.0157079
-0.00015947
0.0158312
-0.000103649
0.0151721
-6.14699e-05
0.0138048
-2.86242e-05
0.0118557
-9.30155e-06
0.00948368
1.03634e-06
0.0068548
5.28212e-06
0.00410976
2.47582e-06
0.00135313
7.61381e-05
7.62347e-05
0.000265287
-4.52196e-08
0.000265155
6.90456e-08
0.00109603
1.77348e-07
-1.26046e-07
0.00183851
-8.06934e-07
-5.21541e-06
0.00572028
-2.7981e-05
0.00182934
-2.87807e-06
0.00109498
-7.64671e-11
9.91318e-08
-0.00026519
0.000265235
5.67677e-09
4.55426e-08
-7.62466e-05
7.6245e-05
-0.000192413
0.00844124
-0.000330316
0.0110251
-0.000322657
0.0132211
-0.000256234
0.0148346
-0.000188644
0.0157371
-0.000129877
0.0158575
-8.22398e-05
0.0151929
-4.36735e-05
0.0138199
-1.8372e-05
0.0118648
-2.29724e-06
0.00948701
3.70254e-06
0.00685638
7.33103e-06
0.0041049
2.85682e-06
0.00135028
7.61998e-05
7.62689e-05
0.000265485
-7.2657e-08
0.000265256
1.0261e-07
0.00109415
1.9258e-07
-1.70378e-07
0.00182742
-3.29319e-06
-2.60515e-05
0.00562501
-7.10948e-05
0.00180819
-8.75586e-06
0.00109149
-3.12856e-07
9.7963e-08
-0.00026534
0.00026537
-2.97442e-08
1.53223e-08
-7.63144e-05
7.63201e-05
-0.000323473
0.0084344
-0.00034879
0.0110512
-0.000275699
0.0132406
-0.000206407
0.0148524
-0.000147308
0.0157545
-9.96202e-05
0.0158748
-5.86266e-05
0.0152078
-2.91554e-05
0.0138307
-8.47048e-06
0.011871
4.04775e-06
0.00948667
1.08627e-05
0.00685285
7.65869e-06
0.0041001
3.33181e-06
0.00134694
7.62474e-05
7.63501e-05
0.00026559
-2.768e-08
0.000265342
7.78326e-08
0.00108824
4.4641e-07
-4.90786e-07
0.00179621
-1.40713e-05
-9.55396e-05
0.00557194
-0.00017486
0.00175615
-3.1036e-05
0.00108013
-8.0599e-07
1.58284e-07
-0.000265388
0.00026511
-3.4243e-08
5.17052e-08
-7.63654e-05
7.63356e-05
-0.000362865
0.00844848
-0.000275453
0.011051
-0.000206214
0.0132404
-0.000154063
0.0148591
-0.000108392
0.0157633
-6.94768e-05
0.0158857
-3.92856e-05
0.015218
-1.37539e-05
0.013836
2.9236e-06
0.0118721
1.15523e-05
0.00948598
1.20034e-05
0.0068485
9.22043e-06
0.00409421
3.87009e-06
0.00134307
7.6308e-05
7.63858e-05
0.000265603
-4.70809e-08
0.000265034
7.793e-08
0.00106736
1.39129e-07
-1.43813e-06
0.00172032
-5.97051e-05
-0.000195718
0.00556538
-0.000160587
0.00167147
-0.000126011
0.00104017
-3.58972e-06
-2.52242e-07
-0.000265168
0.000264438
-7.66485e-08
2.48689e-08
-7.64375e-05
7.64033e-05
-0.000239617
0.00841264
-0.000179066
0.0110238
-0.000139273
0.0132256
-0.000103701
0.0148544
-7.40747e-05
0.0157679
-4.67372e-05
0.0158931
-2.05809e-05
0.0152248
-3.55911e-06
0.0138424
1.09006e-05
0.0118728
1.54276e-05
0.00948255
1.95338e-05
0.00683819
1.07606e-05
0.00408732
4.6001e-06
0.00133847
7.63562e-05
7.64341e-05
0.000264679
-1.0126e-07
0.000263268
-2.70799e-08
0.000993121
-2.17125e-06
-1.0489e-05
0.0016442
-0.000168446
-0.00010687
0.00547532
-4.26843e-05
0.00161075
-0.000127143
0.000918444
-3.70384e-05
-1.42948e-05
-0.000263085
0.000260017
-5.21495e-07
-6.94637e-08
-7.6459e-05
7.63823e-05
-0.000121186
0.00835476
-0.000106578
0.0109911
-8.96134e-05
0.0132115
-6.94537e-05
0.0148498
-4.85077e-05
0.0157696
-2.47888e-05
0.0158974
-6.68395e-06
0.0152279
8.39537e-06
0.0138449
1.81823e-05
0.01187
2.16529e-05
0.00948044
1.75355e-05
0.00683142
1.52037e-05
0.00407672
6.31714e-06
0.00133216
7.62811e-05
7.6254e-05
0.000258451
-6.05377e-07
0.000249694
-1.7316e-06
0.000873002
-5.94786e-05
-6.35258e-05
0.00155868
-5.47969e-05
-3.17126e-05
0.00539114
-5.2966e-06
0.00153607
-2.00792e-05
0.000809397
-1.86371e-05
-4.49014e-05
-0.000239214
0.000212135
-9.95881e-06
-3.81554e-06
-7.61845e-05
7.5663e-05
-5.66057e-05
0.00830479
-5.89995e-05
0.0109605
-5.3121e-05
0.0131952
-4.10541e-05
0.0148424
-2.32274e-05
0.0157681
-7.07783e-06
0.0158978
6.80669e-06
0.0152295
2.06931e-05
0.0138424
2.5832e-05
0.0118658
2.832e-05
0.00946965
2.55881e-05
0.00682103
1.53613e-05
0.00406767
5.77713e-06
0.00132638
7.50576e-05
7.3326e-05
0.000174711
-2.20554e-05
0.000148682
-3.74963e-05
0.000762198
-6.3552e-06
-1.24236e-06
0.00151283
-8.47212e-06
-1.10292e-05
0.00534379
1.77097e-06
0.00151013
-2.59559e-06
0.000742898
9.82347e-08
-8.77773e-07
-0.00010378
8.51434e-05
-6.95105e-05
5.95517e-05
-2.72904e-05
0.00827308
-3.28578e-05
0.0109403
-2.83803e-05
0.0131825
-1.93215e-05
0.0148385
-8.91082e-06
0.0157699
4.4411e-06
0.0159001
1.71059e-05
0.0152331
2.74364e-05
0.0138408
3.16191e-05
0.0118625
3.28357e-05
0.0094624
2.80024e-05
0.00680839
1.91311e-05
0.00405432
6.59751e-06
0.00131978
3.74963e-05
7.87882e-05
7.75458e-05
0.000734475
-1.9465e-07
1.45246e-07
0.00150046
-1.36235e-06
-4.99925e-06
0.00531836
3.14623e-06
0.00150213
1.04077e-07
0.000731818
1.4583e-07
-8.41024e-08
-7.6668e-05
7.67663e-05
-1.1304e-05
0.00825152
-1.38405e-05
0.0109257
-1.21636e-05
0.0131754
-4.00882e-06
0.0148336
6.7791e-06
0.0157676
1.83691e-05
0.0158989
2.9323e-05
0.0152312
3.5463e-05
0.013837
3.98562e-05
0.0118555
4.1268e-05
0.00944914
3.18661e-05
0.00679566
2.15243e-05
0.00403939
8.51612e-06
0.00131127
7.65716e-05
7.67169e-05
0.000730349
-1.84833e-08
1.25433e-07
0.00149726
-1.31471e-07
-2.80631e-06
0.00530696
2.89598e-06
0.00149998
4.2745e-07
0.000730388
9.55564e-08
-3.03175e-08
-7.66328e-05
7.67786e-05
-3.35416e-06
0.00824104
-3.22199e-06
0.0109168
1.04299e-06
0.0131703
8.72684e-06
0.0148316
1.92821e-05
0.0157667
2.85092e-05
0.0158997
3.85651e-05
0.0152281
4.41242e-05
0.0138327
4.85382e-05
0.0118482
4.36016e-05
0.0094374
3.72888e-05
0.00677989
2.15957e-05
0.00402631
8.07373e-06
0.00130319
7.67601e-05
7.68855e-05
0.000730196
-3.04483e-08
9.01353e-08
0.00149706
1.12611e-07
-1.19155e-06
0.00530208
2.72347e-06
0.00149943
5.26119e-07
0.00073058
6.37606e-08
-1.96324e-08
-7.68552e-05
7.69508e-05
1.86427e-06
0.00823595
3.83951e-06
0.010914
9.48461e-06
0.0131695
1.68369e-05
0.0148341
2.68449e-05
0.0157683
3.85066e-05
0.0158997
4.57194e-05
0.0152265
5.40889e-05
0.0138272
5.56095e-05
0.0118362
4.96946e-05
0.009425
4.08315e-05
0.00676065
2.4396e-05
0.00400999
8.97712e-06
0.00129422
7.69203e-05
7.70105e-05
0.000730614
-4.27181e-09
8.25919e-08
0.00149791
3.28787e-07
-2.62391e-07
0.00530113
3.06802e-06
0.00150005
5.84589e-07
0.000731115
5.27854e-08
-2.7693e-08
-7.69908e-05
7.70546e-05
4.30848e-06
0.00823548
9.10976e-06
0.0109144
1.69476e-05
0.0131694
2.63113e-05
0.0148346
3.62325e-05
0.0157706
4.70117e-05
0.0158984
5.63284e-05
0.0152243
6.08847e-05
0.0138219
5.7723e-05
0.0118282
5.51149e-05
0.00941071
4.25314e-05
0.00674252
2.99172e-05
0.00398905
9.38555e-06
0.00128483
7.70503e-05
7.71329e-05
0.000731366
2.82617e-08
4.94632e-08
0.00149936
4.25509e-07
-1.0044e-07
0.00530258
2.96081e-06
0.00150183
5.98001e-07
0.00073184
3.31395e-08
7.75754e-08
-7.71052e-05
7.7158e-05
7.5072e-06
0.00823709
1.43967e-05
0.0109169
2.25566e-05
0.0131732
3.3919e-05
0.0148369
4.61489e-05
0.0157715
5.5567e-05
0.0158992
6.36838e-05
0.0152215
6.93197e-05
0.0138103
7.21033e-05
0.0118112
6.2852e-05
0.00939039
5.28791e-05
0.00671956
3.05618e-05
0.00396788
9.96911e-06
0.00127486
7.71863e-05
7.72357e-05
0.000732179
3.1285e-08
5.50424e-08
0.0015013
4.37906e-07
8.18336e-07
0.00530676
2.50633e-06
0.00150363
6.25015e-07
0.000732758
2.05007e-08
-9.16239e-10
-7.73133e-05
7.73465e-05
8.99873e-06
0.00824248
1.70784e-05
0.0109224
2.7483e-05
0.0131796
4.08761e-05
0.0148422
5.224e-05
0.0157748
6.49585e-05
0.0158979
7.53175e-05
0.0152155
7.92357e-05
0.0138032
8.15903e-05
0.0117925
7.24644e-05
0.00937081
5.44693e-05
0.00669565
3.43468e-05
0.0039435
1.3455e-05
0.00126141
7.73777e-05
7.74328e-05
0.000733145
7.29057e-09
4.29243e-08
0.00150383
6.15982e-07
1.09784e-06
0.00531209
2.57684e-06
0.00150567
6.72759e-07
0.000733716
2.44699e-08
2.93036e-08
-7.74319e-05
7.74524e-05
1.04284e-05
0.00824913
2.1032e-05
0.0109288
3.35412e-05
0.013187
4.67483e-05
0.0148477
6.10204e-05
0.0157787
7.45117e-05
0.0158987
8.25351e-05
0.0152122
8.75954e-05
0.0137972
8.4759e-05
0.0117802
8.01871e-05
0.00934509
6.14139e-05
0.00666858
3.78012e-05
0.00391915
2.77078e-05
0.0012337
7.74597e-05
7.75026e-05
0.000734241
3.33389e-08
5.76906e-08
0.0015061
6.61744e-07
1.26024e-06
0.00531893
2.32397e-06
0.00150774
9.39398e-07
0.000734881
2.79723e-08
5.12899e-09
-7.75319e-05
7.75564e-05
1.15425e-05
0.00825862
2.4934e-05
0.0109375
4.13514e-05
0.0131924
5.55457e-05
0.0148531
7.18558e-05
0.0157814
8.24207e-05
0.0158988
9.35609e-05
0.0152062
9.78927e-05
0.013784
9.62908e-05
0.0117641
8.60589e-05
0.00932044
6.80721e-05
0.00663831
5.83181e-05
0.00388854
5.46384e-05
7.75897e-05
7.76474e-05
0.000735449
3.47629e-08
5.90185e-08
0.00150825
7.54645e-07
1.13727e-06
0.00532773
1.61137e-06
0.00151002
5.50452e-07
0.000736277
1.05654e-07
6.01327e-09
-7.76525e-05
7.76805e-05
1.3053e-05
0.0082705
2.79922e-05
0.0109508
4.5076e-05
0.0132028
6.33173e-05
0.0148617
7.91946e-05
0.0157846
9.40318e-05
0.0158984
0.000103079
0.015201
0.000106639
0.0137737
0.000104025
0.0117461
9.14861e-05
0.00929703
8.78224e-05
0.00660881
9.96162e-05
7.77152e-05
7.77743e-05
0.000736928
7.17953e-08
3.15403e-08
0.00151086
3.01932e-07
7.63205e-07
0.00533888
1.14121e-06
0.00151267
-2.03996e-07
0.000737421
3.11068e-08
2.66261e-08
-7.77803e-05
7.78859e-05
1.71735e-05
0.00828132
3.38671e-05
0.010962
5.12139e-05
0.0132149
6.95612e-05
0.0148713
8.6939e-05
0.0157917
0.00010292
0.0158985
0.000112566
0.0151951
0.000119868
0.0137578
0.000116878
0.0117207
0.000114139
0.00927071
0.000129624
7.79577e-05
7.79893e-05
0.000737658
1.58321e-08
4.90286e-08
0.00151477
-1.33922e-06
1.47868e-06
0.00534945
5.1244e-06
0.00151785
-1.93586e-06
0.000737505
-9.1234e-10
-4.99592e-08
-7.80159e-05
7.8047e-05
2.07986e-05
0.00829439
3.69642e-05
0.0109763
5.7992e-05
0.0132265
7.85446e-05
0.0148797
9.83095e-05
0.0157963
0.000111029
0.0159001
0.000123136
0.0151918
0.000128423
0.0137463
0.000133997
0.0117009
0.000151226
7.80628e-05
7.81119e-05
0.00073612
2.30677e-08
2.2126e-08
0.00151586
5.20103e-06
-1.733e-06
5.31334e-06
0.00535972
5.21608e-06
0.00152016
-4.04096e-07
1.22788e-06
0.000435416
-2.2032e-07
0.000298993
-4.45728e-09
-7.80619e-05
7.8061e-05
2.23548e-05
0.008309
4.23619e-05
0.0109919
6.31848e-05
0.0132419
8.68308e-05
0.0148912
0.000104689
0.0158026
0.000121494
0.0159017
0.000130389
0.0151899
0.000143261
0.013737
0.00015992
7.80841e-05
7.81062e-05
0.000456326
-1.5709e-05
0.000461398
-6.8046e-06
0.00152242
1.23727e-06
1.81825e-06
4.60485e-06
0.00537299
4.47754e-06
0.00152489
1.23691e-06
1.50407e-06
0.000464059
-3.06569e-06
0.000466212
-9.24369e-07
-7.81017e-05
7.78814e-05
0.000280446
2.83813e-06
2.4249e-05
0.00832711
4.666e-05
0.0110084
7.13798e-05
0.0132573
9.46356e-05
0.0149012
0.000113755
0.0158104
0.000130139
0.015902
0.000146339
0.0151868
0.000164658
0.000274528
-8.87068e-07
0.000467146
3.02746e-07
0.00046844
5.24614e-07
0.0015272
1.01756e-06
1.28266e-06
4.83581e-06
0.00538787
4.52661e-06
0.00152984
7.65476e-07
1.07512e-06
0.000469035
6.41477e-07
0.000469727
8.12067e-07
0.000272508
-1.04572e-06
0.000272099
-5.14695e-07
8.07195e-05
2.76587e-05
0.00834611
5.14157e-05
0.0110284
7.86198e-05
0.0132733
0.000100887
0.0149141
0.000120675
0.0158198
0.000138951
0.0159093
0.000158081
7.98325e-05
0.000272402
-4.80713e-10
0.000272822
1.04558e-07
0.000470149
5.95702e-07
0.000471014
4.18294e-07
0.00153289
7.77928e-07
9.99386e-07
5.19993e-06
0.00540538
4.95695e-06
0.00153555
1.05531e-06
8.19872e-07
0.000471367
4.11566e-07
0.000471876
5.66438e-07
0.000273303
1.60801e-07
0.000273969
1.46091e-07
7.87867e-05
7.8272e-05
3.04906e-05
0.00836704
5.79312e-05
0.0110491
8.49114e-05
0.0132893
0.000106166
0.0149286
0.000127318
0.0158315
0.000141372
7.82716e-05
7.83761e-05
0.00027438
1.8457e-07
0.000274664
1.34163e-07
0.000472238
4.15652e-07
0.000472776
4.61451e-07
0.0015389
1.04274e-06
8.04227e-07
5.89019e-06
0.00542461
5.37088e-06
0.00154194
1.11858e-06
7.92885e-07
0.000473456
3.75891e-07
0.000473904
3.71613e-07
0.000274978
9.76289e-08
0.000275445
9.89998e-08
7.85369e-05
7.8683e-05
3.50234e-05
0.00838995
6.46316e-05
0.0110694
9.02278e-05
0.0133052
0.000110873
0.0149451
0.000117664
7.88676e-05
7.90018e-05
0.000275767
9.37914e-08
0.000276102
1.2655e-07
0.000474367
5.79474e-07
0.00047479
3.81797e-07
0.00154571
1.22998e-06
8.98495e-07
6.63456e-06
0.0054468
6.19584e-06
0.00154898
1.21759e-06
8.8361e-07
0.000475575
3.33007e-07
0.000475966
4.02314e-07
0.000276422
5.63229e-08
0.000276701
9.21877e-08
7.90994e-05
7.91984e-05
4.05827e-05
0.008414
7.14725e-05
0.0110881
9.11e-05
0.013325
9.15833e-05
7.92922e-05
7.94187e-05
0.000277156
1.24781e-07
0.000277445
9.27096e-08
0.000476575
6.21071e-07
0.000477059
4.14282e-07
0.00155296
1.36413e-06
1.28432e-06
8.03269e-06
0.00547225
7.10037e-06
0.00155675
1.12665e-06
1.2862e-06
0.000477906
3.71049e-07
0.000478176
6.13057e-07
0.000277681
9.66011e-08
0.000277983
1.00631e-07
7.9475e-05
7.95672e-05
4.931e-05
0.00843616
7.25807e-05
0.0111066
6.49233e-05
7.9692e-05
7.97847e-05
0.000278508
9.56401e-08
0.000278715
2.07167e-07
0.000479025
5.15444e-07
0.000479835
4.74143e-07
0.001562
1.30729e-06
1.46873e-06
1.04838e-05
0.00550084
1.02354e-05
0.00156619
1.42193e-06
1.49272e-06
0.000480473
4.8903e-07
0.000481077
6.81477e-07
0.000279004
8.22275e-08
0.000279506
1.11528e-07
7.98813e-05
7.9982e-05
5.40242e-05
0.00845472
4.22359e-05
8.00776e-05
8.02848e-05
0.000279878
1.43661e-07
0.000280236
1.16172e-07
0.000481799
5.8551e-07
0.000482707
5.60786e-07
0.00157298
1.73061e-06
1.95754e-06
1.45635e-05
0.0055245
1.57991e-05
0.00157869
2.1667e-06
2.36507e-06
0.000483612
5.165e-07
0.000484265
8.40557e-07
0.000280607
1.17404e-07
0.00028121
7.88007e-08
8.0367e-05
8.04785e-05
2.81556e-05
8.06222e-05
8.07383e-05
0.000281643
1.52415e-07
0.000282069
1.34616e-07
0.000485275
7.20351e-07
0.000486488
7.44339e-07
0.00158711
2.77167e-06
3.36893e-06
3.11183e-05
1.23497e-05
0.00159412
3.82131e-06
4.96861e-06
0.000487698
9.56976e-07
0.000488745
1.31781e-06
0.000282448
1.38026e-07
0.000283145
1.43472e-07
8.08557e-05
8.09345e-05
8.1087e-05
8.12216e-05
0.000283678
1.865e-07
0.000284247
1.75368e-07
0.000490109
1.40811e-06
0.000491873
1.60409e-06
0.0016064
8.05634e-06
1.07826e-05
1.61026e-05
7.84033e-06
0.000493888
1.807e-06
0.00049603
2.82637e-06
0.000284987
2.17337e-07
0.000286013
2.91466e-07
8.13596e-05
8.15031e-05
8.16896e-05
8.18649e-05
0.000287071
3.50953e-07
0.00028829
3.8453e-07
0.000499165
4.92084e-06
0.000502453
7.49493e-06
0.000506845
1.17103e-05
1.12549e-05
0.000289614
4.83231e-07
0.000291711
7.29129e-07
8.20823e-05
8.23737e-05
8.27247e-05
8.31092e-05
0.000295154
1.4784e-06
0.000299266
3.38274e-06
0.000303528
7.44832e-06
1.53104e-05
8.35924e-05
8.43216e-05
8.58e-05
8.91827e-05
9.6631e-05
-5.32524e-06
5.32521e-06
3.20979e-06
-8.5352e-06
-2.31309e-05
7.59888e-06
2.08572e-05
7.23533e-06
-2.71564e-05
1.54802e-06
-1.00832e-05
1.71839e-05
9.84748e-05
-0.000100824
5.99528e-06
1.48617e-05
4.73703e-06
-3.03455e-05
6.98459e-07
-1.07817e-05
-1.26014e-05
0.000268918
2.47237e-05
-0.000263859
-2.64309e-06
1.41781e-05
9.2935e-05
-2.10853e-06
-0.00010658
1.22187e-05
-3.17556e-05
3.13186e-07
-1.10949e-05
-6.75809e-06
0.000264704
2.51518e-05
-7.06486e-05
2.37565e-05
7.1626e-05
-8.7041e-06
2.52433e-05
-0.000275647
-4.74868e-06
-1.02057e-06
8.75145e-05
-3.17401e-07
-1.61193e-06
-0.000112975
-6.97834e-07
1.1198e-05
-3.30544e-05
1.62036e-07
-1.12571e-05
-4.32495e-06
0.000246181
2.53349e-05
-2.49306e-06
-7.24424e-05
2.69417e-05
-0.000850042
2.59712e-05
0.000847824
2.95514e-05
6.73158e-05
2.42721e-05
-0.000292536
-3.01263e-06
-4.37163e-06
-0.000116528
-4.15918e-07
-7.80257e-07
8.35555e-05
-2.32407e-07
-1.33869e-07
1.08805e-05
-3.35903e-05
1.90943e-07
-1.14482e-05
0.000223319
2.72734e-05
-2.5252e-06
-1.88496e-06
-8.20041e-05
3.49025e-05