/*--------------------------------*- C++ -*----------------------------------*\
| =========                 |                                                 |
| \\      /  F ield         | OpenFOAM: The Open Source CFD Toolbox           |
|  \\    /   O peration     | Version:  v1912                                 |
|   \\  /    A nd           | Website:  www.openfoam.com                      |
|    \\/     M anipulation  |                                                 |
\*---------------------------------------------------------------------------*/
FoamFile
{
    version     2.0;
    format      ascii;
    class       surfaceScalarField;
    location    "70";
    object      phi;
}
// * * * * * * * * * * * * * * * * * * * * * * * * * * * * * * * * * * * * * //

dimensions      [0 3 -1 0 0 0 0];
oriented        oriented;


internalField   nonuniform List<scalar> 
7191
(
-2.25206e-06
0.00132289
-1.03128e-05
0.0039438
-2.34015e-06
0.00132524
-2.68165e-05
0.00650318
-1.04496e-05
0.00395192
-2.29555e-06
0.00132753
-4.90965e-05
0.0089205
-2.62105e-05
0.00651894
-1.02277e-05
0.00395985
-2.13761e-06
0.00132966
-8.08202e-05
0.0110912
-5.1606e-05
0.0089459
-2.52627e-05
0.00653397
-9.89408e-06
0.0039676
-2.13406e-06
0.00133179
-0.000122372
0.0128859
-8.38598e-05
0.0111234
-4.81988e-05
0.00896883
-2.5402e-05
0.00654947
-1.00711e-05
0.00397553
-1.76302e-06
0.00133356
-0.000168604
0.0141841
-0.000124883
0.0129269
-8.27708e-05
0.011158
-4.84076e-05
0.00899183
-2.25425e-05
0.00656194
-8.22771e-06
0.00398199
-1.57348e-06
0.00133513
-0.000211837
0.0148799
-0.000170269
0.0142295
-0.000122092
0.0129662
-7.61607e-05
0.0111857
-4.27731e-05
0.00901206
-1.9887e-05
0.0065736
-7.18285e-06
0.0039876
-1.39848e-06
0.00133653
-0.000252658
0.0149135
-0.000219205
0.0149289
-0.000166369
0.0142738
-0.000115652
0.0130057
-7.25193e-05
0.0112155
-3.83703e-05
0.00903054
-1.80556e-05
0.00658447
-6.31852e-06
0.00399252
-1.00638e-06
0.00133753
-0.000280392
0.0142514
-0.000260067
0.0149543
-0.000214051
0.0149765
-0.000158631
0.0143168
-0.000103051
0.0130362
-6.25645e-05
0.0112397
-3.33456e-05
0.00904583
-1.48654e-05
0.00659301
-4.01455e-06
0.00399553
-9.54825e-07
0.00133849
-0.000290635
0.0129351
-0.000299409
0.0142907
-0.000258638
0.0149989
-0.000199308
0.0150172
-0.000138739
0.0143525
-9.29243e-05
0.0130666
-5.40647e-05
0.0112604
-2.88901e-05
0.00905985
-1.29803e-05
0.00660198
-4.38069e-06
0.00399895
-5.66672e-07
0.00133905
-0.000282085
0.0110476
-0.000327517
0.0129632
-0.000294972
0.0143271
-0.000236769
0.0150364
-0.000174928
0.0150534
-0.000123015
0.0143825
-7.80887e-05
0.0130906
-4.61514e-05
0.0112776
-2.37567e-05
0.00907062
-9.18766e-06
0.00660678
-3.51565e-06
0.0040019
-4.2323e-07
0.00133948
-0.000241605
0.00871304
-0.00034532
0.0110654
-0.000321552
0.0129897
-0.000260834
0.0143511
-0.000200032
0.0150615
-0.000148055
0.0150784
-0.000101645
0.0144061
-6.40709e-05
0.0131085
-3.69102e-05
0.0112908
-1.86636e-05
0.0090801
-9.09926e-06
0.00661237
-2.87141e-06
0.00400435
-4.1936e-07
0.0013399
0.00607032
-0.000107435
-4.95893e-05
-0.000348517
0.00871623
-0.000335755
0.0110796
-0.000271967
0.0130009
-0.000213825
0.0143649
-0.000165008
0.0150784
-0.000118209
0.015095
-8.20515e-05
0.0144241
-5.47352e-05
0.0131263
-3.24548e-05
0.0113046
-1.69094e-05
0.00908791
-7.43008e-06
0.00661692
-2.48567e-06
0.00400641
-3.6851e-07
0.00134026
0.00605533
-0.000195303
-0.000138225
-0.0020599
0.00201451
-6.20377e-05
-3.21065e-05
-0.00207738
-0.000339854
0.00872033
-0.000262433
0.01107
-0.000206633
0.0129937
-0.000164211
0.0143641
-0.000127278
0.0150875
-9.8415e-05
0.0151114
-6.97869e-05
0.0144391
-4.30192e-05
0.0131369
-2.50994e-05
0.0113128
-1.27854e-05
0.00909326
-5.35932e-06
0.0066198
-2.15037e-06
0.0040082
-4.05776e-07
0.00134067
0.00604105
-0.000135672
-0.000189911
-0.00198453
0.00195805
-0.000168827
-0.000108243
-0.00135792
0.00131578
-1.50856e-05
-4.80894e-06
-9.5634e-07
-0.00138256
-6.51502e-06
-1.99587e-05
-0.000221478
0.00867937
-0.000178819
0.0110422
-0.000150416
0.0129799
-0.000125625
0.0143625
-0.000101897
0.015091
-7.64297e-05
0.015118
-5.2043e-05
0.0144481
-3.58918e-05
0.0131477
-2.1195e-05
0.0113212
-1.32001e-05
0.0091011
-6.35961e-06
0.00662401
-1.50529e-06
0.0040093
-6.16265e-07
0.00134129
0.00595711
-4.03428e-05
-9.7194e-05
-0.00193462
0.0019049
-0.00010595
-0.000166485
-0.0012626
0.00122963
-8.44093e-05
-5.14536e-05
-1.65197e-05
-3.85357e-05
-0.000426407
0.000416666
-5.34399e-06
-0.000428628
-2.5871e-06
0.000433413
-0.000433591
-7.75976e-07
-3.56926e-06
-1.42653e-07
-1.72994e-06
-0.000121105
0.00862165
-0.000113486
0.0110053
-0.000104188
0.0129584
-9.24318e-05
0.014353
-7.55593e-05
0.0150901
-5.79654e-05
0.0151239
-4.47135e-05
0.014457
-3.02415e-05
0.0131567
-1.91968e-05
0.0113272
-1.06783e-05
0.00910542
-6.41011e-06
0.00662891
-2.87014e-06
0.00401155
-6.47804e-07
0.00134194
0.00587896
-7.63049e-06
-3.53374e-05
-0.00186045
0.00184355
-2.34409e-05
-5.27456e-05
-0.00120253
0.00115235
-1.64908e-05
-3.92776e-05
-7.76871e-05
-6.17026e-05
-0.000369096
0.000342911
-5.82253e-05
-0.0003883
-3.22489e-05
0.000409086
-8.93969e-06
-1.77505e-05
-0.000250234
0.000245633
-7.41831e-07
-0.000252412
-4.08586e-07
-0.000436101
-1.05875e-06
0.00025387
-0.000254577
-6.84758e-08
-5.57038e-08
-2.71885e-07
-6.43918e-05
0.00857255
-7.1669e-05
0.0109728
-7.2641e-05
0.0129386
-6.79429e-05
0.0143454
-5.89007e-05
0.015091
-5.00647e-05
0.0151293
-3.74141e-05
0.0144641
-2.67842e-05
0.0131643
-1.9847e-05
0.0113364
-1.31477e-05
0.00911216
-5.8275e-06
0.00663187
-3.03783e-06
0.00401394
-6.83832e-07
0.00134262
0.00582948
-2.14147e-07
-1.4707e-05
-0.00182026
0.00181773
-5.1011e-06
-1.20551e-05
-0.00111217
0.00109188
-1.17305e-07
-3.03852e-06
-1.01094e-05
-2.45587e-06
-0.000281443
0.000271086
-6.1332e-06
-0.000302565
-1.81567e-05
0.00032198
-5.67559e-05
-4.22876e-05
-0.000201517
0.000164001
-2.07092e-05
-0.000224304
-9.4627e-06
0.000238376
-1.68316e-06
-3.67833e-06
-7.29147e-05
7.21729e-05
-7.33231e-05
-0.00025552
-1.1451e-07
7.3595e-05
-7.36632e-05
-5.37517e-08
-3.51613e-05
0.00853604
-4.59729e-05
0.0109461
-5.01924e-05
0.0129209
-4.89622e-05
0.0143354
-4.63405e-05
0.0150873
-3.91219e-05
0.015131
-3.17537e-05
0.0144691
-2.62378e-05
0.0131707
-1.89383e-05
0.0113421
-1.21772e-05
0.00911851
-8.41559e-06
0.00663725
-3.74382e-06
0.00401701
-9.74448e-07
0.0013436
0.00580039
1.3581e-06
-7.43552e-06
-0.00180632
0.00180688
-7.862e-07
-3.29946e-06
-0.00108074
0.00107566
5.83397e-07
-6.09468e-07
-1.16253e-06
2.50922e-07
-0.000258702
0.00025866
-7.67227e-08
-0.00026138
-3.60506e-07
0.000263192
-2.21622e-06
-6.43835e-07
-8.34397e-05
7.73064e-05
-0.000101597
0.000143884
-3.66392e-05
-5.73485e-05
3.66392e-05
-6.68113e-05
7.04897e-05
-7.37774e-05
-2.00303e-05
0.0085101
-3.02135e-05
0.0109261
-3.56734e-05
0.0129076
-3.95158e-05
0.0143286
-3.78937e-05
0.0150861
-3.46482e-05
0.0151339
-3.234e-05
0.0144752
-2.71291e-05
0.0131789
-2.07551e-05
0.0113507
-1.61414e-05
0.00912624
-9.56751e-06
0.00664308
-4.39835e-06
0.00402043
-9.8246e-07
0.00134459
0.00578284
2.0823e-06
-4.56579e-06
-0.00180067
0.00180242
-4.02217e-07
-1.22025e-06
-0.00107242
0.0010715
4.39946e-07
-3.02946e-07
-3.21787e-07
2.54699e-07
-0.00025721
0.000257722
7.02085e-08
-0.00025788
5.89488e-08
0.000257663
-1.66019e-07
3.30499e-08
-7.40857e-05
7.40086e-05
-7.44463e-05
7.50901e-05
-1.18728e-05
0.00849175
-2.10764e-05
0.0109115
-2.60038e-05
0.0128941
-2.90338e-05
0.0143198
-3.26519e-05
0.0150841
-3.33986e-05
0.0151349
-3.36702e-05
0.0144818
-3.01592e-05
0.0131883
-2.63268e-05
0.0113609
-1.89179e-05
0.00913559
-1.11778e-05
0.00664986
-5.15528e-06
0.00402461
-1.31733e-06
0.0013459
0.00577218
1.47971e-06
-2.68798e-06
-0.00179832
0.0018002
2.00013e-07
-4.57644e-07
-0.00107027
0.0010697
3.05037e-07
-1.43078e-07
-1.77997e-07
1.84752e-07
-0.000257288
0.000257682
4.43697e-08
-0.000257674
8.21511e-08
0.000257482
-8.26121e-08
6.20291e-08
-7.39339e-05
7.40035e-05
-7.38753e-05
7.38423e-05
-7.69339e-06
0.00847837
-1.27844e-05
0.0108983
-2.02054e-05
0.0128853
-2.50159e-05
0.0143121
-2.99066e-05
0.0150806
-3.68245e-05
0.0151381
-3.80706e-05
0.0144897
-3.74036e-05
0.0131994
-3.11404e-05
0.0113731
-2.38216e-05
0.00914824
-1.43646e-05
0.00665907
-6.65503e-06
0.00402995
-1.40275e-06
0.00134731
0.00576449
1.33635e-06
-1.34926e-06
-0.00179783
0.00179883
4.77824e-07
-3.18728e-07
-0.0010693
0.00106928
2.96277e-07
-7.52902e-08
-1.39109e-07
8.43643e-08
-0.000257501
0.000257783
2.27941e-08
-0.000257713
6.81261e-08
0.000257569
-6.50265e-08
3.97115e-08
-7.40644e-05
7.41084e-05
-7.39826e-05
7.39206e-05
-4.21862e-06
0.00846981
-8.98924e-06
0.0108871
-1.63909e-05
0.0128766
-2.39532e-05
0.0143062
-3.31081e-05
0.0150769
-4.03394e-05
0.0151404
-4.62089e-05
0.0144985
-4.52176e-05
0.0132135
-3.8388e-05
0.0113877
-2.5342e-05
0.00915922
-1.45991e-05
0.00666702
-6.1922e-06
0.00403474
-1.21302e-06
0.00134852
0.00575932
1.83031e-06
-8.77895e-07
-0.0017976
0.00179847
4.71175e-07
-1.28896e-07
-0.00106895
0.0010693
2.12431e-07
-8.2491e-08
-7.19902e-08
7.47789e-08
-0.000257629
0.000257904
2.08371e-08
-0.000257779
7.40663e-08
0.000257719
-7.51028e-08
2.45721e-08
-7.41508e-05
7.41734e-05
-7.40829e-05
7.40432e-05
-2.60909e-06
0.00846343
-6.8096e-06
0.0108775
-1.40165e-05
0.0128667
-2.77452e-05
0.0143008
-4.24807e-05
0.015079
-5.45614e-05
0.0151487
-5.80165e-05
0.0145113
-5.364e-05
0.0132287
-4.30434e-05
0.0114054
-3.02558e-05
0.00917488
-1.66943e-05
0.00667752
-6.1266e-06
0.00403965
-1.29174e-06
0.00134981
0.00575545
1.73635e-06
-4.77956e-07
-0.0017975
0.00179878
5.54811e-07
8.70213e-08
-0.00106917
0.00106944
2.14056e-07
-1.34156e-08
-9.73672e-11
9.52545e-10
-0.000257804
0.000258001
1.53983e-08
-0.000257959
7.24703e-08
0.000257907
-7.50541e-08
2.23729e-08
-7.41967e-05
7.42174e-05
-7.41228e-05
7.40982e-05
-3.27633e-07
0.00845695
-5.59071e-06
0.0108691
-1.69583e-05
0.0128559
-3.10904e-05
0.0142894
-5.03509e-05
0.0150748
-6.63932e-05
0.0151571
-7.41569e-05
0.0145318
-6.62359e-05
0.0132519
-5.02512e-05
0.0114254
-3.24552e-05
0.00919064
-1.62774e-05
0.00668767
-6.87976e-06
0.00404524
-1.8903e-06
0.0013517
0.00575329
1.68936e-06
1.49508e-07
-0.00179814
0.00179927
6.06483e-07
1.59362e-07
-0.00106951
0.00106984
2.21272e-07
4.44691e-09
7.8955e-09
1.05537e-08
-0.000257943
0.000258138
1.94616e-08
-0.000258058
1.01783e-07
0.000258075
-7.35488e-08
1.77166e-08
-7.42371e-05
7.42525e-05
-7.41647e-05
7.41423e-05
-3.52331e-07
0.00845172
-6.96765e-06
0.0108591
-2.18666e-05
0.0128467
-4.65961e-05
0.0142857
-7.13722e-05
0.0150798
-8.78333e-05
0.0151708
-8.85444e-05
0.0145541
-7.5854e-05
0.0132775
-5.49867e-05
0.0114479
-3.37499e-05
0.00920811
-1.67678e-05
0.00669756
-5.25893e-06
0.0040486
-1.75416e-07
0.00135188
0.00575097
1.41189e-06
5.56374e-07
-0.00179902
0.00180003
6.85098e-07
3.98219e-07
-0.00106997
0.00107033
2.24061e-07
2.0126e-08
2.18177e-08
4.80387e-09
-0.000258138
0.000258338
2.07992e-08
-0.000258205
7.22554e-08
0.000258221
-7.55544e-08
2.61667e-08
-7.42983e-05
7.43178e-05
-7.41966e-05
7.41789e-05
1.10069e-07
0.00844465
-1.11425e-05
0.0108484
-3.27827e-05
0.0128329
-6.43481e-05
0.0142787
-9.37361e-05
0.0150857
-0.000109794
0.015192
-0.000104256
0.0145825
-8.47944e-05
0.0133073
-5.8604e-05
0.0114728
-3.14508e-05
0.00922279
-1.56233e-05
0.00670792
-4.40295e-06
0.00405283
-1.52289e-07
0.00135203
0.00574956
3.45506e-07
1.1709e-06
-0.00180009
0.0018009
6.01623e-07
4.92408e-07
-0.00107068
0.0010711
2.32063e-07
3.26417e-08
3.35044e-08
1.92202e-08
-0.00025835
0.000258565
9.42562e-09
-0.000258326
-3.18329e-09
0.000258439
-7.84706e-08
1.17261e-07
-7.43407e-05
7.43615e-05
-7.42684e-05
7.42423e-05
-2.13558e-06
0.00843565
-1.75208e-05
0.0108331
-4.86116e-05
0.0128172
-9.12336e-05
0.0142762
-0.000124416
0.0151003
-0.000135058
0.0152228
-0.000118328
0.014616
-8.89549e-05
0.0133377
-5.61593e-05
0.0114975
-3.09198e-05
0.00923809
-1.21148e-05
0.00671563
-4.08652e-06
0.00405677
4.04531e-08
0.001352
0.00574516
1.47997e-07
2.12561e-06
-0.00180149
0.00180119
6.52671e-07
5.77138e-07
-0.00107151
0.00107183
2.38229e-07
4.28096e-08
5.05845e-08
2.96775e-08
-0.000258565
0.000258786
1.13842e-08
-0.000258532
1.308e-10
0.000258635
-3.64537e-08
1.21677e-07
-7.43972e-05
7.44067e-05
-7.44003e-05
7.42831e-05
-5.22821e-06
0.00842336
-2.9245e-05
0.0108138
-7.71546e-05
0.0128031
-0.000127158
0.0142789
-0.000160176
0.0151254
-0.000156132
0.0152606
-0.000128007
0.0146551
-8.85369e-05
0.0133701
-5.26638e-05
0.0115192
-2.68218e-05
0.0092528
-1.10694e-05
0.00672262
-1.14394e-06
0.00405796
2.03245e-07
0.00135181
0.0057381
-7.14238e-07
2.54496e-06
-0.00180262
0.00180241
3.6548e-07
6.92913e-07
-0.00107231
0.00107268
2.37511e-07
4.22091e-08
5.76837e-08
4.3043e-08
-0.000258849
0.000259076
1.24474e-08
-0.00025881
3.00037e-09
0.000258903
-6.66258e-08
1.23614e-07
-7.44921e-05
7.45035e-05
-7.44919e-05
7.43702e-05
-1.17617e-05
0.00840588
-5.19832e-05
0.0107886
-0.000115524
0.0127915
-0.000172854
0.0142916
-0.000192287
0.0151616
-0.000167415
0.0153
-0.000126886
0.0146934
-8.14919e-05
0.0133989
-4.63228e-05
0.0115387
-2.21305e-05
0.00926386
-6.34169e-06
0.00672783
-1.12051e-06
0.0040593
5.10477e-07
0.0013513
0.00572625
-2.05767e-06
2.15368e-06
-0.00180393
0.00180304
1.8495e-07
1.01884e-06
-0.00107328
0.00107332
2.54732e-07
7.05139e-08
5.9947e-08
4.11928e-08
-0.000259121
0.000259349
1.0501e-08
-0.000259115
3.59295e-08
0.000259164
-3.067e-08
9.25609e-08
-7.45635e-05
7.4576e-05
-7.45605e-05
7.44369e-05
-2.36493e-05
0.00837755
-8.6762e-05
0.0107598
-0.000169717
0.0127883
-0.000220527
0.0143198
-0.000210208
0.0152044
-0.000169932
0.0153431
-0.000116709
0.0147287
-7.26533e-05
0.0134252
-3.81961e-05
0.0115548
-1.49306e-05
0.00927246
-2.7151e-06
0.00672943
2.07576e-06
0.00405773
1.97171e-06
0.00134929
0.00570406
-4.39499e-06
2.92852e-06
-0.00180406
0.00180202
-1.0697e-08
1.12982e-06
-0.00107419
0.00107411
1.88759e-07
7.95892e-08
8.38016e-08
6.24307e-08
-0.00025946
0.000259694
2.20036e-08
-0.000259414
2.4776e-08
0.000259478
-6.87904e-08
1.04877e-07
-7.4674e-05
7.46846e-05
-7.4638e-05
7.45454e-05
-4.73791e-05
0.00833816
-0.00014527
0.0107354
-0.000235795
0.0128036
-0.000251724
0.0143613
-0.000213758
0.0152482
-0.000156071
0.0153824
-0.000101754
0.0147578
-5.84684e-05
0.0134455
-2.88727e-05
0.0115688
-8.72486e-06
0.00927846
1.28727e-07
0.00673135
2.69037e-06
0.00405697
2.2292e-06
0.00134706
0.00566587
-1.03921e-05
1.19751e-06
-0.00180436
0.00180025
-2.88417e-07
5.86909e-07
-0.00107506
0.00107476
1.34548e-07
1.56236e-07
1.62621e-07
1.52374e-08
-0.000259843
0.000260014
1.86339e-08
-0.000259791
2.82287e-08
0.00025984
-6.15008e-08
1.11049e-07
-7.47456e-05
7.47678e-05
-7.47208e-05
7.46159e-05
-9.50523e-05
0.00828794
-0.000224996
0.0107246
-0.000285125
0.012837
-0.000258247
0.0144058
-0.000194758
0.0152869
-0.000130905
0.0154116
-8.05411e-05
0.0147798
-4.43834e-05
0.013461
-1.76887e-05
0.0115777
-3.38364e-06
0.00928196
3.56324e-06
0.00673047
5.99234e-06
0.00405321
2.56583e-06
0.00134448
0.00560028
-2.57752e-05
-3.69918e-06
-0.00180159
0.00179336
-2.1665e-06
-1.45506e-07
-0.00107515
0.00107459
8.70816e-08
1.7744e-07
2.48695e-07
-4.38479e-08
-0.000260231
0.00026034
2.63318e-08
-0.000260137
6.21728e-08
0.000260206
-2.87091e-08
8.48589e-08
-7.48459e-05
7.48648e-05
-7.48175e-05
7.47065e-05
-0.000181049
0.00824398
-0.000308978
0.0107484
-0.000296756
0.0128755
-0.000227091
0.0144382
-0.000160025
0.015316
-0.000104517
0.0154356
-6.0909e-05
0.0147963
-2.8346e-05
0.0134716
-8.84938e-06
0.0115832
2.57929e-06
0.00928291
5.62278e-06
0.0067308
7.75211e-06
0.004048
2.90027e-06
0.0013416
0.00551165
-6.88273e-05
-2.35885e-05
-0.00179224
0.00177439
-7.93129e-06
-2.5781e-06
-0.00107427
0.00107214
-2.1838e-07
1.78863e-07
2.66832e-07
-8.5493e-08
-0.000260627
0.000260723
-7.99988e-09
-0.000260482
3.32468e-08
0.000260644
-5.4799e-08
1.18548e-07
-7.49834e-05
7.501e-05
-7.49211e-05
7.48362e-05
-0.000309328
0.00824434
-0.000328702
0.0107804
-0.00025137
0.0128998
-0.00018044
0.0144586
-0.00012065
0.0153321
-7.47835e-05
0.0154494
-3.93058e-05
0.0148073
-1.56011e-05
0.0134783
-4.11025e-07
0.0115861
7.89921e-06
0.00928063
1.21332e-05
0.00672645
7.88009e-06
0.00404304
3.33637e-06
0.00133826
0.00546514
-0.000170417
-9.24005e-05
-0.00176398
0.00172501
-2.98633e-05
-1.31689e-05
-0.00106944
0.00106198
-7.03969e-07
2.38771e-07
5.17824e-07
-3.99914e-07
-0.000260928
0.000260722
-1.20668e-08
-0.000260819
6.95193e-08
0.000260999
-9.99007e-09
9.47261e-08
-7.51073e-05
7.50994e-05
-7.50739e-05
7.49553e-05
-0.000348261
0.0082639
-0.000257096
0.0107861
-0.000184159
0.0129035
-0.000129532
0.0144674
-8.38209e-05
0.0153412
-4.82676e-05
0.0154583
-2.1998e-05
0.0148136
-2.06586e-06
0.01348
9.50112e-06
0.0115845
1.43939e-05
0.00927835
1.27747e-05
0.00672152
9.22378e-06
0.00403715
3.84203e-06
0.00133444
0.00546455
-0.000156713
-0.000190956
-0.00169041
0.0016437
-0.000123705
-5.77937e-05
-0.00104993
0.00102368
-3.44962e-06
-1.69433e-07
2.15362e-07
-1.3336e-06
-0.000260969
0.00026032
-5.40583e-08
-0.000260773
4.31938e-08
0.000261268
-2.88283e-08
9.50032e-08
-7.52536e-05
7.52414e-05
-7.51841e-05
7.50894e-05
-0.000228184
0.00823498
-0.000163437
0.0107654
-0.000119481
0.0128934
-8.13712e-05
0.0144649
-5.16427e-05
0.0153445
-2.68915e-05
0.0154632
-5.36992e-06
0.0148169
6.41123e-06
0.0134831
1.6111e-05
0.0115828
1.74054e-05
0.00927374
1.97525e-05
0.00671103
1.06098e-05
0.0040304
4.54318e-06
0.00132989
0.00538113
-4.09145e-05
-0.000103841
-0.00161791
0.00158579
-0.000124595
-0.000165163
-0.000978207
0.000904948
-3.64318e-05
-1.40108e-05
-1.99393e-06
-1.03212e-05
-0.000259176
0.000256223
-4.95151e-07
-0.000259294
-5.05751e-08
0.000260619
-8.24599e-08
-8.03772e-09
-7.53507e-05
7.52971e-05
-7.53075e-05
7.52125e-05
-0.000112594
0.00818413
-9.30563e-05
0.0107389
-7.17133e-05
0.0128837
-4.90016e-05
0.0144623
-2.80713e-05
0.0153457
-7.0924e-06
0.0154649
7.25214e-06
0.0148161
1.66221e-05
0.0134826
2.21344e-05
0.0115781
2.27976e-05
0.00927068
1.74476e-05
0.00670417
1.48603e-05
0.00402008
6.2312e-06
0.00132368
0.00530303
-4.22739e-06
-3.02831e-05
-0.00153555
0.00151408
-1.94334e-05
-5.36033e-05
-0.000860988
0.000799104
-1.83824e-05
-4.43249e-05
-5.85568e-05
-6.2645e-05
-0.000235921
0.000209307
-9.8166e-06
-0.00024615
-3.78094e-06
0.00025481
-5.80248e-07
-1.66075e-06
-7.51568e-05
7.46622e-05
-7.5207e-05
7.5215e-05
-4.99146e-05
0.00814096
-4.7463e-05
0.0107147
-3.6856e-05
0.0128716
-2.24149e-05
0.0144566
-4.88658e-06
0.0153434
8.54281e-06
0.0154636
1.74189e-05
0.0148153
2.72578e-05
0.0134774
2.8607e-05
0.0115722
2.87213e-05
0.00925943
2.50844e-05
0.00669398
1.49663e-05
0.00401137
5.70157e-06
0.00131798
0.00526037
2.71301e-06
-9.96651e-06
-0.00149182
0.00148982
-2.2234e-06
-8.02497e-06
-0.000752984
0.000734289
1.20093e-07
-8.55136e-07
-6.27315e-06
-1.20999e-06
-0.000102607
8.42251e-05
-0.000146931
0.000172529
-2.17777e-05
-3.70471e-05
-6.86407e-05
5.88246e-05
-7.24215e-05
7.40822e-05
-2.0757e-05
0.00811426
-2.14593e-05
0.0106992
-1.35092e-05
0.0128626
-2.38847e-06
0.0144541
7.63665e-06
0.0153444
1.82061e-05
0.0154628
2.66525e-05
0.0148159
3.261e-05
0.0134734
3.34164e-05
0.0115676
3.2668e-05
0.00925184
2.72646e-05
0.00668166
1.86485e-05
0.00399842
6.52933e-06
0.00131147
0.00523956
4.06087e-06
-4.0325e-06
-0.00148087
0.00148314
4.4029e-07
-1.0218e-06
-0.000726283
0.000723967
1.66311e-07
-7.04075e-08
-1.81816e-07
1.63114e-07
-7.58871e-05
7.60076e-05
-7.67421e-05
7.79521e-05
3.70471e-05
-5.60673e-06
0.00809838
-3.79905e-06
0.0106895
1.50038e-06
0.0128588
1.13668e-05
0.0144504
2.14787e-05
0.0153411
3.02595e-05
0.0154592
3.71847e-05
0.0148113
3.93653e-05
0.0134675
4.07491e-05
0.0115595
4.05688e-05
0.00923855
3.09826e-05
0.00666936
2.10515e-05
0.00398391
8.46346e-06
0.00130299
0.00523207
3.78169e-06
-1.88961e-06
-0.00147891
0.00148219
7.63567e-07
1.97983e-07
-0.000722811
0.000723148
1.16323e-07
-1.70846e-08
-7.96051e-09
1.42421e-07
-7.5919e-05
7.60858e-05
-7.59891e-05
7.5826e-05
1.95326e-06
0.00809264
6.06113e-06
0.0106849
1.35171e-05
0.0128566
2.25997e-05
0.0144493
3.22908e-05
0.015339
3.8756e-05
0.0154577
4.49776e-05
0.0148057
4.69201e-05
0.0134613
4.87097e-05
0.0115514
4.26665e-05
0.00922686
3.63115e-05
0.00665408
2.12125e-05
0.00397114
8.09398e-06
0.0012949
0.00523078
3.5663e-06
-3.32461e-07
-0.00147986
0.00148279
8.52729e-07
4.38069e-07
-0.000723256
0.000723932
8.48266e-08
-5.36837e-09
-1.8846e-08
1.07628e-07
-7.62033e-05
7.63193e-05
-7.62203e-05
7.60779e-05
6.79735e-06
0.00809189
1.24216e-05
0.0106861
2.09043e-05
0.0128583
2.93856e-05
0.0144522
3.83933e-05
0.0153394
4.72692e-05
0.0154554
5.09574e-05
0.0148017
5.59537e-05
0.0134541
5.52804e-05
0.0115387
4.85916e-05
0.0092146
3.99354e-05
0.00663538
2.41547e-05
0.00395509
9.09549e-06
0.00128578
0.00523319
3.85777e-06
5.42843e-07
-0.00148181
0.00148448
8.95546e-07
6.39928e-07
-0.000724262
0.000725051
7.27724e-08
-1.33742e-08
7.69057e-09
9.98185e-08
-7.64017e-05
7.64861e-05
-7.64076e-05
7.62999e-05
8.92387e-06
0.0080954
1.70255e-05
0.0106899
2.73444e-05
0.0128603
3.75664e-05
0.014453
4.64275e-05
0.0153402
5.45344e-05
0.0154518
6.05027e-05
0.0147971
6.21367e-05
0.0134472
5.72466e-05
0.0115301
5.40296e-05
0.00920049
4.18636e-05
0.00661764
2.98466e-05
0.00393431
9.69254e-06
0.00127608
0.00523774
3.7016e-06
6.56045e-07
-0.0014843
0.00148727
8.91693e-07
7.20209e-07
-0.000725587
0.000726338
5.22951e-08
9.04046e-08
3.95142e-08
6.60214e-08
-7.658e-05
7.66535e-05
-7.65935e-05
7.64936e-05
1.17724e-05
0.00810064
2.16582e-05
0.0106956
3.20519e-05
0.0128659
4.40625e-05
0.0144553
5.51428e-05
0.0153396
6.20762e-05
0.0154502
6.71556e-05
0.0147921
7.01567e-05
0.0134343
7.13577e-05
0.0115128
6.19069e-05
0.00918046
5.24296e-05
0.00659507
3.09094e-05
0.0039131
1.06119e-05
0.00126546
0.00524481
3.20334e-06
1.51701e-06
-0.00148721
0.00149
9.00794e-07
7.15486e-07
-0.000726947
0.000727787
3.88666e-08
1.16711e-08
4.18193e-08
7.06988e-08
-7.68501e-05
7.69035e-05
-7.67594e-05
7.66934e-05
1.29541e-05
0.00810936
2.37727e-05
0.0107039
3.61688e-05
0.0128737
5.00833e-05
0.0144604
6.03771e-05
0.0153413
7.06877e-05
0.0154467
7.82162e-05
0.0147841
7.98712e-05
0.0134258
8.09433e-05
0.0114937
7.18154e-05
0.00916106
5.45935e-05
0.00657136
3.52653e-05
0.00388844
1.46245e-05
0.00125086
0.00525279
3.21773e-06
1.74173e-06
-0.00149064
0.00149291
9.30348e-07
8.74876e-07
-0.000728429
0.000729244
4.19747e-08
4.09229e-08
1.7136e-08
5.77677e-08
-7.70283e-05
7.70682e-05
-7.70163e-05
7.69456e-05
1.40632e-05
0.00811906
2.71913e-05
0.0107129
4.15511e-05
0.0128823
5.52554e-05
0.0144655
6.84527e-05
0.0153436
7.97258e-05
0.0154452
8.59441e-05
0.014778
8.83304e-05
0.0134184
8.45974e-05
0.0114809
8.0099e-05
0.00913556
6.22621e-05
0.00654439
3.97229e-05
0.00386337
2.9533e-05
0.00122135
0.00526212
2.90135e-06
1.84438e-06
-0.00149375
0.00149579
1.17358e-06
9.01399e-07
-0.000730006
0.000730873
4.45192e-08
1.62225e-08
4.23818e-08
7.15428e-08
-7.71846e-05
7.72274e-05
-7.71434e-05
7.70856e-05
1.48828e-05
0.00813138
3.06671e-05
0.0107237
4.88023e-05
0.0128887
6.34827e-05
0.0144705
7.87953e-05
0.0153445
8.74497e-05
0.0154437
9.56344e-05
0.0147707
9.89321e-05
0.0134041
9.66488e-05
0.0114644
8.68303e-05
0.00911099
7.00199e-05
0.0065141
6.15789e-05
0.00383135
5.66924e-05
0.00527326
2.09299e-06
1.63914e-06
-0.00149666
0.0014988
7.57441e-07
9.70048e-07
-0.00073166
0.000732693
1.20597e-07
1.62976e-08
4.30994e-08
7.17832e-08
-7.73578e-05
7.74029e-05
-7.73415e-05
7.72699e-05
1.61391e-05
0.00814589
3.34911e-05
0.0107391
5.22651e-05
0.0129
7.09436e-05
0.0144783
8.59987e-05
0.0153459
9.90557e-05
0.0154403
0.000106148
0.0147635
0.000108277
0.0133925
0.000105236
0.011446
9.34388e-05
0.00908759
9.13581e-05
0.00648435
0.000103554
0.00528674
1.517e-06
1.14605e-06
-0.00149996
0.00150211
-5.83182e-08
4.77926e-07
-0.000733541
0.000734215
4.47971e-08
3.57494e-08
7.91574e-08
4.30769e-08
-7.75343e-05
7.76555e-05
-7.75179e-05
7.74461e-05
2.01849e-05
0.00815921
3.92297e-05
0.0107521
5.82488e-05
0.0129126
7.71549e-05
0.0144872
9.3889e-05
0.0153511
0.000108301
0.0154381
0.000116217
0.0147555
0.000122216
0.0133755
0.00011908
0.0114204
0.000117486
0.00906148
0.000134331
0.00529953
5.53102e-06
1.84854e-06
-0.00150452
0.00150798
-1.95415e-06
-1.26082e-06
-0.000734614
0.000734588
9.29705e-09
-4.36627e-08
2.16611e-08
5.82887e-08
-7.78135e-05
7.78589e-05
-7.77777e-05
7.77347e-05
2.3882e-05
0.00817455
4.23683e-05
0.010768
6.50671e-05
0.0129247
8.62911e-05
0.0144948
0.000105563
0.0153539
0.00011705
0.0154373
0.000127572
0.0147502
0.000131842
0.0133628
0.000137502
0.0114004
0.000155997
0.0053119
5.75378e-06
5.76885e-06
-0.00150637
0.00151098
1.27884e-06
-3.56265e-07
-1.70323e-06
5.16451e-06
-0.000733275
0.00043349
0.000298015
-1.96694e-07
1.04269e-08
2.53965e-08
2.81494e-08
-7.78956e-05
7.79057e-05
-7.79391e-05
7.78808e-05
2.55994e-05
0.00819133
4.78832e-05
0.0107852
7.05323e-05
0.0129405
9.5007e-05
0.0145054
0.000112672
0.0153583
0.000128312
0.0154366
0.000135893
0.0147462
0.000147839
0.0133524
0.000165001
0.0053272
5.10678e-06
5.18104e-06
-0.00151356
0.00151637
1.60752e-06
1.32746e-06
1.88566e-06
1.29879e-06
-0.000461975
0.000464143
-8.90016e-07
-0.000459306
-3.02348e-06
-0.000454262
-6.74752e-06
-1.56079e-05
0.000279577
2.83139e-06
-7.797e-05
7.77737e-05
-7.79594e-05
7.79312e-05
2.76766e-05
0.00821154
5.24734e-05
0.0108032
7.91808e-05
0.0129563
0.000103517
0.0145145
0.000122608
0.015364
0.000137977
0.0154345
0.000152821
0.0147412
0.000170658
0.00534418
5.2201e-06
5.48764e-06
-0.00151903
0.00152204
1.2075e-06
8.89108e-07
1.39441e-06
1.1256e-06
-0.000467098
0.000467844
8.60768e-07
-0.000466451
6.80217e-07
-0.000465115
5.48579e-07
3.26524e-07
-0.000271704
0.000271315
-5.01996e-07
-0.000273697
-1.02972e-06
-8.67306e-07
8.06053e-05
3.13252e-05
0.0082327
5.7688e-05
0.0108247
8.76492e-05
0.0129722
0.000110777
0.0145264
0.000130633
0.0153713
0.000147923
0.0154394
0.000165979
0.00536387
5.71024e-06
5.91622e-06
-0.00152549
0.00152854
9.68564e-07
1.19386e-06
1.13193e-06
9.08806e-07
-0.000469677
0.000470254
6.31057e-07
-0.000469257
4.69117e-07
-0.000468328
4.64805e-07
6.41432e-07
-0.000272588
0.000273289
1.58298e-07
-0.000272076
1.67872e-07
-0.000271637
1.09259e-07
4.51512e-09
-7.87084e-05
7.82064e-05
-7.9738e-05
3.44981e-05
0.00825589
6.48694e-05
0.0108475
9.39299e-05
0.0129891
0.000117876
0.0145391
0.000138497
0.0153808
0.000151803
0.0053855
6.20123e-06
6.68261e-06
-0.00153232
0.0015358
9.54761e-07
1.27064e-06
9.51589e-07
1.18688e-06
-0.000472053
0.000472577
4.44506e-07
-0.000471301
4.42048e-07
-0.000470688
5.18125e-07
4.74351e-07
-0.000274415
0.000274929
1.15756e-07
-0.000274056
1.10056e-07
-0.000273736
1.44579e-07
1.93773e-07
-7.84876e-05
7.86455e-05
-7.832e-05
-7.82109e-05
3.95228e-05
0.00828126
7.25017e-05
0.010869
0.000101064
0.0130059
0.000122738
0.0145549
0.000130557
0.00541036
7.1307e-06
7.52936e-06
-0.00154004
0.00154379
1.06154e-06
1.38625e-06
1.06076e-06
1.38904e-06
-0.00047449
0.000474963
4.81376e-07
-0.000473625
4.05641e-07
-0.000473119
4.45505e-07
6.44745e-07
-0.000276045
0.000276378
1.10984e-07
-0.000275674
7.12063e-08
-0.000275297
1.39976e-07
1.06872e-07
-7.90933e-05
7.92088e-05
-7.89835e-05
-7.88392e-05
4.58076e-05
0.00830796
8.06304e-05
0.0108894
0.000103503
0.0130252
0.000106076
0.00543888
8.21422e-06
9.08745e-06
-0.00154831
0.00155263
1.48487e-06
1.3181e-06
1.46511e-06
1.54314e-06
-0.000477169
0.00047753
6.99475e-07
-0.000476234
4.51121e-07
-0.000475658
4.84919e-07
6.9326e-07
-0.000277512
0.000277871
1.20905e-07
-0.000277219
1.13041e-07
-0.000276882
1.07872e-07
1.39635e-07
-7.95264e-05
7.96371e-05
-7.94554e-05
-7.93157e-05
5.56276e-05
0.008333
8.34539e-05
0.0109095
7.97212e-05
0.00547102
1.16826e-05
1.18187e-05
-0.00155853
0.00156336
1.72905e-06
1.65002e-06
1.67953e-06
1.5165e-06
-0.000480126
0.000480832
7.7799e-07
-0.000479387
5.78831e-07
-0.000478476
5.53819e-07
5.96814e-07
-0.000279062
0.000279626
1.33575e-07
-0.000278712
1.00421e-07
-0.000278452
2.24012e-07
1.12137e-07
-7.9997e-05
8.01174e-05
-7.98843e-05
-7.97767e-05
6.20836e-05
0.00835438
5.59041e-05
0.00549854
1.80496e-05
1.65192e-05
-0.00157096
0.0015775
2.67971e-06
2.46592e-06
2.22279e-06
1.99198e-06
-0.00048372
0.000484493
9.54845e-07
-0.000482693
6.22298e-07
-0.000481668
6.54092e-07
6.79501e-07
-0.000280918
0.00028159
1.02978e-07
-0.000280477
1.37817e-07
-0.00028006
1.35113e-07
1.62265e-07
-8.05531e-05
8.06858e-05
-8.04531e-05
-8.02295e-05
3.93136e-05
1.61444e-05
3.44029e-05
-0.00158708
0.00159524
5.5552e-06
4.34255e-06
3.77967e-06
3.15813e-06
-0.000488378
0.000489588
1.4689e-06
-0.000487006
1.09374e-06
-0.000485647
8.62696e-07
8.36971e-07
-0.00028305
0.00028383
1.7177e-07
-0.000282591
1.62103e-07
-0.000282095
1.56675e-07
1.73805e-07
-8.11199e-05
8.12217e-05
-8.09826e-05
-8.08481e-05
-0.00160898
9.24783e-06
1.73958e-05
1.1756e-05
8.90075e-06
-0.000495439
0.00049786
3.13364e-06
-0.000493149
2.0525e-06
-0.000491165
1.79543e-06
1.58006e-06
-0.000285955
0.000287094
3.27575e-07
-0.000285111
2.48039e-07
-0.000284453
2.03098e-07
2.13052e-07
-8.17128e-05
8.18831e-05
-8.15514e-05
-8.13955e-05
-0.0005099
1.23914e-05
-0.000505078
1.25743e-05
-0.000501407
8.08511e-06
5.35283e-06
-0.00029116
0.000293484
8.07891e-07
-0.000289649
5.40275e-07
-0.000288284
4.28764e-07
3.89342e-07
-8.25456e-05
8.28718e-05
-8.22984e-05
-8.20962e-05
-0.000306461
1.60677e-05
-0.000301732
7.84497e-06
-0.000297238
3.58994e-06
1.59911e-06
-8.42286e-05
8.50357e-05
-8.36891e-05
-8.32611e-05
-9.80691e-05
-9.02244e-05
-8.66348e-05
1.84193e-06
-1.83769e-06
6.50872e-06
1.14277e-06
-5.80527e-06
1.13574e-06
-2.96983e-06
4.90081e-06
1.60271e-06
4.57491e-06
5.73026e-07
-4.00477e-06
1.45242e-06
-6.11364e-06
6.79928e-07
-3.64454e-06
9.64089e-07
3.92471e-06
5.11269e-06
1.05564e-06
-7.60781e-07
-2.09731e-05
-2.46873e-06
2.47918e-05
-3.30885e-06
1.42948e-06
-6.85517e-06
4.32578e-07
-4.07502e-06
1.0944e-06
4.97298e-06
3.963e-07
3.51653e-06
-1.22207e-06
-1.76363e-05
-5.12139e-07
-0.000365721
-8.13805e-06
0.000371894
-1.38222e-06
2.7131e-05
-1.46104e-06
-3.25892e-06
1.19001e-06
-7.60935e-06
2.02049e-07
-4.27761e-06
7.71687e-07
4.58288e-06
1.44588e-07
3.36366e-06
-2.58042e-06
-0.000361151
-3.25871e-06
-6.99985e-07
-1.87576e-05
-0.00131552
-4.5868e-06
0.001312
-4.78739e-06
1.46882e-05
0.000368919
-6.91442e-06
2.54798e-05
-1.56482e-06
-1.56718e-06
-3.53101e-06
8.29823e-07
-8.23925e-06