/*--------------------------------*- C++ -*----------------------------------*\
| =========                 |                                                 |
| \\      /  F ield         | OpenFOAM: The Open Source CFD Toolbox           |
|  \\    /   O peration     | Version:  v1912                                 |
|   \\  /    A nd           | Website:  www.openfoam.com                      |
|    \\/     M anipulation  |                                                 |
\*---------------------------------------------------------------------------*/
FoamFile
{
    version     2.0;
    format      ascii;
    class       volScalarField;
    location    "490";
    object      p;
}
// * * * * * * * * * * * * * * * * * * * * * * * * * * * * * * * * * * * * * //

dimensions      [0 2 -2 0 0 0 0];


internalField   nonuniform List<scalar> 
3754
(
0.237075
0.233762
0.270729
0.227408
0.263598
0.377168
0.218625
0.250414
0.354715
0.554675
0.539688
0.208205
0.23407
0.312832
0.50656
0.450897
0.665323
0.673678
0.61444
0.643135
0.196877
0.216748
0.265392
0.38475
0.317961
0.515016
0.568245
0.460187
0.503767
0.185208
0.199639
0.222908
0.238811
0.379104
0.427519
0.220935
0.204933
0.377113
0.173618
0.18323
0.188022
0.176711
-0.321825
-0.264693
0.135154
0.123133
-0.202954
-0.222144
0.162413
0.167797
0.159583
0.134604
-0.33802
-0.521572
-0.46567
-0.482714
-0.168359
-0.452788
0.151823
0.153554
0.136103
0.103563
-0.269746
-0.418238
-0.438865
-0.546819
-0.529614
-0.436905
-0.551522
0.142027
0.140654
0.116457
0.076334
-0.219808
-0.377029
-0.347544
-0.424647
-0.463591
-0.425582
-0.440438
-0.554592
0.133163
0.129191
0.0999092
0.0530612
-0.185925
-0.338509
-0.334216
-0.315521
-0.348542
-0.372302
-0.465073
-0.37613
-0.420344
-0.434291
-0.445507
0.125335
0.119212
0.0859543
0.0339864
-0.162212
-0.306725
-0.320158
-0.311761
-0.306203
-0.313535
-0.326801
-0.351821
-0.387489
-0.371175
-0.424424
-0.436478
0.118626
0.110743
0.0742036
0.0185063
-0.146219
-0.280989
-0.306864
-0.305928
-0.304536
-0.29514
-0.304195
-0.310158
-0.313902
-0.328571
-0.347092
-0.358903
-0.386928
-0.37267
0.113105
0.103804
0.0643492
0.00601479
-0.136238
-0.261414
-0.295736
-0.299974
-0.301818
-0.294642
-0.284867
-0.291289
-0.298745
-0.304949
-0.311387
-0.309907
-0.319829
-0.333808
-0.325407
-0.348011
-0.358654
0.108828
0.0984122
0.0561725
-0.00394068
-0.130794
-0.247502
-0.287393
-0.295261
-0.299048
-0.293619
-0.283839
-0.285838
-0.273483
-0.297508
-0.299407
-0.303978
-0.306839
-0.314059
-0.309802
-0.308191
-0.322101
-0.333249
-0.32614
0.105848
0.0945764
0.0495233
-0.0117543
-0.128867
-0.238554
-0.28178
-0.292096
-0.296843
-0.292779
-0.283184
-0.272822
-0.274615
-0.283654
-0.289747
-0.262834
-0.293114
-0.297252
-0.300911
-0.298585
-0.304335
-0.307059
-0.316523
-0.309934
-0.307103
0.104217
0.0923137
0.0442961
-0.0177273
-0.129833
-0.234067
-0.278757
-0.290468
-0.295422
-0.292244
-0.282991
-0.272599
-0.262746
-0.263062
-0.273095
-0.278106
-0.282653
-0.285874
-0.288298
-0.291402
-0.297113
-0.256871
-0.296708
-0.301162
-0.298833
-0.304666
-0.307188
-0.316108
-0.309971
0.103987
0.0916434
0.0404283
-0.0220349
-0.133362
-0.23373
-0.278279
-0.290357
-0.294907
-0.292084
-0.283103
-0.272684
-0.262724
-0.255782
-0.257973
-0.263492
-0.264849
-0.272631
-0.275348
-0.276987
-0.279299
-0.295883
-0.247143
-0.296805
-0.301362
-0.299176
0.105215
0.0925879
0.037919
-0.0247363
-0.139407
-0.237384
-0.280341
-0.291749
-0.295353
-0.292382
-0.283476
-0.272952
-0.262816
-0.25491
-0.246315
-0.247961
-0.256313
-0.260466
-0.263055
-0.265911
-0.261942
-0.269221
-0.237003
0.107959
0.0951789
0.0368326
-0.0258186
-0.148226
-0.245027
-0.284942
-0.294617
-0.296772
-0.293186
-0.284103
-0.273362
-0.262989
-0.254283
-0.24553
-0.236224
-0.237781
-0.246099
-0.251012
-0.255465
-0.257892
-0.259798
-0.261309
-0.262958
-0.266448
-0.26058
-0.227568
0.112285
0.0994497
0.0373108
-0.0252198
-0.160388
-0.256815
-0.292092
-0.298937
-0.299158
-0.294519
-0.28498
-0.273886
-0.263208
-0.253842
-0.244814
-0.235492
-0.226764
-0.228415
-0.235995
-0.240851
-0.245228
-0.247892
-0.250085
-0.252333
-0.255958
-0.258234
-0.259923
-0.261246
-0.218092
0.118254
0.105443
0.0396008
-0.0228822
-0.176796
-0.27305
-0.301812
-0.304693
-0.302495
-0.296391
-0.286102
-0.27451
-0.263447
-0.253524
-0.244165
-0.234801
-0.226026
-0.217597
-0.218572
-0.226661
-0.231264
-0.235151
-0.237709
-0.239861
-0.242164
-0.245717
-0.248212
-0.250215
-0.25222
-0.21064
0.125914
0.113215
0.0440928
-0.0188615
-0.198808
-0.2942
-0.31414
-0.311876
-0.306763
-0.298798
-0.287465
-0.275222
-0.263698
-0.253272
-0.243564
-0.234119
-0.225299
-0.21702
-0.209902
-0.211344
-0.216507
-0.221769
-0.225824
-0.228285
-0.230247
-0.23243
-0.235589
-0.237987
-0.239948
-0.242018
-0.202767
0.135286
0.12285
0.0514077
-0.0133624
-0.228401
-0.32088
-0.329129
-0.320478
-0.311937
-0.301721
-0.289057
-0.276013
-0.26395
-0.253048
-0.242991
-0.23342
-0.22454
-0.216338
-0.209099
-0.202067
-0.203348
-0.209806
-0.213835
-0.214831
-0.218892
-0.220863
-0.22315
-0.226231
-0.228512
-0.230307
-0.232277
-0.194654
0.146353
0.134496
0.0624741
-0.00681836
-0.268448
-0.353818
-0.346843
-0.330499
-0.317984
-0.305124
-0.290856
-0.27687
-0.264195
-0.252818
-0.242419
-0.232695
-0.223732
-0.215543
-0.20822
-0.201254
-0.194034
-0.195195
-0.201653
-0.205671
-0.208976
-0.211074
-0.21299
-0.215311
-0.214241
-0.220157
-0.221066
-0.222978
-0.187013
0.159051
0.148414
0.0783895
-0.000522184
-0.322335
-0.393809
-0.367268
-0.34193
-0.324862
-0.308957
-0.292831
-0.277772
-0.264422
-0.252559
-0.241822
-0.231927
-0.222869
-0.214647
-0.207253
-0.200328
-0.193312
-0.186422
-0.18753
-0.193325
-0.197604
-0.200858
-0.202923
-0.204794
-0.206702
-0.209223
-0.21128
-0.213039
-0.216378
-0.213426
-0.179809
0.17318
0.16522
0.100039
0.00273751
-0.392356
-0.441182
-0.390134
-0.354674
-0.332489
-0.313152
-0.294939
-0.278696
-0.264613
-0.25225
-0.241177
-0.231102
-0.221944
-0.213666
-0.206204
-0.19929
-0.192459
-0.185732
-0.179236
-0.180292
-0.18602
-0.189713
-0.191687
-0.194608
-0.196721
-0.198647
-0.201133
-0.203114
-0.204865
-0.206686
-0.209401
-0.211337
-0.213029
-0.216114
-0.17288
0.188272
0.185842
0.128802
0.00381234
-0.481179
-0.494044
-0.414599
-0.368348
-0.340671
-0.317597
-0.297127
-0.279611
-0.264748
-0.251869
-0.240463
-0.230206
-0.220948
-0.212607
-0.205084
-0.198161
-0.19147
-0.184922
-0.178572
-0.172325
-0.173378
-0.178844
-0.182416
-0.186294
-0.189808
-0.194385
-0.194932
-0.196809
-0.198621
-0.201325
-0.20319
-0.205016
-0.206738
-0.166118
0.203698
0.209066
0.169718
0.0151713
-0.599467
-0.546923
-0.438779
-0.382019
-0.348967
-0.322089
-0.299311
-0.280479
-0.264802
-0.251396
-0.23966
-0.229221
-0.219869
-0.211471
-0.203899
-0.19696
-0.190368
-0.183985
-0.177805
-0.171717
-0.165676
-0.166542
-0.171959
-0.175418
-0.179115
-0.182534
-0.185602
-0.187414
-0.190965
-0.188936
-0.193793
-0.194919
-0.196947
-0.198665
-0.159895
0.218511
0.231089
0.229038
0.0317964
-0.743695
-0.593067
-0.459168
-0.394154
-0.356551
-0.326279
-0.301361
-0.281248
-0.264749
-0.250809
-0.238748
-0.228132
-0.218694
-0.210251
-0.202646
-0.1957
-0.189177
-0.182933
-0.176922
-0.171022
-0.165174
-0.159542
-0.160203
-0.165083
-0.168614
-0.172215
-0.175504
-0.178426
-0.180197
-0.183486
-0.181731
-0.154463
0.231758
0.253676
0.243834
0.277607
0.180633
0.239768
0.321992
-0.730953
-0.206992
-0.871559
-0.627017
-0.870246
-0.47071
-0.403028
-0.362339
-0.329672
-0.303085
-0.281852
-0.264562
-0.250094
-0.237713
-0.226927
-0.21741
-0.208935
-0.201318
-0.194379
-0.187916
-0.181788
-0.175927
-0.170218
-0.164577
-0.159096
-0.153993
-0.154877
-0.159425
-0.161594
-0.165466
-0.1688
-0.171523
-0.17325
-0.176415
-0.174713
-0.148647
0.242585
0.273663
0.304754
0.331462
0.352918
0.309827
0.0298312
0.0435474
-0.754289
-0.724378
-0.430571
-1.04122
-0.91973
-0.897574
-0.682205
-0.472617
-0.604553
-0.857948
-0.407389
-0.365622
-0.3318
-0.30427
-0.282213
-0.264227
-0.249253
-0.236557
-0.225601
-0.216009
-0.207513
-0.199903
-0.192992
-0.186593
-0.180568
-0.174839
-0.169304
-0.163867
-0.158553
-0.153482
-0.148267
-0.148978
-0.153599
-0.15655
-0.159818
-0.161415
-0.165355
-0.166491
-0.169649
-0.167991
-0.142949
0.250175
0.287629
0.353952
0.372059
0.396193
0.440569
0.382242
0.330601
0.0382812
-0.0331025
0.357038
-0.180344
-0.948363
-0.860932
-0.675466
-0.503727
-0.407392
-0.453718
-0.604798
-0.366681
-0.332591
-0.304808
-0.282281
-0.263748
-0.248317
-0.23531
-0.224169
-0.214494
-0.20598
-0.198392
-0.191526
-0.185202
-0.179281
-0.173676
-0.168296
-0.163048
-0.157908
-0.152921
-0.147841
-0.142618
-0.143262
-0.147759
-0.150632
-0.153735
-0.156634
-0.1592
-0.160678
-0.161336
-0.162197
-0.137539
0.253848
0.296008
0.378709
0.378361
0.474486
0.500796
0.43543
0.478226
0.538696
0.505121
0.412986
0.0736715
-0.862362
-0.711538
-0.648214
-0.498347
-0.404401
-0.366172
-0.45695
-0.576141
-0.62763
-0.332414
-0.304802
-0.282084
-0.263173
-0.247356
-0.234039
-0.222684
-0.212897
-0.204349
-0.196782
-0.189974
-0.183738
-0.177928
-0.172449
-0.167213
-0.162134
-0.157166
-0.1523
-0.147366
-0.14227
-0.137234
-0.137833
-0.142121
-0.144902
-0.147929
-0.150729
-0.153161
-0.154585
-0.157398
-0.155964
-0.159208
-0.160625
-0.160414
-0.162241
-0.13233
0.253296
0.294112
0.44677
0.523186
0.53512
0.567833
0.593677
0.628024
0.612576
0.476232
0.458649
0.57995
0.511071
0.140911
-0.509715
-0.481826
-0.415686
-0.364328
-0.391111
-0.331531
-0.44488
-0.466409
-0.572585
-0.619365
-0.304393
-0.281704
-0.262578
-0.246464
-0.232851
-0.221241
-0.211287
-0.202662
-0.195093
-0.188337
-0.182194
-0.176504
-0.171157
-0.166065
-0.161145
-0.156341
-0.151615
-0.146839
-0.1419
-0.136936
-0.132055
-0.132604
-0.136721
-0.139411
-0.142293
-0.145008
-0.147358
-0.148774
-0.151526
-0.150107
-0.153278
-0.154618
-0.157391
-0.156042
-0.127276
0.248801
0.285181
0.413755
0.627424
0.569803
0.636716
0.636586
0.610747
0.628159
0.627756
0.672505
0.72299
0.699573
0.387168
-0.501896
-0.481721
-0.444142
-0.419962
-0.406093
-0.371855
-0.330107
-0.353525
-0.396583
-0.386684
-0.303582
-0.466057
-0.281159
-0.262003
-0.245711
-0.231849
-0.219959
-0.209776
-0.201005
-0.193378
-0.186641
-0.180578
-0.175007
-0.169799
-0.164856
-0.160094
-0.15545
-0.150875
-0.146264
-0.141501
-0.136649
-0.131807
-0.127025
-0.127538
-0.131516
-0.134128
-0.136887
-0.139509
-0.141737
-0.143108
-0.145782
-0.144394
-0.147468
-0.1488
-0.15154
-0.150197
-0.122358
0.240768
0.271181
0.372677
0.444724
0.705047
0.494815
0.559031
0.40832
0.733032
0.730645
0.719873
-0.442122
-0.374542
-0.365624
-0.336286
-0.30234
-0.321333
-0.357737
-0.348664
-0.385753
-0.280378
-0.46126
-0.261405
-0.245084
-0.231074
-0.218929
-0.208485
-0.199495
-0.19173
-0.184949
-0.178922
-0.173449
-0.168376
-0.163586
-0.158986
-0.154506
-0.150088
-0.145645
-0.141069
-0.136365
-0.1316
-0.126827
-0.122126
-0.122615
-0.126472
-0.12902
-0.131677
-0.13422
-0.136352
-0.137674
-0.140249
-0.138911
-0.141837
-0.143128
-0.14579
-0.144475
-0.11754
0.229623
0.253385
0.33109
0.369258
0.036018
0.0583462
0.648197
0.0920225
0.0965651
-0.371694
-0.364465
-0.338777
-0.330653
-0.307382
-0.279277
-0.295104
-0.320631
-0.35767
-0.349535
-0.260675
-0.244504
-0.230477
-0.218165
-0.207488
-0.198244
-0.190269
-0.183358
-0.177295
-0.171869
-0.166905
-0.162259
-0.157822
-0.153511
-0.14926
-0.144989
-0.140605
-0.136077
-0.131432
-0.126707
-0.121981
-0.117334
-0.117813
-0.121565
-0.124063
-0.12663
-0.129107
-0.13116
-0.132442
-0.134933
-0.13364
-0.136446
-0.137693
-0.140255
-0.138988
-0.112795
0.215779
0.232851
0.291707
0.310274
0.00798679
-0.0357949
-0.0179863
-0.032022
-0.0142922
-0.338158
-0.330058
-0.305857
-0.28358
-0.259618
-0.273063
-0.294664
-0.316716
-0.323988
-0.243852
-0.229946
-0.21759
-0.206772
-0.197305
-0.189093
-0.181981
-0.175797
-0.17034
-0.165428
-0.160896
-0.15661
-0.152468
-0.148392
-0.144302
-0.140112
-0.135778
-0.131291
-0.126664
-0.121954
-0.117256
-0.112664
-0.113028
-0.116782
-0.119232
-0.12172
-0.124142
-0.126129
-0.127378
-0.129798
-0.128543
-0.131252
-0.132462
-0.13494
-0.133715
-0.108313
0.199604
0.210391
0.25479
0.2625
0.0266552
-0.00268987
-0.00652618
-0.036471
-0.0376603
-0.00584116
-0.0398498
-0.336241
-0.329601
-0.308051
-0.302365
-0.282286
-0.263296
-0.242927
-0.253907
-0.272633
-0.291141
-0.297152
-0.229357
-0.217083
-0.206246
-0.196646
-0.188233
-0.1809
-0.174531
-0.168958
-0.164018
-0.159541
-0.155372
-0.151387
-0.147485
-0.143582
-0.139592
-0.135461
-0.131162
-0.126681
-0.122044
-0.117336
-0.112679
-0.108237
-0.108486
-0.112003
-0.114466
-0.116945
-0.119302
-0.12123
-0.122455
-0.124817
-0.123591
-0.126218
-0.127398
-0.129807
-0.128616
-0.104144
0.181409
0.186612
0.220154
0.220602
0.0385591
0.00359125
0.00921531
-0.00836708
-0.0144972
-0.0114035
-0.00966363
-0.301559
-0.284015
-0.278874
-0.262272
-0.24162
-0.228606
-0.253965
-0.269881
-0.274565
-0.290856
-0.296281
-0.216528
-0.20579
-0.196164
-0.187637
-0.180128
-0.17356
-0.167813
-0.162767
-0.158266
-0.154153
-0.150289
-0.146549
-0.14283
-0.139045
-0.135125
-0.131031
-0.126734
-0.12223
-0.117571
-0.112874
-0.10831
-0.104031
-0.10436
-0.107707
-0.109682
-0.112171
-0.114594
-0.116452
-0.117664
-0.119965
-0.118757
-0.121318
-0.122475
-0.124827
-0.123663
-0.0997946
0.161459
0.161968
0.187694
0.183976
0.043355
0.00771645
0.0119345
0.00233836
0.00342843
0.00401513
0.00213995
-0.0125087
-0.01381
-0.283068
-0.278602
-0.263822
-0.259238
-0.244815
-0.227658
-0.237166
-0.215841
-0.253531
-0.27032
-0.274119
-0.205295
-0.195744
-0.187204
-0.179602
-0.172878
-0.166956
-0.161753
-0.157155
-0.153022
-0.149219
-0.145604
-0.142056
-0.138469
-0.134766
-0.13089
-0.126801
-0.122476
-0.117933
-0.113253
-0.10859
-0.10411
-0.0997345
-0.0999679
-0.1034
-0.105614
-0.107912
-0.109682
-0.111767
-0.112927
-0.11525
-0.114065
-0.116534
-0.117679
-0.119976
-0.11883
-0.0954521
0.139956
0.136818
0.157335
0.152291
0.0447138
0.0110006
0.0140172
0.00352068
-0.00211777
-0.00126822
0.0039605
0.00182747
-0.000139261
-0.00228029
0.00195545
0.00513354
-0.26302
-0.258887
-0.245839
-0.24248
-0.230105
-0.215006
-0.223623
-0.238746
-0.235102
-0.204684
-0.255147
-0.250783
-0.269309
-0.19529
-0.186828
-0.17922
-0.172418
-0.166365
-0.161008
-0.156272
-0.152052
-0.148238
-0.144692
-0.141278
-0.137876
-0.134382
-0.130732
-0.126867
-0.122753
-0.118381
-0.113792
-0.109095
-0.104446
-0.0998826
-0.0954278
-0.0956188
-0.0990326
-0.101212
-0.103503
-0.105708
-0.107493
-0.108556
-0.109848
-0.109704
-0.112361
-0.112994
-0.11524
-0.114152
-0.0912232
0.117055
0.111506
0.129047
0.124887
0.0438527
0.0138653
0.0157432
0.00504647
-0.00161913
-0.0062906
-0.00388533
-0.00128342
-0.00498142
0.00186311
0.00270279
0.00409376
0.00153026
0.0031056
-0.262096
-0.258873
-0.241747
-0.230995
-0.227754
-0.217285
-0.20392
-0.21132
-0.224846
-0.221975
-0.238481
-0.23518
-0.194733
-0.186419
-0.178883
-0.172084
-0.165971
-0.160504
-0.155635
-0.151296
-0.147411
-0.143867
-0.140532
-0.137278
-0.133982
-0.130553
-0.126923
-0.12304
-0.118878
-0.114444
-0.109799
-0.105062
-0.100318
-0.0956475
-0.0912215
-0.0913837
-0.0947316
-0.0968813
-0.0991561
-0.101302
-0.103063
-0.104141
-0.106296
-0.105211
-0.107534
-0.10864
-0.109587
-0.110193
-0.087092
0.093163
0.0864588
0.102954
0.101245
0.0414593
0.0159315
0.0167256
0.00647338
-0.00116471
-0.00586761
-0.0100812
-0.00804965
-0.00586613
-0.00473492
-0.00375071
-0.0025019
-0.000113967
-0.00748287
0.00348302
0.00240071
0.0035795
0.00117336
-0.230128
-0.227302
-0.218118
-0.21515
-0.205812
-0.194046
-0.200753
-0.210824
-0.224712
-0.222547
-0.185915
-0.178514
-0.171784
-0.165681
-0.160167
-0.155209
-0.150759
-0.146776
-0.14318
-0.139864
-0.136706
-0.133575
-0.130357
-0.126961
-0.123321
-0.119394
-0.115164
-0.110652
-0.105927
-0.101072
-0.0961956
-0.0914943
-0.0871093
-0.0872415
-0.0905132
-0.0926346
-0.0948664
-0.0969853
-0.098723
-0.0998029
-0.101916
-0.100838
-0.103129
-0.104184
-0.106339
-0.105264
-0.107578
-0.108579
-0.108923
-0.110085
-0.083043
0.0696
0.0623993
0.0794737
0.0811163
0.0382671
0.0172151
0.016961
0.00748933
-0.000670297
-0.00550486
-0.00986865
-0.0146588
-0.0112757
-0.00955843
-0.00868935
-0.00797221
-0.00693808
-0.00570439
-0.00487028
-0.0039093
-0.00275087
0.00170506
-0.00805851
0.00305968
0.00203426
0.00307589
-0.217264
-0.214465
-0.205088
-0.195767
-0.185291
-0.191161
-0.200542
-0.209228
-0.212114
-0.221912
-0.178065
-0.171454
-0.165413
-0.159914
-0.154926
-0.150402
-0.146333
-0.14266
-0.139315
-0.136198
-0.133183
-0.130147
-0.126977
-0.123586
-0.119911
-0.115917
-0.111599
-0.106981
-0.102118
-0.0971066
-0.0921399
-0.0874311
-0.0830648
-0.0830497
-0.0863691
-0.0884633
-0.0906524
-0.0927396
-0.0944389
-0.095509
-0.0975987
-0.0965252
-0.098792
-0.0998463
-0.101968
-0.100908
-0.103197
-0.104214
-0.106365
-0.105329
-0.0790706
0.0474514
0.0407896
0.0594212
0.0645365
0.0349132
0.0179442
0.0166918
0.00808148
-0.000138523
-0.00503216
-0.00938236
-0.0133987
-0.012438
-0.0145361
-0.0152178
-0.0115054
-0.0109791
-0.0105441
-0.00946074
-0.0086957
-0.00810989
-0.00716656
-0.00596829
-0.216594
-0.214509
-0.2058
-0.203344
-0.195092
-0.186804
-0.177502
-0.182746
-0.190819
-0.198603
-0.20204
-0.171049
-0.165109
-0.159674
-0.154709
-0.150161
-0.14604
-0.1423
-0.138905
-0.135783
-0.132832
-0.129934
-0.126969
-0.123822
-0.120411
-0.116677
-0.112594
-0.108158
-0.10339
-0.0983526
-0.0932022
-0.0881695
-0.0834347
-0.0791031
-0.0791961
-0.0813865
-0.0842775
-0.0865424
-0.0885716
-0.0902332
-0.0912875
-0.0933437
-0.0922846
-0.0945075
-0.0955505
-0.097649
-0.0965957
-0.098861
-0.0998759
-0.102003
-0.100977
-0.0751989
0.0228483
0.0242144
0.0439401
0.0517986
0.0319102
0.0183111
0.0161233
0.00831901
0.000363858
-0.0044989
-0.00874289
-0.0123594
-0.0122493
-0.0143478
-0.0132142
-0.0130299
-0.0146175
-0.0138369
-0.0187135
-0.0116798
-0.0114689
-0.0112463
-0.0107963
-0.00972774
-0.195764
-0.193557
-0.186269
-0.178891
-0.170505
-0.17505
-0.1825
-0.189435
-0.191678
-0.198272
-0.201583
-0.164731
-0.159394
-0.154495
-0.149968
-0.145839
-0.142061
-0.138624
-0.135475
-0.132545
-0.129739
-0.126939
-0.124019
-0.120873
-0.117419
-0.113603
-0.109402
-0.104813
-0.099861
-0.0946505
-0.0893735
-0.0842644
-0.0795221
-0.0752555
-0.0792507
-0.0753423
-0.0832085
-0.0844356
-0.086118
-0.0871488
-0.0891636
-0.0881219
-0.0903017
-0.0913288
-0.0933923
-0.0923546
-0.0945752
-0.0955786
-0.0976823
-0.0966637
-0.0714363
-0.00643468
0.0158258
0.0339658
0.0431761
0.0296181
0.018448
0.0153856
0.00826908
0.000761229
-0.004005
-0.00810152
-0.0115658
-0.0122159
-0.0145711
-0.0155592
-0.0151962
-0.0142237
-0.0192694
-0.0135875
-0.0134878
-0.0132933
-0.013574
-0.0197627
-0.0114211
-0.195333
-0.193406
-0.186878
-0.184838
-0.178428
-0.169776
-0.164257
-0.174591
-0.181029
-0.183484
-0.189262
-0.191401
-0.159045
-0.154241
-0.149771
-0.145672
-0.141893
-0.138435
-0.135262
-0.132332
-0.129575
-0.126894
-0.124167
-0.121277
-0.118111
-0.114592
-0.11067
-0.10632
-0.101546
-0.0964003
-0.0910176
-0.0856096
-0.0804339
-0.0757021
-0.0714938
-0.0755056
-0.0785439
-0.0806279
-0.0715939
-0.0828732
-0.0849577
-0.0834864
-0.0861922
-0.0871858
-0.089212
-0.0881904
-0.0903688
-0.091357
-0.093425
-0.092422
-0.0677247
0.0166255
0.0291208
0.038409
0.028134
0.0184201
0.0145662
0.00799987
0.00101187
-0.00362513
-0.00754496
-0.0109053
-0.0121517
-0.0144647
-0.0180452
-0.0178339
-0.0190568
-0.0177926
-0.0156943
-0.0151873
-0.0150059
-0.0147428
-0.0141668
-0.0190677
-0.186494
-0.184561
-0.179006
-0.177239
-0.170858
-0.163687
-0.167968
-0.158607
-0.174438
-0.180703
-0.183653
-0.153922
-0.149532
-0.145494
-0.141744
-0.138295
-0.135116
-0.132184
-0.129448
-0.126843
-0.124267
-0.121603
-0.118722
-0.115518
-0.111912
-0.107856
-0.10333
-0.0983552
-0.0930101
-0.087449
-0.0819109
-0.076677
-0.0719534
-0.0677788
-0.0718198
-0.0748016
-0.0766546
-0.0781896
-0.0792106
-0.0801462
-0.0811439
-0.067888
-0.0822367
-0.0832814
-0.084694
-0.0851158
-0.0862492
-0.0872117
-0.089245
-0.0882569
-0.0640529
0.0271054
0.0363962
0.0271915
0.0182044
0.0137126
0.00757131
0.00110303
-0.00339616
-0.00713458
-0.0103716
-0.0120313
-0.0142397
-0.0170495
-0.017783
-0.018412
-0.0193689
-0.0188671
-0.018381
-0.0161775
-0.0181236
-0.178664
-0.176655
-0.171244
-0.169642
-0.164667
-0.158078
-0.161763
-0.168314
-0.167466
-0.153532
-0.175152
-0.173352
-0.180453
-0.183274
-0.149234
-0.145275
-0.14158
-0.138165
-0.135003
-0.132075
-0.129354
-0.126795
-0.124326
-0.121842
-0.119222
-0.116336
-0.113076
-0.109361
-0.105146
-0.100426
-0.0952397
-0.0896858
-0.0839386
-0.0782746
-0.0729828
-0.0682511
-0.0641016
-0.0681264
-0.0711082
-0.07295
-0.0744741
-0.075423
-0.0762428
-0.0771494
-0.0642266
-0.0844016
-0.0851037
-0.060428
0.0357485
0.0263053
0.0177117
0.0128318
0.00701868
0.00102852
-0.00333071
-0.00690077
-0.00999288
-0.0118932
-0.0140069
-0.016525
-0.017396
-0.0179363
-0.0183413
-0.0187011
-0.0184562
-0.0186764
-0.0194991
-0.0190676
-0.0183668
-0.178387
-0.176749
-0.164888
-0.163566
-0.158939
-0.153074
-0.156358
-0.162325
-0.16089
-0.167389
-0.14886
-0.145001
-0.141374
-0.138013
-0.134889
-0.131981
-0.129276
-0.126751
-0.124351
-0.121999
-0.119594
-0.117004
-0.114102
-0.110768
-0.106923
-0.102532
-0.0976028
-0.0921927
-0.086417
-0.0804839
-0.0746908
-0.0693328
-0.0645884
-0.060473
-0.0644699
-0.0674195
-0.0692534
-0.0707771
-0.0717238
-0.072546
-0.0734419
-0.0606229
-0.0568603
0.0252319
0.0168552
0.0119021
0.00635406
0.000779016
-0.00343332
-0.00684845
-0.00978519
-0.0117889
-0.0137868
-0.0160259
-0.017001
-0.0174264
-0.0172827
-0.0177765
-0.0187525
-0.0189252
-0.0194155
-0.0184242
-0.0185621
-0.0187707
-0.0196643
-0.0191749
-0.164335
-0.163366
-0.159275
-0.157963
-0.153919
-0.148399
-0.151479
-0.156817
-0.155482
-0.162245
-0.160865
-0.144665
-0.141117
-0.137822
-0.134749
-0.131878
-0.129198
-0.126703
-0.124348
-0.122087
-0.119844
-0.117503
-0.114937
-0.112002
-0.108577
-0.104587
-0.100005
-0.0948529
-0.0892042
-0.0831992
-0.0770734
-0.0711476
-0.0657215
-0.0609784
-0.0569166
-0.0608824
-0.0637741
-0.0655873
-0.0670899
-0.0680289
-0.0688487
-0.0697431
-0.057065
-0.0533906
0.0157691
0.0108728
0.00557331
0.000349959
-0.00370524
-0.00696984
-0.00974692
-0.0117592
-0.0136173
-0.0155682
-0.0165657
-0.0169756
-0.0169949
-0.0175359
-0.0176666
-0.0175958
-0.0178262
-0.0191361
-0.0209643
-0.0181435
-0.0172681
-0.0187281
-0.0188955
-0.158926
-0.157746
-0.154438
-0.152836
-0.149079
-0.144268
-0.146936
-0.151928
-0.150839
-0.156699
-0.155276
-0.140796
-0.137579
-0.134569
-0.131747
-0.129104
-0.126641
-0.124322
-0.122122
-0.11999
-0.117837
-0.115557
-0.113
-0.110019
-0.106492
-0.102345
-0.0975563
-0.0921651
-0.0862666
-0.0800216
-0.0736999
-0.0676393
-0.062161
-0.057443
-0.0534777
-0.0573752
-0.0601889
-0.0619803
-0.0634499
-0.0643749
-0.0651862
-0.0660711
-0.0535297
-0.050163
0.00982703
0.00463579
-0.000259796
-0.00413669
-0.00724956
-0.00986448
-0.0118263
-0.0135352
-0.0152176
-0.0161841
-0.0166117
-0.0167684
-0.0172528
-0.0177432
-0.0178935
-0.0177844
-0.0179061
-0.0177903
-0.0178798
-0.0179888
-0.0224228
-0.0171023
-0.0174411
-0.0190133
-0.154547
-0.152481
-0.148655
-0.144877
-0.14041
-0.143
-0.146686
-0.151779
-0.150289
-0.137276
-0.134343
-0.131578
-0.128979
-0.126557
-0.12427
-0.122115
-0.120056
-0.118035
-0.115971
-0.113735
-0.111178
-0.108144
-0.104504
-0.100183
-0.0951737
-0.0895305
-0.0833684
-0.0768776
-0.0703561
-0.0641748
-0.0586691
-0.0540191
-0.0502068
-0.053755
-0.0566969
-0.0584414
-0.0598689
-0.0607822
-0.0615838
-0.062456
-0.0503591
0.00362971
-0.00107297
-0.00471548
-0.00766457
-0.0101191
-0.0119955
-0.0135576
-0.0150023
-0.0159021
-0.0163411
-0.0165791
-0.0170225
-0.0175006
-0.0179165
-0.0180524
-0.0179418
-0.0180831
-0.0179765
-0.0180571
-0.0181004
-0.018
-0.0180116
-0.018051
-0.0179544
-0.02311
-0.154347
-0.152346
-0.149006
-0.147951
-0.144544
-0.140998
-0.136912
-0.139173
-0.142898
-0.145998
-0.147082
-0.151642
-0.150389
-0.134065
-0.131367
-0.128817
-0.12644
-0.12419
-0.122072
-0.120065
-0.11813
-0.116215
-0.114223
-0.112027
-0.109462
-0.106365
-0.102597
-0.0980909
-0.0928476
-0.0869378
-0.0805018
-0.0737595
-0.0670464
-0.0607666
-0.0552708
-0.0507203
-0.0506281
-0.0531772
-0.0547359
-0.0564111
-0.0572804
-0.0580319
-0.058897
-0.00197764
-0.0054542
-0.00819596
-0.0104877
-0.0122604
-0.0136848
-0.0149254
-0.015736
-0.0161628
-0.0164306
-0.0168213
-0.017262
-0.0176682
-0.0182977
-0.0181585
-0.0180311
-0.0182192
-0.0181297
-0.0182275
-0.0182084
-0.0181006
-0.01814
-0.0181479
-0.0181851
-0.0181095
-0.0181341
-0.144739
-0.143726
-0.140658
-0.137439
-0.13374
-0.135786
-0.138964
-0.141849
-0.143608
-0.131113
-0.128611
-0.126287
-0.124077
-0.121997
-0.12003
-0.118151
-0.116332
-0.114509
-0.112586
-0.110419
-0.107839
-0.104667
-0.100763
-0.0960591
-0.0905659
-0.0843778
-0.0776591
-0.0706669
-0.0637785
-0.0574285
-0.0519656
-0.0499645
-0.051613
-0.0528938
-0.0537831
-0.0542838
-0.0554482
-0.00624794
-0.00885497
-0.0109544
-0.0126073
-0.0139063
-0.0149759
-0.0156895
-0.0160812
-0.0163357
-0.0166571
-0.0170225
-0.0173584
-0.0177165
-0.0167619
-0.0189706
-0.0182302
-0.0181978
-0.0182043
-0.0183799
-0.0183313
-0.0182426
-0.0183039
-0.0183058
-0.0182846
-0.0181786
-0.0182146
-0.140866
-0.140004
-0.137165
-0.13427
-0.130835
-0.132676
-0.135581
-0.138382
-0.139265
-0.141658
-0.143527
-0.128357
-0.126095
-0.123928
-0.121887
-0.119957
-0.11812
-0.116363
-0.114647
-0.112911
-0.111044
-0.108901
-0.106296
-0.103043
-0.0989912
-0.0940743
-0.0883189
-0.0818414
-0.074836
-0.067602
-0.0605576
-0.0541573
-0.0496564
-0.050479
-0.0512659
-0.0520647
-0.0529399
-0.0538098
-0.0539507
-0.00954897
-0.0115301
-0.0130272
-0.014205
-0.0151337
-0.0157539
-0.0160964
-0.0163083
-0.0165452
-0.0168124
-0.0170476
-0.017214
-0.0165198
-0.0165956
-0.0169157
-0.0171131
-0.0198409
-0.0180858
-0.0183938
-0.0183249
-0.0183353
-0.0184134
-0.0184578
-0.0184134
-0.0183264
-0.0183739
-0.140687
-0.139925
-0.137393
-0.136568
-0.134089
-0.131303
-0.128025
-0.1299
-0.132494
-0.134995
-0.135808
-0.138287
-0.139133
-0.125864
-0.123743
-0.121744
-0.119851
-0.118049
-0.116334
-0.114686
-0.113068
-0.111404
-0.109589
-0.107462
-0.104826
-0.10148
-0.0972685
-0.0921268
-0.0860973
-0.0793214
-0.0720295
-0.0645643
-0.0573787
-0.0497546
-0.0487961
-0.050557
-0.0512843
-0.0520551
-0.0121308
-0.0135331
-0.0145693
-0.0153758
-0.0159105
-0.0161983
-0.0163539
-0.0164986
-0.0166563
-0.016784
-0.0168288
-0.0163213
-0.0163082
-0.0165165
-0.0168342
-0.0169617
-0.0170934
-0.0169967
-0.0180747
-0.0213485
-0.0181843
-0.0176672
-0.0184962
-0.0184561
-0.0184351
-0.0184948
-0.13723
-0.136471
-0.134108
-0.133712
-0.131095
-0.127571
-0.125605
-0.129327
-0.131976
-0.132718
-0.134855
-0.135668
-0.123518
-0.121565
-0.119714
-0.117944
-0.116265
-0.114661
-0.113113
-0.111576
-0.109981
-0.108211
-0.106092
-0.103416
-0.0999696
-0.0955862
-0.090207
-0.0838917
-0.0768115
-0.0692361
-0.0615478
-0.0488012
-0.0140508
-0.0150097
-0.015687
-0.016137
-0.0163693
-0.0164662
-0.0165216
-0.0165705
-0.0165913
-0.0165432
-0.0161546
-0.0160771
-0.016238
-0.0162963
-0.0166668
-0.0167837
-0.0170193
-0.0171416
-0.017258
-0.0173063
-0.0172637
-0.0170425
-0.0221156
-0.0185367
-0.0174191
-0.133806
-0.133911
-0.131311
-0.130728
-0.127992
-0.125339
-0.126729
-0.123247
-0.129324
-0.131874
-0.132399
-0.121347
-0.119544
-0.11781
-0.116162
-0.114592
-0.113088
-0.111626
-0.110168
-0.108634
-0.1069
-0.104783
-0.102061
-0.0985017
-0.0939349
-0.088304
-0.0816936
-0.0743059
-0.066448
-0.0154563
-0.0160694
-0.0164176
-0.0165899
-0.0166319
-0.0166092
-0.01656
-0.0164803
-0.0163499
-0.0160208
-0.015888
-0.0159845
-0.0160056
-0.0159167
-0.0169032
-0.0164875
-0.0168274
-0.0169279
-0.0170934
-0.0171844
-0.0172763
-0.0172251
-0.133896
-0.131134
-0.130117
-0.128166
-0.127518
-0.125778
-0.122922
-0.124383
-0.126923
-0.12628
-0.121086
-0.129634
-0.128949
-0.131811
-0.132241
-0.119345
-0.117647
-0.116032
-0.11449
-0.113019
-0.111602
-0.110222
-0.108833
-0.107353
-0.105649
-0.103529
-0.100749
-0.097067
-0.0923032
-0.0864094
-0.079496
-0.0717951
-0.0164533
-0.0167546
-0.0168484
-0.0168356
-0.0167489
-0.0166181
-0.016451
-0.0162457
-0.0159306
-0.0157454
-0.0157624
-0.0157547
-0.01568
-0.0155776
-0.0160803
-0.0162377
-0.0171944
-0.0180532
-0.0164522
-0.0169063
-0.0170002
-0.0170557
-0.0170123
-0.131017
-0.130253
-0.125618
-0.125583
-0.123217
-0.120782
-0.122139
-0.124459
-0.123947
-0.119123
-0.117454
-0.115873
-0.114361
-0.112918
-0.111532
-0.110197
-0.10889
-0.107563
-0.106132
-0.104453
-0.102319
-0.0994732
-0.0956584
-0.0906831
-0.0845147
-0.0772879
-0.0170851
-0.0171481
-0.0170685
-0.0169257
-0.0167312
-0.0164938
-0.0162231
-0.0158931
-0.0156522
-0.0155799
-0.0155232
-0.0154436
-0.015387
-0.0155321
-0.0157411
-0.0158564
-0.0161545
-0.0162518
-0.016322
-0.0165075
-0.0171194
-0.0153732
-0.0166877
-0.016592
-0.125606
-0.12333
-0.122789
-0.121067
-0.11889
-0.120049
-0.12232
-0.121778
-0.124322
-0.12394
-0.117229
-0.115685
-0.114204
-0.112793
-0.111431
-0.110125
-0.108864
-0.107623
-0.106353
-0.104963
-0.103302
-0.101148
-0.0982287
-0.0942661
-0.0890639
-0.0826093
-0.0174326
-0.0173346
-0.0171307
-0.0168842
-0.0165932
-0.0162689
-0.0159098
-0.0156105
-0.0154456
-0.0153236
-0.0152105
-0.0151555
-0.0152453
-0.0151677
-0.0157124
-0.0155852
-0.0158254
-0.0158822
-0.01598
-0.0160164
-0.0162345
-0.0163344
-0.0164185
-0.0166136
-0.0171996
-0.0162825
-0.123175
-0.122692
-0.121184
-0.120673
-0.119111
-0.116965
-0.118232
-0.120198
-0.119693
-0.122263
-0.121734
-0.115462
-0.114019
-0.112643
-0.111307
-0.110024
-0.108791
-0.107596
-0.106415
-0.105195
-0.103843
-0.102193
-0.100012
-0.0970061
-0.092879
-0.0874373
-0.0175823
-0.0173665
-0.0170662
-0.016731
-0.0163662
-0.0159745
-0.0156195
-0.0153667
-0.0151684
-0.0150021
-0.0149033
-0.0148961
-0.0146899
-0.0138959
-0.0149163
-0.0158675
-0.0156244
-0.0156689
-0.0156936
-0.015683
-0.0158918
-0.0159698
-0.0160539
-0.0160988
-0.0163007
-0.0164027
-0.0164905
-0.0167074
-0.121041
-0.120574
-0.119175
-0.11869
-0.11721
-0.115205
-0.116295
-0.118525
-0.117738
-0.120144
-0.119632
-0.113805
-0.112472
-0.111161
-0.109901
-0.108689
-0.107521
-0.106386
-0.105259
-0.104087
-0.102765
-0.10112
-0.0989026
-0.0957976
-0.0914896
-0.0175832
-0.0172766
-0.0168961
-0.0164976
-0.0160763
-0.0156743
-0.0153431
-0.0150662
-0.0148339
-0.014669
-0.0145672
-0.0142897
-0.0136702
-0.0135957
-0.0140338
-0.0143668
-0.014865
-0.015084
-0.015213
-0.0167507