/*--------------------------------*- C++ -*----------------------------------*\
| =========                 |                                                 |
| \\      /  F ield         | OpenFOAM: The Open Source CFD Toolbox           |
|  \\    /   O peration     | Version:  v1912                                 |
|   \\  /    A nd           | Website:  www.openfoam.com                      |
|    \\/     M anipulation  |                                                 |
\*---------------------------------------------------------------------------*/
FoamFile
{
    version     2.0;
    format      ascii;
    class       volVectorField;
    location    "490";
    object      U;
}
// * * * * * * * * * * * * * * * * * * * * * * * * * * * * * * * * * * * * * //

dimensions      [0 1 -1 0 0 0 0];


internalField   nonuniform List<vector> 
3754
(
(0.995633 0.00295955 9.15549e-23)
(0.996038 0.00861643 0)
(0.950798 0.0118294 1.43632e-22)
(0.996667 0.0135886 0)
(0.955794 0.0334303 0)
(0.81286 0.0379888 -1.89679e-21)
(0.997174 0.0174487 0)
(0.965268 0.0511737 -1.10658e-20)
(0.842228 0.0991441 1.25805e-22)
(0.51539 0.0518769 1.04135e-21)
(0.532008 0.146979 8.97009e-22)
(0.997538 0.0199973 -1.49602e-22)
(0.977298 0.0634098 1.10084e-20)
(0.89308 0.145284 0)
(0.578833 0.237842 8.10567e-22)
(0.646663 0.306594 -3.41282e-21)
(0.11781 0.10226 -2.12026e-22)
(0.111641 0.0344285 2.17436e-22)
(0.158627 0.226507 0)
(0.132327 0.167242 0)
(0.997873 0.0213435 0)
(0.988775 0.0707974 4.61985e-22)
(0.935283 0.166937 0)
(0.719256 0.356804 2.56167e-21)
(0.802339 0.380851 -3.74836e-21)
(0.250684 0.313607 -1.09037e-22)
(0.198157 0.277147 2.18613e-21)
(0.479259 0.477553 -6.45791e-22)
(0.345731 0.411233 0)
(0.998254 0.0217398 0)
(0.997903 0.0742102 0)
(0.964819 0.167211 -1.48678e-22)
(0.955576 0.447594 -9.43974e-21)
(0.663116 0.551198 8.3461e-22)
(0.576447 0.518634 -7.70804e-22)
(0.780194 0.506315 0)
(0.296358 0.331718 -2.49473e-21)
(0.132982 0.204043 5.46421e-21)
(0.998675 0.0214367 0)
(1.00445 0.0744156 -6.14364e-23)
(0.987889 0.157955 0)
(1.06425 0.423549 1.19589e-20)
(0.891252 0.319165 -1.18603e-21)
(1.06415 0.388564 3.6632e-21)
(0.557565 0.401535 9.95342e-22)
(0.399261 0.343433 -9.036e-22)
(0.75766 0.378781 -2.00373e-21)
(0.534445 0.272089 1.71551e-21)
(0.999087 0.0206189 -1.32061e-23)
(1.00894 0.072091 0)
(1.00693 0.146267 5.48606e-23)
(1.10775 0.371779 0)
(1.19033 0.309617 -2.24094e-21)
(0.63113 0.092598 -7.09977e-21)
(0.545582 0.146021 2.12851e-21)
(0.922497 0.14358 7.68032e-21)
(0.240979 0.150324 0)
(0.250434 0.0825078 0)
(0.999447 0.0194037 2.47832e-20)
(1.01204 0.0678528 1.43322e-23)
(1.02262 0.134142 1.74458e-23)
(1.12066 0.314963 -5.79413e-21)
(1.28813 0.299651 0)
(1.01839 0.142153 1.53712e-20)
(0.424751 0.0225076 -4.32781e-22)
(0.272149 0.0193267 1.75393e-22)
(0.375928 0.0484172 -1.38828e-22)
(0.726806 0.0702469 0)
(0.133705 0.00951592 -2.98286e-23)
(0.999738 0.0178729 -2.44104e-20)
(1.01428 0.0622472 0)
(1.03474 0.121757 0)
(1.12355 0.265548 1.06147e-20)
(1.30493 0.275472 8.85571e-24)
(1.27024 0.177908 -1.45218e-20)
(0.828294 0.0511801 -1.54974e-20)
(0.581387 0.0533774 4.03509e-21)
(0.202119 0.00144041 1.68688e-22)
(0.324151 0.0206547 -3.61341e-21)
(0.187075 0.00516012 3.36499e-22)
(0.0827441 0.0020634 7.0508e-23)
(0.99996 0.016093 0)
(1.01599 0.0556954 -2.20493e-20)
(1.04356 0.108996 0)
(1.12453 0.223663 -4.73048e-21)
(1.29073 0.24611 0)
(1.3597 0.18637 -2.29251e-20)
(1.1595 0.103383 4.08393e-20)
(0.738367 0.0232853 -3.08208e-20)
(0.465842 0.0147469 0)
(0.495669 0.0169006 1.62867e-23)
(0.0585035 -0.000852493 -1.56833e-22)
(0.268552 0.00405106 -2.03339e-22)
(0.139609 0.0072731 6.6443e-22)
(0.159443 0.00394414 -1.69841e-22)
(0.0578611 0.000227026 -9.75647e-23)
(1.00012 0.0141147 2.3237e-24)
(1.01734 0.0484782 4.13787e-20)
(1.04979 0.095855 1.45194e-20)
(1.12534 0.187495 0)
(1.27017 0.21511 -3.78509e-24)
(1.37077 0.179948 2.0744e-21)
(1.32177 0.129827 -2.49486e-20)
(1.06898 0.0677888 2.78629e-20)
(0.702138 0.0201088 -3.85232e-21)
(0.452311 0.00910331 4.37603e-22)
(0.447791 0.00336339 -4.40519e-22)
(0.254213 0.00303127 -4.1283e-22)
(0.121468 -0.00124999 -6.11796e-22)
(0.119455 0.00210117 1.05327e-21)
(0.0413828 0.000820983 1.50932e-24)
(0.0497342 0.000176977 -1.49506e-24)
(1.00022 0.0119755 0)
(1.01848 0.0407674 -1.9404e-20)
(1.0542 0.0824404 -1.42865e-20)
(1.12603 0.155781 2.0094e-21)
(1.2521 0.185462 0)
(1.35475 0.165757 2.19149e-20)
(1.37441 0.137127 0)
(1.26848 0.0985051 -5.95427e-24)
(1.00717 0.0521917 2.81678e-20)
(0.672999 0.0211995 3.86652e-21)
(0.454988 0.00968873 6.67197e-21)
(0.456271 0.00644042 0)
(0.270775 0.00285345 -5.75411e-21)
(0.251928 -0.00060093 -3.13918e-24)
(0.114426 0.00192214 2.87334e-22)
(0.115735 -0.000754713 5.83003e-22)
(0.035538 -0.000506735 8.72596e-23)
(0.0361865 0.00026138 -1.69225e-22)
(1.00027 0.00970187 0)
(1.01951 0.032669 1.60952e-24)
(1.05741 0.0688332 0)
(1.12663 0.127389 -2.12839e-21)
(1.23827 0.157931 4.55498e-24)
(1.33436 0.149539 0)
(1.37719 0.133934 -5.52262e-24)
(1.35487 0.113486 0)
(1.21988 0.0814561 -2.51786e-20)
(0.958249 0.0466731 0)
(0.641864 0.0211037 1.64966e-20)
(0.439094 0.00828293 -4.24418e-22)
(0.445459 0.00825036 -6.21209e-21)
(0.296337 0.00361718 -1.03583e-21)
(0.293182 0.00179345 -3.38586e-22)
(0.151587 0.00413455 1.67419e-20)
(0.131806 -0.00161146 0)
(0.113466 -0.00160338 0)
(0.120486 0.000342749 -2.22921e-21)
(0.034656 0.000271253 -1.6193e-22)
(0.0352777 -0.00024306 0)
(1.00027 0.00730766 0)
(1.02051 0.0242426 0)
(1.05984 0.0550699 -8.79488e-21)
(1.12736 0.101358 0)
(1.22842 0.132171 0)
(1.3169 0.133315 -3.92325e-20)
(1.36445 0.126672 0)
(1.37693 0.117585 2.2785e-20)
(1.32943 0.100052 0)
(1.17457 0.0732024 2.4887e-20)
(0.91618 0.0437542 0)
(0.346795 0.00539499 -2.01358e-20)
(0.614256 0.0206752 -1.61431e-20)
(0.285846 0.00202755 -1.0556e-21)
(0.292484 0.0035862 -3.46185e-22)
(0.181352 0.00176075 0)
(0.180933 0.000944648 3.13511e-21)
(0.172322 -0.000316909 1.90711e-24)
(0.179274 0.00102702 -1.23312e-22)
(0.0674901 0.00386283 -1.61265e-20)
(0.0447174 -0.000526754 1.57061e-21)
(0.0347414 -0.000378055 0)
(0.0387027 -7.52634e-05 7.01659e-24)
(1.00023 0.00479781 4.58783e-25)
(1.02157 0.0155167 0)
(1.06182 0.0411812 8.50346e-21)
(1.12854 0.0768906 0)
(1.22219 0.107769 2.15527e-20)
(1.30388 0.117398 3.96438e-20)
(1.35028 0.118173 -4.48343e-20)
(1.37293 0.116192 -6.91506e-20)
(1.36836 0.108627 0)
(1.29985 0.0930849 -2.34526e-20)
(1.13267 0.0687702 0)
(0.879677 0.042374 2.70652e-20)
(0.328817 0.00514666 1.83364e-20)
(0.127606 0.00188686 3.11355e-21)
(0.130087 -0.000677344 -9.18972e-22)
(0.596071 0.0223268 -3.11732e-20)
(0.172234 0.000443019 1.04561e-21)
(0.174101 0.00115371 5.12339e-22)
(0.179024 0.00112424 -1.26297e-22)
(0.178007 0.00170827 1.14467e-21)
(0.104751 0.000513445 0)
(0.104915 0.000315367 -8.62809e-22)
(0.0980299 -0.000301046 3.28817e-21)
(0.103195 0.000265845 -8.43664e-22)
(0.0187269 0.00102465 4.36238e-21)
(1.00016 0.00216456 0)
(1.02277 0.00650038 -1.40546e-20)
(1.06353 0.0271692 -6.59731e-21)
(1.13044 0.0532507 -2.89639e-24)
(1.21947 0.0843626 -2.05762e-20)
(1.29537 0.101865 -9.92355e-24)
(1.33896 0.109425 4.43553e-20)
(1.36237 0.112631 1.32002e-22)
(1.37292 0.111102 0)
(1.35316 0.10425 0)
(1.26857 0.0892583 0)
(1.09461 0.0663195 -2.39126e-20)
(0.84918 0.0427309 2.64722e-20)
(0.333356 0.00670947 -1.70874e-23)
(0.123295 0.0016787 0)
(0.121775 -0.000517847 -1.03605e-22)
(0.0291858 0.000420056 1.59825e-22)
(0.0293996 3.23724e-05 0)
(0.0299534 8.23868e-05 8.04488e-23)
(0.0300296 -0.000501973 0)
(0.0991152 -0.000411534 0)
(0.579168 0.0212276 -1.5556e-20)
(0.101104 0.000635421 -4.38144e-22)
(0.103416 0.000366051 2.1676e-22)
(0.102686 0.000525302 0)
(0.0332518 2.36727e-05 0)
(0.0334581 9.03714e-06 0)
(0.0315565 -0.000574587 -2.23326e-21)
(0.0328492 -8.42236e-05 5.6655e-22)
(1.00008 -0.000608955 3.07778e-20)
(1.02417 -0.00279366 2.7448e-20)
(1.06505 0.0129983 6.39004e-21)
(1.13331 0.0296927 -2.95695e-24)
(1.22029 0.0615936 9.67078e-24)
(1.29137 0.0867603 -1.64346e-23)
(1.33147 0.100843 4.32113e-20)
(1.35266 0.108458 4.52468e-20)
(1.36586 0.110851 -4.6191e-20)
(1.3662 0.109202 0)
(1.33381 0.102144 2.6696e-24)
(1.23766 0.0868697 2.66274e-24)
(1.06061 0.0651942 0)
(0.82179 0.0407553 3.23279e-24)
(0.332068 0.00744739 1.28281e-20)
(0.159691 0.00088055 -3.72299e-22)
(0.138139 0.00103965 6.76894e-21)
(0.0296807 0.00042792 -1.3984e-21)
(0.0276828 -0.000132408 8.17817e-23)
(0.0279976 2.25023e-05 -7.91786e-23)
(0.0279669 -0.000389812 7.93653e-23)
(0.0311887 -0.00028352 -1.83891e-23)
(0.557381 0.020173 -1.51883e-20)
(0.0320961 6.80588e-05 1.82181e-23)
(0.0328319 8.7491e-06 -1.54186e-22)
(0.0326127 3.69729e-05 9.12449e-24)
(1.00001 -0.00354691 -3.03095e-20)
(1.02582 -0.0123393 -4.07246e-20)
(1.06635 -0.00141285 0)
(1.13739 0.00548638 0)
(1.22481 0.0391263 -3.96163e-24)
(1.29194 0.0721221 3.57993e-20)
(1.32803 0.0926229 -4.21618e-20)
(1.34591 0.104314 0)
(1.35731 0.109725 4.56119e-20)
(1.36291 0.111065 2.73969e-24)
(1.35487 0.108861 0)
(1.31275 0.100833 -2.15319e-20)
(1.20832 0.0852532 -2.68266e-24)
(1.0297 0.0626136 2.28752e-20)
(0.793894 0.0387523 0)
(0.317165 0.00699796 1.90484e-20)
(0.15766 0.00300012 0)
(0.160652 0.00114341 6.82516e-21)
(0.0775737 0.000248978 0)
(0.072481 0.000121627 5.53182e-23)
(0.0497272 0.00291824 -5.68023e-21)
(0.0336312 -0.000600648 1.62119e-21)
(0.535457 0.0190812 0)
(1.00001 -0.00667137 0)
(1.02774 -0.0220698 2.66696e-20)
(1.06723 -0.0161935 0)
(1.1429 -0.0201218 0)
(1.23334 0.0166651 -6.87013e-24)
(1.29726 0.0580111 -7.05508e-20)
(1.32882 0.0848975 4.24594e-20)
(1.34273 0.100482 -1.08942e-23)
(1.35079 0.108521 0)
(1.35567 0.111825 5.53496e-24)
(1.35551 0.112149 -2.73391e-24)
(1.34128 0.108817 2.1327e-20)
(1.29145 0.0997239 0)
(1.18062 0.0826172 -2.10598e-20)
(0.999834 0.0598491 -2.22783e-20)
(0.767146 0.0369324 0)
(0.301455 0.00622984 -7.98219e-24)
(0.147501 0.00276685 -2.85292e-21)
(0.151214 0.000709589 -3.78112e-22)
(0.0740671 0.00102451 1.18385e-22)
(0.0753876 0.00042376 2.37391e-22)
(0.0772279 0.0006183 -2.35054e-22)
(0.0774947 0.000142063 -9.33155e-22)
(0.0245278 -4.49776e-05 0)
(0.023282 -0.000502865 0)
(0.0137798 0.000832796 0)
(0.516741 0.0178613 0)
(1.00016 -0.00998468 -3.23855e-20)
(1.02977 -0.0318665 -2.84224e-20)
(1.06734 -0.0315659 1.05716e-20)
(1.1502 -0.0479892 -6.30109e-21)
(1.2464 -0.0060757 2.24126e-20)
(1.30765 0.0445072 3.47486e-20)
(1.33408 0.0778078 -4.13843e-20)
(1.3434 0.0971422 1.05037e-23)
(1.34744 0.10759 1.08938e-23)
(1.3494 0.112424 0)
(1.34971 0.114058 -2.62788e-24)
(1.34592 0.113109 -4.25511e-20)
(1.32683 0.108539 4.10843e-20)
(1.27041 0.0976726 2.00975e-20)
(1.15369 0.0796215 4.0829e-20)
(0.971519 0.0573096 0)
(0.743392 0.0350907 2.41415e-20)
(0.288852 0.00566654 4.08215e-21)
(0.138912 0.00246476 0)
(0.141758 0.000377509 1.8777e-22)
(0.0685789 0.000940969 0)
(0.0696558 0.000258394 1.16254e-22)
(0.0711196 0.000551918 0)
(0.0718554 -6.18839e-05 -2.34275e-22)
(0.0231438 0.000114445 -6.85145e-23)
(0.0238273 -5.55881e-06 -1.02782e-22)
(0.0245297 7.43724e-05 1.0291e-22)
(0.0247176 -4.0344e-06 0)
(0.504201 0.0178182 -2.77774e-20)
(1.00051 -0.0134486 3.18884e-20)
(1.03162 -0.0415726 2.77728e-20)
(1.06627 -0.0479395 9.03479e-22)
(1.16007 -0.0791502 5.98903e-21)
(1.26502 -0.0293554 -6.902e-20)
(1.32374 0.0316985 0)
(1.3442 0.0715029 9.41059e-25)
(1.34824 0.0944591 0)
(1.34774 0.107135 4.5075e-20)
(1.34588 0.113275 4.4796e-20)
(1.34376 0.115669 0)
(1.34172 0.11574 4.21628e-20)
(1.33547 0.113516 -8.16416e-20)
(1.312 0.1073 -1.97759e-20)
(1.24933 0.0950481 -1.94443e-20)
(1.12781 0.0767368 0)
(0.945695 0.0548466 -2.1073e-20)
(0.723606 0.0340939 2.34554e-20)
(0.286199 0.00599543 0)
(0.132718 0.0023805 -5.93562e-21)
(0.134246 0.000271427 0)
(0.0643291 0.00084678 0)
(0.0651408 0.000180091 -1.14906e-22)
(0.0662642 0.00047044 -1.15227e-22)
(0.0667933 -0.000165506 0)
(0.0213085 0.000104229 0)
(0.0218657 -3.06641e-05 6.75186e-23)
(0.022382 7.75064e-05 0)
(0.0225085 -4.04937e-05 1.3577e-22)
(0.495544 0.0170155 2.70599e-20)
(1.00109 -0.0169693 -3.55792e-20)
(1.03274 -0.0510413 -3.13113e-20)
(1.06381 -0.0660055 -1.0799e-20)
(1.17396 -0.114862 3.79757e-21)
(1.29075 -0.0533694 -6.2328e-21)
(1.34658 0.0197098 -7.90983e-20)
(1.35991 0.0661537 -4.36467e-20)
(1.35777 0.0926009 -1.05771e-23)
(1.35212 0.107319 -4.42726e-20)
(1.34586 0.114585 -4.41944e-20)
(1.34015 0.117477 1.03707e-23)
(1.33618 0.117905 -4.19916e-20)
(1.33301 0.116599 -4.35356e-23)
(1.3246 0.11294 -2.43739e-24)
(1.29673 0.105328 0)
(1.22856 0.0923163 0)
(1.10361 0.0738985 0)
(0.922693 0.0528868 0)
(0.706933 0.0325544 2.2771e-20)
(0.290955 0.00594581 -2.97082e-20)
(0.140991 0.00307668 3.5448e-22)
(0.132633 -0.000185425 2.55533e-21)
(0.0611665 0.000796102 -4.49928e-22)
(0.061477 0.000159701 0)
(0.0624297 0.000450787 0)
(0.0628189 -0.000165468 -1.12605e-22)
(0.0199515 9.46804e-05 0)
(0.0203959 -3.65651e-05 0)
(0.0207877 7.30152e-05 3.33254e-23)
(0.0208273 -5.15514e-05 -3.31204e-23)
(0.48465 0.0163198 2.63953e-20)
(1.00182 -0.020409 3.50126e-20)
(1.03255 -0.0602096 -2.76489e-21)
(1.06034 -0.0867175 2.73503e-24)
(1.19388 -0.156494 -3.57485e-21)
(1.32527 -0.0781524 4.90145e-20)
(1.3771 0.00876676 -7.37424e-21)
(1.38188 0.0619752 4.23354e-20)
(1.37258 0.0917645 3.21865e-23)
(1.3611 0.108306 -4.49766e-20)
(1.34987 0.116496 4.43713e-20)
(1.33993 0.119709 4.31764e-20)
(1.33255 0.120184 8.32574e-20)
(1.32802 0.119051 4.01392e-20)
(1.32405 0.116432 3.87076e-20)
(1.31332 0.111548 -4.47214e-24)
(1.2813 0.10304 0)
(1.20862 0.089506 0)
(1.08133 0.0713099 0)
(0.902197 0.0506122 -3.97106e-20)
(0.690569 0.0309365 -2.2248e-20)
(0.286387 0.00618276 -7.03172e-24)
(0.156491 0.00276932 0)
(0.153051 0.00066986 -2.62855e-21)
(0.0778034 0.00265987 -6.93288e-21)
(0.0683559 -0.00027617 0)
(0.0635844 0.000192447 -7.22968e-21)
(0.0609453 -0.000471902 0)
(0.0188662 8.27288e-05 2.60097e-22)
(0.0191924 -3.66468e-05 0)
(0.0195403 7.35912e-05 -3.26778e-23)
(0.0195553 -4.65404e-05 9.76674e-23)
(0.471926 0.0156161 -6.15057e-24)
(1.00256 -0.0235998 0)
(1.0306 -0.06912 3.28575e-20)
(1.05689 -0.11105 3.65799e-24)
(1.22113 -0.205181 -2.27658e-24)
(1.36859 -0.103496 6.43184e-20)
(1.4144 -0.000667785 8.02609e-20)
(1.40944 0.0592878 0)
(1.39254 0.0922 2.16802e-23)
(1.37489 0.110287 8.9029e-20)
(1.3583 0.119149 -4.36322e-20)
(1.34368 0.1225 -4.26212e-20)
(1.33222 0.122842 -4.12242e-20)
(1.32447 0.121531 -3.98223e-20)
(1.31976 0.119096 -3.83694e-20)
(1.31488 0.115403 0)
(1.30184 0.1097 4.45425e-24)
(1.26617 0.100534 0)
(1.18979 0.0867374 0)
(1.0609 0.0685318 7.94198e-23)
(0.882946 0.0482426 0)
(0.674192 0.0295004 0)
(0.277506 0.00600435 7.16013e-24)
(0.152632 0.00306587 9.16842e-24)
(0.154734 0.00116067 -1.31117e-21)
(0.0940499 0.00128197 0)
(0.0937426 0.000618803 1.04214e-22)
(0.0922764 0.000529047 -1.02011e-22)
(0.0885546 -0.00017697 3.24363e-21)
(0.0340006 0.00233848 4.4498e-21)
(0.0229948 -0.000223734 0)
(0.0205514 -8.31213e-05 2.11821e-21)
(0.0189317 -0.000127496 1.30917e-22)
(0.459402 0.0148406 -1.24767e-20)
(1.0031 -0.0263375 -1.65082e-22)
(1.02674 -0.0777993 0)
(1.05419 -0.139772 2.06314e-20)
(1.25389 -0.261766 -1.99483e-22)
(1.41588 -0.128177 -6.12038e-20)
(1.45244 -0.00785156 -1.9668e-23)
(1.43764 0.058572 9.41681e-20)
(1.41457 0.094207 -2.1661e-23)
(1.39204 0.113475 -1.34269e-19)
(1.37071 0.122698 4.40016e-20)
(1.35155 0.125971 -2.11302e-23)
(1.33578 0.126022 3.99299e-23)
(1.3241 0.124346 3.93758e-20)
(1.31641 0.121673 -3.79341e-20)
(1.3115 0.118239 0)
(1.30566 0.113834 0)
(1.29048 0.107535 -3.39637e-20)
(1.25158 0.0979079 0)
(1.17212 0.0838021 1.67439e-20)
(1.04177 0.0656748 1.72621e-20)
(0.864585 0.0460938 0)
(0.658703 0.0281575 0)
(0.268496 0.00553879 1.22274e-20)
(0.146956 0.00270073 0)
(0.148776 0.00102531 -3.30009e-22)
(0.0905156 0.00138061 4.12934e-22)
(0.0915365 0.000770447 4.14794e-22)
(0.092689 0.000902561 4.14521e-22)
(0.0931587 0.000306917 8.28302e-22)
(0.0534628 0.000368214 -8.66564e-23)
(0.0536634 0.000198502 2.68046e-22)
(0.0525018 0.000148175 0)
(0.0497409 -4.29116e-05 2.12605e-23)
(0.00938899 0.000625296 -4.68362e-22)
(0.448246 0.0141147 0)
(1.00328 -0.0283544 -4.62435e-20)
(1.0207 -0.0857558 1.56113e-22)
(1.05057 -0.173181 -1.98604e-20)
(1.28441 -0.326488 1.93928e-22)
(1.45336 -0.14818 -1.63304e-23)
(1.47558 -0.0115249 -2.34687e-23)
(1.45298 0.0604014 5.8056e-21)
(1.42909 0.0980252 2.19667e-23)
(1.40663 0.118006 8.86927e-20)
(1.38402 0.127255 -1.31028e-19)
(1.36222 0.130227 0)
(1.34298 0.129829 4.05128e-20)
(1.32746 0.127652 -9.30661e-25)
(1.31605 0.124523 7.50015e-20)
(1.3085 0.120863 9.01909e-24)
(1.30337 0.116785 8.29252e-24)
(1.29662 0.111891 3.35495e-20)
(1.27945 0.105146 -3.88421e-24)
(1.23766 0.0950875 -3.18378e-20)
(1.1554 0.0807772 -1.61e-20)
(1.0237 0.0630136 0)
(0.847499 0.0441338 0)
(0.644795 0.0269244 0)
(0.260507 0.00514489 6.82349e-24)
(0.141074 0.00272983 0)
(0.143464 0.000735105 2.88688e-21)
(0.0863522 0.000338157 0)
(0.0873659 0.000431891 0)
(0.0883124 0.000792032 0)
(0.0890668 0.000255953 8.16558e-22)
(0.0511334 0.000399037 0)
(0.0520479 0.000275425 -2.66892e-22)
(0.0527771 0.000276745 0)
(0.0529895 0.000140864 1.75874e-22)
(0.0166701 2.26358e-05 1.21961e-22)
(0.0168957 1.70279e-06 -2.12121e-22)
(0.0164762 -6.16171e-05 -2.96636e-23)
(0.015855 -0.000339014 9.27679e-22)
(0.439294 0.0134782 1.16719e-20)
(1.0032 -0.0292968 9.53117e-20)
(1.0117 -0.0912871 -1.70597e-22)
(1.04027 -0.209105 0)
(1.29582 -0.395043 1.63074e-21)
(1.45529 -0.157883 0)
(1.45421 -0.00934073 -2.87487e-23)
(1.42955 0.0651339 -9.87745e-20)
(1.4162 0.103519 0)
(1.40484 0.123664 -2.27644e-23)
(1.38949 0.132705 8.68383e-20)
(1.37081 0.135257 -3.96645e-23)
(1.35149 0.134314 -3.9969e-20)
(1.3338 0.131535 0)
(1.31915 0.127823 -8.11972e-23)
(1.30821 0.123693 -8.9043e-24)
(1.30085 0.119412 3.4183e-20)
(1.29554 0.114922 -8.24327e-24)
(1.28789 0.109673 3.17812e-20)
(1.26882 0.102536 3.1083e-20)
(1.22431 0.0921487 0)
(1.13953 0.0778899 0)
(1.00687 0.0605765 0)
(0.831989 0.0423584 0)
(0.632934 0.025862 0)
(0.254406 0.00486445 -1.32715e-20)
(0.136168 0.00253531 0)
(0.137936 0.000716226 1.41681e-21)
(0.0644407 0.000511374 2.20138e-22)
(0.0658565 2.90775e-05 -2.12574e-22)
(0.0489368 -0.000481394 -8.95441e-23)
(0.0499106 3.24178e-05 -1.18895e-25)
(0.050078 0.00021195 8.75602e-23)
(0.0503878 0.000123676 -4.39074e-22)
(0.0158236 2.90245e-05 -3.02616e-23)
(0.0162231 1.54198e-05 -3.03791e-23)
(0.016483 1.65514e-05 0)
(0.0164925 -3.87217e-06 -1.21553e-22)
(0.433714 0.0131542 0)
(1.00292 -0.0287503 -4.85058e-20)
(0.999332 -0.0926777 0)
(1.01343 -0.238831 4.23874e-20)
(1.25963 -0.454449 -1.58374e-21)
(1.38336 -0.158429 2.96119e-23)
(1.34322 0.000813399 -1.35763e-19)
(1.32926 0.0721095 8.17868e-23)
(1.34525 0.109589 -5.20131e-23)
(1.36314 0.129391 0)
(1.3702 0.138317 8.96237e-20)
(1.36615 0.140663 -3.96788e-23)
(1.35463 0.139317 -7.95528e-20)
(1.33962 0.135975 3.79717e-20)
(1.32434 0.13164 -7.68518e-23)
(1.31097 0.126922 0)
(1.30068 0.122178 -3.38297e-20)
(1.29358 0.117527 3.60424e-25)
(1.28808 0.112764 -3.14646e-20)
(1.27951 0.107226 3.78668e-24)
(1.25856 0.099786 2.95134e-20)
(1.21152 0.0892808 0)
(1.12463 0.0752108 0)
(0.991407 0.0583617 0)
(0.818231 0.0408235 -1.65922e-20)
(0.623483 0.0251538 -1.8563e-20)
(0.252917 0.00465621 3.20746e-21)
(0.132875 0.0024268 3.08011e-21)
(0.133662 0.000612552 -3.42951e-22)
(0.0619014 0.00045884 0)
(0.0629937 0.000141384 -1.21635e-21)
(0.014542 0.000197776 -3.20863e-23)
(0.0146864 -0.000119928 6.38739e-23)
(0.0147937 -0.000248826 -6.51276e-23)
(0.0149094 0.000150503 -4.84408e-26)
(0.0151265 -0.000217967 5.90751e-23)
(0.0155487 -2.98508e-05 2.96876e-23)
(0.0155509 1.37804e-05 -5.94832e-23)
(0.0155846 -5.72955e-06 5.97242e-23)
(0.431224 0.0132575 2.14903e-20)
(1.00197 -0.0265434 0)
(0.984726 -0.0899981 -5.81178e-20)
(0.958163 -0.249331 -6.67648e-20)
(1.13958 -0.498487 -5.33815e-21)
(1.18151 -0.150737 5.03723e-21)
(1.08913 0.0167092 1.56113e-19)
(1.11189 0.078388 -7.11983e-23)
(1.18277 0.113283 -5.92296e-23)
(1.25248 0.132728 4.83082e-23)
(1.30199 0.14225 -9.24943e-20)
(1.32961 0.145249 -4.04032e-23)
(1.33931 0.144162 7.97305e-20)
(1.33663 0.140652 3.7692e-20)
(1.32697 0.135872 -3.60031e-20)
(1.31471 0.130595 0)
(1.30296 0.125294 1.58334e-23)
(1.2935 0.120207 0)
(1.28672 0.115338 3.08046e-20)
(1.28099 0.110382 0)
(1.27144 0.104635 -2.90423e-20)
(1.24865 0.0970546 -3.52125e-24)
(1.19936 0.086576 0)
(1.11074 0.0727491 0)
(0.977335 0.0564106 1.48224e-20)
(0.80627 0.0396235 1.60142e-20)
(0.616059 0.0247674 1.79131e-20)
(0.258224 0.0050904 -3.00838e-20)
(0.135454 0.00226079 1.0486e-20)
(0.132498 0.000354013 -5.35624e-21)
(0.0600665 0.00042757 -2.23004e-21)
(0.060736 0.000126822 -7.03468e-23)
(0.0139125 0.000187908 -3.13623e-23)
(0.0140346 -0.000125635 3.12566e-23)
(0.01425 -0.000174204 6.33247e-23)
(0.0142597 0.000149838 0)
(0.428147 0.0129958 0)
(1.00046 -0.0226007 0)
(0.967393 -0.0807147 -5.08061e-21)
(0.944407 -0.182578 2.10528e-20)
(0.921115 -0.182794 2.40708e-20)
(0.970858 -0.57451 9.26029e-21)
(0.866096 -0.563398 1.90669e-20)
(0.870874 -0.308313 2.57543e-20)
(1.07453 -0.205152 1.43348e-19)
(0.912547 -0.483124 5.70696e-23)
(0.789758 -0.138742 -8.91737e-20)
(0.657566 0.0325152 0)
(0.635936 0.0091288 -6.91137e-20)
(0.762991 0.0794834 1.54005e-22)
(0.913744 0.109378 1.28031e-22)
(1.05252 0.129602 -5.46117e-23)
(1.16177 0.141293 -3.92081e-24)
(1.23884 0.146659 4.2393e-23)
(1.28656 0.147278 -8.18137e-20)
(1.31046 0.144632 -7.49064e-23)
(1.31729 0.140041 0)
(1.31363 0.134527 3.40072e-20)
(1.30493 0.128773 0)
(1.29515 0.123184 -1.57434e-23)
(1.28669 0.117926 -3.04569e-20)
(1.28024 0.112936 2.92606e-20)
(1.27423 0.107867 -6.80137e-24)
(1.26365 0.102036 2.74994e-20)
(1.23915 0.0944406 0)
(1.1879 0.0840587 0)
(1.09787 0.0705397 0)
(0.964624 0.0547684 -1.41858e-20)
(0.795833 0.0386868 -1.54425e-20)
(0.608991 0.0241228 0)
(0.260008 0.00530355 0)
(0.149301 0.00220953 0)
(0.142723 0.00156586 9.83598e-21)
(0.0629458 4.33426e-05 -1.33926e-20)
(0.0598677 -8.92733e-06 0)
(0.0133896 0.00017539 -3.07474e-23)
(0.0134718 -0.000123876 -2.83182e-25)
(0.0136538 -0.000169293 6.19363e-23)
(0.0136773 0.000146204 3.06953e-23)
(0.422647 0.0128247 0)
(0.998788 -0.0169614 -5.11595e-22)
(0.952806 -0.0643335 6.48644e-20)
(0.896463 -0.168277 -2.40597e-20)
(0.874241 -0.151724 -2.91441e-20)
(0.828737 -0.283547 4.63803e-22)
(0.765454 -0.548424 -2.90071e-20)
(0.654439 -0.511259 -8.46742e-22)
(0.835146 -0.616395 1.07863e-21)
(0.594238 -0.189854 2.50206e-20)
(0.263185 -0.101683 -2.03674e-21)
(0.449736 -0.268035 3.48587e-21)
(0.221455 -0.00735348 -4.1134e-21)
(0.275747 0.0264674 -3.29217e-20)
(0.476271 0.0146551 3.71323e-20)
(0.301868 0.0545446 1.11629e-19)
(0.344793 0.071403 5.11807e-20)
(0.199629 0.0113153 -1.07738e-19)
(0.278518 0.0120708 -1.04056e-22)
(0.573365 0.0922617 -1.85092e-22)
(0.774339 0.115265 -1.44106e-22)
(0.943952 0.131449 5.90961e-23)
(1.07868 0.141547 -9.64853e-23)
(1.17749 0.146063 8.65107e-20)
(1.24287 0.146086 -7.83036e-20)
(1.28031 0.142998 0)
(1.29686 0.13809 -3.40679e-20)
(1.29968 0.132344 -8.11547e-25)
(1.29499 0.126435 0)
(1.28749 0.120752 0)
(1.28018 0.115439 -2.89684e-20)
(1.27409 0.110414 0)
(1.26775 0.105335 -2.71664e-20)
(1.25617 0.0995236 3.27969e-24)
(1.23011 0.0919823 0)
(1.17713 0.0817658 3.07316e-24)
(1.086 0.0686116 -1.29504e-20)
(0.95311 0.0533752 0)
(0.786134 0.0376752 0)
(0.601049 0.0236024 0)
(0.256568 0.00533318 0)
(0.150554 0.00291871 2.40133e-21)
(0.150761 0.00118746 0)
(0.0835453 0.000557274 2.03353e-21)
(0.0751008 0.000676217 6.30211e-23)
(0.016102 0.000509902 4.7795e-21)
(0.0142139 -0.000332484 -6.66463e-23)
(0.0131627 -0.000197927 -3.04374e-23)
(0.0134577 0.000115448 9.26022e-23)
(0.415796 0.0126338 0)
(0.997114 -0.00998913 6.23546e-20)
(0.942944 -0.0414185 5.2534e-22)
(0.854403 -0.127168 2.94914e-20)
(0.838615 -0.100219 6.10496e-22)
(0.77733 -0.265829 -3.4762e-20)
(0.727945 -0.234894 7.29219e-20)
(0.694469 -0.447784 4.19569e-23)
(0.74198 -0.461323 9.21107e-21)
(0.470714 -0.456883 -1.38388e-21)
(0.529037 -0.451241 5.85178e-23)
(0.617313 -0.578956 9.64528e-21)
(0.281652 -0.249369 0)
(0.0709533 0.0212784 -2.14514e-20)
(0.122679 0.0115877 9.21131e-23)
(0.0634041 0.0247707 -9.76861e-20)
(0.118864 0.047202 9.65717e-20)
(0.261447 0.0598958 0)
(0.128645 0.0266949 -9.15814e-20)
(0.0472612 0.000619152 8.57334e-20)
(0.474855 0.0872147 0)
(0.676029 0.109862 0)
(0.855583 0.126776 0)
(1.00479 0.137461 1.38656e-22)
(1.11928 0.142401 -3.94693e-23)
(1.19939 0.142774 0)
(1.24931 0.13997 0)
(1.2755 0.135241 3.23843e-23)
(1.28513 0.129601 -1.53534e-23)
(1.28484 0.123754 -2.92706e-20)
(1.27991 0.118114 0)
(1.27388 0.112844 0)
(1.26819 0.107879 -6.3654e-24)
(1.26155 0.102878 -6.18213e-24)
(1.24904 0.097146 0)
(1.22155 0.0897186 0)
(1.16704 0.0797225 2.46432e-20)
(1.07503 0.0669261 0)
(0.942406 0.0520426 0)
(0.776433 0.036806 0)
(0.59248 0.0232062 -1.6287e-20)
(0.251372 0.00514752 1.38987e-21)
(0.14753 0.00284734 2.34403e-21)
(0.148952 0.0013568 0)
(0.0839524 0.000896091 -2.25388e-21)
(0.0845288 0.00047491 -2.84451e-22)
(0.0396896 0.00032121 0)
(0.0387281 -1.27061e-05 -1.34607e-21)
(0.0246997 0.00169655 -1.61783e-20)
(0.0363004 0.000133122 0)
(0.408531 0.0124467 9.51714e-21)
(0.995678 -0.00237266 -1.25078e-19)
(0.934011 -0.0132087 -3.04554e-21)
(0.827301 -0.0728595 0)
(0.820217 -0.0517628 -4.31145e-20)
(0.688745 -0.186401 -4.0143e-20)
(0.660525 -0.128514 -6.40135e-22)
(0.637444 -0.423279 -1.19479e-20)
(0.581399 -0.394284 1.06159e-20)
(0.488883 -0.318652 1.41419e-20)
(0.530521 -0.358411 -1.27758e-20)
(0.543295 -0.570014 -2.46878e-22)
(0.412498 -0.452242 1.60215e-21)
(0.0201208 0.00682793 -4.67844e-20)
(-0.00230787 0.010213 1.43942e-21)
(0.00608217 -0.00330402 -1.74694e-21)
(0.0194286 0.0147072 -5.65731e-20)
(0.0717964 0.0214772 -1.26316e-22)
(0.230071 0.0500466 0)
(0.0457057 0.0135867 1.75829e-20)
(-0.000417337 -0.0093733 -5.48106e-20)
(0.0078545 0.000343714 2.41016e-20)
(0.413597 0.0778744 0)
(0.603741 0.101611 1.26681e-22)
(0.783167 0.119472 1.03712e-22)
(0.939218 0.131054 -4.9927e-23)
(1.06443 0.136921 4.05537e-23)
(1.15654 0.138165 -7.16829e-20)
(1.21777 0.136039 0)
(1.25335 0.131799 2.92905e-23)
(1.26998 0.126486 5.82876e-20)
(1.2744 0.120856 0)
(1.2723 0.115372 0)
(1.26773 0.11024 0)
(1.26252 0.105416 6.31405e-24)
(1.25563 0.100546 2.30473e-25)
(1.24226 0.0949424 0)
(1.21345 0.087676 0)
(1.1576 0.0779119 0)
(1.06478 0.0653835 0)
(0.93209 0.0508875 0)
(0.76668 0.0361411 3.50854e-23)
(0.583768 0.0228862 -7.88214e-21)
(0.245864 0.00501701 1.34947e-21)
(0.143804 0.00267523 -2.28666e-21)
(0.145384 0.00122068 0)
(0.0817209 0.000829268 -2.2105e-21)
(0.0828813 0.000521602 0)
(0.0389211 0.000435558 0)
(0.0392411 -5.66018e-06 3.39697e-22)
(0.0395489 -0.000110901 6.81711e-22)
(0.0396384 0.000343373 -3.40792e-22)
(0.0122771 4.65471e-05 -2.55553e-23)
(0.0120545 -6.82078e-05 -8.09902e-22)
(0.00677936 0.000472167 6.36637e-21)
(0.0115733 -0.000267647 0)
(0.401296 0.0123246 0)
(0.994528 0.00518458 6.26012e-20)
(0.935671 0.0185332 -7.84723e-20)
(0.752273 0.0619254 3.53797e-20)
(0.641077 -0.0609479 0)
(0.636537 0.0220096 0)
(0.455549 -0.269527 0)
(0.427115 -0.216022 1.83741e-20)
(0.3844 -0.102029 0)
(0.403432 -0.159653 -1.851e-20)
(0.404561 -0.501885 2.24244e-20)
(0.317073 -0.405036 -1.94156e-20)
(0.208114 -0.329175 -1.84734e-20)
(0.262702 -0.375528 -4.15287e-22)
(0.341146 -0.445279 1.23184e-21)
(-0.0106614 0.00434218 -2.56765e-20)
(0.00195324 0.000112336 0)
(0.00671437 0.00900176 7.41214e-23)
(0.0723254 0.0178126 -5.39841e-20)
(0.01452 0.000344736 1.81164e-20)
(0.204738 0.0431473 2.03736e-19)
(0.01582 0.00241485 -8.74755e-23)
(0.0115685 0.00682746 1.59668e-22)
(-0.00729177 -0.00233872 1.30483e-20)
(0.00032436 -0.000251221 9.29065e-22)
(0.369512 0.0697254 0)
(0.547397 0.093022 -1.3273e-22)
(0.72218 0.111144 1.06519e-19)
(0.880434 0.123542 -2.78342e-24)
(1.01275 0.130501 7.77864e-20)
(1.11453 0.13278 1.84884e-24)
(1.18587 0.131536 0)
(1.23047 0.12797 -2.94646e-20)
(1.2542 0.123139 0)
(1.26359 0.117848 0)
(1.26459 0.11262 -2.55729e-20)
(1.26165 0.107708 0)
(1.25704 0.103077 5.79588e-24)
(1.24996 0.0983799 5.85647e-24)
(1.2358 0.0929419 0)
(1.20579 0.0858554 -2.25803e-20)
(1.14872 0.0762878 0)
(1.055 0.0640507 0)
(0.922046 0.0499845 3.32037e-23)
(0.757074 0.0356386 0)
(0.575208 0.0226668 0)
(0.240399 0.00496944 0)
(0.140072 0.00260615 -2.22428e-21)
(0.141647 0.00116691 0)
(0.079372 0.000753023 -3.6139e-22)
(0.0804913 0.00045076 2.39889e-22)
(0.0375779 0.000412368 0)
(0.0379084 -2.45582e-05 4.15486e-22)
(0.0384379 -0.00010224 -8.36151e-23)
(0.0383176 0.000336394 7.65239e-25)
(0.0119643 5.7023e-05 0)
(0.0121384 -2.45517e-05 0)
(0.0122294 -3.90853e-05 2.58314e-23)
(0.012267 4.78603e-05 0)
(0.39443 0.0122791 0)
(0.993748 0.0122199 0)
(0.942218 0.0458808 3.46074e-21)
(0.803602 0.134236 9.48976e-22)
(0.38448 0.261434 -1.98781e-20)
(0.50758 0.349657 -2.12321e-21)
(0.372089 -0.0428449 0)
(0.371294 0.0143732 0)
(0.414143 0.126717 1.89455e-21)
(0.384104 0.0728978 0)
(0.1661 -0.269482 -1.59288e-21)
(0.134884 -0.202735 -1.60981e-21)
(0.0983207 -0.0674674 -2.64365e-20)
(0.112581 -0.134841 2.52064e-20)
(0.15561 -0.267191 -1.36603e-21)
(-0.00944317 -0.000867744 -1.49647e-20)
(-0.00293012 -0.00185872 0)
(0.00313119 2.36799e-05 -1.46803e-22)
(-0.00125244 0.00242484 1.29518e-20)
(-6.83702e-05 1.67951e-07 -1.41984e-20)
(0.0160447 0.0079989 -1.56668e-20)
(0.0659746 0.0153288 -2.03836e-19)
(0.0172576 -1.61446e-05 8.31533e-20)
(0.000913172 0.000227274 -1.2757e-20)
(0.00249471 -0.00193785 -1.99566e-20)
(0.184704 0.0383114 0)
(0.000776364 -0.00112784 -1.62737e-20)
(0.334636 0.0625564 0)
(0.500822 0.0846331 -2.52425e-19)
(0.669295 0.102637 4.90675e-23)
(0.827084 0.115708 8.68461e-20)
(0.963896 0.123627 0)
(1.07342 0.12697 3.33764e-23)
(1.15376 0.126691 0)
(1.20694 0.123909 -5.49295e-23)
(1.23777 0.119671 0)
(1.25235 0.114822 2.30111e-22)
(1.25669 0.109935 0)
(1.25561 0.105299 1.13953e-23)
(1.25171 0.100901 -2.30317e-20)
(1.24454 0.0964088 -5.40063e-24)
(1.22966 0.0911563 2.20831e-20)
(1.19854 0.0842414 0)
(1.14025 0.074893 -2.17217e-20)
(1.0456 0.0629957 2.23131e-20)
(0.91233 0.0493125 0)
(0.747765 0.0352993 0)
(0.567078 0.02257 0)
(0.235172 0.00496611 0)
(0.136403 0.00257901 0)
(0.137945 0.00117069 -1.09386e-21)
(0.0771053 0.000730886 1.17141e-22)