/*--------------------------------*- C++ -*----------------------------------*\
| =========                 |                                                 |
| \\      /  F ield         | OpenFOAM: The Open Source CFD Toolbox           |
|  \\    /   O peration     | Version:  v1912                                 |
|   \\  /    A nd           | Website:  www.openfoam.com                      |
|    \\/     M anipulation  |                                                 |
\*---------------------------------------------------------------------------*/
FoamFile
{
    version     2.0;
    format      ascii;
    class       volScalarField;
    location    "350";
    object      p;
}
// * * * * * * * * * * * * * * * * * * * * * * * * * * * * * * * * * * * * * //

dimensions      [0 2 -2 0 0 0 0];


internalField   nonuniform List<scalar> 
3754
(
-0.00658899
-0.00656246
-0.00634469
-0.00651826
-0.00631912
-0.00609878
-0.00647943
-0.00627384
-0.00607441
-0.00586768
-0.00645276
-0.00623436
-0.00603272
-0.00584441
-0.00564083
-0.00644468
-0.00620491
-0.00599653
-0.00580209
-0.00561819
-0.00542111
-0.00646413
-0.00619266
-0.00596625
-0.00576286
-0.00557806
-0.00539836
-0.00521135
-0.00652092
-0.00620409
-0.00594864
-0.00573229
-0.00554359
-0.00535908
-0.00518923
-0.00500617
-0.00661697
-0.00624701
-0.00595233
-0.00571577
-0.00551641
-0.00532548
-0.00515004
-0.00498482
-0.00480733
-0.00675381
-0.00632683
-0.00598295
-0.00571969
-0.00550102
-0.00529854
-0.00511561
-0.00494709
-0.00478682
-0.00461617
-0.00692692
-0.00644527
-0.00604251
-0.00574767
-0.00550548
-0.00528617
-0.00508931
-0.00491533
-0.00474967
-0.00459478
-0.00443123
-0.00711783
-0.0066029
-0.00612616
-0.00580101
-0.00553585
-0.0052946
-0.00507785
-0.00489152
-0.00471645
-0.00455891
-0.00441119
-0.00424757
-0.00728237
-0.00680901
-0.00623225
-0.00588035
-0.00559663
-0.00532755
-0.00508764
-0.00488007
-0.00469274
-0.00453035
-0.00437534
-0.00422814
-0.00407156
-0.00736759
-0.00704253
-0.0073865
-0.00635826
-0.00598338
-0.0056872
-0.00538942
-0.00512332
-0.00488922
-0.00468405
-0.00450726
-0.00434289
-0.00419377
-0.0040529
-0.00389766
-0.00741589
-0.00733738
-0.00651356
-0.00697472
-0.0073673
-0.00610723
-0.0058026
-0.00548005
-0.00518712
-0.00492375
-0.00469462
-0.00449607
-0.0043205
-0.00416603
-0.00401891
-0.00388012
-0.00372969
-0.00747972
-0.00756433
-0.00672499
-0.00625894
-0.00658077
-0.00707256
-0.00736865
-0.00736234
-0.00593405
-0.00559664
-0.0052787
-0.00498709
-0.00473097
-0.00450636
-0.00431335
-0.00414542
-0.00398988
-0.00384797
-0.00371139
-0.00356896
-0.00751093
-0.00728243
-0.00791407
-0.00678642
-0.00649293
-0.00607741
-0.0063467
-0.00668415
-0.00702468
-0.00711717
-0.00730992
-0.00741423
-0.00573301
-0.00539296
-0.00507863
-0.00479563
-0.0045425
-0.00432448
-0.00413761
-0.00396914
-0.00382176
-0.00367999
-0.00355224
-0.00340588
-0.00755772
-0.00686401
-0.00845749
-0.00692258
-0.00683886
-0.00657545
-0.00626395
-0.00587412
-0.00613429
-0.00644206
-0.00673533
-0.00681181
-0.00699456
-0.00660606
-0.00742597
-0.00748315
-0.00552496
-0.00519448
-0.00488606
-0.00460533
-0.00436037
-0.00414882
-0.00396146
-0.00380272
-0.00365484
-0.00352027
-0.0033893
-0.00325166
-0.00694983
-0.00918878
-0.00695374
-0.00690803
-0.00667392
-0.00660068
-0.0063371
-0.00604412
-0.00566782
-0.00592169
-0.00621653
-0.00646789
-0.00654595
-0.00679116
-0.00684783
-0.00532564
-0.00499597
-0.00469468
-0.00442309
-0.00418312
-0.00397336
-0.00379648
-0.00363745
-0.00349458
-0.00336052
-0.00323517
-0.00309659
-0.00670575
-0.00664164
-0.00642802
-0.00635585
-0.00611231
-0.00583315
-0.00546518
-0.00571887
-0.00600183
-0.00624351
-0.0063093
-0.00651229
-0.00657259
-0.00512286
-0.00480794
-0.00451104
-0.00424277
-0.00400945
-0.00380908
-0.00363304
-0.00347887
-0.00333817
-0.00320484
-0.00308134
-0.00294358
-0.00646058
-0.00639058
-0.00619235
-0.00613888
-0.00589921
-0.00562543
-0.00526151
-0.00551707
-0.00579691
-0.00603187
-0.00609227
-0.00627844
-0.00634502
-0.00493621
-0.00461836
-0.00432846
-0.00407134
-0.00384275
-0.00364583
-0.00347594
-0.00332277
-0.00318126
-0.0030535
-0.00293007
-0.0027996
-0.0062255
-0.00617286
-0.00598038
-0.00592614
-0.0056938
-0.00542234
-0.00507052
-0.00531589
-0.00558926
-0.00582684
-0.00588234
-0.00606473
-0.00612991
-0.00474046
-0.00443615
-0.00415576
-0.00390107
-0.0036812
-0.00349019
-0.00332142
-0.00316791
-0.00303217
-0.00290337
-0.00278405
-0.00265357
-0.00601723
-0.00595906
-0.00577156
-0.00572615
-0.00549422
-0.00522227
-0.00487298
-0.00512459
-0.00538768
-0.00561734
-0.0056763
-0.00586188
-0.00591697
-0.00455968
-0.00426028
-0.00398461
-0.00373883
-0.00352573
-0.00333861
-0.00316929
-0.00301981
-0.00288273
-0.00275588
-0.00264037
-0.00251099
-0.00580625
-0.00576202
-0.00557388
-0.00551906
-0.00529085
-0.00502616
-0.0046911
-0.0049288
-0.00519329
-0.00542111
-0.00546976
-0.0056532
-0.00570969
-0.00437953
-0.00408814
-0.0038179
-0.003583
-0.00337524
-0.00318931
-0.00302282
-0.00287202
-0.00273557
-0.00261375
-0.00249733
-0.00237271
-0.00560748
-0.00555138
-0.00536879
-0.00531863
-0.00509687
-0.00483756
-0.00450643
-0.00474429
-0.00499936
-0.00522037
-0.00527528
-0.00545651
-0.00550511
-0.00420548
-0.00391824
-0.00366187
-0.00343344
-0.0032312
-0.00304574
-0.00287538
-0.00272362
-0.00259275
-0.00247117
-0.0023602
-0.00223632
-0.00540097
-0.005352
-0.00517493
-0.00512497
-0.00490301
-0.00465102
-0.00433155
-0.00456196
-0.0048118
-0.00503322
-0.00507324
-0.00525395
-0.0053103
-0.00403447
-0.00375839
-0.00351071
-0.00329216
-0.00309012
-0.00289928
-0.002728
-0.00258085
-0.00245065
-0.00233507
-0.00222418
-0.00210216
-0.00520578
-0.00516345
-0.00497729
-0.00493181
-0.00471623
-0.0044703
-0.00415855
-0.00438683
-0.00462952
-0.0048417
-0.00488782
-0.00506564
-0.0051021
-0.00387031
-0.00360422
-0.00336953
-0.0031549
-0.00294882
-0.00275319
-0.00258253
-0.00243878
-0.00231656
-0.00219966
-0.00209026
-0.00197005
-0.00501072
-0.00496651
-0.00479196
-0.00474408
-0.00453371
-0.00429662
-0.0039924
-0.00421301
-0.00445193
-0.00465984
-0.00470048
-0.00487255
-0.00491833
-0.00371161
-0.00345917
-0.00323628
-0.00302222
-0.0028028
-0.00260453
-0.00243992
-0.00230557
-0.0021824
-0.00206717
-0.00195922
-0.00184252
-0.00482883
-0.00477562
-0.00460904
-0.00456063
-0.00436232
-0.00412513
-0.0038301
-0.0040479
-0.00427531
-0.00447835
-0.00452279
-0.00469264
-0.00472682
-0.00356042
-0.00332765
-0.00311389
-0.00287978
-0.00265043
-0.00245818
-0.00230618
-0.00217302
-0.00205116
-0.00193687
-0.00183225
-0.00171453
-0.00464561
-0.0045904
-0.00443413
-0.00438957
-0.00418884
-0.00396126
-0.00367533
-0.00388749
-0.00410916
-0.00430273
-0.00434831
-0.00451022
-0.00454931
-0.00342283
-0.00321001
-0.0029818
-0.00272317
-0.00249647
-0.00232266
-0.00217695
-0.00204361
-0.00192147
-0.0018111
-0.00170425
-0.00158987
-0.00446997
-0.00441697
-0.00425661
-0.00421789
-0.00402344
-0.00379963
-0.00352692
-0.00373689
-0.00394795
-0.00413824
-0.00417512
-0.00433644
-0.0043783
-0.00329858
-0.0031044
-0.00282355
-0.00255566
-0.00235642
-0.00219613
-0.00204969
-0.00191724
-0.00179842
-0.00168378
-0.00158061
-0.0014624
-0.00428733
-0.00424642
-0.00409159
-0.00404919
-0.00386289
-0.00364609
-0.00338516
-0.00359197
-0.00379291
-0.0039751
-0.00401505
-0.00417096
-0.00420232
-0.00321933
-0.00295487
-0.00263219
-0.00240657
-0.00223324
-0.00207383
-0.00192715
-0.00179539
-0.00167363
-0.00156114
-0.00145513
-0.00133672
-0.00412211
-0.00407584
-0.00392833
-0.00389209
-0.00371176
-0.00349759
-0.00328796
-0.00345504
-0.00364439
-0.00382211
-0.00385237
-0.00400571
-0.00404456
-0.00312289
-0.00272446
-0.00247042
-0.00228747
-0.0021166
-0.00195486
-0.00180756
-0.00167474
-0.0015509
-0.0014379
-0.00132927
-0.00121193
-0.00395827
-0.00391955
-0.00377524
-0.00373972
-0.00356719
-0.00336335
-0.00330122
-0.00332982
-0.00350359
-0.00367296
-0.00370376
-0.0038542
-0.00387743
-0.00283894
-0.00254165
-0.00235688
-0.0021777
-0.00200119
-0.00183843
-0.00169059
-0.00155353
-0.00143081
-0.00131299
-0.00120631
-0.00108518
-0.00380405
-0.0037645
-0.0036297
-0.0036024
-0.00342631
-0.00331981
-0.00296838
-0.00343666
-0.00333465
-0.00353695
-0.00355873
-0.00370199
-0.00373008
-0.0026198
-0.00244055
-0.0022557
-0.00206555
-0.00188774
-0.0017242
-0.00157342
-0.00143686
-0.00130914
-0.00119241
-0.00108168
-0.000957396
-0.00365873
-0.00362769
-0.00349244
-0.00347226
-0.00327162
-0.00313448
-0.00272611
-0.00293553
-0.00365545
-0.00339873
-0.00341058
-0.00356158
-0.00358832
-0.00253169
-0.00234708
-0.00214523
-0.00195506
-0.00177798
-0.00161282
-0.00145988
-0.00132007
-0.0011911
-0.00106915
-0.000953933
-0.000828421
-0.00352516
-0.00349691
-0.00329469
-0.00323526
-0.00318026
-0.00290056
-0.00263325
-0.00281768
-0.00297573
-0.00400998
-0.00309141
-0.00343317
-0.00346066
-0.00244665
-0.00223652
-0.00203648
-0.00184872
-0.0016708
-0.00150363
-0.00134968
-0.00120378
-0.00106997
-0.000942869
-0.000827647
-0.000697268
-0.00337469
-0.00327962
-0.00290852
-0.00309033
-0.00296229
-0.00277561
-0.00254443
-0.0026954
-0.00289274
-0.00304442
-0.00308583
-0.00466805
-0.00313447
-0.00233608
-0.00212761
-0.00193255
-0.00174391
-0.00156591
-0.00139793
-0.00123656
-0.00108892
-0.000948068
-0.000819479
-0.000697551
-0.000560754
-0.00304234
-0.00299644
-0.00282735
-0.00265526
-0.00243508
-0.00258289
-0.00275562
-0.00291117
-0.00296362
-0.00222338
-0.00202429
-0.00182912
-0.00164335
-0.00146446
-0.00129147
-0.00112894
-0.000972466
-0.000828312
-0.000691671
-0.00056368
-0.000422138
-0.00288003
-0.0028415
-0.00269962
-0.00253897
-0.00232206
-0.00247347
-0.00263846
-0.00277447
-0.00281122
-0.00211952
-0.00192111
-0.00173086
-0.00154607
-0.001365
-0.00119044
-0.00101889
-0.000856535
-0.000704153
-0.000560367
-0.00042737
-0.000278366
-0.00274549
-0.00271624
-0.00258281
-0.00242534
-0.00221626
-0.00236356
-0.00252706
-0.00266185
-0.00269316
-0.0020165
-0.00182268
-0.00163497
-0.0014515
-0.00127
-0.00108759
-0.000910093
-0.000739157
-0.000577687
-0.000427045
-0.000286124
-0.000130738
-0.00263105
-0.00260162
-0.00247039
-0.00231743
-0.00211087
-0.00225786
-0.00241531
-0.00254696
-0.00257696
-0.00191577
-0.00172707
-0.00154518
-0.00136092
-0.00117602
-0.000988433
-0.000801529
-0.000620022
-0.000449128
-0.000289135
-0.000140653
2.46856e-05
-0.00251844
-0.00249074
-0.00236357
-0.00220826
-0.00200919
-0.00215326
-0.00230855
-0.00243628
-0.00246684
-0.00182022
-0.00163929
-0.00145674
-0.00127511
-0.00108528
-0.000888404
-0.000691488
-0.000499098
-0.000317134
-0.000146085
1.1183e-05
0.000185366
-0.00240895
-0.00238339
-0.00225384
-0.00210529
-0.00191137
-0.00205202
-0.00220089
-0.00233519
-0.00235659
-0.00173015
-0.00155187
-0.00137738
-0.0011921
-0.000995079
-0.000789687
-0.000580196
-0.000374838
-0.000179353
1.30269e-06
0.000169908
0.000352841
-0.00230078
-0.00227443
-0.00215107
-0.00200441
-0.00181911
-0.00195418
-0.0020991
-0.00222132
-0.00224903
-0.00164297
-0.00147484
-0.00129994
-0.00111136
-0.000906737
-0.000690829
-0.000467095
-0.000247643
-3.82467e-05
0.000156764
0.000335103
0.0005273
-0.00219733
-0.00216984
-0.00204848
-0.00190893
-0.00172888
-0.00186009
-0.00200144
-0.00211975
-0.00214533
-0.00156498
-0.00140251
-0.00122633
-0.0010316
-0.000820157
-0.000591315
-0.000353893
-0.000115523
0.000110031
0.00031899
0.000510146
0.000706016
-0.00209335
-0.00206773
-0.00195104
-0.0018159
-0.0016476
-0.00176935
-0.00190545
-0.00202275
-0.0020482
-0.00149452
-0.00133484
-0.00115384
-0.000955484
-0.000735674
-0.000492587
-0.00023516
2.24223e-05
0.000266628
0.000490034
0.000695787
0.00090258
-0.00199479
-0.00196996
-0.00185812
-0.00172852
-0.00157606
-0.00168318
-0.0018137
-0.00192425
-0.00195008
-0.00143175
-0.00126687
-0.00108337
-0.000884255
-0.00065222
-0.000391677
-0.000111657
0.000166315
0.00042952
0.000676872
0.000898753
0.00108638
-0.0019002
-0.00187747
-0.00176826
-0.00164527
-0.00151213
-0.00160804
-0.00172463
-0.00183479
-0.001855
-0.00136891
-0.00119617
-0.00102215
-0.000815264
-0.000569857
-0.000288121
1.44766e-05
0.000318242
0.000613288
0.000867596
0.00118419
0.000448241
-0.00180938
-0.00178876
-0.00167934
-0.00159609
-0.00144952
-0.00166354
-0.00162314
-0.00174925
-0.00176859
-0.00129449
-0.00113962
-0.000964553
-0.000750402
-0.000487731
-0.00018128
0.000148841
0.000489038
0.00078284
0.0012023
0.000540109
-0.00172473
-0.00170523
-0.00155916
-0.00151329
-0.00137857
-0.00147638
-0.00235841
-0.00186707
-0.00166095
-0.00168316
-0.00123649
-0.00108897
-0.000913574
-0.000687135
-0.00040323
-7.10893e-05
0.000298424
0.000636523
0.00111521
0.000570246
-0.00163795
-0.00162079
-0.000859625
-0.0016618
-0.00158286
-0.00144768
-0.00131639
-0.0014131
-0.00154681
-0.00150858
-0.0015837
-0.0011872
-0.00104713
-0.000866213
-0.000625931
-0.000318785
5.30042e-05
0.000424544
0.0009423
0.000512611
-0.00144123
-0.00164547
-0.0016056
-0.00148952
-0.00146229
-0.00138128
-0.00126494
-0.00135336
-0.00145034
-0.00142638
-0.00157022
-0.00153717
-0.00164678
-0.0011492
-0.00101032
-0.000824132
-0.000564867
-0.000223824
0.000155864
0.000687792
0.000396029
-0.0016703
-0.00163184
-0.00150825
-0.00148166
-0.00141284
-0.00139717
-0.00132526
-0.00122511
-0.00130338
-0.00138408
-0.00136884
-0.00146609
-0.00144504
-0.00159204
-0.00156059
-0.00111679
-0.000982564
-0.000783381
-0.000499333
-0.000144574
0.000365307
0.000239207
-0.00152353
-0.00149898
-0.00142794
-0.00141584
-0.00135663
-0.00134202
-0.0012791
-0.00119354
-0.00126172
-0.00133194
-0.00132046
-0.00139929
-0.00138526
-0.00147976
-0.00146146
-0.00109665
-0.000957177
-0.000743372
-0.000440895
4.90309e-06
6.0465e-05
-0.00144299
-0.00143098
-0.00137248
-0.00135796
-0.00130655
-0.00129525
-0.00124233
-0.00117305
-0.00122987
-0.00128858
-0.00127618
-0.00134816
-0.0013362
-0.00141405
-0.0014006
-0.00108113
-0.000937732
-0.000701811
-0.000353237
-0.000120672
-0.00138656
-0.00137258
-0.00132217
-0.00131055
-0.0012659
-0.00125921
-0.00121452
-0.00116077
-0.00120868
-0.00125229
-0.00124358
-0.00130193
-0.00129165
-0.00136308
-0.001349
-0.00107768
-0.000908697
-0.000669841
-0.000285566
-0.0013393
-0.00132436
-0.00127894
-0.00127381
-0.00123725
-0.00122953
-0.00119638
-0.00116547
-0.00119668
-0.00122747
-0.00122213
-0.00126345
-0.00125784
-0.00131353
-0.00130494
-0.00106369
-0.000921353
-0.000420342
-0.00129227
-0.00128471
-0.00124946
-0.00124255
-0.00121536
-0.00121097
-0.00119216
-0.00117136
-0.00120135
-0.00121249
-0.00120684
-0.00123766
-0.00123433
-0.00127504
-0.0012708
-0.00111111
-0.000521976
-0.00126008
-0.00125394
-0.00122731
-0.00122336
-0.00120316
-0.00120731
-0.0011982
-0.00127014
-0.00120616
-0.00120721
-0.00121082
-0.00122053
-0.00121652
-0.00124833
-0.00124359
-0.000595189
-0.00123932
-0.00123364
-0.00121394
-0.00121465
-0.00120808
-0.00121491
-0.00123849
-0.000708344
-0.00131102
-0.0012135
-0.00121683
-0.00121534
-0.00121531
-0.00122792
-0.00122553
-0.0012225
-0.00122055
-0.00121584
-0.00121981
-0.00122744
-0.00124448
-0.00134768
-0.000662001
-0.00127624
-0.0012999
-0.00122037
-0.00122322
-0.001223
-0.00122125
-0.00122161
-0.00122273
-0.00123479
-0.00124769
-0.00133396
-0.00140737
-0.00136733
-0.000563357
-0.00127375
-0.00129654
-0.00122349
-0.00122557
-0.0012339
-0.00124564
-0.00132154
-0.00142206
-0.00152378
-0.000578861
-0.0012687
-0.00129402
-0.0013212
-0.00141379
-0.00166106
-0.000727117
-0.0963148
-0.0961629
-0.0953265
-0.095383
-0.0959965
-0.0958382
-0.0952675
-0.0952811
-0.0956146
-0.0960725
-0.0960378
-0.096153
-0.0950566
-0.0953486
-0.0950991
-0.0955889
-0.0963868
-0.0964478
-0.0962435
-0.0964005
-0.0948436
-0.0951467
-0.0948814
-0.0954758
-0.0950855
-0.0972296
-0.0965249
-0.0968771
-0.0964631
-0.0966735
-0.0945983
-0.0949113
-0.0946474
-0.0956295
-0.0945495
-0.094655
-0.0974067
-0.0973384
-0.0966707
-0.0967093
-0.0969377
-0.0969044
-0.0943941
-0.0947023
-0.0944331
-0.095776
-0.0947254
-0.0936672
-0.0942004
-0.0944763
-0.0975741
-0.0971612
-0.0968189
-0.0971109
-0.0941835
-0.0942325
-0.0959225
-0.0948848
-0.0938384
-0.092778
-0.0933861
-0.0937709
-0.0940419
-0.0942696
-0.0977289
-0.0969642
-0.093965
-0.094009
-0.0960686
-0.0950356
-0.0940014
-0.0929492
-0.091883
-0.0924371
-0.0928878
-0.0934397
-0.0934891
-0.0936217
-0.0938267
-0.097875
-0.0971076
-0.0937309
-0.093778
-0.0962151
-0.0951851
-0.0941568
-0.0931178
-0.0920588
-0.0909988
-0.0915433
-0.0919919
-0.0923534
-0.0927442
-0.0927857
-0.0933693
-0.0935748
-0.0980163
-0.0972495
-0.0935404
-0.096362
-0.0953364
-0.0943115
-0.0932808
-0.0922341
-0.0911736
-0.0901677
-0.0906452
-0.0910862
-0.091463
-0.0919077
-0.0921908
-0.0924155
-0.0928236
-0.0926096
-0.0929833
-0.0933374
-0.0981541
-0.0973831
-0.0965009
-0.0954893
-0.0944691
-0.0934433
-0.0924058
-0.0913514
-0.0903135
-0.0892107
-0.0897923
-0.0903047
-0.0905316
-0.0909868
-0.0912972
-0.0915223
-0.091951
-0.0917343
-0.0982829
-0.0974899
-0.0966118
-0.0956343
-0.094629
-0.0936095
-0.0925782
-0.0915308
-0.0904771
-0.0893962
-0.0882649
-0.0888323
-0.0893153
-0.0896897
-0.0903094
-0.0903242
-0.0905691
-0.0910469
-0.0908212
-0.098386
-0.0975264
-0.0966463
-0.0957487
-0.0947806
-0.0937782
-0.0927547
-0.0917134
-0.0906567
-0.0895785
-0.0884626
-0.0873103
-0.0878943
-0.0883804
-0.0887462
-0.0891943
-0.0894477
-0.0896437
-0.0900865
-0.0903124
-0.0984228
-0.0974102
-0.0965167
-0.0957798
-0.0948983
-0.0939371
-0.0929334
-0.0919014
-0.0908468
-0.0897685
-0.0886609
-0.0875133
-0.0863306
-0.0869357
-0.0874292
-0.0878117
-0.0882877
-0.0885724
-0.0888188
-0.0892503
-0.089014
-0.0894391
-0.0895382
-0.0904993
-0.0983172
-0.0970068
-0.0960787
-0.0956338
-0.0949256
-0.0940578
-0.0931001
-0.0920911
-0.0910459
-0.0899704
-0.0888651
-0.087724
-0.0865414
-0.0853191
-0.0859482
-0.0864518
-0.0868501
-0.0873372
-0.0876317
-0.087875
-0.0883425
-0.0881014
-0.0885325
-0.088774
-0.0892053
-0.0889869
-0.0979431
-0.0961189
-0.0951229
-0.0951554
-0.09476
-0.0940785
-0.0932234
-0.0922663
-0.0912473
-0.0901831
-0.0890816
-0.0879434
-0.0867646
-0.08554
-0.0842877
-0.0849267
-0.0854444
-0.0858586
-0.0863575
-0.0866645
-0.0869108
-0.0873879
-0.0871461
-0.0875872
-0.0878253
-0.0882902
-0.0880603
-0.0971152
-0.0945042
-0.0933949
-0.0941223
-0.0942344
-0.0938881
-0.0932357
-0.0923912
-0.0914312
-0.0903971
-0.0893094
-0.0881764
-0.0869995
-0.0857777
-0.0845148
-0.0832632
-0.0838647
-0.0844025
-0.0848327
-0.0853499
-0.0856671
-0.0859215
-0.0864112
-0.0861627
-0.0866167
-0.0868606
-0.0873342
-0.0871023
-0.0956031
-0.0919324
-0.0906564
-0.0922696
-0.0931145
-0.0933087
-0.0930164
-0.0923916
-0.0915568
-0.0905897
-0.0895369
-0.0884211
-0.0872499
-0.0860295
-0.0847625
-0.0834762
-0.0821306
-0.0828512
-0.083362
-0.0837537
-0.0843002
-0.084643
-0.0848989
-0.085406
-0.0851538
-0.085618
-0.0858702
-0.0863597
-0.086115
-0.0931866
-0.0882706
-0.0867748
-0.0893514
-0.091124
-0.0920922
-0.0923732
-0.0921356
-0.0915419
-0.0907146
-0.0897381
-0.0886625
-0.0875125
-0.0862987
-0.0850304
-0.0837215
-0.0823737
-0.0809337
-0.0816504
-0.0822762
-0.0828144
-0.083273
-0.0835543
-0.0838268
-0.0843673
-0.0841083
-0.0845924
-0.0848489
-0.0853534
-0.0851045
-0.0897354
-0.0835567
-0.0817969
-0.0852374
-0.0880121
-0.08995
-0.0910449
-0.0914187
-0.0912427
-0.0906801
-0.0898601
-0.0888718
-0.0877686
-0.08658
-0.0853186
-0.0840006
-0.0826373
-0.0812123
-0.0797003
-0.080458
-0.0810825
-0.0815312
-0.0821366
-0.0824739
-0.0829993
-0.0832895
-0.0830334
-0.0834906
-0.0837808
-0.0843182
-0.0840595
-0.0852785
-0.078013
-0.0759645
-0.0799889
-0.0836543
-0.0866286
-0.0887351
-0.089967
-0.0904413
-0.0903296
-0.0898004
-0.0889878
-0.087985
-0.0868508
-0.0856184
-0.0843065
-0.0829328
-0.0815061
-0.0799997
-0.0785143
-0.0792175
-0.0798608
-0.0803506
-0.0809573
-0.0813142
-0.0816213
-0.0821858
-0.0818713
-0.0822384
-0.0831757
-0.0831789
-0.082748
-0.080022
-0.0719773
-0.0696373
-0.0738676
-0.0781276
-0.082014
-0.0851901
-0.0874739
-0.0888488
-0.0894305
-0.089389
-0.0888963
-0.0880912
-0.0870729
-0.085904
-0.0846248
-0.0832587
-0.0818251
-0.080328
-0.0787575
-0.0770683
-0.0782061
-0.0786861
-0.0790958
-0.0797345
-0.0801318
-0.0804467
-0.0810389
-0.0807295
-0.0812744
-0.0815627
-0.0820688
-0.0818217
-0.0821863
-0.083439
-0.0742824
-0.065825
-0.0632159
-0.0672561
-0.0717173
-0.0762032
-0.080308
-0.083688
-0.0861533
-0.0876809
-0.0883784
-0.088413
-0.0879601
-0.0871645
-0.0861294
-0.0849245
-0.0835961
-0.0821744
-0.0806775
-0.0791053
-0.0774402
-0.076593
-0.0756119
-0.0771869
-0.0784799
-0.0789063
-0.0792137
-0.0798306
-0.0795099
-0.0800882
-0.0803932
-0.0809871
-0.0806877
-0.0812296
-0.0815117
-0.0820404
-0.081789
-0.0684113
-0.0599266
-0.0570948
-0.0605811
-0.0648299
-0.0695063
-0.0742085
-0.0785255
-0.0821105
-0.084765
-0.086454
-0.0872738
-0.0873918
-0.0869849
-0.0862007
-0.08515
-0.083909
-0.0825316
-0.0810534
-0.079488
-0.0778271
-0.0760415
-0.0752201
-0.0761665
-0.0769069
-0.0740609
-0.0774337
-0.0786975
-0.0786321
-0.0788457
-0.0791654
-0.0797838
-0.0794707
-0.0800389
-0.0803334
-0.0809293
-0.0806423
-0.062754
-0.0546305
-0.0516426
-0.0542601
-0.0579195
-0.0623559
-0.0672299
-0.0721346
-0.0766587
-0.0804497
-0.0832986
-0.0851544
-0.0861071
-0.0863186
-0.0859624
-0.0851938
-0.0841306
-0.0828563
-0.0814316
-0.0798938
-0.0782518
-0.0764928
-0.0745649
-0.0736285
-0.074683
-0.0754537
-0.0759164
-0.076288
-0.0766626
-0.0770311
-0.0724382
-0.0773621
-0.0776897
-0.0775339
-0.0784661
-0.0788016
-0.0791158
-0.0797273
-0.0794275
-0.0576376
-0.0502437
-0.0471742
-0.0486809
-0.0514247
-0.0552303
-0.0598315
-0.0648827
-0.0699758
-0.0746994
-0.0786946
-0.0817401
-0.0837734
-0.0848704
-0.0851811
-0.0848846
-0.0841384
-0.0830673
-0.0817646
-0.080294
-0.0786942
-0.0769703
-0.0750932
-0.0730091
-0.0719551
-0.0730425
-0.0738826
-0.0743948
-0.074815
-0.0751796
-0.0755384
-0.0707891
-0.0779071
-0.0784399
-0.0533593
-0.0469661
-0.0438777
-0.0441616
-0.0457502
-0.0485913
-0.0525164
-0.0572552
-0.0624608
-0.0677265
-0.0726385
-0.0768343
-0.0800811
-0.0822996
-0.0835474
-0.0839716
-0.0837443
-0.0830283
-0.0819579
-0.0806315
-0.0791167
-0.0774528
-0.0756347
-0.0736183
-0.0713701
-0.0703848
-0.0712667
-0.072135
-0.0727532
-0.0731914
-0.0735917
-0.0739758
-0.0688286
-0.050125
-0.0448241
-0.0417575
-0.0408772
-0.0412143
-0.042857
-0.0457673
-0.0497805
-0.0546275
-0.0599631
-0.065381
-0.0704697
-0.0748604
-0.0783104
-0.0807195
-0.0821316
-0.0826794
-0.0825329
-0.0818596
-0.0807979
-0.0794537
-0.0778976
-0.0761616
-0.0742316
-0.0720504
-0.0695627
-0.0681565
-0.0694293
-0.0707215
-0.0708379
-0.0713628
-0.0718442
-0.0722813
-0.0666871
-0.047984
-0.0436661
-0.0406374
-0.0388047
-0.0379716
-0.0383398
-0.0400115
-0.0429589
-0.0470266
-0.0519505
-0.0573883
-0.0629371
-0.0681869
-0.0727665
-0.076417
-0.0790245
-0.0806098
-0.0812952
-0.0812445
-0.0806253
-0.0795829
-0.0782271
-0.0766275
-0.074806
-0.0727392
-0.0703525
-0.0675788
-0.0658869
-0.0672216
-0.0683373
-0.0688862
-0.06941
-0.0706104
-0.0703323
-0.0643266
-0.04681
-0.0432278
-0.0402345
-0.0377396
-0.0359685
-0.0351692
-0.0355489
-0.0372218
-0.0401741
-0.0442612
-0.0492282
-0.0547383
-0.0603937
-0.0657871
-0.0705427
-0.0743938
-0.0772019
-0.0789728
-0.0798099
-0.0798689
-0.0793187
-0.0783048
-0.0769401
-0.0752906
-0.0733653
-0.0711279
-0.0685006
-0.0653832
-0.0633951
-0.0648719
-0.0661202
-0.0668186
-0.0674063
-0.0679022
-0.0684433
-0.0688605
-0.0692361
-0.0709977
-0.0616999
-0.0463544
-0.0432255
-0.0402577
-0.037381
-0.0349714
-0.0332555
-0.0324779
-0.0328502
-0.0344978
-0.0374211
-0.0414921
-0.0464668
-0.0520171
-0.0577513
-0.0632668
-0.0681866
-0.0722302
-0.0752451
-0.0772101
-0.0782116
-0.0783975
-0.0779282
-0.076952
-0.0755782
-0.0738653
-0.0718102
-0.0693679
-0.0664513
-0.0629352
-0.0606101
-0.0622311
-0.06362
-0.0643874
-0.0650465
-0.0656438
-0.0662551
-0.0667299
-0.0673141
-0.0678135
-0.0683223
-0.0587655
-0.0463409
-0.0434259
-0.0404722
-0.0374303
-0.0346617
-0.0323365
-0.0306722
-0.0299062
-0.0302538
-0.0318491
-0.0347111
-0.0387297
-0.0436752
-0.0492308
-0.0550138
-0.0606274
-0.0656938
-0.0699242
-0.0731437
-0.0753105
-0.076492
-0.0768167
-0.0764415
-0.0755075
-0.0741185
-0.0723223
-0.0701109
-0.0674188
-0.0641566
-0.0601908
-0.0574936
-0.0592676
-0.060812
-0.061665
-0.0623996
-0.063069
-0.0637486
-0.0642651
-0.0649253
-0.0655126
-0.0661029
-0.0554812
-0.0465346
-0.0436761
-0.0407285
-0.0376551
-0.0347374
-0.0320801
-0.0298411
-0.0282246
-0.0274624
-0.0277674
-0.029286
-0.0320556
-0.0359857
-0.0408641
-0.0463883
-0.0521874
-0.0578718
-0.0630649
-0.0674682
-0.0708901
-0.0732661
-0.0746346
-0.075112
-0.0748388
-0.0739472
-0.0725303
-0.070629
-0.0682248
-0.0652379
-0.0615686
-0.0571018
-0.05401
-0.0559471
-0.0576691
-0.0586102
-0.05943
-0.0601834
-0.0609336
-0.0615129
-0.0622562
-0.0629097
-0.0635742
-0.0518132
-0.0467764
-0.0446238
-0.0431158
-0.041637
-0.0379117
-0.0401914
-0.0349709
-0.0321825
-0.0296396
-0.0274872
-0.0259169
-0.0251493
-0.0253981
-0.0268195
-0.0294685
-0.0332739
-0.0380466
-0.0435016
-0.0492812
-0.0550054
-0.0603006
-0.0648616
-0.0684792
-0.0710624
-0.0726271
-0.0732638
-0.0730961
-0.0722404
-0.0707799
-0.0687456
-0.0661055
-0.0627724
-0.0586405
-0.0536324
-0.0501306
-0.0522394
-0.0541484
-0.0551882
-0.0560982
-0.0569475
-0.0577838
-0.0584317
-0.0592514
-0.0599989
-0.0607276
-0.0477402
-0.0477405
-0.0461744
-0.0450623
-0.0443124
-0.043603
-0.0428397
-0.0420547
-0.0413361
-0.0387786
-0.0352257
-0.0373981
-0.040656
-0.0399252
-0.0324231
-0.029767
-0.0273409
-0.0252762
-0.0237498
-0.0229731
-0.0231559
-0.0244615
-0.0269606
-0.0306087
-0.0352383
-0.0405848
-0.0463071
-0.0520377
-0.0574069
-0.0621047
-0.0659038
-0.0686913
-0.0704508
-0.0712488
-0.071183
-0.0703533
-0.0688281
-0.0666234
-0.0637035
-0.0599732
-0.0553328
-0.0497564
-0.0458441
-0.048125
-0.0502287
-0.0513621
-0.0523806
-0.0533218
-0.0542565
-0.0549635
-0.0558911
-0.0567223
-0.0575423
-0.0432795
-0.0474189
-0.0466809
-0.0458868
-0.0450643
-0.0443371
-0.0436695
-0.0429238
-0.0420559
-0.041359
-0.0391764
-0.03849
-0.0360511
-0.032674
-0.0347373
-0.0378403
-0.0371428
-0.0407189
-0.0400045
-0.0300127
-0.0274916
-0.0251843
-0.0232079
-0.0217267
-0.0209374
-0.0210451
-0.022219
-0.0245468
-0.0280063
-0.0324559
-0.0376542
-0.0432807
-0.0489797
-0.0543904
-0.0591979
-0.0631601
-0.0661394
-0.0680875
-0.0690401
-0.0690662
-0.0682452
-0.0666258
-0.0642155
-0.0609666
-0.056794
-0.0516227
-0.0454586
-0.0412113
-0.0435909
-0.0458914
-0.0471292
-0.0482433
-0.0492882
-0.0503231
-0.0510955
-0.0521316
-0.0530566
-0.0539802
-0.0384575
-0.0474466
-0.0467533
-0.0459775
-0.0391779
-0.0385117
-0.0364292
-0.0357752
-0.0334571
-0.0302582
-0.032211
-0.0351564
-0.0344931
-0.0378996
-0.0372173
-0.0277401
-0.0253555
-0.0231675
-0.0212823
-0.0198456
-0.0190431
-0.0190713
-0.0201025
-0.0222395
-0.0254832
-0.0297194
-0.0347306
-0.0402194
-0.0458471
-0.0512613
-0.056146
-0.0602454
-0.0633958
-0.0655167
-0.0666085
-0.0667112
-0.0658738
-0.0641298
-0.0614715
-0.0578514
-0.053208
-0.047488
-0.0407534
-0.0363626
-0.0386461
-0.0411315
-0.042482
-0.0436907
-0.044837
-0.0459707
-0.0468183
-0.0479453
-0.0489805
-0.0499961
-0.0332763
-0.0364308
-0.0357955
-0.0338152
-0.033194
-0.0309981
-0.0279784
-0.0298202
-0.0326065
-0.0319778
-0.035212
-0.0345624
-0.0256044
-0.0233564
-0.0212898
-0.0194953
-0.0181062
-0.0172903
-0.0172375
-0.0181194
-0.0200517
-0.0230568
-0.0270475
-0.0318335
-0.0371428
-0.0426567
-0.0480331
-0.0529567
-0.0571587
-0.0604513
-0.0627194
-0.0639291
-0.0640803
-0.0631991
-0.0612953
-0.0583506
-0.0543339
-0.0491932
-0.0429374
-0.0357031
-0.031047
-0.0337212
-0.0360719
-0.037413
-0.0387228
-0.0399821
-0.041209
-0.0421155
-0.0433511
-0.0444779
-0.0455943
-0.0278403
-0.0338167
-0.0332126
-0.0313359
-0.0307476
-0.0286749
-0.0258344
-0.0275651
-0.0301915
-0.0295978
-0.0326581
-0.0320419
-0.0236038
-0.0214925
-0.0195462
-0.0178445
-0.0165035
-0.0156783
-0.0155452
-0.0162753
-0.0179941
-0.0207416
-0.0244599
-0.0289848
-0.034074
-0.039429
-0.044722
-0.0496397
-0.0539029
-0.0572992
-0.0596814
-0.0609733
-0.0611457
-0.0601858
-0.0580865
-0.0548319
-0.0503899
-0.0447668
-0.0380247
-0.0303926
-0.02543
-0.0280398
-0.030862
-0.0325555
-0.033488
-0.0347111
-0.0359957
-0.036984
-0.0383421
-0.039577
-0.0407977
-0.0222803
-0.0313372
-0.0307644
-0.0289924
-0.0284371
-0.0264872
-0.0238242
-0.025445
-0.0279121
-0.0273534
-0.0302388
-0.0296564
-0.0217357
-0.0197593
-0.0179329
-0.0163238
-0.0150344
-0.0142023
-0.0139935
-0.0145751
-0.016075
-0.0185536
-0.0219747
-0.0262079
-0.0310365
-0.036187
-0.0413481
-0.0462103
-0.0504848
-0.0539393
-0.056391
-0.0577303
-0.0578821
-0.0568093
-0.054491
-0.0509004
-0.0460472
-0.0399763
-0.0328298
-0.0249247
-0.0197793
-0.022356
-0.0251275
-0.0265782
-0.028
-0.0293638
-0.0308642
-0.0326205
-0.0325934
-0.0340706
-0.0354931
-0.0167241
-0.0289936
-0.0284522
-0.0267844
-0.0262619
-0.0244336
-0.0219456
-0.0234579
-0.0257679
-0.0252438
-0.0279551
-0.0274065
-0.0199965
-0.0181527
-0.0164441
-0.0149278
-0.0136915
-0.0128586
-0.0125815
-0.0130189
-0.0143034
-0.0165046
-0.0196119
-0.0235247
-0.0280551
-0.0329573
-0.0379355
-0.0426872
-0.046919
-0.0503772
-0.0528512
-0.0541874
-0.0542829
-0.0530695
-0.0505052
-0.0465887
-0.0413478
-0.0348937
-0.0274641
-0.0194203
-0.0141888
-0.0166824
-0.0194473
-0.0208835
-0.0223084
-0.0237052
-0.025107
-0.026067
-0.0274799
-0.0287589
-0.0300196
-0.0328181
-0.0113093
-0.0267851
-0.0262752
-0.0247107
-0.0242206
-0.022512
-0.0201951
-0.0216014
-0.0237573
-0.0232672
-0.0258066
-0.0252916
-0.018382
-0.0166669
-0.0150737
-0.0136495
-0.0124689
-0.0116406
-0.0113044
-0.0116084
-0.0126814
-0.0146035
-0.0173868
-0.0209569
-0.0251574
-0.0297668
-0.0345105
-0.039096
-0.0432259
-0.0466306
-0.0490703
-0.0503604
-0.0503613
-0.0489774
-0.0461701
-0.0419387
-0.0363656
-0.0296369
-0.0220401
-0.0140337
-0.00878487
-0.0111083
-0.013803
-0.0151831
-0.0165956
-0.0179968
-0.0193933
-0.0203578
-0.0218109
-0.023192
-0.0245963
-0.0255664
-0.0269756
-0.0283111
-0.0294772
-0.00619076
-0.0247108
-0.024232
-0.0227692
-0.022311
-0.0207194
-0.0185685
-0.0198721
-0.0218778
-0.021421
-0.0237918
-0.0233099
-0.0168869
-0.0152962
-0.0138153
-0.0124815
-0.0113582
-0.0105424
-0.0101575
-0.010339
-0.01121
-0.0128597
-0.0153137
-0.0185256
-0.0223679
-0.026644
-0.0311046
-0.0354667
-0.0394352
-0.0427263
-0.0450794
-0.0462761
-0.0461482
-0.0445836
-0.0415343
-0.0370386
-0.0312188
-0.0243161
-0.0167135
-0.00891382
-0.00374378
-0.00577921