/*--------------------------------*- C++ -*----------------------------------*\
| =========                 |                                                 |
| \\      /  F ield         | OpenFOAM: The Open Source CFD Toolbox           |
|  \\    /   O peration     | Version:  v1912                                 |
|   \\  /    A nd           | Website:  www.openfoam.com                      |
|    \\/     M anipulation  |                                                 |
\*---------------------------------------------------------------------------*/
FoamFile
{
    version     2.0;
    format      ascii;
    class       volScalarField;
    location    "60";
    object      p;
}
// * * * * * * * * * * * * * * * * * * * * * * * * * * * * * * * * * * * * * //

dimensions      [0 2 -2 0 0 0 0];


internalField   nonuniform List<scalar> 
3675
(
0.00638958
0.00668144
0.00610184
0.00638749
0.00584338
0.00666514
0.00612055
0.00559577
0.00689855
0.00639171
0.00586925
0.00535859
0.00709949
0.00662
0.00613558
0.00562792
0.00512961
0.00726232
0.00681513
0.00635977
0.00589706
0.00539621
0.00489878
0.00737314
0.0069708
0.00655163
0.00612397
0.00566159
0.00516082
0.00467222
0.00740868
0.00707824
0.00670544
0.00631113
0.00588549
0.00542202
0.00492922
0.00444915
0.00735657
0.00711985
0.00681399
0.0064612
0.00607692
0.00565003
0.00518829
0.00470183
0.00422822
0.00722479
0.0070835
0.00686699
0.0065736
0.00622948
0.00584515
0.00541533
0.00495322
0.00447264
0.0040188
0.00704001
0.00696498
0.00685141
0.00663512
0.00633836
0.00599897
0.00561069
0.00517582
0.00471933
0.00425734
0.00381592
0.00683896
0.00677971
0.00676556
0.00663804
0.00640159
0.00611046
0.00576821
0.00537334
0.00493716
0.00449364
0.00404842
0.00362445
0.00667875
0.00653561
0.00662662
0.00658832
0.00641094
0.00617005
0.00587976
0.00553125
0.00512838
0.00469853
0.00427773
0.00385071
0.00343776
0.00661636
0.00624444
0.00644705
0.00650224
0.00636549
0.00617083
0.00593874
0.00564563
0.0052904
0.00488745
0.0044774
0.00407242
0.00366233
0.00326607
0.00668335
0.00598787
0.00636753
0.00619808
0.0064095
0.00627988
0.0061149
0.00593708
0.00570759
0.0054129
0.00504881
0.00465456
0.00425822
0.00387794
0.00348675
0.00310249
0.00677653
0.00658693
0.00618271
0.00588676
0.005676
0.00639224
0.00631325
0.00617276
0.00600884
0.00587337
0.0057074
0.00547923
0.00516965
0.0048068
0.00442583
0.0040586
0.00369914
0.00331862
0.00294856
0.00672383
0.00656777
0.00640749
0.00623818
0.00563126
0.00615936
0.00600781
0.00561675
0.00622367
0.00639902
0.00606206
0.00587002
0.00576116
0.00564573
0.00548296
0.00524196
0.00493022
0.0045746
0.00421752
0.00387433
0.00353129
0.00316237
0.00280242
0.00658883
0.00674479
0.00650418
0.0063791
0.00629039
0.00607738
0.00520306
0.00599632
0.00590752
0.00590763
0.0059805
0.00543692
0.00611595
0.00620934
0.00631531
0.00571942
0.00562009
0.00553711
0.00542483
0.00525401
0.00500821
0.00469733
0.00435609
0.00402301
0.00370518
0.00337299
0.00301206
0.00266561
0.00656388
0.00669167
0.00645318
0.00635943
0.00619096
0.0061723
0.00459637
0.00566792
0.00596446
0.00569931
0.00556477
0.00564839
0.00575949
0.00600878
0.00595118
0.00679399
0.00633002
0.00616194
0.00626891
0.00546362
0.00539936
0.00531904
0.00520463
0.00502747
0.00477895
0.0044725
0.00415362
0.00384863
0.00354112
0.00322193
0.00287038
0.00254097
0.00654563
0.00665126
0.00609168
0.00608415
0.00333203
0.00704919
0.00581809
0.00579805
0.0056121
0.00545571
0.00530995
0.0053937
0.0055272
0.00565125
0.00565409
0.00594643
0.0062555
0.00654453
0.0060082
0.00524893
0.00518548
0.00510531
0.00498635
0.00480719
0.00455592
0.00426293
0.00396634
0.00368047
0.00339517
0.0030769
0.00273951
0.00242752
0.000928177
0.00577361
0.00570845
0.00555649
0.005537
0.00539587
0.00523247
0.00509629
0.00515915
0.00529892
0.00544622
0.00547059
0.00559581
0.00563881
0.0050411
0.00497626
0.00489917
0.00477916
0.00459229
0.00434567
0.00406885
0.00379537
0.00353411
0.00324777
0.00293947
0.00261871
0.00233034
0.00552771
0.00549798
0.00535886
0.00532157
0.0051694
0.00502046
0.00489104
0.00494703
0.00507347
0.00521794
0.00525757
0.00540046
0.00545437
0.00484075
0.00478488
0.00470427
0.00457633
0.00438739
0.00414812
0.00389107
0.00364292
0.0033872
0.00311043
0.00281486
0.00251526
0.00224352
0.00532994
0.00528908
0.00513822
0.00509411
0.00495753
0.00481765
0.00469873
0.00474588
0.00486604
0.00499382
0.00503751
0.00517463
0.00523916
0.00465832
0.00459864
0.00451294
0.00438175
0.00419225
0.00396421
0.00372909
0.00349546
0.00325027
0.00297833
0.00270058
0.00242269
0.00217698
0.00510759
0.00506267
0.00492344
0.00487949
0.00475421
0.00463113
0.00452195
0.00455645
0.00466937
0.00478678
0.00482828
0.00495194
0.00501594
0.00447726
0.004421
0.00433207
0.00419234
0.00400758
0.00379453
0.00357595
0.00335488
0.00311286
0.00285652
0.0026004
0.00234548
0.00211895
0.00489054
0.00485089
0.00472129
0.00467976
0.00456668
0.00445348
0.0043481
0.00438385
0.00448615
0.00459257
0.00463264
0.00474563
0.00480298
0.00431025
0.004251
0.00415411
0.00401708
0.00383535
0.00363504
0.003432
0.00321946
0.00299105
0.00275079
0.00251563
0.0022851
0.0020745
0.00468846
0.0046521
0.00453398
0.00449258
0.00438939
0.00428299
0.00418609
0.00421529
0.00431356
0.0044107
0.00445269
0.00455266
0.00460755
0.00414562
0.00408396
0.00398808
0.00384314
0.00366833
0.0034844
0.00329664
0.00309479
0.00287691
0.00265882
0.0024484
0.00223376
0.00202737
0.0045005
0.00446602
0.0043563
0.00431675
0.00422155
0.0041225
0.00402564
0.00405489
0.00414751
0.00424071
0.00427847
0.00436895
0.00442974
0.00398983
0.00392383
0.00381697
0.0036742
0.00350894
0.00334054
0.00316775
0.00297853
0.00277897
0.00258127
0.00239031
0.00218042
0.00199097
0.00432568
0.00428891
0.00418604
0.00415578
0.00406079
0.00396669
0.00387233
0.00389728
0.0039887
0.00407732
0.00411121
0.00420019
0.00425579
0.0038335
0.00376369
0.00365592
0.00350766
0.00335448
0.0032056
0.0030496
0.00287553
0.00269204
0.0025183
0.00233804
0.00214341
0.0019548
0.00415773
0.00412755
0.00402482
0.00399516
0.00390529
0.00381571
0.00372017
0.00374286
0.0038333
0.00392033
0.00395259
0.00404212
0.00408397
0.00368283
0.00360845
0.00348292
0.00333989
0.00320785
0.0030843
0.00294362
0.00278292
0.0026234
0.00246243
0.00229962
0.00210259
0.00191881
0.00399536
0.00396715
0.00386776
0.00384087
0.00375324
0.00367011
0.00357246
0.00358708
0.00368168
0.00376617
0.00379833
0.00388586
0.0039257
0.00352949
0.00343814
0.00330489
0.00317557
0.00307615
0.00297856
0.00284884
0.00270217
0.00256137
0.00242164
0.00225419
0.00206662
0.00188243
0.00383808
0.00381321
0.0037168
0.00368733
0.00360368
0.0035232
0.00341989
0.00343413
0.0035291
0.00361587
0.00364912
0.00373157
0.00377177
0.0033714
0.00326097
0.00311861
0.00302513
0.0029696
0.00288277
0.00275968
0.00263224
0.00250989
0.00237634
0.00221891
0.00202556
0.00184159
0.00368812
0.00365875
0.00356608
0.00354116
0.00345745
0.00337494
0.0032717
0.00328129
0.00337633
0.0034651
0.00349553
0.00358205
0.00362337
0.00320512
0.00305341
0.00293662
0.00291307
0.00287863
0.00279166
0.00267825
0.00256827
0.00246294
0.00233766
0.00217746
0.00198518
0.00180637
0.00353509
0.00352261
0.00341751
0.00339347
0.00330876
0.00322552
0.00311631
0.0031226
0.00322433
0.00331469
0.00334745
0.00343115
0.00346434
0.00300295
0.00283414
0.00280624
0.00283197
0.00279429
0.0026974
0.0025966
0.002511
0.00242004
0.00230093
0.00213956
0.00194696
0.00177165
0.00338647
0.00337476
0.00327261
0.00324103
0.00315665
0.00307447
0.0029491
0.00295681
0.00307137
0.00316185
0.00320099
0.00328234
0.00331723
0.00276311
0.00264715
0.00274382
0.00276918
0.0026914
0.00259689
0.00252205
0.00245636
0.00238034
0.00225989
0.00209966
0.00190923
0.00174186
0.00324376
0.00322092
0.00312146
0.00309044
0.00300142
0.00292531
0.0027563
0.00277937
0.00290604
0.00300748
0.00304925
0.00313013
0.00317339
0.00245775
0.00260331
0.00272607
0.00266422
0.00257008
0.00250069
0.00245078
0.0024069
0.00233651
0.00222106
0.00205664
0.00187827
0.00171848
0.00309212
0.00307339
0.00296939
0.00293309
0.00284553
0.00276857
0.00235781
0.00259745
0.00274063
0.00284346
0.00289341
0.00297861
0.00302167
0.00236341
0.00267824
0.00262159
0.00251788
0.0024498
0.00240794
0.00238323
0.00235231
0.002289
0.00216991
0.00202702
0.00185112
0.00170726
0.00293978
0.00291723
0.00281456
0.00276567
0.00268125
0.00256317
0.00204101
0.00218319
0.00258992
0.00266802
0.00273078
0.002819
0.00286841
0.00262966
0.00257735
0.00244757
0.00237393
0.00233389
0.00231735
0.0023112
0.00229184
0.00223394
0.00213455
0.00198886
0.00183792
0.00171065
0.00277977
0.00275594
0.00264399
0.00258053
0.00260482
0.00179249
0.00254467
0.00217824
0.0024656
0.00247216
0.00256791
0.00264627
0.00270332
0.00253239
0.00235717
0.00227862
0.00223608
0.0022181
0.00222222
0.00223365
0.00222828
0.00218302
0.00208553
0.00197369
0.00183352
0.00172644
0.00261229
0.00256716
0.00252264
0.00242371
0.00120032
0.00246704
0.00243819
0.00240083
0.00209144
0.00265516
0.00259967
0.00244611
0.0025213
0.00225714
0.00217035
0.00212433
0.00209884
0.00209943
0.0021212
0.00214849
0.00215668
0.00212404
0.00205917
0.00195558
0.00184985
0.00177276
0.00243544
0.00237333
0.00300407
0.000361878
0.00249895
0.00222674
0.00215525
0.00220686
0.00228091
0.00249949
0.00314009
0.00252728
0.00241567
0.00205564
0.00201072
0.00197341
0.00195838
0.00197206
0.00201209
0.00205717
0.00208431
0.00207586
0.00202991
0.00196899
0.00188853
0.00183848
0.00272702
-0.00182606
0.00236641
0.00230181
0.00215517
0.00207158
0.00195456
0.00203316
0.00211244
0.00217303
0.00215909
0.00189877
0.00185175
0.001814
0.00180805
0.00184005
0.00189991
0.00196566
0.00201405
0.00203552
0.00202403
0.00199896
0.00194759
0.00192383
0.00212062
0.00211554
0.00203685
0.00191407
0.00179426
0.00186306
0.00196768
0.00206921
0.00207913
0.0017382
0.00168187
0.00164996
0.00165763
0.00170471
0.00178224
0.00187125
0.00195063
0.00200328
0.0020396
0.00204536
0.002029
0.00203912
0.00202633
0.00199832
0.00187919
0.00175391
0.00162908
0.00169524
0.00180165
0.00192683
0.0019481
0.00156674
0.00151035
0.0014831
0.00149876
0.00156307
0.00166581
0.00178365
0.00189458
0.00199465
0.00206982
0.00212101
0.00213983
0.00217514
0.0018741
0.00183535
0.0017155
0.00159266
0.00146264
0.00152426
0.00163491
0.00175085
0.00178491
0.00139049
0.00133338
0.00131079
0.00133825
0.00142352
0.00155203
0.00170097
0.00185624
0.00200708
0.00212407
0.00222177
0.00226498
0.00233176
0.00170515
0.00166727
0.00154844
0.00142763
0.00128764
0.00135487
0.00146934
0.0015845
0.00161751
0.0012152
0.00115669
0.00113578
0.00117685
0.00128453
0.00144233
0.00163226
0.00183658
0.00202852
0.00220598
0.00232935
0.00242635
0.00251345
0.00153751
0.00149912
0.00138502
0.00125697
0.00111509
0.00118284
0.00130171
0.00141431
0.00145563
0.00103551
0.00096915
0.000954117
0.00101543
0.00114672
0.00133853
0.00157078
0.00182125
0.00207256
0.00229376
0.0024814
0.00261252
0.00275969
0.00137146
0.00133342
0.00121678
0.00108787
0.000937977
0.00100827
0.00113165
0.00125065
0.00128771
0.000845586
0.000775997
0.000771289
0.000850028
0.00101045
0.00123926
0.00151837
0.00182433
0.00213795
0.00241775
0.00266034
0.00285234
0.00303631
0.00121073
0.00116785
0.0010468
0.000915971
0.000753944
0.000836051
0.000960839
0.00108145
0.0011207
0.000646626
0.000575831
0.000586936
0.000687501
0.000875895
0.00114299
0.0014751
0.00184988
0.00221631
0.00257125
0.0028513
0.00330313
0.00125
0.00103656
0.000997306
0.0008762
0.000743199
0.000555562
0.000657914
0.000791881
0.000912887
0.000950387
0.000431268
0.000369157
0.00040185
0.000518903
0.000735071
0.00104951
0.00144282
0.00187541
0.00233051
0.00269756
0.00336166
0.00146374
0.00086742
0.00082792
0.000704388
0.000562126
0.00033491
0.000469452
0.000619114
0.000744698
0.000781455
0.000201498
0.000171591
0.000206783
0.000339388
0.000591805
0.000959371
0.00141353
0.0019335
0.00239121
0.00315403
0.00152757
0.000694672
0.000653867
0.000536076
0.000357653
0.000106305
0.000169474
0.000456564
0.000566625
0.000610023
-2.42662e-06
-3.17619e-05
-6.83099e-07
0.000151409
0.000447306
0.00087157
0.00140826
0.00192891
0.00275811
0.00138901
0.000521809
0.000477752
0.000409572
-0.000187823
-0.000116293
5.77395e-05
0.000384517
0.000387373
0.000433503
-0.00019697
-0.000258703
-0.000226064
-4.12016e-05
0.000301322
0.000800292
0.00134748
0.00219993
0.0011236
0.000340513
0.000289371
-0.00243539
-0.000870742
-6.90432e-05
-0.000303471
-0.000195112
-0.000333051
-0.000197518
0.000167362
0.00264843
0.000230412
-0.000428303
-0.000508741
-0.000460382
-0.000240403
0.000165839
0.00068837
0.00151144
0.000774489
0.000292225
-0.000180265
-0.000175492
-0.000291953
-0.000525947
-0.000391024
-0.000213089
-0.000229957
-0.000123622
-0.000159136
0.00058934
-0.000690203
-0.000774512
-0.000701907
-0.000432689
9.97052e-06
0.000740559
0.000375204
-1.44628e-05
-0.000175765
-0.00019818
-0.00027806
-0.000318269
-0.000502216
-0.000784593
-0.000618541
-0.000375299
-0.000417252
-0.000218461
-0.00024473
-0.000194714
-0.000206751
-0.000972915
-0.00104883
-0.000943611
-0.000626507
-4.93415e-05
-3.24655e-05
-0.000203519
-0.000216136
-0.000281105
-0.000324132
-0.000479221
-0.000529928
-0.000742358
-0.00106927
-0.000872847
-0.000590934
-0.000650501
-0.000371091
-0.000421587
-0.000224883
-0.000250966
-0.00126897
-0.00133272
-0.00116854
-0.000793761
-0.000415736
-0.000280815
-0.000327834
-0.000477794
-0.000530036
-0.000706128
-0.000772175
-0.00100666
-0.00137511
-0.00115225
-0.000834636
-0.000901493
-0.000592201
-0.000647588
-0.000368067
-0.000422429
-0.00158724
-0.00158623
-0.00143722
-0.000746858
-0.000476433
-0.000531307
-0.000702153
-0.000768909
-0.000961224
-0.00103309
-0.00129495
-0.0017175
-0.00145567
-0.00110387
-0.0011718
-0.00083046
-0.000893125
-0.000589538
-0.000646068
-0.00188207
-0.00194625
-0.00100968
-0.000701524
-0.000764101
-0.000956292
-0.00102184
-0.00124063
-0.00131837
-0.00161818
-0.00206916
-0.00180394
-0.00139754
-0.00146937
-0.00109301
-0.00115955
-0.000826821
-0.000887747
-0.00232731
-0.0012036
-0.000950206
-0.00101223
-0.00123136
-0.00130355
-0.00155113
-0.00163373
-0.00196732
-0.00264208
-0.00215517
-0.00172567
-0.00180795
-0.0013774
-0.00145357
-0.00108923
-0.00115096
-0.00133799
-0.00122143
-0.00129218
-0.00153319
-0.00161397
-0.00189559
-0.0019878
-0.00240319
-0.00155471
-0.00276442
-0.00207556
-0.00216824
-0.00169863
-0.00178185
-0.00136768
-0.00143681
-0.00151617
-0.00159696
-0.00187013
-0.00195837
-0.00227741
-0.00240146
-0.0030132
-0.00150102
-0.00256635
-0.00271496
-0.00204663
-0.00214173
-0.00168048
-0.0017614
-0.00184582
-0.00193054
-0.00225238
-0.00237575
-0.00287802
-0.00317071
-0.00316862
-0.00129491
-0.00251688
-0.00265926
-0.00201831
-0.0021073
-0.00221184
-0.00233341
-0.0028194
-0.00316808
-0.00348539
-0.00125775
-0.00246825
-0.00261986
-0.00278149
-0.00312948
-0.00378755
-0.0015619
-0.0396572
-0.0388585
-0.0402302
-0.0393634
-0.0379293
-0.0400182
-0.0411922
-0.0383207
-0.0369772
-0.0397395
-0.0418401
-0.038261
-0.0418031
-0.0373367
-0.036
-0.0432841
-0.0405386
-0.036125
-0.0434682
-0.036307
-0.0426118
-0.0363302
-0.0350955
-0.0467019
-0.0441328
-0.0413262
-0.0369545
-0.0324625
-0.0344706
-0.0452364
-0.0434543
-0.0354181
-0.034216
-0.0499921
-0.0476801
-0.0469371
-0.0449476
-0.0420168
-0.0377207
-0.0333447
-0.0289553
-0.0308774
-0.032616
-0.0335892
-0.0344958
-0.0444387
-0.0453367
-0.0333
-0.0530388
-0.0511444
-0.0486821
-0.0503244
-0.0485464
-0.0461836
-0.0470167
-0.0456659
-0.0426117
-0.0383787
-0.0341247
-0.0298223
-0.0255729
-0.0274173
-0.0291044
-0.0300341
-0.0309113
-0.0317866
-0.0326514
-0.0323523
-0.0546498
-0.0519391
-0.0534782
-0.0558769
-0.0554099
-0.0521162
-0.0479641
-0.0488344
-0.0496567
-0.0504568
-0.0493167
-0.0463056
-0.0431315
-0.03894
-0.0347917
-0.0306135
-0.0264202
-0.0222931
-0.0240661
-0.0257047
-0.0265938
-0.0274428
-0.0282911
-0.0291292
-0.0297486
-0.0306384
-0.0314852
-0.0585296
-0.0557768
-0.0513456
-0.0521668
-0.0550829
-0.0529322
-0.0536739
-0.0577623
-0.0582829
-0.0529832
-0.0500266
-0.0468677
-0.0435775
-0.0394289
-0.0353443
-0.0312906
-0.0271855
-0.0231134
-0.0191128
-0.0208196
-0.0224087
-0.0232611
-0.0240836
-0.0249081
-0.0257201
-0.0263136
-0.0271736
-0.027994
-0.0288348
-0.062892
-0.0597275
-0.0567672
-0.0544753
-0.0553032
-0.0565298
-0.0562024
-0.0577316
-0.0601454
-0.0606886
-0.0537978
-0.05065
-0.0473395
-0.0439502
-0.0398613
-0.0358123
-0.0318503
-0.0278512
-0.023854
-0.0199138
-0.0160476
-0.0176769
-0.0192159
-0.0200319
-0.0208284
-0.0216278
-0.0224159
-0.0229852
-0.0238188
-0.0246159
-0.0254314
-0.0673669
-0.0639664
-0.0630722
-0.060784
-0.0576901
-0.0562441
-0.0575129
-0.0590387
-0.0624644
-0.0602728
-0.0545052
-0.051159
-0.0477145
-0.0442552
-0.0402448
-0.0362225
-0.0323048
-0.0284034
-0.0244853
-0.0206117
-0.0168133
-0.0131136
-0.0146447
-0.016132
-0.0169085
-0.0176793
-0.0184522
-0.0192151
-0.0197598
-0.0205674
-0.0213399
-0.0221325
-0.0719375
-0.0684053
-0.0653448
-0.06768
-0.0650396
-0.0617677
-0.0584702
-0.057272
-0.0587472
-0.0625867
-0.0647524
-0.0614077
-0.059951
-0.0550634
-0.0515483
-0.0479999
-0.0445064
-0.0405835
-0.0365882
-0.0326732
-0.0288398
-0.0250081
-0.0212035
-0.0174671
-0.0138183
-0.0102667
-0.0117584
-0.0131671
-0.013894
-0.014637
-0.0153837
-0.0161217
-0.0166407
-0.0174214
-0.0181686
-0.0189356
-0.0764097
-0.072907
-0.0699859
-0.072316
-0.0694465
-0.0670622
-0.0660211
-0.0625836
-0.0590717
-0.0584611
-0.0637382
-0.0622693
-0.0649059
-0.0611033
-0.0596338
-0.0554702
-0.0518259
-0.0482215
-0.0447241
-0.0408767
-0.0369142
-0.0329788
-0.0291766
-0.0254192
-0.021684
-0.0180011
-0.0143965
-0.0108664
-0.00745906
-0.00905977
-0.0103683
-0.0110152
-0.0117229
-0.0124307
-0.0131385
-0.0136305
-0.0143831
-0.0151043
-0.0158461
-0.0807218
-0.0773269
-0.0746042
-0.0767967
-0.0738891
-0.0693774
-0.0717309
-0.070385
-0.0671845
-0.0660232
-0.0668281
-0.0631987
-0.0594898
-0.0634271
-0.061941
-0.0645814
-0.060797
-0.0557449
-0.0520271
-0.0484113
-0.0449309
-0.0411346
-0.0372039
-0.0332341
-0.0294335
-0.0257321
-0.0220635
-0.0184341
-0.0148739
-0.0113906
-0.00798185
-0.00468609
-0.00637102
-0.00764392
-0.0083988
-0.00902157
-0.0096588
-0.0103044
-0.0107422
-0.0114631
-0.0121549
-0.0128652
-0.0849298
-0.0816503
-0.0789474
-0.0810326
-0.0782694
-0.0740962
-0.0763453
-0.0747766
-0.0683468
-0.0695177
-0.0718381
-0.0706575
-0.0711542
-0.0668552
-0.0657068
-0.0674234
-0.0636122
-0.0597613
-0.0631034
-0.0642393
-0.0559342
-0.0521969
-0.0486015
-0.0451483
-0.0413704
-0.0374611
-0.0334517
-0.0296284
-0.0259582
-0.0223471
-0.0187736
-0.0152542
-0.0118058
-0.00843639
-0.00514714
-0.00179346
-0.00351363
-0.00487561
-0.00565966
-0.00637329
-0.00712458
-0.00760895
-0.00836087
-0.00877066
-0.00935439
-0.0100096
-0.0890893
-0.0858931
-0.0831189
-0.0852329
-0.0825748
-0.0784494
-0.0804868
-0.0791228
-0.0730481
-0.0742417
-0.0764673
-0.075411
-0.0755005
-0.0680127
-0.0691694
-0.0714695
-0.0703062
-0.0717155
-0.0665043
-0.0653766
-0.0678161
-0.0638678
-0.059938
-0.0560925
-0.0523768
-0.0488206
-0.0453964
-0.0415977
-0.0376923
-0.0336405
-0.0297805
-0.0261206
-0.0225509
-0.0190282
-0.015551
-0.0121354
-0.00878887
-0.00551869
-0.00213261
2.71155e-05
-0.000919813
-0.00211617
-0.00282391
-0.00347356
-0.0041782
-0.00485521
-0.00535564
-0.00616935
-0.00702444
-0.00736175
-0.093233
-0.0900649
-0.0873055
-0.0894247
-0.0868157
-0.0825637
-0.0846742
-0.0834123
-0.0775241
-0.0784859
-0.0805416
-0.0794953
-0.0798211
-0.072653
-0.0738577
-0.0763108
-0.0751042
-0.0760281
-0.0676643
-0.0688031
-0.0710857
-0.0699495
-0.0720774
-0.06805
-0.0640299
-0.0600877
-0.0562724
-0.0526039
-0.0490927
-0.0456858
-0.0418318
-0.0379064
-0.0338103
-0.0299042
-0.026237
-0.0226933
-0.0192126
-0.0157782
-0.0123947
-0.00906447
-0.00580595
-0.00241218
-0.000120039
0.000420147
0.000161652
-0.000491039
-0.00100866
-0.00157391
-0.00214406
-0.002566
-0.00322379
-0.00389075
-0.00458649
-0.00502334
-0.00576763
-0.00654173
-0.00658152
-0.0973586
-0.0941968
-0.0914831
-0.093591
-0.090995
-0.0867817
-0.0888916
-0.0876477
-0.0816147
-0.0826852
-0.0847843
-0.0837177
-0.0840983
-0.077242
-0.0780823
-0.0801935
-0.0791216
-0.0803254
-0.0722543
-0.073383
-0.0757804
-0.0745711
-0.0763601
-0.072284
-0.0681937
-0.0641714
-0.0602705
-0.0565154
-0.0529064
-0.0494308
-0.0460203
-0.0420814
-0.0381159
-0.0339701
-0.0300139
-0.0263241
-0.0227906
-0.0193388
-0.0159423
-0.0125969
-0.00928716
-0.00603949
-0.00265376
-0.000237532
0.000462679
0.000834107
0.000469533
-6.49324e-06
-0.00034824
-0.000834717
-0.00135505
-0.00192366
-0.00230137
-0.00294857
-0.00361178
-0.00429361
-0.101478
-0.0983024
-0.0956348
-0.0977291
-0.0951224
-0.0909843
-0.0930777
-0.0918318
-0.0858541
-0.086926
-0.089012
-0.0879487
-0.0883317
-0.0812954
-0.0823653
-0.0844747
-0.0834189
-0.0845964
-0.0806422
-0.0765456
-0.0724102
-0.0683276
-0.0643611
-0.060535
-0.0568554
-0.0532989
-0.0498393
-0.0464053
-0.0423494
-0.0383268
-0.0341314
-0.0301203
-0.026397
-0.0228566
-0.0194218
-0.0160571
-0.0127479
-0.00946919
-0.00624527
-0.00288045
-0.000384954
0.000410404
0.000877785
0.000509184
8.8113e-05
-0.000158833
-0.000613777
-0.0011219
-0.00167626
-0.105562
-0.102383
-0.0997622
-0.101846
-0.0992151
-0.0951526
-0.0972271
-0.0959636
-0.0900703
-0.0911379
-0.093206
-0.0921489
-0.092523
-0.085559
-0.0866208
-0.0887119
-0.0876645
-0.0888309
-0.0849053
-0.080814
-0.0766597
-0.0725401
-0.0685258
-0.0646506
-0.0609173
-0.0573085
-0.0537877
-0.0503253
-0.0468374
-0.0426401
-0.0385412
-0.0342982
-0.0302349
-0.0264681
-0.0229098
-0.0194753
-0.016133
-0.0128586
-0.00961711
-0.00643234
-0.00310037
-0.000578054
0.000372043
0.000860175
0.00058649
0.000239461
-0.109488
-0.10639
-0.103869
-0.105948
-0.103266
-0.0992854
-0.101342
-0.100049
-0.0942536
-0.0953145
-0.0973642
-0.0963138
-0.0966614
-0.0897857
-0.0908406
-0.0929119
-0.0918734
-0.0930281
-0.0891444
-0.0850767
-0.0809236
-0.0767895
-0.0727505
-0.0688437
-0.0650795
-0.0614359
-0.0578828
-0.0543811
-0.0508852
-0.0473177
-0.0429496
-0.0387618
-0.0344725
-0.0303601
-0.0265482
-0.0229596
-0.0195155
-0.0161815
-0.0129349
-0.00973118
-0.00659764
-0.00330779
-0.000821404
-0.113355
-0.110279
-0.107913
-0.109881
-0.10723
-0.103384
-0.105459
-0.104077
-0.0984032
-0.099459
-0.101493
-0.100448
-0.100747
-0.0939778
-0.095024
-0.0970779
-0.0960472
-0.0971769
-0.0933492
-0.0893212
-0.085192
-0.0810625
-0.077018
-0.0731007
-0.0693223
-0.0656658
-0.0620984
-0.0585862
-0.055074
-0.0515181
-0.0478471
-0.0432805
-0.0389847
-0.0346552
-0.0304996
-0.0266404
-0.0230151
-0.0195512
-0.0162135
-0.0129843
-0.00981424
-0.00673362
-0.00348711
-0.00110053
-0.117131
-0.114133
-0.111796
-0.113731
-0.111094
-0.107533
-0.109516
-0.108018
-0.102519
-0.103568
-0.105592
-0.104549
-0.104765
-0.0981364
-0.0991753
-0.101215
-0.100191
-0.10127
-0.097512
-0.0935392
-0.089449
-0.0853452
-0.081313
-0.0774021
-0.0736297
-0.0699786
-0.0664192
-0.0629151
-0.0594133
-0.0558636
-0.05222
-0.0484205
-0.0436372
-0.0392132
-0.0348411
-0.0306526
-0.0267493
-0.0230822
-0.0195904
-0.0162415
-0.0130175
-0.00987083
-0.00684228
-0.00363422
-0.00139093
-0.120866
-0.117917
-0.115599
-0.117531
-0.114913
-0.111384
-0.11329
-0.111866
-0.106611
-0.107684
-0.109558
-0.108858
-0.108697
-0.102263
-0.103292
-0.105297
-0.104293
-0.105291
-0.101621
-0.0977194
-0.0936873
-0.0896245
-0.0856237
-0.0817365
-0.0779854
-0.0743571
-0.0708231
-0.067348
-0.0638755
-0.060357
-0.0567394
-0.0529765
-0.0490356
-0.0440238
-0.0394542
-0.0350346
-0.0308121
-0.0268711
-0.0231651
-0.0196389
-0.0162704
-0.0130431
-0.00990851
-0.00692122
-0.00374746
-0.00166864
-0.124615
-0.121647
-0.119366
-0.121256
-0.118679
-0.115222
-0.117137
-0.115663
-0.110497
-0.111494
-0.113455
-0.112449
-0.112546
-0.106292
-0.107273
-0.108588
-0.109236
-0.10566
-0.101852
-0.0978915
-0.0938901
-0.0899368
-0.0860891
-0.0823731
-0.078781
-0.0752893
-0.0718624
-0.0684416
-0.0649722
-0.0614015
-0.0576758
-0.0537699
-0.0496822
-0.0444519
-0.0397162
-0.0352419
-0.0309817
-0.0269983
-0.0232575
-0.0197012
-0.0163059
-0.0130673
-0.00993586
-0.00697748
-0.0038279
-0.00191522
-0.12844
-0.125383
-0.12305
-0.125023
-0.122407
-0.119018
-0.120856
-0.119414
-0.114448
-0.115444
-0.117321
-0.116351
-0.116344
-0.1131
-0.109628
-0.10592
-0.102053
-0.0981278
-0.094239
-0.0904461
-0.0867805
-0.0832385
-0.0798015
-0.0764372
-0.0730857
-0.0696876
-0.0661802
-0.0625089
-0.0586403
-0.0545723
-0.0503389
-0.0449333
-0.0400185
-0.0354691
-0.0311653
-0.0271337
-0.0233524
-0.0197696
-0.0163534
-0.0130962
-0.00996017
-0.00701962
-0.00388332
-0.00212204
-0.132316
-0.129182
-0.126908
-0.128909
-0.126137
-0.122535
-0.123868
-0.125105
-0.123143
-0.118285
-0.119255
-0.121087
-0.120145
-0.120096
-0.116913
-0.113526
-0.109919
-0.106155
-0.102325
-0.0985172
-0.0947948
-0.0911927
-0.0877115
-0.084339
-0.0810493
-0.0777822
-0.0744749
-0.0710546
-0.0674522
-0.0636309
-0.0595858
-0.0553463
-0.0509787
-0.0454686
-0.0403805
-0.0357311
-0.0313657
-0.0272794
-0.0234526
-0.0198382
-0.0164044
-0.0131328
-0.00998631
-0.0070525
-0.00392147
-0.00228656
-0.136083
-0.13299
-0.130783
-0.132796
-0.129908
-0.126112
-0.127176
-0.128109
-0.129113
-0.126874
-0.121996
-0.123908
-0.122956
-0.124902
-0.123831
-0.120684
-0.117366
-0.113855
-0.110195
-0.106467
-0.102755
-0.0991188
-0.0955942
-0.0921862
-0.0888887
-0.0856823
-0.0825108
-0.0793076
-0.0759924
-0.0724811
-0.0687208
-0.0647009
-0.0604549
-0.0560393
-0.0515248
-0.0460213
-0.0408084
-0.0360415
-0.0315928
-0.0274358
-0.0235572
-0.0199099
-0.0164541
-0.013172
-0.0100159
-0.00708129
-0.00395076
-0.00241014
-0.139838
-0.136712
-0.134651
-0.136576
-0.133671
-0.130047
-0.131061
-0.131996
-0.132984
-0.130622
-0.125962
-0.12699
-0.127921
-0.128891
-0.127564
-0.123855
-0.124749
-0.124433
-0.121166
-0.117734
-0.114171
-0.110549
-0.10694
-0.103402
-0.0999681
-0.0966458
-0.0934322
-0.0903164
-0.0872468
-0.084159
-0.0809637
-0.0775638
-0.0738846
-0.069901
-0.0656445
-0.0611856
-0.0565994
-0.051945
-0.0465376
-0.0412883
-0.0364064
-0.0318517
-0.0276091
-0.0236662
-0.0199804
-0.0165035
-0.0132089
-0.010048
-0.00710889
-0.00397776
-0.00249696
-0.143574
-0.140457
-0.138418
-0.140315
-0.137378
-0.133909
-0.134904
-0.135814
-0.136775
-0.13435
-0.12989
-0.130875
-0.131788
-0.132739
-0.131297
-0.125774
-0.12677
-0.127727
-0.12867
-0.128177
-0.124942
-0.121571
-0.118092
-0.114566
-0.111063
-0.10763
-0.104298
-0.101072
-0.0979522
-0.0949343
-0.0919739
-0.0890066
-0.0859401
-0.0826648
-0.0790888
-0.0751615
-0.0709014
-0.0663867
-0.0617184
-0.0569842
-0.0522494
-0.0469447
-0.0417454
-0.0367931
-0.0321422
-0.0278059
-0.0237864
-0.0200505
-0.0165473
-0.0132418
-0.0100782
-0.00713707
-0.00400673
-0.00255066
-0.147288
-0.144208
-0.142145
-0.14407
-0.141091
-0.1377
-0.138634
-0.139542
-0.140503
-0.138043
-0.133721
-0.134694
-0.13562
-0.136698
-0.135007
-0.129675
-0.130641
-0.131581
-0.132506
-0.131912
-0.128706
-0.125383
-0.121971
-0.118528
-0.11512
-0.11179
-0.108565
-0.105446
-0.102429
-0.099515
-0.0966673
-0.0938264
-0.0908967
-0.0877581
-0.0843001
-0.0804498
-0.076207
-0.0716442
-0.0668795
-0.0620258
-0.0571756
-0.0534949
-0.0472728
-0.0511277
-0.0421143
-0.0371618
-0.0324521
-0.0280308
-0.0239248
-0.0201256
-0.0165865
-0.013266
-0.0101018
-0.00716054
-0.00404058
-0.00257279
-0.151036
-0.147929
-0.145891
-0.147817
-0.144821
-0.141452
-0.142438
-0.143338
-0.144286
-0.141734
-0.137536
-0.138397
-0.139309
-0.140257
-0.138694
-0.133488
-0.134408
-0.135297
-0.136327
-0.135627
-0.132462
-0.129184
-0.125822
-0.122447
-0.119117
-0.11588
-0.112758
-0.109747
-0.10684
-0.104037
-0.101307
-0.0985973
-0.0958081
-0.0928105
-0.0894793
-0.0857268
-0.0815259
-0.0769395
-0.0720914
-0.067116
-0.0621143
-0.0583286
-0.0559279
-0.0534952
-0.0485812
-0.0423813
-0.0461852
-0.0511669
-0.0374431
-0.0327379
-0.0282675
-0.0240872
-0.0202157
-0.0166267
-0.0132813
-0.0101153
-0.00717449
-0.0040744
-0.00256594
-0.154844
-0.151677
-0.149647
-0.151572
-0.148544
-0.145216
-0.146196
-0.147096
-0.148043
-0.145442
-0.141297
-0.142273
-0.143151
-0.144062
-0.142384
-0.139331
-0.136205
-0.132975
-0.129663
-0.126335
-0.123066
-0.119903
-0.11687
-0.113962
-0.111167
-0.108478
-0.105868
-0.103288
-0.100644
-0.097797
-0.0946099
-0.0909667
-0.0868305
-0.082246
-0.0773429
-0.0722747
-0.0671576
-0.0632929
-0.0608079
-0.0582408
-0.0558272
-0.0539206
-0.0527821
-0.0487003
-0.0436191
-0.0376169
-0.0412081
-0.0462154
-0.0505645
-0.0516539
-0.032964
-0.0285076
-0.0242812
-0.0203337
-0.016677
-0.0132915
-0.0101165
-0.00717563
-0.00410577
-0.00252999
-0.158664
-0.155468
-0.153426
-0.155358
-0.152293
-0.148977
-0.149958
-0.150858
-0.151806
-0.149168
-0.145075
-0.146042
-0.146914
-0.147823
-0.146088
-0.143036
-0.139943
-0.136759
-0.133493
-0.130209
-0.126982
-0.12387
-0.120905
-0.118085
-0.115394
-0.112817
-0.110328
-0.107879
-0.105376
-0.102682
-0.0996401
-0.0961262
-0.0920763
-0.0875289
-0.0826056
-0.0774795
-0.0722896
-0.0683695
-0.065832
-0.0632156
-0.0607098
-0.0587517
-0.0575293
-0.0551304
-0.0563175
-0.0538025
-0.0526206
-0.0491976
-0.0481701
-0.0436263
-0.0387604
-0.0330986
-0.0364848
-0.0411342
-0.045524
-0.0467797
-0.050709
-0.0515208
-0.0287076
-0.0244832
-0.0204775
-0.0167498
-0.0133072
-0.0101088
-0.00716142
-0.00413312
-0.00246291
-0.162337
-0.159228
-0.15722
-0.159188
-0.156066
-0.152752
-0.153738
-0.154645
-0.155595
-0.152913
-0.14884
-0.149808
-0.15068
-0.15159
-0.149818
-0.146758
-0.143681
-0.140537
-0.13732
-0.134071
-0.130875
-0.127795
-0.124874
-0.122117
-0.119513
-0.117041
-0.114666
-0.112342
-0.109978
-0.107433
-0.104546
-0.101171
-0.0972341
-0.092751
-0.087845
-0.0826977
-0.0774729
-0.0735236
-0.0709504
-0.0682974
-0.065744
-0.0637515
-0.0624979
-0.0600225
-0.0612498
-0.0586927
-0.0574587
-0.055037
-0.0562433
-0.0492236
-0.0482734
-0.0441555
-0.042931
-0.038739
-0.0341868
-0.0288396
-0.0320305
-0.0364285
-0.0404854
-0.0416692
-0.0453925
-0.0467611
-0.0246709
-0.0206532
-0.016863
-0.0133461
-0.0101011
-0.007133
-0.00415266
-0.00236075
-0.16623
-0.16295
-0.160954
-0.162885
-0.159809
-0.156537
-0.157515
-0.158441
-0.159418
-0.156667
-0.15262
-0.153594
-0.154472
-0.155385
-0.153563
-0.150494
-0.147431
-0.144317
-0.141139
-0.137929
-0.134756
-0.131691
-0.128789
-0.126068
-0.123525
-0.121141
-0.118869
-0.116661
-0.114425
-0.112021
-0.109284
-0.106059
-0.102252
-0.0978684
-0.0930205
-0.0878955
-0.0826718
-0.0787192