/*--------------------------------*- C++ -*----------------------------------*\
| =========                 |                                                 |
| \\      /  F ield         | OpenFOAM: The Open Source CFD Toolbox           |
|  \\    /   O peration     | Version:  v1912                                 |
|   \\  /    A nd           | Website:  www.openfoam.com                      |
|    \\/     M anipulation  |                                                 |
\*---------------------------------------------------------------------------*/
FoamFile
{
    version     2.0;
    format      ascii;
    class       volVectorField;
    location    "60";
    object      U;
}
// * * * * * * * * * * * * * * * * * * * * * * * * * * * * * * * * * * * * * //

dimensions      [0 1 -1 0 0 0 0];


internalField   nonuniform List<vector> 
3675
(
(0.0765955 -0.0258663 0)
(0.229088 -0.0759872 0)
(0.076053 -0.025695 2.55654e-21)
(0.227596 -0.0754843 2.66947e-21)
(0.0755142 -0.0255179 0)
(0.376317 -0.1224 -2.19085e-21)
(0.226114 -0.0749859 2.50196e-24)
(0.0749985 -0.0253473 0)
(0.517423 -0.165099 0)
(0.374004 -0.121613 0)
(0.224644 -0.0744924 0)
(0.0744855 -0.0251792 0)
(0.644352 -0.201781 0)
(0.514424 -0.164072 0)
(0.371689 -0.120831 0)
(0.223174 -0.0740077 0)
(0.0739865 -0.0250124 -2.22727e-21)
(0.749526 -0.230425 0)
(0.640736 -0.200534 -1.65054e-24)
(0.511386 -0.163039 0)
(0.369384 -0.120062 0)
(0.221733 -0.0735293 2.15902e-21)
(0.0734913 -0.0248448 0)
(0.825583 -0.249203 0)
(0.74537 -0.228973 -8.09262e-22)
(0.63711 -0.199289 1.64936e-24)
(0.508352 -0.162011 0)
(0.367063 -0.119285 0)
(0.220277 -0.0730426 0)
(0.0729939 -0.0246766 0)
(0.866463 -0.256764 -7.74382e-22)
(0.820891 -0.247541 7.60112e-22)
(0.741205 -0.227525 0)
(0.633442 -0.198033 0)
(0.505289 -0.160976 0)
(0.364736 -0.11851 1.73989e-24)
(0.218815 -0.0725569 0)
(0.0725013 -0.0245082 3.84528e-21)
(0.868303 -0.252477 1.53603e-21)
(0.861169 -0.254878 0)
(0.81619 -0.245891 0)
(0.73701 -0.226076 -7.49466e-22)
(0.629755 -0.196776 0)
(0.502186 -0.159938 0)
(0.362388 -0.117734 -1.74024e-24)
(0.21736 -0.0720691 -1.88009e-21)
(0.0720005 -0.0243356 0)
(0.8301 -0.236624 -7.86038e-22)
(0.862317 -0.25036 -7.34456e-22)
(0.855881 -0.253019 7.1765e-22)
(0.811478 -0.244253 7.03718e-22)
(0.73276 -0.224615 1.37246e-24)
(0.626004 -0.195507 0)
(0.499052 -0.158896 0)
(0.360028 -0.116952 1.58691e-24)
(0.215878 -0.0715698 0)
(0.0714982 -0.0241615 0)
(0.754089 -0.210475 -1.61738e-24)
(0.823354 -0.234282 7.56483e-22)
(0.856348 -0.248285 -7.19173e-22)
(0.850606 -0.251189 -6.91097e-22)
(0.806724 -0.242611 0)
(0.72847 -0.223149 -1.37203e-24)
(0.622202 -0.194231 0)
(0.49589 -0.15785 0)
(0.357657 -0.116168 -4.61181e-24)
(0.214411 -0.0710708 0)
(0.0709938 -0.0239851 0)
(0.645541 -0.176182 -8.43929e-22)
(0.746569 -0.207935 0)
(0.816621 -0.232002 0)
(0.850445 -0.246273 1.05137e-23)
(0.845347 -0.249381 -7.7951e-24)
(0.801941 -0.240967 6.62509e-22)
(0.724114 -0.221673 -6.69062e-22)
(0.618363 -0.192953 0)
(0.492709 -0.156803 0)
(0.355253 -0.115369 4.46564e-24)
(0.212943 -0.0705688 0)
(0.0704865 -0.0238072 0)
(0.512031 -0.136458 9.61398e-22)
(0.637279 -0.173478 -3.29731e-24)
(0.738983 -0.205463 -5.87625e-24)
(0.810044 -0.22984 7.06487e-22)
(0.844661 -0.244318 -5.32421e-24)
(0.840107 -0.247582 -6.36679e-22)
(0.797118 -0.239321 6.28494e-22)
(0.719703 -0.220192 0)
(0.614475 -0.191672 1.31481e-21)
(0.489493 -0.155751 0)
(0.352874 -0.11458 -1.47392e-21)
(0.211479 -0.0700642 -1.63145e-21)
(0.0699875 -0.0236384 0)
(0.362376 -0.0941205 5.36346e-22)
(0.503009 -0.133659 7.28271e-24)
(0.628717 -0.17081 6.34343e-24)
(0.731715 -0.203201 5.88579e-24)
(0.803749 -0.227778 6.87037e-22)
(0.838998 -0.242399 4.94343e-24)
(0.834876 -0.245797 0)
(0.792252 -0.237678 2.33177e-24)
(0.715262 -0.218722 -1.19955e-21)
(0.610575 -0.190402 0)
(0.486287 -0.154705 1.25366e-21)
(0.350507 -0.113788 1.33304e-21)
(0.210021 -0.0695664 0)
(0.0694842 -0.0234694 1.40837e-21)
(0.244349 -0.0624425 -4.52835e-22)
(0.352481 -0.0913684 2.35967e-22)
(0.241255 -0.061553 -4.32047e-22)
(0.493058 -0.130727 0)
(0.620749 -0.168495 7.99993e-22)
(0.725034 -0.201107 -7.27609e-22)
(0.797767 -0.225798 5.05723e-24)
(0.833449 -0.240522 -4.94995e-24)
(0.829659 -0.244032 -4.57295e-24)
(0.78737 -0.236051 -4.56361e-24)
(0.710784 -0.217258 3.42734e-24)
(0.606651 -0.189132 0)
(0.483077 -0.153658 0)
(0.348136 -0.112999 -1.33593e-21)
(0.208578 -0.0690782 0)
(0.0689953 -0.0233035 0)
(0.246626 -0.0629104 4.66112e-22)
(0.163002 -0.0410513 9.94611e-23)
(0.236488 -0.0604661 0)
(0.339363 -0.0878495 -2.45798e-22)
(0.229424 -0.058375 -3.88224e-22)
(0.160881 -0.0405669 -1.03747e-23)
(0.484363 -0.128334 -9.26822e-22)
(0.613898 -0.166454 7.67195e-22)
(0.718918 -0.199143 -6.90934e-22)
(0.792036 -0.223895 -9.9354e-24)
(0.827995 -0.23869 -5.89998e-22)
(0.824462 -0.242295 4.57548e-24)
(0.782467 -0.23444 3.29864e-24)
(0.7063 -0.21581 -1.10666e-24)
(0.602733 -0.187876 -1.13558e-21)
(0.479902 -0.15263 1.13824e-21)
(0.345806 -0.112229 1.27503e-21)
(0.207144 -0.0685987 1.41251e-21)
(0.0685237 -0.023145 0)
(0.164352 -0.0413708 0)
(0.101299 -0.0252849 -1.05815e-24)
(0.100933 -0.0251766 -1.33299e-22)
(0.15731 -0.0397067 -8.23336e-23)
(0.219803 -0.0556878 -3.68687e-22)
(0.329724 -0.0851731 2.52631e-22)
(0.211934 -0.0540853 8.20501e-22)
(0.149676 -0.0377037 0)
(0.0996353 -0.0249153 1.29574e-22)
(0.100404 -0.0250952 -2.62317e-22)
(0.477755 -0.126413 -5.93247e-24)
(0.60801 -0.164627 7.72123e-22)
(0.713267 -0.197319 -6.53427e-22)
(0.786532 -0.222078 6.2004e-22)
(0.822637 -0.236909 5.65197e-22)
(0.819287 -0.240593 0)
(0.777567 -0.232857 -1.06589e-24)
(0.701813 -0.214383 1.03508e-21)
(0.598831 -0.186637 -1.08392e-21)
(0.476734 -0.15161 -1.08643e-21)
(0.343514 -0.111479 -1.15239e-21)
(0.205766 -0.0681417 1.34791e-21)
(0.0680681 -0.0229928 2.47518e-21)
(0.101645 -0.0253517 1.05843e-24)
(0.101916 -0.0254346 1.38442e-22)
(0.0592526 -0.0146804 -1.21028e-22)
(0.0590465 -0.0146318 0)
(0.0985059 -0.0247426 -3.97789e-24)
(0.0966076 -0.0242392 4.13093e-24)
(0.136033 -0.0339138 3.16406e-22)
(0.207024 -0.0526102 -4.17659e-22)
(0.32423 -0.0834443 -1.00997e-21)
(0.204372 -0.0517642 -6.29078e-24)
(0.126329 -0.0318856 -3.96898e-22)
(0.0875963 -0.0216196 -1.07585e-23)
(0.0933355 -0.023569 7.5009e-24)
(0.0583713 -0.0144974 -1.84601e-24)
(0.0587999 -0.0145808 1.21663e-22)
(0.472596 -0.124862 8.20178e-22)
(0.602789 -0.162997 7.25612e-22)
(0.707973 -0.195618 0)
(0.781216 -0.220336 -1.17961e-21)
(0.817365 -0.23518 2.20138e-24)
(0.814141 -0.238926 0)
(0.772678 -0.231303 -9.68037e-25)
(0.697344 -0.212978 9.86169e-22)
(0.594976 -0.185421 0)
(0.473643 -0.15062 -1.08245e-21)
(0.341251 -0.110742 -1.10182e-21)
(0.204428 -0.0677026 8.65445e-23)
(0.0676235 -0.0228455 -1.15749e-21)
(0.0594261 -0.0147256 1.22509e-22)
(0.059576 -0.0147608 -1.26592e-22)
(0.0190957 -0.00469375 3.5392e-25)
(0.0190521 -0.00468673 9.33275e-23)
(0.0577137 -0.0143808 0)
(0.0565194 -0.0141475 1.15553e-22)
(0.0769708 -0.0181182 5.85055e-23)
(0.0676597 -0.0172646 -3.44898e-24)
(0.122535 -0.0306981 9.42542e-23)
(0.202508 -0.0511683 6.29793e-24)
(0.320623 -0.0824146 -9.6536e-22)
(0.201337 -0.050821 6.04014e-24)
(0.120976 -0.0301813 -5.71523e-24)
(0.0599226 -0.0151191 -1.20052e-22)
(0.0624554 -0.0157989 1.25937e-22)
(0.0497822 -0.011664 -1.2384e-23)
(0.0541796 -0.0135574 0)
(0.0188555 -0.00463951 7.1168e-25)
(0.0189663 -0.00466269 -7.12044e-25)
(0.468276 -0.123579 7.99531e-22)
(0.598062 -0.161531 -6.85806e-22)
(0.702979 -0.19402 6.24614e-22)
(0.776073 -0.218668 4.51266e-24)
(0.812168 -0.233501 5.25918e-22)
(0.809026 -0.237301 5.02726e-22)
(0.767805 -0.22978 9.68335e-25)
(0.692909 -0.211601 0)
(0.591163 -0.184226 9.54109e-22)
(0.470594 -0.14965 0)
(0.339073 -0.110043 -1.04982e-21)
(0.203132 -0.0672798 0)
(0.0671941 -0.0227035 0)
(0.0191406 -0.0047076 -1.26634e-25)
(0.0191822 -0.00471595 -9.74427e-23)
(0.0186782 -0.00460843 8.75676e-23)
(0.0183211 -0.00455265 9.22966e-23)
(0.0334194 -0.00577193 1.04691e-23)
(0.0229506 -0.00605207 -2.78201e-23)
(0.0588607 -0.0146519 -1.24916e-22)
(0.058321 -0.0144738 1.22434e-22)
(0.120025 -0.0299227 -8.37782e-23)
(0.200266 -0.0505869 -3.89548e-22)
(0.317776 -0.081676 -1.1281e-21)
(0.199533 -0.0504009 5.90688e-24)
(0.119421 -0.0297509 -8.84114e-23)
(0.0578916 -0.0143235 1.17704e-22)
(0.0580681 -0.0143867 -1.87261e-24)
(0.0193895 -0.00489233 9.63451e-23)
(0.0207409 -0.00542154 -7.62709e-23)
(0.0162918 -0.0041776 6.5348e-23)
(0.0174512 -0.00446717 8.29442e-23)
(0.464498 -0.12247 7.86539e-22)
(0.5937 -0.160184 5.33894e-24)
(0.698216 -0.192507 -5.86987e-22)
(0.771046 -0.217061 -6.97836e-24)
(0.807033 -0.231874 -5.0381e-22)
(0.803946 -0.235717 0)
(0.762973 -0.228292 0)
(0.688531 -0.210254 0)
(0.587415 -0.183063 -9.44229e-22)
(0.467631 -0.148718 -9.92697e-22)
(0.336966 -0.109372 0)
(0.201885 -0.0668724 0)
(0.0667741 -0.022566 -1.05745e-21)
(0.00927063 -0.00147867 1.33292e-23)
(0.0189123 -0.00468439 0)
(0.018716 -0.00461215 -1.70933e-22)
(0.0577218 -0.0142837 -1.15781e-22)
(0.0576212 -0.0142595 1.16268e-22)
(0.118917 -0.0296489 3.49513e-22)
(0.198677 -0.0502232 3.98462e-24)
(0.31533 -0.0810373 -2.27044e-22)
(0.198058 -0.0500544 3.56426e-22)
(0.118502 -0.0295464 0)
(0.0574747 -0.0142072 -1.13345e-22)
(0.0575276 -0.0142367 1.14755e-22)
(0.0185841 -0.00456887 -1.67302e-22)
(0.0186374 -0.00459007 8.41744e-23)
(0.461089 -0.121472 -7.34599e-22)
(0.5896 -0.158927 1.28154e-21)
(0.693626 -0.191071 -5.76132e-22)
(0.766128 -0.215518 0)
(0.801955 -0.230297 -4.82061e-22)
(0.798904 -0.234174 0)
(0.758186 -0.226839 -4.44261e-22)
(0.684209 -0.20894 4.17759e-22)
(0.583759 -0.181936 8.7475e-22)
(0.46476 -0.147823 0)
(0.33493 -0.108727 0)
(0.200677 -0.0664799 0)
(0.0663679 -0.0224349 0)
(0.0185434 -0.00455743 2.02281e-25)
(0.0184994 -0.0045502 -8.20221e-23)
(0.0573604 -0.0141928 -1.11582e-22)
(0.0572914 -0.0141766 -1.10828e-22)
(0.1181 -0.0294656 3.35841e-22)
(0.197284 -0.0498819 3.44761e-22)
(0.313118 -0.0804433 1.06788e-21)
(0.196731 -0.0497183 3.52172e-22)
(0.11772 -0.0293689 -4.11343e-22)
(0.0571546 -0.0141345 0)
(0.0572055 -0.0141635 1.09693e-22)
(0.0184712 -0.00453724 -3.0367e-25)
(0.0184816 -0.00454795 8.15073e-23)
(0.457908 -0.120548 -7.34227e-22)
(0.585702 -0.157749 6.16041e-22)
(0.689165 -0.189697 5.43662e-22)
(0.761289 -0.21403 4.32145e-24)
(0.796928 -0.228768 0)
(0.793905 -0.232669 -6.47484e-24)
(0.753454 -0.225421 4.15489e-22)
(0.679976 -0.20766 0)
(0.580203 -0.180849 0)
(0.462 -0.146969 8.51001e-25)
(0.332984 -0.108111 0)
(0.199528 -0.0661026 -9.94527e-25)
(0.0659673 -0.0223085 -9.81294e-22)
(0.0184439 -0.00453167 8.05101e-23)
(0.0184071 -0.00452622 2.29291e-25)
(0.0570358 -0.0141192 -5.54269e-25)
(0.0569668 -0.0141016 8.70555e-25)
(0.117329 -0.0292807 -4.01166e-22)
(0.196014 -0.0495546 -3.34636e-22)
(0.311052 -0.0798865 -3.33178e-24)
(0.19549 -0.0493972 -6.02839e-24)
(0.11697 -0.0291826 -7.82155e-23)
(0.0568233 -0.0140578 1.04957e-22)
(0.0568777 -0.0140877 1.05076e-22)
(0.018379 -0.00451469 -7.75539e-23)
(0.0183926 -0.00452591 -1.30139e-25)
(0.454901 -0.119681 -7.03924e-22)
(0.581945 -0.156625 -6.023e-22)
(0.684806 -0.188379 5.29267e-22)
(0.756512 -0.212591 0)
(0.791939 -0.227279 4.39546e-22)
(0.788949 -0.231201 0)
(0.748794 -0.224035 0)
(0.675846 -0.206419 0)
(0.576772 -0.179805 0)
(0.459325 -0.146141 -8.71986e-22)
(0.331094 -0.10751 9.34406e-22)
(0.198398 -0.0657311 9.9432e-25)
(0.0655614 -0.0221748 9.44458e-25)
(0.0183494 -0.00450905 -1.53376e-22)
(0.0183112 -0.00450288 2.22598e-25)
(0.0567002 -0.0140384 0)
(0.0566283 -0.0140193 8.58952e-25)
(0.116607 -0.0290993 2.33238e-22)
(0.194797 -0.0492372 -3.20262e-22)
(0.309091 -0.0793538 -1.93379e-22)
(0.194302 -0.0490878 3.14861e-22)
(0.116256 -0.0290043 -3.04584e-22)
(0.0564871 -0.0139739 0)
(0.0565401 -0.0140024 2.01905e-22)
(0.0182752 -0.00448985 -5.77972e-25)
(0.0182926 -0.00450153 -7.55465e-23)
(0.452024 -0.118858 -1.28209e-24)
(0.57829 -0.155552 5.65436e-22)
(0.680528 -0.187113 -5.01009e-22)
(0.751771 -0.211191 0)
(0.786977 -0.225824 -8.42341e-25)
(0.784049 -0.229764 4.00093e-22)
(0.744223 -0.222684 -7.38986e-25)
(0.671823 -0.205216 -3.89425e-22)
(0.573444 -0.178796 3.68445e-22)
(0.456762 -0.14535 -7.94061e-22)
(0.329286 -0.106933 0)
(0.197285 -0.0653615 0)
(0.0651714 -0.0220466 9.28451e-22)
(0.0182425 -0.00448335 -7.29683e-23)
(0.0182042 -0.00447723 1.46196e-22)
(0.056368 -0.0139554 9.82819e-23)
(0.0562987 -0.0139374 9.83526e-23)
(0.115908 -0.0289226 4.43955e-22)
(0.193639 -0.0489329 3.11596e-22)
(0.307208 -0.0788455 1.81095e-22)
(0.193158 -0.0487859 3.02765e-22)
(0.115568 -0.0288324 -2.20542e-22)
(0.056155 -0.0138926 0)
(0.0562113 -0.0139208 9.66089e-23)
(0.0181669 -0.00446276 -7.1552e-23)
(0.0181864 -0.00447421 -1.80013e-25)
(0.449251 -0.118075 -1.62681e-23)
(0.574712 -0.154518 5.56046e-22)
(0.676279 -0.185882 0)
(0.747057 -0.209829 -4.36257e-22)
(0.78205 -0.224399 -3.99622e-22)
(0.779204 -0.228353 0)
(0.739748 -0.221366 -6.24666e-24)
(0.667926 -0.204055 3.62924e-22)
(0.570231 -0.177828 0)
(0.454273 -0.144582 0)
(0.3275 -0.10636 0)
(0.196205 -0.0650016 9.75158e-22)
(0.064812 -0.0219241 -9.10095e-22)
(0.0181354 -0.00445697 -1.41669e-22)
(0.0180975 -0.00445107 0)
(0.0560392 -0.0138736 -1.33387e-24)
(0.05597 -0.0138562 -1.87366e-22)
(0.115235 -0.0287516 7.06832e-23)
(0.192527 -0.0486417 0)
(0.30539 -0.0783579 -5.52908e-22)
(0.192055 -0.0485008 -2.96468e-22)
(0.114908 -0.0286632 -2.12376e-22)
(0.0558385 -0.0138138 0)
(0.0558876 -0.0138416 -9.33696e-23)
(0.01806 -0.00443678 -6.88433e-23)
(0.0180801 -0.00444801 -1.79077e-25)
(0.446528 -0.117317 -6.1057e-22)
(0.571179 -0.15352 0)
(0.672048 -0.184679 4.67641e-22)
(0.742329 -0.20848 -8.00059e-25)
(0.777133 -0.222988 -1.54027e-24)
(0.774425 -0.226965 3.62024e-22)
(0.735374 -0.22008 0)
(0.664137 -0.202929 0)
(0.567119 -0.176889 -3.67841e-22)
(0.451861 -0.143833 0)
(0.325763 -0.105795 -7.94052e-22)
(0.195142 -0.0646371 -8.87734e-25)
(0.0644285 -0.0217941 1.81484e-21)
(0.0180291 -0.00443091 -1.364e-22)
(0.0179902 -0.00442538 1.3539e-22)
(0.0557241 -0.0137952 -9.12838e-23)
(0.0556583 -0.0137773 -8.99739e-23)
(0.114588 -0.0285881 1.34622e-22)
(0.191449 -0.048362 0)
(0.303627 -0.0778897 7.01055e-22)
(0.190995 -0.0482254 -5.34686e-24)
(0.114268 -0.0285026 6.79454e-23)
(0.0555266 -0.013736 0)
(0.0555761 -0.0137624 -4.94906e-25)
(0.0179606 -0.00441215 0)
(0.0179773 -0.00442386 0)
(0.443859 -0.116587 5.86566e-22)
(0.567644 -0.152538 0)
(0.667785 -0.183488 0)
(0.737583 -0.207144 7.99598e-25)
(0.772235 -0.221585 0)
(0.76971 -0.225593 6.68372e-25)
(0.731102 -0.218822 0)
(0.66046 -0.201838 3.3458e-22)
(0.564101 -0.175977 0)
(0.449479 -0.143086 0)
(0.324061 -0.105232 0)
(0.194079 -0.0642738 -8.65321e-22)
(0.0640361 -0.0216641 9.10893e-22)
(0.017929 -0.00440673 0)
(0.0178931 -0.00440076 1.99433e-25)
(0.0554138 -0.0137184 -5.59669e-25)
(0.0553646 -0.0137051 -7.70541e-25)
(0.113961 -0.0284291 6.51301e-23)
(0.190406 -0.0480929 1.06793e-24)
(0.301881 -0.0774301 -8.37234e-22)
(0.189955 -0.0479601 -2.69912e-22)
(0.113652 -0.0283467 -1.96804e-22)
(0.0552228 -0.0136626 0)
(0.0552736 -0.0136859 -8.62135e-23)
(0.017859 -0.00438737 0)
(0.0178768 -0.00439847 -1.62839e-25)
(0.441184 -0.115865 3.33902e-24)
(0.564069 -0.151566 0)
(0.663455 -0.182297 0)
(0.73278 -0.205793 3.80414e-22)
(0.767338 -0.220177 -1.3438e-24)
(0.76506 -0.224233 3.33987e-22)
(0.726924 -0.217592 0)
(0.656868 -0.200771 -6.30489e-25)
(0.561129 -0.175074 3.41734e-22)
(0.44715 -0.142346 0)
(0.32234 -0.104662 -8.04151e-22)
(0.193013 -0.0639121 -8.50573e-22)
(0.0636542 -0.0215305 -3.36244e-24)
(0.0178279 -0.00438255 -2.03248e-25)
(0.0177954 -0.00437699 -6.30619e-23)
(0.0551174 -0.0136444 0)
(0.0550722 -0.0136318 -7.67167e-25)
(0.113355 -0.0282759 1.25637e-22)
(0.189382 -0.047832 2.63007e-22)
(0.300166 -0.0769837 1.583e-22)
(0.188936 -0.0477009 4.12438e-24)
(0.11305 -0.0281963 2.51211e-22)
(0.0549351 -0.0135911 0)
(0.0549836 -0.0136135 -8.29046e-23)
(0.017759 -0.00436437 0)
(0.0177896 -0.00437621 6.22688e-23)
(0.438474 -0.115149 -2.19727e-24)
(0.560412 -0.150584 0)
(0.658998 -0.181073 -4.11129e-22)
(0.727896 -0.204412 0)
(0.762433 -0.218754 -3.34842e-22)
(0.760466 -0.222885 -3.20787e-22)
(0.722826 -0.216388 0)
(0.653345 -0.199724 8.34107e-24)
(0.558192 -0.174171 1.29925e-24)
(0.444826 -0.141599 6.82407e-22)
(0.320641 -0.104091 0)
(0.191924 -0.0635328 0)
(0.0632777 -0.0213984 8.80086e-22)
(0.0177347 -0.00435942 -6.09413e-23)
(0.0177035 -0.00435394 -1.21836e-22)
(0.0548304 -0.0135725 -5.88914e-25)
(0.0547843 -0.0135602 -7.54972e-25)
(0.112759 -0.0281266 -1.24095e-22)
(0.188369 -0.0475728 -2.54131e-22)
(0.298435 -0.076535 0)
(0.187925 -0.0474409 2.4623e-22)
(0.112459 -0.0280501 3.00014e-22)
(0.0546502 -0.0135212 0)
(0.0546984 -0.0135429 0)
(0.0176692 -0.00434239 -5.94198e-23)
(0.0176983 -0.0043538 4.7137e-25)
(0.435675 -0.114414 0)
(0.556572 -0.149562 0)
(0.654358 -0.179793 3.85974e-22)
(0.722891 -0.202974 -3.41398e-22)
(0.757507 -0.217309 3.22214e-22)
(0.75592 -0.221554 3.09122e-22)
(0.71879 -0.215203 -3.02412e-22)
(0.649848 -0.198676 3.11958e-22)
(0.555272 -0.173262 3.23405e-22)
(0.442503 -0.140837 0)
(0.318916 -0.103502 7.74692e-22)
(0.190845 -0.0631547 -8.19425e-22)
(0.0629066 -0.0212643 0)
(0.0176432 -0.00433672 -1.17615e-22)
(0.0176103 -0.00433112 -5.85845e-23)
(0.0545511 -0.0135038 -7.79427e-23)
(0.0545055 -0.0134908 -7.76175e-23)
(0.112179 -0.0279812 1.16044e-22)
(0.187381 -0.0473206 -9.43709e-25)
(0.296641 -0.0760731 0)
(0.186927 -0.0471838 2.37453e-22)
(0.111884 -0.027904 -1.74488e-22)
(0.0543759 -0.0134546 0)
(0.0544202 -0.0134751 -7.65244e-23)
(0.017577 -0.00431996 -5.72096e-23)
(0.0176065 -0.00433122 0)
(0.432711 -0.11365 4.97473e-22)
(0.552458 -0.148468 -4.25791e-22)
(0.649449 -0.17841 3.66401e-22)
(0.717725 -0.201462 0)
(0.75257 -0.215861 -4.00739e-24)
(0.751418 -0.220241 -1.1499e-24)
(0.714786 -0.214027 8.22169e-24)
(0.646376 -0.197624 -2.92832e-22)
(0.552353 -0.172334 3.18387e-22)
(0.44016 -0.140057 -6.57295e-22)
(0.317176 -0.102899 7.61961e-22)
(0.189755 -0.0627666 -8.64035e-22)
(0.0625105 -0.021126 -8.4521e-22)
(0.0175549 -0.00431528 -5.6553e-23)
(0.0175217 -0.00430898 -5.66028e-23)
(0.0542742 -0.0134366 -7.5377e-23)
(0.0542303 -0.0134251 -6.01802e-26)
(0.1116 -0.0278336 1.11337e-22)
(0.18638 -0.0470655 0)
(0.294757 -0.0755927 -4.32378e-22)
(0.185902 -0.0469238 -2.25846e-22)
(0.111312 -0.0277592 -1.12791e-22)
(0.0541016 -0.0133849 0)
(0.05415 -0.0134047 -7.33146e-23)
(0.0174921 -0.00429908 -5.54858e-23)
(0.0175175 -0.00430989 4.37149e-25)
(0.429424 -0.112809 0)
(0.547887 -0.147224 3.92272e-22)
(0.644153 -0.176873 0)
(0.712422 -0.1999 -6.26302e-22)
(0.747637 -0.214427 5.93836e-25)
(0.746958 -0.21895 -5.75931e-22)
(0.710807 -0.212847 -2.26731e-24)
(0.642896 -0.196549 -5.83968e-22)
(0.54942 -0.171384 0)
(0.437786 -0.139253 -6.45161e-22)
(0.315411 -0.102284 7.0122e-22)
(0.188636 -0.0623715 -6.12368e-23)
(0.0620966 -0.0209798 -2.95394e-23)
(0.0174624 -0.00429413 4.27364e-25)
(0.0174399 -0.00429194 -1.34766e-25)
(0.0540037 -0.0133678 -6.20711e-25)
(0.0539624 -0.013357 -6.53153e-25)
(0.111029 -0.0276889 -5.31119e-23)
(0.185342 -0.0467999 -4.46213e-22)
(0.292635 -0.0750566 -3.36985e-24)
(0.184853 -0.0466533 0)
(0.110741 -0.0276154 2.12331e-22)
(0.0538324 -0.0133191 -6.97628e-23)
(0.053884 -0.0133387 -7.01701e-23)
(0.0174015 -0.00427502 -5.2874e-23)
(0.0174303 -0.00428549 0)
(0.425561 -0.111816 -4.53699e-22)
(0.542668 -0.145752 3.58921e-22)
(0.638486 -0.175192 3.31173e-22)
(0.707045 -0.198339 -3.00389e-22)
(0.742757 -0.213033 5.76857e-22)
(0.742545 -0.217666 2.1417e-24)
(0.706836 -0.21165 2.73382e-22)
(0.639406 -0.195448 0)
(0.546447 -0.170401 0)
(0.43539 -0.13843 -1.28482e-24)
(0.313623 -0.101655 -4.3117e-23)
(0.187478 -0.0619584 7.7283e-22)
(0.0616802 -0.0208297 7.82698e-22)
(0.0173739 -0.00427188 -1.04597e-22)
(0.017353 -0.00427009 -1.36358e-25)
(0.0537403 -0.0133031 0)
(0.0537 -0.0132901 6.82505e-23)
(0.110458 -0.027544 1.55991e-22)
(0.184258 -0.0465243 2.14242e-22)
(0.290011 -0.0744204 1.37918e-22)
(0.18365 -0.0463491 -2.08923e-22)
(0.110148 -0.0274648 4.93773e-23)
(0.0535753 -0.0132537 -6.65605e-23)
(0.0536222 -0.013274 6.7051e-23)
(0.0173141 -0.00425427 3.93793e-25)
(0.0173446 -0.00426424 0)
(0.420744 -0.110533 -4.18777e-22)
(0.536575 -0.143942 2.75857e-24)
(0.632566 -0.173472 3.24702e-22)
(0.701751 -0.196855 -3.67236e-24)
(0.737984 -0.211672 2.22544e-24)
(0.738174 -0.216375 -2.69633e-22)
(0.702867 -0.210426 4.20442e-24)
(0.635889 -0.194314 -2.156e-24)
(0.543452 -0.169391 0)
(0.432966 -0.137584 -2.6684e-23)
(0.311812 -0.101008 -1.38333e-24)
(0.186284 -0.061525 -1.54769e-24)
(0.061255 -0.0206784 -3.02247e-23)
(0.0172916 -0.00425227 4.97091e-23)
(0.0172705 -0.00424883 4.98386e-23)
(0.0534807 -0.0132375 6.54415e-23)
(0.0534418 -0.0132255 0)
(0.109864 -0.0273901 -3.93675e-25)
(0.182933 -0.0462072 1.99474e-22)
(0.286344 -0.0735083 -1.54293e-23)
(0.182054 -0.0459773 -1.96208e-22)
(0.109502 -0.0273019 -4.65234e-23)
(0.0533127 -0.0131878 -7.64585e-25)
(0.0533657 -0.0132094 0)
(0.0172364 -0.00423401 0)
(0.0172615 -0.0042442 -4.90703e-23)
(0.414229 -0.108665 3.58825e-22)
(0.529842 -0.141969 -3.16684e-22)
(0.626785 -0.171899 -7.72591e-24)
(0.696686 -0.195444 0)
(0.73333 -0.210323 2.66361e-22)
(0.733839 -0.215068 0)
(0.698888 -0.209174 -2.07204e-24)
(0.632353 -0.193147 2.15565e-24)
(0.540436 -0.168352 5.73231e-22)
(0.430529 -0.136715 -1.24076e-24)
(0.309938 -0.100328 0)
(0.18509 -0.0610903 7.43891e-22)
(0.0608146 -0.0205206 -2.94201e-23)
(0.0172089 -0.00423117 0)
(0.0171892 -0.00422905 0)
(0.0532216 -0.0131713 6.22175e-23)
(0.0531824 -0.013158 -6.17787e-23)
(0.109168 -0.0272161 -1.88999e-22)
(0.1809 -0.0457714 0)
(0.279724 -0.0718015 -5.11741e-22)
(0.179174 -0.0453226 0)
(0.108684 -0.02711 -4.46324e-23)
(0.0530487 -0.0131232 0)
(0.0531039 -0.0131447 6.05101e-23)
(0.0171521 -0.00421342 -4.6077e-23)
(0.0171816 -0.00422431 0)
(0.406039 -0.106286 4.1816e-23)
(0.523381 -0.140286 -3.50799e-22)
(0.62149 -0.170467 -4.58741e-24)
(0.691882 -0.194075 2.67829e-22)
(0.728782 -0.208979 2.03879e-24)
(0.729534 -0.213744 0)
(0.69491 -0.207892 0)
(0.628797 -0.191945 2.64616e-22)
(0.537391 -0.167277 5.71328e-22)
(0.428036 -0.135812 -1.19181e-24)
(0.308056 -0.099634 0)
(0.183873 -0.0606346 7.32767e-22)
(0.0603523 -0.0203578 -7.87132e-22)
(0.0171279 -0.0042104 -4.59762e-23)
(0.0171073 -0.00420759 0)
(0.0529479 -0.0131016 0)
(0.0529117 -0.0130875 5.76648e-23)
(0.108101 -0.0269784 -4.33994e-23)
(0.176475 -0.0448288 -5.18574e-24)
(0.268018 -0.0686409 3.00101e-22)
(0.17176 -0.043362 1.57402e-22)
(0.107123 -0.0267868 0)
(0.0527517 -0.0130503 5.54834e-23)
(0.0528251 -0.0130759 5.70579e-23)
(0.0170735 -0.00419415 -4.38418e-23)
(0.0171007 -0.00420443 -4.45539e-23)
(0.398508 -0.104394 6.04105e-24)
(0.517949 -0.138861 0)
(0.616722 -0.169126 -2.83744e-22)
(0.68732 -0.192749 3.89188e-24)
(0.724333 -0.207638 0)
(0.725265 -0.212399 0)
(0.690934 -0.206577 -2.48838e-22)
(0.625241 -0.190711 -5.19897e-22)
(0.534325 -0.166174 -1.07604e-24)
(0.425534 -0.134881 1.19135e-24)
(0.306118 -0.0989026 6.80314e-22)
(0.182628 -0.0601655 7.30007e-22)
(0.0598657 -0.0201852 -7.87592e-22)
(0.0170482 -0.00419005 0)
(0.0170267 -0.00418689 -4.29969e-23)
(0.0526331 -0.0130288 6.09715e-25)
(0.0525435 -0.0129987 -5.37268e-23)
(0.105559 -0.0264853 4.08181e-23)
(0.163 -0.0407761 1.84337e-22)
(0.258527 -0.0662438 9.37409e-23)
(0.153786 -0.0391066 -7.6448e-23)
(0.102162 -0.02562 0)
(0.0522148 -0.0129362 0)
(0.0524196 -0.012983 -5.29992e-23)
(0.0169854 -0.00417265 -8.26202e-23)
(0.0170204 -0.00418365 0)
(0.393113 -0.102944 3.63468e-22)
(0.513443 -0.137593 3.04423e-22)
(0.612348 -0.167868 0)
(0.68294 -0.191455 -3.89752e-24)
(0.719972 -0.206295 0)
(0.721036 -0.211032 1.75962e-24)
(0.686974 -0.205231 9.1357e-25)
(0.621674 -0.189441 0)
(0.531245 -0.165032 1.07556e-24)
(0.422982 -0.133912 -1.17327e-21)
(0.304188 -0.0981584 -6.4085e-25)
(0.181324 -0.0596624 7.27664e-22)
(0.0593286 -0.0200095 0)
(0.0169655 -0.00417086 4.09502e-23)
(0.0169251 -0.00415917 9.85123e-26)
(0.0519524 -0.0129046 0)
(0.051463 -0.0128133 -5.19887e-23)
(0.0909107 -0.0223105 -3.94864e-23)
(0.148152 -0.0374849 1.0605e-23)
(0.253907 -0.0647383 -3.25836e-22)
(0.145703 -0.0366714 -3.4908e-22)
(0.0768639 -0.019888 7.29761e-23)
(0.0486277 -0.011861 -5.48006e-23)
(0.050602 -0.0127175 0)
(0.0168446 -0.0041369 0)
(0.0169123 -0.00415369 3.43967e-25)
(0.389263 -0.101837 -3.39693e-22)
(0.509555 -0.13648 -3.52978e-25)
(0.608289 -0.16669 3.73541e-24)
(0.678724 -0.190186 2.20615e-22)
(0.715704 -0.204948 -1.65812e-24)
(0.716853 -0.209641 -3.43611e-24)
(0.683035 -0.203851 2.22109e-22)
(0.618103 -0.188131 0)
(0.528152 -0.163858 5.24637e-22)
(0.420409 -0.132909 0)
(0.302168 -0.0973664 6.66048e-22)
(0.179941 -0.0591403 0)
(0.0587569 -0.0198216 1.60542e-21)
(0.0167704 -0.00412453 3.79242e-23)
(0.0166084 -0.00409832 3.63113e-23)
(0.0443363 -0.0101303 -1.311e-23)
(0.0298838 -0.00501972 0)
(0.0719881 -0.0181115 5.03681e-24)
(0.144299 -0.0361338 1.57433e-22)
(0.25137 -0.0640012 1.14709e-24)
(0.143506 -0.0358891 -1.64493e-22)
(0.0708881 -0.0175683 1.89954e-22)
(0.0182353 -0.00490108 2.76145e-23)
(0.0204048 -0.0050479 -2.58519e-23)
(0.0156106 -0.0039767 8.19134e-23)
(0.0163152 -0.00407868 1.772e-24)
(0.386149 -0.100962 -4.27033e-25)
(0.506047 -0.135482 -4.27098e-24)
(0.604467 -0.165567 -1.81826e-23)
(0.674654 -0.188931 0)
(0.711517 -0.203587 1.65918e-24)
(0.712717 -0.208222 -4.14242e-22)
(0.679116 -0.202437 -2.12077e-22)
(0.614539 -0.186788 0)
(0.52504 -0.162641 0)
(0.417797 -0.13187 1.13183e-23)
(0.300103 -0.0965471 -6.66914e-22)
(0.178506 -0.0585954 -1.55237e-21)
(0.0581744 -0.0196265 -2.4341e-23)
(0.0145401 -0.003663 -4.91881e-24)
(0.00823059 -0.00127413 2.94105e-23)
(0.0171134 -0.00432351 -4.35042e-23)
(0.0166963 -0.00417282 -3.82942e-23)
(0.070342 -0.0173945 -1.47928e-22)
(0.142874 -0.0357757 -1.49971e-22)
(0.249507 -0.0635702 2.6234e-24)
(0.142462 -0.0356874 1.48221e-22)
(0.0700104 -0.0172992 0)
(0.0165679 -0.00407312 3.69196e-23)
(0.0166364 -0.00410997 -3.79031e-23)
(0.383487 -0.100236 -2.55157e-24)
(0.502856 -0.134568 -1.72149e-23)
(0.600833 -0.164473 0)
(0.670708 -0.18768 1.87696e-22)
(0.707411 -0.202212 3.82054e-22)
(0.708629 -0.206777 2.05325e-22)
(0.675217 -0.200987 -7.99571e-25)
(0.610974 -0.185404 0)
(0.5219 -0.161384 -5.06357e-22)
(0.415116 -0.130782 5.65299e-22)
(0.297964 -0.095687 6.49411e-22)
(0.177009 -0.0580189 7.79203e-22)
(0.0575309 -0.0194189 1.74155e-21)
(0.0165477 -0.00407091 0)
(0.0165361 -0.00406484 3.5906e-23)
(0.0697938 -0.0172713 -3.42671e-23)
(0.141989 -0.0356201 0)
(0.247911 -0.0632 -8.19128e-23)
(0.141656 -0.0355369 0)
(0.0696244 -0.0172329 0)
(0.0165099 -0.00405367 -3.48476e-23)
(0.0165159 -0.00405843 -3.55635e-23)
(0.381108 -0.099582 -2.75055e-22)
(0.499877 -0.1337 3.44492e-24)
(0.597359 -0.163402 -3.87442e-22)
(0.66687 -0.186427 -1.87072e-23)
(0.703381 -0.200818 1.68531e-22)
(0.704589 -0.2053 1.74205e-22)
(0.671343 -0.199501 1.89429e-22)
(0.607413 -0.18398 0)
(0.51871 -0.160075 4.85275e-22)
(0.412387 -0.129648 0)
(0.295735 -0.0947809 0)
(0.175438 -0.0574206 -8.14068e-22)
(0.0568662 -0.0192063 -9.34469e-22)
(0.0164902 -0.00405611 6.913e-23)
(0.0164908 -0.00405279 -2.66955e-25)
(0.0694589 -0.0172107 -3.16735e-23)
(0.141226 -0.0354584 1.27133e-22)
(0.246508 -0.0628499 0)
(0.140916 -0.0353656 0)
(0.0692906 -0.017164 -4.64219e-25)
(0.0164655 -0.00404622 0)
(0.0164656 -0.00405003 -3.30913e-23)
(0.378941 -0.0989783 -1.97785e-24)
(0.497049 -0.132856 1.5378e-23)
(0.594004 -0.162337 -1.89773e-23)
(0.663126 -0.185163 -1.75682e-22)
(0.69942 -0.199401 -1.74414e-22)
(0.700595 -0.203793 -3.44239e-22)
(0.667493 -0.197977 1.77826e-22)
(0.603829 -0.182509 -6.45338e-22)
(0.515489 -0.15872 0)
(0.409604 -0.128473 5.77335e-22)
(0.293445 -0.0938397 0)
(0.17381 -0.0567967 8.61237e-22)
(0.0561774 -0.0189826 9.74084e-22)
(0.0164363 -0.00404568 6.3706e-23)
(0.0164318 -0.00403915 3.11883e-23)
(0.0691222 -0.0171326 4.64117e-25)
(0.140501 -0.0352811 0)
(0.245217 -0.0625131 9.65021e-25)
(0.140213 -0.0351893 0)
(0.0689536 -0.0170832 0)
(0.016394 -0.00402669 0)
(0.0164037 -0.0040346 0)
(0.376885 -0.0983923 2.23666e-22)
(0.494344 -0.132028 -1.84572e-22)
(0.590762 -0.161276 0)
(0.659479 -0.18389 1.2021e-24)
(0.695528 -0.19796 1.61542e-22)
(0.696646 -0.202254 -1.72876e-22)
(0.663655 -0.196414 3.59462e-22)
(0.600231 -0.180993 1.97573e-22)
(0.512247 -0.157322 -5.07612e-22)
(0.406747 -0.127242 5.88104e-22)
(0.291112 -0.0928607 0)
(0.172083 -0.0561273 0)
(0.0554395 -0.0187515 -1.06684e-21)
(0.0163623 -0.004026 2.90103e-23)
(0.0163587 -0.00402091 2.83701e-23)
(0.0687896 -0.0170487 0)
(0.139817 -0.0351081 3.90328e-25)
(0.243985 -0.0621823 -5.43353e-25)
(0.139543 -0.035016 -3.90191e-25)
(0.0686343 -0.0170049 0)
(0.0163185 -0.00400875 0)
(0.0163285 -0.0040164 -2.75385e-23)
(0.374935 -0.0978253 -1.55799e-24)
(0.491756 -0.131213 0)
(0.587615 -0.160209 1.23065e-22)
(0.655913 -0.182599 1.15512e-22)
(0.691705 -0.196496 -3.03675e-25)
(0.692739 -0.20068 -1.62842e-22)
(0.659833 -0.194808 -1.86186e-22)
(0.596635 -0.179427 0)
(0.50895 -0.155861 -5.16936e-22)
(0.403843 -0.125954 6.06195e-22)
(0.28863 -0.0918116 0)
(0.170264 -0.0554416 9.82967e-22)
(0.0546519 -0.0184677 -1.15614e-24)
(0.0162894 -0.00400725 -2.6194e-23)
(0.0162829 -0.00400201 2.55413e-23)
(0.0684749 -0.01697 0)
(0.139167 -0.0349413 -3.41923e-25)
(0.242807 -0.0618575 -6.13008e-26)
(0.138889 -0.034847 3.41799e-25)
(0.0683125 -0.0169251 0)
(0.0162542 -0.00399192 -2.41219e-23)
(0.0162542 -0.00399825 -2.48186e-23)
(0.373069 -0.0972668 -1.50931e-22)
(0.489256 -0.130397 -2.56111e-22)
(0.584567 -0.159133 -1.24508e-22)
(0.652432 -0.181288 0)
(0.687944 -0.195 -2.47252e-25)
(0.688875 -0.199069 0)
(0.656023 -0.193153 0)
(0.593012 -0.177804 1.89085e-22)
(0.505587 -0.154331 -5.3273e-22)
(0.400822 -0.1246 0)
(0.286052 -0.0907147 0)
(0.168331 -0.0547231 -1.10401e-24)
(0.05401 -0.0180292 1.24231e-21)
(0.0162221 -0.00399015 -2.32261e-23)
(0.0162168 -0.00398475 2.27544e-23)
(0.0681559 -0.0168935 0)
(0.138529 -0.0347717 -5.86938e-25)
(0.24168 -0.0615433 1.34995e-22)
(0.138272 -0.0346812 8.56036e-25)
(0.0679984 -0.0168469 0)
(0.0161754 -0.00397436 2.13582e-23)
(0.0161877 -0.0039816 -2.21658e-23)
(0.371293 -0.09672 1.38676e-22)
(0.486858 -0.129579 -4.45936e-25)
(0.58161 -0.15804 0)