/*--------------------------------*- C++ -*----------------------------------*\
| =========                 |                                                 |
| \\      /  F ield         | OpenFOAM: The Open Source CFD Toolbox           |
|  \\    /   O peration     | Version:  v1912                                 |
|   \\  /    A nd           | Website:  www.openfoam.com                      |
|    \\/     M anipulation  |                                                 |
\*---------------------------------------------------------------------------*/
FoamFile
{
    version     2.0;
    format      ascii;
    class       volVectorField;
    location    "480";
    object      U;
}
// * * * * * * * * * * * * * * * * * * * * * * * * * * * * * * * * * * * * * //

dimensions      [0 1 -1 0 0 0 0];


internalField   nonuniform List<vector> 
3754
(
(0.0489886 -0.0207158 0)
(0.15026 -0.0618895 -1.89394e-23)
(0.0484888 -0.0205116 8.8142e-24)
(0.252708 -0.102048 0)
(0.148759 -0.061281 9.31552e-24)
(0.0480109 -0.0203097 -8.86691e-24)
(0.352115 -0.139394 6.65511e-21)
(0.250223 -0.101052 7.28151e-24)
(0.14731 -0.0606868 8.98603e-21)
(0.0475476 -0.0201123 0)
(0.442194 -0.171591 -5.85348e-21)
(0.348668 -0.138026 6.39486e-21)
(0.247789 -0.10007 -7.36165e-21)
(0.145875 -0.0600983 -8.33098e-24)
(0.0470829 -0.0199164 0)
(0.515335 -0.195963 5.08785e-24)
(0.437826 -0.169878 -5.63308e-21)
(0.345272 -0.136683 0)
(0.245395 -0.0991124 2.70302e-25)
(0.144456 -0.0595149 8.35101e-24)
(0.0466339 -0.019726 0)
(0.563931 -0.21006 -1.99809e-25)
(0.510138 -0.193953 -5.11547e-21)
(0.433522 -0.168207 -5.17529e-24)
(0.341939 -0.13537 5.9209e-21)
(0.243019 -0.0981531 6.76378e-24)
(0.143073 -0.0589446 0)
(0.0461826 -0.0195349 0)
(0.581999 -0.212259 4.75177e-24)
(0.558022 -0.207806 4.8196e-21)
(0.505032 -0.192001 0)
(0.429305 -0.166571 -5.20982e-21)
(0.33863 -0.134059 5.70053e-24)
(0.240675 -0.0972053 0)
(0.1417 -0.0583786 0)
(0.0457306 -0.0193433 0)
(0.566737 -0.202261 0)
(0.575525 -0.209821 -4.79688e-21)
(0.552229 -0.205626 0)
(0.500019 -0.190088 -9.03699e-24)
(0.425118 -0.164944 1.45644e-23)
(0.335348 -0.132759 0)
(0.238355 -0.0962695 0)
(0.140327 -0.0578118 0)
(0.0452895 -0.019155 -6.93068e-24)
(0.519312 -0.181247 -5.51322e-24)
(0.559833 -0.199693 4.87703e-21)
(0.569177 -0.207475 0)
(0.546541 -0.203496 -4.46568e-21)
(0.49505 -0.188193 9.04584e-24)
(0.420965 -0.163329 -3.79468e-25)
(0.332104 -0.131475 0)
(0.236054 -0.095337 0)
(0.138968 -0.0572504 0)
(0.0448609 -0.0189754 6.9641e-24)
(0.444621 -0.151666 0)
(0.512086 -0.178589 0)
(0.553074 -0.19725 -4.70473e-21)
(0.562985 -0.205205 4.37689e-21)
(0.540943 -0.201398 -4.30435e-21)
(0.490132 -0.186314 0)
(0.416859 -0.16173 -9.21931e-24)
(0.328881 -0.130194 0)
(0.233778 -0.0944181 0)
(0.137645 -0.0567033 6.89944e-21)
(0.0444286 -0.0187958 0)
(0.350054 -0.116658 3.69173e-21)
(0.437078 -0.148914 -2.26607e-23)
(0.50505 -0.176119 5.00289e-21)
(0.546579 -0.194923 -1.79927e-23)
(0.556948 -0.202983 4.20413e-21)
(0.535421 -0.199327 0)
(0.485269 -0.184453 0)
(0.412778 -0.160141 0)
(0.325706 -0.128934 0)
(0.231531 -0.0935028 -5.61104e-21)
(0.136324 -0.056161 -6.63656e-21)
(0.044004 -0.0186162 0)
(0.244146 -0.0794757 -5.23878e-21)
(0.341996 -0.113767 3.53055e-24)
(0.429834 -0.146456 1.10579e-24)
(0.498461 -0.173817 0)
(0.540339 -0.192668 0)
(0.551041 -0.200809 1.62519e-23)
(0.529977 -0.197283 -3.99018e-21)
(0.480447 -0.182612 0)
(0.40875 -0.158571 4.26895e-21)
(0.322543 -0.127675 0)
(0.229308 -0.0926072 5.39133e-21)
(0.135035 -0.055629 -3.06065e-24)
(0.0435842 -0.018437 0)
(0.16336 -0.0524268 1.82347e-21)
(0.234434 -0.0761667 2.07747e-21)
(0.159212 -0.0510246 -1.80688e-21)
(0.334481 -0.111292 0)
(0.423404 -0.144261 -5.49543e-21)
(0.492308 -0.171634 4.75909e-21)
(0.534326 -0.190498 0)
(0.545256 -0.19868 3.90981e-21)
(0.524608 -0.195271 -7.32453e-24)
(0.475691 -0.180793 -7.78096e-21)
(0.40476 -0.157019 0)
(0.319447 -0.126448 -4.50105e-21)
(0.227128 -0.0917224 1.07059e-25)
(0.133756 -0.0551004 3.06582e-24)
(0.0431722 -0.0182607 0)
(0.108309 -0.0343464 8.6216e-25)
(0.152921 -0.0485617 -1.80195e-21)
(0.226194 -0.073468 -9.21039e-22)
(0.146327 -0.0470265 -1.76566e-21)
(0.104624 -0.0332441 1.20585e-21)
(0.328481 -0.109246 6.40897e-21)
(0.417678 -0.142268 -5.29292e-21)
(0.486516 -0.169584 1.74735e-23)
(0.528506 -0.188399 0)
(0.539594 -0.196599 7.5412e-24)
(0.519324 -0.193291 3.68209e-21)
(0.471006 -0.179005 3.72114e-24)
(0.400841 -0.15549 3.95119e-21)
(0.316391 -0.125231 -2.07176e-24)
(0.224989 -0.0908558 2.4688e-24)
(0.132499 -0.0545783 0)
(0.042789 -0.0180977 0)
(0.0666697 -0.020998 5.6201e-22)
(0.0970376 -0.0302387 0)
(0.141713 -0.0453217 0)
(0.22116 -0.0716281 -2.06155e-21)
(0.139138 -0.0444445 3.41153e-21)
(0.087841 -0.0280479 4.07166e-22)
(0.0630618 -0.0198916 2.2525e-24)
(0.065315 -0.0206942 0)
(0.32361 -0.107573 -2.50309e-23)
(0.412489 -0.140465 7.39018e-25)
(0.481013 -0.167642 -6.54877e-25)
(0.522867 -0.186369 0)
(0.534047 -0.194561 0)
(0.514128 -0.191345 0)
(0.466394 -0.177241 0)
(0.396979 -0.153983 1.88811e-24)
(0.313406 -0.124044 2.07339e-24)
(0.222895 -0.0900026 2.26563e-24)
(0.131306 -0.0540807 -5.62119e-21)
(0.0423956 -0.0179327 0)
(0.0389689 -0.0121953 0)
(0.0591875 -0.0185521 0)
(0.0524117 -0.0155324 -3.24725e-22)
(0.0834935 -0.0264037 3.99045e-22)
(0.137324 -0.0436608 6.63166e-21)
(0.217739 -0.070478 1.92571e-21)
(0.136208 -0.0433513 -3.30006e-21)
(0.0817817 -0.0257149 -1.93037e-21)
(0.0420303 -0.0134878 -5.24566e-22)
(0.045428 -0.0144176 -1.79087e-23)
(0.0364604 -0.0115067 4.76651e-22)
(0.038158 -0.0120081 -5.16217e-22)
(0.319408 -0.106155 0)
(0.407675 -0.138807 5.07604e-21)
(0.475757 -0.16579 -1.69238e-23)
(0.517381 -0.184397 0)
(0.528615 -0.192569 -3.35228e-24)
(0.509027 -0.189433 -3.41115e-21)
(0.461849 -0.175505 3.44429e-21)
(0.393203 -0.15251 -3.62391e-21)
(0.310485 -0.122878 -3.97235e-21)
(0.220866 -0.0891724 4.55854e-21)
(0.130124 -0.0535907 -5.3868e-21)
(0.0420216 -0.0177753 0)
(0.0125678 -0.00390891 0)
(0.0337781 -0.0102175 4.87172e-22)
(0.0230639 -0.00552803 2.38734e-22)
(0.0402218 -0.0126436 -5.73107e-22)
(0.0393993 -0.0123661 8.45785e-24)
(0.0808259 -0.0253758 -3.80165e-21)
(0.135155 -0.0429619 -3.25078e-21)
(0.21497 -0.0696198 -1.81213e-21)
(0.134398 -0.0428126 -3.16244e-21)
(0.0802231 -0.0251798 2.97378e-21)
(0.0388651 -0.012124 -4.07256e-24)
(0.0390805 -0.0121831 1.59655e-21)
(0.0138939 -0.00452792 3.62683e-22)
(0.015416 -0.00507177 0)
(0.0116695 -0.00374253 -3.57012e-22)
(0.0123311 -0.00384794 3.65499e-22)
(0.315631 -0.104894 -5.86493e-21)
(0.403131 -0.137245 -4.87673e-21)
(0.470683 -0.16401 -7.84423e-24)
(0.512043 -0.182481 -3.66696e-21)
(0.523292 -0.190615 3.35638e-21)
(0.504006 -0.187556 -3.26058e-21)
(0.457411 -0.173807 3.30203e-21)
(0.389515 -0.151067 1.26273e-23)
(0.307644 -0.121739 0)
(0.218893 -0.088368 4.36772e-21)
(0.128989 -0.0531172 0)
(0.0416554 -0.0176223 0)
(0.0109356 -0.00354571 -2.25216e-22)
(0.00640909 -0.00148321 -4.78433e-23)
(0.0129216 -0.00406776 3.86102e-22)
(0.0125841 -0.0039287 7.09841e-22)
(0.0386794 -0.0120441 1.03353e-21)
(0.0385768 -0.0120382 3.98412e-24)
(0.0797355 -0.0250321 2.925e-21)
(0.133528 -0.042498 0)
(0.212521 -0.0688545 -1.78006e-21)
(0.132908 -0.0423759 -2.92903e-23)
(0.0792983 -0.0249155 7.35892e-22)
(0.0384185 -0.0119769 -3.9469e-24)
(0.0384609 -0.0119767 -4.04288e-26)
(0.0124125 -0.00384998 6.96109e-22)
(0.0124777 -0.00387486 1.74885e-24)
(0.312108 -0.103724 1.14729e-20)
(0.398808 -0.135771 -9.26756e-24)
(0.465777 -0.162288 3.91401e-21)
(0.506822 -0.180607 3.52799e-21)
(0.518071 -0.188705 -1.54624e-24)
(0.499098 -0.185715 1.56051e-24)
(0.453065 -0.172141 6.33184e-21)
(0.385921 -0.149656 3.32536e-21)
(0.304887 -0.120632 0)
(0.216979 -0.0875808 0)
(0.127887 -0.0526609 2.35548e-24)
(0.0412872 -0.0174664 -4.86811e-21)
(0.0123615 -0.00383468 6.86963e-22)
(0.0123312 -0.00383093 6.81374e-22)
(0.0382907 -0.0119183 0)
(0.0382118 -0.011924 9.90083e-22)
(0.0788752 -0.0247925 -1.11145e-23)
(0.13212 -0.0420776 2.99295e-21)
(0.210239 -0.0681344 -1.0075e-20)
(0.131519 -0.0419486 -2.87328e-24)
(0.0784821 -0.0246775 2.79046e-21)
(0.0380686 -0.0118822 9.70512e-22)
(0.0381248 -0.0118746 -9.71971e-22)
(0.0122972 -0.00381365 -6.70486e-22)
(0.0123007 -0.00381788 6.7486e-22)
(0.308799 -0.102627 1.10258e-23)
(0.394641 -0.134342 0)
(0.460992 -0.160613 -3.75833e-21)
(0.501718 -0.178781 3.38961e-21)
(0.512957 -0.186827 1.54764e-24)
(0.494287 -0.18391 -6.00787e-21)
(0.448831 -0.170513 -3.0273e-21)
(0.382421 -0.148277 -1.51978e-24)
(0.302204 -0.119551 0)
(0.215131 -0.0868251 0)
(0.1268 -0.0522075 -4.60243e-24)
(0.040956 -0.0173206 1.15122e-23)
(0.0122581 -0.00379808 6.6525e-22)
(0.0122262 -0.00379591 -6.57325e-22)
(0.0379437 -0.0118261 0)
(0.0378803 -0.0118252 3.71951e-24)
(0.0780836 -0.0245563 -2.71479e-24)
(0.130758 -0.0416544 2.89364e-21)
(0.208074 -0.0674336 3.29124e-21)
(0.130176 -0.0415308 2.85694e-21)
(0.0776873 -0.0244371 -2.62866e-24)
(0.0377031 -0.0117721 0)
(0.0377813 -0.011773 9.48904e-22)
(0.0121829 -0.00378338 -8.05912e-25)
(0.0122116 -0.00378539 -6.55984e-22)
(0.305588 -0.101559 -5.41607e-21)
(0.39059 -0.132963 -2.06604e-24)
(0.456331 -0.158982 -3.6094e-21)
(0.496705 -0.176982 0)
(0.507938 -0.184986 2.9627e-21)
(0.489588 -0.182143 0)
(0.444705 -0.168921 -2.82856e-24)
(0.379032 -0.146937 -3.03779e-21)
(0.299627 -0.118509 0)
(0.213336 -0.0860852 3.76474e-21)
(0.12575 -0.0517643 8.96382e-21)
(0.0406149 -0.017181 0)
(0.0121611 -0.00377381 2.53211e-24)
(0.0121392 -0.00376858 6.40666e-22)
(0.0375741 -0.0117121 9.35131e-22)
(0.0375141 -0.0117144 0)
(0.0772979 -0.0243105 2.63113e-24)
(0.129452 -0.0412388 -2.79062e-21)
(0.205949 -0.0667517 6.23255e-21)
(0.128887 -0.0411129 -2.7563e-21)
(0.0769103 -0.0241991 6.63924e-22)
(0.037341 -0.0116617 0)
(0.0374149 -0.011664 0)
(0.0120663 -0.00374717 6.32316e-22)
(0.0121021 -0.00375118 -1.27414e-21)
(0.302497 -0.100536 0)
(0.386651 -0.131617 2.06946e-24)
(0.45175 -0.157378 -1.74761e-24)
(0.491787 -0.175218 -3.12305e-21)
(0.503017 -0.183177 2.87445e-21)
(0.484997 -0.180409 -2.76394e-21)
(0.440694 -0.167366 2.76869e-21)
(0.375762 -0.145637 0)
(0.297128 -0.117495 -3.17677e-21)
(0.21158 -0.08536 -3.61094e-21)
(0.124733 -0.0513444 -2.13716e-24)
(0.0402703 -0.0170375 8.01811e-24)
(0.0120387 -0.00373453 -6.25619e-22)
(0.0120123 -0.00373075 6.22785e-22)
(0.0372233 -0.0116043 0)
(0.0371554 -0.0115967 0)
(0.0765193 -0.0240671 6.52835e-22)
(0.128181 -0.0408361 -2.68174e-21)
(0.203922 -0.0660927 -1.52734e-21)
(0.127615 -0.0407137 -3.81585e-23)
(0.0761511 -0.0239554 2.4598e-24)
(0.0369737 -0.0115473 0)
(0.0370382 -0.0115475 -8.84716e-22)
(0.0119603 -0.0037143 6.15049e-22)
(0.0119915 -0.00371852 -6.19671e-22)
(0.299479 -0.0995289 0)
(0.382783 -0.130296 4.04959e-21)
(0.447234 -0.155796 3.33006e-21)
(0.486941 -0.173478 -2.93778e-21)
(0.498191 -0.181396 -3.06838e-23)
(0.480519 -0.17871 0)
(0.436818 -0.165851 2.64723e-21)
(0.372596 -0.14437 0)
(0.294692 -0.116504 2.93681e-24)
(0.209874 -0.0846595 0)
(0.123721 -0.0509255 -4.02669e-21)
(0.0399499 -0.0169024 -4.00169e-21)
(0.0119311 -0.00370151 6.09489e-22)
(0.0118972 -0.00369126 6.05837e-22)
(0.0368419 -0.0114861 -8.6937e-22)
(0.0367659 -0.0114847 -3.3687e-24)
(0.0757915 -0.0238368 -2.46271e-24)
(0.126932 -0.040437 2.63868e-21)
(0.201927 -0.0654463 1.47337e-21)
(0.126397 -0.0403158 2.56246e-21)
(0.0754168 -0.0237293 2.44226e-21)
(0.0366165 -0.0114306 0)
(0.0366845 -0.0114369 3.37152e-24)
(0.0118358 -0.00367537 5.96968e-22)
(0.0118584 -0.00367782 -6.01712e-22)
(0.296508 -0.0985417 -4.69558e-21)
(0.378957 -0.128989 0)
(0.442783 -0.154237 0)
(0.482159 -0.171756 2.81425e-21)
(0.493456 -0.179639 -5.22178e-24)
(0.476165 -0.177041 -2.50022e-21)
(0.433054 -0.164371 -1.25744e-24)
(0.369516 -0.143137 0)
(0.292326 -0.115543 -1.42997e-24)
(0.208205 -0.0839764 3.2455e-21)
(0.122736 -0.0505181 7.65322e-21)
(0.0396286 -0.0167659 0)
(0.0118052 -0.00366228 0)
(0.0117753 -0.00365835 5.87499e-22)
(0.0364777 -0.0113718 0)
(0.0364187 -0.0113702 0)
(0.0750525 -0.0236012 -1.78843e-21)
(0.125727 -0.0400547 0)
(0.199961 -0.0648093 0)
(0.125183 -0.039934 2.72401e-23)
(0.0746964 -0.0234975 1.19556e-21)
(0.0362652 -0.0113259 8.28658e-22)
(0.0363249 -0.0113242 -3.22611e-24)
(0.0117199 -0.00363759 5.79681e-22)
(0.0117578 -0.00364655 -5.83786e-22)
(0.293573 -0.0975643 0)
(0.375175 -0.127695 7.04431e-24)
(0.438357 -0.152682 0)
(0.47743 -0.170044 0)
(0.488806 -0.177897 0)
(0.471915 -0.175401 -1.25302e-24)
(0.4294 -0.162929 2.39835e-21)
(0.366526 -0.141938 0)
(0.290008 -0.114606 -2.69457e-21)
(0.20657 -0.083308 -3.06857e-21)
(0.121764 -0.0501112 -3.60373e-21)
(0.0392971 -0.0166264 -3.57404e-21)
(0.0116784 -0.0036236 5.73766e-22)
(0.0116593 -0.0036192 5.69605e-22)
(0.0361471 -0.0112678 -8.10965e-22)
(0.0360739 -0.0112612 -3.14041e-24)
(0.0743383 -0.0233786 -9.0212e-24)
(0.124525 -0.0396728 0)
(0.198025 -0.0641809 1.37258e-21)
(0.124002 -0.0395537 -2.40568e-21)
(0.073984 -0.0232763 -2.26746e-21)
(0.0359169 -0.0112137 -7.93035e-22)
(0.0359916 -0.0112254 -7.93763e-22)
(0.0116049 -0.00360453 1.70939e-24)
(0.0116368 -0.00360794 -5.66516e-22)
(0.290665 -0.0965916 8.41496e-24)
(0.371396 -0.126401 -7.05098e-24)
(0.433932 -0.151123 1.13769e-23)
(0.472727 -0.168327 -4.99394e-24)
(0.484237 -0.17617 -4.5619e-24)
(0.46778 -0.173791 -2.26851e-21)
(0.425841 -0.16152 0)
(0.363601 -0.14077 5.6088e-24)
(0.287744 -0.113691 0)
(0.204945 -0.0826391 2.90598e-21)
(0.120786 -0.0497035 3.64652e-23)
(0.0389656 -0.0164857 -1.32328e-23)
(0.0115848 -0.00359305 5.56831e-22)
(0.0115558 -0.00358548 0)
(0.0357849 -0.0111542 0)
(0.0357386 -0.0111542 0)
(0.0736477 -0.0231621 0)
(0.123361 -0.0393039 0)
(0.196108 -0.0635547 1.31047e-21)
(0.12284 -0.0391825 -2.28903e-21)
(0.0732851 -0.0230563 2.1968e-21)
(0.0355823 -0.0111109 7.69011e-22)
(0.0356488 -0.0111156 0)
(0.0114997 -0.00357068 1.05785e-24)
(0.0115307 -0.00357938 5.47581e-22)
(0.287748 -0.0956162 -4.29203e-21)
(0.36757 -0.125089 -1.29893e-23)
(0.429461 -0.149537 -2.90228e-21)
(0.468044 -0.166597 -2.52814e-21)
(0.47974 -0.174446 4.55423e-24)
(0.463731 -0.17221 -2.05145e-24)
(0.422358 -0.160147 2.1398e-21)
(0.360736 -0.139628 0)
(0.285487 -0.112777 0)
(0.203317 -0.0819688 2.74376e-21)
(0.119804 -0.0492921 3.18847e-21)
(0.0386423 -0.0163457 -3.1654e-21)
(0.01146 -0.00355454 5.37558e-22)
(0.0114422 -0.00354998 -5.35312e-22)
(0.0354727 -0.0110547 0)
(0.0354156 -0.0110571 0)
(0.0729591 -0.0229468 -8.39479e-24)
(0.122199 -0.038928 8.70692e-24)
(0.1942 -0.0629316 3.67406e-21)
(0.121683 -0.0388104 -4.43383e-21)
(0.0726118 -0.0228448 5.47813e-22)
(0.0352474 -0.011005 7.38861e-22)
(0.0353208 -0.0110173 2.89907e-24)
(0.0113927 -0.0035373 3.63797e-24)
(0.0114162 -0.00354173 5.30509e-22)
(0.284785 -0.0946264 -8.09365e-24)
(0.363645 -0.12374 3.22969e-21)
(0.424917 -0.147904 2.70428e-21)
(0.463344 -0.16483 -2.4283e-21)
(0.4753 -0.172734 1.02656e-24)
(0.459758 -0.170664 2.04812e-24)
(0.418942 -0.158806 -3.83678e-24)
(0.357891 -0.138495 7.96516e-24)
(0.283235 -0.111863 0)
(0.201689 -0.0812955 -3.09346e-23)
(0.118818 -0.0488747 -1.13949e-23)
(0.038305 -0.0162026 2.96274e-21)
(0.0113698 -0.00352414 -5.2483e-22)
(0.0113395 -0.00352118 5.17442e-22)
(0.0351309 -0.0109488 -7.33627e-22)
(0.0350827 -0.0109542 2.81488e-24)
(0.0722811 -0.0227288 0)
(0.121068 -0.0385683 2.17386e-21)
(0.192268 -0.0622986 -1.23365e-21)
(0.120552 -0.0384468 2.12011e-21)
(0.0719313 -0.0226275 2.04021e-21)
(0.0349255 -0.0109061 0)
(0.0349932 -0.0109155 -7.17219e-22)
(0.0112912 -0.00350435 1.69918e-24)
(0.0113207 -0.00351519 5.13083e-22)
(0.281696 -0.0935938 1.49312e-23)
(0.35953 -0.12231 3.18145e-21)
(0.420221 -0.146184 2.59246e-21)
(0.45862 -0.163031 0)
(0.47091 -0.171047 -1.02484e-24)
(0.455856 -0.169159 0)
(0.415563 -0.157486 1.10772e-23)
(0.355047 -0.137361 -1.54592e-23)
(0.280977 -0.110945 -2.15201e-21)
(0.200061 -0.0806189 9.06554e-24)
(0.117816 -0.04845 7.67196e-25)
(0.0379635 -0.0160609 -2.77512e-21)
(0.0112495 -0.00348704 5.03444e-22)
(0.0112265 -0.00348694 5.00295e-22)
(0.0348277 -0.0108533 2.73694e-24)
(0.0347685 -0.0108539 -1.38345e-24)
(0.0716237 -0.0225237 -2.00738e-21)
(0.119936 -0.0382051 2.05664e-21)
(0.19026 -0.0616406 -1.17285e-21)
(0.119414 -0.0380775 0)
(0.0712813 -0.0224241 9.72537e-24)
(0.0346066 -0.0108039 0)
(0.0346645 -0.0108065 -1.35739e-24)
(0.0111896 -0.00347387 4.93913e-22)
(0.0112101 -0.00348087 0)
(0.278333 -0.0924712 9.51863e-23)
(0.355114 -0.120753 -3.06575e-21)
(0.415345 -0.144352 -2.5667e-21)
(0.453881 -0.161228 0)
(0.466586 -0.16941 -7.28906e-24)
(0.452009 -0.167686 0)
(0.412201 -0.156169 -7.24106e-24)
(0.352211 -0.136226 7.49493e-24)
(0.278727 -0.110023 2.01284e-21)
(0.198406 -0.0799272 -9.06973e-24)
(0.116814 -0.0480265 2.05309e-23)
(0.0376092 -0.0159133 0)
(0.0111597 -0.00345843 -9.59342e-25)
(0.0111344 -0.00345688 4.82994e-22)
(0.03451 -0.0107593 0)
(0.0344493 -0.0107548 0)
(0.0709585 -0.0223145 -4.8909e-22)
(0.118814 -0.0378432 2.01313e-21)
(0.188023 -0.0609194 -5.53934e-21)
(0.118252 -0.0377007 1.95474e-21)
(0.0706288 -0.022215 4.79186e-22)
(0.0343005 -0.010707 -1.29435e-24)
(0.0343641 -0.0107169 1.29347e-24)
(0.0110764 -0.00343757 -4.76811e-22)
(0.0111111 -0.0034462 4.81341e-22)
(0.274555 -0.0911997 3.59715e-21)
(0.350233 -0.118963 2.86629e-21)
(0.410295 -0.142444 -1.19396e-24)
(0.44919 -0.159493 2.04393e-21)
(0.462352 -0.167827 3.95586e-25)
(0.448212 -0.166229 0)
(0.408855 -0.154853 1.71087e-21)
(0.349379 -0.135085 -1.74714e-21)
(0.276453 -0.109088 -7.56528e-24)
(0.196749 -0.0792309 7.85507e-24)
(0.11579 -0.0475933 2.41128e-21)
(0.0372499 -0.0157602 4.46495e-24)
(0.0110542 -0.0034297 4.71636e-22)
(0.0110305 -0.00342584 4.67471e-22)
(0.0341949 -0.0106603 0)
(0.0341508 -0.0106623 6.43236e-22)
(0.0703186 -0.0221082 -1.38308e-21)
(0.117594 -0.0374522 1.89675e-21)
(0.18536 -0.0600602 0)
(0.116934 -0.0372785 -1.90554e-21)
(0.0699684 -0.0220067 0)
(0.0339941 -0.0106124 5.32853e-24)
(0.0340611 -0.0106189 -1.23342e-24)
(0.010991 -0.00340968 -4.60908e-22)
(0.0110123 -0.00341744 4.63427e-22)
(0.269915 -0.0895873 1.75401e-21)
(0.344855 -0.11693 2.84821e-21)
(0.405248 -0.140626 -2.18407e-21)
(0.444656 -0.157845 -7.22648e-24)
(0.458222 -0.166278 6.8952e-24)
(0.444451 -0.164778 -1.61202e-21)
(0.405514 -0.153532 -6.42477e-24)
(0.346537 -0.133935 -1.63954e-21)
(0.274163 -0.108139 0)
(0.195073 -0.0785269 -1.95651e-21)
(0.114748 -0.0471488 -2.23096e-21)
(0.0368975 -0.01561 -1.26273e-23)
(0.0109569 -0.00339932 0)
(0.0109421 -0.00339889 0)
(0.0338951 -0.0105663 1.23146e-24)
(0.0338396 -0.010562 -6.20012e-22)
(0.0696369 -0.0218915 -4.40958e-22)
(0.11616 -0.0370008 -1.86101e-21)
(0.181606 -0.0588572 -2.59829e-21)
(0.115202 -0.0367362 1.40493e-23)
(0.0692615 -0.021783 2.18708e-21)
(0.033693 -0.0105151 0)
(0.0337618 -0.0105286 0)
(0.0108817 -0.0033769 -8.88318e-22)
(0.0109173 -0.00338537 4.48105e-22)
(0.264071 -0.0873964 -3.31304e-21)
(0.339378 -0.115019 -2.59544e-21)
(0.400487 -0.138956 2.13009e-21)
(0.440326 -0.15626 7.23759e-24)
(0.454186 -0.164754 1.65331e-21)
(0.440724 -0.163334 -1.54731e-21)
(0.402176 -0.152208 1.49103e-21)
(0.343672 -0.132772 5.74161e-24)
(0.271869 -0.107187 -1.6168e-21)
(0.193383 -0.0778126 1.79474e-21)
(0.113715 -0.046706 2.03864e-21)
(0.0365278 -0.0154527 8.17086e-24)
(0.0108605 -0.00336952 4.39839e-22)
(0.0108385 -0.00336601 4.35826e-22)
(0.033586 -0.0104701 5.99722e-22)
(0.0335369 -0.0104681 -1.16237e-24)
(0.0688799 -0.0216447 1.72905e-21)
(0.113874 -0.0363593 1.75053e-21)
(0.174833 -0.0564468 -1.5585e-23)
(0.111999 -0.0357454 -1.36741e-23)
(0.0683455 -0.0215014 4.15482e-22)
(0.0334019 -0.0104245 7.46929e-24)
(0.033453 -0.0104311 -1.14158e-24)
(0.0107956 -0.00334796 0)
(0.0108248 -0.00335908 4.31861e-22)
(0.257848 -0.0853238 3.0443e-21)
(0.334459 -0.11336 -2.38419e-21)
(0.396132 -0.137401 -1.59581e-23)
(0.436189 -0.15473 -1.69833e-21)
(0.450232 -0.163255 1.52472e-21)
(0.437028 -0.161898 0)
(0.398845 -0.150882 -1.4081e-21)
(0.340818 -0.131606 1.40854e-21)
(0.269563 -0.106225 -1.4881e-21)
(0.191698 -0.077093 -1.64554e-21)
(0.112663 -0.0462485 -1.85134e-21)
(0.0361455 -0.0152908 0)
(0.0107555 -0.00333694 4.24429e-22)
(0.0107401 -0.00333613 4.20762e-22)
(0.0333136 -0.0103801 -1.1402e-24)
(0.033245 -0.0103675 0)
(0.0676358 -0.0213016 -4.03855e-22)
(0.108621 -0.0346469 9.03619e-22)
(0.166657 -0.0539269 5.13414e-22)
(0.103078 -0.0325681 1.37501e-23)
(0.0665024 -0.0209834 -5.03495e-23)
(0.0330668 -0.0103214 -5.64444e-22)
(0.0331551 -0.0103364 5.7166e-22)
(0.0107033 -0.00332082 -8.28486e-22)
(0.0107278 -0.00332859 4.17214e-22)
(0.252848 -0.0836511 -2.98525e-21)
(0.330278 -0.111894 0)
(0.392102 -0.135938 0)
(0.43221 -0.153256 -1.24474e-23)
(0.446358 -0.161783 -1.48282e-21)
(0.433373 -0.160473 2.71408e-21)
(0.395537 -0.149555 -5.27994e-24)
(0.337969 -0.130434 -7.72501e-24)
(0.267262 -0.105252 -1.37496e-21)
(0.189993 -0.0763578 1.49474e-21)
(0.111583 -0.0457801 1.6607e-21)
(0.0357618 -0.0151301 2.8732e-24)
(0.0106838 -0.00331249 4.10185e-22)
(0.0106573 -0.0033053 4.07192e-22)
(0.0329304 -0.0102711 6.37034e-24)
(0.0327883 -0.0102411 -4.30092e-24)
(0.0642589 -0.0202451 -5.56446e-22)
(0.0967614 -0.0308181 -8.54368e-22)
(0.161834 -0.052151 2.98089e-21)
(0.0931829 -0.0298018 -7.86034e-22)
(0.0570431 -0.0176376 0)
(0.0322899 -0.0101129 -2.73499e-22)
(0.0326188 -0.0101831 4.29015e-24)
(0.0106072 -0.00329163 4.00863e-22)
(0.0106362 -0.00329809 -4.01861e-22)
(0.249154 -0.0823493 2.24947e-23)
(0.32663 -0.110592 0)
(0.388335 -0.134573 0)
(0.428374 -0.151832 1.53778e-21)
(0.442561 -0.160334 -1.35284e-21)
(0.429758 -0.159053 -3.38438e-25)
(0.392251 -0.148228 -2.74031e-23)
(0.335126 -0.129253 1.19267e-21)
(0.264957 -0.104273 4.59928e-24)
(0.188271 -0.0756145 -2.66151e-21)
(0.110506 -0.0453125 0)
(0.0353632 -0.0149617 -2.87988e-24)
(0.0105725 -0.00327997 2.52643e-24)
(0.0105329 -0.00326957 3.92646e-22)
(0.031726 -0.0100028 -1.62711e-23)
(0.0305176 -0.00946807 -2.44404e-22)
(0.0479854 -0.0154948 -1.44066e-22)
(0.0913882 -0.0289323 7.57569e-22)
(0.15921 -0.0511641 -8.29553e-22)
(0.0904367 -0.0285945 1.20813e-23)
(0.044937 -0.0141904 1.08972e-21)
(0.0189378 -0.00444087 0)
(0.0279175 -0.008298 0)
(0.0103802 -0.00322634 5.75795e-22)
(0.0104949 -0.00325205 -3.89472e-22)
(0.246198 -0.0813146 -2.80789e-21)
(0.323335 -0.109424 0)
(0.384779 -0.133286 -6.61644e-24)
(0.424658 -0.150447 0)
(0.438839 -0.158906 0)
(0.42619 -0.157642 1.15732e-21)
(0.388979 -0.146896 1.1377e-21)
(0.332295 -0.128069 0)
(0.262644 -0.103281 1.11197e-21)
(0.186555 -0.0748652 -1.17265e-21)
(0.109409 -0.0448286 1.27238e-21)
(0.0349537 -0.0147926 0)
(0.0101888 -0.0031967 -3.80154e-22)
(0.00972253 -0.00311272 -1.73872e-22)
(0.0126987 -0.00398384 2.11694e-22)
(0.0113003 -0.00375831 0)
(0.0441275 -0.01377 0)
(0.0897253 -0.0283034 -1.20751e-23)
(0.157377 -0.0505826 4.17378e-21)
(0.0892848 -0.0282107 1.48695e-21)
(0.043707 -0.0136157 3.58052e-22)
(0.0103379 -0.00325416 -3.80017e-22)
(0.0106083 -0.00334991 1.96906e-22)
(0.00523601 -0.00117964 0)
(0.00905487 -0.0029078 -1.66202e-22)
(0.243649 -0.080445 0)
(0.320304 -0.108357 -2.08822e-21)
(0.381387 -0.132054 1.29091e-23)
(0.421056 -0.149099 0)
(0.435189 -0.157496 1.24635e-21)
(0.422662 -0.156238 -1.07281e-21)
(0.385749 -0.145568 -3.82487e-24)
(0.329477 -0.126876 0)
(0.260348 -0.102282 9.81158e-22)
(0.184826 -0.0741 -1.02228e-21)
(0.108285 -0.0443345 0)
(0.0345336 -0.0146156 0)
(0.0102975 -0.00320075 -3.79792e-22)
(0.0102544 -0.00318776 0)
(0.0434537 -0.013539 1.13558e-23)
(0.0887994 -0.0280492 -1.2145e-25)
(0.155825 -0.0501187 -8.2102e-22)
(0.0884621 -0.0279933 -1.42819e-21)
(0.043257 -0.0134813 0)
(0.0102147 -0.00317498 7.12578e-25)
(0.0102258 -0.00316755 3.69635e-22)
(0.241368 -0.0796741 2.45277e-21)
(0.317462 -0.107356 1.99228e-21)
(0.378135 -0.13087 -6.29035e-24)
(0.41755 -0.147778 -1.27827e-21)
(0.431607 -0.156102 -1.16925e-21)
(0.419191 -0.154839 -1.04533e-21)
(0.382541 -0.144233 9.63648e-22)
(0.326678 -0.125674 -9.05826e-22)
(0.258042 -0.101269 -8.74816e-22)
(0.183067 -0.0733186 7.57418e-25)
(0.10715 -0.0438305 8.67476e-22)
(0.034106 -0.0144341 0)
(0.0101992 -0.00316051 -6.97286e-25)
(0.0101912 -0.00316736 3.55446e-22)
(0.0430903 -0.0134404 3.44874e-22)
(0.0880386 -0.0278424 0)
(0.154449 -0.04969 0)
(0.0877163 -0.0277826 1.36231e-21)
(0.0429242 -0.0133888 -1.29899e-24)
(0.0101604 -0.00315614 3.47445e-22)
(0.010169 -0.00315103 3.51237e-22)
(0.239253 -0.0789577 -2.3302e-21)
(0.314761 -0.106402 0)
(0.374994 -0.129719 5.6308e-24)
(0.414131 -0.146482 1.1941e-21)
(0.428095 -0.15472 1.02721e-21)
(0.415762 -0.153441 -9.04905e-22)
(0.379369 -0.142896 1.6952e-21)
(0.323891 -0.124463 7.67545e-22)
(0.255735 -0.100243 0)
(0.181298 -0.072523 -6.97367e-22)
(0.105988 -0.0433091 0)
(0.0336593 -0.0142467 0)
(0.0101401 -0.00314373 -6.74428e-25)
(0.0101394 -0.00314989 6.49965e-25)
(0.0427687 -0.0133491 -1.24368e-24)
(0.0873075 -0.0276243 -1.35474e-21)
(0.153165 -0.0492769 1.51598e-21)
(0.0870213 -0.027563 0)
(0.0425865 -0.0132982 2.5471e-24)
(0.0101009 -0.00313546 6.56102e-25)
(0.0101157 -0.00313321 3.36927e-22)
(0.237249 -0.0782775 -9.16671e-24)
(0.31217 -0.105484 -6.67648e-24)
(0.371952 -0.128598 -3.10233e-25)
(0.410798 -0.145203 -1.19312e-21)
(0.424647 -0.153347 0)
(0.412387 -0.152046 -8.28305e-22)
(0.376231 -0.141551 0)
(0.32112 -0.12324 -1.41668e-24)
(0.253423 -0.0991991 0)
(0.17951 -0.0717086 0)
(0.104802 -0.0427731 4.40285e-22)
(0.0331919 -0.0140532 -2.10475e-22)
(0.0100777 -0.00312367 3.30451e-22)
(0.0100734 -0.00313037 0)
(0.0424197 -0.0132462 1.24431e-21)
(0.0866222 -0.0274047 -1.2689e-21)
(0.151925 -0.0488764 1.44606e-21)
(0.0863226 -0.0273397 -1.23739e-21)
(0.0422525 -0.0131925 -3.08414e-22)
(0.0100256 -0.00311674 3.19204e-22)
(0.0100421 -0.00311437 3.2494e-22)
(0.235341 -0.0776267 -4.14029e-24)
(0.309685 -0.104597 1.71493e-21)
(0.368995 -0.127496 1.27768e-21)
(0.407545 -0.143942 1.12867e-21)
(0.421268 -0.15198 1.70706e-24)
(0.409057 -0.150646 1.43496e-24)
(0.373118 -0.140196 6.98549e-22)
(0.318354 -0.121998 0)
(0.251096 -0.0981327 1.93221e-25)
(0.177691 -0.0708705 -3.53366e-22)
(0.103577 -0.0422195 2.14626e-22)
(0.0327107 -0.0138522 9.13914e-26)
(0.00999835 -0.00310094 3.1725e-22)
(0.00999203 -0.00310542 3.14557e-22)
(0.0420903 -0.0131393 0)
(0.0859481 -0.0271925 -2.43923e-21)
(0.150742 -0.0484867 6.88447e-22)
(0.085667 -0.0271327 -1.18307e-21)
(0.0419184 -0.0130841 -1.14078e-24)
(0.00994482 -0.00309085 3.0873e-22)
(0.00995965 -0.00308806 3.08653e-22)
(0.233513 -0.0769973 -2.00818e-21)
(0.307268 -0.103728 1.62293e-21)
(0.366132 -0.126418 -1.20589e-21)
(0.404368 -0.142688 -2.04965e-24)
(0.41795 -0.150615 -1.70702e-24)
(0.405778 -0.149242 -6.62493e-22)
(0.370035 -0.138828 0)
(0.315598 -0.120738 0)
(0.248751 -0.0970417 -1.93356e-25)
(0.175848 -0.0700125 -3.68078e-22)
(0.102317 -0.041645 0)
(0.0322115 -0.0136464 -3.23831e-22)
(0.00991892 -0.00307563 3.04423e-22)
(0.0099116 -0.00308018 3.01373e-22)
(0.0417632 -0.0130369 1.14361e-21)
(0.0853026 -0.026986 -1.151e-24)
(0.149613 -0.048111 -2.12811e-23)
(0.0850245 -0.0269253 -1.12707e-21)
(0.041612 -0.012994 0)
(0.00987671 -0.00306534 5.73613e-25)
(0.00989051 -0.00306522 -5.85885e-25)
(0.231739 -0.0763845 -1.91146e-21)
(0.30494 -0.102881 0)
(0.363348 -0.125351 1.22147e-21)
(0.401265 -0.141442 0)
(0.414696 -0.14925 0)
(0.402543 -0.147831 0)
(0.366975 -0.137443 5.24576e-22)
(0.312844 -0.119455 -3.80448e-22)
(0.246394 -0.0959249 1.64179e-22)
(0.173957 -0.0691224 -1.43367e-23)
(0.101023 -0.0410556 1.99253e-25)
(0.031688 -0.013435 -2.27986e-25)
(0.00984094 -0.00304982 2.91176e-22)
(0.00983641 -0.0030567 2.8801e-22)
(0.0414574 -0.0129422 0)
(0.0846791 -0.026785 2.21245e-21)
(0.148512 -0.0477481 6.24746e-22)
(0.084419 -0.0267239 -1.07366e-21)
(0.0412987 -0.0128958 1.04026e-24)
(0.00980666 -0.00304715 0)
(0.0098128 -0.00304346 2.86204e-22)
(0.230034 -0.0757909 -1.91345e-21)
(0.302682 -0.102047 -1.37284e-21)
(0.360636 -0.124291 2.11254e-24)
(0.39823 -0.140197 1.66611e-24)
(0.411502 -0.147883 0)
(0.399353 -0.146408 -4.96122e-22)
(0.363945 -0.13604 3.45559e-22)
(0.310079 -0.11814 0)
(0.244003 -0.0947745 1.20129e-23)
(0.172025 -0.0682045 0)
(0.0996713 -0.040447 -5.30607e-25)
(0.0311549 -0.0132253 -2.07218e-24)
(0.00977385 -0.00303014 2.79556e-22)
(0.00975966 -0.00303339 2.76153e-22)
(0.0411644 -0.0128495 -1.04209e-21)
(0.0840714 -0.0265892 4.07391e-24)
(0.147456 -0.0474002 2.8534e-21)
(0.0838094 -0.0265326 -1.02604e-21)
(0.0410113 -0.0127994 0)
(0.00972846 -0.00302341 5.24432e-25)
(0.00973647 -0.00301958 2.73299e-22)
(0.228386 -0.0752128 0)
(0.300501 -0.101222 0)
(0.358001 -0.123235 -1.6142e-24)
(0.395271 -0.138957 8.68444e-22)
(0.408371 -0.146511 0)
(0.39621 -0.144969 0)
(0.360925 -0.134607 0)
(0.307305 -0.116792 1.77813e-26)
(0.241567 -0.0935865 0)
(0.17004 -0.0672577 0)
(0.0982638 -0.0398302 3.31751e-25)
(0.0306225 -0.0130096 -1.21483e-21)
(0.00970384 -0.00300927 2.66581e-22)
(0.00969995 -0.00301331 2.64013e-22)
(0.0408722 -0.0127572 2.4875e-22)
(0.083481 -0.0264026 0)
(0.146433 -0.047071 -5.61504e-22)
(0.0832334 -0.0263481 -9.7242e-22)
(0.0407202 -0.0127125 3.88043e-24)
(0.00966281 -0.00300071 0)
(0.00967532 -0.00299808 2.61821e-22)
(0.226806 -0.0746438 1.74204e-21)
(0.298393 -0.100396 0)
(0.355435 -0.122184 -9.35278e-22)
(0.392383 -0.13772 0)
(0.405301 -0.145128 0)
(0.393105 -0.143508 4.47491e-22)
(0.357918 -0.133144 6.81368e-26)
(0.304522 -0.11541 -1.77884e-26)
(0.239099 -0.0923625 2.36357e-22)
(0.16798 -0.0662762 5.92247e-22)
(0.0967947 -0.0392323 0)
(0.0302349 -0.0127116 1.55738e-21)
(0.00963677 -0.00298767 0)
(0.00963346 -0.00299267 2.68893e-25)
(0.0405846 -0.0126681 0)
(0.0829027 -0.0262265 9.44853e-25)
(0.145444 -0.0467683 -2.06411e-21)
(0.0826499 -0.0261827 9.24682e-22)
(0.0404404 -0.0126248 0)
(0.00959072 -0.00298057 2.46755e-22)
(0.00960464 -0.00297795 2.50486e-22)
(0.225302 -0.074061 -7.75772e-25)
(0.29634 -0.099571 0)
(0.352954 -0.121148 0)
(0.389571 -0.136479 0)
(0.402294 -0.143732 -4.40635e-22)
(0.390038 -0.142022 1.28949e-25)
(0.354927 -0.131646 -6.81568e-26)
(0.301714 -0.113983 -1.16967e-22)
(0.236562 -0.0910952 -4.94999e-22)
(0.165875 -0.0652876 0)
(0.0952249 -0.0385783 0)
(0.0306244 -0.0124502 0)
(0.0095685 -0.00296724 0)
(0.00956197 -0.00297107 2.41124e-22)
(0.0402994 -0.0125811 0)
(0.0823275 -0.0260922 9.15935e-22)
(0.144625 -0.0463256 1.01323e-24)
(0.0821098 -0.0261071 3.51414e-24)