/*--------------------------------*- C++ -*----------------------------------*\
| =========                 |                                                 |
| \\      /  F ield         | OpenFOAM: The Open Source CFD Toolbox           |
|  \\    /   O peration     | Version:  v1912                                 |
|   \\  /    A nd           | Website:  www.openfoam.com                      |
|    \\/     M anipulation  |                                                 |
\*---------------------------------------------------------------------------*/
FoamFile
{
    version     2.0;
    format      ascii;
    class       surfaceScalarField;
    location    "340";
    object      phi;
}
// * * * * * * * * * * * * * * * * * * * * * * * * * * * * * * * * * * * * * //

dimensions      [0 3 -1 0 0 0 0];
oriented        oriented;


internalField   nonuniform List<scalar> 
7354
(
-3.56087e-06
0.00134788
-1.32585e-05
0.00413383
-2.80254e-06
0.00135069
-3.38972e-05
0.00695191
-1.35373e-05
0.00414457
-3.83807e-06
0.00135454
-6.14121e-05
0.00968939
-3.35843e-05
0.00697196
-1.42213e-05
0.00415496
-2.78632e-06
0.00135734
-9.48851e-05
0.0121669
-6.04058e-05
0.00971622
-3.20453e-05
0.0069898
-1.15568e-05
0.00416375
-2.82258e-06
0.00136017
-0.000143402
0.0141825
-9.47171e-05
0.0122012
-5.59186e-05
0.0097401
-3.03888e-05
0.00700864
-1.15049e-05
0.00417244
-2.80958e-06
0.00136299
-0.000184778
0.0155129
-0.000136831
0.0142246
-9.17833e-05
0.0122371
-5.55236e-05
0.00976524
-2.59387e-05
0.00702308
-1.13477e-05
0.00418098
-1.81445e-06
0.00136481
-0.000236562
0.0160082
-0.000185933
0.015562
-0.000132792
0.0142656
-8.60694e-05
0.0122676
-4.57814e-05
0.00978509
-2.2766e-05
0.0070345
-9.36379e-06
0.00418853
-1.76548e-06
0.00136657
-0.000276597
0.0155688
-0.000230257
0.0160525
-0.000177244
0.0156065
-0.000120568
0.0143001
-7.12936e-05
0.0122931
-4.1533e-05
0.00980386
-1.97739e-05
0.00704492
-7.31317e-06
0.00419408
-1.66734e-06
0.00136824
-0.000314261
0.0142485
-0.000279089
0.0156176
-0.000218703
0.016094
-0.000150655
0.0156366
-9.95778e-05
0.0143284
-6.40197e-05
0.0123156
-3.72496e-05
0.00982134
-1.82754e-05
0.00705588
-6.44562e-06
0.00419886
-1.72511e-06
0.00136996
-0.000339545
0.0121645
-0.000321075
0.0142905
-0.000258728
0.0156577
-0.000186142
0.0161295
-0.000129965
0.015667
-8.27113e-05
0.0143471
-5.22983e-05
0.0123307
-2.77912e-05
0.00983085
-1.53233e-05
0.00706476
-6.96116e-06
0.0042041
-1.74375e-06
0.00137171
-0.000343437
0.00952705
-0.000351958
0.0121954
-0.000277098
0.0143089
-0.000206106
0.0156776
-0.00014818
0.0161477
-0.000104173
0.0156884
-6.92737e-05
0.0143641
-4.26303e-05
0.0123455
-2.73349e-05
0.00984287
-1.19772e-05
0.00706977
-4.36197e-06
0.00420672
-1.34484e-06
0.00137307
-0.000114265
0.00654862
-0.000193764
-0.000372551
0.00954765
-0.000286747
0.0122051
-0.000211489
0.0143143
-0.000159205
0.0156887
-0.000112665
0.0161562
-7.88392e-05
0.015698
-5.12287e-05
0.0143727
-3.56731e-05
0.0123538
-1.81772e-05
0.00984907
-1.20464e-05
0.00707746
-6.08115e-06
0.00421146
-7.1821e-07
0.00137379
0.00215297
-8.41662e-05
-0.000200856
0.0065541
-0.000177181
0.00211127
-0.000152055
-0.00025965
0.00952056
-0.000190719
0.0121843
-0.000150766
0.0143058
-0.000110047
0.015686
-8.71507e-05
0.0161645
-6.48621e-05
0.0157116
-4.53071e-05
0.0143823
-3.0792e-05
0.0123665
-2.27996e-05
0.00985983
-1.1566e-05
0.00708295
-4.84837e-06
0.0042156
-1.45306e-06
0.00137525
0.00137964
-2.49777e-05
0.00209361
-0.000183195
-0.00013013
0.00648426
-5.96753e-05
0.00206984
-0.000153412
0.00132156
-6.22359e-05
-3.1739e-05
-0.000141063
0.0094709
-0.000119085
0.0121526
-9.51093e-05
0.0142909
-7.90606e-05
0.015678
-6.23404e-05
0.016162
-4.58583e-05
0.0157122
-3.95072e-05
0.014391
-2.56787e-05
0.0123693
-1.72926e-05
0.00986556
-1.24266e-05
0.00709054
-5.62583e-06
0.00421977
-2.23218e-06
0.00137748
0.000431589
-9.70761e-06
0.00130436
-8.34204e-05
-8.25702e-05
0.00202154
-8.18299e-05
-4.57157e-05
0.00639971
-1.0793e-05
0.00199819
-3.63246e-05
0.00125986
-3.89295e-05
-6.99837e-05
-0.000417769
0.000390787
-3.52525e-05
-1.79187e-05
-6.77601e-05
0.00941958
-6.49914e-05
0.0121225
-6.19271e-05
0.0142738
-5.07266e-05
0.0156663
-4.3343e-05
0.0161595
-3.77508e-05
0.0157104
-3.19351e-05
0.0143973
-2.5134e-05
0.0123772
-2.17613e-05
0.00987489
-1.35244e-05
0.00709844
-7.68406e-06
0.00422522
-1.2141e-06
0.00137869
0.000252843
-1.5577e-06
0.000365321
-5.79543e-05
0.000344034
-6.12838e-05
0.00120701
-2.19468e-05
-7.03084e-06
0.00196966
-1.71811e-05
-1.64881e-05
0.0063489
-4.59056e-07
0.00196505
-6.18436e-06
0.00117669
-7.98227e-07
-5.20249e-06
-0.000321018
0.000302067
-1.99778e-05
-4.69678e-05
-0.000238891
0.000213405
-9.76545e-06
-3.96584e-06
-3.4963e-05
0.00938955
-3.85263e-05
0.0120991
-3.70173e-05
0.01426
-3.79694e-05
0.015661
-3.20159e-05
0.0161537
-3.35763e-05
0.0157121
-2.64288e-05
0.0143986
-2.87541e-05
0.0123842
-2.11301e-05
0.0098825
-1.55396e-05
0.00710629
-7.45039e-06
0.00423146
-2.88961e-06
0.00138158
7.47285e-05
0.000176133
-2.06821e-05
0.000155164
-4.03153e-05
0.000286808
-6.68684e-06
0.00028189
-2.11253e-06
0.00116097
-1.78883e-06
3.30355e-07
0.00195201
-3.44609e-06
-6.84957e-06
0.00631676
4.02594e-06
0.00195258
-1.03092e-06
0.00115478
1.05012e-06
-1.04519e-06
-0.000277188
0.000276794
-4.03134e-07
-5.00075e-07
-0.000108197
8.82189e-05
-7.07627e-05
6.09974e-05
-1.45744e-05
0.00936561
-2.34946e-05
0.0120856
-2.47364e-05
0.0142468
-2.24634e-05
0.0156514
-2.92753e-05
0.0161494
-2.59405e-05
0.0157116
-3.70161e-05
0.0144068
-3.37634e-05
0.0123968
-2.72336e-05
0.00989419
-1.86099e-05
0.00711745
-1.03628e-05
0.00423893
-1.96099e-06
0.00138355
4.03153e-05
8.15322e-05
7.94198e-05
0.000275046
-4.05438e-08
0.000275509
-1.32952e-07
0.00115135
-4.98977e-07
4.80796e-07
0.00194643
-6.97259e-07
-4.20115e-06
0.00630272
3.67377e-06
0.00194957
8.88003e-07
0.00115004
2.58914e-07
2.65097e-08
-0.000274317
0.000275164
2.03622e-07
1.46361e-07
-7.89197e-05
7.85168e-05
-6.16482e-06
0.00934828
-6.73972e-06
0.0120676
-1.2523e-05
0.0142369
-2.00856e-05
0.0156422
-2.54378e-05
0.0161489
-3.70732e-05
0.0157116
-3.42806e-05
0.0144074
-3.68621e-05
0.0124064
-3.09474e-05
0.00990653
-2.03059e-05
0.0071274
-1.07733e-05
0.00424775
-2.66014e-06
0.00138622
7.84762e-05
7.83433e-05
0.00027489
-2.25e-07
0.000275182
1.89855e-07
0.00114902
-8.62933e-08
4.00797e-07
0.00194544
-6.68806e-08
-8.95545e-07
0.00629556
1.89346e-06
0.0019485
6.04053e-07
0.0011498
-1.60448e-07
2.73113e-07
-0.000275072
0.000275265
6.5774e-08
1.37308e-07
-7.84896e-05
7.86933e-05
-1.48337e-07
0.00934169
-6.39467e-06
0.0120615
-1.08539e-05
0.0142277
-1.48409e-05
0.0156316
-2.7825e-05
0.0161397
-4.11843e-05
0.0157186
-5.0836e-05
0.0144213
-4.38701e-05
0.0124194
-3.66594e-05
0.00992289
-2.57274e-05
0.00714236
-1.12272e-05
0.00425633
-3.42595e-06
0.00138965
7.84685e-05
7.86584e-05
0.000275168
1.1327e-08
0.00027549
7.81482e-08
0.00114919
2.13738e-07
3.31761e-07
0.00194774
-1.32634e-07
6.3025e-07
0.0062928
1.98122e-06
0.00194826
1.37042e-06
0.0011498
1.39761e-07
-1.46493e-07
-0.000275807
0.000275612
3.45321e-08
-4.33322e-08
-7.87958e-05
7.88617e-05
-3.30664e-07
0.00933562
4.09523e-07
0.0120502
-6.26032e-06
0.0142191
-2.54514e-05
0.0156293
-3.8898e-05
0.0161374
-4.9935e-05
0.0157177
-5.86257e-05
0.0144361
-5.77781e-05
0.0124405
-4.66469e-05
0.00994381
-2.72096e-05
0.00715835
-1.12807e-05
0.00426419
-2.36284e-06
0.00139202
7.8873e-05
7.89511e-05
0.000275874
-4.80317e-08
0.000276083
1.23026e-07
0.00114894
3.34167e-07
3.90235e-07
0.00194865
2.4935e-07
4.90613e-07
0.00629008
1.90291e-06
0.00194918
1.44903e-06
0.00115038
2.52488e-07
-3.17826e-07
-0.000275777
0.000275959
-4.25099e-08
1.59858e-07
-7.89078e-05
7.89423e-05
5.51494e-06
0.00933053
6.58062e-07
0.0120433
-1.01527e-05
0.0142038
-2.474e-05
0.0156151
-4.95682e-05
0.016137
-6.68625e-05
0.0157259
-7.22942e-05
0.0144506
-6.79196e-05
0.0124618
-4.96258e-05
0.00996623
-2.96557e-05
0.00717673
-1.42948e-05
0.00427612
-3.07794e-06
0.0013951
7.88944e-05
7.90175e-05
0.000276279
1.40449e-08
0.000276808
-1.38811e-07
0.00115067
-3.08865e-07
2.71227e-07
0.00194875
9.20308e-07
2.02372e-06
0.00629109
2.48167e-06
0.00195036
2.93146e-07
0.00115159
1.95386e-07
3.30763e-07
-0.000276347
0.000276559
4.00762e-08
1.43207e-07
-7.91773e-05
7.91349e-05
2.26923e-06
0.00932891
-2.69508e-06
0.0120358
-1.94393e-05
0.0141985
-4.27297e-05
0.0156083
-6.96054e-05
0.0161398
-9.10595e-05
0.0157447
-9.60854e-05
0.0144788
-7.91639e-05
0.0124913
-5.44594e-05
0.00999104
-3.0115e-05
0.00719255
-1.22422e-05
0.00428529
-3.39643e-06
0.00139849
7.91489e-05
7.901e-05
0.000276321
-6.96239e-08
0.000276493
9.93714e-08
0.00115234
-1.5508e-07
3.22785e-07
0.00195109
1.2977e-06
1.99788e-06
0.00629098
3.76416e-07
0.00195242
1.15067e-06
0.0011522
2.5954e-07
1.81032e-07
-0.000276664
0.000277104
-2.44726e-07
1.60355e-07
-7.91532e-05
7.91933e-05
2.13319e-06
0.00932409
-5.92697e-06
0.0120223
-2.30399e-05
0.0141788
-5.8653e-05
0.0155973
-9.06243e-05
0.0161393
-0.000111023
0.0157596
-0.000106563
0.0145062
-8.61395e-05
0.012523
-5.93531e-05
0.0100203
-3.2807e-05
0.00721312
-1.35576e-05
0.00429545
-2.85994e-06
0.00140135
7.91238e-05
7.92233e-05
0.000276948
1.18051e-09
0.000277126
1.44794e-07
0.00115344
-2.74278e-07
3.29202e-07
0.0019542
2.1409e-07
1.95861e-06
0.00628919
1.96404e-06
0.00195323
1.35178e-06
0.0011546
-2.8626e-07
2.76661e-07
-0.000277213
0.000277443
2.92922e-08
9.39441e-08
-7.93837e-05
7.91391e-05
-1.94983e-07
0.00931835
-1.33437e-05
0.0120126
-4.5472e-05
0.0141656
-8.77135e-05
0.0155944
-0.000128097
0.0161564
-0.00013801
0.015791
-0.000128926
0.014549
-9.53133e-05
0.012559
-5.89831e-05
0.0100465
-3.19544e-05
0.00723151
-1.14474e-05
0.00430403
-1.94577e-06
0.00140328
7.91403e-05
7.9285e-05
0.000277161
8.21987e-09
0.000277383
1.0845e-07
0.00115414
3.26404e-07
3.52556e-07
0.00195432
8.68825e-07
1.87819e-06
0.00628664
4.80696e-07
0.00195588
3.99912e-07
0.0011555
-1.76696e-07
1.61277e-07
-0.000277556
0.000277534
-2.64182e-07
1.03991e-07
-7.9379e-05
7.94083e-05
-2.44091e-06
0.00930746
-2.39674e-05
0.0119911
-6.98466e-05
0.0141477
-0.000126231
0.0155925
-0.000162789
0.0161812
-0.000170178
0.0158323
-0.000135678
0.0145893
-9.82709e-05
0.0125982
-6.07047e-05
0.0100752
-2.84918e-05
0.00724855
-1.09856e-05
0.00431306
-1.801e-06
0.00140508
7.94166e-05
7.95252e-05
0.000277832
2.80115e-08
0.00027801
1.74991e-07
0.00115585
3.45919e-07
1.7325e-07
0.00195661
1.15023e-06
1.95427e-06
0.00628169
5.53933e-07
0.00195671
3.83387e-07
0.0011563
1.59949e-07
-2.04181e-07
-0.00027811
0.000277901
3.16234e-08
6.07432e-08
-7.96292e-05
7.93651e-05
-8.53096e-06
0.00929202
-4.5219e-05
0.0119665
-0.000109428
0.0141309
-0.000170436
0.0156002
-0.000205077
0.0162161
-0.000182785
0.0158794
-0.000142588
0.0146336
-9.58937e-05
0.0126334
-5.14706e-05
0.0100982
-2.41058e-05
0.00726166
-8.77697e-06
0.00432003
-1.455e-06
0.00140652
7.93931e-05
7.9568e-05
0.000278184
6.36539e-08
0.0002783
5.71555e-08
0.00115681
3.35092e-07
3.04935e-07
0.00195767
9.90394e-07
1.93649e-06
0.00627204
-8.12821e-07
0.00195784
3.85696e-07
0.00115726
2.64472e-07
-3.35914e-07
-0.00027801
0.000278412
-2.42049e-07
8.67502e-08
-7.96288e-05
7.96604e-05
-1.77853e-05
0.00926459
-7.66896e-05
0.0119338
-0.000161553
0.0141221
-0.000228618
0.0156237
-0.000230228
0.0162635
-0.000196539
0.0159334
-0.000142115
0.0146799
-8.59986e-05
0.012668
-4.67515e-05
0.0101208
-2.06622e-05
0.00727354
-5.8338e-06
0.0043244
-3.99743e-07
0.00140691
7.97241e-05
7.97813e-05
0.000278688
5.89295e-08
0.00027888
1.12675e-07
0.00115818
3.48928e-07
-2.78338e-07
0.00195851
1.26971e-06
2.03382e-06
0.00625475
-2.5246e-06
0.00195759
1.02801e-07
0.00115808
1.53172e-07
3.35985e-07
-0.000278458
0.000278748
-2.56071e-08
8.51229e-08
-7.98681e-05
7.96261e-05
-3.84807e-05
0.00922638
-0.000130431
0.0119026
-0.000234548
0.014128
-0.000275434
0.0156689
-0.00024866
0.0163156
-0.000187766
0.015979
-0.000126221
0.0147201
-7.31677e-05
0.0126944
-3.87688e-05
0.0101389
-1.70785e-05
0.00728478
-3.47675e-06
0.00432747
-2.41969e-07
0.00140715
7.96849e-05
7.97975e-05
0.000279028
6.99279e-08
0.00027863
1.20209e-07
0.00115917
3.0956e-07
-1.29195e-07
0.0019593
3.25373e-07
2.04046e-06
0.00622261
-8.38293e-06
0.00195659
1.8712e-07
0.00115929
-1.48695e-07
1.32795e-07
-0.00027911
0.000279195
6.8825e-08
-1.43895e-07
-7.98826e-05
7.9857e-05
-7.69972e-05
0.00917295
-0.000205002
0.0118731
-0.000299081
0.0141516
-0.000296099
0.0157164
-0.000234404
0.0163623
-0.000168908
0.0160217
-0.000107285
0.0147542
-6.329e-05
0.0127189
-3.24601e-05
0.0101543
-9.9228e-06
0.00729122
-2.67189e-06
0.00432989
7.67423e-07
0.00140638
7.9927e-05
8.00473e-05
0.000279494
9.68957e-09
0.00027932
4.48171e-08
0.00115914
3.14586e-07
1.61801e-07
0.00195816
4.69582e-07
-8.35986e-07
0.00616533
-1.8877e-05
0.00195147
-1.69458e-06
0.00115929
-2.92235e-07
3.32135e-07
-0.000279336
0.00027918
7.8892e-09
1.16865e-07
-7.99034e-05
7.99724e-05
-0.000146466
0.00911441
-0.000312962
0.011887
-0.000341492
0.014197
-0.000284332
0.0157663
-0.000209156
0.0164025
-0.000141185
0.0160556
-8.72164e-05
0.0147781
-4.79631e-05
0.0127344
-1.99102e-05
0.0101643
-6.01321e-06
0.00729456
1.31617e-06
0.00432934
1.15762e-06
0.00140521
7.99821e-05
8.00269e-05
0.000279482
1.26671e-08
0.000279539
1.04874e-07
0.00115953
3.20619e-07
-9.79927e-08
0.00195221
-1.5725e-06
-1.06358e-05
0.00607578
-4.62835e-05
0.0019375
-4.16703e-06
0.0011578
-1.06467e-07
1.46598e-07
-0.000280004
0.000279653
5.96619e-08
-1.32134e-07
-8.01437e-05
8.01517e-05
-0.000277885
0.00907934
-0.000369784
0.0119153
-0.000318344
0.014231
-0.000237656
0.0157948
-0.000168998
0.0164303
-0.000107422
0.0160758
-6.40569e-05
0.0147942
-3.41211e-05
0.0127486
-1.1519e-05
0.0101698
-1.22413e-06
0.00729709
2.91314e-06
0.00432758
1.50856e-06
0.0014037
8.01645e-05
8.02695e-05
0.000279956
1.70654e-08
0.000279805
5.33577e-08
0.00115616
3.11598e-07
-2.49251e-07
0.00193415
-7.28934e-06
-5.41422e-05
0.00597413
-0.000122096
0.00190411
-1.62391e-05
0.00115192
-2.37141e-07
3.13522e-07
-0.000279832
0.000279918
-1.92877e-07
1.1964e-07
-8.01373e-05
8.01972e-05
-0.000386389
0.00909593
-0.000337093
0.011934
-0.000252584
0.014246
-0.000183066
0.0158089
-0.000123387
0.0164463
-8.00828e-05
0.0160918
-4.26442e-05
0.0148027
-1.74308e-05
0.0127545
-4.96702e-06
0.0101735
2.87727e-06
0.00729713
3.45156e-06
0.00432563
2.81399e-06
0.00140088
8.02142e-05
8.02675e-05
0.000280215
1.45846e-08
0.000279861
1.04903e-07
0.00114483
3.71447e-07
-5.67762e-07
0.00187976
-2.97939e-05
-0.000171269
0.00596887
-0.000209865
0.00182125
-6.35851e-05
0.00113002
-1.55693e-06
1.20907e-07
-0.00028011
0.000279803
6.94649e-08
6.49741e-08
-8.03871e-05
8.01942e-05
-0.000334033
0.00909288
-0.000238878
0.0119203
-0.000174864
0.0142378
-0.0001288
0.0158143
-8.85133e-05
0.0164547
-5.58348e-05
0.016105
-2.97162e-05
0.014815
-1.08241e-05
0.0127604
3.65732e-06
0.0101727
6.40313e-06
0.00729417
7.06341e-06
0.00432138
3.37563e-06
0.00139751
8.02089e-05
8.03138e-05
0.000280121
5.30039e-08
0.000279666
-1.12919e-07
0.00110431
-4.30359e-07
-3.64702e-06
0.00178391
-0.000133934
-0.000180502
0.00591332
-9.7978e-05
0.00175196
-0.000177912
0.00105359
-1.09026e-05
-1.96569e-06
-0.000279616
0.000278305
-2.46801e-07
1.71094e-07
-8.03788e-05
8.04483e-05
-0.000182833
0.00903682
-0.000146731
0.0118922
-0.000116381
0.0142253
-8.39106e-05
0.0158097
-5.72982e-05
0.0164562
-3.17094e-05
0.016107
-1.3923e-05
0.0148181
-3.27554e-07
0.0127643
7.80129e-06
0.0101713
1.28754e-05
0.00728836
9.98735e-06
0.00431477
3.794e-06
0.00139371
8.05012e-05
8.03882e-05
0.000278083
-2.08612e-07
0.000274658
-2.21291e-07
0.00097234
-1.45757e-05
-3.81107e-05
0.00170731
-0.000135857
-6.22064e-05
0.00581054
-1.78513e-05
0.00166711
-5.77791e-05
0.000924894
-6.65353e-05
-6.39319e-05
-0.000273283
0.000264192
-1.81259e-06
-5.90471e-07
-8.05593e-05
8.03124e-05
-8.52204e-05
0.00897532
-8.11319e-05
0.0118569
-6.89982e-05
0.0142104
-5.20888e-05
0.0158045
-3.35355e-05
0.016458
-1.52277e-05
0.0161083
-5.64427e-07
0.0148183
1.19448e-05
0.0127602
1.57944e-05
0.0101684
1.44677e-05
0.00728388
9.50711e-06
0.00430906
4.81719e-06
0.00138889
8.01038e-05
7.98825e-05
0.000253686
-4.06949e-06
0.000225788
-1.02129e-05
0.000857821
-4.90554e-05
-1.97295e-05
0.00162793
-2.30315e-05
-1.83248e-05
0.00574349
1.54588e-07
0.00161726
-7.17901e-06
0.000808141
-1.35368e-06
-6.74693e-06
-0.000184394
0.000158516
-4.06578e-05
-2.25388e-05
-7.9292e-05
7.74794e-05
-4.03274e-05
0.00893451
-4.27979e-05
0.0118307
-3.80862e-05
0.0141964
-2.89689e-05
0.0157999
-1.58128e-05
0.0164586
-2.89872e-06
0.0161106
1.29295e-05
0.0148174
1.5834e-05
0.0127602
2.06488e-05
0.0101622
1.75295e-05
0.00727586
1.35935e-05
0.00430028
5.06869e-06
0.00138382
7.34097e-05
6.31967e-05
0.000109461
8.97311e-05
0.000785812
-7.29992e-07
2.60019e-08
0.00160258
-3.64833e-06
-7.24264e-06
0.0057071
3.29689e-06
0.00160309
-3.54726e-07
0.000778623
2.82787e-07
-2.73541e-07
-8.29841e-05
8.16302e-05
-4.06578e-05
-1.79418e-05
0.00890966
-2.16628e-05
0.0118143
-1.83586e-05
0.0141858
-7.3543e-06
0.0157914
4.93444e-07
0.0164552
1.2727e-05
0.0161108
1.58588e-05
0.0148173
2.5285e-05
0.0127555
2.48804e-05
0.0101549
2.31854e-05
0.00726627
1.56727e-05
0.00428967
5.88258e-06
0.00137794
8.09001e-05
8.09259e-05
0.000774898
-4.22174e-08
1.19232e-07
0.00159685
-1.00234e-06
-4.34764e-06
0.00568962
3.88583e-06
0.00159902
1.12515e-06
0.000774482
1.14707e-07
-5.47468e-08
-8.06523e-05
8.09349e-05
-4.49931e-06
0.00889249
-8.24484e-06
0.0118042
-3.48013e-06
0.0141819
3.47174e-06
0.0157885
1.41702e-05
0.0164538
1.99088e-05
0.0161068
3.17854e-05
0.0148108
3.25706e-05
0.0127478
3.24676e-05
0.0101456
2.77676e-05
0.00725417
1.74219e-05
0.00427813
6.81213e-06
0.00137113
8.08927e-05
8.1012e-05
0.000773214
1.02414e-07
1.61192e-07
0.00159458
9.615e-08
-2.08564e-06
0.00568374
3.46772e-06
0.00159838
8.08914e-08
0.000774261
1.91069e-07
-1.12346e-07
-8.09572e-05
8.10717e-05
-2.13222e-07
0.00888447
2.25996e-06
0.0117985
5.51434e-06
0.0141799
1.18319e-05
0.0157908
2.39529e-05
0.0164497
3.06434e-05
0.0161079
3.19303e-05
0.0148115
3.61903e-05
0.0127441
3.49226e-05
0.0101385
3.11639e-05
0.00724043
2.07109e-05
0.00426423
7.803e-06
0.00136332
8.1174e-05
8.1335e-05
0.000774195
8.81305e-08
7.34347e-08
0.00159593
3.6175e-07
-9.59893e-07
0.00568174
2.7502e-06
0.00159852
8.74476e-07
0.000774389
3.19771e-08
-1.44744e-07
-8.12227e-05
8.14135e-05
2.7273e-06
0.00888399
8.90345e-06
0.0117951
1.57438e-05
0.014176
2.31608e-05
0.0157916
2.70608e-05
0.0164533
4.05296e-05
0.0160993
4.62834e-05
0.0148014
4.8418e-05
0.0127306
4.27817e-05
0.0101268
3.59741e-05
0.00722517
2.31618e-05
0.00424887
8.77533e-06
0.00135454
8.15018e-05
8.15753e-05
0.000774631
5.93561e-08
5.84148e-08
0.00159773
-1.69176e-07
6.7746e-08
0.00568161
2.78522e-06
0.00159958
8.98399e-07
0.000775577
4.62877e-08
-1.1866e-07
-8.14305e-05
8.14624e-05
7.18905e-06
0.00888572
1.39653e-05
0.0117969
1.83057e-05
0.0141809
3.21853e-05
0.0157865
4.21442e-05
0.0164517
4.70132e-05
0.0160986
4.96076e-05
0.0148002
5.36714e-05
0.0127197
5.07314e-05
0.0101121
4.13929e-05
0.00720694
2.6965e-05
0.00423068
9.65716e-06
0.00134489
8.15216e-05
8.15799e-05
0.000775275
6.44838e-08
6.84537e-08
0.00159899
6.61638e-07
1.57941e-07
0.00568576
2.88053e-06
0.00160116
6.07728e-07
0.000776145
-5.89885e-08
8.67869e-08
-8.14612e-05
8.15073e-05
8.48743e-06
0.00889119
1.53979e-05
0.0117998
2.78604e-05
0.0141852
3.53609e-05
0.0157933
4.41442e-05
0.0164546
5.44344e-05
0.0160938
6.17588e-05
0.0147921
6.07532e-05
0.0127097
5.83432e-05
0.0100951
4.52773e-05
0.00718862
3.006e-05
0.00421028
1.09985e-05
0.00133389
8.15719e-05
8.16404e-05
0.000776663
6.70148e-08
7.44595e-08
0.00160063
6.9571e-07
1.34854e-06
0.00568985
3.05321e-06
0.00160286
6.43367e-07
0.000777159
5.08383e-08
6.05545e-08
-8.17271e-05
8.1668e-05
1.04576e-05
0.00889614
1.98531e-05
0.0118078
2.90078e-05
0.0141915
4.19265e-05
0.0157955
5.52478e-05
0.0164538
6.28342e-05
0.0160927
7.10836e-05
0.0147818
7.02507e-05
0.0126978
6.59681e-05
0.0100744
5.40685e-05
0.00716461
3.25702e-05
0.00418871
1.19091e-05
0.00132198
8.17348e-05
8.18091e-05
0.00077792
-1.16749e-07
5.21569e-08
0.00160348
7.31795e-07
3.95619e-07
0.00569685
3.05312e-06
0.00160573
7.98506e-07
0.000778449
5.51869e-08
5.83309e-08
-8.18697e-05
8.19203e-05
1.17134e-05
0.00890428
2.18343e-05
0.0118149
3.52863e-05
0.0141982
4.67452e-05
0.015804
6.1718e-05
0.0164549
7.23526e-05
0.0160914
7.78702e-05
0.0147742
8.43647e-05
0.0126794
7.55787e-05
0.0100529
6.05962e-05
0.00713659
3.78956e-05
0.00416272
1.22094e-05
0.00130977
8.18036e-05
8.18558e-05
0.000778983
6.90888e-08
1.26764e-07
0.00160536
7.65641e-07
1.48472e-06
0.00570398
3.10198e-06
0.00160767
7.42164e-07
0.00077977
9.28215e-08
-8.16197e-08
-8.19142e-05
8.19692e-05
1.17559e-05
0.00891437
2.44248e-05
0.0118258
4.14103e-05
0.0142035
5.88194e-05
0.0158069
7.21063e-05
0.0164551
8.5778e-05
0.0160835
9.35996e-05
0.0147649
9.29962e-05
0.012662
8.62061e-05
0.0100273
6.64257e-05
0.00710806
4.03787e-05
0.00413455
1.0636e-05
0.00129913
8.20381e-05
8.21648e-05
0.00078039
7.32692e-08
7.28427e-08
0.00160838
7.7652e-07
3.25554e-07
0.00571268
2.73703e-06
0.00161072
7.54119e-07
0.000781196
4.83494e-08
-1.12773e-07
-8.20831e-05
8.21758e-05
1.30743e-05
0.00892571
2.84195e-05
0.0118388
4.60161e-05
0.0142163
6.52255e-05
0.0158138
8.09142e-05
0.01646
9.40645e-05
0.0160831
0.000105721
0.0147522
0.000101875
0.0126463
9.53779e-05
0.00999837
7.5627e-05
0.00707281
4.31554e-05
0.00410203
1.32505e-05
0.00128588
8.22492e-05
8.23221e-05
0.000781832
6.89458e-08
6.98187e-08
0.00161038
6.71566e-07
8.58835e-07
0.00572378
1.11714e-06
0.00161266
4.5709e-07
0.000782642
-1.13004e-07
5.80152e-08
-8.22093e-05
8.22575e-05
1.61991e-05
0.00893794
3.29037e-05
0.0118519
5.53136e-05
0.0142262
7.16507e-05
0.015823
9.25605e-05
0.0164615
0.000108027
0.0160808
0.000117285
0.0147368
0.000120259
0.0126214
0.000107029
0.00996697
8.15672e-05
0.0070344
4.37554e-05
0.00407153
3.17726e-05
0.00125411
8.23263e-05
8.2396e-05
0.00078317
6.40388e-08
7.8923e-08
0.00161366
-1.40057e-07
2.03207e-06
0.00573538
2.56305e-06
0.00161659
-1.81873e-06
0.000783429
1.1189e-07
8.69576e-08
-8.24541e-05
8.23409e-05
1.99164e-05
0.00895093
3.96724e-05
0.0118676
5.89649e-05
0.0142389
8.29018e-05
0.0158327
0.000105873
0.0164637
0.000123882
0.0160742
0.000133028
0.014724
0.00012897
0.0125995
0.000116425
0.00993211
8.6994e-05
0.00699116
7.44289e-05
0.00402887
7.39946e-05
8.24051e-05
8.24841e-05
0.000783383
3.41443e-08
-1.29183e-07
0.00162216
-3.52893e-06
4.14358e-06
0.00574572
5.44117e-06
0.0016197
6.50425e-06
-1.48945e-06
0.000781564
9.66959e-09
-8.25545e-09
-8.25711e-05
8.26829e-05
2.43776e-05
0.00896623
4.17426e-05
0.0118848
6.68904e-05
0.0142549
9.21785e-05
0.0158464
0.000115747
0.0164718
0.00013512
0.0160721
0.000147036
0.014706
0.000148262
0.0125677
0.00013017
0.00988893
0.000115121
0.00695047
0.000136013
8.2717e-05
8.25878e-05
0.000461177
-1.00865e-08
-2.48664e-07
0.000317119
0.00162242
-5.66401e-07
1.99093e-06
5.21814e-06
0.00575942
5.45811e-06
0.00162415
1.39786e-06
2.31714e-06
0.000486416
-1.87334e-05
0.0004918
-6.87296e-06
-8.25796e-05
8.25894e-05
2.40652e-05
0.0089839
4.88137e-05
0.0119029
7.50604e-05
0.0142721
0.000107958
0.0158542
0.000135651
0.0164713
0.000155135
0.016064
0.000165517
0.0146887
0.000162377
0.0125355
0.000155355
0.0098487
0.00017946
8.25796e-05
8.23312e-05
0.000295317
3.06867e-06
0.000493619
-2.38607e-06
0.000496321
-7.10742e-07
0.00162627
1.25183e-06
1.84937e-06
4.38039e-06
0.00577482
4.29332e-06
0.00162954
7.70795e-07
1.41129e-06
0.000497163
5.56634e-07
0.00049827
1.20979e-06
0.000289811
-1.3658e-06
2.74256e-05
0.0090053
5.34743e-05
0.0119245
8.57985e-05
0.0142942
0.000117337
0.0158725
0.000146054
0.0164803
0.000171821
0.0160577
0.000178178
0.0146729
0.000187461
0.0125033
0.000211154
8.54001e-05
0.000288489
-1.06464e-06
0.00028815
-3.71347e-07
0.000498867
6.54375e-07
0.00049992
7.9648e-07
0.00163197
6.14612e-07
1.33888e-06
5.60227e-06
0.00579189
4.75307e-06
0.00163457
6.47787e-07
1.04302e-06
0.000500466
2.25484e-07
0.000501081
7.95795e-07
0.000288653
5.394e-08
0.00028977
9.30735e-08
8.40343e-05
3.0216e-05
0.00902855
6.18298e-05
0.0119484
9.73627e-05
0.0143142
0.000134917
0.0158836
0.000166097
0.0164861
0.000183514
0.0160523
0.000208401
0.014652
0.000229542
8.29698e-05
8.25985e-05
0.00029016
2.64058e-07
0.000290707
2.49556e-07
0.000501042
6.53923e-07
0.000502165
2.15724e-07
0.00163828
7.5063e-07
1.14431e-06
6.09358e-06
0.00581079
5.22352e-06
0.00164114
7.3564e-07
1.15723e-06
0.000502406
4.07001e-07
0.000502913
5.36482e-07
0.000290744
1.8807e-07
0.000291378
1.6222e-07
8.26525e-05
8.27455e-05
3.62695e-05
0.00905412
6.83571e-05
0.0119774
0.000109845
0.0143393
0.000148206
0.0159015
0.000176588
0.016493
0.000211977
0.0160488
0.000235136
8.30096e-05
8.32592e-05
0.000291874
1.58122e-07
0.000292135
-4.47908e-08
0.000503341
3.22922e-07
0.000504032
4.5275e-07
0.00164517
8.34657e-07
1.23423e-06
5.73336e-06
0.0058354
5.92698e-06
0.00164838
8.15545e-07
1.19481e-06
0.000504303
4.6575e-07
0.000505249
2.11009e-07
0.000292424
1.17589e-07
0.000292846
1.15344e-07
8.34474e-05
8.36096e-05
3.9015e-05
0.00908346
8.08503e-05
0.0120064
0.00012494
0.0143625
0.000161618
0.0159165
0.000200522
0.0165044
0.000224211
8.37678e-05
8.37231e-05
0.000293047
1.21717e-07
0.000293371
1.29579e-07
0.000505306
7.77646e-07
0.000506038
5.02475e-07
0.00165168
9.16762e-07
1.52293e-06
7.55318e-06
0.00586032
6.5406e-06
0.00165554
7.32396e-07
1.3264e-06
0.000506773
8.10304e-08
0.000507364
6.03916e-07
0.000293876
-3.98186e-08
0.000293951
1.36963e-07
8.38408e-05
8.39561e-05
4.67772e-05
0.00911754
9.1506e-05
0.0120399
0.000134832
0.0143893
0.000175884
0.0159411
0.000199407
8.40779e-05
8.42076e-05
0.000294542
1.86194e-07
0.000294895
1.49741e-07
0.000507505
7.76261e-07
0.000508884
1.4359e-07
0.00166033
1.09378e-06
1.6773e-06
8.9991e-06
0.00589033
7.76319e-06
0.00166441
9.32121e-07
1.52873e-06
0.000509112
5.05258e-07
0.000509763
6.74547e-07
0.000294853
1.23472e-07
0.000295518
-6.12677e-08
8.41679e-05
8.43048e-05
5.56879e-05
0.00915335
0.000107092
0.0120676
0.000146896
0.0144183
0.000160733
8.44911e-05
8.4641e-05
0.000296154
1.40437e-07
0.00029617
1.28408e-07
0.000510392
4.64796e-07
0.00051146
6.09527e-07
0.0016702
1.3052e-06
1.90209e-06
1.00917e-05
0.00592603
9.90098e-06
0.00167507
1.16531e-06
1.72469e-06
0.000511782
6.11171e-07
0.000512801
5.09395e-07
0.00029648
1.95375e-07
0.000297182
-2.72744e-08
8.47646e-05
8.47033e-05
7.02977e-05
0.00919016
0.000112198
0.0121023
0.000118032
8.48438e-05
8.49723e-05
0.000297493
1.53608e-07
0.000297938
1.65436e-07
0.000513251
8.55177e-07
0.000514422
7.30933e-07
0.00168147
2.11147e-06
1.58074e-06
1.3732e-05
0.00596796
1.46385e-05
0.00168804
1.93065e-06
1.39438e-06
0.000515271
3.16396e-07
0.000516031
9.64165e-07
0.000298374
1.74419e-07
0.000298706
1.7839e-07
8.51678e-05
8.51406e-05
8.21904e-05
0.00922016
7.42452e-05
8.52943e-05
8.54597e-05
0.000299335
2.25274e-07
0.000300038
2.85821e-08
0.000517197
9.45607e-07
0.000518366
4.11236e-07
0.00169677
2.5196e-06
2.4893e-06
1.92312e-05
0.00600756
2.33539e-05
0.00170507
2.88608e-06
3.44943e-06
0.000519489
8.07986e-07
0.000519845
1.03794e-06
0.000300172
1.81509e-07
0.000300948
1.88742e-07
8.56343e-05
8.58126e-05
4.46333e-05
8.60379e-05
8.60664e-05
0.000301686
2.07183e-07
0.000301892
2.05096e-07
0.000521279
1.08541e-06
0.000523134
6.34494e-07
0.00171606
4.09668e-06
4.14427e-06
4.2591e-05
1.57604e-05
0.00172699
4.93666e-06
7.4805e-06
0.000524791
1.22905e-06
0.000526298
1.94177e-06
0.000302671
2.94117e-08
0.000303511
1.97049e-07
8.6248e-05
8.64367e-05
8.66438e-05
8.68489e-05
0.00030437
2.26971e-07
0.000304762
2.42032e-07
0.000528666
1.72814e-06
0.00053054
2.27062e-06
0.0017447
1.00324e-05
1.48472e-05
2.14821e-05
8.90127e-06
0.000533
2.47607e-06
0.000536742
3.73726e-06
0.000305689
3.01887e-07
0.000307247
3.83689e-07
8.68782e-05
8.70752e-05
8.73021e-05
8.75441e-05
0.000308547
4.27771e-07
0.000310214
6.03647e-07
0.000539842
6.93182e-06
0.000544333
1.0355e-05
0.00055054
1.52745e-05
1.33817e-05
0.000312087
6.03201e-07
0.000314835
9.88574e-07
8.7846e-05
8.82297e-05
8.86574e-05
8.9261e-05
0.000319723
2.04323e-06
0.000325329
4.74835e-06
0.000330583
1.00193e-05
2.0604e-05
8.98642e-05
9.08526e-05
9.28955e-05
9.76435e-05
0.000107663
1.39186e-05
-1.39169e-05
-5.96833e-05
2.0283e-05
5.33232e-05
7.17459e-06
-2.10892e-05
-7.20992e-05
1.95937e-05
-0.000119006
2.71644e-05
0.00011213
1.64966e-05
3.68302e-05
3.55225e-06
-2.46394e-05
1.19929e-05
-8.05364e-05
-0.000129389
2.99801e-05
-2.32038e-05
-0.00041296
6.44841e-05
0.000398864
0.000105425
6.96018e-06
2.98733e-05
1.57412e-06
-2.62114e-05
1.88479e-05
-0.000136239
7.06471e-06
-8.60238e-05
6.78654e-05
-0.000431985
-4.19356e-05
-0.00144341
0.00139692
0.000152971
-1.49121e-05
0.000378697
-6.84453e-06
9.74741e-05
2.3995e-06
2.7477e-05
8.22375e-07
-2.70318e-05
1.46246e-05
-0.000143795
4.0909e-06
-8.92893e-05
-4.33919e-05
0.000162245
-0.00149436
-7.70383e-06
-0.000453044
-2.51754e-05
0.000110236
-1.18772e-05
-0.00201962
0.00196535
0.000207284
0.000359867
-4.44612e-06
-1.88817e-06
9.30305e-05
1.06792e-06
2.6412e-05
3.00816e-07
-2.7331e-05
-0.000147407
2.3057e-06
-9.12923e-05
0.000218702
-0.00207605
-3.13721e-05
0.000133078
-0.00157661
-1.94096e-05
-6.48116e-06
-0.000474353
-3.57308e-06
0.000182457
-1.46658e-06
-0.00234425
0.00228581
0.000265766
8.96534e-05
-4.91347e-07
8.82596e-05
2.59212e-05
3.43236e-07
-2.76734e-05
-0.000151582
1.61139e-06
-9.25581e-05
0.000278176
-0.0024037
0.000212343
-0.00215528
0.000118287
-0.00166052
-1.62854e-05
-1.80387e-05
-0.000487237
-2.59873e-06
-3.91943e-06
-0.000153542
0.000249453
-2.19795e-07
-0.00240673
0.00235308
0.000319455
3.01032e-07
-2.79726e-05
1.54385e-06
-9.37983e-05
0.000330966
-0.0024595
0.000283931
-0.00247526
0.000209331
-0.00224629
0.000125493
-0.00174659
-2.09238e-05
-1.84257e-05
0.000499516
-0.000509768
-1.65785e-06
-4.36624e-06
-2.99886e-06
-2.75948e-06
0.000155918
-1.28961e-06
-0.000157225
0.000307013
-0.00219029
0.002151
0.000358784
2.94889e-07
-2.82667e-05
-9.47928e-05
0.000367489
-0.00222679
0.00034131
-0.00251685
0.000290806
-0.00255671
0.000220925
-0.00234168
0.000149638
-0.00184267
-3.22018e-05
-2.1276e-05
0.000521229
-0.000534081
-8.05582e-06
-6.9604e-06
0.000160812
-0.000152462
-1.0005e-05
0.000160202
-3.75416e-06