/*--------------------------------*- C++ -*----------------------------------*\
| =========                 |                                                 |
| \\      /  F ield         | OpenFOAM: The Open Source CFD Toolbox           |
|  \\    /   O peration     | Version:  v1912                                 |
|   \\  /    A nd           | Website:  www.openfoam.com                      |
|    \\/     M anipulation  |                                                 |
\*---------------------------------------------------------------------------*/
FoamFile
{
    version     2.0;
    format      ascii;
    class       surfaceScalarField;
    location    "430";
    object      phi;
}
// * * * * * * * * * * * * * * * * * * * * * * * * * * * * * * * * * * * * * //

dimensions      [0 3 -1 0 0 0 0];
oriented        oriented;


internalField   nonuniform List<scalar> 
7191
(
-1.95301e-06
0.00132359
-9.07551e-06
0.00397466
-2.10548e-06
0.00132569
-2.41748e-05
0.00658572
-9.46137e-06
0.00398201
-2.10895e-06
0.0013278
-4.48198e-05
0.00906964
-2.40424e-05
0.0066003
-9.46463e-06
0.00398937
-1.99009e-06
0.00132979
-7.51012e-05
0.0113143
-4.80924e-05
0.00909369
-2.35638e-05
0.0066144
-9.33895e-06
0.00399672
-2.03254e-06
0.00133182
-0.000115892
0.0131824
-7.91381e-05
0.0113453
-4.53809e-05
0.0091155
-2.41804e-05
0.00662924
-9.72389e-06
0.00400441
-1.71608e-06
0.00133354
-0.000162363
0.0145461
-0.000119565
0.0132228
-7.90308e-05
0.011379
-4.63672e-05
0.00913769
-2.17583e-05
0.00664127
-8.08047e-06
0.00401077
-1.59237e-06
0.00133513
-0.000206886
0.0152921
-0.000165288
0.0145918
-0.000117911
0.0132617
-7.33451e-05
0.0114059
-4.14366e-05
0.00915737
-1.95597e-05
0.00665275
-7.26077e-06
0.00401644
-1.4889e-06
0.00133662
-0.000250021
0.0153541
-0.000215739
0.0153426
-0.000162626
0.0146366
-0.000112609
0.013301
-7.0743e-05
0.0114352
-3.77924e-05
0.0091756
-1.82218e-05
0.00666371
-6.63816e-06
0.00402159
-1.16288e-06
0.00133778
-0.00028046
0.0146922
-0.000258956
0.0153973
-0.000211841
0.0153918
-0.000156116
0.0146801
-0.00010108
0.0133313
-6.17636e-05
0.0114592
-3.35577e-05
0.00919094
-1.55267e-05
0.0066726
-4.56595e-06
0.00402499
-1.17722e-06
0.00133896
-0.000293178
0.0133447
-0.00030138
0.0147346
-0.000258883
0.0154443
-0.000198165
0.0154338
-0.000137238
0.0147162
-9.21793e-05
0.0133617
-5.43344e-05
0.01148
-2.99393e-05
0.00920535
-1.41728e-05
0.00668221
-5.19405e-06
0.00402901
-8.44508e-07
0.00133981
-0.000286408
0.0113964
-0.000332555
0.0133759
-0.000298166
0.0147739
-0.000237804
0.015484
-0.00017467
0.0154713
-0.000122739
0.0147468
-7.85512e-05
0.0133859
-4.75681e-05
0.0114976
-2.56634e-05
0.00921684
-1.08907e-05
0.00668791
-4.57296e-06
0.00403274
-7.50184e-07
0.00134056
-0.000246441
0.00897997
-0.000353004
0.0114168
-0.000327701
0.0134054
-0.00026429
0.0148004
-0.000201464
0.0155108
-0.000148713
0.0154972
-0.000102563
0.0147708
-6.58526e-05
0.0134042
-3.94998e-05
0.0115115
-2.14492e-05
0.0092274
-1.13739e-05
0.00669471
-4.16752e-06
0.00403616
-7.866e-07
0.00134134
0.00624843
-0.000110288
-5.04401e-05
-0.000358016
0.00898498
-0.000344366
0.0114335
-0.00027769
0.0134188
-0.000217136
0.0148161
-0.000166967
0.015529
-0.000119818
0.0155145
-8.43239e-05
0.0147893
-5.80312e-05
0.0134227
-3.63632e-05
0.0115264
-2.06485e-05
0.00923667
-1.02418e-05
0.00670078
-4.00685e-06
0.00403938
-7.71479e-07
0.00134211
0.00623406
-0.000201402
-0.000142242
-0.00212061
0.00207405
-6.37285e-05
-3.27394e-05
-0.00213831
-0.000350174
0.00899079
-0.000269624
0.0114254
-0.000211339
0.013413
-0.000167327
0.0148164
-0.00012978
0.015539
-0.000101382
0.0155316
-7.37138e-05
0.0148049
-4.78339e-05
0.0134342
-3.02836e-05
0.011536
-1.74257e-05
0.00924386
-8.68715e-06
0.00670546
-3.88484e-06
0.00404249
-8.39621e-07
0.00134295
0.00622003
-0.00014021
-0.000195933
-0.00204331
0.00201607
-0.000174162
-0.000111496
-0.0013979
0.00135462
-1.55298e-05
-4.91351e-06
-9.14519e-07
-0.00142307
-6.66018e-06
-2.01286e-05
-0.000228634
0.0089498
-0.000184076
0.0113982
-0.000154373
0.0134001
-0.00012896
0.0148156
-0.00010543
0.015543
-8.0807e-05
0.0155387
-5.75594e-05
0.0148147
-4.23816e-05
0.0134463
-2.7738e-05
0.0115463
-1.88133e-05
0.00925398
-1.02256e-05
0.0067118
-3.42858e-06
0.00404508
-1.08213e-06
0.00134404
0.00613372
-4.19628e-05
-0.000100361
-0.00199198
0.00196119
-0.000109423
-0.000171846
-0.00129985
0.00126578
-8.70437e-05
-5.30469e-05
-1.70066e-05
-3.97181e-05
-0.00043924
0.000429208
-5.49757e-06
-0.000441508
-2.6452e-06
0.000446409
-0.000446554
-7.69432e-07
-3.61201e-06
-6.21038e-08
-1.75948e-06
-0.000125419
0.00889114
-0.000117323
0.0113611
-0.000107744
0.0133788
-9.62433e-05
0.0148064
-8.0203e-05
0.0155424
-6.39553e-05
0.0155451
-5.21711e-05
0.0148245
-3.84618e-05
0.013457
-2.71179e-05
0.0115546
-1.71658e-05
0.00926092
-1.07645e-05
0.00671914
-4.9877e-06
0.00404898
-1.14303e-06
0.00134518
0.00605313
-8.25183e-06
-3.65806e-05
-0.00191536
0.00189774
-2.4348e-05
-5.45276e-05
-0.00123766
0.00118573
-1.70343e-05
-4.04675e-05
-8.00906e-05
-6.36348e-05
-0.000380155
0.000353116
-6.00045e-05
-0.00039997
-3.32322e-05
0.000421401
-9.1995e-06
-1.82876e-05
-0.000257723
0.000252988
-7.62913e-07
-0.000259954
-4.14062e-07
-0.000449102
-1.06437e-06
0.000261438
-0.000262145
-6.23345e-08
-1.94383e-08
-2.76104e-07
-6.71907e-05
0.00884101
-7.48423e-05
0.0113282
-7.63254e-05
0.0133589
-7.26026e-05
0.0147988
-6.50599e-05
0.0155435
-5.80577e-05
0.0155509
-4.68428e-05
0.0148328
-3.67723e-05
0.0134667
-2.91663e-05
0.0115666
-2.05567e-05
0.00927072
-1.06082e-05
0.00672476
-5.31161e-06
0.00405315
-1.21021e-06
0.00134639
0.00600192
-6.30963e-07
-1.53426e-05
-0.00187373
0.00187092
-5.44348e-06
-1.25629e-05
-0.00114419
0.00112316
-1.76095e-07
-3.1418e-06
-1.0413e-05
-2.57442e-06
-0.000289649
0.000278935
-6.31964e-06
-0.000311426
-1.86905e-05
0.000331508
-5.84818e-05
-4.35535e-05
-0.000207518
0.000168827
-2.13136e-05
-0.000231013
-9.73754e-06
0.000245516
-1.72664e-06
-3.78471e-06
-7.50243e-05
7.42614e-05
-7.54384e-05
-0.000263095
-1.14265e-07
7.57145e-05
-7.57768e-05
-4.50592e-08
-3.73384e-05
0.00880351
-4.90405e-05
0.0113009
-5.43735e-05
0.0133407
-5.47377e-05
0.0147885
-5.42236e-05
0.0155397
-4.90719e-05
0.0155532
-4.31937e-05
0.0148393
-3.80207e-05
0.0134755
-2.95375e-05
0.0115756
-2.03579e-05
0.00928047
-1.36274e-05
0.00673308
-6.15864e-06
0.0040581
-1.53434e-06
0.00134792
0.00597153
9.51603e-07
-7.9005e-06
-0.00185912
0.00185949
-1.00716e-06
-3.54178e-06
-0.00111159
0.00110623
5.50359e-07
-6.39073e-07
-1.20285e-06
2.1697e-07
-0.000266133
0.00026605
-9.30756e-08
-0.0002689
-3.7541e-07
0.000270802
-2.28053e-06
-6.72064e-07
-8.58003e-05
7.94807e-05
-0.000104491
0.000148044
-3.76989e-05
-5.90125e-05
3.76989e-05
-6.87501e-05
7.25348e-05
-7.58911e-05
-2.20761e-05
0.00877654
-3.35532e-05
0.0112801
-4.06828e-05
0.0133266
-4.67964e-05
0.0147811
-4.76897e-05
0.0155383
-4.67613e-05
0.0155567
-4.59273e-05
0.0148472
-4.06587e-05
0.0134867
-3.26008e-05
0.0115879
-2.51097e-05
0.00929195
-1.51199e-05
0.00674204
-6.92684e-06
0.00406349
-1.57252e-06
0.0013495
0.00595281
1.64729e-06
-5.00868e-06
-0.00185301
0.00185459
-6.29148e-07
-1.41893e-06
-0.0011028
0.00110171
4.03506e-07
-3.23594e-07
-3.34739e-07
2.24635e-07
-0.000264517
0.000265008
5.93747e-08
-0.000265213
5.65956e-08
0.000265021
-1.73307e-07
2.46605e-08
-7.61527e-05
7.60596e-05
-7.65281e-05
7.72002e-05
-1.40582e-05
0.00875705
-2.49634e-05
0.0112644
-3.20699e-05
0.0133119
-3.78408e-05
0.0147712
-4.44818e-05
0.015536
-4.77382e-05
0.0155585
-4.93401e-05
0.0148559
-4.53707e-05
0.0134994
-3.93812e-05
0.0116021
-2.85365e-05
0.00930537
-1.7011e-05
0.00675212
-7.77414e-06
0.0040697
-1.93591e-06
0.00135143
0.00594095
9.60982e-07
-3.15431e-06
-0.00185024
0.00185192
-3.25618e-08
-6.59356e-07
-0.00110033
0.0010996
2.63592e-07
-1.6191e-07
-1.88755e-07
1.51811e-07
-0.000264525
0.000264895
3.30036e-08
-0.000264929
8.06738e-08
0.00026476
-8.63937e-08
5.5713e-08
-7.59676e-05
7.6027e-05
-7.5911e-05
7.58863e-05
-1.01928e-05
0.00874228
-1.72999e-05
0.0112496
-2.75062e-05
0.0133016
-3.55904e-05
0.0147623
-4.38296e-05
0.0155321
-5.3463e-05
0.0155627
-5.57778e-05
0.0148663
-5.42548e-05
0.0135143
-4.52319e-05
0.0116188
-3.40198e-05
0.00932237
-2.04324e-05
0.00676478
-9.34303e-06
0.0040771
-2.03642e-06
0.00135347
0.00593189
7.35519e-07
-1.86884e-06
-0.00184932
0.00185006
2.22279e-07
-5.48006e-07
-0.00109905
0.00109886
2.52854e-07
-9.61202e-08
-1.52448e-07
4.67853e-08
-0.000264667
0.00026492
1.05721e-08
-0.000264894
6.57413e-08
0.000264775
-6.86124e-08
3.26729e-08
-7.60769e-05
7.61099e-05
-7.59963e-05
7.59406e-05
-7.09348e-06
0.00873207
-1.43234e-05
0.0112364
-2.50253e-05
0.013291
-3.63886e-05
0.0147549
-4.92597e-05
0.0155279
-5.91445e-05
0.015566
-6.5891e-05
0.0148779
-6.35319e-05
0.0135326
-5.34053e-05
0.0116382
-3.59052e-05
0.00933785
-2.07653e-05
0.0067762
-8.88416e-06
0.00408395
-1.84823e-06
0.00135532
0.00592512
1.15822e-06
-1.48597e-06
-0.00184858
0.00184914
1.78326e-07
-3.92022e-07
-0.00109836
0.00109853
1.64093e-07
-1.08576e-07
-8.82214e-08
3.44797e-08
-0.00026471
0.000264954
8.20945e-09
-0.000264877
7.10481e-08
0.000264847
-7.96624e-08
1.67753e-08
-7.61398e-05
7.61503e-05
-7.6074e-05
7.60413e-05
-5.94822e-06
0.00872369
-1.30426e-05
0.0112245
-2.40304e-05
0.0132787
-4.21615e-05
0.0147478
-6.09528e-05
0.0155297
-7.57081e-05
0.0155759
-7.95768e-05
0.0148939
-7.32188e-05
0.0135524
-5.87251e-05
0.011661
-4.11275e-05
0.00935821
-2.29155e-05
0.00679023
-8.79063e-06
0.00409089
-1.91838e-06
0.00135723
0.00591939
9.6795e-07
-1.18255e-06
-0.00184786
0.0018488
2.23592e-07
-2.13906e-07
-0.0010982
0.00109826
1.62433e-07
-4.36481e-08
-2.03795e-08
-4.47413e-08
-0.00026479
0.000264952
2.04941e-09
-0.000264967
6.83459e-08
0.000264947
-8.05298e-08
1.40187e-08
-7.61585e-05
7.61667e-05
-7.60874e-05
7.60707e-05
-4.12824e-06
0.00871478
-1.27633e-05
0.0112132
-2.85099e-05
0.013265
-4.73811e-05
0.0147342
-7.09299e-05
0.0155249
-8.95766e-05
0.0155859
-9.74792e-05
0.0149182
-8.69599e-05
0.0135807
-6.64685e-05
0.0116864
-4.34256e-05
0.00937872
-2.24148e-05
0.00680386
-9.49019e-06
0.00409846
-2.49918e-06
0.00135973
0.00591509
8.21823e-07
-6.49241e-07
-0.0018478
0.00184854
2.32534e-07
-1.86284e-07
-0.00109811
0.0010982
1.66176e-07
-3.17747e-08
-1.89012e-08
-3.88263e-08
-0.000264818
0.000264975
5.45424e-09
-0.000264959
9.71435e-08
0.000265012
-8.01918e-08
8.4883e-09
-7.61685e-05
7.61706e-05
-7.61002e-05
7.60862e-05
-4.69461e-06
0.00870671
-1.51482e-05
0.0111998
-3.49553e-05
0.0132526
-6.50456e-05
0.0147283
-9.42999e-05
0.0155297
-0.000113122
0.0156015
-0.000113302
0.0149445
-9.73822e-05
0.0136116
-7.14641e-05
0.0117144
-4.46524e-05
0.00940096
-2.27579e-05
0.00681713
-7.73273e-06
0.0041037
-7.22922e-07
0.00136046
0.0059103
4.38406e-07
-3.43087e-07
-0.00184788
0.00184843
2.6734e-07
1.00673e-08
-0.00109807
0.00109816
1.64866e-07
-2.25892e-08
-1.16614e-08
-4.9022e-08
-0.000264887
0.000265048
6.02763e-09
-0.000264985
6.54289e-08
0.00026504
-8.36467e-08
1.6227e-08
-7.6196e-05
7.62015e-05
-7.60989e-05
7.60904e-05
-4.74683e-06
0.00869631
-2.03854e-05
0.0111853
-4.75143e-05
0.013235
-8.48478e-05
0.0147189
-0.0001188
0.0155353
-0.000136905
0.0156251
-0.000130198
0.0149774
-0.000106854
0.013647
-7.51078e-05
0.0117449
-4.20509e-05
0.00942025
-2.13466e-05
0.00683074
-6.71027e-06
0.00410969
-6.53827e-07
0.00136111
0.00590612
-7.52982e-07
1.79317e-07
-0.00184803
0.00184834
1.35758e-07
5.74186e-08
-0.00109822
0.00109833
1.68639e-07
-1.67287e-08
-6.96074e-09
-3.8872e-08
-0.000264957
0.000265129
-6.54701e-09
-0.000264966
-1.34827e-08
0.000265124
-8.80971e-08
1.08644e-07
-7.61995e-05
7.62055e-05
-7.61341e-05
7.61178e-05
-7.56873e-06
0.00868349
-2.7827e-05
0.0111656
-6.50051e-05
0.0132152
-0.000113873
0.014714
-0.000151616
0.0155501
-0.0001638
0.0156587
-0.000145117
0.0150156
-0.000111139
0.013683
-7.23125e-05
0.0117751
-4.11275e-05
0.00944003
-1.74392e-05
0.00684147
-6.20402e-06
0.00411524
-4.02973e-07
0.00136151
0.00589854
-1.04547e-06
1.05697e-06
-0.00184842
0.00184752
1.43642e-07
9.65385e-08
-0.00109842
0.0010984
1.70519e-07
-1.3224e-08
3.22166e-09
-3.29254e-08
-0.000265012
0.000265186
-5.51542e-09
-0.000265017
-1.15886e-08
0.000265168
-4.65702e-08
1.12005e-07
-7.62126e-05
7.6206e-05
-7.62261e-05
7.61174e-05
-1.12217e-05
0.00866689
-4.06861e-05
0.0111413
-9.54539e-05
0.0131968
-0.000151978
0.0147143
-0.000189383
0.0155756
-0.000186064
0.0156996
-0.000155211
0.0150597
-0.000110453
0.0137211
-6.82407e-05
0.0118022
-3.64155e-05
0.00945901
-1.59776e-05
0.00685124
-2.99287e-06
0.00411783
-1.81868e-07
0.0013617
0.00588794
-2.01069e-06
1.39293e-06
-0.00184841
0.00184756
-1.92387e-07
1.70044e-07
-0.00109851
0.00109851
1.65533e-07
-2.03306e-08
3.52706e-09
-2.38342e-08
-0.00026512
0.000265296
-5.41868e-09
-0.000265123
-1.01316e-08
0.000265269
-7.90251e-08
1.12805e-07
-7.62599e-05
7.62544e-05
-7.62715e-05
7.61595e-05
-1.83608e-05
0.00864456
-6.47768e-05
0.0111106
-0.00013582
0.0131806
-0.000199893
0.0147248
-0.000223066
0.0156126
-0.00019791
0.0157423
-0.000153877
0.0151031
-0.000102689
0.0137556
-6.10604e-05
0.0118269
-3.09767e-05
0.00947401
-1.06916e-05
0.00685894
-2.73707e-06
0.00412038
1.91647e-07
0.0013615
0.00587213
-3.45787e-06
9.07228e-07
-0.00184848
0.00184689
-4.13367e-07
4.64036e-07
-0.00109871
0.00109834
1.79174e-07
2.60275e-09
-6.62495e-10
-3.00644e-08
-0.000265197
0.000265371
-8.35868e-09
-0.000265239
2.21477e-08
0.000265343
-4.36996e-08
7.98354e-08
-7.6278e-05
7.62726e-05
-7.62881e-05
7.61753e-05
-3.09228e-05
0.00861071
-0.000101102
0.0110759
-0.00019226
0.013173
-0.000249551
0.0147513
-0.0002418
0.0156565
-0.000200421
0.0157889
-0.000142918
0.0151433
-9.28558e-05
0.0137874
-5.1876e-05
0.0118478
-2.28658e-05
0.00948618
-6.48874e-06
0.00686269
7.62359e-07
0.00411981
1.74599e-06
0.00135976
0.00584548
-5.90703e-06
1.63263e-06
-0.00184725
0.00184444
-6.44719e-07
5.42361e-07
-0.0010988
0.00109827
1.08394e-07
6.7917e-09
1.80279e-08
-1.21074e-08
-0.000265326
0.000265503
2.51096e-09
-0.000265333
9.4007e-09
0.000265454
-8.40788e-08
9.1379e-08
-7.63309e-05
7.63225e-05
-7.63087e-05
7.62289e-05
-5.55508e-05
0.00856516
-0.00016166
0.0110453
-0.000260687
0.0131841
-0.000281923
0.0147914
-0.000245426
0.0157015
-0.000185732
0.0158317
-0.000126771
0.0151773
-7.72885e-05
0.0138128
-4.13175e-05
0.0118662
-1.56947e-05
0.00949539
-3.04054e-06
0.00686649
1.66436e-06
0.00411989
2.07795e-06
0.00135768
0.0058022
-1.20805e-05
-1.91825e-07
-0.00184611
0.00184116
-9.51989e-07
-4.25465e-08
-0.00109878
0.00109801
5.01863e-08
8.07555e-08
9.37028e-08
-6.35435e-08
-0.000265485
0.000265595
-1.66439e-09
-0.00026549
1.18279e-08
0.000265598
-7.78326e-08
9.67045e-08
-7.63392e-05
7.63417e-05
-7.63298e-05
7.62384e-05
-0.00010462
0.00850812
-0.000243796
0.0110284
-0.000311562
0.0132138
-0.000288587
0.0148346
-0.000225505
0.0157413
-0.000159113
0.015864
-0.00010392
0.0152039
-6.16398e-05
0.0138331
-2.87138e-05
0.0118792
-9.34384e-06
0.00950169
1.02048e-06
0.00686714
5.28036e-06
0.00411669
2.47584e-06
0.0013552
0.00573063
-2.78199e-05
-5.22733e-06
-0.00184178
0.00183258
-2.88584e-06
-8.10912e-07
-0.00109791
0.00109686
-4.56273e-10
9.89597e-08
1.77385e-07
-1.26544e-07
-0.000265636
0.000265681
5.56609e-09
-0.000265601
4.5548e-08
0.000265734
-4.53374e-08
6.91053e-08
-7.63724e-05
7.63708e-05
-7.63606e-05
7.62639e-05
-0.000192808
0.00845713
-0.00033004
0.0110468
-0.000323378
0.0132486
-0.000256164
0.0148653
-0.000189115
0.0157713
-0.000130981
0.0158911
-8.24725e-05
0.0152247
-4.38105e-05
0.0138482
-1.84459e-05
0.0118884
-2.33089e-06
0.00950504
3.68756e-06
0.00686873
7.3304e-06
0.00411184
2.85651e-06
0.00135235
0.00563514
-7.17701e-05
-2.5546e-05
-0.00183066
0.00181161
-8.76856e-06
-3.30114e-06
-0.00109603
0.00109336
-3.13787e-07
9.77766e-08
1.92662e-07
-1.70941e-07
-0.000265786
0.000265815
-2.99033e-08
-0.000265702
1.52809e-08
0.000265931
-7.28256e-08
1.02721e-07
-7.64401e-05
7.64457e-05
-7.63945e-05
7.63254e-05
-0.000324094
0.00845118
-0.000350011
0.0110735
-0.000276321
0.0132687
-0.000207594
0.0148837
-0.000147695
0.015788
-9.91514e-05
0.0159078
-5.88102e-05
0.0152397
-2.92671e-05
0.013859
-8.53028e-06
0.0118946
4.02091e-06
0.00950471
1.08565e-05
0.00686521
7.65568e-06
0.00410704
3.33126e-06
0.00134902
0.00558216
-0.000175369
-9.57419e-05
-0.00180015
0.00175949
-3.11064e-05
-1.40923e-05
-0.0010901
0.00108198
-8.07332e-07
1.58571e-07
4.47003e-07
-4.91727e-07
-0.000265833
0.000265553
-3.44078e-08
-0.000265787
5.17152e-08
0.000266035
-2.77672e-08
7.79033e-08
-7.64908e-05
7.64609e-05
-7.64755e-05
7.63728e-05
-0.000363583
0.00846475
-0.000276048
0.0110732
-0.000206703
0.0132678
-0.00015446
0.0148905
-0.000108699
0.0157976
-7.04511e-05
0.0159194
-3.94335e-05
0.0152499
-1.38406e-05
0.0138643
2.88044e-06
0.0118957
1.15336e-05
0.00950403
1.1994e-05
0.00686087
9.217e-06
0.00410115
3.86923e-06
0.00134515
0.00557573
-0.000161076
-0.000196084
-0.00172327
0.00167454
-0.000126643
-5.95248e-05
-0.00106919
0.00104194
-3.59816e-06
-2.55383e-07
1.39706e-07
-1.44056e-06
-0.000265611
0.000264881
-7.69079e-08
-0.000265478
2.49412e-08
0.000266047
-4.71732e-08
7.80137e-08
-7.65628e-05
7.65284e-05
-7.65111e-05
7.64332e-05
-0.000240113
0.00842882
-0.000179469
0.011046
-0.00013962
0.013253
-0.000103991
0.0148858
-7.43094e-05
0.0158014
-4.69157e-05
0.0159269
-2.0693e-05
0.0152567
-3.62984e-06
0.0138709
1.08656e-05
0.0118964
1.5409e-05
0.00950062
1.95327e-05
0.00685055
1.07561e-05
0.00409426
4.59921e-06
0.00134055
0.00548525
-4.27563e-05
-0.000106875
-0.00164719
0.00161336
-0.000127251
-0.000168729
-0.000995091
0.000919871
-3.71048e-05
-1.43179e-05
-2.10376e-06
-1.05737e-05
-0.000263522
0.000260449
-5.24322e-07
-0.000263708
-6.98393e-08
0.000265122
-1.01409e-07
-2.6594e-08
-7.65841e-05
7.65072e-05
-7.65592e-05
7.64812e-05
-0.000121442
0.00837079
-0.000106824
0.0110132
-8.98479e-05
0.0132388
-6.96735e-05
0.0148812
-4.86908e-05
0.0158032
-2.49224e-05
0.0159311
-6.05131e-06
0.0152592
8.33942e-06
0.0138734
1.8153e-05
0.0118936
2.16382e-05
0.00949851
1.75239e-05
0.00684378
1.5203e-05
0.00408366
6.31766e-06
0.00133423
0.00540089
-5.3064e-06
-3.1768e-05
-0.00156138
0.00153874
-2.01127e-05
-5.48895e-05
-0.000874353
0.000810744
-1.86668e-05
-4.49741e-05
-5.95255e-05
-6.36857e-05
-0.000239613
0.000212485
-9.97692e-06
-0.000250079
-3.85265e-06
0.00025895
-6.05158e-07
-1.70226e-06
-7.63094e-05
7.57851e-05
-7.63792e-05
7.64058e-05
-5.70569e-05
0.00832103
-5.96237e-05
0.0109829
-5.32974e-05
0.0132225
-4.12156e-05
0.0148737
-2.33591e-05
0.0158016
-7.18323e-06
0.0159323
6.01169e-06
0.0152615
2.06544e-05
0.0138709
2.58082e-05
0.0118894
2.83086e-05
0.00948773
2.55838e-05
0.0068334
1.53563e-05
0.00407462
5.77498e-06
0.00132846
0.00535312
1.76568e-06
-1.10552e-05
-0.00151545
0.00151275
-2.59886e-06
-8.48577e-06
-0.000763464
0.000744132
9.83725e-08
-8.79224e-07
-6.36556e-06
-1.24459e-06
-0.000103948
8.52815e-05
-0.000148922
0.00017505
-2.20903e-05
-3.75578e-05
-6.9625e-05
5.96481e-05
-7.34776e-05
7.51799e-05
-2.70475e-05
0.00828845
-3.25058e-05
0.0109622
-2.84983e-05
0.0132097
-1.94379e-05
0.0148698
-9.01779e-06
0.0158035
4.35841e-06
0.0159339
1.70456e-05
0.0152651
2.74005e-05
0.0138693
3.15951e-05
0.0118862
3.28221e-05
0.00948049
2.7994e-05
0.00682077
1.91273e-05
0.00406127
6.59479e-06
0.00132186
0.00532793
3.15033e-06
-5.01133e-06
-0.00150306
0.00150472
1.00995e-07
-1.36561e-06
-0.000735696
0.000733035
1.46162e-07
-8.41397e-08
-1.949e-07
1.45553e-07
-7.67921e-05
7.68905e-05
-7.76713e-05
7.89159e-05
3.75578e-05
-1.13393e-05
0.00826728
-1.39049e-05
0.0109476
-1.22486e-05
0.0132026
-4.09681e-06
0.0148648
6.69988e-06
0.0158011
1.8307e-05
0.0159327
2.92783e-05
0.0152632
3.54305e-05
0.0138654
3.98353e-05
0.0118791
4.12584e-05
0.00946722
3.18551e-05
0.00680804
2.15187e-05
0.00404634
8.5143e-06
0.00131335
0.00531651
2.89807e-06
-2.81381e-06
-0.00149984
0.00150257
4.27339e-07
-1.34179e-07
-0.000731562
0.000731598
9.5453e-08
-3.05753e-08
-1.84728e-08
1.25657e-07
-7.6757e-05
7.69032e-05
-7.68411e-05
7.66956e-05
-3.38057e-06
0.00825676
-3.26968e-06
0.0109386
9.81593e-07
0.0131975
8.66106e-06
0.0148629
1.92232e-05
0.0158002
2.84577e-05
0.0159335
3.85272e-05
0.0152601
4.40946e-05
0.0138612
4.85193e-05
0.0118719
4.35825e-05
0.0094555
3.72769e-05
0.00679228
2.15832e-05
0.00403328
8.0682e-06
0.00130528
0.0053116
2.72484e-06
-1.19688e-06
-0.00149964
0.00150201
5.26219e-07
1.12308e-07
-0.000731405
0.000731788
6.3781e-08
-1.97309e-08
-3.06485e-08
9.01169e-08
-7.69798e-05
7.70752e-05
-7.70103e-05
7.68847e-05
1.8445e-06
0.00825164
3.80383e-06
0.0109358
9.43747e-06
0.0131967
1.67832e-05
0.0148653
2.67931e-05
0.0158019
3.84641e-05
0.0159335
4.56812e-05
0.0152585
5.40627e-05
0.0138556
5.55873e-05
0.0118599
4.96713e-05
0.0094431
4.08134e-05
0.00677305
2.43801e-05
0.00401696
8.9697e-06
0.00129631
0.00531064
3.06954e-06
-2.66765e-07
-0.00150049
0.00150263
5.84314e-07
3.28188e-07
-0.000731822
0.000732323
5.28089e-08
-2.77716e-08
-4.24921e-09
8.2743e-08
-7.7115e-05
7.71788e-05
-7.71347e-05
7.70446e-05
4.2934e-06
0.00825115
9.08315e-06
0.0109361
1.69122e-05
0.0131966
2.62706e-05
0.0148658
3.61899e-05
0.0158042
4.69728e-05
0.0159323
5.62951e-05
0.0152563
6.08526e-05
0.0138504
5.7685e-05
0.0118519
5.5084e-05
0.00942883
4.25017e-05
0.00675493
2.99015e-05
0.00399603
9.374e-06
0.00128693
0.00531208
2.96215e-06
-1.04545e-07
-0.00150194
0.00150441
5.97564e-07
4.24777e-07
-0.000732574
0.000733047
3.30883e-08
7.76273e-08
2.82867e-08
4.95051e-08
-7.72295e-05
7.72823e-05
-7.72572e-05
7.71745e-05
7.49786e-06
0.00825274
1.43784e-05
0.0109387
2.2528e-05
0.0132003
3.38857e-05
0.0148681
4.61146e-05
0.015805
5.55294e-05
0.015933
6.36453e-05
0.0152535
6.92818e-05
0.0138388
7.2072e-05
0.0118349
6.28155e-05
0.00940852
5.28521e-05
0.00673198
3.05354e-05
0.00397487
9.95032e-06
0.00127698
0.00531625
2.50692e-06
8.15929e-07
-0.00150387
0.0015062
6.24656e-07
4.37188e-07
-0.000733386
0.000733964
2.04201e-08
-1.00205e-09
3.1296e-08
5.50745e-08
-7.74377e-05
7.74708e-05
-7.73601e-05
7.73106e-05
8.9912e-06
0.00825813
1.70624e-05
0.0109441
2.74582e-05
0.0132067
4.08469e-05
0.0148734
5.22035e-05
0.0158083
6.49207e-05
0.0159317
7.5282e-05
0.0152475
7.91944e-05
0.0138317
8.15524e-05
0.0118161
7.24232e-05
0.00938895
5.44252e-05
0.00670809
3.43116e-05
0.00395051
1.34269e-05
0.00126356
0.00532157
2.57747e-06
1.09586e-06
-0.0015064
0.00150824
6.7251e-07
6.15605e-07
-0.000734351
0.000734922
2.44001e-08
2.92705e-08
7.26305e-09
4.29373e-08
-7.75562e-05
7.75766e-05
-7.75572e-05
7.75021e-05
1.04222e-05
0.00826477
2.10199e-05
0.0109506
3.35208e-05
0.0132141
4.67187e-05
0.0148789
6.09843e-05
0.0158123
7.44724e-05
0.0159326
8.31748e-05
0.0152435
8.75406e-05
0.0138257
8.46982e-05
0.0118039
8.01338e-05
0.00936324
6.13593e-05
0.00668104
3.77438e-05
0.00392619
2.76768e-05
0.00123588
0.00532841
2.32405e-06
1.25842e-06
-0.00150867
0.00151031
9.39581e-07
6.61437e-07
-0.000735446
0.000736086
2.79124e-08
5.05982e-09
3.33557e-08
5.77307e-08
-7.76561e-05
7.76805e-05
-7.76268e-05
7.75838e-05
1.15366e-05
0.00827425
2.49242e-05
0.0109592
4.13371e-05
0.0132195
5.55194e-05
0.0148844
7.18223e-05
0.0158149
8.23674e-05
0.0159334
9.28154e-05
0.0152383
9.78278e-05
0.0138125
9.6221e-05
0.0117878
8.59858e-05
0.00933861
6.79969e-05
0.00665079
5.82384e-05
0.00389563
5.4637e-05
0.0053372
1.61014e-06
1.13511e-06
-0.00151081
0.00151259
5.4996e-07
7.5446e-07
-0.000736653
0.000737481
1.05721e-07
5.94553e-09
3.47817e-08
5.90605e-08
-7.77766e-05
7.78045e-05
-7.77715e-05
7.77138e-05
1.30469e-05
0.00828613
2.79812e-05
0.0109725
4.50577e-05
0.0132299
6.32896e-05
0.0148929
7.91513e-05
0.0158181
9.39777e-05
0.0159322
0.000103006
0.0152331
0.000106556
0.0138022
0.000103934
0.0117698
9.13865e-05
0.00931522
8.77139e-05
0.00662131
9.95697e-05
0.00534835
1.1382e-06
7.60115e-07
-0.00151342
0.00151524
-2.05705e-07
3.00986e-07
-0.000738132
0.000738625
3.10498e-08
2.65899e-08
7.18713e-08
3.15356e-08
-7.79043e-05
7.801e-05
-7.78984e-05
7.78393e-05
1.717e-05
0.00829694
3.38597e-05
0.0109837
5.11944e-05
0.013242
6.95253e-05
0.0149025
8.68836e-05
0.0158252
0.00010285
0.0159324
0.000112476
0.0152272
0.000119771
0.0137864
0.000116772
0.0117444
0.000114015
0.00928892
0.000129533
0.00535892
5.1278e-06
1.47507e-06
-0.00151734
0.00152042
-1.93875e-06
-1.34273e-06
-0.000738861
0.000738706
-1.01231e-09
-5.0108e-08
1.58141e-08
4.90467e-08
-7.814e-05
7.81711e-05
-7.81134e-05
7.80819e-05
2.0798e-05
0.00831
3.69537e-05
0.0109979
5.79697e-05
0.0132536
7.85024e-05
0.0149109
9.82466e-05
0.0158298
0.000110936
0.0159339
0.000123027
0.0152239
0.000128301
0.0137748
0.000133861
0.0117246
0.000151108
0.00536918
5.21929e-06
5.31708e-06
-0.00151842
0.00152273
1.22931e-06
-4.05732e-07
-1.73681e-06
5.20882e-06
-0.000737318
0.000436129
0.000299476
-2.20985e-07
-4.66461e-09
2.31102e-08
2.21358e-08
-7.81858e-05
7.81848e-05
-7.82359e-05
7.81869e-05
2.23526e-05
0.0083246
4.23504e-05
0.0110136
6.31536e-05
0.0132689
8.67783e-05
0.0149224
0.000104602
0.0158362
0.000121381
0.0159355
0.000130249
0.015222
0.000143109
0.0137656
0.000159774
0.00538245
4.47862e-06
4.60656e-06
-0.00152498
0.00152746
1.50581e-06
1.23831e-06
1.82086e-06
1.23889e-06
-0.00046482
0.000466976
-9.26384e-07
-0.000462154
-3.07147e-06
-0.000457074
-6.81709e-06
-1.57362e-05
0.000280897
2.84269e-06
-7.82254e-05
7.80044e-05
-7.823e-05
7.82079e-05
2.42443e-05
0.00834271
4.66435e-05
0.0110301
7.13409e-05
0.0132844
9.45583e-05
0.0149324
0.000113648
0.0158439
0.000129999
0.0159358
0.000146178
0.0152189
0.000164496
0.00539733
4.52681e-06
4.83687e-06
-0.00152976
0.0015324
1.07577e-06
7.65701e-07
1.28393e-06
1.01842e-06
-0.000469803
0.000470496
8.1307e-07
-0.000469207
6.42332e-07
-0.000467912
5.25441e-07
3.03076e-07
-0.000272945
0.000272535
-5.15786e-07
-0.000274969
-1.04786e-06
-8.89096e-07
8.08471e-05
2.7653e-05
0.0083617
5.13868e-05
0.01105
7.90975e-05
0.0132998
0.000100797
0.0149453
0.000120531
0.0158534
0.000138779
0.0159432
0.000157898
0.00541482
4.95663e-06
5.20044e-06
-0.00153546
0.00153811
8.19849e-07
1.05576e-06
9.99877e-07
7.78058e-07
-0.000472137
0.000472646
5.66823e-07
-0.000471783
4.11813e-07
-0.000470918
4.18737e-07
5.96425e-07
-0.00027374
0.000274407
1.4625e-07
-0.000273259
1.61059e-07
-0.000272838
1.04728e-07
-5.42415e-10
-7.89101e-05
7.83943e-05
-7.9958e-05
3.04784e-05
0.00838261
5.79027e-05
0.0110712
8.4303e-05
0.0133163
0.000106646
0.0149591
0.00012715
0.015865
0.000141167
0.00543404
5.36916e-06
5.88996e-06
-0.00154146
0.00154451
7.92589e-07
1.1189e-06
8.04163e-07
1.04308e-06
-0.000474226
0.000474674
3.71553e-07
-0.000473546
3.75932e-07
-0.000473008
4.61785e-07
4.1588e-07
-0.000275417
0.000275885
9.90177e-08
-0.000275103
9.77223e-08
-0.000274819
1.34342e-07
1.84842e-07
-7.86596e-05
7.88058e-05
-7.84985e-05
-7.83938e-05
3.50076e-05
0.0084055
6.45774e-05
0.0110909
9.01226e-05
0.0133328
0.000110101
0.0149762
0.000117441
0.00545622
6.19321e-06
6.63339e-06
-0.00154827
0.00155154
8.83045e-07
1.21766e-06
8.98239e-07
1.2303e-06
-0.000476346
0.000476736
4.02206e-07
-0.00047556
3.32879e-07
-0.000475137
3.81891e-07
5.79851e-07
-0.000276862
0.000277141
9.21583e-08
-0.000276542
5.63051e-08
-0.000276207
1.26662e-07
9.38562e-08
-7.92227e-05
7.93217e-05
-7.9125e-05
-7.89907e-05
4.05565e-05
0.00842952
7.1396e-05
0.0111097
9.09557e-05
0.013352
9.13513e-05
0.00548165
7.09466e-06
8.03003e-06
-0.00155552
0.0015593
1.28588e-06
1.12617e-06
1.28429e-06
1.36425e-06
-0.000478676
0.000478946
6.13095e-07
-0.000477829
3.708e-07
-0.000477345
4.14276e-07
6.21382e-07
-0.000278122
0.000278423
1.00595e-07
-0.000277885
9.6623e-08
-0.000277596
9.27396e-08
1.24865e-07
-7.95986e-05
7.96907e-05
-7.95423e-05
-7.94156e-05
4.92678e-05
0.00845165
7.24745e-05
0.0111282
6.47009e-05
0.00551022
1.02272e-05
1.04787e-05
-0.00156456
0.00156874
1.49178e-06
1.42105e-06
1.46831e-06
1.3067e-06
-0.000481242
0.000481847
6.81451e-07
-0.000480605
4.888e-07
-0.000479795
4.74055e-07
5.15393e-07
-0.000279444
0.000279946
1.11462e-07
-0.000279156
8.21833e-08
-0.000278949
2.07342e-07
9.56487e-08
-8.00049e-05
8.01055e-05
-7.99083e-05
-7.98156e-05
5.39611e-05
0.00847016
4.20407e-05
0.00553384
1.57863e-05
1.45551e-05
-0.00157553
0.00158123
2.36359e-06
2.16524e-06
1.95651e-06
1.72942e-06
-0.000484381
0.000485032
8.40345e-07
-0.000483476
5.15935e-07
-0.000482568
5.60533e-07
5.85317e-07
-0.000281047
0.00028165
7.8651e-08
-0.000280676
1.17379e-07
-0.000280318
1.16162e-07
1.43696e-07
-8.04907e-05
8.06021e-05
-8.04085e-05
-8.02012e-05
2.80083e-05
1.23053e-05
3.11106e-05
-0.00158965
0.00159665
4.96737e-06
3.81936e-06
3.36765e-06
2.76985e-06
-0.000488464
0.00048951
1.31738e-06
-0.000487255
9.56273e-07
-0.000486042
7.43718e-07
7.19809e-07
-0.000282887
0.000283584
1.43323e-07
-0.000282509
1.37948e-07
-0.000282083
1.34567e-07
1.52412e-07
-8.09794e-05
8.1058e-05
-8.0862e-05
-8.07458e-05
-0.00160892
7.83017e-06
1.61075e-05
1.07843e-05
8.05601e-06
-0.00049465
0.000496791
2.82614e-06
-0.000492636
1.80604e-06
-0.000490872
1.60353e-06
1.40751e-06
-0.000285425
0.000286451
2.913e-07
-0.000284685
2.1718e-07
-0.000284117
1.75226e-07
1.8642e-07
-8.14829e-05
8.16262e-05
-8.1345e-05
-8.12104e-05
-0.000507603
1.12555e-05
-0.000503211
1.17158e-05
-0.000499925
7.49788e-06
4.92201e-06
-0.000290049
0.000292146
7.29048e-07
-0.000288726
4.83075e-07
-0.000287507
3.84379e-07
3.50839e-07
-8.22051e-05
8.24963e-05
-8.19879e-05
-8.18127e-05
-0.000303964
1.53235e-05
-0.000299702
7.45433e-06
-0.00029559
3.38502e-06
1.47887e-06
-8.37146e-05
8.44437e-05
-8.32316e-05
-8.28472e-05
-9.67619e-05
-8.93076e-05
-8.59225e-05
3.24008e-06
-3.24021e-06
1.22585e-05
3.67867e-06
-1.26975e-05
1.89203e-06
-5.13233e-06
8.91644e-06
3.34183e-06
1.96986e-05
4.3212e-06
-2.03416e-05
3.85053e-06
-1.46564e-05
9.7071e-07
-6.1032e-06
1.67423e-06
7.24212e-06
1.89869e-05
4.05325e-06
-4.29634e-06
4.5715e-05
7.21229e-06
-4.4312e-05
-2.07876e-05
2.66695e-06
-1.63529e-05
5.14846e-07
-6.61815e-06
2.63361e-06
1.80272e-05
6.36371e-07
6.60564e-06
7.07727e-06
4.53236e-05
-7.5553e-06
-4.65162e-05
1.69445e-05
4.43331e-05
-3.90268e-06
-4.53515e-05
-2.61388e-06
-2.20235e-05
1.74894e-06
-1.75873e-05
2.20293e-07
-6.83857e-06
1.66503e-06
1.69983e-05
2.07795e-07
6.3977e-06
-5.63891e-06
-5.25081e-05
1.8703e-05
-8.59543e-07
4.22085e-05
-0.000658074
3.54234e-05
0.000639588
-7.92631e-06
2.86961e-05
3.09427e-05
-7.3856e-06
-4.93811e-05