/*--------------------------------*- C++ -*----------------------------------*\
| =========                 |                                                 |
| \\      /  F ield         | OpenFOAM: The Open Source CFD Toolbox           |
|  \\    /   O peration     | Version:  v1912                                 |
|   \\  /    A nd           | Website:  www.openfoam.com                      |
|    \\/     M anipulation  |                                                 |
\*---------------------------------------------------------------------------*/
FoamFile
{
    version     2.0;
    format      ascii;
    class       volVectorField;
    location    "380";
    object      U;
}
// * * * * * * * * * * * * * * * * * * * * * * * * * * * * * * * * * * * * * //

dimensions      [0 1 -1 0 0 0 0];


internalField   nonuniform List<vector> 
3675
(
(0.999101 0.00116921 1.17689e-25)
(0.99915 0.00346133 0)
(0.990324 0.00376333 3.35626e-23)
(0.999239 0.00552304 -5.86324e-23)
(0.991014 0.0111125 0)
(0.969819 0.00731176 -1.06655e-21)
(0.999355 0.00723911 3.59532e-21)
(0.992277 0.0176627 -3.88313e-21)
(0.972153 0.0214614 1.09576e-21)
(0.932741 0.0129708 -7.47258e-23)
(0.999483 0.00854275 -6.96272e-21)
(0.99391 0.0230244 7.68738e-21)
(0.976393 0.0337906 0)
(0.938862 0.0377216 2.3495e-21)
(0.86922 0.0234712 -2.11601e-22)
(0.999609 0.00941351 3.36904e-21)
(0.9957 0.0269884 -1.00372e-22)
(0.981818 0.0435023 -1.28303e-22)
(0.949599 0.0585205 -2.29878e-21)
(0.883495 0.067008 0)
(0.754687 0.0449913 2.18346e-22)
(0.999725 0.00986711 0)
(0.997466 0.0295174 3.27371e-21)
(0.987642 0.050277 0)
(0.962723 0.0738131 1.25211e-22)
(0.907421 0.100915 3.27411e-22)
(0.793554 0.12305 -3.2684e-21)
(0.586737 0.0432229 -2.43705e-22)
(0.607389 0.118696 -3.91169e-22)
(0.999828 0.00994291 0)
(0.999087 0.0306995 -6.83676e-21)
(0.993244 0.0541889 6.84405e-21)
(0.976181 0.0832901 3.63167e-21)
(0.936245 0.122674 -2.75414e-22)
(0.850092 0.177964 4.99471e-21)
(0.64741 0.192557 6.96603e-22)
(0.699948 0.24049 3.44565e-22)
(0.393945 0.0624786 8.1064e-22)
(0.43303 0.180664 -4.70017e-22)
(0.999917 0.0096916 0)
(1.0005 0.030693 -4.85801e-23)
(0.998262 0.0555573 -6.75865e-21)
(0.988546 0.0876082 -3.50705e-21)
(0.963755 0.133054 0)
(0.909705 0.205496 -1.8095e-21)
(0.763454 0.355654 -2.1902e-21)
(0.504851 0.278408 -1.43467e-21)
(0.591971 0.35799 1.14753e-21)
(0.183949 0.0399026 -1.80912e-22)
(0.197434 0.118498 3.75281e-22)
(0.270636 0.266335 1.88091e-21)
(0.224953 0.194009 -3.24375e-22)
(0.999995 0.00916636 0)
(1.00169 0.029682 0)
(1.00255 0.0547974 1.10246e-24)
(0.999167 0.0878056 -9.95017e-23)
(0.986932 0.134785 -2.01637e-22)
(0.959638 0.209819 0)
(0.897131 0.366202 4.50696e-21)
(0.636869 0.560136 1.70932e-22)
(0.772534 0.592066 4.4995e-23)
(0.329695 0.339162 3.4966e-23)
(0.40396 0.408429 0)
(0.481633 0.490448 -7.36432e-22)
(0.0366856 0.0317401 -1.53229e-21)
(0.0487117 0.094693 -7.01473e-22)
(0.113495 0.206792 -7.11425e-21)
(0.0757179 0.153695 -2.41012e-21)
(1.00006 0.00841683 0)
(1.00266 0.0278461 0)
(1.00608 0.0523233 0)
(1.0079 0.0848629 4.62347e-23)
(1.0055 0.130712 0)
(0.997437 0.201216 9.22363e-23)
(0.982061 0.332306 -2.96046e-21)
(0.979196 0.555847 -4.57205e-22)
(0.621201 0.553931 -8.62694e-24)
(0.488617 0.487378 -8.86735e-23)
(0.769421 0.536331 1.08639e-22)
(0.166546 0.308476 8.74436e-21)
(0.289939 0.400733 -6.03788e-22)
(0.332534 0.383869 1.68532e-21)
(0.2339 0.28008 -1.59666e-21)
(1.00013 0.00748712 -4.56747e-24)
(1.00345 0.0253477 0)
(1.00892 0.0485067 -5.16099e-21)
(1.01485 0.0795827 0)
(1.01994 0.12285 -7.43977e-23)
(1.02508 0.186799 0)
(1.03353 0.290493 -3.99823e-23)
(1.10107 0.483946 3.26207e-22)
(0.914032 0.447356 -3.64703e-22)
(1.09712 0.503487 -3.14074e-23)
(0.462258 0.344097 -5.67299e-23)
(0.287722 0.247347 5.34474e-23)
(0.714319 0.422888 6.37553e-22)
(0.466261 0.28828 0)
(0.0575394 0.132844 2.70324e-21)
(0.16167 0.244916 -6.20903e-21)
(0.132447 0.164458 0)
(1.00019 0.0064131 0)
(1.00408 0.0223248 -4.41621e-24)
(1.01116 0.0436555 5.13028e-21)
(1.02027 0.0726009 -4.04262e-23)
(1.0309 0.112523 0)
(1.04485 0.169522 7.01122e-23)
(1.06669 0.253253 0)
(1.14372 0.395931 6.68287e-22)
(1.2291 0.419484 -1.66984e-21)
(0.692734 0.205443 1.58865e-22)
(0.567436 0.273941 -1.29335e-21)
(1.0162 0.298655 -9.09872e-22)
(0.193666 0.133922 2.84337e-21)
(0.264386 0.154365 1.27391e-21)
(1.00025 0.00522448 0)
(1.00458 0.018889 -8.69193e-24)
(1.01292 0.0380118 9.28944e-24)
(1.02444 0.0644017 1.6607e-23)
(1.03905 0.100631 -2.91206e-23)
(1.05874 0.150879 3.3207e-21)
(1.08844 0.220153 2.25878e-21)
(1.15735 0.323142 5.38412e-22)
(1.28791 0.379428 2.19481e-21)
(1.15335 0.260507 0)
(0.449428 0.0578108 5.19354e-22)
(0.193812 0.0362894 0)
(0.363298 0.093261 4.29216e-23)
(0.848764 0.170155 -3.15686e-22)
(0.122993 0.0330527 -1.57308e-22)
(1.00032 0.00394397 -8.19915e-21)
(1.00498 0.0151273 4.123e-24)
(1.0143 0.0317608 1.66835e-23)
(1.02764 0.0553348 -1.49685e-23)
(1.04506 0.0877708 -1.62641e-23)
(1.0684 0.131811 -6.23259e-21)
(1.10221 0.189946 -4.17368e-21)
(1.16325 0.267467 -5.6566e-22)
(1.27948 0.322516 0)
(1.33571 0.28767 0)
(1.00184 0.142212 6.55354e-21)
(0.686292 0.099648 -4.04787e-23)
(0.119918 0.00564839 1.118e-22)
(0.320294 0.0211224 -1.08943e-23)
(0.0925063 0.00388378 -3.18215e-22)
(1.00039 0.00258854 8.13623e-21)
(1.00531 0.0111047 -2.08018e-24)
(1.01539 0.0250382 -4.12306e-24)
(1.03011 0.0456334 -2.15826e-23)
(1.04952 0.0743187 6.68076e-21)
(1.07513 0.112813 2.94266e-21)
(1.11066 0.162141 1.89805e-21)
(1.16624 0.22312 -1.60807e-23)
(1.2595 0.271001 0)
(1.35806 0.267645 -4.86992e-21)
(1.29129 0.204528 -8.00748e-21)
(0.889378 0.0706204 8.08564e-23)
(0.553481 0.043784 -5.51282e-21)
(0.594294 0.0555727 2.80019e-24)
(0.275997 0.00788394 1.15973e-23)
(0.06594 0.00218551 9.53087e-23)
(0.0705757 -0.000917045 0)
(1.00046 0.00117182 0)
(1.00558 0.00686986 0)
(1.01627 0.0179399 -3.53315e-24)
(1.03206 0.0354494 0)
(1.05289 0.0604831 -5.00568e-22)
(1.07989 0.0940684 7.03738e-24)
(1.11585 0.136374 1.24308e-21)
(1.16713 0.186194 -6.05465e-24)
(1.24341 0.227902 -1.98812e-21)
(1.33461 0.23753 5.03158e-21)
(1.37579 0.214056 -5.83421e-21)
(1.22338 0.142195 0)
(0.810688 0.0393428 -4.96238e-21)
(0.512003 0.0181784 -8.63962e-23)
(0.531566 0.0233888 8.02714e-23)
(0.287339 0.012625 1.00906e-20)
(0.0612998 -0.00176941 -1.01762e-22)
(0.066701 0.00229089 6.54314e-21)
(1.00054 -0.000295585 0)
(1.00582 0.00245881 -7.93022e-21)
(1.017 0.0105293 0)
(1.03365 0.0248733 3.50787e-24)
(1.05556 0.0463633 -3.8653e-22)
(1.08344 0.0755955 -4.06766e-21)
(1.11919 0.112248 -1.26956e-21)
(1.1668 0.154316 0)
(1.23163 0.191361 4.02848e-21)
(1.30843 0.206907 -1.19022e-23)
(1.37288 0.200985 6.69149e-22)
(1.36231 0.170024 0)
(1.15707 0.100801 1.20795e-20)
(0.754017 0.0275633 -1.24384e-21)
(0.476176 0.0116717 -1.21862e-21)
(0.491251 0.0110727 4.95388e-24)
(0.284359 0.00496223 0)
(0.293683 0.00593926 -1.25344e-21)
(0.132383 0.00366512 -3.61272e-21)
(0.094617 0.00816246 -1.65053e-20)
(1.00063 -0.00180379 0)
(1.00601 -0.0020992 1.57227e-20)
(1.01761 0.00284875 0)
(1.035 0.0139478 0)
(1.0578 0.0319776 -1.04686e-20)
(1.08633 0.0573022 3.94775e-21)
(1.12166 0.0893683 1.57768e-21)
(1.16617 0.1259 -9.41685e-22)
(1.22281 0.159526 -1.99925e-21)
(1.28817 0.178479 -8.30389e-24)
(1.34964 0.181109 5.37331e-21)
(1.38756 0.1702 -2.99805e-24)
(1.33529 0.135515 -7.15736e-21)
(1.09734 0.0756762 1.63693e-23)
(0.711822 0.0226963 -6.13214e-22)
(0.449065 0.00955608 1.16705e-21)
(0.460508 0.00840474 1.18488e-21)
(0.268636 0.00283353 1.12682e-21)
(0.275287 0.00229883 -2.18022e-22)
(0.130672 0.00180372 -3.23961e-24)
(0.132509 0.000461711 2.72102e-23)
(0.134927 0.000933713 2.65437e-21)
(0.135679 0.00192987 4.09596e-22)
(0.0414623 -0.000746948 1.71906e-21)
(0.0256638 0.002208 4.91291e-21)
(1.00072 -0.00334206 0)
(1.00617 -0.00677635 -7.78984e-21)
(1.0181 -0.00507125 7.17051e-21)
(1.03618 0.0026855 6.12979e-21)
(1.05981 0.0172929 9.78989e-21)
(1.08895 0.0390399 0)
(1.12395 0.0673192 -1.53815e-21)
(1.16596 0.0998531 9.53543e-22)
(1.21647 0.131045 0)
(1.27325 0.152326 -2.65686e-23)
(1.32806 0.160656 4.63952e-21)
(1.37376 0.15914 5.25049e-24)
(1.38886 0.145206 -1.01755e-25)
(1.30167 0.111144 -6.95574e-21)
(1.04642 0.0608711 0)
(0.679031 0.0204278 -4.94511e-21)
(0.427528 0.00843027 1.1483e-21)
(0.436691 0.00749412 5.85128e-22)
(0.256657 0.00246698 6.82401e-23)
(0.262165 0.0019937 -5.8393e-25)
(0.124919 0.000989281 -4.93128e-23)
(0.125971 0.000128887 -2.51783e-23)
(0.128046 -0.000263623 3.10908e-22)
(0.12756 0.000776462 1.26353e-22)
(0.0397266 0.000203122 1.67546e-23)
(0.0403827 -8.51599e-05 0)
(0.040823 -0.00034921 -5.63805e-22)
(0.0412178 0.000182684 -2.80895e-22)
(1.00082 -0.00489698 0)
(1.00628 -0.0115412 -7.44656e-24)
(1.01849 -0.0132029 -7.08092e-21)
(1.03721 -0.00891832 3.85574e-23)
(1.0617 0.00223514 -9.32641e-21)
(1.09157 0.020615 2.90298e-21)
(1.12652 0.0457099 -3.06198e-25)
(1.1667 0.0753258 2.76027e-24)
(1.21258 0.10493 5.04921e-24)
(1.26263 0.127947 -6.81192e-21)
(1.31146 0.140849 -9.29283e-21)
(1.35455 0.145105 4.42162e-24)
(1.38747 0.141476 0)
(1.38075 0.126621 6.68499e-21)
(1.26655 0.0949242 7.05836e-21)
(1.00392 0.0522003 4.1714e-21)
(0.652345 0.0193285 -4.71785e-24)
(0.409479 0.00793712 0)
(0.417254 0.00709833 5.70696e-22)
(0.246303 0.0023168 1.99199e-22)
(0.251146 0.00201877 -5.9977e-22)
(0.120349 0.000793051 -4.72644e-23)
(0.12127 0.000245185 -9.50522e-23)
(0.123214 -7.77736e-07 9.68491e-23)
(0.122628 0.000664511 -1.44293e-22)
(0.0387165 9.69936e-05 3.17552e-23)
(0.0390557 -6.02341e-05 2.02726e-24)
(0.0391428 -0.000177315 -8.29953e-23)
(0.0393303 4.98882e-05 -2.02154e-24)
(1.00092 -0.00644997 0)
(1.00632 -0.0163511 0)
(1.01873 -0.0215105 7.30322e-24)
(1.03807 -0.0208737 -5.93845e-21)
(1.0635 -0.0132894 4.52785e-21)
(1.09437 0.00179753 -5.54519e-21)
(1.1297 0.0241348 -8.88043e-25)
(1.16877 0.0516338 2.99141e-25)
(1.21123 0.0803794 -4.2938e-21)
(1.2559 0.104939 6.92424e-21)
(1.29944 0.121635 -4.37679e-21)
(1.33858 0.130563 -1.10347e-23)
(1.37234 0.132757 5.55955e-24)
(1.39313 0.128264 0)
(1.36665 0.113679 -6.70177e-21)
(1.23285 0.0842679 -7.11344e-21)
(0.968198 0.0471765 0)
(0.630672 0.0187722 -6.18424e-22)
(0.393906 0.00774012 -1.05049e-21)
(0.400528 0.00696622 1.05241e-21)
(0.236853 0.00230882 -6.52319e-23)
(0.241354 0.00209354 -4.57318e-22)
(0.116079 0.000696616 -1.37731e-22)
(0.116937 0.000315054 -9.21416e-23)
(0.118865 0.000173911 -4.67911e-23)
(0.118195 0.000626964 0)
(0.0376876 7.07075e-05 1.53019e-23)
(0.038008 -2.66455e-05 0)
(0.0383465 -8.42584e-05 0)
(0.0383089 4.94912e-05 3.0964e-23)
(1.00102 -0.00797505 0)
(1.00627 -0.0211457 -8.52154e-21)
(1.01875 -0.0299383 0)
(1.03868 -0.0331799 0)
(1.06518 -0.0293851 -8.50916e-24)
(1.0974 -0.017664 2.64531e-21)
(1.13366 0.00218121 0)
(1.17243 0.0281586 0)
(1.21258 0.0567198 4.16255e-21)
(1.25298 0.0829314 5.29362e-24)
(1.29173 0.102964 1.81411e-20)
(1.32683 0.115976 0)
(1.35778 0.122587 5.84629e-21)
(1.38338 0.12368 0)
(1.39264 0.119163 0)
(1.3494 0.10484 6.69116e-21)
(1.20148 0.0773405 0)
(0.938165 0.0443359 0)
(0.615871 0.0186524 -9.65622e-21)
(0.38166 0.00762369 1.10577e-21)
(0.386331 0.00686598 1.11208e-21)
(0.228033 0.00232872 -3.89392e-25)
(0.23221 0.00218182 6.41335e-23)
(0.111857 0.00066634 -4.49714e-23)
(0.112711 0.000372588 9.01391e-23)
(0.114689 0.000284371 4.55876e-23)
(0.113954 0.000624189 -9.07072e-23)
(0.0365637 5.66629e-05 1.48687e-23)
(0.0368673 -1.03142e-05 0)
(0.0373305 -4.25688e-05 4.53176e-23)
(0.0371843 4.75139e-05 0)
(1.0011 -0.00943555 -1.74435e-23)
(1.00609 -0.0258372 2.62697e-20)
(1.01847 -0.0383968 1.27117e-23)
(1.0389 -0.0458061 0)
(1.06658 -0.0461564 0)
(1.10061 -0.0380497 4.73551e-24)
(1.13851 -0.0205927 3.51987e-25)
(1.17792 0.00430002 -2.13432e-21)
(1.21681 0.0333323 0)
(1.25391 0.061554 0)
(1.2883 0.0847845 -8.89054e-21)
(1.31926 0.101514 0)
(1.34675 0.111975 -5.94428e-21)
(1.37079 0.117009 -3.25193e-24)
(1.38902 0.117743 0)
(1.38798 0.11319 0)
(1.33062 0.0988948 0)
(1.1727 0.0729652 0)
(0.913687 0.0430014 8.29369e-21)
(0.61138 0.0195232 -2.39474e-21)
(0.377874 0.00774348 -4.311e-21)
(0.377368 0.00665952 -2.1933e-21)
(0.220596 0.00230833 -9.43737e-22)
(0.223877 0.0022275 -6.34695e-23)
(0.107623 0.000658539 -8.84621e-23)
(0.108461 0.000407 2.22559e-23)
(0.110487 0.00035579 2.2288e-23)
(0.109703 0.000638137 -4.45331e-23)
(0.0353335 5.14578e-05 4.35817e-23)
(0.0356452 4.05067e-07 -3.66211e-24)
(0.0361995 -1.84285e-05 -1.4646e-23)
(0.0359875 4.80352e-05 3.65302e-24)
(1.00117 -0.0107822 3.67417e-23)
(1.00572 -0.0303026 1.10619e-21)
(1.01775 -0.0467426 -1.65822e-20)
(1.03851 -0.0586733 -2.72223e-23)
(1.06745 -0.0636845 7.3558e-24)
(1.10382 -0.0596591 0)
(1.14421 -0.0446673 -1.32325e-24)
(1.18537 -0.0205767 2.06775e-21)
(1.22416 0.00962084 0)
(1.25882 0.0404329 0)
(1.28927 0.0670092 0)
(1.316 0.0872921 0)
(1.33965 0.101265 1.17867e-20)
(1.36067 0.109676 6.24568e-24)
(1.37879 0.113772 6.15677e-24)
(1.39071 0.114295 0)
(1.38046 0.109429 0)
(1.31118 0.0950321 0)
(1.14666 0.0704069 3.45902e-24)
(0.894311 0.0428882 8.03416e-24)
(0.605546 0.0200973 -5.9133e-21)
(0.392767 0.00822662 -4.08509e-21)
(0.383663 0.0084191 4.10627e-21)
(0.219913 0.00198347 3.98709e-21)
(0.218339 0.00208358 2.51417e-21)
(0.103699 0.00064584 0)
(0.104344 0.000416608 -4.38572e-23)
(0.106279 0.000391279 4.40722e-23)
(0.105529 0.000650764 0)
(0.0340212 5.00744e-05 0)
(0.0343363 6.16036e-06 0)
(0.0349544 -4.80525e-06 -1.45125e-23)
(0.0346982 5.02653e-05 0)
(1.00122 -0.0119494 3.88411e-23)
(1.00511 -0.034371 -1.85843e-20)
(1.01642 -0.0547602 1.6439e-20)
(1.03719 -0.0716271 0)
(1.0674 -0.0820158 -5.26259e-21)
(1.10671 -0.0827925 -7.06367e-24)
(1.15057 -0.0705803 0)
(1.19489 -0.0471968 0)
(1.23488 -0.0150269 0)
(1.26794 0.0192098 8.04752e-24)
(1.29479 0.0495249 9.63834e-24)
(1.31721 0.0733888 1.08931e-23)
(1.33668 0.0906784 -2.33822e-20)
(1.35408 0.102155 6.25072e-24)
(1.36968 0.109007 -1.2584e-23)
(1.38302 0.112443 3.18728e-24)
(1.38951 0.112598 -6.44653e-21)
(1.37088 0.107224 0)
(1.29169 0.0926475 0)
(1.12312 0.0690644 -5.67091e-26)
(0.875936 0.0423649 1.75295e-23)
(0.591761 0.0205808 -4.70294e-21)
(0.394323 0.00950957 -2.12925e-21)
(0.395793 0.00836883 8.45333e-23)
(0.25181 0.00283539 3.69969e-21)
(0.232518 0.00363353 0)
(0.106658 0.000297386 0)
(0.103086 -5.61291e-05 -6.97566e-22)
(0.102625 0.000334956 -1.30807e-22)
(0.102669 0.000517434 -6.51869e-22)
(0.032734 4.96954e-05 1.41381e-23)
(0.0330066 9.32736e-06 3.0174e-23)
(0.0336348 2.26162e-06 -2.85258e-23)
(0.0333691 5.32482e-05 -1.77512e-24)
(1.00122 -0.0128534 0)
(1.00418 -0.0378149 -3.92601e-23)
(1.01425 -0.0621397 0)
(1.03453 -0.084399 -6.0961e-23)
(1.06587 -0.101114 5.13899e-21)
(1.10874 -0.107722 3.17685e-21)
(1.15715 -0.0989312 -1.31983e-24)
(1.20647 -0.0764414 0)
(1.2493 -0.041282 5.53325e-21)
(1.28161 -0.00245523 0)
(1.30509 0.0322429 1.93975e-24)
(1.32308 0.0598642 -9.52114e-24)
(1.33806 0.0803891 1.15635e-20)
(1.35138 0.0947201 -1.25807e-20)
(1.3636 0.10405 -1.30542e-20)
(1.3749 0.109664 -1.31891e-20)
(1.38447 0.11245 1.30281e-20)
(1.38609 0.112083 -6.41279e-21)
(1.35984 0.106071 6.36412e-21)
(1.27244 0.0911903 0)
(1.10061 0.0677302 5.73046e-28)
(0.855203 0.0418355 1.2151e-20)
(0.573987 0.020346 -4.61452e-21)
(0.383894 0.0100001 1.01995e-21)
(0.389486 0.00927946 -4.03935e-24)
(0.257118 0.00407056 -5.87514e-23)
(0.257931 0.00353327 -3.6672e-21)
(0.154097 0.000795215 -1.30887e-21)
(0.147364 0.000874762 0)
(0.114422 8.10018e-05 -2.77226e-21)
(0.129661 0.00332404 5.29985e-21)
(0.0349787 -0.000399661 0)
(0.0328037 -0.000176742 4.59612e-22)
(0.0324302 -7.9889e-06 4.41078e-23)
(0.0324253 6.34981e-06 -1.7747e-24)
(1.00116 -0.0133936 0)
(1.00285 -0.0403454 0)
(1.011 -0.0684562 0)
(1.03001 -0.0965671 0)
(1.06209 -0.120769 0)
(1.10897 -0.134604 -3.07847e-21)
(1.16308 -0.130427 0)
(1.21996 -0.109447 2.91342e-21)
(1.2678 -0.069903 -5.32937e-21)
(1.30024 -0.0248697 3.191e-24)
(1.32044 0.0151127 -1.02403e-23)
(1.33381 0.0468014 -1.12204e-20)
(1.34398 0.0705588 -1.19854e-23)
(1.3528 0.0875908 1.23906e-20)
(1.36109 0.0992031 1.29132e-20)
(1.36923 0.106707 1.32039e-20)
(1.3773 0.111219 -6.58935e-21)
(1.3838 0.113321 6.45503e-21)
(1.38096 0.112314 2.72613e-23)
(1.34779 0.105529 6.28653e-21)
(1.2532 0.0899375 1.29015e-20)
(1.07754 0.0665065 -1.39496e-20)
(0.832665 0.0412534 7.16597e-24)
(0.55475 0.0196479 -4.31338e-24)
(0.370357 0.00958616 -6.3173e-23)
(0.376882 0.00914341 6.29521e-23)
(0.249278 0.00425485 -7.48737e-22)
(0.253739 0.00410195 5.79126e-23)
(0.156822 0.00172165 0)
(0.157611 0.00147259 3.2909e-22)
(0.157095 0.00115077 6.56044e-22)
(0.158216 0.00149668 3.28633e-22)
(0.0883834 0.0002357 1.75447e-21)
(0.0834072 0.000698342 0)
(0.0386487 -0.00035395 2.08229e-21)
(0.0562429 0.00413934 -3.58295e-21)
(1.00103 -0.0134604 2.38853e-20)
(1.00106 -0.0416182 2.36119e-20)
(1.00643 -0.0731369 0)
(1.02305 -0.107467 1.87527e-20)
(1.05501 -0.14047 -1.4427e-20)
(1.10586 -0.163375 0)
(1.16697 -0.166062 1.11213e-21)
(1.23527 -0.147886 3.12083e-22)
(1.29109 -0.1018 6.71507e-21)
(1.32448 -0.0482997 7.8284e-24)
(1.34121 -0.00185144 1.07437e-23)
(1.34959 0.0343212 1.09632e-20)
(1.3546 0.0613631 -1.23957e-20)
(1.35855 0.0809797 3.72052e-23)
(1.36246 0.0946951 1.24531e-23)
(1.36683 0.103902 0)
(1.37193 0.109804 1.33809e-20)
(1.37758 0.113301 0)
(1.38149 0.114697 -6.36686e-21)
(1.3745 0.112933 -1.24534e-20)
(1.33492 0.105146 -1.23605e-20)
(1.23345 0.0887982 6.3473e-21)
(1.05378 0.0654542 3.42835e-21)
(0.809422 0.0404271 0)
(0.53667 0.0195372 -5.70758e-22)
(0.356285 0.00879272 -9.31671e-22)
(0.362987 0.0085467 9.34556e-22)
(0.239485 0.0039908 -5.72999e-23)
(0.244392 0.00399341 5.45768e-23)
(0.150736 0.00177482 -2.43713e-22)
(0.152234 0.00155714 -1.0164e-22)
(0.155266 0.00149477 2.04779e-22)
(0.153994 0.00172332 -2.05563e-23)
(0.0904221 0.000542724 -2.30422e-24)
(0.09108 0.000477337 -2.21712e-22)
(0.0908693 0.000311368 -5.88797e-22)
(0.0914252 0.000460369 -2.95662e-22)
(0.0280455 -0.000185219 -4.17604e-22)
(0.027342 -0.000457551 -8.15933e-22)
(0.0156469 0.0012362 4.25933e-22)
(1.00082 -0.0129556 -4.8785e-20)
(0.998825 -0.041266 -2.35997e-20)
(1.00038 -0.0754338 0)
(1.013 -0.116052 -1.87487e-20)
(1.04314 -0.15935 -2.21949e-21)
(1.09721 -0.193848 0)
(1.16715 -0.207578 -1.07756e-21)
(1.25324 -0.194539 -9.52885e-21)
(1.3211 -0.138318 -1.40271e-20)
(1.35582 -0.0730171 0)
(1.36818 -0.0185764 -1.15947e-20)
(1.37076 0.0225889 1.22659e-20)
(1.37008 0.0530026 1.20768e-20)
(1.36876 0.0751032 0)
(1.36789 0.0907475 -2.5204e-23)
(1.36804 0.101473 0)
(1.36952 0.108573 -1.33035e-20)
(1.37243 0.113063 6.48106e-24)
(1.37626 0.115632 1.30126e-20)
(1.37793 0.116289 -3.91509e-23)
(1.36698 0.113622 1.22226e-20)
(1.32118 0.104784 0)
(1.2131 0.0878047 -3.00869e-24)
(1.02976 0.0643705 0)
(0.786224 0.0399554 0)
(0.518582 0.0189799 -4.70746e-21)
(0.344213 0.00565203 0)
(0.348036 0.00750356 9.82759e-22)
(0.229986 0.00343888 0)
(0.234668 0.00364357 -1.1364e-22)
(0.14422 0.0016542 1.00149e-22)
(0.145672 0.00144292 2.20816e-22)
(0.148872 0.00145528 -8.06007e-23)
(0.147433 0.00166671 -8.06438e-23)
(0.0866433 0.00056075 7.29788e-23)
(0.0876551 0.000516736 -7.31763e-23)
(0.089513 0.000481002 -1.44688e-22)
(0.0886521 0.0005398 0)
(0.0286434 3.40173e-05 1.70372e-24)
(0.0289024 2.07318e-05 -5.60944e-23)
(0.0289896 -1.69698e-05 -5.07452e-24)
(0.0290844 2.11065e-05 -1.70142e-24)
(1.00053 -0.0118179 2.49106e-20)
(0.996257 -0.0389675 2.63322e-20)
(0.992948 -0.0744779 9.40884e-23)
(0.999202 -0.120785 0)
(1.02446 -0.175962 3.57765e-20)
(1.0804 -0.226152 5.91752e-23)
(1.16228 -0.258162 -3.09554e-21)
(1.27654 -0.253938 6.20469e-21)
(1.36178 -0.181443 7.21915e-21)
(1.39734 -0.0994715 1.14832e-23)
(1.40319 -0.0350009 2.38038e-20)
(1.39824 0.0117917 -1.19466e-20)
(1.39083 0.0456955 2.41007e-23)
(1.38362 0.0701887 2.50156e-23)
(1.37755 0.087579 0)
(1.37309 0.099629 -2.64477e-23)
(1.37051 0.107745 0)
(1.36995 0.113025 0)
(1.37131 0.116288 -1.3079e-20)
(1.37375 0.117998 6.33866e-21)
(1.37336 0.117863 -6.12878e-21)
(1.35848 0.114243 -5.99524e-21)
(1.30661 0.104446 0)
(1.19238 0.0868319 7.04678e-26)
(1.00579 0.0633117 0)
(0.763571 0.039002 3.82075e-21)
(0.273588 0.00406084 0)
(0.500637 0.0188362 0)
(0.221051 0.000390024 -6.41791e-23)
(0.227609 0.00275858 5.62696e-23)
(0.138216 0.00124906 0)
(0.139558 0.00118028 0)
(0.14248 0.00131252 5.98463e-23)
(0.141171 0.00149257 2.58036e-22)
(0.0827348 0.000516442 -1.07811e-22)
(0.0836871 0.000477865 -7.20807e-23)
(0.085581 0.000470973 -7.25196e-23)
(0.0846671 0.000517935 7.23066e-23)
(0.0273512 3.63236e-05 1.67868e-23)
(0.0277041 2.95081e-05 -3.36521e-24)
(0.0283443 1.97568e-05 0)
(0.0280565 3.54042e-05 0)
(1.00019 -0.0100491 0)
(0.993595 -0.0345544 1.28388e-21)
(0.984576 -0.0694947 5.05266e-23)
(0.981641 -0.119764 2.0023e-22)
(0.996983 -0.187486 -1.93407e-20)
(1.05203 -0.259817 -1.58434e-20)
(1.1503 -0.322939 7.75107e-21)
(1.30708 -0.331636 3.00316e-23)
(1.41597 -0.232748 1.21191e-23)
(1.45159 -0.127836 -2.70376e-20)
(1.44844 -0.0510034 -1.21799e-20)
(1.43373 0.00211554 2.4532e-23)
(1.41786 0.0396733 -1.3959e-20)
(1.40362 0.0664648 0)
(1.39165 0.0854086 2.68658e-23)
(1.38214 0.0985677 2.67465e-23)
(1.37513 0.107507 2.64279e-23)
(1.37066 0.113404 0)
(1.3687 0.117139 1.33296e-20)
(1.36899 0.119335 0)
(1.37032 0.120234 1.24944e-20)
(1.36795 0.119302 5.98911e-21)
(1.34912 0.114779 0)
(1.29141 0.104071 5.81281e-21)
(1.17149 0.0858559 2.96053e-24)
(0.982245 0.0622383 0)
(0.741859 0.038317 0)
(0.261156 0.00493689 0)
(0.0994471 0.000912569 6.50834e-23)
(0.100516 0.000121853 -6.49853e-23)
(0.484506 0.0184384 -4.43624e-24)
(0.103972 0.000705781 0)
(0.13661 0.000462229 0)
(0.135902 -0.000397123 0)
(0.0794615 0.000272376 0)
(0.0801453 0.000362433 -1.77841e-23)
(0.0817622 0.000420439 -7.13715e-23)
(0.0809577 0.00044957 -5.33878e-23)
(0.0260619 3.26237e-05 2.65076e-23)
(0.0263874 2.68607e-05 0)
(0.0270171 2.02725e-05 -1.34303e-23)
(0.0267225 3.34052e-05 0)
(0.999823 -0.0077226 0)
(0.991148 -0.0281077 -2.76921e-20)
(0.976162 -0.0601299 -2.93664e-20)
(0.961705 -0.111141 2.94609e-20)
(0.960998 -0.189085 -1.91509e-22)
(1.00639 -0.289223 -5.25281e-21)
(1.12194 -0.405167 -1.23071e-20)
(1.3347 -0.430378 0)
(1.47248 -0.289728 -3.24378e-23)
(1.50968 -0.155468 5.79632e-20)
(1.49959 -0.0654217 -2.87942e-23)
(1.47644 -0.00589784 0)
(1.45191 0.0352559 2.82998e-20)
(1.4296 0.0641894 -1.44945e-20)
(1.41072 0.0844507 0)
(1.39545 0.098483 -1.41503e-20)
(1.38357 0.108031 -2.67665e-23)
(1.37484 0.114364 0)
(1.36911 0.118408 1.71149e-22)
(1.36624 0.120844 1.31239e-20)
(1.3658 0.12211 -2.52767e-20)
(1.36618 0.122258 -2.93147e-24)
(1.3618 0.120578 -6.40094e-26)
(1.33905 0.115196 -5.6751e-21)
(1.27576 0.103624 0)
(1.15067 0.0848754 -5.87957e-21)
(0.959493 0.0612847 -3.09198e-24)
(0.721733 0.0376145 7.42039e-21)
(0.250844 0.00505325 1.75269e-22)
(0.0954849 0.000992744 -6.34933e-23)
(0.0969563 0.00018019 -3.19245e-23)
(0.0227407 0.000152549 1.19787e-23)
(0.0227981 -6.96308e-06 1.72311e-24)
(0.0230097 7.99194e-05 -2.78295e-23)
(0.0231883 -0.000159129 2.79258e-23)
(0.470511 0.0179444 -4.55486e-21)
(0.0236893 0.000283065 0)
(0.023789 4.11194e-06 0)
(0.078369 -0.00104662 0)
(0.0796325 -0.000239706 3.51198e-23)
(0.0250075 2.12013e-05 -3.27376e-24)
(0.0252433 1.6057e-05 3.26778e-24)
(0.0257622 1.72106e-05 0)
(0.0255096 2.75452e-05 0)
(0.999457 -0.00497414 -5.53069e-23)
(0.989206 -0.0199797 0)
(0.968883 -0.0466909 2.98014e-20)
(0.942267 -0.0938868 -3.01004e-20)
(0.920263 -0.175297 -3.20614e-20)
(0.937578 -0.301611 2.13048e-20)
(1.05019 -0.491822 7.71803e-21)
(1.31892 -0.540866 -3.0166e-24)
(1.48371 -0.339708 3.61136e-20)
(1.5295 -0.1731 8.0035e-21)
(1.5288 -0.0737561 -6.44805e-23)
(1.51211 -0.0102029 2.95162e-23)
(1.48768 0.0333285 -1.43251e-20)
(1.46056 0.0637971 -9.69046e-22)
(1.4351 0.0849742 0)
(1.41349 0.0995703 -5.1317e-22)
(1.39614 0.109484 0)
(1.38273 0.116053 0)
(1.37289 0.120242 -2.68579e-20)
(1.36636 0.122759 -1.30244e-20)
(1.36291 0.124107 2.56045e-20)
(1.36196 0.124568 -5.94413e-24)
(1.36146 0.124047 2.91549e-24)
(1.35505 0.121671 -5.55158e-24)
(1.32842 0.115464 0)
(1.2598 0.103089 -1.79449e-23)
(1.13017 0.083894 0)
(0.937908 0.0603272 -6.31848e-21)
(0.703598 0.0368967 -7.33195e-21)
(0.241854 0.00493243 5.84069e-21)
(0.0912202 0.00104778 -3.12988e-23)
(0.0928752 0.000298374 -2.1918e-22)
(0.0218656 0.000143996 1.35544e-23)
(0.0219989 9.83882e-06 2.71001e-23)
(0.0222808 4.99763e-05 2.72382e-23)
(0.0224017 -0.000127639 -1.37185e-23)
(0.459834 0.0175009 -8.9559e-21)
(0.0246232 -0.000328762 1.62751e-24)
(0.0251547 -9.18869e-05 -2.76081e-23)
(0.999119 -0.00197624 2.80201e-20)
(0.987969 -0.0107219 1.79116e-22)
(0.963743 -0.0301443 2.66105e-22)
(0.926655 -0.0687094 -3.51414e-20)
(0.879879 -0.143331 7.22886e-20)
(0.848402 -0.28396 -7.15981e-22)
(0.898062 -0.543699 5.43586e-21)
(1.17843 -0.629201 -1.43602e-21)
(1.34888 -0.349014 -2.455e-20)
(1.41652 -0.163202 -9.37649e-20)
(1.46515 -0.0665508 0)
(1.49587 -0.00629255 1.35429e-22)
(1.50095 0.0361083 0)
(1.48599 0.0662678 -1.03972e-21)
(1.46147 0.0874581 5.75093e-23)
(1.43577 0.102104 1.41526e-20)
(1.41307 0.112046 0)
(1.3946 0.118614 -2.67316e-23)
(1.38027 0.12277 2.70412e-20)
(1.36976 0.12522 1.3337e-20)
(1.36276 0.126487 -2.57498e-20)
(1.35897 0.12693 1.25107e-20)
(1.35765 0.12671 1.16825e-23)
(1.3563 0.125598 1.15115e-20)
(1.34783 0.122563 2.73183e-24)
(1.31733 0.115572 5.3824e-21)
(1.24372 0.102466 0)
(1.11024 0.082882 0)
(0.917767 0.0593783 6.02448e-24)
(0.687981 0.0363486 0)
(0.235785 0.00447789 1.2094e-20)
(0.087254 0.00105388 -3.07873e-23)
(0.0886259 0.00029591 -4.77941e-22)
(0.0208086 0.000153853 0)
(0.020966 1.58112e-05 2.66365e-23)
(0.0212974 5.89676e-05 0)
(0.0214636 -0.000110828 -1.33609e-23)
(0.45514 0.0182877 -8.70597e-21)
(0.998823 0.0010918 -5.57831e-20)
(0.987499 -0.000970659 -3.01732e-20)
(0.961256 -0.0118723 3.25103e-20)
(0.917225 -0.0382292 -1.62881e-21)
(0.849528 -0.0956186 -8.36307e-20)
(0.761187 -0.22573 4.02143e-22)
(0.782264 -0.458317 7.27215e-22)
(0.698512 -0.429743 0)
(0.961967 -0.744575 2.61387e-21)
(0.768921 -0.691693 1.68732e-22)
(0.693137 -0.607932 -1.03296e-20)
(1.16829 -0.393991 -6.48283e-23)
(0.807666 -0.497037 3.3549e-23)
(0.824359 -0.263057 0)
(1.03751 -0.0989852 9.80244e-20)
(0.900461 -0.16635 -3.47111e-20)
(1.20186 -0.0310384 5.4492e-20)
(1.34808 0.0111437 0)
(1.43737 0.046524 3.75859e-20)
(1.47408 0.0731669 1.5959e-20)
(1.47449 0.0927053 0)
(1.45649 0.106529 -5.81344e-23)
(1.43287 0.115982 -2.76875e-23)
(1.41037 0.122216 2.69453e-23)
(1.39148 0.126113 -1.34191e-20)
(1.37669 0.128336 -1.31925e-20)
(1.36581 0.129387 1.28245e-20)
(1.35857 0.12964 -1.25364e-20)
(1.3546 0.129341 -1.21624e-20)
(1.35299 0.12855 -1.15844e-20)
(1.35079 0.126908 -5.43579e-24)
(1.34021 0.12325 -2.58567e-24)
(1.30591 0.115524 -5.26074e-21)
(1.22768 0.101754 0)
(1.09106 0.0818547 5.55032e-21)
(0.899258 0.0585541 -2.95884e-24)
(0.675282 0.0364403 0)
(0.244191 0.00533373 1.01129e-20)
(0.085945 0.00104426 5.96811e-23)
(0.0852798 8.21517e-05 -2.06169e-21)
(0.0197546 0.000158276 0)
(0.0198832 1.75541e-05 2.61649e-23)
(0.0202157 6.49417e-05 -3.29492e-24)
(0.020388 -0.000114629 -9.89508e-24)
(0.450395 0.0180698 -8.52319e-24)
(0.998575 0.00407073 2.77281e-20)
(0.98773 0.00867344 3.00884e-20)
(0.961376 0.00665702 -3.30853e-20)
(0.914668 -0.00589937 7.67296e-20)
(0.835789 -0.0398925 4.56462e-20)
(0.708363 -0.129844 5.65181e-20)
(0.621439 -0.368373 7.3587e-23)
(0.558026 -0.293402 2.23382e-20)
(0.560061 -0.553226 0)
(0.655958 -0.682532 0)
(0.459068 -0.472677 0)
(0.381059 -0.324468 7.6818e-21)
(0.597571 -0.476964 -5.67997e-21)
(0.550188 -0.633296 -2.96203e-21)
(0.610839 -0.280192 -5.4835e-23)
(0.236628 -0.120552 -5.59373e-21)
(0.20873 -0.1391 0)
(0.196493 -0.0519097 -4.8191e-21)
(0.312653 -0.0779286 0)
(0.658778 -0.166996 0)
(0.605408 -0.0138846 -2.57015e-20)
(0.674233 0.0334012 -5.39705e-20)
(0.370301 0.0179214 -3.93173e-20)
(0.460908 -0.0514001 -4.70693e-22)
(0.996056 0.0436919 5.64368e-20)
(1.22672 0.0645026 -4.25255e-20)
(1.36913 0.0848821 1.45352e-22)
(1.43799 0.101193 3.4071e-20)
(1.45644 0.113284 1.57292e-20)
(1.44734 0.121629 0)
(1.42738 0.127092 6.32443e-25)
(1.406 0.130427 -1.3834e-20)
(1.38726 0.132216 -2.63029e-23)
(1.37234 0.132906 0)
(1.36132 0.132841 -1.26769e-20)
(1.35399 0.132278 1.21943e-20)
(1.34996 0.131378 -1.17861e-20)
(1.34809 0.130105 0)
(1.34502 0.127983 7.10142e-26)
(1.33227 0.123737 5.20389e-21)
(1.29427 0.11532 0)
(1.21182 0.100956 0)
(1.07272 0.0808578 0)
(0.88231 0.0579578 2.99211e-24)
(0.663114 0.0357683 -7.0345e-21)
(0.249568 0.00601442 2.54156e-21)
(0.113848 0.000573031 0)
(0.097133 0.000700587 -1.92962e-21)
(0.0203773 0.000109645 0)
(0.0192255 -0.00014895 -6.578e-24)
(0.0193456 5.19875e-06 1.10095e-22)
(0.0193567 -0.000141616 0)
(0.44081 0.0177939 0)
(0.998372 0.00683833 0)
(0.988508 0.0177273 2.86494e-23)
(0.963615 0.0241949 -1.35283e-22)
(0.918274 0.0249905 -7.71596e-20)
(0.838821 0.0155856 0)
(0.701457 -0.0223961 -6.1957e-20)
(0.515013 -0.198484 -2.43737e-20)
(0.490099 -0.098758 4.30601e-22)
(0.424162 -0.462737 -2.17179e-20)
(0.317916 -0.349633 2.23717e-20)
(0.278073 -0.47151 3.66152e-21)
(0.433811 -0.583216 -1.06315e-21)
(0.344929 -0.37115 0)
(0.186821 -0.213824 5.02084e-24)
(0.179203 -0.010132 1.06184e-20)
(0.317518 0.0143663 0)
(0.231703 0.0240579 -1.44502e-20)
(0.23468 0.0473563 1.97144e-20)
(0.481531 0.073677 -7.95472e-20)
(0.19339 0.0282745 -4.90204e-20)
(0.159014 0.0225636 -1.45892e-23)
(0.117683 0.00996641 0)
(0.844912 0.0814807 8.42115e-24)
(1.11985 0.0968485 0)
(1.30092 0.110874 -3.68545e-20)
(1.39806 0.121685 -1.62308e-20)
(1.43453 0.128938 0)
(1.43533 0.133405 -5.53509e-23)
(1.42001 0.135892 -2.61135e-22)
(1.40045 0.136998 -5.22488e-23)
(1.38227 0.137143 0)
(1.36747 0.136627 2.53043e-20)
(1.35648 0.135677 1.23088e-20)
(1.34918 0.134466 1.18423e-20)
(1.34514 0.133077 -1.12724e-23)
(1.34304 0.131393 5.25153e-24)
(1.33904 0.128831 1.04928e-20)
(1.32407 0.124027 0)
(1.28248 0.114965 0)
(1.19621 0.100091 0)
(1.05517 0.0798945 0)
(0.865969 0.0569439 5.95793e-21)
(0.649013 0.0349461 0)
(0.243857 0.00620721 -3.09605e-22)
(0.116877 0.002016 -6.28049e-23)
(0.117533 0.00115822 -3.8066e-21)
(0.0544956 0.000115227 1.88513e-23)
(0.0504332 0.000721261 -3.27915e-23)
(0.0333028 0.00251108 3.25412e-21)
(0.0228853 -0.000337842 -1.8194e-21)