/*--------------------------------*- C++ -*----------------------------------*\
| =========                 |                                                 |
| \\      /  F ield         | OpenFOAM: The Open Source CFD Toolbox           |
|  \\    /   O peration     | Version:  v1912                                 |
|   \\  /    A nd           | Website:  www.openfoam.com                      |
|    \\/     M anipulation  |                                                 |
\*---------------------------------------------------------------------------*/
FoamFile
{
    version     2.0;
    format      ascii;
    class       volScalarField;
    location    "170";
    object      p;
}
// * * * * * * * * * * * * * * * * * * * * * * * * * * * * * * * * * * * * * //

dimensions      [0 2 -2 0 0 0 0];


internalField   nonuniform List<scalar> 
3675
(
0.252908
0.250479
0.259371
0.245789
0.256405
0.277778
0.239146
0.250725
0.273285
0.311072
0.230957
0.242786
0.264835
0.303298
0.365336
0.221667
0.23316
0.253369
0.28905
0.350082
0.452075
0.211722
0.222441
0.239955
0.270488
0.323624
0.41955
0.56212
0.543427
0.201532
0.211178
0.225582
0.249889
0.291351
0.368745
0.510033
0.454811
0.660695
0.632337
0.191458
0.199843
0.211039
0.229065
0.258356
0.308656
0.397122
0.578554
0.518822
0.734215
0.720185
0.658799
0.696057
0.181805
0.188823
0.196907
0.20911
0.227728
0.255191
0.285742
0.363472
0.26336
0.621078
0.552084
0.46283
0.767374
0.748687
0.648637
0.701227
0.172822
0.178426
0.183593
0.190619
0.200418
0.212053
0.211445
0.10871
0.185857
0.222144
0.0408433
0.622197
0.521724
0.271341
0.290786
0.164711
0.168891
0.171378
0.173903
0.176567
0.176967
0.160936
0.0660949
-0.29884
-0.240539
-0.0156226
-0.00766064
-0.240584
-0.220086
0.594704
0.391388
0.212283
0.157632
0.160403
0.160445
0.159101
0.156063
0.148341
0.123567
0.0433911
-0.26027
-0.511751
-0.349352
-0.435088
-0.154532
-0.259266
0.151712
0.153102
0.150911
0.146245
0.138648
0.125112
0.0954944
0.0256612
-0.18587
-0.412384
-0.487932
-0.55694
-0.502411
-0.447667
-0.522337
0.147051
0.147098
0.142858
0.135305
0.124018
0.10629
0.0741986
0.0113176
-0.139087
-0.325016
-0.374414
-0.447846
-0.5261
-0.458963
-0.52142
0.143731
0.142475
0.136336
0.12623
0.111884
0.0910269
0.0576967
0.000483701
-0.112075
-0.255785
-0.32866
-0.346688
-0.394843
-0.411638
-0.425324
-0.466221
-0.484523
0.141819
0.139301
0.131386
0.11897
0.101992
0.0786642
0.0446365
-0.00793027
-0.0966908
-0.210434
-0.286339
-0.322316
-0.331111
-0.360563
-0.374419
-0.398851
-0.442379
-0.42947
0.14137
0.137636
0.128043
0.113484
0.0941417
0.0687041
0.0341235
-0.0148584
-0.0881285
-0.180293
-0.252534
-0.295026
-0.319001
-0.317592
-0.334237
-0.343752
-0.364292
-0.382925
-0.406198
-0.402511
0.142431
0.137531
0.126341
0.109753
0.0881892
0.060784
0.0255397
-0.0208784
-0.083892
-0.160484
-0.226671
-0.270757
-0.300685
-0.311031
-0.306891
-0.317829
-0.324371
-0.336057
-0.346799
-0.36134
-0.369825
-0.390906
-0.380563
-0.407513
-0.39582
0.145038
0.139031
0.126323
0.10778
0.0840399
0.0546516
0.0184679
-0.0263578
-0.0825815
-0.148121
-0.208001
-0.251608
-0.283
-0.300118
-0.302708
-0.298877
-0.306735
-0.311473
-0.319166
-0.32617
-0.334432
-0.339559
-0.351692
-0.345066
-0.362111
-0.370337
-0.391117
-0.381098
0.149218
0.142177
0.128039
0.107595
0.0816558
0.0501417
0.012618
-0.0315442
-0.0834023
-0.141188
-0.19539
-0.237464
-0.268749
-0.288825
-0.296427
-0.296069
-0.29229
-0.298571
-0.302341
-0.307821
-0.312752
-0.318252
-0.321619
-0.329169
-0.325074
-0.334945
-0.339894
-0.352146
-0.345651
0.154982
0.147001
0.131548
0.109261
0.0810542
0.0471769
0.00780079
-0.0366164
-0.0859238
-0.138374
-0.187758
-0.227716
-0.258136
-0.27921
-0.289759
-0.292391
-0.290323
-0.286278
-0.291854
-0.295187
-0.299496
-0.303304
-0.307309
-0.309711
-0.314881
-0.31211
-0.318682
-0.321914
-0.329487
-0.325505
0.16232
0.153524
0.136916
0.112873
0.0823126
0.0457581
0.00390468
-0.0417097
-0.0899604
-0.138897
-0.184333
-0.221873
-0.250928
-0.271876
-0.28392
-0.28855
-0.288175
-0.284735
-0.280191
-0.285791
-0.288986
-0.292699
-0.295966
-0.299194
-0.30109
-0.304963
-0.302908
-0.3077
-0.310001
-0.315181
-0.312493
0.171192
0.161749
0.144215
0.118564
0.085573
0.0459702
0.000887875
-0.0469329
-0.0954806
-0.142353
-0.184615
-0.219605
-0.24691
-0.267019
-0.279526
-0.285283
-0.286153
-0.28354
-0.279076
-0.274308
-0.27955
-0.283029
-0.286641
-0.289652
-0.292485
-0.294158
-0.297384
-0.295684
-0.299574
-0.301383
-0.305258
-0.303273
0.181515
0.171649
0.153517
0.126504
0.0910556
0.047988
-0.00122847
-0.0523876
-0.102598
-0.148631
-0.188346
-0.220702
-0.245917
-0.264659
-0.276872
-0.283059
-0.284639
-0.282758
-0.278628
-0.273834
-0.270846
-0.274927
-0.276049
-0.280638
-0.283846
-0.286386
-0.288028
-0.290951
-0.289376
-0.292862
-0.294449
-0.29768
-0.296045
0.193151
0.183151
0.164879
0.136902
0.0990721
0.0521022
-0.00234282
-0.0581708
-0.111587
-0.157882
-0.195481
-0.225071
-0.247843
-0.264767
-0.276066
-0.282099
-0.283911
-0.282465
-0.278683
-0.273865
-0.269928
-0.265398
-0.270235
-0.272989
-0.276001
-0.275842
-0.280724
-0.282427
-0.285074
-0.283511
-0.286748
-0.288286
-0.291234
-0.289736
0.205883
0.196124
0.178331
0.150004
0.110045
0.058739
-0.00223991
-0.0643692
-0.122932
-0.170553
-0.206204
-0.232734
-0.252652
-0.267314
-0.277163
-0.282508
-0.284111
-0.282765
-0.279177
-0.274313
-0.269548
-0.264667
-0.259367
-0.264573
-0.267295
-0.270707
-0.273708
-0.276241
-0.277647
-0.27869
-0.273997
-0.281749
-0.282706
-0.285266
-0.283843
0.219402
0.210347
0.193845
0.166072
0.124534
0.068513
-0.000544273
-0.0710482
-0.137422
-0.187432
-0.220935
-0.24385
-0.260375
-0.2723
-0.280199
-0.284358
-0.28533
-0.28374
-0.28013
-0.275186
-0.269849
-0.264397
-0.258675
-0.25346
-0.258753
-0.261565
-0.26508
-0.267812
-0.270467
-0.271727
-0.274608
-0.273357
-0.276815
-0.28099
-0.281705
-0.271538
0.233289
0.22548
0.211305
0.185364
0.143219
0.0823332
0.00338095
-0.0782804
-0.156338
-0.209764
-0.240356
-0.258701
-0.271114
-0.279755
-0.285203
-0.287701
-0.287635
-0.285461
-0.281579
-0.276462
-0.270732
-0.264753
-0.258546
-0.252767
-0.246779
-0.252836
-0.25576
-0.259338
-0.262168
-0.264868
-0.266219
-0.268909
-0.267626
-0.270761
-0.272069
-0.275006
-0.273568
-0.276553
-0.280586
-0.268053
0.247011
0.241029
0.23043
0.208101
0.166832
0.10144
0.0107075
-0.0862746
-0.181868
-0.239428
-0.26543
-0.277693
-0.285035
-0.289739
-0.292205
-0.292574
-0.291072
-0.287986
-0.283571
-0.27813
-0.272061
-0.265659
-0.259015
-0.252599
-0.246751
-0.241375
-0.242137
-0.24946
-0.253656
-0.25641
-0.259087
-0.260518
-0.26333
-0.261943
-0.265196
-0.266559
-0.269276
-0.267953
-0.271058
-0.272351
-0.275198
-0.273798
0.25994
0.256325
0.250642
0.23428
0.196321
0.127325
0.0234274
-0.0956814
-0.217842
-0.279323
-0.297457
-0.301346
-0.30236
-0.30234
-0.301238
-0.298999
-0.295671
-0.291354
-0.286149
-0.280206
-0.273752
-0.266983
-0.259981
-0.253036
-0.246514
-0.240628
-0.241925
-0.23496
-0.252235
-0.250349
-0.253285
-0.254725
-0.257552
-0.256119
-0.259402
-0.260829
-0.263675
-0.262271
-0.265508
-0.266844
-0.26958
-0.268256
0.271415
0.270541
0.270936
0.263268
0.233029
0.162895
0.0436057
-0.108401
-0.270778
-0.333829
-0.338187
-0.330312
-0.323358
-0.317667
-0.312334
-0.306985
-0.301444
-0.295588
-0.289344
-0.282711
-0.275773
-0.268628
-0.261314
-0.253982
-0.246919
-0.24035
-0.234402
-0.23554
-0.240928
-0.244666
-0.22917
-0.249342
-0.251144
-0.246776
-0.253665
-0.254997
-0.257863
-0.256422
-0.259695
-0.261089
-0.263962
-0.262568
0.280807
0.282787
0.289869
0.293451
0.277377
0.214933
0.0738264
-0.129251
-0.351641
-0.408661
-0.3898
-0.365377
-0.348387
-0.335851
-0.325519
-0.316528
-0.308383
-0.300689
-0.293169
-0.285662
-0.278118
-0.270537
-0.262907
-0.255276
-0.247819
-0.240741
-0.234227
-0.228493
-0.230007
-0.234962
-0.237872
-0.240493
-0.242324
-0.244045
-0.245687
-0.223388
-0.247556
-0.249492
-0.254581
-0.25226
-0.25385
-0.255201
-0.258119
-0.256689
0.287596
0.292251
0.305816
0.322005
0.326534
0.286946
0.127896
-0.16476
-0.475962
-0.509803
-0.453998
-0.407188
-0.377843
-0.357052
-0.340815
-0.327604
-0.316463
-0.306644
-0.297623
-0.289065
-0.280787
-0.272688
-0.264699
-0.256794
-0.24904
-0.241571
-0.234562
-0.228224
-0.222607
-0.224363
-0.229368
-0.232231
-0.234679
-0.236198
-0.237482
-0.238862
-0.217298
-0.252019
-0.25208
0.291426
0.29833
0.317374
0.345326
0.373834
0.368467
0.23087
-0.211514
-0.645434
-0.63817
-0.528351
-0.4553
-0.411711
-0.381353
-0.358225
-0.340178
-0.325641
-0.313418
-0.302685
-0.292913
-0.283775
-0.275069
-0.266658
-0.258458
-0.250455
-0.242698
-0.235298
-0.228442
-0.222262
-0.216587
-0.218458
-0.223565
-0.226574
-0.229058
-0.230588
-0.231873
-0.233187
-0.210943
0.292129
0.300702
0.323664
0.360556
0.410012
0.453238
0.332345
0.429326
-0.0476083
0.02083
0.354403
-0.697736
-0.415199
-0.829707
-0.766033
-0.841998
-0.59839
-0.505047
-0.448399
-0.408222
-0.377588
-0.354176
-0.335858
-0.320959
-0.308319
-0.297183
-0.287069
-0.277668
-0.268769
-0.260231
-0.251981
-0.244
-0.236324
-0.22907
-0.222395
-0.216308
-0.210701
-0.211252
-0.217774
-0.220786
-0.22316
-0.224792
-0.226144
-0.227524
-0.206682
0.289718
0.299331
0.324447
0.366422
0.429163
0.514022
0.503268
0.570163
0.459951
0.20044
0.0572962
-0.301018
-0.241536
0.239965
-0.670015
-0.594689
-0.487953
-1.03889
-0.750898
-0.826929
-0.829031
-0.644482
-0.802726
-0.921876
-0.54251
-0.48272
-0.435313
-0.398079
-0.369329
-0.347006
-0.329203
-0.314475
-0.301838
-0.290647
-0.280471
-0.27102
-0.262095
-0.253572
-0.245385
-0.237508
-0.229986
-0.222926
-0.216424
-0.210538
-0.205818
-0.207668
-0.211706
-0.212592
-0.217826
-0.219183
-0.220169
-0.221586
-0.20101
0.284354
0.294421
0.320047
0.363239
0.430564
0.535148
0.613698
0.648808
0.554276
0.637725
0.433926
0.283896
0.0163161
-0.00940869
-0.929854
-0.881683
-0.872852
-0.701318
-0.557868
-0.647675
-0.825744
-0.78781
-0.505585
-0.457597
-0.417362
-0.384758
-0.358769
-0.33802
-0.321083
-0.306833
-0.294474
-0.283455
-0.273395
-0.264037
-0.255209
-0.246803
-0.238753
-0.231046
-0.223724
-0.216877
-0.210616
-0.205266
-0.200276
-0.201769
-0.206715
-0.20952
-0.211804
-0.213724
-0.210803
-0.215994
-0.194936
0.276306
0.286342
0.31119
0.352595
0.416515
0.521068
0.651862
0.623796
0.696687
0.673277
0.763066
0.44178
0.538817
0.725673
0.7121
0.635176
0.409527
0.120224
-0.911427
-0.885491
-0.721691
-0.688703
-0.585972
-0.514065
-0.55212
-0.661651
-0.630648
-0.828843
-0.788365
-0.470121
-0.431633
-0.398495
-0.370291
-0.347083
-0.328012
-0.3121
-0.298509
-0.28659
-0.275875
-0.266043
-0.256877
-0.248232
-0.240008
-0.232152
-0.224656
-0.217562
-0.210967
-0.205082
-0.199732
-0.19432
-0.195655
-0.20079
-0.203664
-0.206225
-0.207625
-0.209066
-0.210323
-0.211564
-0.213955
-0.208356
-0.189212
0.265903
0.275544
0.29875
0.33658
0.392382
0.476819
0.602064
0.752919
0.715613
0.775731
0.813916
0.820603
0.774376
-0.716042
-0.686598
-0.596144
-0.574063
-0.524113
-0.474311
-0.502246
-0.560386
-0.543335
-0.658738
-0.628482
-0.438685
-0.408032
-0.379971
-0.355632
-0.334955
-0.317513
-0.30269
-0.289839
-0.278434
-0.268096
-0.258564
-0.249657
-0.241247
-0.233251
-0.225624
-0.218366
-0.211523
-0.205228
-0.199468
-0.193877
-0.188584
-0.189931
-0.194856
-0.197723
-0.200361
-0.201864
-0.203266
-0.204636
-0.206472
-0.207859
-0.209147
-0.210355
-0.183669
0.253498
0.262496
0.283567
0.317059
0.363565
0.42555
0.496429
0.572065
0.487391
0.786693
0.758768
0.669578
0.720703
0.806511
-0.594475
-0.572162
-0.527898
-0.513106
-0.481662
-0.440608
-0.463529
-0.500393
-0.560496
-0.542401
-0.412606
-0.386194
-0.362456
-0.341274
-0.322794
-0.3069
-0.293149
-0.281042
-0.270177
-0.260257
-0.251069
-0.242459
-0.234318
-0.226576
-0.2192
-0.212192
-0.205615
-0.199498
-0.193664
-0.188137
-0.183043
-0.184364
-0.189124
-0.191944
-0.194444
-0.19593
-0.197315
-0.198735
-0.200616
-0.202105
-0.203443
-0.204791
-0.178206
0.23944
0.247641
0.266364
0.295431
0.333281
0.377866
0.415658
0.333566
0.594685
0.367654
0.389338
0.274042
0.734066
0.62551
-0.56597
-0.526597
-0.517624
-0.480045
-0.446593
-0.413639
-0.432738
-0.462612
-0.494415
-0.505584
-0.557137
-0.540547
-0.388832
-0.36661
-0.346099
-0.327426
-0.310902
-0.296421
-0.283653
-0.272258
-0.261938
-0.252456
-0.243633
-0.235339
-0.227485
-0.220013
-0.212893
-0.206137
-0.199761
-0.193688
-0.187918
-0.182576
-0.177592
-0.17888
-0.183529
-0.186306
-0.188709
-0.190162
-0.191512
-0.192905
-0.194673
-0.196137
-0.197463
-0.198859
-0.17284
0.224053
0.231383
0.247711
0.272662
0.303174
0.335178
0.35507
0.290659
0.0938963
0.121122
0.530676
0.280142
0.103223
0.106204
-0.524998
-0.51602
-0.483194
-0.474135
-0.445171
-0.419058
-0.388972
-0.406122
-0.432122
-0.458469
-0.466002
-0.368255
-0.348925
-0.330785
-0.31429
-0.299458
-0.286183
-0.2743
-0.263586
-0.253804
-0.244759
-0.236306
-0.228337
-0.220777
-0.213574
-0.206706
-0.200165
-0.193906
-0.187927
-0.182326
-0.177121
-0.172237
-0.173495
-0.17804
-0.180773
-0.183114
-0.18454
-0.185864
-0.187229
-0.188928
-0.190354
-0.191643
-0.193006
-0.167583
0.207643
0.21406
0.228022
0.249373
0.274051
0.297193
0.306815
0.258768
0.110651
0.0616613
0.0556678
0.072535
0.107077
0.0682824
-0.447316
-0.441911
-0.417797
-0.393804
-0.368161
-0.382234
-0.405166
-0.427596
-0.434907
-0.350045
-0.332584
-0.316637
-0.30196
-0.288471
-0.27623
-0.265167
-0.255096
-0.245828
-0.237211
-0.229125
-0.221478
-0.214206
-0.207264
-0.200623
-0.194244
-0.188113
-0.182294
-0.176849
-0.17176
-0.166988
-0.168216
-0.172657
-0.175345
-0.177628
-0.179027
-0.180329
-0.181671
-0.183326
-0.184725
-0.185988
-0.187321
-0.162428
0.190499
0.195934
0.207552
0.225911
0.246234
0.263418
0.267492
0.231495
0.130234
0.0716187
0.0637421
0.0425073
0.0531642
0.0712921
0.0440094
-0.443846
-0.440841
-0.419966
-0.413484
-0.392861
-0.372123
-0.349399
-0.362354
-0.381278
-0.401247
-0.407512
-0.426761
-0.433828
-0.333159
-0.317794
-0.303658
-0.290289
-0.277918
-0.266622
-0.256307
-0.246827
-0.238046
-0.22984
-0.222109
-0.214774
-0.207778
-0.201077
-0.194628
-0.188405
-0.182437
-0.176782
-0.171467
-0.166504
-0.161842
-0.163039
-0.167379
-0.170022
-0.172248
-0.17362
-0.174899
-0.176218
-0.177832
-0.179205
-0.180446
-0.181757
-0.157373
0.172731
0.177245
0.186353
0.202401
0.219752
0.233233
0.234848
0.207848
0.13894
0.0877089
0.0703352
0.0597214
0.0521735
0.0571205
0.0521073
0.0352054
-0.418973
-0.412853
-0.394843
-0.389058
-0.371347
-0.352682
-0.332632
-0.341234
-0.361768
-0.377551
-0.38363
-0.400619
-0.406659
-0.318013
-0.304498
-0.291455
-0.279192
-0.267851
-0.257386
-0.247732
-0.2388
-0.230478
-0.222664
-0.21527
-0.20823
-0.201492
-0.195006
-0.188736
-0.182684
-0.176882
-0.171371
-0.166192
-0.161353
-0.156787
-0.157964
-0.162203
-0.164803
-0.166973
-0.168318
-0.169575
-0.170871
-0.172444
-0.17379
-0.17501
-0.176299
-0.152405
0.154227
0.158166
0.16429
0.178793
0.194464
0.206001
0.207112
0.187315
0.139613
0.0985714
0.079801
0.0654086
0.0589564
0.062422
0.0456918
0.0574759
0.0515759
0.0526609
0.0472529
-0.393909
-0.388566
-0.373076
-0.368108
-0.351977
-0.330921
-0.31744
-0.345735
-0.3586
-0.363452
-0.376817
-0.383789
-0.304678
-0.29195
-0.279928
-0.268732
-0.258257
-0.248503
-0.239455
-0.231031
-0.223136
-0.215687
-0.208611
-0.201847
-0.195343
-0.189057
-0.182968
-0.177086
-0.171439
-0.166071
-0.161025
-0.156291
-0.151812
-0.15299
-0.157127
-0.159687
-0.161801
-0.163121
-0.164355
-0.165629
-0.167161
-0.168482
-0.169679
-0.170946
-0.147516
0.138064
0.138076
0.141225
0.154961
0.170187
0.181152
0.183012
0.169164
0.136062
0.103906
0.0858342
0.070159
0.0595066
0.0582604
0.0604851
0.0562341
0.0537109
0.0536392
0.0485877
0.0493764
-0.37324
-0.367601
-0.353216
-0.347551
-0.334542
-0.316178
-0.3262
-0.304328
-0.343805
-0.358017
-0.362798
-0.374553
-0.291899
-0.280127
-0.269199
-0.258839
-0.249083
-0.23998
-0.231483
-0.223521
-0.21602
-0.208913
-0.202131
-0.19562
-0.189334
-0.183241
-0.17733
-0.17161
-0.16611
-0.16088
-0.155953
-0.151316
-0.146912
-0.148154
-0.152138
-0.154673
-0.156729
-0.158026
-0.159239
-0.160491
-0.161983
-0.163278
-0.164455
-0.165699
-0.142597
0.136773
0.115254
0.117364
0.13107
0.146894
0.158295
0.161685
0.15287
0.130184
0.105693
0.0893204
0.0743243
0.0617609
0.0547541
0.055569
0.0578809
0.056545
0.057498
0.0539628
0.0541073
0.0515253
0.0517878
-0.372049
-0.366878
-0.35298
-0.350151
-0.335471
-0.331484
-0.318405
-0.303467
-0.312251
-0.327772
-0.324463
-0.291396
-0.344742
-0.340162
-0.357432
-0.362065
-0.279871
-0.269292
-0.259093
-0.249413
-0.240331
-0.231811
-0.223806
-0.216266
-0.20913
-0.202339
-0.195828
-0.189551
-0.183472
-0.177565
-0.171823
-0.166254
-0.160898
-0.155799
-0.150983
-0.146437
-0.142098
-0.143189
-0.147287
-0.149769
-0.151741
-0.153023
-0.154219
-0.155454
-0.156906
-0.158177
-0.159333
-0.160555
-0.137996
0.153686
0.0926573
0.0935631
0.108407
0.125146
0.137422
0.142653
0.138147
0.123115
0.10496
0.0909015
0.0774918
0.0647071
0.0561139
0.0501545
0.0520108
0.0544696
0.0545828
0.0562712
0.0552229
0.0555368
0.0554259
0.0555097
0.0525758
0.0526892
-0.352316
-0.349051
-0.318998
-0.316983
-0.305738
-0.290509
-0.299112
-0.313574
-0.310111
-0.27921
-0.269076
-0.259054
-0.24947
-0.240473
-0.231989
-0.223974
-0.216414
-0.209262
-0.202464
-0.19596
-0.189699
-0.183642
-0.177758
-0.172027
-0.166443
-0.161024
-0.155805
-0.150829
-0.146125
-0.141696
-0.137577
-0.138434
-0.142303
-0.144942
-0.146868
-0.148144
-0.14929
-0.150511
-0.151917
-0.15317
-0.154309
-0.155513
-0.133883
0.0838835
0.0721571
0.0899029
0.106642
0.119231
0.125944
0.124943
0.115644
0.10258
0.0909401
0.0793417
0.0674886
0.0582102
0.0512466
0.0449574
0.0479466
0.0506087
0.0513937
0.05342
0.0535117
0.054273
0.0553938
0.0549048
0.0545368
0.054818
0.0543068
0.054596
-0.316865
-0.316248
-0.306603
-0.303418
-0.29268
-0.27824
-0.28647
-0.300293
-0.296929
-0.31319
-0.309777
-0.268605
-0.258761
-0.249281
-0.240408
-0.231999
-0.224007
-0.216451
-0.2093
-0.202505
-0.196012
-0.189772
-0.183743
-0.177891
-0.172191
-0.166626
-0.161195
-0.155917
-0.150832
-0.145983
-0.141416
-0.137187
-0.133336
-0.134435
-0.137947
-0.139751
-0.141954
-0.143313
-0.144471
-0.145681
-0.147032
-0.148274
-0.149379
-0.150564
-0.129442
0.0572673
0.0778612
0.0938191
0.105194
0.112197
0.113517
0.108374
0.0993032
0.0899294
0.080051
0.0695113
0.0604197
0.0530268
0.0467883
0.044283
0.0423288
0.0457713
0.047973
0.0499164
0.0503571
0.0513863
0.0530726
0.0522073
0.053112
0.0538353
0.0547872
0.0544165
-0.305917
-0.302912
-0.293509
-0.290467
-0.280137
-0.26789
-0.274821
-0.287651
-0.284496
-0.3
-0.296678
-0.258252
-0.248871
-0.240169
-0.231852
-0.223902
-0.216367
-0.209235
-0.202458
-0.195982
-0.189766
-0.18377
-0.177956
-0.172296
-0.166769
-0.161362
-0.156078
-0.150939
-0.145988
-0.141282
-0.136896
-0.132866
-0.128953
-0.129911
-0.133595
-0.135832
-0.137639
-0.138702
-0.139863
-0.140037
-0.142897
-0.14358
-0.144584
-0.145698
-0.125015
0.0711641
0.0872121
0.0965386
0.102371
0.104442
0.101875
0.0957276
0.0883137
0.0799728
0.0707645
0.0622559
0.0549445
0.0486547
0.0449624
0.0412007
0.0430265
0.0444381
0.0400413
0.0459224
0.0469312
0.0480983
0.0497724
0.0486865
0.0500787
0.051037
0.0526451
0.0518927
-0.292835
-0.289988
-0.281192
-0.27791
-0.269759
-0.257497
-0.264112
-0.27585
-0.273158
-0.287314
-0.284305
-0.248254
-0.239772
-0.231582
-0.223668
-0.216159
-0.209064
-0.202319
-0.195869
-0.189681
-0.183721
-0.177949
-0.172335
-0.166855
-0.161491
-0.156235
-0.151092
-0.146093
-0.141284
-0.136743
-0.132523
-0.128514
-0.124561
-0.125471
-0.129119
-0.1313
-0.133166
-0.134268
-0.135402
-0.136477
-0.137766
-0.139022
-0.14064
-0.139668
-0.120776
0.0847338
0.0925855
0.0967461
0.0982487
0.0967014
0.0923587
0.0864492
0.0794016
0.0714023
0.0636125
0.0566137
0.0503498
0.0457698
0.041814
0.037753
0.0395571
0.0411016
0.0427239
0.0446237
0.0443724
0.0367358
0.046617
0.0467327
0.0466722
0.0476308
0.0493814
0.0484268
-0.281234
-0.277235
-0.270472
-0.26775
-0.259161
-0.247444
-0.254131
-0.264835
-0.261177
-0.276156
-0.272954
-0.239216
-0.231204
-0.223331
-0.215848
-0.208796
-0.202088
-0.195672
-0.189519
-0.183596
-0.177869
-0.172303
-0.166876
-0.161564
-0.156355
-0.151243
-0.146241
-0.141381
-0.136725
-0.132332
-0.128179
-0.12416
-0.120324
-0.12123
-0.124758
-0.126894
-0.128732
-0.129835
-0.130913
-0.13199
-0.133286
-0.134395
-0.135467
-0.136566
-0.13781
-0.138919
-0.140379
-0.13825
-0.116666
0.0913979
0.0942805
0.0947709
0.093163
0.089595
0.0846348
0.0785709
0.0715856
0.0645107
0.0579185
0.0518228
0.0467574
0.0424205
0.0382447
0.0347379
0.0365295
0.0379849
0.0391464
0.0406419
0.0417858
0.042579
0.0447029
0.0439998
0.0332622
0.0456122
0.0473604
-0.275816
-0.270007
-0.267343
-0.258359
-0.249234
-0.238509
-0.244244
-0.253576
-0.264826
-0.26316
-0.275509
-0.27248
-0.230701
-0.222902
-0.215454
-0.208453
-0.201782
-0.195395
-0.189279
-0.183397
-0.177714
-0.172201
-0.166827
-0.161572
-0.15642
-0.151358
-0.146387
-0.141523
-0.136804
-0.132284
-0.127982
-0.123859
-0.119929
-0.11622
-0.117109
-0.120528
-0.122619
-0.124387
-0.12547
-0.126518
-0.127586
-0.128855
-0.129959
-0.131008
-0.132097
-0.13339
-0.134485
-0.135566
-0.136644
-0.112656
0.0934368
0.0931018
0.0910403
0.0875903
0.0830764
0.0776624
0.0714607
0.0650225
0.0588464
0.053009
0.0477985
0.0431864
0.038856
0.0351878
0.0320334
0.0337367
0.0351157
0.036232
0.0376749
0.0386074
0.0392592
0.0407359
0.0399983
-0.269576
-0.267032
-0.259296
-0.256668
-0.248714
-0.240026
-0.230015
-0.235704
-0.24358
-0.251929
-0.254428
-0.26446
-0.262424
-0.22237
-0.214976
-0.208054
-0.201426
-0.195057
-0.188967
-0.183126
-0.177492
-0.172028
-0.166709
-0.161513
-0.156421
-0.151419
-0.146499
-0.141664
-0.136933
-0.132343
-0.127927
-0.123686
-0.119637
-0.115828
-0.112222
-0.113088
-0.11641
-0.118456
-0.120162
-0.121221
-0.12224
-0.123287
-0.124505
-0.125584
-0.126609
-0.127684
-0.128953
-0.130042
-0.131115
-0.132196
-0.108752
0.0922219
0.0897418
0.0861781
0.0818102
0.076774
0.0711367
0.0652275
0.0594362
0.053878
0.0487243
0.0440188
0.0395984
0.0357327
0.0324582
0.0296661
0.0298759
0.0324714
0.0335751
0.0348669
0.0357201
0.036371
0.0378355
0.0370984
-0.24934
-0.247037
-0.239636
-0.231449
-0.221694
-0.22719
-0.235251
-0.241876
-0.244908
-0.214399
-0.207601
-0.201035
-0.194677
-0.188601
-0.182792
-0.177204
-0.17179
-0.166524
-0.161387
-0.156357
-0.151418
-0.146559
-0.141774
-0.137068
-0.132461
-0.12798
-0.123642
-0.119475
-0.115539
-0.111837
-0.108323
-0.109179
-0.112395
-0.114395
-0.116052
-0.117085
-0.118078
-0.1191
-0.120277
-0.121328
-0.122326
-0.123373
-0.124596
-0.125657
-0.126708
-0.127773
0.0887189
0.0850089
0.0807069
0.0758964
0.0706607
0.0651811
0.0597339
0.0544459
0.0494402
0.0447771
0.0403675
0.0363744
0.0329257
0.0299744
0.0274759
0.0287516
0.0298883
0.028762
0.0265259
0.0327809
0.0330523
0.0336327
0.0349988
0.0343093
-0.24048
-0.238096
-0.230876
-0.223097
-0.213717
-0.219037
-0.226692
-0.233767
-0.235938
-0.240737
-0.207077
-0.200615
-0.194269
-0.1882
-0.182415
-0.176863
-0.171492
-0.166276
-0.161195
-0.156227
-0.151353
-0.146558
-0.141834
-0.137177
-0.132592
-0.128095
-0.123702
-0.119443
-0.115381
-0.111549
-0.107942
-0.110438
-0.112042
-0.113053
-0.114023
-0.115021
-0.116164
-0.117188
-0.11816
-0.119181
-0.120364
-0.121397
-0.122419
-0.123454
0.0838443
0.0795582
0.0749477
0.0700145
0.0648935
0.0597634
0.0547383
0.0499187
0.0453724
0.0410566
0.0370466
0.0334785
0.0303758
0.0277426
0.0254174
0.0265587
0.0277549
0.0283299
0.028794
0.0293028
0.0295859
0.0296824
0.0357023
0.0326008
0.0319876
-0.240013
-0.23765
-0.23148
-0.229395
-0.222563
-0.215111
-0.206455
-0.211159
-0.21862
-0.225302
-0.22739
-0.233459
-0.235586
-0.200174
-0.19383
-0.187776
-0.182017
-0.176491
-0.171149
-0.165971
-0.160941
-0.156033
-0.151224
-0.146496
-0.141837
-0.137239
-0.132701
-0.128225
-0.123822
-0.119515
-0.115353
-0.111391
-0.107657
-0.110055
-0.111039
-0.112152
-0.113153
-0.114102
-0.115098
-0.116248
-0.117255
-0.11825
-0.119258
0.0782852
0.0738009
0.069156
0.0643461
0.0595217
0.0547646
0.050154
0.0457657
0.0415897
0.0376565
0.0340552
0.0308349
0.0280316
0.0255502
0.0232656
0.0245048
0.0257115
0.0261831
0.0267252
0.027265
0.0278673
0.0282437
0.0286682
0.0291
0.0293727
0.029425
0.032428
-0.231139
-0.229124
-0.223161
-0.221145
-0.214676
-0.207622
-0.199379
-0.204009
-0.210698
-0.217265
-0.219276
-0.225034
-0.227072
-0.193383
-0.18732
-0.181606
-0.176111
-0.170778
-0.165621
-0.160632
-0.15578
-0.151033
-0.146371
-0.141779
-0.137247
-0.132768
-0.128339
-0.123962
-0.119648
-0.115431
-0.111365
-0.107499
-0.110137
-0.111114
-0.112235
-0.113218
-0.11419
-0.115172
0.0724628
0.068014
0.0635305
0.0589971
0.0545155
0.0501411
0.0459392
0.0419283
0.0381264
0.0345793
0.0313219
0.028396
0.0257673
0.0232637
0.0201723
0.0225848
0.0237571
0.0241
0.024688
0.0251803
0.0257886
0.0261328
0.0266446
0.0271581
0.0277322
0.0281721
0.0285664
0.0289842
0.0292004
-0.222829
-0.220888
-0.215262
-0.213311
-0.20722
-0.200289
-0.192768
-0.195582
-0.203695
-0.209306
-0.211431
-0.216994
-0.218948
-0.186826
-0.18117
-0.17573
-0.170399
-0.165244
-0.160281
-0.155476
-0.150785
-0.146187
-0.141662
-0.137197
-0.132784
-0.128415
-0.124086
-0.1198
-0.115573
-0.111448
-0.107475
-0.110222
-0.111186
0.0666498
0.0624024
0.0581932
0.053985
0.049868
0.0458807
0.0420557
0.0384117
0.034979
0.0317719
0.0288137
0.026112
0.0235843
0.0211005
0.0207185
0.0192023
0.0211115
0.02229
0.0229147
0.0231638
0.0237874
0.024065
0.0246037
0.0250747
0.0256422
0.026077
0.0265623
0.0271059
0.0276509
-0.214911
-0.213101
-0.20775
-0.206012
-0.200157
-0.191747
-0.186226
-0.197684
-0.202509
-0.204265
-0.208931
-0.211522
-0.180681
-0.17534
-0.170019
-0.164858
-0.159903
-0.155131
-0.150488
-0.145948
-0.141487
-0.13709
-0.132745
-0.128442
-0.124174
-0.119938
-0.115739
-0.111601
-0.107565
0.0610419
0.0570771
0.0531907
0.0493294
0.0455787
0.0419604
0.038494
0.0352084
0.0321104
0.0292059
0.0265102
0.0240301
0.0218556
0.0209291
0.0195091
0.0202702
0.0205344
0.0203356
0.0179346
0.0207292
0.0219462
0.0224044
0.0227662
0.0230613
0.0236064
0.0240158
0.0245265
0.0250264
0.0255574
-0.20786
-0.205795
-0.200632
-0.198946
-0.193029
-0.185488
-0.189702
-0.180082
-0.195275
-0.197567
-0.20223
-0.204002
-0.207907
-0.174915
-0.169628
-0.164466
-0.159515
-0.154763
-0.150154
-0.14566
-0.141257
-0.136926
-0.13265
-0.128416
-0.124215
-0.120042
-0.115893
-0.11178
-0.107727
0.0557407
0.0521027
0.048546
0.045035
0.0416359
0.0383663
0.0352472
0.0322898
0.029495
0.026872
0.0244511
0.0223513
0.0210403
0.0196747
0.0176726
0.0187102
0.0193742
0.0198061
0.0200433
0.0205068
0.0206834
0.0225107
0.0154713
0.0230154
0.0220466
0.0222924
0.0225992
0.0229985
0.0235124
-0.207367
-0.205455
-0.200383
-0.198687
-0.196182
-0.193598
-0.19189
-0.186551
-0.179396
-0.183412
-0.190355
-0.188614
-0.174414
-0.197148
-0.201958
-0.203688
-0.169196
-0.164056
-0.159119
-0.15439
-0.149798
-0.145334
-0.140978
-0.136709
-0.132501
-0.128337
-0.124206
-0.120101
-0.116016
-0.111952
-0.10792
0.0508069
0.0474897
0.0442704
0.0410902
0.0380279
0.0350895
0.0322901
0.0296327
0.0271241
0.0247875
0.0227124
0.0211511
0.019716
0.0178561
0.0161723
0.0171114
0.0178079
0.0183984
0.0186723
0.0190282
0.0193546
0.0196569
0.0199349
0.0203785
0.0210175
0.0125126
0.0228318
0.0215818
-0.200099
-0.198471
-0.195594
-0.186881
-0.185368
-0.1802
-0.173809
-0.177563
-0.18396
-0.182671
-0.168681
-0.196881
-0.16361
-0.158703
-0.154013
-0.149436
-0.144986
-0.14066
-0.136444
-0.1323
-0.128204
-0.124144
-0.12011
-0.116094
-0.112094
-0.10811
0.0462452
0.0432531
0.0403472
0.0374868
0.0347369
0.0321073
0.0295991
0.0272241
0.0249965
0.0229701
0.0212804
0.0197599
0.0180163
0.0163688
0.0149084
0.0156837
0.0163353
0.0168528
0.0171519
0.0175227
0.0179351
0.0183679
0.0186373
0.0189611
0.0192996
-0.180438
-0.179553
-0.174707
-0.168038
-0.171786
-0.178067
-0.17658
-0.163108
-0.15824
-0.153624
-0.149074
-0.144629
-0.140318
-0.13614
-0.13205
-0.128021
-0.12403
-0.120068
-0.116124
-0.112193
-0.108273
0.0420643
0.039375
0.0367671
0.0342023
0.0317448
0.0293929
0.0271598
0.0250537
0.0231053
0.021381
0.0198093
0.0181512
0.0165482
0.0151193
0.0137468
0.0144221
0.0150252
0.0154423
0.0157139
0.0160542
0.016442
0.0168196
0.0171086
0.0174729
0.0179044
-0.179453
-0.179183
-0.175064
-0.173657
-0.168914
-0.162528
-0.166104
-0.172249
-0.170773
-0.177855
-0.176381
-0.157697
-0.153198
-0.1487
-0.144264
-0.139962
-0.135808
-0.131762
-0.12779
-0.123865
-0.119974
-0.116104
-0.112245
-0.108394
0.0382466
0.0358378
0.0335101
0.0312176
0.0290223
0.0269337
0.0249534
0.0231025
0.0214078
0.019834
0.0182463
0.0166983
0.0152919
0.0139556
0.0126666
0.0132741
0.0138389
0.0141852
0.0144511
0.0147495
0.015099
0.0153988
0.0156607
0.0159939
0.0163898
-0.174756
-0.173402
-0.169274
-0.167901
-0.163376
-0.157083
-0.160663
-0.166571
-0.165136
-0.172079
-0.17061
-0.152715
-0.148293
-0.143884
-0.139595
-0.135461
-0.131448
-0.12752
-0.123652
-0.119829
-0.116031
-0.112249
-0.108471
0.03477
0.032626
0.0305489
0.0285055
0.0265571
0.024704
0.0229586
0.0213323
0.0198015
0.0182867
0.0168034
0.0154249
0.0141201
0.0128687
0.011668
0.0122071
0.0127486
0.0130538
0.0132974
0.0135652
0.0138998
0.0141428
0.0143962
0.0146889
0.0150379
-0.168974
-0.16766
-0.163706
-0.162366
-0.157928
-0.152183
-0.155285
-0.161106
-0.159715
-0.166398
-0.164973
-0.147828
-0.143473
-0.139213
-0.135104
-0.13112
-0.127223
-0.123396
-0.119633
-0.115907
-0.112201
-0.108499
0.0316165
0.0297079
0.0278654
0.0260495
0.0243204
0.0226828
0.0211437
0.0196834
0.0182545
0.0168497
0.0155147
0.0142434
0.0130241
0.0118638
0.010741
0.0112168
0.0117391
0.012002
0.0122281
0.0124907
0.012788
0.013015
0.0132446
0.0135018
0.0138375
-0.163407
-0.162125
-0.158289
-0.156974
-0.152952
-0.147273
-0.150447
-0.15558
-0.154538
-0.160911
-0.159535
-0.143009
-0.1388
-0.134728
-0.130783
-0.126909
-0.123108
-0.119391
-0.11573
-0.1121
-0.108476
0.028757
0.0270687
0.0254318
0.0238215
0.0222911
0.0208455
0.0194685
0.0181329
0.0168202
0.0155508
0.0143246
0.0131372
0.012004
0.0109214
0.00985774
0.0102797
0.0107996
0.0110203
0.0112428
0.0114866
0.0117663
0.0119664
0.0121764
0.012429
0.0127231
-0.158016
-0.15698
-0.153299
-0.152056
-0.148003
-0.142462
-0.145474
-0.150816
-0.149553
-0.155385
-0.154585
-0.138342
-0.134313
-0.130428
-0.126581
-0.1228
-0.119113
-0.115505
-0.111945
-0.108401
0.026172
0.0246736
0.0232284
0.0218015
0.0204475
0.0191599
0.0179168
0.0167014
0.0155149
0.014353
0.0132102
0.0121027