/*--------------------------------*- C++ -*----------------------------------*\
| =========                 |                                                 |
| \\      /  F ield         | OpenFOAM: The Open Source CFD Toolbox           |
|  \\    /   O peration     | Version:  v1912                                 |
|   \\  /    A nd           | Website:  www.openfoam.com                      |
|    \\/     M anipulation  |                                                 |
\*---------------------------------------------------------------------------*/
FoamFile
{
    version     2.0;
    format      ascii;
    class       volScalarField;
    location    "390";
    object      p;
}
// * * * * * * * * * * * * * * * * * * * * * * * * * * * * * * * * * * * * * //

dimensions      [0 2 -2 0 0 0 0];


internalField   nonuniform List<scalar> 
3754
(
0.237024
0.23371
0.270678
0.227354
0.263546
0.377118
0.21857
0.25036
0.354661
0.554624
0.539634
0.208149
0.234014
0.312776
0.506503
0.450837
0.665267
0.673626
0.614376
0.643075
0.196819
0.21669
0.265335
0.384689
0.3179
0.514947
0.568178
0.460116
0.503697
0.185149
0.19958
0.222849
0.238745
0.379034
0.427448
0.220861
0.204854
0.377036
0.173557
0.18317
0.187962
0.176646
-0.321901
-0.264766
0.135074
0.123053
-0.203033
-0.222222
0.162351
0.167737
0.159522
0.134539
-0.338089
-0.521635
-0.465745
-0.482778
-0.168439
-0.452863
0.15176
0.153492
0.136042
0.1035
-0.269813
-0.418284
-0.438914
-0.54688
-0.529679
-0.436954
-0.551587
0.141964
0.140591
0.116394
0.0762701
-0.219874
-0.377077
-0.347572
-0.424688
-0.463642
-0.425624
-0.440486
-0.554653
0.133099
0.129128
0.0998455
0.0529968
-0.185991
-0.33856
-0.334247
-0.315534
-0.348567
-0.372333
-0.465124
-0.376161
-0.420384
-0.434335
-0.445554
0.12527
0.119147
0.0858896
0.0339211
-0.162277
-0.306779
-0.320192
-0.311777
-0.3062
-0.313545
-0.326818
-0.351846
-0.387523
-0.371205
-0.424464
-0.436521
0.11856
0.110677
0.0741378
0.0184399
-0.146285
-0.281045
-0.306903
-0.305947
-0.304533
-0.295118
-0.304187
-0.310159
-0.313912
-0.328589
-0.347115
-0.35893
-0.386961
-0.372701
0.113038
0.103738
0.0642823
0.00594704
-0.136305
-0.261473
-0.295779
-0.299998
-0.301819
-0.294621
-0.284824
-0.291262
-0.298727
-0.304942
-0.311388
-0.309917
-0.319842
-0.333827
-0.325423
-0.348035
-0.35868
0.10876
0.0983448
0.0561044
-0.00401002
-0.130863
-0.247563
-0.28744
-0.295289
-0.299055
-0.293601
-0.283798
-0.285796
-0.273421
-0.29748
-0.299389
-0.303969
-0.306834
-0.314062
-0.309801
-0.308202
-0.322113
-0.333268
-0.326156
0.10578
0.0945081
0.0494541
-0.0118254
-0.128938
-0.238619
-0.281831
-0.292131
-0.296855
-0.292767
-0.283146
-0.27276
-0.274553
-0.283608
-0.289709
-0.262751
-0.293085
-0.297228
-0.300896
-0.298566
-0.304326
-0.307054
-0.316526
-0.309933
-0.307114
0.104148
0.0922446
0.0442257
-0.0178003
-0.129907
-0.234135
-0.278814
-0.290508
-0.295441
-0.292239
-0.28296
-0.272541
-0.262663
-0.262979
-0.273029
-0.278049
-0.282605
-0.285831
-0.288259
-0.291368
-0.297083
-0.25676
-0.296684
-0.301147
-0.298814
-0.304657
-0.307183
-0.31611
-0.309971
0.103918
0.0915735
0.0403568
-0.0221101
-0.133438
-0.233802
-0.278341
-0.290403
-0.294933
-0.292086
-0.283079
-0.272632
-0.262644
-0.255673
-0.257862
-0.263403
-0.264774
-0.272563
-0.275285
-0.276929
-0.279245
-0.295854
-0.247007
-0.29678
-0.301347
-0.299157
0.105144
0.0925174
0.0378463
-0.0248139
-0.139486
-0.23746
-0.280408
-0.291801
-0.295385
-0.292392
-0.28346
-0.272908
-0.262743
-0.254806
-0.24618
-0.247825
-0.256197
-0.260362
-0.262963
-0.265825
-0.261866
-0.269147
-0.236842
0.107889
0.0951078
0.0367588
-0.0258987
-0.148309
-0.245108
-0.285014
-0.294675
-0.296811
-0.293203
-0.284096
-0.273327
-0.262924
-0.254186
-0.2454
-0.236066
-0.237621
-0.245958
-0.250883
-0.255347
-0.25778
-0.259692
-0.261208
-0.262867
-0.266361
-0.260505
-0.227382
0.112215
0.0993782
0.0372358
-0.0253028
-0.160475
-0.256901
-0.29217
-0.299001
-0.299203
-0.294543
-0.284981
-0.273861
-0.263153
-0.253755
-0.244693
-0.235338
-0.226581
-0.22823
-0.23583
-0.240698
-0.245085
-0.247755
-0.249953
-0.252207
-0.255841
-0.258122
-0.259817
-0.261145
-0.217881
0.118184
0.105371
0.0395249
-0.0229684
-0.176888
-0.273142
-0.301897
-0.304764
-0.302547
-0.296423
-0.286112
-0.274494
-0.263403
-0.253448
-0.244054
-0.234656
-0.225848
-0.217389
-0.218363
-0.226471
-0.231086
-0.234983
-0.237547
-0.239705
-0.242014
-0.245575
-0.248076
-0.250084
-0.252093
-0.210401
0.125844
0.113142
0.0440159
-0.0189515
-0.198905
-0.294299
-0.314231
-0.311953
-0.306823
-0.298838
-0.287484
-0.275216
-0.263664
-0.253208
-0.243466
-0.233985
-0.22513
-0.216817
-0.209665
-0.211105
-0.216293
-0.221566
-0.225631
-0.228098
-0.230066
-0.232255
-0.235422
-0.237826
-0.239792
-0.241867
-0.2025
0.135217
0.122778
0.05133
-0.0134567
-0.228505
-0.320986
-0.329228
-0.320562
-0.312004
-0.301769
-0.289085
-0.276017
-0.263928
-0.252996
-0.242907
-0.2333
-0.224384
-0.216144
-0.208869
-0.201802
-0.203081
-0.209561
-0.213604
-0.214617
-0.218681
-0.220657
-0.22295
-0.226039
-0.228327
-0.230127
-0.232102
-0.19436
0.146284
0.134424
0.0623957
-0.00691773
-0.268559
-0.353933
-0.346949
-0.330591
-0.318059
-0.305181
-0.290893
-0.276884
-0.264184
-0.252778
-0.242348
-0.23259
-0.22359
-0.215363
-0.208
-0.200996
-0.193742
-0.194901
-0.201381
-0.205412
-0.208729
-0.210833
-0.212755
-0.215082
-0.214031
-0.219944
-0.22086
-0.222777
-0.186691
0.158983
0.148343
0.0783105
-0.000627287
-0.322456
-0.393933
-0.367383
-0.34203
-0.324945
-0.309023
-0.292877
-0.277797
-0.264421
-0.252532
-0.241765
-0.231837
-0.222743
-0.214482
-0.207048
-0.200081
-0.193026
-0.186103
-0.187208
-0.193026
-0.197318
-0.200583
-0.202656
-0.204532
-0.206447
-0.208976
-0.21104
-0.212805
-0.216146
-0.213217
-0.179458
0.173113
0.16515
0.0999595
0.00262561
-0.392488
-0.441317
-0.390258
-0.354782
-0.332581
-0.313228
-0.294996
-0.278731
-0.264624
-0.252235
-0.241134
-0.231028
-0.221835
-0.213519
-0.206016
-0.199059
-0.192185
-0.18542
-0.178888
-0.179941
-0.185692
-0.189399
-0.191389
-0.194314
-0.196432
-0.198364
-0.200859
-0.202847
-0.204604
-0.20643
-0.209155
-0.211097
-0.212795
-0.215883
-0.1725
0.188208
0.185774
0.128722
0.00369163
-0.481327
-0.494191
-0.414733
-0.368464
-0.340772
-0.317682
-0.297193
-0.279657
-0.264771
-0.251868
-0.240434
-0.230147
-0.220856
-0.212478
-0.204915
-0.197949
-0.191214
-0.184622
-0.178231
-0.171949
-0.172999
-0.178488
-0.182074
-0.185968
-0.189494
-0.19408
-0.194637
-0.19652
-0.198339
-0.201052
-0.202923
-0.204755
-0.206483
-0.16571
0.203636
0.209001
0.169639
0.01504
-0.599631
-0.547084
-0.438923
-0.382145
-0.349078
-0.322184
-0.299388
-0.280536
-0.264837
-0.251408
-0.239645
-0.229177
-0.219794
-0.211361
-0.203749
-0.196769
-0.190131
-0.183702
-0.177478
-0.171348
-0.16527
-0.166135
-0.171573
-0.175047
-0.17876
-0.182192
-0.185274
-0.187093
-0.190655
-0.18862
-0.193491
-0.194625
-0.196658
-0.198382
-0.159457
0.218452
0.231027
0.228959
0.031657
-0.743878
-0.593243
-0.459322
-0.394289
-0.356671
-0.326384
-0.301449
-0.281317
-0.264796
-0.250834
-0.238748
-0.228105
-0.218636
-0.210159
-0.202517
-0.19553
-0.188962
-0.182672
-0.176613
-0.170667
-0.164776
-0.159106
-0.159765
-0.16467
-0.168215
-0.171832
-0.175134
-0.178069
-0.179846
-0.183149
-0.181386
-0.153991
0.231702
0.253617
0.243761
0.277538
0.180505
0.239641
0.32191
-0.731138
-0.207152
-0.871754
-0.627203
-0.87045
-0.47087
-0.40317
-0.362468
-0.329786
-0.303183
-0.281932
-0.264623
-0.250133
-0.237728
-0.226916
-0.217369
-0.208861
-0.201209
-0.194231
-0.187725
-0.18155
-0.175641
-0.169882
-0.164193
-0.158668
-0.153524
-0.154405
-0.158977
-0.161169
-0.165055
-0.1684
-0.171137
-0.17287
-0.176049
-0.17434
-0.148144
0.242532
0.27361
0.304689
0.331401
0.352839
0.309702
0.0296801
0.0433929
-0.754482
-0.724571
-0.430733
-1.04143
-0.919938
-0.897779
-0.682394
-0.472778
-0.604735
-0.858153
-0.407535
-0.365757
-0.331922
-0.304377
-0.282304
-0.264299
-0.249305
-0.236587
-0.225605
-0.215985
-0.207458
-0.199815
-0.192866
-0.186425
-0.180355
-0.174578
-0.168991
-0.163504
-0.15814
-0.153022
-0.147767
-0.148475
-0.15312
-0.156087
-0.159371
-0.160992
-0.164939
-0.166084
-0.169254
-0.167589
-0.142416
0.250127
0.287581
0.353896
0.372008
0.396117
0.440497
0.382133
0.33049
0.0381362
-0.0332505
0.356914
-0.180509
-0.948573
-0.861135
-0.675655
-0.503894
-0.407538
-0.453875
-0.604978
-0.366818
-0.332717
-0.304921
-0.28238
-0.26383
-0.248381
-0.235353
-0.224189
-0.214488
-0.205945
-0.198324
-0.191422
-0.185059
-0.179094
-0.173442
-0.168011
-0.16271
-0.157516
-0.152477
-0.14735
-0.142087
-0.142729
-0.14725
-0.150139
-0.153258
-0.156171
-0.15875
-0.160236
-0.160927
-0.16176
-0.136974
0.253804
0.295966
0.378661
0.378317
0.474418
0.500734
0.435325
0.478127
0.538611
0.505028
0.41287
0.0735334
-0.862564
-0.711727
-0.648401
-0.498513
-0.404546
-0.366309
-0.457107
-0.576319
-0.627812
-0.332541
-0.304917
-0.282188
-0.263263
-0.24743
-0.234096
-0.22272
-0.212908
-0.204333
-0.196734
-0.189892
-0.183618
-0.177767
-0.172242
-0.166957
-0.161825
-0.156801
-0.151878
-0.146891
-0.141748
-0.136672
-0.137269
-0.141581
-0.144379
-0.147421
-0.150236
-0.152681
-0.154113
-0.156941
-0.155498
-0.158759
-0.160184
-0.160007
-0.161805
-0.131734
0.253255
0.294074
0.446734
0.523133
0.535078
0.567755
0.593606
0.627968
0.612512
0.476122
0.458549
0.579866
0.510979
0.140784
-0.509883
-0.481989
-0.415831
-0.364464
-0.391252
-0.331657
-0.445033
-0.466566
-0.572763
-0.619545
-0.304509
-0.28181
-0.262672
-0.246545
-0.232917
-0.221289
-0.211314
-0.202664
-0.195066
-0.188277
-0.182098
-0.176369
-0.170979
-0.165839
-0.160867
-0.156007
-0.151223
-0.146389
-0.141395
-0.136383
-0.131462
-0.132008
-0.136151
-0.138857
-0.141755
-0.144486
-0.146848
-0.148272
-0.151038
-0.149612
-0.1528
-0.154147
-0.156934
-0.155578
-0.126648
0.248764
0.285148
0.413727
0.627413
0.569801
0.636669
0.636548
0.610723
0.628128
0.627681
0.672438
0.722942
0.699516
0.38705
-0.502063
-0.481883
-0.444296
-0.420109
-0.406237
-0.371991
-0.330232
-0.353658
-0.396726
-0.386824
-0.303697
-0.466214
-0.281265
-0.262098
-0.245795
-0.231921
-0.220016
-0.209816
-0.201022
-0.19337
-0.186603
-0.180506
-0.174898
-0.169649
-0.16466
-0.159848
-0.15515
-0.150516
-0.145844
-0.141021
-0.136113
-0.131222
-0.1264
-0.12691
-0.130914
-0.133543
-0.136318
-0.138956
-0.141197
-0.142575
-0.145264
-0.143868
-0.146958
-0.148298
-0.151052
-0.149702
-0.121698
0.240734
0.271152
0.372656
0.444732
0.705033
0.494823
0.559034
0.40833
0.732994
0.730615
0.719852
-0.442275
-0.374679
-0.36576
-0.336412
-0.302455
-0.321455
-0.35787
-0.348796
-0.385892
-0.280484
-0.461416
-0.2615
-0.245169
-0.23115
-0.218992
-0.208534
-0.199525
-0.191739
-0.184931
-0.178874
-0.173366
-0.168254
-0.16342
-0.158772
-0.15424
-0.149764
-0.14526
-0.140621
-0.135855
-0.131033
-0.126211
-0.121469
-0.121956
-0.125839
-0.128403
-0.131077
-0.133635
-0.13578
-0.137111
-0.1397
-0.138355
-0.141298
-0.142596
-0.145271
-0.14395
-0.11685
0.229593
0.25336
0.331074
0.369266
0.0360446
0.0583698
0.648196
0.0920482
0.0965921
-0.371831
-0.3646
-0.338904
-0.330777
-0.307498
-0.279382
-0.295216
-0.320753
-0.357804
-0.349667
-0.26077
-0.24459
-0.230553
-0.218231
-0.207542
-0.198283
-0.19029
-0.183357
-0.177269
-0.171812
-0.166811
-0.162124
-0.157641
-0.15328
-0.148973
-0.144642
-0.140194
-0.135601
-0.130892
-0.126108
-0.121333
-0.116645
-0.117123
-0.1209
-0.123414
-0.125999
-0.128491
-0.130558
-0.131848
-0.134353
-0.133053
-0.135876
-0.13713
-0.139707
-0.138432
-0.112075
0.215753
0.232829
0.291694
0.310282
0.00801005
-0.0357657
-0.0179546
-0.0319932
-0.0142601
-0.338284
-0.330184
-0.305972
-0.283686
-0.259711
-0.273164
-0.294776
-0.316836
-0.324111
-0.243936
-0.230022
-0.217656
-0.206827
-0.197349
-0.189123
-0.181993
-0.175788
-0.170305
-0.16536
-0.16079
-0.156462
-0.152272
-0.148143
-0.143994
-0.139741
-0.13534
-0.130785
-0.126092
-0.121323
-0.116576
-0.111945
-0.11231
-0.116087
-0.118552
-0.121057
-0.123495
-0.125495
-0.126752
-0.129187
-0.127924
-0.13065
-0.131868
-0.134361
-0.133128
-0.107561
0.19958
0.210373
0.25478
0.262506
0.0266752
-0.00267176
-0.00650702
-0.0364417
-0.0376318
-0.00582274
-0.0398207
-0.336366
-0.329726
-0.308167
-0.302479
-0.282391
-0.263391
-0.24301
-0.253997
-0.272734
-0.291251
-0.297265
-0.229432
-0.217149
-0.206302
-0.196691
-0.188267
-0.180921
-0.174535
-0.16894
-0.163973
-0.159463
-0.155255
-0.151226
-0.147274
-0.143314
-0.139263
-0.135065
-0.130697
-0.126145
-0.121441
-0.116674
-0.111968
-0.107487
-0.107737
-0.111279
-0.113756
-0.116251
-0.118624
-0.120565
-0.121798
-0.124174
-0.122941
-0.125584
-0.126772
-0.129196
-0.127998
-0.103359
0.181388
0.186596
0.220147
0.220609
0.0385757
0.00360785
0.00922705
-0.00834835
-0.0144776
-0.0113848
-0.00964338
-0.301672
-0.284121
-0.278978
-0.262367
-0.241702
-0.22868
-0.254056
-0.26998
-0.274666
-0.290966
-0.296393
-0.216593
-0.205845
-0.19621
-0.187672
-0.180152
-0.173571
-0.167808
-0.16274
-0.158213
-0.154066
-0.150162
-0.146375
-0.142602
-0.138758
-0.134773
-0.13061
-0.12624
-0.121663
-0.116936
-0.112178
-0.107566
-0.103247
-0.103576
-0.106948
-0.108945
-0.11145
-0.113885
-0.115756
-0.116976
-0.119291
-0.118076
-0.120653
-0.121819
-0.124185
-0.123014
-0.0989805
0.161441
0.161955
0.187688
0.183982
0.0433687
0.00773108
0.0119455
0.00234842
0.0034408
0.00402771
0.0021533
-0.0124896
-0.0137916
-0.283173
-0.278705
-0.263917
-0.259331
-0.244898
-0.227731
-0.237246
-0.215905
-0.253621
-0.270419
-0.274221
-0.20535
-0.195789
-0.18724
-0.179628
-0.172893
-0.166958
-0.161739
-0.157121
-0.15296
-0.149122
-0.145466
-0.141868
-0.138226
-0.134459
-0.130515
-0.126353
-0.121953
-0.117335
-0.112585
-0.107861
-0.103332
-0.0989205
-0.0991559
-0.102611
-0.10484
-0.107154
-0.108948
-0.111042
-0.11221
-0.114545
-0.113353
-0.115839
-0.116991
-0.119302
-0.118149
-0.0946117
0.13994
0.136807
0.157331
0.152296
0.0447252
0.0110134
0.0140276
0.00353075
-0.0021069
-0.00125742
0.00397016
0.00183984
-0.000127043
-0.00226634
0.00196931
0.00514576
-0.263114
-0.25898
-0.245923
-0.242561
-0.23018
-0.215068
-0.223693
-0.238827
-0.235181
-0.204737
-0.255237
-0.250871
-0.269406
-0.195334
-0.186863
-0.179246
-0.172434
-0.166371
-0.161002
-0.15625
-0.152009
-0.148168
-0.144585
-0.141127
-0.137674
-0.134122
-0.130405
-0.126469
-0.122279
-0.117828
-0.113162
-0.108393
-0.103684
-0.099074
-0.0945866
-0.094781
-0.0982162
-0.10041
-0.102716
-0.104935
-0.106731
-0.107803
-0.109128
-0.108955
-0.111629
-0.112276
-0.114536
-0.113441
-0.0903577
0.117042
0.111496
0.129044
0.124892
0.0438622
0.0138767
0.0157531
0.00505649
-0.00160794
-0.0062786
-0.00387384
-0.00127344
-0.00497045
0.00187317
0.00271295
0.00410367
0.00154256
0.00311804
-0.26219
-0.258965
-0.241828
-0.23107
-0.227827
-0.217349
-0.203972
-0.21138
-0.224917
-0.222043
-0.238562
-0.235258
-0.194777
-0.186453
-0.178908
-0.1721
-0.165978
-0.1605
-0.155619
-0.151265
-0.147359
-0.143787
-0.140415
-0.137116
-0.133765
-0.130274
-0.126575
-0.122616
-0.118375
-0.11386
-0.109136
-0.104326
-0.0995232
-0.0948104
-0.0903543
-0.0905212
-0.0938895
-0.0960524
-0.0983415
-0.100501
-0.102274
-0.10336
-0.105528
-0.104436
-0.106774
-0.107886
-0.108876
-0.109438
-0.0862037
0.0931518
0.0864512
0.102951
0.10125
0.0414673
0.0159417
0.0167352
0.00648337
-0.00115333
-0.0058554
-0.0100689
-0.008037
-0.00585503
-0.00472328
-0.00373989
-0.00249145
-0.00010418
-0.00747195
0.00349298
0.00241086
0.00358975
0.00118577
-0.230202
-0.227375
-0.218182
-0.215212
-0.205866
-0.194088
-0.200803
-0.210883
-0.224783
-0.222615
-0.185948
-0.178538
-0.171799
-0.165687
-0.160164
-0.155196
-0.150735
-0.146737
-0.143119
-0.139775
-0.136579
-0.1334
-0.130125
-0.126663
-0.122951
-0.118944
-0.114632
-0.110036
-0.10523
-0.100303
-0.0953704
-0.0906296
-0.0862182
-0.0863565
-0.0896468
-0.0917803
-0.0940259
-0.0961573
-0.0979061
-0.098993
-0.10112
-0.100034
-0.102341
-0.103403
-0.105571
-0.10449
-0.106818
-0.107827
-0.108219
-0.109332
-0.0821358
0.069591
0.0623932
0.079472
0.08112
0.038274
0.0172243
0.0169703
0.00749934
-0.000658814
-0.00549253
-0.00985621
-0.0146461
-0.0112627
-0.00954694
-0.00867657
-0.00796018
-0.00692634
-0.00569348
-0.00485886
-0.00389851
-0.00274038
0.00171507
-0.00804769
0.00306966
0.00204438
0.00308632
-0.217329
-0.214527
-0.205141
-0.195811
-0.185323
-0.191201
-0.20059
-0.209286
-0.212174
-0.221979
-0.178088
-0.171468
-0.165418
-0.159911
-0.154914
-0.15038
-0.1463
-0.142612
-0.139245
-0.136099
-0.133044
-0.129958
-0.126729
-0.123268
-0.119517
-0.11544
-0.111036
-0.106331
-0.101387
-0.0963048
-0.0912853
-0.0865407
-0.0821536
-0.0821487
-0.0854808
-0.0875857
-0.0897875
-0.0918863
-0.0935961
-0.0946729
-0.0967748
-0.0956946
-0.0979757
-0.0990368
-0.101172
-0.100105
-0.102409
-0.103433
-0.105598
-0.104555
-0.0781481
0.0474442
0.0407848
0.0594202
0.06454
0.0349191
0.0179526
0.0167009
0.00809154
-0.000126976
-0.00501976
-0.00936986
-0.013386
-0.0124256
-0.014523
-0.0152056
-0.0114924
-0.0109668
-0.010532
-0.00944932
-0.00868315
-0.00809789
-0.0071548
-0.0059571
-0.216659
-0.214571
-0.205854
-0.203396
-0.195136
-0.186838
-0.177524
-0.182775
-0.190858
-0.198651
-0.202089
-0.171062
-0.165113
-0.159669
-0.154696
-0.15014
-0.146009
-0.142258
-0.138848
-0.135704
-0.132723
-0.129784
-0.126766
-0.123556
-0.120072
-0.116258
-0.112088
-0.107563
-0.102707
-0.0975876
-0.0923689
-0.0872868
-0.0825217
-0.0781752
-0.0782773
-0.0804971
-0.0833803
-0.0856545
-0.0876947
-0.0893663
-0.0904266
-0.0924942
-0.0914289
-0.0936653
-0.0947147
-0.0968254
-0.0957658
-0.0980453
-0.0990666
-0.101207
-0.100174
-0.0742644
0.0228423
0.0242107
0.0439396
0.0518018
0.0319154
0.018319
0.0161324
0.00832917
0.000375444
-0.00448646
-0.00873036
-0.0123467
-0.0122368
-0.0143353
-0.0132013
-0.013018
-0.0146043
-0.0138243
-0.0187005
-0.0116679
-0.0114561
-0.011234
-0.0107842
-0.009716
-0.195808
-0.193599
-0.186302
-0.178914
-0.170517
-0.175069
-0.182528
-0.189472
-0.191717
-0.19832
-0.201632
-0.164734
-0.159389
-0.154481
-0.149946
-0.145808
-0.142021
-0.138572
-0.135409
-0.132456
-0.129619
-0.126775
-0.1238
-0.120588
-0.117057
-0.113158
-0.108867
-0.104186
-0.0991438
-0.0938522
-0.0885096
-0.083356
-0.0785895
-0.0743134
-0.0783355
-0.0744132
-0.0822822
-0.0835388
-0.0852285
-0.0862649
-0.0882903
-0.087243
-0.0894353
-0.0904681
-0.0925431
-0.0914996
-0.0937336
-0.0947431
-0.096859
-0.0958344
-0.0704904
-0.00644007
0.0158228
0.0339659
0.0431793
0.0296229
0.0184556
0.0153946
0.00827936
0.000772842
-0.00399255
-0.00808896
-0.0115531
-0.0122033
-0.0145586
-0.0155474
-0.0151831
-0.0142116
-0.019258
-0.0135744
-0.0134753
-0.0132808
-0.0135622
-0.0197497
-0.0114092
-0.195377
-0.193448
-0.186912
-0.184869
-0.17845
-0.169786
-0.164259
-0.17461
-0.181056
-0.183513
-0.189299
-0.19144
-0.159038
-0.154226
-0.149747
-0.14564
-0.141853
-0.138386
-0.135202
-0.132256
-0.129476
-0.126762
-0.123991
-0.121043
-0.117806
-0.114207
-0.110196
-0.105753
-0.100885
-0.0956489
-0.090186
-0.0847165
-0.0795022
-0.0747525
-0.0705393
-0.0745808
-0.0776297
-0.0797175
-0.0706532
-0.0819626
-0.084065
-0.0826003
-0.0853029
-0.0863023
-0.0883391
-0.0873122
-0.0895028
-0.0904967
-0.0925761
-0.0915676
-0.0667707
0.0166229
0.0291213
0.0384122
0.0281385
0.0184277
0.0145753
0.0080103
0.00102348
-0.00361268
-0.00753238
-0.0108927
-0.0121392
-0.0144523
-0.0180336
-0.0178219
-0.0190449
-0.0177804
-0.0156811
-0.0151747
-0.0149939
-0.0147302
-0.0141549
-0.0190556
-0.186528
-0.184593
-0.17903
-0.17726
-0.170871
-0.163689
-0.167976
-0.1586
-0.174457
-0.18073
-0.183681
-0.153906
-0.149507
-0.145461
-0.141703
-0.138246
-0.135058
-0.132114
-0.129362
-0.126734
-0.124124
-0.121412
-0.11847
-0.115192
-0.111501
-0.107353
-0.10273
-0.0976598
-0.0922242
-0.0865849
-0.0809904
-0.0757243
-0.070989
-0.0668152
-0.0708821
-0.0738742
-0.0757335
-0.0772748
-0.0782984
-0.0792358
-0.0802357
-0.0669395
-0.081331
-0.0823781
-0.0837769
-0.0842203
-0.0853606
-0.0863286
-0.0883724
-0.0873792
-0.063096
0.0271063
0.0363995
0.027196
0.018212
0.0137218
0.00758191
0.00111463
-0.00338374
-0.00712198
-0.010359
-0.0120188
-0.0142275
-0.017038
-0.0177725
-0.0184013
-0.0193568
-0.0188555
-0.0183688
-0.0161653
-0.0181133
-0.178687
-0.176677
-0.171258
-0.169653
-0.16467
-0.15807
-0.161761
-0.168324
-0.167472
-0.153515
-0.175171
-0.173369
-0.18048
-0.183301
-0.149208
-0.145241
-0.141537
-0.138114
-0.134944
-0.132007
-0.129274
-0.126699
-0.124205
-0.121686
-0.119015
-0.116065
-0.112727
-0.108923
-0.104612
-0.0997925
-0.0945091
-0.088865
-0.0830431
-0.0773284
-0.0720113
-0.067275
-0.0631338
-0.0671803
-0.0701683
-0.0720148
-0.073545
-0.0744974
-0.07532
-0.0762298
-0.0632753
-0.0834976
-0.0842102
-0.0594734
0.0357522
0.0263101
0.0177194
0.0128411
0.00702943
0.00104005
-0.0033183
-0.00688816
-0.00998019
-0.0118807
-0.0139947
-0.0165137
-0.0173856
-0.0179265
-0.0183303
-0.0186904
-0.0184454
-0.0186654
-0.0194871
-0.0190558
-0.0183548
-0.17841
-0.17677
-0.164892
-0.163568
-0.158933
-0.153056
-0.156347
-0.162325
-0.160887
-0.167395
-0.148833
-0.144966
-0.141331
-0.137961
-0.134829
-0.131913
-0.129198
-0.126661
-0.124244
-0.121866
-0.119423
-0.11678
-0.11381
-0.110393
-0.106456
-0.101965
-0.0969347
-0.0914263
-0.0855613
-0.0795582
-0.0737206
-0.0683451
-0.0636049
-0.059506
-0.0635207
-0.0664723
-0.0683083
-0.0698358
-0.0707849
-0.0716092
-0.0725077
-0.0596739
-0.0559131
0.0252372
0.0168631
0.0119115
0.00636501
0.000790508
-0.00342093
-0.00683583
-0.00977251
-0.0117765
-0.0137748
-0.0160148
-0.0169907
-0.0174168
-0.0172737
-0.0177665
-0.0187429
-0.0189142
-0.0194056
-0.0184132
-0.0185516
-0.0187598
-0.0196524
-0.019163
-0.164338
-0.163368
-0.15927
-0.157956
-0.153903
-0.148372
-0.151458
-0.156807
-0.15547
-0.162244
-0.160862
-0.144628
-0.141072
-0.137769
-0.134687
-0.131808
-0.129121
-0.126615
-0.124248
-0.121969
-0.119698
-0.117316
-0.114694
-0.111687
-0.108176
-0.104089
-0.0994044
-0.0941484
-0.0884013
-0.0823092
-0.0761183
-0.0701556
-0.0647216
-0.0599923
-0.0559548
-0.0599347
-0.0628248
-0.0646375
-0.0661417
-0.0670816
-0.0679024
-0.0687983
-0.0561239
-0.0524538
0.0157775
0.0108825
0.00558431
0.000361338
-0.00369284
-0.00695723
-0.00973422
-0.0117468
-0.0136054
-0.0155573
-0.0165556
-0.0169661
-0.016986
-0.0175275
-0.0176573
-0.0175869
-0.0178164
-0.0191251
-0.0209543
-0.0181335
-0.0172573
-0.0187174
-0.0188846
-0.15892
-0.157738
-0.154423
-0.152818
-0.149053
-0.144231
-0.146906
-0.151908
-0.150817
-0.156688
-0.155264
-0.14075
-0.137525
-0.134506
-0.131676
-0.129024
-0.126554
-0.124224
-0.122011
-0.119859
-0.117677
-0.115353
-0.112737
-0.10968
-0.106062
-0.101814
-0.0969194
-0.0914232
-0.0854264
-0.0790977
-0.072717
-0.0666285
-0.0611528
-0.0564584
-0.0525241
-0.056434
-0.0592423
-0.0610303
-0.0624999
-0.0634244
-0.0642357
-0.0651207
-0.0526023
-0.0492338
0.00983715
0.00464694
-0.000248368
-0.00412418
-0.00723694
-0.00985175
-0.011814
-0.0135235
-0.0152069
-0.0161742
-0.0166023
-0.0167596
-0.0172444
-0.0177355
-0.0178849
-0.0177762
-0.0178969
-0.0177812
-0.0178699
-0.0179792
-0.0224124
-0.0170924
-0.0174304
-0.0190025
-0.154532
-0.152463
-0.148629
-0.144842
-0.140363
-0.142959
-0.146655
-0.151759
-0.150267
-0.137221
-0.134279
-0.131506
-0.128898
-0.126467
-0.124172
-0.122006
-0.119933
-0.117891
-0.115795
-0.113513
-0.110894
-0.107778
-0.104043
-0.0996169
-0.0944993
-0.0887499
-0.0824907
-0.0759205
-0.0693475
-0.0631487
-0.0576567
-0.0530392
-0.0492618
-0.0528316
-0.0557564
-0.0574958
-0.0589224
-0.0598336
-0.0606338
-0.061505
-0.0494358
0.00364121
-0.00106134
-0.00470299
-0.00765204
-0.0101063
-0.0119833
-0.0135459
-0.0149916
-0.0158923
-0.0163319
-0.0165704
-0.0170142
-0.0174929
-0.0179095
-0.0180445
-0.0179342
-0.0180746
-0.0179681
-0.0180478
-0.0180914
-0.0179909
-0.0180023
-0.0180411
-0.0179447
-0.0230996
-0.154331
-0.152328
-0.148981
-0.147923
-0.144509
-0.140953
-0.136855
-0.139123
-0.142858
-0.145966
-0.147052
-0.151622
-0.150367
-0.134
-0.131293
-0.128734
-0.126349
-0.12409
-0.121963
-0.119944
-0.117994
-0.116056
-0.11403
-0.111785
-0.109153
-0.105971
-0.102103
-0.0974885
-0.0921341
-0.0861178
-0.0795866
-0.0727702
-0.0660144
-0.0597285
-0.0542576
-0.0497476
-0.0497049
-0.0522479
-0.0538127
-0.055468
-0.0563357
-0.0570875
-0.0579505
-0.0019656
-0.00544159
-0.00818339
-0.0104749
-0.0122483
-0.0136732
-0.0149149
-0.0157263
-0.0161537
-0.016422
-0.0168132
-0.0172544
-0.0176611
-0.0182908
-0.0181513
-0.0180243
-0.0182113
-0.0181219
-0.0182189
-0.0182
-0.0180922
-0.0181313
-0.0181387
-0.018176
-0.0181003
-0.0181248
-0.144704
-0.143689
-0.140612
-0.137385
-0.133674
-0.135727
-0.138914
-0.141806
-0.143569
-0.131038
-0.128527
-0.126194
-0.123975
-0.121885
-0.119908
-0.118018
-0.116182
-0.114334
-0.112375
-0.110155
-0.107504
-0.104243
-0.100235
-0.0954183
-0.0898119
-0.0835177
-0.0767067
-0.0696472
-0.0627262
-0.0563821
-0.0509552
-0.0490445
-0.0506848
-0.0519619
-0.0528453
-0.05337
-0.0545083
-0.00623501
-0.00884226
-0.0109416
-0.0125954
-0.0138948
-0.0149656
-0.01568
-0.0160722
-0.0163272
-0.016649
-0.0170149
-0.0173513
-0.0177095
-0.0167551
-0.0189634
-0.0182236
-0.0181908
-0.0181973
-0.018372
-0.0183236
-0.0182348
-0.0182959
-0.0182972
-0.0182762
-0.0181701
-0.018206
-0.140822
-0.139957
-0.13711
-0.134206
-0.130759
-0.132606
-0.135521
-0.138331
-0.139216
-0.141615
-0.143487
-0.128272
-0.126
-0.123824
-0.121774
-0.119834
-0.117985
-0.116215
-0.114481
-0.112719
-0.110812
-0.108613
-0.105933
-0.102586
-0.098426
-0.0933935
-0.0875235
-0.0809406
-0.0738471
-0.0665538
-0.0594881
-0.0531063
-0.0487374
-0.0495558
-0.0503385
-0.0511345
-0.0520098
-0.0528706
-0.05305
-0.00953595
-0.0115174
-0.0130153
-0.0141935
-0.0151235
-0.0157445
-0.0160875
-0.0162999
-0.0165372
-0.0168048
-0.0170405
-0.0172071
-0.0165129
-0.016589
-0.0169087
-0.0171065
-0.0198339
-0.0180791
-0.0183867
-0.018318
-0.0183283
-0.0184062
-0.01845
-0.0184056
-0.0183185
-0.018366
-0.140643
-0.139878
-0.137339
-0.136511
-0.134025
-0.131228
-0.127938
-0.129819
-0.132424
-0.134934
-0.135749
-0.138235
-0.139084
-0.125767
-0.123636
-0.121628
-0.119725
-0.117912
-0.116186
-0.114523
-0.112884
-0.111192
-0.109334
-0.107148
-0.104433
-0.100989
-0.096665
-0.0914046
-0.0852599
-0.0783802
-0.0710056
-0.0634899
-0.0562953
-0.0488343
-0.0478808
-0.0496328
-0.0503564
-0.0511247
-0.0121179
-0.0135212
-0.0145579
-0.0153657
-0.0159012
-0.0161895
-0.0163456
-0.0164907
-0.0166489
-0.0167768
-0.0168218
-0.0163144
-0.0163016
-0.0165103
-0.0168275
-0.0169553
-0.0170865
-0.0169901
-0.0180677
-0.0213415
-0.0181777
-0.0176603
-0.0184891
-0.0184491
-0.0184279
-0.0184877
-0.137175
-0.136415
-0.134044
-0.133645
-0.131021
-0.127483
-0.125507
-0.129247
-0.131904
-0.132649
-0.134794
-0.135609
-0.12341
-0.121446
-0.119585
-0.117805
-0.116114
-0.114497
-0.112933
-0.111374
-0.109747
-0.107932
-0.10575
-0.102992
-0.0994427
-0.094943
-0.0894425
-0.0830115
-0.0758304
-0.0681788
-0.0604502
-0.047885
-0.0140387
-0.0149985
-0.015677
-0.0161279
-0.0163606
-0.016458
-0.0165138
-0.0165631
-0.0165842
-0.0165363
-0.0161478
-0.0160705
-0.0162318
-0.0162904
-0.0166605
-0.0167777
-0.0170127
-0.0171351
-0.0172511
-0.0172996
-0.0172572
-0.0170357
-0.0221085
-0.01853
-0.0174123
-0.133742
-0.133845
-0.131237
-0.130652
-0.127906
-0.125239
-0.126637
-0.123137
-0.129244
-0.131803
-0.13233
-0.121226
-0.119413
-0.117668
-0.116008
-0.114425
-0.112908
-0.111428
-0.109945
-0.108377
-0.106595
-0.104412
-0.101603
-0.0979377
-0.093251
-0.0874966
-0.0807711
-0.0732859
-0.065359
-0.0154449
-0.0160595
-0.0164085
-0.0165813
-0.0166237
-0.0166014
-0.0165526
-0.0164732
-0.016343
-0.016014
-0.0158815
-0.0159783
-0.0159997
-0.0159109
-0.016897
-0.0164818
-0.0168212
-0.0169218
-0.0170866
-0.0171779
-0.0172699
-0.0172184
-0.13383
-0.13106
-0.13004
-0.128082
-0.12743
-0.125681
-0.122811
-0.12428
-0.126833
-0.126186
-0.120963
-0.129555
-0.128866
-0.131739
-0.132172
-0.11921
-0.117501
-0.115874
-0.11432
-0.112836
-0.111403
-0.110003
-0.108587
-0.107071
-0.105317
-0.103128
-0.100257
-0.096465
-0.0915777
-0.085559
-0.0785318
-0.0707377
-0.0164433
-0.0167456
-0.0168399
-0.0168276
-0.0167412
-0.0166107
-0.0164439
-0.0162388
-0.0159238
-0.0157389
-0.0157563
-0.0157488
-0.0156743
-0.0155723
-0.0160744
-0.0162322
-0.0171882
-0.0180472
-0.0164463
-0.0168999
-0.0169942
-0.0170496
-0.017006
-0.130943
-0.130177
-0.125521
-0.125484
-0.123108
-0.120657
-0.122023
-0.124356
-0.123841
-0.118987
-0.117305
-0.115712
-0.114187
-0.112731
-0.11133
-0.109977
-0.108649
-0.107294
-0.105824
-0.104092
-0.101886
-0.0989467
-0.095018
-0.0899156
-0.0836219
-0.0762827
-0.0170759
-0.0171396
-0.0170605
-0.016918
-0.0167239
-0.0164868
-0.0162163
-0.0158864
-0.0156457
-0.0155738
-0.0155173
-0.0154379
-0.0153816
-0.0155271
-0.0157356
-0.0158513
-0.0161486
-0.0162461
-0.0163163
-0.0165019
-0.0171133
-0.0153674
-0.0166819
-0.0165859
-0.125507
-0.123222
-0.122678
-0.120944
-0.118752
-0.119919
-0.122206
-0.12166
-0.12422
-0.123834
-0.117078
-0.115521
-0.114026
-0.112601
-0.111225
-0.109903
-0.108623
-0.107359
-0.106059
-0.104629
-0.102913
-0.100684
-0.0976677
-0.093587
-0.0882554
-0.0816748
-0.0174241
-0.0173266
-0.0171231
-0.0168769
-0.0165862
-0.0162621
-0.0159031
-0.015604
-0.0154395
-0.0153178
-0.0152049
-0.0151502
-0.0152404
-0.015163
-0.0157072
-0.0155805
-0.0158199
-0.0158768
-0.0159746
-0.0160112
-0.0162287
-0.0163287
-0.0164127
-0.0166079
-0.0171935
-0.0162765
-0.123066
-0.12258
-0.121062
-0.120549
-0.118975
-0.116811
-0.118089
-0.120071
-0.119561
-0.122149
-0.121616
-0.115294
-0.113837
-0.112448
-0.111096
-0.109798
-0.108547
-0.107332
-0.106126
-0.104875
-0.103481
-0.101774
-0.0995157
-0.0964102
-0.0921612
-0.0865886
-0.0175741
-0.0173589
-0.017059
-0.016724
-0.0163594
-0.0159679
-0.0156131
-0.0153606
-0.0151626
-0.0149965
-0.014898
-0.0148912
-0.0146851
-0.0138914
-0.0149115
-0.0158629
-0.0156193
-0.0156639
-0.0156885
-0.0156782
-0.0158864
-0.0159644
-0.0160485
-0.0160934
-0.0162949
-0.016397
-0.0164848
-0.0167016
-0.120919
-0.120449
-0.11904
-0.118552
-0.117059
-0.115035
-0.116135
-0.118384
-0.117592
-0.120016
-0.119501
-0.11362
-0.112273
-0.110946
-0.10967
-0.108442
-0.107255
-0.106098
-0.104945
-0.10374
-0.102374
-0.100672
-0.0983757
-0.0951669
-0.0907348
-0.0175755
-0.0172694
-0.0168892
-0.0164909
-0.0160697
-0.015668
-0.0153371
-0.0150604
-0.0148283
-0.0146638
-0.0145623
-0.014285
-0.0136657
-0.0135913
-0.0140292
-0.0143624
-0.0148602
-0.0150793
-0.0152083
-0.016746
-0.0148095
-0.0157176