/*--------------------------------*- C++ -*----------------------------------*\
| =========                 |                                                 |
| \\      /  F ield         | OpenFOAM: The Open Source CFD Toolbox           |
|  \\    /   O peration     | Version:  v1912                                 |
|   \\  /    A nd           | Website:  www.openfoam.com                      |
|    \\/     M anipulation  |                                                 |
\*---------------------------------------------------------------------------*/
FoamFile
{
    version     2.0;
    format      ascii;
    class       surfaceScalarField;
    location    "390";
    object      phi;
}
// * * * * * * * * * * * * * * * * * * * * * * * * * * * * * * * * * * * * * //

dimensions      [0 3 -1 0 0 0 0];
oriented        oriented;


internalField   nonuniform List<scalar> 
7354
(
-3.48723e-05
0.00993345
-0.000160096
0.0100949
0.000763757
0.00916974
-0.000365105
0.0102383
0.00121035
0.0096483
0.00285659
0.00313585
0.00317768
-0.000600753
0.0102813
0.00134022
0.0101084
0.00465899
0.00358567
0.00426024
0.00195431
0.000584798
0.000597595
0.00395962
0.000604915
0.000567458
-0.000865701
0.0102955
0.00133467
0.0102869
0.00536142
0.00460184
0.00480415
0.00558253
0.00122983
0.000732931
0.00639822
0.00177702
0.00166754
-0.000598183
0.00118298
-0.00175044
0.00235535
-0.0011656
0.0103131
0.00119907
0.0104311
0.00533325
0.0103151
0.00708951
0.00203477
0.00187577
0.00713903
0.00475463
-0.00308828
0.00431811
-0.00431845
0.00473645
0.00135902
0.0016672
-0.00149811
0.0103347
0.000932445
0.0105797
0.00479775
0.0109666
-0.00980982
0.0160633
0.00532339
0.00587725
-0.00515813
0.0052539
0.001939
0.00145409
-0.00425845
0.00231191
0.00214525
-0.0016672
0.00302622
-0.00185664
0.010356
0.000548904
0.0107182
0.00403463
0.0113428
0.0139574
0.0130725
0.00599142
-0.00313419
0.00418968
-0.00172354
0.00621607
0.0056526
-0.00448032
0.00216087
-0.00265106
0.00182878
-0.00216087
0.00165505
-0.00223508
0.0103753
7.22338e-05
0.0108327
0.00319987
0.011553
0.0114234
0.0138768
-0.00318987
0.00988596
0.0125925
0.00218564
0.00292044
-0.000371064
-0.000545332
-0.00112904
0.00123429
0.00464836
0.000526011
-0.00262925
0.0103925
-0.000472943
0.0109205
0.0023394
0.0116932
0.00897504
0.0140014
0.00896525
0.0147975
-0.00161484
0.00448007
0.0110251
-0.00129791
0.000861629
-0.00011082
0.00224332
-7.3697e-05
-0.000931666
0.000668599
-0.000107998
-0.000242709
0.00389515
0.000283302
-0.00303409
0.0104054
-0.00106552
0.010985
0.00146081
0.0117991
0.00676918
0.013899
0.00746098
0.0155057
0.00474833
0.0145293
0.00163004
0.00989264
-9.6804e-05
-0.000400741
-0.000637669
0.00323491
0.000576827
-1.90482e-05
0.0017754
-8.14844e-05
-8.82626e-05
0.000516011
-1.28812e-05
0.000175303
-0.00344827
0.0104172
-0.00169105
0.011031
0.000566833
0.011879
0.00481679
0.0137515
0.00582236
0.0155376
0.00420262
0.0160514
0.0022591
0.0139002
0.000305955
0.00919019
0.00023944
0.000157046
-0.0029949
0.00290658
-8.49059e-06
-0.000160724
0.000156255
0.00164389
-2.28401e-05
-6.37358e-06
-0.000447969
0.000389097
-2.26127e-05
-2.0221e-05
0.000143374
-0.00387039
0.0104271
-0.00233949
0.0110656
-0.000338921
0.0119367
0.00307304
0.0136228
0.00421991
0.0153539
0.00329369
0.0164466
0.00222868
0.0160818
0.00096324
0.0132429
-2.1276e-05
0.00886378
0.000113903
0.000233784
-0.00288299
0.00287078
0.000251648
0.000180637
0.00163666
4.01658e-06
-5.2819e-06
0.000368146
-1.88917e-06
0.000362804
-1.03109e-06
-0.000123153
0.00010054
-0.00429718
0.0104338
-0.00300463
0.0110923
-0.00125192
0.0119786
0.00148566
0.0135241
0.00269572
0.015147
0.00226586
0.0163817
0.00176305
0.0169122
0.00117773
0.0158673
0.000425812
0.0127958
7.48842e-05
0.00876464
-2.72634e-05
5.15157e-05
-0.00286919
0.0028829
0.000100198
0.00023537
-0.00171828
0.00175081
0.000113397
0.000105721
2.91092e-05
6.99104e-05
-0.000357915
0.000362506
-5.74663e-07
-3.93498e-07
9.86511e-05
9.762e-05
-0.00473082
0.0104416
-0.00368645
0.0111156
-0.00216987
0.0120102
1.0607e-05
0.0134536
0.00124502
0.0149748
0.00121641
0.0161964
0.00109221
0.0170526
0.000979755
0.0171102
0.000653554
0.0156396
0.000300247
0.0125705
9.38844e-05
-6.42594e-05
0.00873501
-0.00289299
0.00272562
0.000140109
4.14212e-05
-0.00180164
0.00185811
8.44664e-06
3.52794e-05
0.000124822
5.97183e-05
-0.000455478
0.000483265
8.56104e-05
-0.000420512
7.07541e-05
0.000380876
1.07394e-05
3.02738e-05
-9.72265e-05
9.66518e-05
-0.00516693
0.0104471
-0.0043795
0.0111347
-0.00309176
0.0120375
-0.00138666
0.0134075
-0.000149043
0.0148477
0.000172648
0.0160185
0.000347908
0.0169407
0.000541243
0.0174911
0.000573304
0.0171904
0.000455781
0.015484
0.000247998
0.0124163
-0.00205115
0.00474895
-1.05656e-05
-2.58789e-05
-5.43306e-06
0.000135295
0.00860514
-0.00189391
-1.21804e-05
-4.94462e-06
7.61331e-06
-1.99814e-06
-0.000570698
0.000575767
3.37721e-06
-0.000550602
1.51824e-05
0.000526465
8.16216e-05
3.55819e-05
-0.000208419
0.000237503
5.65265e-05
-0.000137665
0.000107391
-0.00560757
0.0104536
-0.00508759
0.0111552
-0.00402038
0.0120633
-0.00273924
0.0133901
-0.00150651
0.0147649
-0.000862596
0.015883
-0.000418236
0.0167847
-7.39558e-06
0.0174893
0.000267211
0.0177972
0.000406867
0.0172393
0.000374231
0.0153578
0.000182352
0.0122285
0.004763
0.000108879
1.23609e-05
-0.000877982
0.000869782
-1.46907e-06
-8.97762e-07
-0.000530466
-2.4614e-07
-1.19234e-06
-0.000371957
-3.767e-05
0.000253421
0.00838938
-0.000575162
3.25145e-05
-0.000579951
-1.55294e-07
0.000581463
1.9174e-06
-4.8666e-07
-0.000330823
0.000334196
4.08658e-09
-0.000318013
2.37277e-06
0.000291063
2.80613e-05
8.6311e-06
5.65265e-05
-0.00605429
0.0104607
-0.00580876
0.0111748
-0.0049525
0.0120873
-0.00407712
0.0134012
-0.00284369
0.0147272
-0.00189364
0.015796
-0.00118794
0.0166527
-0.000594656
0.017372
-0.000153288
0.0179098
0.000173194
0.0180309
0.000352377
0.0172612
0.000325236
0.0152149
0.000177068
0.0120138
0.00466552
0.000168789
0.000182106
-0.000882175
0.000963384
2.25735e-05
5.09596e-06
1.18124e-06
-1.21334e-06
-8.92873e-05
8.78182e-05
-9.01851e-05
-9.04312e-05
-9.16236e-05
-0.000336352
-3.0908e-06
4.81943e-05
4.92031e-05
0.00829198
-0.000335786
-7.21103e-07
0.000335841
2.71782e-07
-4.31997e-07
-9.55917e-05
9.55958e-05
-9.32189e-05
8.45878e-05
-0.00650603
0.0104667
-0.00654076
0.0111927
-0.00589254
0.0121148
-0.00543651
0.0134467
-0.00418068
0.0147382
-0.0029229
0.0157565
-0.00195662
0.0165647
-0.001193
0.017251
-0.000620919
0.0178396
-0.000174022
0.0182571
0.000165231
0.018218
0.00033071
0.0172557
0.000319975
0.015072
0.000192629
0.0118694
0.00468421
-1.97071e-05
5.02214e-05
-0.00101624
0.00108566
2.56256e-05
7.37457e-05
7.1104e-05
5.81451e-05
-9.2882e-05
0.000115455
-8.77861e-05
-8.66049e-05
-9.47144e-05
0.000123284
-7.24651e-05
0.00824116
-9.54355e-05
9.58675e-05
-0.00696607
0.010476
-0.00728621
0.0112122
-0.00684473
0.0121449
-0.00684603
0.0135244
-0.00553392
0.0147999
-0.00395586
0.0157711
-0.00272407
0.0165239
-0.00179213
0.0171638
-0.00110378
0.0177339
-0.000568355
0.0182339
-0.000130603
0.0185529
0.000182068
0.0183666
0.000332269
0.0172434
0.000302472
0.0149622
0.000207278
0.0117854
0.0046587
-2.91756e-05
-1.77781e-05
-0.00112754
0.00111899
-7.56041e-06
-3.59333e-06
-1.34303e-06
9.67608e-06
-0.000248139
0.000266678
7.0863e-06
-0.000198125
2.37322e-05
-0.000173601
4.6579e-05
0.000109147
-6.44529e-05
0.00819646
-0.00743339
0.0104843
-0.00803715
0.011227
-0.00781191
0.0121794
-0.00834125
0.0136401
-0.00691913
0.0149096
-0.00499204
0.0158361
-0.00348744
0.0165345
-0.00238934
0.0171212
-0.00158773
0.0176477
-0.000978454
0.018144
-0.000480387
0.0185837
-7.90907e-05
0.018814
0.000201358
0.0184976
0.000308938
0.0172369
0.000275796
0.0148936
0.00017659
0.0117179
0.00462958
-1.5529e-05
-1.981e-05
-0.00110718
0.00108833
-5.93835e-06
-4.38513e-06
-3.1527e-06
-2.81968e-06
-0.000272154
0.00026668
-2.08681e-06
-0.000274153
-1.59418e-06
-0.000274741
-7.55677e-07
1.61296e-06
-7.03112e-05
7.73975e-05
-4.6579e-05
2.98759e-06
4.92259e-05
0.00814425
-0.00790801
0.0104936
-0.00878864
0.0112358
-0.00880541
0.0122205
-0.00996769
0.0138058
-0.00836153
0.0150825
-0.00603956
0.0159571
-0.00425095
0.0165996
-0.00298166
0.0171268
-0.00206664
0.0176001
-0.00138881
0.0180581
-0.000847172
0.0185107
-0.000398044
0.0189026
-3.78298e-05
0.0190532
0.00019105
0.0186154
0.000268797
0.0172439
0.000229651
0.0148406
8.99712e-05
0.0116309
0.00465253
3.2524e-05
-6.24245e-06
-0.00107277
0.00106472
-4.03504e-06
-3.451e-06
-1.775e-06
-2.47261e-06
-0.000258667
0.000254438
-1.70921e-06
-0.000261673
-1.3791e-06
-0.000264017
-8.08557e-07
-1.57325e-07
-7.66606e-05
7.45737e-05
-7.82548e-05
-7.90104e-05
-0.000105202
0.000216518
0.00803293
-0.00838884
0.0105008
-0.00953144
0.0112364
-0.00984171
0.0122721
-0.0117795
0.0140323
-0.00988055
0.0153248
-0.00710225
0.0161452
-0.00501498
0.0167211
-0.00357016
0.0171881
-0.0025446
0.0176048
-0.00179794
0.0180092
-0.00121546
0.0184264
-0.000737783
0.0188505
-0.000339034
0.0192039
-3.22637e-05
0.0192765
0.000154894
0.0187293
0.000217754
0.0172558
0.000155351
0.0147752
1.3041e-05
0.0115127
0.00462015
0.00015488
9.40146e-05
-0.00106052
0.00108968
4.58295e-06
-1.21597e-06
8.78357e-08
-2.12519e-06
-0.000248204
0.000245498
-1.32848e-06
-0.000250571
-1.08461e-06
-0.000251868
-4.78197e-07
9.70101e-08
-7.22287e-05
7.05195e-05
-7.36078e-05
-7.44164e-05
-0.000116474
0.000205071
0.00794433
-0.00886832
0.0105035
-0.0102534
0.0112228
-0.0109533
0.012348
-0.0138458
0.0143384
-0.0114996
0.0156513
-0.00818675
0.0164093
-0.00578115
0.0169114
-0.00415537
0.0173063
-0.00301751
0.017661
-0.00220079
0.0180076
-0.00158293
0.0183767
-0.00108514
0.0187737
-0.000666645
0.0191781
-0.000318574
0.0194902
-5.51378e-05
0.0194866
0.000106495
0.0188406
0.000148755
0.0172624
8.92913e-05
0.0146989
-1.86174e-05
0.0114148
0.00460304
6.05895e-05
0.000161588
-0.00112891
0.00115312
7.01113e-05
6.05633e-05
3.92581e-05
1.55168e-05
-0.00024299
0.000247335
2.37043e-07
-0.000243528
-6.78308e-07
-0.0002432
-2.40065e-07
1.72467e-07
-6.90537e-05
6.77252e-05
-7.01383e-05
-7.06165e-05
-3.51393e-05
4.75555e-05
0.0079319
-0.00934181
0.0105045
-0.0109487
0.0111988
-0.0121835
0.012453
-0.0162341
0.0147363
-0.0132263
0.016065
-0.00928959
0.0167542
-0.0065445
0.0171727
-0.00473322
0.0174892
-0.00348453
0.0177733
-0.00260106
0.0180613
-0.00194686
0.0183716
-0.00142913
0.0187206
-0.00100005
0.0191071
-0.000634385
0.0194939
-0.000330584
0.0197656
-9.54862e-05
0.0196886
4.68646e-05
0.0189425
8.54511e-05
0.0172663
4.00393e-05
0.0146403
-3.43577e-07
0.01138
0.0046393
-1.47936e-05
2.60873e-05
-0.00119468
0.00122753
4.31738e-06
2.34234e-05
4.10092e-05
7.90191e-05
-0.000297259
0.000313423
5.39463e-05
-0.000278061
4.13654e-05
-0.000256764
1.79607e-05
6.0883e-06
-6.69792e-05
6.72162e-05
-6.76576e-05
-6.78976e-05
2.22281e-05
-2.70155e-05
0.00793668
-0.00980333
0.0105045
-0.0116118
0.0111675
-0.013574
0.0125893
-0.0189893
0.0152082
-0.0150172
0.0165272
-0.0103637
0.0171391
-0.00727536
0.017485
-0.00529001
0.0177295
-0.00394002
0.0179447
-0.00299705
0.0181693
-0.00230893
0.0184233
-0.00177327
0.0187157
-0.00133553
0.0190561
-0.000961911
0.0194347
-0.000638252
0.0198016
-0.000360759
0.0200309
-0.000146814
0.0198822
-1.41072e-05
0.019042
2.62228e-05
0.0172801
1.58015e-05
0.0146241
1.802e-05
0.0113843
0.00464167
-2.14492e-05
-7.93704e-06
-0.00124826
0.001244
-7.29298e-06
-3.24524e-06
-9.75535e-07
6.33271e-06
-0.000371544
0.000374076
1.78535e-06
-0.000357552
9.43103e-06
-0.000340579
2.40361e-05
5.18634e-05
-0.000132631
0.000151261
3.53155e-05
-9.12652e-05
-7.33045e-05
2.47343e-05
-3.59269e-05
0.00794787
-0.0102506
0.0105073
-0.0122333
0.011126
-0.0151261
0.0127197
-0.0220642
0.0156642
-0.0167217
0.0169126
-0.0112857
0.0174493
-0.00789088
0.0177546
-0.00577376
0.0179688
-0.00435859
0.018148
-0.00337807
0.0183257
-0.00266549
0.0185259
-0.00211588
0.0187659
-0.00166919
0.0190494
-0.00128986
0.0193841
-0.000958754
0.0197552
-0.00066376
0.0201046
-0.000407857
0.0202919
-0.000205295
0.0200734
-7.98578e-05
0.0191481
-2.53565e-05
0.0173212
-3.3389e-06
0.0146455
2.61761e-06
0.0114064
0.00463577
-1.69664e-05
-1.30708e-05
-0.00123907
0.00122847
-8.99546e-06
-1.8511e-06
-1.7072e-06
-1.3021e-06
-0.000376715
0.000373139
-3.71664e-06
-0.000377374
-2.58661e-06
-0.000377821
-5.29229e-07
2.58772e-06
-0.000211537
0.000213686
-3.63457e-07
-0.000203558
1.45132e-06
-0.000185473
5.95131e-06
1.76515e-05
3.53155e-05
-2.3439e-05
-1.08086e-06
0.00797239
-0.0106879
0.0105053
-0.0127979
0.0110719
-0.016747
0.0127469
-0.0252547
0.0159102
-0.0180227
0.0169653
-0.0118071
0.017434
-0.00821957
0.017778
-0.00607708
0.018058
-0.00467336
0.0182836
-0.00370571
0.0184757
-0.00299796
0.0186582
-0.0024489
0.0188589
-0.00200077
0.0190975
-0.00161985
0.0193794
-0.00128692
0.0197122
-0.00098356
0.020075
-0.000705838
0.0204025
-0.00046191
0.0205485
-0.000269781
0.0202633
-0.000143806
0.0192666
-7.09599e-05
0.0173889
-4.14499e-05
0.0146896
-5.3402e-05
0.0114363
0.00465105
-3.86612e-06
-1.24905e-05
-0.0012251
0.00121739
-9.2527e-06
-9.70491e-06
-0.000367619
0.000338746
1.98775e-05
-0.00037046
9.89685e-07
-0.000371645
-5.22905e-07
1.91311e-07
-0.00021359
0.000211135
-1.26268e-06
-0.000215433
-7.43658e-07
-0.000215704
-2.5861e-07
5.69751e-07
-6.03697e-05
6.00062e-05
-5.89184e-05
-5.29671e-05
-0.000117531
8.78976e-05
0.00800201
-0.0110958
0.0104499
-0.0132609
0.0109682
-0.0181819
0.0125069
-0.0281635
0.0156556
-0.0183701
0.0162575
-0.0115267
0.0166849
-0.00799032
0.0172047
-0.00601688
0.0177178
-0.0047677
0.0181523
-0.00390835
0.0184862
-0.00326615
0.0187439
-0.00275236
0.0189616
-0.00232022
0.0191784
-0.00194635
0.019424
-0.00161397
0.0197064
-0.00130926
0.0200379
-0.00102533
0.0203944
-0.000761655
0.0207023
-0.000527529
0.0208063
-0.000339776
0.0204593
-0.000204606
0.0194002
-0.000125037
0.0174724
-0.000100487
0.0147366
-0.000137665
0.0114565
0.00470549
3.20669e-05
1.38567e-06
-0.00120866
0.00120991
-5.11852e-06
-3.76181e-06
-0.00056195
0.000554003
-6.98546e-07
-6.07744e-07
-0.000233277
2.18497e-07
1.48606e-07
-0.000211454
-1.94525e-06
-0.000210638
1.73508e-07
-0.000211024
-1.37537e-07
3.02723e-07
-5.95736e-05
5.83109e-05
-6.03173e-05
-6.05759e-05
-0.000225549
0.000233398
0.00799416
-0.011396
0.0102572
-0.0136116
0.0108006
-0.0191026
0.0118889
-0.0300197
0.0143631
-0.0169271
0.0142126
-0.00995711
0.014688
-0.00689408
0.0155887
-0.00538476
0.0165726
-0.00449126
0.0174413
-0.00387475
0.0181187
-0.00339051
0.0186105
-0.00297349
0.018965
-0.00259821
0.0192396
-0.00225562
0.0194876
-0.00193592
0.019746
-0.00163626
0.0200334
-0.00135205
0.0203646
-0.00107941
0.0207122
-0.00082405
0.0209988
-0.00059618
0.0210627
-0.000408217
0.0206629
-0.000268537
0.0195437
-0.000188276
0.0175602
-0.000175874
0.0147748
-0.00021786
0.0114488
0.00473748
0.000135138
6.62724e-05
-0.00120976
0.00123352
8.30437e-06
1.53419e-06
-0.000550428
0.000546411
-5.49866e-07
-5.525e-07
-1.33635e-07
-5.35956e-08
-5.64636e-05
5.5765e-05
-5.70713e-05
5.69227e-05
-5.67043e-05
-5.86496e-05
-5.84761e-05
-5.86136e-05
-0.000255591
0.000276463
0.00797328
-0.0115551
0.010019
-0.0136106
0.00520851
0.00504775
-0.0087817
0.0056871
0.00534532
-0.0105527
-0.0154028
0.00629284
-0.0142787
0.00525779
-0.00849849
0.0102857
-0.00435129
-0.00678701
0.0110425
-0.00479347
0.0125873
-0.00406887
0.0142728
-0.00372621
0.0158075
-0.00349386
0.0170604
-0.00327687
0.018005
-0.00304113
0.0186782
-0.00278523
0.019152
-0.00251578
0.0194998
-0.00223662
0.0197883
-0.001957
0.0200667
-0.00167988
0.0203612
-0.00140769
0.0206929
-0.00114386
0.021032
-0.000894468
0.0212971
-0.000668275
0.0213227
-0.000475237
0.0208696
-0.000333799
0.0196892
-0.000257579
0.0176419
-0.000241089
0.0147981
-0.000245776
0.011439
0.0047388
0.000119062
0.000156078
-0.00125981
0.0012932
0.000101748
3.9977e-05
-0.000547957
0.000556921
-1.25434e-07
-5.34607e-07
-1.24145e-07
1.11101e-07
-5.50252e-05
5.44753e-05
-5.55777e-05
5.56313e-05
-0.000187465
0.000154895
0.00800584
-0.011594
0.00985396
-0.0131826
0.00492878
0.00466221
-0.00849538
0.00492219
-0.00821398
0.00476635
-0.0157865
0.00607081
-0.015647
0.00245594
0.00274991
-0.00989805
0.00426751
-0.00701184
0.0048062
-0.00782736
0.00219466
0.00258167
-0.00515683
-0.00301239
-0.00140996
0.00112589
0.00154241
-0.00143858
0.00593645
-0.000999146
-0.0012374
0.00258766
-0.00089536
-0.00208798
0.00833705
-0.00227458
0.010793
-0.00253486
0.0130814
-0.00273944
0.0150531
-0.00285412
0.0166377
-0.00287341
0.0178373
-0.00280896
0.0187019
-0.00267082
0.0193071
-0.00247677
0.0197399
-0.00224737
0.0200787
-0.0019967
0.0203835
-0.00173746
0.020691
-0.00147448
0.0210235
-0.00121572
0.0213533
-0.000966436
0.0215953
-0.000736245
0.0215837
-0.000541899
0.0210777
-0.000401032
0.0198327
-0.000316733
0.0177176
-0.00027031
0.0148226
-0.000213876
0.0114654
0.00480612
1.58918e-05
7.16772e-05
-0.00131541
0.00135154
8.29295e-05
0.000133872
-0.000591846
0.0006447
3.55322e-05
1.33604e-05
6.38823e-07
4.41231e-06
-5.39275e-05
5.3802e-05
-5.44622e-05
5.43511e-05
-0.000100549
5.0548e-05
0.00805584
-0.0116182
0.00988822
-0.0123164
0.00453474
0.00445307
-0.00797899
0.00469378
-0.00744033
0.00412356
-0.00961731
0.00233193
0.00215368
-0.00655171
0.00105336
0.00170889
-0.00759004
0.0073391
-0.00777834
0.00289518
0.00226165
-0.00258167
0.00176394
-0.00289518
0.000353976
0.000781641
-0.000229498
0.000573748
0.00108665
0.00157977
-0.000430695
-2.16194e-05
0.00384043
2.96584e-05
0.000929479
-0.000348853
-0.000393106
0.000584395
-0.000655376
0.00671784
-0.00125203
0.0095102
-0.00175745
0.0120994
-0.00215524
0.0143542
-0.00244096
0.0162052
-0.00260664
0.017635
-0.00265643
0.0186875
-0.00260335
0.0194336
-0.00246918
0.0199618
-0.00227751
0.0203595
-0.00205088
0.0206969
-0.00180257
0.0210191
-0.0015444
0.0213522
-0.00128681
0.0216736
-0.00103625
0.0218953
-0.000803498
0.0218453
-0.000606868
0.0212836
-0.000455386
0.0199713
-0.000349779
0.0177971
-0.000263428
0.0148722
-0.000155547
0.0115204
0.00485354
-9.37359e-06
1.24979e-05
-0.00138783
0.00139781
5.90973e-06
3.53793e-05
-0.000684479
0.000739873
5.61884e-06
2.19153e-05
5.06097e-05
4.34835e-05
-7.22134e-05
0.000107746
-5.88531e-05
5.44408e-05
-4.0456e-05
3.07966e-07
0.00809599
-0.0116698
0.00999358
-0.0114391
0.00444332
0.00456761
-0.00686983
0.00396423
-0.00619534
0.00377857
-0.00922107
0.00231256
0.00198499
-0.0080977
0.00139198
0.0016082
0.00617931
-0.00589459
0.00204721
0.00178128
0.00606945
-0.00501609
-0.00672125
0.000912482
0.000124478
0.000290583
-0.000109941
0.000429874
-5.22122e-06
1.96288e-05
0.000775065
0.000132793
1.56267e-05
0.00316942
0.000685381
0.000119339
0.000160443
-5.3903e-05
-2.55194e-05
-0.000364482
0.00583029
-0.000857801
0.00861056
-0.00135369
0.0112979
-0.00181022
0.0137235
-0.00217807
0.0157766
-0.00243235
0.0174109
-0.00255925
0.0186434
-0.00256852
0.019533
-0.00248159
0.0201658
-0.00232083
0.0206295
-0.00211001
0.0210044
-0.00187243
0.0213471
-0.00161814
0.0216836
-0.0013585
0.0219959
-0.00110322
0.022195
-0.000865968
0.0221044
-0.000659378
0.0214875
-0.000493028
0.0201146
-0.000359946
0.0178936
-0.000234203
0.0149508
-0.000105061
0.011585
0.00486934
-1.25346e-05
-2.95706e-06
-0.00140775
0.00140456
-6.18708e-06
2.56259e-06
-0.000770118
0.000778157
-2.1792e-06
4.8849e-08
5.04022e-06
9.36122e-08
-0.000174454
0.000179124
9.48718e-07
-0.00015744
4.90101e-06
0.000129055
2.92996e-05
1.50987e-05
-1.01397e-05
-2.01361e-05
0.00812625
-0.011698
0.0100062
-0.0105689
0.00912331
-0.00553707
0.00378505
-0.00482208
0.00385263
-0.00673623
0.00131781
0.00128495
-0.00541919
0.00121587
0.00124566
-0.00579797
0.00221593
-0.00546933
0.00165635
0.004868
-0.00422937
0.000753354
0.00100686
-0.0062728
0.00159877
-0.00410361
1.45372e-05
9.31601e-06
2.89448e-05
0.000224598
2.42268e-05
4.44103e-05
-0.00031625
2.80732e-05
0.00095728
3.18999e-05
-4.97376e-05
0.00285467
2.75747e-06
2.49276e-05
-9.33712e-06
-2.35336e-05
-2.10325e-05
-5.91203e-06
-0.000300169
0.00527265
-0.000684554
0.00794141
-0.00114423
0.0106319
-0.00160706
0.0131525
-0.00201328
0.0153576
-0.0023162
0.0171679
-0.00249655
0.0185714
-0.00255441
0.0196058
-0.00250393
0.0203489
-0.00237038
0.0208898
-0.00217626
0.0213082
-0.00194263
0.0216716
-0.00168962
0.0220147
-0.00142608
0.0223187
-0.0011645
0.0224935
-0.00092005
0.0223651
-0.000701848
0.0216964
-0.000516383
0.020271
-0.00035182
0.0180112
-0.000200246
0.015046
-7.53969e-05
0.0116502
0.00487023
-1.25075e-05
-8.52059e-06
-0.00140399
0.00139884
-7.37916e-06
-2.38967e-06
-0.000781122
0.000778046
-2.01894e-06
-1.09266e-06
4.34e-07
-8.36997e-07
-0.000183641
0.00018224
-7.78758e-07
-0.000183432
-1.59818e-07
0.000183342
8.22036e-07
2.7993e-09
-4.92993e-05
5.0248e-05
-4.43983e-05
2.92996e-05
-3.28354e-06
-2.47159e-05
0.00815424
-0.0117345
0.0100284
-0.00978683
0.00922415
0.0028639
-0.00491071
0.00304499
0.00330304
-0.00396693
0.00115942
0.00117337
0.00145692
0.00129268
-0.0036083
0.000696748
-0.00298994
0.000666584
0.00237589
-0.00175743
0.000597408
0.000631615
-0.00656171
0.00250484
-0.00490536
0.0038985
-0.00314515
-0.00250484
-1.03238e-05
1.10165e-05
2.38532e-05
1.02328e-05
7.21589e-05
-3.8481e-05
-1.15005e-05
2.59579e-06
3.29849e-06
1.51321e-05
0.000908763
-1.63583e-05
9.79016e-05
2.27178e-06
3.88371e-06
-7.00884e-05
0.00262458
-3.92752e-05
3.5511e-06
9.50514e-06
5.91203e-06
-2.69446e-05
-0.000271226
0.00485931
-0.000610046
0.00740722
-0.00103709
0.0100619
-0.00149135
0.0126306
-0.0019076
0.014949
-0.0022396
0.0169109
-0.00245669
0.0184737
-0.0025507
0.0196525
-0.00253256
0.0205111
-0.00241905
0.0211326
-0.00223765
0.0216032
-0.00201099
0.021993
-0.00175401
0.0223426
-0.00148662
0.0226408
-0.00122005
0.0227935
-0.000963926
0.0226272
-0.000731329
0.0219113
-0.000522338
0.0204415
-0.000335352
0.0181463
-0.000176577
0.0151472
-6.73421e-05
0.0117143
0.00486838
-1.11997e-05
-1.1678e-05
-0.00139409
0.0013893
-7.71878e-06
-3.77551e-06
-0.000776103
0.00077152
-1.68727e-06
-1.10935e-06
9.01868e-08
-5.3706e-07
-0.000180987
0.000179701
-7.33338e-07
-0.00018183
-2.49731e-07
0.000182491
1.82935e-07
-1.76745e-07
-5.09129e-05
5.01341e-05
-5.10728e-05
5.107e-05
-1.89702e-05
-1.43973e-05
0.0081876
-0.0117953
0.0100619
-0.00919267
0.00943428
-0.00347576
0.0077892
0.00344327
-0.000505597
-0.00155584
0.000897203
0.000765962
0.00416903
0.00257728
-0.00115912
0.000561114
-0.000542762
0.000557018
6.4581e-06
0.000944862
0.000756372
-0.0024484
-0.00178182
0.0011502
-0.000552793
-1.59281e-05
-5.69539e-06
-5.34126e-06
-2.60856e-06
-1.54466e-06
4.14039e-06
1.75378e-06
0.00010759
5.08653e-06
3.5622e-07
4.01643e-06
0.000857603
-2.29485e-05
0.000104803
-5.15208e-06
-8.42072e-06
4.02549e-06
8.40517e-06
-4.96398e-07
-8.05285e-05
0.00243388
-1.53182e-06
-0.000273763
0.00452303
-0.000586449
0.00695658
-0.000987456
0.00955802
-0.00142151
0.0121445
-0.00183839
0.0145477
-0.00218621
0.0166404
-0.00242988
0.0183529
-0.0025547
0.0196747
-0.00256084
0.0206529
-0.00246784
0.0213628
-0.00229724
0.0218895
-0.00207133
0.0223103
-0.0018146
0.0226706
-0.00154003
0.0229608
-0.00126263
0.0230922
-0.000997335
0.0228932
-0.000746634
0.0221356
-0.000519342
0.0206255
-0.000321821
0.0182915
-0.000170334
0.0152502
-8.19469e-05
0.0117773
0.00487455
-7.46212e-06
-1.31102e-05
-0.00138229
0.00137883
-7.74913e-06
-4.66877e-06
-0.000768279
0.000763325
-1.58751e-06
-1.17964e-06
-6.50251e-08
-4.70833e-07
-0.000178276
0.000177235
-6.46223e-07
-0.00017918
-2.05708e-07
0.000179603
1.886e-07
-1.14118e-07
-4.98905e-05
4.91571e-05
-5.01403e-05
5.0317e-05
-5.85778e-05
1.87787e-05
0.0082274
-0.0118862
0.0100989
-0.00877673
0.00964591
-0.00291275
0.00887126
-0.00338564
0.00822784
0.0031866
0.00392944
-0.00132171
0.000710732
-0.00147669
0.0023739
-0.000710732
0.000910701
0.000654838
8.32205e-06
0.000565341
1.53182e-06
1.21695e-05
1.32173e-06
1.30031e-05
-4.77697e-07
0.000103518
5.25829e-06
4.2014e-08
-2.47281e-06
0.000805655
-2.61122e-05
0.00010419
-2.36223e-05
1.07014e-05
-2.85091e-06
8.20054e-06
-5.92031e-06
-4.96412e-07
-0.000108677
0.00226879
-0.0002953
0.00423187
-0.000588822
0.00655795
-0.000960975
0.00909748
-0.00137984
0.0116859
-0.00179206
0.0141536
-0.00214805
0.0163586
-0.00241011
0.0182083
-0.00255766
0.0196715
-0.00258729
0.0207724
-0.00251003
0.0215756
-0.00234886
0.022167
-0.00212689
0.0226226
-0.00186619
0.0229968
-0.00158576
0.0232839
-0.00129914
0.023394
-0.00101814
0.0231647
-0.0007538
0.0223701
-0.000513626
0.0208173
-0.000315983
0.0184372
-0.00017933
0.0153475
-0.000115139
0.0118338
0.00490061
3.68667e-06
-1.09686e-05
-0.00137073
0.00137024
-6.97154e-06
-5.00891e-06
-0.000759378
0.000754425
-1.52861e-06
-1.27114e-06
-2.30375e-07
-4.9385e-07
-0.000175676
0.000174708
-6.19898e-07
-0.000176646
-2.10031e-07
0.000177005
1.64592e-07
-1.12775e-07
-4.90259e-05
4.83796e-05
-4.92316e-05
4.93457e-05
-0.000124743
9.13669e-05
0.00826078
-0.0120048
0.0101316
-0.00851267
0.00983484
-0.00276862
0.00950177
0.00733916
0.00975994
0.00185874
-0.000540314
0.00227008
-0.000401908
0.00222538
0.0035628
-0.000388891
0.000759278
0.000265947
8.25296e-07
3.47574e-07
8.85649e-06
4.60215e-06
8.40399e-06
4.94064e-07
9.98619e-05
1.85349e-06
-1.50613e-05
0.000748208
-3.61728e-05
9.50795e-05
-2.13313e-05
5.03952e-07
-1.07798e-05
-3.15721e-06
-1.78629e-06
-2.50337e-06
-8.42369e-06
-0.000144461
0.00211794
-0.000325512
0.00396856
-0.000596325
0.0061933
-0.000951835
0.00866948
-0.00135274
0.0112466
-0.00175639
0.0137619
-0.00211633
0.0160648
-0.0023925
0.0180431
-0.0025579
0.0196421
-0.00260567
0.020868
-0.00254558
0.0217723
-0.0023921
0.0224322
-0.00217253
0.0229289
-0.00190795
0.0233189
-0.00161946
0.0236043
-0.00132353
0.0236994
-0.00103064
0.0234415
-0.000753269
0.0226097
-0.000509398
0.0210107
-0.000318828
0.0185767
-0.00019998
0.0154324
-0.000161339
0.0118704
0.00494804
3.96183e-05
4.31916e-06
-0.00136325
0.00137017
-3.22852e-06
-3.98846e-06
-0.000750314
0.000746137
-1.43375e-06
-1.36255e-06
-3.95183e-07
-5.0329e-07
-0.000172937
0.000172015
-6.08093e-07
-0.000173985
-2.24108e-07
0.000174349
1.27388e-07
-1.3113e-07
-4.82213e-05
4.76012e-05
-4.84314e-05
4.85441e-05
-0.000190863
0.000197777
0.00825386
-0.0121512
0.0101623
-0.00836937
0.00998834
-0.00282091
0.00988713
0.00596074
0.0108802
-0.00161697
0.00479218
0.0088101
0.00103726
0.00165845
-0.000180081
-0.000245546
-0.000141161
0.000498529
0.00298309
0.000124786
-2.19489e-06
-1.62678e-06
-1.19716e-06
-6.17722e-06
-2.12167e-06
-6.28227e-07
8.81675e-05
-8.15079e-06
-2.55302e-05
0.000692676
-6.34006e-05
7.93374e-05
-2.73444e-05
-1.54088e-05
-6.62716e-06
-5.47352e-06
4.61026e-06
-7.76753e-06
2.82395e-06
-0.000180839
0.00197327
-0.000346084
0.00371832
-0.000610503
0.00585196
-0.00094818
0.00826491
-0.00133393
0.0108241
-0.00172869
0.0133743
-0.00208811
0.0157604
-0.00237358
0.0178588
-0.00255448
0.0195909
-0.00261853
0.0209409
-0.0025697
0.0219499
-0.00242449
0.0226842
-0.002207
0.023228
-0.0019409
0.0236404
-0.00164486
0.0239256
-0.00133695
0.0240058
-0.00103272
0.023721
-0.000748255
0.0228486
-0.000504885
0.0211968
-0.000324717
0.0187014
-0.000222108
0.0154931
-0.000191609
0.0118712
0.00496196
0.000119861
6.39906e-05
-0.00137101
0.0013954
1.52306e-05
3.47964e-06
-0.000743134
0.000742457
-1.09418e-06
-1.45803e-06
-5.70946e-07
-4.15374e-07
-0.000170051
0.000169214
-5.96664e-07
-0.000171174
-2.39597e-07
0.000171527
9.22176e-08
-1.50689e-07
-4.73731e-05
4.67648e-05
-4.75973e-05
4.77284e-05
-0.000187073
0.000218012
0.00822292
-0.0123184
0.0101852
-0.00831625
0.0101092
-0.00297601
0.0101434
0.00455739
0.0112905
0.00475986
0.0109125
-0.000940482
0.00283514
0.00751524
-0.000599821
0.00046274
-5.3886e-05
0.00126581
-1.62293e-05
-0.000377769
0.000197687
-0.000124786
0.00250535
-1.6268e-06
-9.88924e-06
-7.66378e-06
-2.85392e-06
-1.9803e-05
-7.12362e-07
-3.04512e-06
6.74353e-05
-1.36291e-05
-0.0001191
0.000630936
3.97939e-05
-3.57605e-05
-2.87282e-05
-9.63364e-06
-8.78609e-06
1.06584e-05
-1.49019e-05
-2.38404e-06
-2.47916e-06
-0.000196203
0.00182339
-0.000371684
0.0034795
-0.00062267
0.00552645
-0.000947137
0.00787811
-0.00131824
0.0104137
-0.00170171
0.0129879
-0.00206013
0.015447
-0.0023492
0.0176535
-0.00254207
0.0195144
-0.00262026
0.0209915
-0.00258376
0.0221092
-0.00244783
0.022925
-0.00223251
0.0235196
-0.00196211
0.0239576
-0.00165887
0.0242475
-0.00134087
0.0243139
-0.00102756
0.0240003
-0.000739364
0.0230831
-0.000499447
0.0213715
-0.000326206
0.0188055
-0.000224944
0.0155265
-0.000169742
0.0118538
0.00494301
0.000103322
0.000133642
-0.00141272
0.00143627
9.63053e-05
4.66715e-05
-0.000746258
0.00076101
1.51099e-06
-1.03106e-06
-6.42803e-07
3.22093e-07
-0.000167131
0.000166598
-5.61278e-07
-0.000168336
-2.53381e-07
0.000168589
5.36046e-08
-1.63299e-07
-4.64666e-05
4.58699e-05
-4.67062e-05
4.68569e-05
-9.46719e-05
0.000100116
0.00821747
-0.0125026
0.0102022
-0.00832412
0.0101931
-0.00318365
0.0103168
0.00329477
0.0114061
0.00421133
0.011839
0.0034016
0.0103461
0.00161462
0.00641722
-0.00022776
-0.000288851
-0.000242308
0.00214783
0.000143801
0.00104377
-8.60949e-06
-1.16577e-05
0.000127572
-2.85393e-06
-1.58655e-05
2.50984e-07
-1.67324e-05
-2.17853e-06
-3.17636e-05
-4.37728e-06
-6.21738e-06
3.69819e-05
-1.29933e-05
-7.74157e-05
-2.58796e-05
-0.000112587
0.000547318
-3.05432e-05
1.93882e-05
-2.2491e-05
-6.53119e-06
-6.13064e-06
5.33309e-06
-7.71716e-06
-0.000221523
0.00167322
-0.000388822
0.00324564
-0.000634948
0.00521425
-0.000944587
0.00750446
-0.00130115
0.0100131
-0.00167529
0.012603
-0.00202747
0.0151253
-0.00232104
0.0174325
-0.00252318
0.0194174
-0.00261361
0.0210213
-0.00258903
0.0222504
-0.0024593
0.0231518
-0.00224512
0.0238026
-0.00197138
0.0242701
-0.00166056
0.0245672
-0.00133473
0.0246211
-0.00101582
0.0242767
-0.000724825
0.0233084
-0.00048409
0.0215294
-0.000308074
0.0188887
-0.000188603
0.0155453
-8.87538e-05
0.0118479
0.0049662
1.16322e-05
6.52983e-05
-0.00144871
0.0014689
8.31259e-05
0.000121208
-0.000791462
0.000822979
4.20652e-05
2.27226e-05
3.51489e-06
1.27045e-05
-0.000165483
0.000167185
-1.90121e-07
-0.000166338
-1.76038e-07
0.000165919
3.70527e-08
-9.62537e-08
-4.55067e-05
4.49454e-05
-4.57601e-05
4.59234e-05
2.52171e-05
-2.05086e-05
0.00821277
-0.0126956
0.010211
-0.00836456
0.0102427
-0.00341101
0.0104205
0.00221495
0.0113967
0.00348431
0.0121331
0.00335702
0.0118836
0.00242491
0.00953574
0.00115518
0.0058402
-0.000304261