/*--------------------------------*- C++ -*----------------------------------*\
| =========                 |                                                 |
| \\      /  F ield         | OpenFOAM: The Open Source CFD Toolbox           |
|  \\    /   O peration     | Version:  v1912                                 |
|   \\  /    A nd           | Website:  www.openfoam.com                      |
|    \\/     M anipulation  |                                                 |
\*---------------------------------------------------------------------------*/
FoamFile
{
    version     2.0;
    format      ascii;
    class       volVectorField;
    location    "390";
    object      U;
}
// * * * * * * * * * * * * * * * * * * * * * * * * * * * * * * * * * * * * * //

dimensions      [0 1 -1 0 0 0 0];


internalField   nonuniform List<vector> 
3754
(
(0.995633 0.00296228 9.15369e-23)
(0.996038 0.00861918 0)
(0.950798 0.0118394 1.43613e-22)
(0.996666 0.0135914 0)
(0.955794 0.0334403 0)
(0.812858 0.0380095 -1.89653e-21)
(0.997174 0.0174514 0)
(0.965268 0.0511835 -1.10631e-20)
(0.842228 0.0991647 1.25783e-22)
(0.515388 0.0519055 1.04122e-21)
(0.532008 0.147007 8.96888e-22)
(0.997538 0.0199999 -1.49562e-22)
(0.977298 0.0634192 1.10057e-20)
(0.893081 0.145303 0)
(0.578835 0.23787 8.10448e-22)
(0.646667 0.306621 -3.41227e-21)
(0.11781 0.102277 -2.12007e-22)
(0.11164 0.0344464 2.17417e-22)
(0.158628 0.226522 0)
(0.132327 0.167258 0)
(0.997873 0.021346 0)
(0.988775 0.0708063 4.61856e-22)
(0.935285 0.166955 0)
(0.719261 0.356832 2.56124e-21)
(0.802343 0.380879 -3.74747e-21)
(0.250687 0.31362 -1.0904e-22)
(0.198159 0.277161 2.18584e-21)
(0.479263 0.477569 -6.45632e-22)
(0.345735 0.411248 0)
(0.998254 0.0217422 0)
(0.997903 0.0742186 0)
(0.964822 0.167228 -1.48641e-22)
(0.95558 0.447615 -9.43637e-21)
(0.66312 0.551216 8.34457e-22)
(0.576451 0.518651 -7.70663e-22)
(0.780198 0.506327 0)
(0.29636 0.331723 -2.49421e-21)
(0.132984 0.204047 5.4627e-21)
(0.998675 0.021439 0)
(1.00445 0.0744236 -6.14141e-23)
(0.987892 0.157971 0)
(1.06426 0.42357 1.19549e-20)
(0.891248 0.319169 -1.18624e-21)
(1.06415 0.388571 3.66409e-21)
(0.557567 0.40154 9.94718e-22)
(0.399263 0.343438 -9.03034e-22)
(0.757659 0.378783 -2.00447e-21)
(0.534444 0.27209 1.71615e-21)
(0.999086 0.0206211 -1.32011e-23)
(1.00894 0.0720985 0)
(1.00694 0.146282 5.48401e-23)
(1.10776 0.371801 0)
(1.19033 0.309629 -2.24147e-21)
(0.631113 0.0925993 -7.10069e-21)
(0.545576 0.146022 2.12889e-21)
(0.92248 0.143585 7.6813e-21)
(0.240979 0.150325 0)
(0.250431 0.0825071 0)
(0.999447 0.0194058 2.47726e-20)
(1.01204 0.06786 1.43267e-23)
(1.02262 0.134156 1.74352e-23)
(1.12067 0.314984 -5.78987e-21)
(1.28813 0.299668 0)
(1.01836 0.14216 1.53731e-20)
(0.424727 0.0225076 -4.32829e-22)
(0.272138 0.0193276 1.75414e-22)
(0.375918 0.0484167 -1.38844e-22)
(0.726777 0.0702478 0)
(0.133701 0.0095156 -2.98322e-23)
(0.999738 0.0178748 -2.44e-20)
(1.01428 0.062254 0)
(1.03475 0.12177 0)
(1.12356 0.265568 1.06057e-20)
(1.30494 0.275492 8.85737e-24)
(1.27021 0.177924 -1.45233e-20)
(0.828232 0.0511869 -1.5499e-20)
(0.581349 0.0533814 4.03552e-21)
(0.202107 0.00143982 1.68707e-22)
(0.324123 0.0206561 -3.61378e-21)
(0.187062 0.00516053 3.36535e-22)
(0.0827398 0.00206358 7.05158e-23)
(0.99996 0.0160948 0)
(1.01599 0.0557019 -2.20381e-20)
(1.04356 0.109009 0)
(1.12453 0.223682 -4.72565e-21)
(1.29074 0.246132 0)
(1.35969 0.186393 -2.29283e-20)
(1.15945 0.1034 4.08429e-20)
(0.738278 0.0232946 -3.08234e-20)
(0.465788 0.0147514 0)
(0.495623 0.0169015 1.62884e-23)
(0.0584987 -0.000852672 -1.56851e-22)
(0.268519 0.00405124 -2.03357e-22)
(0.139594 0.00727394 6.64496e-22)
(0.159428 0.00394407 -1.69859e-22)
(0.0578566 0.000227107 -9.75752e-23)
(1.00012 0.0141164 2.32242e-24)
(1.01734 0.0484842 4.13566e-20)
(1.04979 0.0958665 1.45075e-20)
(1.12535 0.187514 0)
(1.27018 0.215133 -3.78953e-24)
(1.37077 0.179975 2.07415e-21)
(1.32174 0.129853 -2.49505e-20)
(1.0689 0.0678083 2.78643e-20)
(0.702018 0.0201212 -3.85261e-21)
(0.452237 0.00910901 4.37641e-22)
(0.447727 0.00336562 -4.40555e-22)
(0.254176 0.00303259 -4.12865e-22)
(0.121451 -0.00125046 -6.1185e-22)
(0.119437 0.00210154 1.05336e-21)
(0.0413772 0.000821135 1.50946e-24)
(0.0497292 0.000176924 -1.4952e-24)
(1.00022 0.0119771 0)
(1.01848 0.0407731 -1.93931e-20)
(1.05421 0.0824513 -1.42751e-20)
(1.12604 0.155798 1.99832e-21)
(1.25211 0.185486 0)
(1.35475 0.165786 2.19181e-20)
(1.3744 0.137161 0)
(1.26843 0.0985368 -5.95434e-24)
(1.00706 0.0522156 2.81691e-20)
(0.672843 0.0212149 3.86652e-21)
(0.454885 0.00969678 6.67225e-21)
(0.456182 0.00644411 0)
(0.270723 0.00285516 -5.75445e-21)
(0.251884 -0.000599976 -3.13944e-24)
(0.114406 0.00192286 2.87355e-22)
(0.115716 -0.000754807 5.83049e-22)
(0.035532 -0.000506872 8.72672e-23)
(0.0361807 0.00026144 -1.69239e-22)
(1.00027 0.00970338 0)
(1.01951 0.0326742 1.60818e-24)
(1.05741 0.0688433 0)
(1.12663 0.127406 -2.1167e-21)
(1.23828 0.157954 4.56003e-24)
(1.33436 0.149569 0)
(1.37719 0.133972 -5.52304e-24)
(1.35483 0.113528 0)
(1.21979 0.081494 -2.51781e-20)
(0.958091 0.0467018 0)
(0.641667 0.0211218 1.64955e-20)
(0.43896 0.00829352 -4.24413e-22)
(0.445341 0.00825528 -6.21214e-21)
(0.29626 0.00362047 -1.03584e-21)
(0.293117 0.00179539 -3.38592e-22)
(0.151554 0.00413495 1.67427e-20)
(0.131779 -0.00161114 0)
(0.113444 -0.00160354 0)
(0.120462 0.000343462 -2.22933e-21)
(0.0346492 0.000271358 -1.61941e-22)
(0.0352715 -0.000243128 0)
(1.00027 0.00730903 0)
(1.02051 0.0242474 0)
(1.05984 0.0550792 -8.78356e-21)
(1.12737 0.101375 0)
(1.22842 0.132194 0)
(1.31691 0.133347 -3.9241e-20)
(1.36445 0.126712 0)
(1.37691 0.117634 2.27862e-20)
(1.32938 0.100103 0)
(1.17444 0.0732473 2.48855e-20)
(0.915975 0.0437882 0)
(0.346653 0.00540109 -2.01344e-20)
(0.614013 0.0206957 -1.61432e-20)
(0.285747 0.00203229 -1.05556e-21)
(0.292395 0.00358864 -3.46181e-22)
(0.181299 0.00176267 0)
(0.180884 0.00094536 3.1351e-21)
(0.172281 -0.000316587 1.90717e-24)
(0.179229 0.00102839 -1.23312e-22)
(0.0674739 0.00386259 -1.61271e-20)
(0.044707 -0.000526443 1.57068e-21)
(0.0347339 -0.000378115 0)
(0.0386943 -7.50438e-05 7.02396e-24)
(1.00023 0.00479901 4.58465e-25)
(1.02157 0.0155209 0)
(1.06182 0.0411895 8.49249e-21)
(1.12855 0.0769061 0)
(1.2222 0.107793 2.15654e-20)
(1.30389 0.117431 3.96541e-20)
(1.35028 0.118216 -4.4843e-20)
(1.37291 0.116245 -6.91595e-20)
(1.36832 0.108687 0)
(1.29976 0.0931452 -2.34503e-20)
(1.1325 0.0688226 0)
(0.879421 0.0424127 2.70629e-20)
(0.328643 0.00515324 1.83353e-20)
(0.127542 0.00188937 3.11316e-21)
(0.130027 -0.000678375 -9.18874e-22)
(0.595775 0.0223484 -3.11721e-20)
(0.172167 0.000445826 1.04553e-21)
(0.174038 0.00115451 5.12306e-22)
(0.178967 0.00112455 -1.26292e-22)
(0.177947 0.00170986 1.14462e-21)
(0.104718 0.000514058 0)
(0.104885 0.000315678 -8.62801e-22)
(0.098005 -0.000300793 3.28821e-21)
(0.103168 0.000266266 -8.43668e-22)
(0.0187222 0.00102453 4.36254e-21)
(1.00016 0.00216557 0)
(1.02277 0.006504 -1.40441e-20)
(1.06353 0.0271764 -6.5863e-21)
(1.13045 0.0532652 -2.8993e-24)
(1.21948 0.0843862 -2.05882e-20)
(1.29538 0.101899 -9.92648e-24)
(1.33896 0.10947 4.43665e-20)
(1.36237 0.112686 1.31117e-22)
(1.3729 0.111168 0)
(1.3531 0.104323 0)
(1.26844 0.0893289 0)
(1.09438 0.0663793 -2.39077e-20)
(0.848865 0.0427734 2.64683e-20)
(0.333139 0.00671686 -1.70864e-23)
(0.123215 0.00168184 0)
(0.121702 -0.000518934 -1.03589e-22)
(0.0291694 0.000420715 1.59799e-22)
(0.0293838 3.23858e-05 0)
(0.0299382 8.24457e-05 8.04383e-23)
(0.0300148 -0.000502551 0)
(0.0990736 -0.000410381 0)
(0.578813 0.0212527 -1.5553e-20)
(0.101065 0.000635698 -4.38113e-22)
(0.10338 0.000366191 2.16751e-22)
(0.102649 0.000525749 0)
(0.0332405 2.37321e-05 0)
(0.0334478 9.06132e-06 0)
(0.0315478 -0.000574555 -2.23328e-21)
(0.0328398 -8.41659e-05 5.66549e-22)
(1.00008 -0.000608152 3.07573e-20)
(1.02417 -0.00279074 2.74273e-20)
(1.06505 0.0130042 6.37936e-21)
(1.13332 0.0297062 -2.95983e-24)
(1.2203 0.0616171 9.67661e-24)
(1.29138 0.0867949 -1.64405e-23)
(1.33147 0.10089 4.32238e-20)
(1.35266 0.108516 4.52571e-20)
(1.36584 0.110921 -4.62003e-20)
(1.36616 0.109283 0)
(1.33372 0.102229 2.66906e-24)
(1.23749 0.0869509 2.66201e-24)
(1.06033 0.0652611 0)
(0.821409 0.0408034 3.232e-24)
(0.331804 0.00745604 1.28256e-20)
(0.159566 0.000885928 -3.72211e-22)
(0.138038 0.00103755 6.76746e-21)
(0.0296592 0.000428954 -1.39804e-21)
(0.0276636 -0.00013223 8.17639e-23)
(0.0279795 2.26121e-05 -7.91614e-23)
(0.0279493 -0.000390454 7.935e-23)
(0.0311746 -0.000283346 -1.83875e-23)
(0.556962 0.0202015 -1.51835e-20)
(0.0320827 6.80716e-05 1.82165e-23)
(0.0328197 8.7332e-06 -1.54179e-22)
(0.0326001 3.70124e-05 9.12399e-24)
(1.00001 -0.00354635 -3.02892e-20)
(1.02583 -0.0123372 -4.06938e-20)
(1.06636 -0.00140849 0)
(1.1374 0.00549854 0)
(1.22483 0.0391494 -3.96181e-24)
(1.29195 0.0721577 3.58124e-20)
(1.32804 0.0926714 -4.2174e-20)
(1.34591 0.104375 0)
(1.35729 0.109798 4.56211e-20)
(1.36288 0.111151 2.74005e-24)
(1.35481 0.108956 0)
(1.31263 0.100932 -2.15269e-20)
(1.2081 0.0853452 -2.68194e-24)
(1.02935 0.0626891 2.28673e-20)
(0.793439 0.0388066 0)
(0.316856 0.0070075 1.90422e-20)
(0.157508 0.00300479 0)
(0.16051 0.00114272 6.82295e-21)
(0.0775067 0.000251169 0)
(0.0724215 0.000121981 5.53023e-23)
(0.0496877 0.00291731 -5.67867e-21)
(0.0336049 -0.000600705 1.62078e-21)
(0.534969 0.019113 0)
(1.00001 -0.00667107 0)
(1.02774 -0.0220687 2.66494e-20)
(1.06724 -0.016191 0)
(1.14291 -0.0201112 0)
(1.23335 0.0166878 -6.87313e-24)
(1.29727 0.0580475 -7.05767e-20)
(1.32883 0.084948 4.2473e-20)
(1.34273 0.100546 -1.0897e-23)
(1.35078 0.108598 0)
(1.35564 0.111915 5.53615e-24)
(1.35547 0.112252 -2.73435e-24)
(1.3412 0.10893 2.13249e-20)
(1.2913 0.0998377 0)
(1.18035 0.0827213 -2.10509e-20)
(0.999411 0.0599342 -2.22687e-20)
(0.766612 0.036993 0)
(0.301099 0.00624059 -7.97849e-24)
(0.147326 0.0027718 -2.8516e-21)
(0.151049 0.000708894 -3.77942e-22)
(0.0739879 0.00102631 1.18334e-22)
(0.0753111 0.000423871 2.37294e-22)
(0.0771539 0.000619027 -2.34963e-22)
(0.077423 0.000141182 -9.32815e-22)
(0.0245049 -4.46413e-05 0)
(0.0232619 -0.000502637 0)
(0.0137686 0.000832442 0)
(0.516179 0.0178972 0)
(1.00016 -0.0099847 -3.23657e-20)
(1.02978 -0.0318665 -2.84024e-20)
(1.06735 -0.0315657 1.05508e-20)
(1.15022 -0.0479804 -6.32327e-21)
(1.24642 -0.0060535 2.24248e-20)
(1.30766 0.0445446 3.47614e-20)
(1.33409 0.0778603 -4.13976e-20)
(1.3434 0.0972088 1.05071e-23)
(1.34743 0.107671 1.08969e-23)
(1.34937 0.112518 0)
(1.34968 0.114166 -2.62824e-24)
(1.34586 0.11323 -4.25561e-20)
(1.32672 0.108669 4.10789e-20)
(1.27021 0.0978023 2.00892e-20)
(1.15335 0.079739 4.08084e-20)
(0.971016 0.0574048 0)
(0.74277 0.0351583 2.41287e-20)
(0.288445 0.00567904 4.08059e-21)
(0.138714 0.00247014 0)
(0.141571 0.000377103 1.8767e-22)
(0.0684893 0.000942822 0)
(0.069569 0.000258604 1.16191e-22)
(0.0710355 0.00055265 0)
(0.0717729 -6.27463e-05 -2.34164e-22)
(0.023117 0.000114683 -6.84832e-23)
(0.0238017 -5.66369e-06 -1.02737e-22)
(0.0245049 7.45192e-05 1.02869e-22)
(0.0246931 -4.22162e-06 0)
(0.503555 0.0178575 -2.77705e-20)
(1.00051 -0.013449 3.18688e-20)
(1.03162 -0.0415741 2.77532e-20)
(1.06628 -0.0479421 9.03214e-22)
(1.16009 -0.0791435 6.0101e-21)
(1.26504 -0.0293337 -6.90562e-20)
(1.32376 0.0317371 0)
(1.34422 0.0715578 9.40967e-25)
(1.34824 0.0945287 0)
(1.34773 0.107219 4.50883e-20)
(1.34586 0.113373 4.48076e-20)
(1.34373 0.115782 0)
(1.34167 0.115867 4.21679e-20)
(1.33539 0.113656 -8.16467e-20)
(1.31186 0.107449 -1.97711e-20)
(1.24908 0.0951952 -1.94333e-20)
(1.12739 0.0768686 0)
(0.945103 0.0549526 -2.10593e-20)
(0.722889 0.0341687 2.34442e-20)
(0.285727 0.00600936 0)
(0.132491 0.00238647 -5.93173e-21)
(0.134033 0.000271269 0)
(0.0642277 0.00084874 0)
(0.0650425 0.000180374 -1.14834e-22)
(0.066169 0.000471265 -1.15159e-22)
(0.0667001 -0.000166284 0)
(0.0212783 0.000104468 0)
(0.0218369 -3.07566e-05 6.74817e-23)
(0.022354 7.76468e-05 0)
(0.0224806 -4.06777e-05 1.35703e-22)
(0.494804 0.0170605 2.70515e-20)
(1.00109 -0.0169701 -3.556e-20)
(1.03274 -0.0510446 -3.1292e-20)
(1.06382 -0.0660116 -1.07791e-20)
(1.17399 -0.114858 3.81925e-21)
(1.29078 -0.0533481 -6.23434e-21)
(1.3466 0.0197499 -7.91273e-20)
(1.35992 0.0662113 -4.36623e-20)
(1.35777 0.0926737 -1.05808e-23)
(1.35211 0.107406 -4.42858e-20)
(1.34584 0.114686 -4.4206e-20)
(1.34012 0.117594 1.03728e-23)
(1.33613 0.118037 -4.19998e-20)
(1.33295 0.116747 -4.52156e-23)
(1.32449 0.113102 -2.43754e-24)
(1.29656 0.105498 0)
(1.22825 0.0924821 0)
(1.10312 0.0740457 0)
(0.922004 0.0530042 0)
(0.706111 0.0326381 2.27648e-20)
(0.290402 0.00596374 -2.96932e-20)
(0.140711 0.00308271 3.54228e-22)
(0.132385 -0.000184083 2.5535e-21)
(0.0610514 0.000798266 -4.49569e-22)
(0.061366 0.000160071 0)
(0.0623221 0.000451696 0)
(0.0627137 -0.000166229 -1.12525e-22)
(0.0199174 9.49269e-05 0)
(0.0203633 -3.66545e-05 0)
(0.0207562 7.3164e-05 3.33044e-23)
(0.020796 -5.17237e-05 -3.30996e-23)
(0.483809 0.0163708 2.63857e-20)
(1.00182 -0.0204103 3.49938e-20)
(1.03255 -0.060215 -2.76492e-21)
(1.06036 -0.0867276 2.7242e-24)
(1.19391 -0.156492 -3.59526e-21)
(1.3253 -0.0781311 4.9038e-20)
(1.37712 0.00880896 -7.37647e-21)
(1.38189 0.0620359 4.23506e-20)
(1.37259 0.0918411 3.21978e-23)
(1.36109 0.108397 -4.49921e-20)
(1.34984 0.116602 4.43855e-20)
(1.33989 0.119831 4.31887e-20)
(1.33251 0.120321 8.32755e-20)
(1.32796 0.119205 4.01444e-20)
(1.32396 0.116603 3.87111e-20)
(1.31319 0.111734 -4.47178e-24)
(1.28109 0.103233 0)
(1.20825 0.0896917 0)
(1.08074 0.0714733 0)
(0.901402 0.0507428 -3.96861e-20)
(0.689633 0.0310296 -2.22405e-20)
(0.285757 0.00620302 -7.02673e-24)
(0.156137 0.00277918 0)
(0.152726 0.000672595 -2.62639e-21)
(0.077635 0.00265906 -6.92665e-21)
(0.0682117 -0.00027422 0)
(0.0634545 0.000194367 -7.22346e-21)
(0.0608241 -0.000471893 0)
(0.0188277 8.30154e-05 2.59878e-22)
(0.0191557 -3.67302e-05 0)
(0.0195047 7.37464e-05 -3.26529e-23)
(0.01952 -4.67163e-05 9.7594e-23)
(0.47098 0.0156724 -6.14489e-24)
(1.00256 -0.0236018 0)
(1.03061 -0.0691281 3.28387e-20)
(1.05692 -0.111065 3.64712e-24)
(1.22117 -0.205182 -2.26758e-24)
(1.36863 -0.103475 6.43443e-20)
(1.41443 -0.000622997 8.02899e-20)
(1.40946 0.0593523 0)
(1.39254 0.0922808 2.16884e-23)
(1.37488 0.110383 8.9061e-20)
(1.35827 0.11926 -4.36464e-20)
(1.34364 0.122626 -4.26336e-20)
(1.33217 0.122984 -4.12342e-20)
(1.32441 0.121691 -3.9831e-20)
(1.31968 0.119274 -3.83731e-20)
(1.31477 0.1156 0)
(1.30168 0.109912 4.45412e-24)
(1.2659 0.100752 0)
(1.18934 0.0869444 0)
(1.06022 0.0687131 7.83499e-23)
(0.882037 0.0483876 0)
(0.673136 0.0296031 0)
(0.2768 0.00602623 7.15462e-24)
(0.152229 0.00307597 9.17736e-24)
(0.154354 0.0011634 -1.30988e-21)
(0.0938159 0.00128642 0)
(0.0935181 0.000621161 1.04108e-22)
(0.0920635 0.000532179 -1.01907e-22)
(0.0883561 -0.000175846 3.24046e-21)
(0.0339218 0.00233519 4.44554e-21)
(0.0229427 -0.000222502 0)
(0.0205066 -8.23235e-05 2.11626e-21)
(0.018891 -0.000127448 1.30799e-22)
(0.458345 0.0149023 -1.24654e-20)
(1.0031 -0.0263402 -1.65011e-22)
(1.02675 -0.0778106 0)
(1.05421 -0.139793 2.06124e-20)
(1.25393 -0.26177 -1.7842e-22)
(1.41593 -0.128155 -6.12283e-20)
(1.45248 -0.00780399 -1.96749e-23)
(1.43766 0.0586404 9.4204e-20)
(1.41458 0.0942922 -2.16692e-23)
(1.39202 0.113575 -1.34321e-19)
(1.37069 0.122813 4.40185e-20)
(1.35151 0.126102 -2.11377e-23)
(1.33572 0.126169 3.9942e-23)
(1.32403 0.124511 3.93847e-20)
(1.31633 0.121857 -3.79417e-20)
(1.3114 0.118443 0)
(1.30553 0.114058 0)
(1.29029 0.107775 -3.39602e-20)
(1.25127 0.098151 0)
(1.1716 0.0840322 1.67321e-20)
(1.04098 0.0658756 1.72504e-20)
(0.86355 0.0462534 0)
(0.657514 0.0282704 0)
(0.267711 0.00556277 1.22155e-20)
(0.146507 0.00271233 0)
(0.148351 0.00102845 -3.29634e-22)
(0.0902527 0.00138512 4.12419e-22)
(0.0912805 0.00077276 4.14294e-22)
(0.0924401 0.000905197 4.14039e-22)
(0.0929161 0.000307357 8.27366e-22)
(0.0533209 0.000369508 -8.65574e-23)
(0.0535279 0.000199409 2.67757e-22)
(0.0523743 0.000149263 0)
(0.0496229 -4.20459e-05 2.12395e-23)
(0.00936647 0.000624233 -4.67884e-22)
(0.447067 0.0141825 0)
(1.00328 -0.0283581 -4.62265e-20)
(1.02071 -0.0857706 1.56044e-22)
(1.0506 -0.173207 -1.9842e-20)
(1.28445 -0.326495 1.74262e-22)
(1.4534 -0.148158 -1.63412e-23)
(1.47562 -0.0114752 -2.34768e-23)
(1.45301 0.0604731 5.80832e-21)
(1.4291 0.0981145 2.19753e-23)
(1.40662 0.118111 8.87276e-20)
(1.38399 0.127375 -1.31081e-19)
(1.36218 0.130364 0)
(1.34293 0.129982 4.05277e-20)
(1.32739 0.127822 -9.31829e-25)
(1.31597 0.124713 7.50188e-20)
(1.3084 0.121074 9.02074e-24)
(1.30326 0.117017 8.29249e-24)
(1.29647 0.112145 3.35457e-20)
(1.27923 0.105415 -3.88317e-24)
(1.23729 0.0953586 -3.18291e-20)
(1.15479 0.0810324 -1.60929e-20)
(1.0228 0.0632353 0)
(0.846328 0.0443091 0)
(0.643465 0.0270483 0)
(0.259637 0.0051711 6.81782e-24)
(0.14058 0.00274182 0)
(0.142991 0.000739212 2.88318e-21)
(0.0860607 0.000346825 0)
(0.0870816 0.00043529 0)
(0.088036 0.000794991 0)
(0.0887961 0.000256474 8.15495e-22)
(0.0509745 0.000400349 0)
(0.0518939 0.000276243 -2.66556e-22)
(0.0526274 0.000277544 0)
(0.0528428 0.000141126 1.75667e-22)
(0.0166225 2.27432e-05 1.21819e-22)
(0.0168504 1.78315e-06 -2.11881e-22)
(0.0164339 -6.13787e-05 -2.96308e-23)
(0.015815 -0.000338439 9.26737e-22)
(0.437984 0.0135529 1.16656e-20)
(1.0032 -0.0293016 9.52785e-20)
(1.0117 -0.0913055 -1.70529e-22)
(1.0403 -0.209137 0)
(1.29587 -0.395055 1.60909e-21)
(1.45535 -0.157863 0)
(1.45427 -0.00929114 -2.87584e-23)
(1.4296 0.0652067 -9.88111e-20)
(1.41624 0.103611 0)
(1.40486 0.123773 -2.27739e-23)
(1.38948 0.13283 8.68736e-20)
(1.37078 0.135398 -3.96805e-23)
(1.35143 0.134472 -3.99837e-20)
(1.33372 0.131711 0)
(1.31906 0.128018 -7.93055e-23)
(1.30812 0.123909 -8.90647e-24)
(1.30074 0.119652 3.41881e-20)
(1.29541 0.115186 -8.24366e-24)
(1.28772 0.109959 3.17782e-20)
(1.26856 0.102837 3.10732e-20)
(1.22388 0.0924501 0)
(1.13883 0.0781718 0)
(1.00585 0.06082 0)
(0.830673 0.0425503 0)
(0.631453 0.0259976 0)
(0.253442 0.00489381 -1.32598e-20)
(0.135624 0.00254818 0)
(0.137416 0.000720005 1.4148e-21)
(0.0641843 0.000513645 2.19805e-22)
(0.06561 3.03558e-05 -2.12245e-22)
(0.0487603 -0.000476772 -8.94137e-23)
(0.0497386 3.39771e-05 -1.2164e-25)
(0.049912 0.000212904 8.74376e-23)
(0.0502245 0.000123937 -4.38479e-22)
(0.0157706 2.91284e-05 -3.02216e-23)
(0.016172 1.54634e-05 -3.03402e-23)
(0.0164333 1.65936e-05 0)
(0.0164435 -3.90805e-06 -1.21404e-22)
(0.432261 0.013236 0)
(1.00292 -0.0287562 -4.84897e-20)
(0.99934 -0.0926999 0)
(1.01346 -0.238869 4.23685e-20)
(1.25968 -0.454466 -1.56271e-21)
(1.38342 -0.158413 2.96201e-23)
(1.34329 0.00085911 -1.35804e-19)
(1.32935 0.0721796 8.18159e-23)
(1.34533 0.109681 -5.2033e-23)
(1.3632 0.129502 0)
(1.37023 0.138446 8.96634e-20)
(1.36615 0.140809 -3.96958e-23)
(1.35459 0.13948 -7.9588e-20)
(1.33956 0.136156 3.79875e-20)
(1.32426 0.13184 -7.4939e-23)
(1.31087 0.127144 0)
(1.30056 0.122424 -3.38349e-20)
(1.29345 0.117799 3.6117e-25)
(1.28793 0.113062 -3.14617e-20)
(1.27931 0.107547 3.78617e-24)
(1.25825 0.100122 2.95047e-20)
(1.21101 0.0896144 0)
(1.12382 0.075521 0)
(0.990248 0.0586281 0)
(0.816759 0.0410329 -1.65832e-20)
(0.621839 0.0253014 -1.85528e-20)
(0.251842 0.0046899 3.20465e-21)
(0.132272 0.00244124 3.07526e-21)
(0.133088 0.000617304 -3.42407e-22)
(0.0616195 0.000461258 0)
(0.062724 0.00014203 -1.21431e-21)
(0.0144785 0.000198535 -3.20309e-23)
(0.0146242 -0.000120342 6.37631e-23)
(0.0147339 -0.000249256 -6.50234e-23)
(0.0148489 0.000151071 -4.86369e-26)
(0.0150679 -0.000217143 5.89838e-23)
(0.0154916 -2.96815e-05 2.9644e-23)
(0.015496 1.38215e-05 -5.93968e-23)
(0.0155303 -5.77479e-06 5.96401e-23)
(0.429613 0.0133467 2.14764e-20)
(1.00197 -0.0265503 0)
(0.984733 -0.0900238 -5.81015e-20)
(0.95819 -0.249377 -6.67378e-20)
(1.13962 -0.498508 -5.33245e-21)
(1.18156 -0.150727 5.03781e-21)
(1.08922 0.0167459 1.56157e-19)
(1.11202 0.0784502 -7.12205e-23)
(1.18291 0.113369 -5.92507e-23)
(1.2526 0.132837 4.83274e-23)
(1.30208 0.142381 -9.25318e-20)
(1.32966 0.145399 -4.04207e-23)
(1.33932 0.14433 7.97639e-20)
(1.3366 0.140838 3.77107e-20)
(1.3269 0.136078 -3.60163e-20)
(1.31462 0.130823 0)
(1.30285 0.125545 1.5837e-23)
(1.29337 0.120485 0)
(1.28657 0.115644 3.08071e-20)
(1.28082 0.110717 0)
(1.2712 0.104994 -2.9033e-20)
(1.24829 0.0974271 -3.52003e-24)
(1.19878 0.0869438 0)
(1.10982 0.073089 0)
(0.976031 0.0567014 1.4812e-20)
(0.804631 0.0398511 1.60035e-20)
(0.61424 0.0249275 1.79021e-20)
(0.257011 0.00512869 -3.00526e-20)
(0.134766 0.0022784 1.04683e-20)
(0.131857 0.000361464 -5.34728e-21)
(0.0597553 0.000430282 -2.22564e-21)
(0.0604397 0.000127659 -7.02169e-23)
(0.013843 0.00018869 -3.13011e-23)
(0.0139665 -0.000126071 3.11955e-23)
(0.0141844 -0.00017491 6.32088e-23)
(0.0141935 0.000150394 0)
(0.426369 0.0130951 0)
(1.00046 -0.0226084 0)
(0.967398 -0.0807433 -5.08145e-21)
(0.944423 -0.182625 2.10453e-20)
(0.921128 -0.182843 2.40643e-20)
(0.970895 -0.574542 9.25026e-21)
(0.866127 -0.563427 1.90579e-20)
(0.870899 -0.308367 2.57459e-20)
(1.07457 -0.205155 1.43381e-19)
(0.91257 -0.483137 5.73947e-23)
(0.789791 -0.138743 -8.9194e-20)
(0.657653 0.0325386 0)
(0.635989 0.0091435 -6.91293e-20)
(0.76313 0.0795328 1.54054e-22)
(0.913923 0.109454 1.28075e-22)
(1.05272 0.129706 -5.46316e-23)
(1.16195 0.141422 -3.92201e-24)
(1.23899 0.14681 4.24105e-23)
(1.28665 0.14745 -8.18505e-20)
(1.31049 0.144823 -7.14316e-23)
(1.31727 0.140252 0)
(1.31356 0.134761 3.40214e-20)
(1.30483 0.129031 0)
(1.29502 0.123468 -1.57477e-23)
(1.28654 0.118239 -3.04595e-20)
(1.28008 0.113279 2.92618e-20)
(1.27403 0.10824 -6.79975e-24)
(1.26338 0.102435 2.74915e-20)
(1.23873 0.0948522 0)
(1.18722 0.0844627 0)
(1.09683 0.070911 0)
(0.963166 0.0550846 -1.41759e-20)
(0.794017 0.0389336 -1.54311e-20)
(0.606986 0.0242978 0)
(0.258655 0.00534693 0)
(0.148469 0.00223263 0)
(0.141963 0.00157064 9.81814e-21)
(0.0625806 4.91917e-05 -1.33642e-20)
(0.0595368 -6.92324e-06 0)
(0.0133135 0.000176226 -3.06798e-23)
(0.0133973 -0.000124309 -2.8435e-25)
(0.0135822 -0.00016999 6.18085e-23)
(0.0136048 0.000146774 3.06296e-23)
(0.420696 0.0129328 0)
(0.998789 -0.0169695 -5.11494e-22)
(0.952809 -0.0643637 6.48485e-20)
(0.896473 -0.168329 -2.40532e-20)
(0.874249 -0.151777 -2.9138e-20)
(0.828756 -0.283607 4.63661e-22)
(0.765477 -0.548451 -2.89945e-20)
(0.654447 -0.511274 -8.43264e-22)
(0.835161 -0.616412 1.0742e-21)
(0.594259 -0.189859 2.50265e-20)
(0.263194 -0.101687 -2.03728e-21)
(0.449743 -0.26804 3.48718e-21)
(0.221467 -0.00735242 -4.11425e-21)
(0.275773 0.0264745 -3.2929e-20)
(0.47631 0.0146646 3.71405e-20)
(0.301923 0.0545621 1.11658e-19)
(0.3449 0.0714374 5.11958e-20)
(0.19968 0.0113289 -1.07768e-19)
(0.278555 0.0120815 -1.04074e-22)
(0.57354 0.0923221 -1.85146e-22)
(0.774572 0.115356 -1.44151e-22)
(0.944212 0.131571 5.91161e-23)
(1.07892 0.141695 -9.65211e-23)
(1.17769 0.146236 8.65438e-20)
(1.24301 0.14628 -7.83346e-20)
(1.28037 0.143214 0)
(1.29686 0.138328 -3.40809e-20)
(1.29962 0.132607 -8.12558e-25)
(1.29488 0.126725 0)
(1.28735 0.121071 0)
(1.28001 0.115789 -2.89696e-20)
(1.2739 0.110798 0)
(1.26752 0.105751 -2.71582e-20)
(1.25587 0.0999652 3.27854e-24)
(1.22964 0.0924355 0)
(1.17637 0.0822081 3.07048e-24)
(1.08483 0.0690161 -1.29422e-20)
(0.951486 0.0537182 0)
(0.784128 0.0379432 0)
(0.598848 0.0237923 0)
(0.255082 0.00537985 0)
(0.149623 0.00294106 2.39626e-21)
(0.149873 0.0012003 0)
(0.0830236 0.000564468 2.02877e-21)
(0.0746513 0.000676819 6.28858e-23)
(0.0159979 0.000511605 4.76783e-21)
(0.014125 -0.000331245 -6.64877e-23)
(0.0130842 -0.000198405 -3.03664e-23)
(0.0133766 0.000116366 9.23826e-23)
(0.413666 0.0127495 0)
(0.997115 -0.00999752 6.23425e-20)
(0.942946 -0.0414483 5.25224e-22)
(0.854407 -0.127222 2.94852e-20)
(0.838615 -0.100272 6.10393e-22)
(0.777343 -0.265891 -3.47543e-20)
(0.72795 -0.234956 7.29068e-20)
(0.694485 -0.447816 4.19334e-23)
(0.742 -0.461358 9.20764e-21)
(0.470717 -0.456895 -1.38032e-21)
(0.529041 -0.451253 5.8419e-23)
(0.617324 -0.578972 9.64172e-21)
(0.281655 -0.249373 0)
(0.0709619 0.0212814 -2.14561e-20)
(0.122701 0.0115935 9.20379e-23)
(0.0634301 0.0247794 -9.77122e-20)
(0.118923 0.0472232 9.6601e-20)
(0.261568 0.0599378 0)
(0.12871 0.0267155 -9.16088e-20)
(0.0472869 0.000625342 8.57586e-20)
(0.475065 0.0872889 0)
(0.676312 0.109969 0)
(0.855904 0.126916 0)
(1.00511 0.13763 1.38704e-22)
(1.11955 0.142595 -3.94838e-23)
(1.19959 0.142993 0)
(1.24942 0.140213 0)
(1.27553 0.135509 3.23976e-23)
(1.28509 0.129897 -1.53592e-23)
(1.28473 0.124079 -2.92802e-20)
(1.27976 0.118471 0)
(1.27371 0.113235 0)
(1.26798 0.108306 -6.36421e-24)
(1.2613 0.103339 -6.1797e-24)
(1.2487 0.0976331 0)
(1.22101 0.0902159 0)
(1.16618 0.0802052 2.46201e-20)
(1.07372 0.0673655 0)
(0.940606 0.0524143 0)
(0.774224 0.0370958 0)
(0.590073 0.0234101 -1.62738e-20)
(0.249753 0.00519752 1.38768e-21)
(0.146512 0.00287089 2.33827e-21)
(0.147975 0.00136916 0)
(0.0833664 0.000902517 -2.24801e-21)
(0.0839699 0.000479629 -2.83766e-22)
(0.0394193 0.000324417 0)
(0.0384711 -1.25727e-05 -1.34251e-21)
(0.0245403 0.00168721 -1.61387e-20)
(0.0360653 0.000136737 0)
(0.406214 0.0125695 9.50533e-21)
(0.995679 -0.00238103 -1.25055e-19)
(0.934012 -0.0132368 -3.04513e-21)
(0.827297 -0.0729126 0)
(0.820207 -0.0518155 -4.31084e-20)
(0.688742 -0.186464 -4.01351e-20)
(0.660515 -0.128578 -6.40025e-22)
(0.637455 -0.423309 -1.1945e-20)
(0.581407 -0.394313 1.06134e-20)
(0.488884 -0.31868 1.41393e-20)
(0.530525 -0.358438 -1.27735e-20)
(0.543305 -0.570031 -2.46895e-22)
(0.4125 -0.452254 1.59802e-21)
(0.0201271 0.00682986 -4.67953e-20)
(-0.00230224 0.0102153 1.43981e-21)
(0.00608907 -0.00330201 -1.74742e-21)
(0.0194603 0.0147187 -5.65909e-20)
(0.0718578 0.0214981 -1.26351e-22)
(0.230219 0.050098 0)
(0.0457448 0.0135988 1.75884e-20)
(-0.00040545 -0.00937057 -5.48275e-20)
(0.00786368 0.000345759 2.41086e-20)
(0.413844 0.0779613 0)
(0.604073 0.101734 1.26715e-22)
(0.78355 0.11963 1.03741e-22)
(0.939607 0.131243 -4.99429e-23)
(1.06478 0.137138 4.05675e-23)
(1.15682 0.138409 -7.17103e-20)
(1.21794 0.13631 0)
(1.25342 0.132099 2.93005e-23)
(1.26996 0.126817 5.83065e-20)
(1.2743 0.121219 0)
(1.27215 0.11577 0)
(1.26754 0.110676 0)
(1.26229 0.105889 6.31328e-24)
(1.25535 0.101055 2.31344e-25)
(1.24187 0.0954779 0)
(1.21284 0.0882198 0)
(1.15664 0.0784371 0)
(1.06332 0.0658597 0)
(0.930101 0.0512891 0)
(0.764258 0.0364525 3.39179e-23)
(0.581142 0.0231036 -7.875e-21)
(0.244111 0.00506994 1.34669e-21)
(0.142701 0.00270071 -2.28056e-21)
(0.144322 0.00123466 0)
(0.0810834 0.000836216 -2.20407e-21)
(0.0822683 0.000526 0)
(0.0386234 0.000438314 0)
(0.0389495 -5.42357e-06 3.38711e-22)
(0.0392701 -0.000111014 6.79825e-22)
(0.0393536 0.000345674 -3.39834e-22)
(0.0121873 4.69405e-05 -2.54829e-23)
(0.0119693 -6.80644e-05 -8.07693e-22)
(0.00673425 0.000469503 6.35028e-21)
(0.0114939 -0.000265457 0)
(0.398783 0.0124542 0)
(0.994529 0.00517636 6.25901e-20)
(0.93567 0.0185067 -7.84605e-20)
(0.752255 0.0618713 3.53743e-20)
(0.641061 -0.0610113 0)
(0.636518 0.0219496 0)
(0.455546 -0.269557 0)
(0.427109 -0.216053 1.83719e-20)
(0.384389 -0.102063 0)
(0.403424 -0.159686 -1.85078e-20)
(0.404568 -0.5019 2.24193e-20)
(0.317077 -0.405049 -1.94112e-20)
(0.208115 -0.329187 -1.84709e-20)
(0.262704 -0.37554 -4.15212e-22)
(0.341149 -0.44529 1.23096e-21)
(-0.0106482 0.00434765 -2.5685e-20)
(0.00196981 0.000117426 0)
(0.00673399 0.00900982 7.41461e-23)
(0.0724084 0.0178405 -5.40013e-20)
(0.0145474 0.000352776 1.81226e-20)
(0.204917 0.0432078 2.03792e-19)
(0.0158443 0.00242209 -8.75051e-23)
(0.0115889 0.00683398 1.59673e-22)
(-0.00728857 -0.00233759 1.30524e-20)
(0.000326997 -0.000250584 9.29344e-22)
(0.369797 0.0698241 0)
(0.547779 0.09316 -1.3276e-22)
(0.722626 0.11132 1.06544e-19)
(0.880898 0.123751 -2.78477e-24)
(1.01318 0.130742 7.78069e-20)
(1.11488 0.133052 1.85031e-24)
(1.18612 0.131839 0)
(1.2306 0.128304 -2.94728e-20)
(1.25422 0.123507 0)
(1.26351 0.118252 0)
(1.26444 0.113063 -2.5577e-20)
(1.26146 0.10819 0)
(1.25679 0.1036 5.79397e-24)
(1.24966 0.0989402 5.85412e-24)
(1.23536 0.0935287 0)
(1.20511 0.0864483 -2.25613e-20)
(1.14764 0.0768578 0)
(1.05339 0.0645653 0)
(0.919857 0.0504164 3.14771e-23)
(0.754425 0.0359715 0)
(0.572354 0.0228973 0)
(0.238505 0.00502491 0)
(0.138881 0.00263273 -2.2178e-21)
(0.140498 0.00118203 0)
(0.0786826 0.000760719 -3.60257e-22)
(0.0798271 0.000455833 2.39139e-22)
(0.0372563 0.000415253 0)
(0.0375928 -2.41811e-05 4.14155e-22)
(0.0381335 -0.000102463 -8.33572e-23)
(0.0380087 0.000338664 7.69351e-25)
(0.0118656 5.73687e-05 0)
(0.012042 -2.4711e-05 0)
(0.0121369 -3.92896e-05 2.57582e-23)
(0.0121728 4.81282e-05 0)
(0.391713 0.0124155 0)
(0.993749 0.012212 0)
(0.942216 0.0458557 3.45942e-21)
(0.803586 0.134188 9.48837e-22)
(0.384458 0.261392 -1.98783e-20)
(0.507555 0.349611 -2.12323e-21)
(0.372076 -0.0428811 0)
(0.371278 0.0143344 0)
(0.414121 0.126671 1.89451e-21)
(0.384085 0.0728554 0)
(0.166101 -0.269494 -1.59318e-21)
(0.134884 -0.202748 -1.61009e-21)
(0.0983207 -0.0674826 -2.64349e-20)
(0.112582 -0.134855 2.52041e-20)
(0.155613 -0.267199 -1.36535e-21)
(-0.00943946 -0.000866131 -1.49696e-20)
(-0.00292485 -0.00185729 0)
(0.00314464 2.77428e-05 -1.46852e-22)
(-0.00124847 0.00242684 1.29563e-20)
(-6.32775e-05 1.88873e-06 -1.42034e-20)
(0.016082 0.00801194 -1.56722e-20)
(0.0660803 0.0153632 -2.03898e-19)
(0.0173016 -2.81479e-06 8.3183e-20)
(0.000919714 0.000229401 -1.27615e-20)
(0.00250535 -0.00193558 -1.99638e-20)
(0.184914 0.0383814 0)
(0.000785383 -0.0011258 -1.62791e-20)
(0.334961 0.0626669 0)
(0.501255 0.0847852 -2.52468e-19)
(0.669806 0.102829 4.90755e-23)
(0.827627 0.115938 8.68634e-20)
(0.964415 0.123893 0)
(1.07387 0.12727 3.33854e-23)
(1.15409 0.127026 0)
(1.20714 0.124279 -5.49444e-23)
(1.23784 0.120079 0)
(1.2523 0.11527 2.269e-22)
(1.25656 0.110425 0)
(1.2554 0.105832 1.13932e-23)
(1.25145 0.101477 -2.30261e-20)
(1.2442 0.0970235 -5.39702e-24)
(1.22917 0.0917973 2.20625e-20)
(1.19778 0.0848861 0)
(1.13905 0.0755099 -2.16972e-20)
(1.04382 0.0635499 2.22842e-20)
(0.909927 0.0497749 0)
(0.744877 0.0356534 0)
(0.563983 0.0228133 0)
(0.23313 0.00502397 0)
(0.13512 0.0026064 0)
(0.136705 0.00118639 -1.09051e-21)
(0.0763619 0.000738858 1.16737e-22)
(0.0774789 0.000438433 1.17279e-22)