/*--------------------------------*- C++ -*----------------------------------*\
| =========                 |                                                 |
| \\      /  F ield         | OpenFOAM: The Open Source CFD Toolbox           |
|  \\    /   O peration     | Version:  v1912                                 |
|   \\  /    A nd           | Website:  www.openfoam.com                      |
|    \\/     M anipulation  |                                                 |
\*---------------------------------------------------------------------------*/
FoamFile
{
    version     2.0;
    format      ascii;
    class       volVectorField;
    location    "90";
    object      U;
}
// * * * * * * * * * * * * * * * * * * * * * * * * * * * * * * * * * * * * * //

dimensions      [0 1 -1 0 0 0 0];


internalField   nonuniform List<vector> 
3673
(
(0.0782846 0.026413 -4.42082e-21)
(0.233112 0.0773469 4.24521e-24)
(0.0777833 0.0262453 0)
(0.383877 0.124927 0)
(0.231704 0.0768828 -4.24675e-24)
(0.0773072 0.0260839 0)
(0.525872 0.167939 0)
(0.381642 0.124202 0)
(0.230326 0.0764228 0)
(0.0768309 0.0259259 -3.95076e-21)
(0.652956 0.204714 0)
(0.522928 0.166992 0)
(0.379437 0.123482 0)
(0.228957 0.0759724 0)
(0.0763658 0.0257703 3.86895e-21)
(0.758126 0.233378 0)
(0.64935 0.203559 2.7193e-24)
(0.51999 0.166049 0)
(0.377268 0.12278 0)
(0.227624 0.0755302 -3.73e-21)
(0.075902 0.025615 0)
(0.834546 0.252234 0)
(0.753929 0.232032 1.32756e-21)
(0.645789 0.202424 -2.71673e-24)
(0.517094 0.16512 0)
(0.375104 0.122073 0)
(0.22628 0.0750818 0)
(0.0754356 0.0254606 0)
(0.876452 0.260007 -1.27533e-21)
(0.829768 0.250695 -1.24721e-21)
(0.749776 0.23071 0)
(0.64223 0.201293 1.32566e-21)
(0.514203 0.164191 0)
(0.37295 0.12137 -2.94064e-24)
(0.224933 0.0746373 0)
(0.0749763 0.0253081 -6.84113e-21)
(0.879946 0.256063 4.07977e-26)
(0.871045 0.258259 2.35395e-24)
(0.825025 0.249185 0)
(0.745639 0.229403 2.1783e-23)
(0.638696 0.200172 0)
(0.5113 0.163262 0)
(0.370787 0.120667 2.94012e-24)
(0.223598 0.0741953 3.30809e-21)
(0.0745136 0.0251536 0)
(0.843648 0.240594 1.30673e-21)
(0.873838 0.254092 1.22825e-21)
(0.86567 0.256549 -1.18792e-21)
(0.820308 0.2477 -1.15536e-21)
(0.741489 0.228098 -2.25159e-24)
(0.635133 0.199044 0)
(0.50839 0.162329 0)
(0.368624 0.119962 -2.71731e-24)
(0.22224 0.0737467 0)
(0.0740554 0.0249997 0)
(0.769177 0.214723 2.74239e-24)
(0.836782 0.23839 -1.25555e-21)
(0.867751 0.252165 1.18426e-21)
(0.860329 0.254879 1.14017e-21)
(0.815584 0.246224 0)
(0.737339 0.226794 2.2502e-24)
(0.631552 0.197909 0)
(0.50547 0.161392 0)
(0.366458 0.119258 7.93901e-24)
(0.220905 0.0733039 0)
(0.0736009 0.0248449 0)
(0.661134 0.18044 -1.76908e-23)
(0.761537 0.212292 -1.31592e-21)
(0.82991 0.236243 -1.21222e-21)
(0.86173 0.250306 -7.1272e-24)
(0.855023 0.253235 4.37306e-24)
(0.810864 0.244751 -1.08615e-21)
(0.733158 0.22548 0)
(0.627958 0.196768 0)
(0.502548 0.160452 0)
(0.364268 0.118542 -7.72932e-24)
(0.219575 0.0728618 0)
(0.0731476 0.0246893 0)
(0.526568 0.140341 1.35571e-23)
(0.652731 0.177801 3.20861e-23)
(0.753793 0.209922 1.29296e-21)
(0.823171 0.234212 -2.36556e-21)
(0.855824 0.248503 8.79715e-24)
(0.849752 0.251603 1.05184e-21)
(0.806131 0.243274 0)
(0.728949 0.224156 0)
(0.624338 0.195618 -2.18818e-21)
(0.499603 0.159505 0)
(0.362111 0.117839 2.55684e-21)
(0.218256 0.0724185 2.90831e-21)
(0.0727035 0.0245424 0)
(0.374129 0.0971961 0)
(0.517362 0.137553 1.6214e-21)
(0.643984 0.175184 1.38312e-21)
(0.746325 0.207753 1.26915e-21)
(0.816691 0.232275 -1.1531e-21)
(0.850034 0.246731 -8.15977e-24)
(0.844504 0.249979 0)
(0.80138 0.241793 -3.83773e-24)
(0.724735 0.222832 1.99853e-21)
(0.620725 0.194471 0)
(0.496678 0.158563 -2.17549e-21)
(0.35997 0.117134 -2.37217e-21)
(0.216944 0.0719798 0)
(0.0722518 0.0243931 0)
(0.363959 0.0943964 -4.36628e-22)
(0.249692 0.0637293 -1.22503e-23)
(0.252912 0.064664 -7.81663e-22)
(0.507164 0.134605 -1.61957e-21)
(0.635779 0.172914 1.09322e-23)
(0.739409 0.205745 1.20922e-21)
(0.810497 0.230411 -8.43599e-24)
(0.844352 0.244993 8.16942e-24)
(0.839281 0.248366 7.52413e-24)
(0.796634 0.240315 7.53075e-24)
(0.720505 0.221501 -5.72161e-24)
(0.617102 0.193315 0)
(0.493757 0.157617 0)
(0.357828 0.116427 2.35188e-21)
(0.215645 0.0715445 0)
(0.0718083 0.0242434 0)
(0.350439 0.0907879 4.14935e-22)
(0.237423 0.0604304 7.22619e-22)
(0.244738 0.0626194 0)
(0.166772 0.0420667 1.98356e-23)
(0.169002 0.0425687 5.51612e-22)
(0.255279 0.0651199 0)
(0.498188 0.132201 5.00295e-25)
(0.628655 0.17091 2.05283e-23)
(0.733015 0.203853 1.1783e-21)
(0.804525 0.228611 1.65787e-23)
(0.838759 0.243286 9.80621e-22)
(0.834089 0.246764 -9.55604e-22)
(0.791886 0.238835 -5.47248e-24)
(0.716288 0.22017 1.85831e-24)
(0.613497 0.192164 1.94449e-21)
(0.490874 0.156682 -2.00443e-21)
(0.355721 0.115731 -2.25524e-21)
(0.214343 0.071108 -2.56028e-21)
(0.0713737 0.0240975 0)
(0.340448 0.0880385 2.80189e-23)
(0.219293 0.0559825 -1.4859e-21)
(0.227466 0.0576652 7.02365e-22)
(0.155112 0.0390828 0)
(0.163039 0.0411677 1.51147e-22)
(0.103367 0.0258506 -2.37254e-22)
(0.10418 0.0260451 4.78466e-22)
(0.105145 0.0262456 1.91715e-24)
(0.17043 0.0429004 0)
(0.104747 0.0261255 2.42334e-22)
(0.491283 0.130268 1.53355e-21)
(0.622452 0.169109 -1.31484e-21)
(0.727042 0.202087 1.11667e-21)
(0.798755 0.22688 -1.02909e-21)
(0.833256 0.241611 8.04664e-24)
(0.828931 0.245175 0)
(0.787159 0.23736 1.77741e-24)
(0.712083 0.218843 -1.77295e-21)
(0.609915 0.191016 1.86742e-21)
(0.487996 0.155744 1.92213e-21)
(0.353641 0.115042 2.08475e-21)
(0.213081 0.0706823 -2.45211e-21)
(0.0709459 0.0239539 -4.71131e-21)
(0.334671 0.086257 -1.76421e-21)
(0.211406 0.0535722 1.13399e-23)
(0.214182 0.0544735 0)
(0.130904 0.0330407 6.79159e-22)
(0.140976 0.0351494 -5.5818e-22)
(0.0908331 0.0224177 2.05925e-23)
(0.0967929 0.0244502 -1.40861e-23)
(0.102177 0.0256732 0)
(0.100194 0.0251421 -1.0339e-25)
(0.0605959 0.0150498 3.39359e-24)
(0.0610529 0.0151368 -2.22553e-22)
(0.105518 0.0263127 -1.91762e-24)
(0.0615473 0.0152442 2.20784e-22)
(0.105813 0.0264044 -2.49578e-22)
(0.061321 0.0151922 0)
(0.485809 0.128703 -1.4443e-21)
(0.61687 0.167494 -1.23798e-21)
(0.721389 0.200428 0)
(0.793153 0.225204 1.97435e-21)
(0.827839 0.239964 -3.64996e-24)
(0.823815 0.243596 0)
(0.782459 0.235892 8.64615e-22)
(0.707907 0.21752 -1.70289e-21)
(0.606381 0.189879 -1.69453e-24)
(0.485183 0.154823 1.89772e-21)
(0.351571 0.114349 2.0004e-21)
(0.211839 0.070262 -9.73101e-23)
(0.0705207 0.0238117 0)
(0.330805 0.0851948 1.70303e-21)
(0.208172 0.0525873 -1.09367e-23)
(0.209429 0.0529706 -1.1355e-23)
(0.125312 0.0312673 1.0443e-23)
(0.126952 0.0318069 -1.72101e-22)
(0.0621308 0.0156697 2.19148e-22)
(0.0647554 0.0163806 -2.28512e-22)
(0.0798164 0.0187878 -1.18868e-22)
(0.0701557 0.0178917 6.79768e-24)
(0.0516474 0.0121055 2.43121e-23)
(0.056217 0.0140697 0)
(0.0599021 0.0149266 0)
(0.0586518 0.0146836 -2.12829e-22)
(0.0195893 0.0048175 -1.31431e-24)
(0.0197087 0.00484127 1.31497e-24)
(0.0617379 0.0152937 -2.22901e-22)
(0.0198513 0.00487515 -3.42332e-25)
(0.0619046 0.0153307 2.28455e-22)
(0.0198018 0.0048675 -1.71355e-22)
(0.481143 0.127402 -1.4132e-21)
(0.611741 0.166027 1.19264e-21)
(0.716002 0.198852 -2.09621e-21)
(0.787707 0.223577 -9.53362e-22)
(0.822498 0.23834 -8.81449e-22)
(0.818742 0.242031 -1.68193e-21)
(0.777792 0.23443 -1.64328e-24)
(0.703774 0.216205 0)
(0.602884 0.188746 -1.67304e-21)
(0.482393 0.153901 0)
(0.34956 0.113676 1.91251e-21)
(0.210615 0.069847 0)
(0.0701047 0.0236723 2.13189e-21)
(0.327687 0.0844283 2.00496e-21)
(0.206185 0.0521433 1.07225e-23)
(0.207003 0.0523607 6.88827e-22)
(0.123638 0.0308134 1.6258e-22)
(0.124298 0.0309966 1.53952e-22)
(0.0600037 0.014841 -2.1747e-22)
(0.0601916 0.0149133 -3.45031e-24)
(0.061025 0.0151897 2.28791e-22)
(0.060462 0.014998 -2.18726e-22)
(0.0201194 0.00507301 -1.76021e-22)
(0.0215191 0.00562253 2.32463e-22)
(0.0346774 0.00599232 -2.05579e-23)
(0.0238145 0.00627517 -4.88619e-23)
(0.0169119 0.00433584 -1.01743e-22)
(0.01812 0.00463685 -1.6392e-22)
(0.0194011 0.00478423 -1.62449e-22)
(0.0190258 0.00472643 -1.60674e-22)
(0.0199015 0.00489081 9.58557e-26)
(0.0199486 0.00489939 1.76822e-22)
(0.476986 0.126266 -1.36699e-21)
(0.606942 0.164664 1.14997e-21)
(0.710819 0.197338 2.01758e-21)
(0.782368 0.221984 2.21503e-24)
(0.817224 0.236737 8.45901e-22)
(0.813718 0.240478 0)
(0.773177 0.232979 0)
(0.699699 0.2149 0)
(0.599438 0.187623 1.64636e-21)
(0.479663 0.152995 1.74259e-21)
(0.347587 0.11301 0)
(0.209416 0.0694384 0)
(0.0696941 0.0235352 0)
(0.324946 0.083755 4.08852e-22)
(0.204512 0.051769 -6.50677e-22)
(0.205225 0.0519722 -2.10717e-24)
(0.122607 0.0305904 0)
(0.123079 0.0307033 -6.39341e-22)
(0.0595364 0.0147147 2.09581e-22)
(0.0595985 0.0147527 -2.11613e-22)
(0.0598185 0.0148043 2.1451e-22)
(0.0597069 0.0147717 -2.14196e-22)
(0.0192775 0.00473552 3.09806e-22)
(0.0193348 0.00475837 -1.56132e-22)
(0.0196234 0.00485712 0)
(0.0194185 0.004781 3.15925e-22)
(0.00961976 0.00153478 -3.15204e-23)
(0.473167 0.125228 -1.05192e-23)
(0.602373 0.163371 -2.21149e-21)
(0.70579 0.195875 9.7357e-22)
(0.777134 0.220425 0)
(0.812018 0.235154 0)
(0.808748 0.238938 0)
(0.768616 0.231539 7.63276e-22)
(0.695675 0.213607 -7.35062e-22)
(0.596062 0.186515 -1.5374e-21)
(0.476991 0.152102 -1.66842e-21)
(0.345649 0.112354 1.81922e-21)
(0.208235 0.0690382 0)
(0.0692948 0.0234033 -1.94919e-21)
(0.322415 0.0831154 -3.92948e-22)
(0.202969 0.051397 -6.28613e-22)
(0.203624 0.051599 -6.41026e-22)
(0.1217 0.0303907 7.54231e-22)
(0.122145 0.0305 -6.1593e-22)
(0.0591612 0.0146314 0)
(0.0592233 0.0146697 -2.03373e-22)
(0.0594066 0.0147038 2.0687e-22)
(0.059326 0.0146789 2.05276e-22)
(0.019149 0.00470041 8.90255e-25)
(0.0191625 0.00471255 -1.51124e-22)
(0.0192327 0.00472364 -1.67501e-25)
(0.0191843 0.00471488 1.52106e-22)
(0.469548 0.12425 1.27756e-21)
(0.597982 0.162136 -1.07128e-21)
(0.700878 0.194447 -9.3191e-22)
(0.771982 0.218889 8.40814e-22)
(0.806877 0.233588 7.8243e-22)
(0.803836 0.237409 5.84313e-24)
(0.764117 0.23011 -7.21054e-22)
(0.69173 0.212325 0)
(0.592757 0.18542 1.47172e-21)
(0.47439 0.151226 -1.54698e-21)
(0.343767 0.111713 -1.6347e-24)
(0.207094 0.068649 0)
(0.0688984 0.0232749 1.86199e-21)
(0.320009 0.0825005 5.97263e-24)
(0.201493 0.0510318 6.37021e-24)
(0.202128 0.0512314 6.12814e-22)
(0.120812 0.0301765 1.44594e-22)
(0.121242 0.0302898 7.37502e-22)
(0.0587655 0.0145415 -1.94221e-22)
(0.0588333 0.0145815 -1.9524e-22)
(0.0590243 0.0146191 3.12451e-25)
(0.0589416 0.0145922 -9.13094e-25)
(0.0190395 0.00467402 1.44248e-22)
(0.0190569 0.00468691 1.00073e-25)
(0.0191175 0.00469447 -1.49414e-22)
(0.0190761 0.00468737 -1.7687e-25)
(0.46608 0.123312 1.2241e-21)
(0.593715 0.160932 1.0318e-21)
(0.696064 0.193047 -8.98352e-22)
(0.766901 0.217372 -8.10112e-22)
(0.80179 0.232032 1.23788e-24)
(0.798981 0.23589 7.15574e-22)
(0.759688 0.22869 0)
(0.687865 0.211057 0)
(0.58954 0.184342 -1.44611e-21)
(0.471832 0.150355 0)
(0.341907 0.111076 1.63373e-24)
(0.205955 0.0682616 -1.88131e-21)
(0.0684924 0.0231373 -1.77902e-21)
(0.317685 0.0818967 3.48381e-22)
(0.200055 0.0506704 -5.74444e-22)
(0.200668 0.0508654 5.85819e-22)
(0.119947 0.0299654 5.57911e-22)
(0.120376 0.0300778 -4.27447e-22)
(0.0583571 0.0144417 0)
(0.0584251 0.0144809 -3.74868e-22)
(0.0586219 0.0145243 0)
(0.0585346 0.0144953 -9.25606e-25)
(0.0189148 0.00464446 1.07799e-24)
(0.0189371 0.00465805 1.40506e-22)
(0.0190048 0.00466781 2.85514e-22)
(0.0189612 0.00465978 -1.74197e-25)
(0.462723 0.122399 2.24057e-24)
(0.58954 0.159755 -9.80588e-22)
(0.691334 0.191671 8.57865e-22)
(0.761871 0.215867 -7.76858e-22)
(0.796748 0.230485 -7.17468e-22)
(0.794191 0.234379 -6.84487e-22)
(0.755342 0.227282 1.27296e-24)
(0.684083 0.209801 1.3197e-21)
(0.586385 0.183275 0)
(0.469346 0.149505 0)
(0.340099 0.110456 1.52991e-21)
(0.204817 0.0678722 0)
(0.0680971 0.0230038 -1.7015e-24)
(0.315424 0.0813052 -3.24454e-22)
(0.198647 0.0503091 -5.50845e-22)
(0.199253 0.0505048 -5.64321e-22)
(0.119098 0.0297563 4.02235e-22)
(0.11952 0.0298659 -8.16157e-22)
(0.0579462 0.0143423 0)
(0.058019 0.0143815 -1.79613e-22)
(0.0582155 0.0144247 -1.82985e-22)
(0.0581295 0.0143962 -1.82247e-22)
(0.0187829 0.00461176 1.3346e-22)
(0.0188079 0.00462533 1.63866e-25)
(0.0188763 0.00463718 1.3617e-22)
(0.0188319 0.00462899 -2.72328e-22)
(0.459456 0.121509 1.27842e-23)
(0.58544 0.158595 -9.51866e-22)
(0.686645 0.190305 -1.58025e-24)
(0.756887 0.214373 0)
(0.791761 0.228944 6.83935e-22)
(0.789464 0.232874 0)
(0.75108 0.225884 6.37821e-22)
(0.680394 0.208564 -1.27264e-24)
(0.583305 0.182226 0)
(0.466893 0.148664 0)
(0.338282 0.109834 0)
(0.203696 0.0674884 -1.72077e-21)
(0.0677259 0.0228747 0)
(0.313216 0.0807234 9.6982e-22)
(0.197272 0.0499588 5.33924e-22)
(0.197872 0.0501505 0)
(0.118269 0.0295464 3.86193e-22)
(0.118682 0.0296556 -1.30326e-22)
(0.0575461 0.0142434 0)
(0.0576127 0.0142826 1.72601e-22)
(0.0578065 0.0143241 1.77952e-24)
(0.0577195 0.0142958 3.4729e-22)
(0.0186501 0.00457955 1.28309e-22)
(0.0186762 0.00459303 1.68706e-25)
(0.0187448 0.004605 2.64217e-22)
(0.0187004 0.00459688 0)
(0.456238 0.120627 0)
(0.581393 0.15745 0)
(0.681987 0.188943 6.85082e-26)
(0.751912 0.212872 1.35766e-24)
(0.786802 0.227397 2.6254e-24)
(0.784805 0.23137 -6.20898e-22)
(0.746902 0.224497 0)
(0.67678 0.207339 0)
(0.580285 0.18119 6.33954e-22)
(0.464481 0.147833 0)
(0.336487 0.109213 1.39834e-21)
(0.202575 0.0670948 1.53148e-24)
(0.0673195 0.0227357 -1.59855e-21)
(0.311061 0.0801529 0)
(0.195933 0.0496136 6.08644e-24)
(0.196518 0.0498024 0)
(0.117454 0.0293423 -1.20707e-22)
(0.117862 0.0294497 -2.51143e-22)
(0.0571467 0.0141441 0)
(0.0572144 0.014182 3.07285e-25)
(0.0574068 0.014225 1.68685e-22)
(0.0573221 0.014196 1.66655e-22)
(0.0185232 0.00454814 0)
(0.0185464 0.00456222 0)
(0.0186123 0.00457254 2.54072e-22)
(0.0185663 0.00456467 -2.51785e-22)
(0.453072 0.119759 -1.02363e-21)
(0.577351 0.156302 0)
(0.677324 0.187576 7.54633e-22)
(0.746945 0.211364 -1.3572e-24)
(0.781878 0.225841 0)
(0.780211 0.229865 0)
(0.742806 0.223118 0)
(0.673245 0.20613 -5.77477e-22)
(0.577322 0.180168 0)
(0.462062 0.146996 0)
(0.334701 0.108589 0)
(0.201436 0.0666967 1.48567e-21)
(0.0668925 0.0225949 -3.01495e-21)
(0.308916 0.0795834 1.17943e-21)
(0.194615 0.0492745 4.81818e-22)
(0.195197 0.0494607 1.91785e-24)
(0.116659 0.0291415 3.55209e-22)
(0.117058 0.0292462 -1.19076e-22)
(0.0567529 0.0140483 0)
(0.0568226 0.0140829 1.58413e-22)
(0.0570081 0.0141263 3.96552e-25)
(0.0569401 0.0141018 8.86059e-25)
(0.0183926 0.00451617 0)
(0.0184172 0.00452967 1.58572e-25)
(0.0184843 0.00454141 0)
(0.0184411 0.00453302 -1.68579e-25)
(0.449906 0.118888 -5.75671e-24)
(0.573295 0.155152 -8.36139e-22)
(0.672621 0.186194 0)
(0.741946 0.209828 0)
(0.776968 0.224266 2.27129e-24)
(0.775677 0.228358 0)
(0.738782 0.221751 0)
(0.669762 0.204933 1.06852e-24)
(0.574367 0.179146 -5.7856e-22)
(0.459664 0.146161 0)
(0.332868 0.107951 1.33583e-21)
(0.200273 0.0662949 1.42049e-21)
(0.0664635 0.0224485 1.42184e-21)
(0.306809 0.0790222 -2.79811e-22)
(0.193319 0.0489412 4.62425e-22)
(0.193895 0.0491251 -4.72858e-22)
(0.115879 0.0289449 -4.52907e-22)
(0.116273 0.0290472 -2.28989e-22)
(0.0563744 0.0139541 0)
(0.0564419 0.0139876 1.51729e-22)
(0.0566215 0.0140294 0)
(0.0565573 0.0140058 8.80575e-25)
(0.0182628 0.00448577 0)
(0.0183007 0.00450006 -1.15138e-22)
(0.0183539 0.00450994 2.01244e-25)
(0.0183141 0.00450195 1.16446e-22)
(0.446722 0.118013 3.78337e-24)
(0.569181 0.153981 0)
(0.66782 0.184767 5.22831e-24)
(0.736891 0.20825 0)
(0.772062 0.222664 -5.65287e-22)
(0.771193 0.22685 5.39146e-22)
(0.734819 0.220398 -1.01689e-24)
(0.666315 0.203745 5.27695e-22)
(0.571413 0.178121 -2.19439e-24)
(0.457239 0.145314 -1.1337e-21)
(0.331031 0.107306 0)
(0.199066 0.0658692 0)
(0.0660278 0.0223012 -2.75543e-21)
(0.304697 0.078456 -2.67621e-22)
(0.192038 0.0486056 -1.75359e-24)
(0.192608 0.04879 9.08655e-22)
(0.115111 0.0287534 -5.43003e-22)
(0.1155 0.0288518 2.25265e-22)
(0.055999 0.0138612 0)
(0.0560661 0.0138938 0)
(0.0562435 0.0139344 4.33031e-25)
(0.0561784 0.0139113 8.61014e-25)
(0.018143 0.00445637 1.0933e-22)
(0.0181794 0.00447016 8.68444e-25)
(0.0182309 0.00447932 1.12572e-22)
(0.0181922 0.00447142 2.22592e-22)
(0.443469 0.117115 0)
(0.564912 0.152763 0)
(0.662867 0.183278 -6.52584e-22)
(0.731737 0.206609 1.1603e-21)
(0.767145 0.221034 -5.40938e-22)
(0.766752 0.22535 -5.1533e-22)
(0.730895 0.219057 -9.29443e-25)
(0.662869 0.202555 5.14275e-22)
(0.568444 0.177086 -5.29172e-22)
(0.454783 0.144448 0)
(0.329142 0.106635 0)
(0.19785 0.065439 1.29605e-21)
(0.0655875 0.0221491 1.29487e-21)
(0.302538 0.0778764 0)
(0.190783 0.048274 -4.19161e-22)
(0.191356 0.048462 4.32773e-22)
(0.114365 0.0285622 -1.03006e-22)
(0.114746 0.0286611 -5.29168e-22)
(0.0556362 0.0137725 0)
(0.0556988 0.0138035 1.38883e-22)
(0.0558743 0.0138427 1.41866e-22)
(0.0558101 0.0138192 1.41023e-22)
(0.0180207 0.00442651 1.04859e-22)
(0.0180576 0.00444008 0)
(0.0181093 0.00444912 2.1626e-22)
(0.0180689 0.00444115 1.07323e-22)
(0.440075 0.116185 -8.54254e-22)
(0.5604 0.151467 7.19869e-22)
(0.657676 0.18168 -6.18616e-22)
(0.726444 0.20489 0)
(0.762224 0.219397 5.17996e-22)
(0.762349 0.223866 0)
(0.72699 0.217725 -9.72224e-22)
(0.659421 0.20136 4.79797e-22)
(0.565445 0.17603 -5.09401e-22)
(0.452277 0.143558 0)
(0.327212 0.105946 0)
(0.196603 0.0649925 1.31586e-21)
(0.0651141 0.0219895 4.37198e-23)
(0.300307 0.0772796 7.39824e-22)
(0.189515 0.0479415 4.00703e-22)
(0.190105 0.0481328 0)
(0.11363 0.0283738 1.99388e-22)
(0.113999 0.0284687 -2.0051e-22)
(0.0552762 0.0136811 0)
(0.0553422 0.013711 1.32592e-22)
(0.0555094 0.0137532 1.36644e-22)
(0.0554475 0.0137315 -1.35129e-22)
(0.0179066 0.00439849 1.01288e-22)
(0.0179392 0.00441147 7.98961e-25)
(0.0179912 0.00442027 1.03634e-22)
(0.0179508 0.00441167 1.01908e-22)
(0.436385 0.115176 1.2402e-23)
(0.555464 0.15002 -6.68909e-22)
(0.652125 0.179928 0)
(0.721036 0.203122 5.17962e-22)
(0.75732 0.217776 -9.83499e-25)
(0.757985 0.222406 9.44895e-22)
(0.723093 0.216392 3.71151e-24)
(0.655939 0.200145 9.33859e-22)
(0.562402 0.174953 0)
(0.449711 0.142641 -1.93695e-24)
(0.325235 0.105235 -1.06617e-21)
(0.195311 0.0645314 7.59146e-23)
(0.0646141 0.0218205 1.22851e-21)
(0.29786 0.0766287 5.39561e-24)
(0.188239 0.0476018 0)
(0.188831 0.0477955 7.86451e-22)
(0.112907 0.0281886 -3.75879e-22)
(0.11327 0.0282814 9.52697e-23)
(0.0549261 0.0135948 1.25552e-22)
(0.0549943 0.013624 1.26464e-22)
(0.0551544 0.0136627 1.46918e-24)
(0.0550962 0.0136422 1.27686e-22)
(0.0177876 0.00436747 9.61871e-23)
(0.0178233 0.00437998 0)
(0.0178694 0.00439199 9.84539e-23)
(0.0178402 0.00438767 1.01392e-25)
(0.432147 0.114014 7.61405e-22)
(0.549905 0.148344 -4.7564e-24)
(0.646231 0.178035 -5.55808e-22)
(0.715575 0.20136 4.97819e-22)
(0.752478 0.216202 -9.40161e-22)
(0.753668 0.220961 0)
(0.719189 0.215047 -4.37016e-22)
(0.652423 0.198908 0)
(0.559291 0.173843 0)
(0.447099 0.141699 1.93675e-24)
(0.323215 0.104504 -2.10112e-21)
(0.193965 0.0640489 -1.1382e-21)
(0.0641032 0.0216461 -1.14029e-21)
(0.294932 0.0758784 0)
(0.186828 0.0472313 3.66352e-22)
(0.187531 0.0474518 -3.74918e-22)
(0.112174 0.0279988 -1.77563e-22)
(0.112553 0.0280961 -2.77121e-22)
(0.0545943 0.0135103 1.19486e-22)
(0.0546563 0.0135397 -1.20459e-22)
(0.0548119 0.0135777 0)
(0.0547559 0.0135554 -1.22607e-22)
(0.0176734 0.00434029 9.12255e-23)
(0.0177104 0.00435212 0)
(0.017753 0.00436287 1.90134e-22)
(0.0177257 0.0043591 -9.43832e-23)
(0.426974 0.112558 0)
(0.543508 0.146333 4.74286e-24)
(0.640114 0.176112 -5.38348e-22)
(0.710223 0.19969 4.87742e-22)
(0.747757 0.214672 -7.02685e-24)
(0.749393 0.219518 0)
(0.715274 0.213686 -6.57203e-24)
(0.648857 0.197643 3.23544e-24)
(0.556132 0.172705 0)
(0.444436 0.14073 1.84999e-21)
(0.321154 0.103751 2.01335e-24)
(0.192567 0.0635418 2.25162e-24)
(0.0635781 0.0214696 4.07726e-23)
(0.290981 0.0748496 -2.01703e-22)
(0.185042 0.0467962 1.36281e-24)
(0.186007 0.0470692 -1.36186e-24)
(0.111401 0.0277996 8.32639e-23)
(0.111825 0.0279044 7.75558e-25)
(0.0542637 0.0134268 8.1992e-25)
(0.0543302 0.0134569 2.89211e-25)
(0.0544793 0.0134931 -1.17439e-22)
(0.0544263 0.0134725 0)
(0.0175712 0.00431407 0)
(0.0176023 0.00432598 8.87761e-23)
(0.0176446 0.00433694 -9.00991e-23)
(0.0176176 0.00433163 -9.00826e-23)
(0.420129 0.110513 -6.44056e-22)
(0.536495 0.144167 0)
(0.634171 0.174354 4.07551e-24)
(0.705127 0.198105 0)
(0.743174 0.213168 6.65706e-24)
(0.745156 0.218073 0)
(0.711337 0.212307 3.20306e-24)
(0.645251 0.196351 -3.23534e-24)
(0.552929 0.171538 1.36267e-23)
(0.441739 0.139735 1.77717e-24)
(0.319012 0.102962 0)
(0.191156 0.0630342 -1.05327e-21)
(0.063037 0.0212851 3.94783e-23)
(0.284058 0.0730068 7.46003e-22)
(0.181989 0.0460768 3.30891e-22)
(0.183795 0.0465706 -5.14313e-24)
(0.110467 0.0275738 7.99856e-23)
(0.111008 0.0276952 -8.02017e-23)
(0.0539388 0.0133463 0)
(0.0540061 0.0133758 -1.08434e-22)
(0.0541541 0.0134097 -1.12334e-22)
(0.0541026 0.0133882 1.11457e-22)
(0.0174645 0.0042881 1.66491e-22)
(0.0174995 0.00430053 1.69321e-22)
(0.0175378 0.00430997 8.65826e-23)
(0.0175128 0.00430616 -8.59206e-23)
(0.411624 0.107964 5.98441e-22)
(0.529795 0.142315 0)
(0.628754 0.172755 7.43453e-24)
(0.700325 0.196581 -4.31874e-22)
(0.738714 0.211684 -3.23567e-24)
(0.74095 0.216626 0)
(0.707388 0.210907 0)
(0.641605 0.195031 -1.15007e-21)
(0.549674 0.170339 -8.02681e-22)
(0.438965 0.138706 1.63841e-24)
(0.316846 0.10216 0)
(0.189715 0.0625038 -1.01884e-21)
(0.0624773 0.0210945 1.07968e-21)
(0.272021 0.069706 -5.35604e-22)
(0.174342 0.0440193 -8.44504e-24)
(0.17918 0.0455533 -3.18782e-22)
(0.108794 0.0272185 0)
(0.109832 0.0274249 7.78309e-23)
(0.0535883 0.0132595 -1.00314e-22)
(0.0536722 0.0132922 -1.02382e-22)
(0.0538215 0.0133241 0)
(0.0537748 0.0133026 7.34726e-25)
(0.017366 0.00426401 7.91905e-23)
(0.0173981 0.00427566 8.03659e-23)
(0.017435 0.00428391 8.30266e-23)
(0.0174098 0.00427957 0)
(0.403826 0.105935 -9.98072e-24)
(0.524178 0.140745 -5.4169e-22)
(0.62391 0.171268 1.92953e-24)
(0.695797 0.195119 -6.1845e-24)
(0.734369 0.210223 0)
(0.736779 0.215173 0)
(0.703427 0.20949 3.60642e-22)
(0.637934 0.193686 7.31123e-22)
(0.546375 0.169114 1.46658e-24)
(0.436165 0.137651 -1.63825e-24)
(0.314612 0.101322 -9.21281e-22)
(0.188243 0.0619623 -9.95032e-22)
(0.0618993 0.0208929 1.05721e-21)
(0.262285 0.0672145 2.29688e-23)
(0.156028 0.0396578 1.40202e-22)
(0.1654 0.0413748 -3.71149e-22)
(0.103699 0.0260023 5.57306e-23)
(0.107182 0.0268966 2.81595e-22)
(0.0530032 0.013134 0)
(0.0532187 0.0131871 9.59558e-23)
(0.0534556 0.0132378 -4.84611e-25)
(0.0533569 0.0132007 9.73289e-23)
(0.0172603 0.00423839 1.49015e-22)
(0.0172997 0.00425051 7.6028e-23)
(0.017336 0.00425884 0)
(0.0173104 0.00425434 4.39696e-26)
(0.398235 0.104377 1.91242e-23)
(0.519544 0.139354 5.0275e-22)
(0.619502 0.169884 0)
(0.691479 0.193707 6.19347e-24)
(0.730122 0.208779 -3.51498e-22)
(0.732643 0.213717 -2.58311e-24)
(0.699463 0.208053 1.28982e-24)
(0.634233 0.192314 0)
(0.543043 0.167855 -1.46614e-24)
(0.433301 0.136563 1.57764e-21)
(0.312382 0.100475 8.7331e-25)
(0.186715 0.0613858 -9.7082e-22)
(0.0612775 0.020688 0)
(0.257528 0.0656486 5.35951e-22)
(0.147801 0.0371791 2.83429e-22)
(0.150289 0.0380167 9.35152e-24)
(0.0780126 0.0201669 -1.35344e-22)
(0.0922613 0.0226242 9.34232e-23)
(0.0493432 0.0120346 4.1741e-23)
(0.0513507 0.0129087 5.97145e-24)
(0.0527304 0.0131023 -7.26411e-25)
(0.0522338 0.013004 -9.0797e-23)
(0.0171038 0.00419952 0)
(0.017176 0.00421709 -3.40115e-25)
(0.0172364 0.00423575 -7.3434e-23)
(0.0171924 0.00422287 -7.48498e-26)
(0.394252 0.103184 -5.69588e-22)
(0.515573 0.138137 4.69624e-22)
(0.615447 0.168601 -6.03773e-24)
(0.687348 0.192345 1.20884e-23)
(0.725976 0.207353 5.18235e-24)
(0.728544 0.212254 2.58326e-24)
(0.695505 0.206596 -2.50569e-24)
(0.630508 0.190911 0)
(0.539684 0.166568 -7.01631e-22)
(0.43041 0.135445 7.41109e-25)
(0.310062 0.099584 -8.70307e-22)
(0.185115 0.0607933 0)
(0.0606283 0.02047 -2.04104e-21)
(0.254912 0.0648748 5.06116e-22)
(0.145566 0.0363768 2.83473e-22)
(0.146366 0.0366382 -2.79216e-22)
(0.0719475 0.0178201 -2.84525e-22)
(0.073063 0.0183712 8.773e-24)
(0.0185056 0.00496881 -4.59994e-23)
(0.0207077 0.00511952 4.28194e-23)
(0.0449861 0.0102782 2.33095e-23)
(0.0303281 0.00509353 0)
(0.0158444 0.004036 -1.45641e-22)
(0.016563 0.00414011 -1.0536e-24)
(0.0170251 0.00418633 -6.918e-23)
(0.0168621 0.00416016 1.38789e-24)
(0.39105 0.102244 -5.32526e-22)
(0.512024 0.137057 -4.29976e-22)
(0.611658 0.167394 1.87836e-23)
(0.68338 0.191017 0)
(0.721913 0.205933 -2.50069e-24)
(0.724485 0.210782 0)
(0.691553 0.205118 2.95724e-22)
(0.626775 0.189481 0)
(0.536296 0.165247 0)
(0.427477 0.134298 -9.57546e-24)
(0.307703 0.0986699 0)
(0.183473 0.0601778 1.96037e-21)
(0.0599752 0.0202447 -1.00885e-21)
(0.253008 0.0644233 -1.57275e-22)
(0.14451 0.0361703 -2.04062e-24)
(0.14492 0.0362705 2.67422e-22)
(0.0710631 0.0175458 -9.77943e-25)
(0.0713959 0.0176428 2.62699e-22)
(0.0168212 0.00413097 -6.71e-23)
(0.0168892 0.00417101 -6.73032e-23)
(0.01737 0.00438691 7.68969e-23)
(0.0169497 0.00423192 7.02667e-23)
(0.0147553 0.00371533 8.50711e-24)
(0.00834926 0.0012927 -1.60054e-25)
(0.388342 0.101469 4.91265e-22)
(0.508825 0.136079 1.61389e-23)
(0.608082 0.166238 0)
(0.679551 0.189716 0)
(0.717934 0.204519 -2.77034e-22)
(0.720466 0.209297 -2.86571e-22)
(0.687607 0.203614 1.08029e-24)
(0.623031 0.18802 0)
(0.532876 0.163891 6.57106e-22)
(0.424479 0.133106 -7.27586e-22)
(0.305277 0.0977196 -8.17271e-22)
(0.181779 0.0595328 0)
(0.0592652 0.0200067 -1.02257e-21)
(0.25139 0.0640393 1.46197e-22)
(0.143703 0.0360188 0)
(0.14403 0.0361127 2.46059e-22)
(0.0706801 0.0174807 0)
(0.0708472 0.0175184 6.26149e-23)
(0.0167649 0.00411136 6.26824e-23)
(0.0167694 0.00411877 6.42553e-23)
(0.0168008 0.00413122 0)
(0.0167901 0.00412218 -6.47386e-23)
(0.385941 0.10078 4.65398e-22)
(0.505865 0.135166 -5.79134e-24)
(0.604688 0.165126 3.07499e-22)
(0.675841 0.188433 1.56392e-23)
(0.714032 0.203105 -2.5304e-22)
(0.716488 0.207797 -9.74688e-25)
(0.683677 0.202084 -2.58374e-22)
(0.619285 0.186524 0)
(0.529406 0.162492 1.77956e-23)
(0.421439 0.131878 0)
(0.302773 0.0967267 0)
(0.180021 0.0588653 0)
(0.058537 0.0197647 -1.04978e-21)
(0.249979 0.0636815 0)
(0.142966 0.035848 0)
(0.14327 0.0359507 -2.27674e-22)
(0.0703517 0.0174144 5.54117e-23)
(0.0705172 0.0174601 0)
(0.0167232 0.00410468 0)
(0.0167216 0.00411107 5.99915e-23)
(0.0167453 0.0041167 -1.24619e-22)
(0.0167472 0.00411051 4.81598e-25)
(0.383777 0.100153 3.42472e-24)
(0.50308 0.134293 -3.41861e-22)
(0.601431 0.164038 1.5856e-23)
(0.672235 0.187159 2.66497e-22)
(0.710201 0.201683 0)
(0.712552 0.206277 4.78966e-22)
(0.679766 0.200526 -2.39746e-22)
(0.615514 0.184991 8.2863e-22)
(0.525911 0.161053 6.13274e-25)
(0.418357 0.130613 -7.03152e-22)
(0.300219 0.0957025 0)
(0.178216 0.0581749 0)
(0.0577844 0.0195122 1.11388e-21)
(0.248692 0.0633411 -1.77246e-24)
(0.142268 0.0356733 0)
(0.142549 0.0357739 0)
(0.0700195 0.0173365 5.09102e-23)
(0.0701861 0.0173848 -8.45195e-25)
(0.0166541 0.00408596 -2.91751e-25)
(0.0166624 0.00409652 0)
(0.0166941 0.0041072 -5.79433e-23)
(0.0166908 0.00409778 -5.68662e-23)
(0.381743 0.0995547 -2.80837e-24)
(0.500438 0.133453 3.1115e-22)
(0.598305 0.162973 0)
(0.668736 0.185892 -1.87919e-24)
(0.70644 0.200251 -2.29916e-22)
(0.708657 0.204734 2.33203e-22)
(0.675863 0.198934 -4.71096e-22)
(0.611731 0.183418 -2.51326e-22)
(0.522403 0.159579 6.17947e-22)
(0.415212 0.129299 0)
(0.297635 0.0946432 0)
(0.176318 0.057438 -1.02117e-21)
(0.0569786 0.0192529 1.13451e-21)
(0.247478 0.0630115 9.75203e-25)
(0.141611 0.035503 -7.30521e-25)
(0.141875 0.035603 7.30791e-25)
(0.0697056 0.0172603 0)
(0.069858 0.0173032 0)
(0.0165804 0.00406879 0)
(0.0165893 0.00407908 -5.13471e-23)
(0.0166225 0.00408831 -5.35802e-23)
(0.0166199 0.00408039 -5.25232e-23)
(0.379833 0.098986 2.8066e-24)
(0.497933 0.13264 0)
(0.59529 0.161918 -2.1674e-22)
(0.665328 0.184622 -1.9041e-22)
(0.702751 0.198805 4.45132e-25)
(0.704803 0.203165 2.16718e-22)
(0.671976 0.197306 2.36385e-22)
(0.607954 0.181802 0)
(0.518849 0.158049 0)
(0.412032 0.127933 -6.99272e-22)
(0.294913 0.0935167 0)
(0.174333 0.0566863 0)
(0.0561145 0.0189395 1.22405e-21)
(0.246328 0.0626921 8.91007e-26)
(0.140976 0.0353381 6.58655e-25)
(0.14124 0.0354395 -6.58907e-25)
(0.0693919 0.017183 0)
(0.0695501 0.0172268 0)
(0.016518 0.00405273 0)
(0.0165166 0.00406157 4.71847e-23)
(0.0165511 0.00407017 4.92781e-23)
(0.0165457 0.00406223 -4.82196e-23)
(0.378023 0.0984373 2.94177e-22)
(0.495534 0.131841 4.69475e-22)
(0.592387 0.160867 2.05495e-22)
(0.662012 0.183342 0)
(0.699125 0.197338 3.58614e-25)
(0.700989 0.201564 0)
(0.668101 0.195635 0)
(0.604154 0.180135 0)
(0.515238 0.156456 6.14737e-22)
(0.408748 0.126508 0)
(0.292105 0.0923444 0)
(0.172235 0.055899 -1.12267e-21)
(0.055384 0.0184658 1.3148e-21)
(0.245239 0.06239 -3.44194e-22)
(0.140382 0.0351784 6.22382e-25)
(0.140624 0.0352749 -1.17476e-24)
(0.0690886 0.0171073 0)
(0.0692405 0.0171528 0)
(0.0164415 0.00403593 -4.19049e-23)
(0.0164526 0.00404568 4.25968e-23)
(0.0164858 0.00405378 4.47115e-23)
(0.0164817 0.00404578 -4.33303e-23)
(0.376318 0.0979121 -2.6571e-22)
(0.493252 0.131054 8.4157e-25)
(0.589589 0.159812 0)
(0.658779 0.182048 0)
(0.695562 0.195847 1.34093e-22)
(0.697214 0.199929 -1.48757e-22)
(0.664239 0.19392 -1.77947e-22)
(0.600323 0.178414 0)
(0.511597 0.154814 -5.84712e-25)
(0.405373 0.125011 0)
(0.28923 0.0911221 0)
(0.169968 0.0549343 -1.20576e-21)
(0.0557296 0.0180511 1.46431e-21)
(0.244209 0.0621152 -6.15786e-25)
(0.139807 0.0350313 -1.03245e-24)
(0.140029 0.0351179 1.58441e-24)
(0.0688005 0.0170328 0)
(0.0689493 0.017075 3.53331e-23)
(0.0163749 0.00401822 -3.7633e-23)
(0.0163818 0.00402862 3.86914e-23)
(0.0164166 0.00403968 0)
(0.0164091 0.00402951 0)
(0.374704 0.0974038 -2.10201e-22)
(0.491085 0.130266 -1.52263e-22)
(0.5869 0.15875 0)
(0.655631 0.18074 -1.39598e-22)
(0.692068 0.194332 1.49575e-22)
(0.693479 0.198255 4.25862e-23)
(0.660387 0.192156 0)
(0.596489 0.176635 0)
(0.507873 0.153095 5.63188e-22)
(0.40199 0.123448 0)
(0.285939 0.0897502 0)
(0.169844 0.0537 7.18074e-23)
(0.0495352 0.0151467 -6.2253e-23)
(0.243247 0.0618773 2.47068e-22)
(0.139246 0.0349076 0)
(0.139473 0.0349823 -1.17296e-22)
(0.0685274 0.0169652 0)