/*--------------------------------*- C++ -*----------------------------------*\
| =========                 |                                                 |
| \\      /  F ield         | OpenFOAM: The Open Source CFD Toolbox           |
|  \\    /   O peration     | Version:  v1912                                 |
|   \\  /    A nd           | Website:  www.openfoam.com                      |
|    \\/     M anipulation  |                                                 |
\*---------------------------------------------------------------------------*/
FoamFile
{
    version     2.0;
    format      ascii;
    class       volVectorField;
    location    "230";
    object      U;
}
// * * * * * * * * * * * * * * * * * * * * * * * * * * * * * * * * * * * * * //

dimensions      [0 1 -1 0 0 0 0];


internalField   nonuniform List<vector> 
3673
(
(0.64823 -0.0255843 -1.6312e-21)
(0.974707 -0.0152994 -5.23918e-20)
(0.298316 -0.0525358 -3.75052e-24)
(1.01655 -0.0104125 2.44343e-20)
(0.76604 -0.0574928 -2.2921e-24)
(0.175438 -0.0543373 1.95142e-20)
(1.00676 -0.0138642 -1.90771e-37)
(0.961615 -0.0540604 1.5287e-24)
(0.568957 -0.0966499 -1.78471e-20)
(0.124736 -0.0462274 2.40495e-20)
(0.999516 -0.0164497 -2.63267e-41)
(1.00909 -0.0522441 0)
(0.843977 -0.103915 -2.35164e-20)
(0.436412 -0.110528 -2.37892e-20)
(0.108249 -0.0400178 2.81286e-20)
(0.997598 -0.017032 -4.07184e-24)
(1.00894 -0.0520448 -6.96666e-24)
(0.969504 -0.100555 4.78226e-20)
(0.720593 -0.138278 2.50817e-20)
(0.365236 -0.110934 0)
(0.104932 -0.0374777 -3.09474e-20)
(0.997517 -0.0166534 -3.73821e-51)
(1.00224 -0.0521373 1.79462e-20)
(1.00432 -0.096696 -2.56726e-20)
(0.898753 -0.144876 -2.20377e-20)
(0.626217 -0.156601 2.80933e-20)
(0.332965 -0.10933 3.36556e-20)
(0.105634 -0.0368115 0)
(0.997716 -0.0158025 0)
(0.99812 -0.0514949 1.78266e-21)
(1.0047 -0.0941251 0)
(0.976636 -0.143474 6.99092e-24)
(0.824954 -0.177957 3.77874e-21)
(0.567432 -0.165685 0)
(0.320406 -0.108555 0)
(0.107706 -0.0368775 0)
(0.997869 -0.0146169 2.27517e-20)
(0.996114 -0.0497641 -2.00206e-20)
(0.998323 -0.0918677 0)
(0.997025 -0.14026 1.73061e-20)
(0.936401 -0.184662 -2.59814e-20)
(0.766478 -0.200323 0)
(0.535704 -0.170155 -7.33578e-24)
(0.317145 -0.108488 0)
(0.10991 -0.0371446 0)
(0.997981 -0.0131235 -2.28726e-20)
(0.994826 -0.0469849 0)
(0.992905 -0.0889898 2.01976e-23)
(0.995389 -0.136986 -1.7349e-20)
(0.980762 -0.184847 0)
(0.897251 -0.217295 1.34321e-23)
(0.727485 -0.214319 6.68429e-24)
(0.52069 -0.172132 -3.07495e-20)
(0.317785 -0.108582 3.38801e-20)
(0.111588 -0.0373882 -6.80291e-24)
(0.998092 -0.0113063 0)
(0.9936 -0.0432014 0)
(0.98871 -0.0850208 -2.25075e-23)
(0.988686 -0.133528 -4.13212e-23)
(0.989847 -0.183052 -3.59219e-23)
(0.962217 -0.223876 0)
(0.866879 -0.240803 -1.40671e-23)
(0.704557 -0.221983 2.71047e-20)
(0.51471 -0.172596 5.44124e-22)
(0.319447 -0.10857 -3.21016e-20)
(0.112599 -0.0375346 1.32032e-23)
(0.998223 -0.00915128 -2.52552e-23)
(0.992288 -0.0383739 0)
(0.984799 -0.079667 0)
(0.981647 -0.129286 2.34387e-23)
(0.985569 -0.180846 2.11977e-23)
(0.984385 -0.22607 1.81485e-23)
(0.946887 -0.254729 0)
(0.846734 -0.255617 0)
(0.692268 -0.225137 7.94926e-22)
(0.512809 -0.172204 -4.10846e-22)
(0.320839 -0.108404 0)
(0.113015 -0.0375588 -6.39983e-24)
(0.998387 -0.00666652 0)
(0.990926 -0.0324375 -2.78195e-20)
(0.980651 -0.0726468 0)
(0.974406 -0.123625 0)
(0.977309 -0.178204 0)
(0.985867 -0.227168 -2.20746e-20)
(0.981895 -0.262253 0)
(0.936957 -0.275974 1.28275e-23)
(0.834553 -0.263204 1.11975e-21)
(0.685908 -0.225624 2.4474e-20)
(0.512328 -0.171419 -2.59422e-20)
(0.32153 -0.108046 0)
(0.112908 -0.0374588 0)
(0.99859 -0.00389214 2.75393e-20)
(0.989613 -0.0253621 2.78982e-20)
(0.976183 -0.0636753 1.98621e-24)
(0.966334 -0.115906 0)
(0.967217 -0.174491 2.90814e-20)
(0.979024 -0.22823 2.23365e-20)
(0.991494 -0.267888 3.93564e-23)
(0.983332 -0.288508 -1.35782e-23)
(0.931348 -0.288065 -3.70012e-20)
(0.82723 -0.266042 0)
(0.682477 -0.224857 4.61147e-20)
(0.512036 -0.170398 0)
(0.321393 -0.10748 0)
(0.112381 -0.0372566 1.00469e-23)
(0.99884 -0.000908604 -5.53876e-20)
(0.988486 -0.0172006 -2.84069e-23)
(0.971572 -0.0525098 3.14068e-20)
(0.957127 -0.105457 3.29675e-20)
(0.95496 -0.168828 -2.94158e-20)
(0.968014 -0.229108 0)
(0.989228 -0.273958 0)
(1.00227 -0.298255 1.70961e-20)
(0.986888 -0.304112 1.23606e-20)
(0.927914 -0.293711 1.1376e-20)
(0.822646 -0.266403 -2.11646e-20)
(0.680359 -0.223495 5.01968e-24)
(0.511362 -0.169181 -2.22507e-20)
(0.320455 -0.106735 -2.37737e-20)
(0.111531 -0.0369767 -8.83662e-25)
(0.999136 0.00216146 2.78681e-20)
(0.987718 -0.00812805 2.99329e-20)
(0.96718 -0.0390177 -3.13038e-20)
(0.946905 -0.0915655 -6.82961e-20)
(0.939913 -0.160134 -6.68094e-23)
(0.952983 -0.229088 5.82138e-23)
(0.980868 -0.281288 0)
(1.00747 -0.308492 -1.67769e-20)
(1.01466 -0.316195 1.36521e-20)
(0.990028 -0.311985 -1.092e-20)
(0.925567 -0.295818 0)
(0.819661 -0.265499 -1.98046e-20)
(0.678637 -0.221796 1.96069e-20)
(0.510033 -0.16782 2.01625e-20)
(0.318825 -0.105869 1.00965e-23)
(0.110469 -0.0366406 -9.28748e-24)
(0.999475 0.00515852 5.47498e-23)
(0.987497 0.00152714 -2.97737e-20)
(0.963543 -0.0232803 1.34284e-22)
(0.936206 -0.0735498 -2.06161e-21)
(0.921779 -0.14705 0)
(0.932805 -0.227065 -3.8653e-20)
(0.967222 -0.29001 -5.71593e-23)
(1.00605 -0.320959 3.31149e-23)
(1.02788 -0.327854 -1.34115e-20)
(1.02457 -0.325213 0)
(0.992206 -0.315638 0)
(0.924054 -0.295982 9.14712e-21)
(0.817456 -0.263881 -1.81842e-20)
(0.676743 -0.21994 1.31224e-23)
(0.508019 -0.166394 0)
(0.316662 -0.10491 -1.0127e-23)
(0.109261 -0.0362652 0)
(0.999841 0.00790319 0)
(0.987979 0.0112808 -5.67984e-23)
(0.961337 -0.00571366 -3.30369e-20)
(0.926068 -0.0509038 7.52873e-20)
(0.900763 -0.127836 -9.32115e-24)
(0.90613 -0.221444 3.95863e-20)
(0.946863 -0.300024 0)
(1.00013 -0.336736 0)
(1.03465 -0.341071 -3.21963e-23)
(1.04377 -0.336855 0)
(1.03158 -0.32967 -9.1677e-24)
(0.994026 -0.316891 8.94726e-21)
(0.923007 -0.294976 1.69844e-20)
(0.815414 -0.261934 8.48194e-24)
(0.674449 -0.218062 -8.50019e-24)
(0.505395 -0.164926 0)
(0.314101 -0.10389 -8.44889e-24)
(0.107956 -0.0358642 -1.54357e-20)
(1.00021 0.0102231 0)
(0.989229 0.0205316 -1.17898e-22)
(0.961254 0.0128289 3.28829e-20)
(0.918155 -0.0236305 -7.62388e-20)
(0.877805 -0.100298 -4.70012e-20)
(0.871721 -0.209808 1.85726e-22)
(0.917314 -0.311165 0)
(0.989356 -0.356916 -2.38227e-20)
(1.03845 -0.356883 2.54741e-23)
(1.05599 -0.348896 0)
(1.05479 -0.341196 0)
(1.03712 -0.331534 9.05721e-25)
(0.995601 -0.316617 8.36629e-24)
(0.921979 -0.293372 -7.79421e-21)
(0.813219 -0.259911 -7.1359e-24)
(0.671699 -0.216213 0)
(0.502264 -0.163438 -7.29875e-24)
(0.311261 -0.102831 1.63325e-20)
(0.106607 -0.0354483 6.49576e-24)
(1.00055 0.0119828 2.45586e-20)
(0.991182 0.0286433 -2.7347e-20)
(0.96378 0.0310967 1.18537e-22)
(0.914626 0.00729685 7.55169e-20)
(0.855307 -0.0622919 4.55525e-20)
(0.828914 -0.187731 0)
(0.874821 -0.323319 0)
(0.972108 -0.382869 2.32085e-20)
(1.04008 -0.375738 2.50903e-23)
(1.06511 -0.362152 -4.68706e-24)
(1.06996 -0.352132 0)
(1.06335 -0.342946 0)
(1.04168 -0.33167 7.74392e-25)
(0.996701 -0.315511 1.59941e-23)
(0.920756 -0.291558 0)
(0.81076 -0.257926 1.40061e-20)
(0.668522 -0.214409 -6.51615e-24)
(0.498751 -0.161943 1.3982e-23)
(0.308238 -0.101745 -7.0547e-24)
(0.105231 -0.0350247 -1.24807e-23)
(1.00084 0.0131094 -4.80632e-20)
(0.993639 0.0350651 1.30085e-21)
(0.968958 0.0476209 2.91969e-20)
(0.917268 0.0396349 -3.69572e-20)
(0.838657 -0.0136789 -8.2904e-22)
(0.778974 -0.146285 -6.52425e-20)
(0.811886 -0.334511 5.22175e-20)
(0.943484 -0.415637 -7.81971e-23)
(1.03741 -0.396719 -4.79008e-23)
(1.07103 -0.37608 -1.05912e-20)
(1.08058 -0.362924 -2.02696e-23)
(1.08031 -0.352859 0)
(1.07022 -0.34289 -7.68571e-21)
(1.04517 -0.330844 7.18514e-21)
(0.997282 -0.314056 -6.92874e-24)
(0.919271 -0.289716 -1.30277e-20)
(0.807989 -0.256013 5.9707e-24)
(0.664965 -0.212647 6.52072e-24)
(0.494941 -0.160442 -6.68286e-24)
(0.305093 -0.100651 7.07769e-24)
(0.103851 -0.0345999 -1.18542e-20)
(1.00105 0.0136018 2.35153e-20)
(0.996307 0.0394463 2.60739e-20)
(0.976269 0.0610202 -2.90177e-20)
(0.926784 0.0700916 1.2598e-22)
(0.835794 0.0418399 4.49064e-20)
(0.729918 -0.0748314 6.66451e-20)
(0.712582 -0.329111 -5.45876e-20)
(0.885608 -0.449664 -3.15691e-20)
(1.01788 -0.414427 7.77253e-23)
(1.06638 -0.386514 1.05471e-20)
(1.08419 -0.371688 -1.96815e-23)
(1.0905 -0.361131 0)
(1.08803 -0.351736 7.54269e-21)
(1.07535 -0.341821 6.57334e-25)
(1.04768 -0.329575 6.48147e-21)
(0.99739 -0.312481 0)
(0.917478 -0.28792 0)
(0.8049 -0.254176 1.17019e-20)
(0.661081 -0.210922 0)
(0.490917 -0.158949 0)
(0.30189 -0.0995614 1.24355e-20)
(0.102485 -0.0341777 5.47466e-24)
(1.00117 0.0135221 0)
(0.998879 0.0417079 -2.30167e-20)
(0.984709 0.0703308 -4.98022e-23)
(0.942472 0.0952136 -2.97154e-20)
(0.849707 0.0975491 -8.32546e-20)
(0.701291 0.0250569 -6.2581e-20)
(0.560689 -0.265322 -4.20044e-20)
(0.751106 -0.454129 3.83493e-20)
(0.939206 -0.406385 0)
(1.02351 -0.380914 3.45087e-23)
(1.06653 -0.37085 8.65954e-21)
(1.08839 -0.364386 0)
(1.09614 -0.357395 7.18597e-21)
(1.09305 -0.349554 -6.27438e-24)
(1.07896 -0.340242 -6.33251e-21)
(1.04939 -0.328105 0)
(0.997037 -0.310901 5.65536e-21)
(0.915364 -0.286194 -5.4172e-21)
(0.80151 -0.252405 5.45303e-24)
(0.656943 -0.209231 -1.07117e-20)
(0.486758 -0.157469 -5.08556e-24)
(0.298662 -0.0984819 -5.24262e-25)
(0.101151 -0.0337651 -4.56558e-24)
(1.00123 0.0129689 0)
(1.00111 0.0420206 2.32196e-20)
(0.993096 0.0752492 -9.25908e-23)
(0.961971 0.112385 2.90856e-20)
(0.880217 0.145188 7.14721e-20)
(0.708536 0.132517 5.7326e-20)
(0.530554 -0.0881384 3.70647e-20)
(0.497378 -0.00414582 9.34206e-22)
(0.537831 -0.465156 0)
(0.355664 -0.207824 7.39465e-20)
(0.383568 -0.38306 -3.67427e-22)
(0.808113 -0.384904 0)
(0.503286 -0.312229 -1.24068e-20)
(0.636182 -0.294798 0)
(0.875888 -0.328229 0)
(0.735938 -0.289357 0)
(0.989827 -0.342886 -9.11092e-21)
(1.05408 -0.35297 7.68104e-21)
(1.08593 -0.355249 -7.19661e-21)
(1.09762 -0.352579 3.04245e-24)
(1.09576 -0.346769 6.04169e-21)
(1.0813 -0.338379 1.66446e-23)
(1.05035 -0.326578 -5.44442e-21)
(0.996238 -0.309351 -5.17741e-21)
(0.912937 -0.284527 -4.98531e-21)
(0.797849 -0.250685 9.67042e-21)
(0.652608 -0.207572 0)
(0.482519 -0.156014 4.46874e-25)
(0.295462 -0.0974234 -5.40313e-24)
(0.09985 -0.0333623 -9.11854e-21)
(1.00123 0.0120523 -3.80219e-23)
(1.0029 0.0407076 0)
(1.00054 0.0761347 0)
(0.981948 0.120905 -1.97063e-22)
(0.920726 0.177032 -3.2667e-20)
(0.761673 0.228294 -3.98183e-22)
(0.490105 0.102165 0)
(0.515299 0.201901 -2.45275e-20)
(0.278736 -0.0773355 -3.7216e-20)
(0.288623 -0.320997 3.21639e-22)
(0.20192 -0.253125 -1.15218e-20)
(0.197764 -0.235767 8.65411e-21)
(0.168413 -0.155008 4.13153e-21)
(0.301682 -0.250381 -1.99693e-22)
(0.459726 -0.215124 3.65291e-23)
(0.256627 -0.107172 0)
(0.165291 -0.114197 -5.68446e-22)
(0.508529 -0.18795 -6.25742e-22)
(0.359416 -0.146103 -1.01287e-21)
(0.654197 -0.232625 0)
(0.791752 -0.26193 0)
(0.587383 -0.193887 -1.2416e-23)
(0.948006 -0.309677 -8.23689e-21)
(1.03442 -0.335122 0)
(1.07798 -0.345461 0)
(1.09582 -0.347112 -1.52931e-22)
(1.09658 -0.3436 0)
(1.08251 -0.336414 -1.07379e-23)
(1.05063 -0.32503 -1.01589e-23)
(0.995009 -0.307819 9.4541e-21)
(0.910196 -0.282904 4.55529e-21)
(0.793952 -0.249012 0)
(0.648136 -0.205953 0)
(0.478249 -0.154584 4.65844e-24)
(0.292299 -0.0963914 9.48691e-21)
(0.0985925 -0.0329716 8.37023e-21)
(1.00118 0.0108732 -3.58974e-23)
(1.00423 0.0381379 3.84237e-23)
(1.00658 0.0737656 0)
(0.999529 0.121814 0)
(0.96154 0.190661 1.88402e-22)
(0.849145 0.286322 7.05476e-22)
(0.558581 0.296742 2.34202e-20)
(0.622227 0.371614 -7.27474e-23)
(0.237037 0.0627568 0)
(0.344785 0.25524 8.25368e-23)
(0.318248 0.187225 0)
(0.0648212 -0.0946856 6.70691e-22)
(0.106856 -0.166782 7.84271e-21)
(0.116118 -0.157665 -3.80298e-21)
(0.0777071 -0.0979262 0)
(0.147985 -0.058758 8.1426e-22)
(0.084872 -0.0374802 -2.54676e-21)
(0.243889 -0.0761091 6.72556e-22)
(0.420977 -0.130959 0)
(0.288211 -0.0993513 9.54155e-22)
(0.540648 -0.166652 3.26293e-21)
(0.725511 -0.219514 -1.92732e-21)
(0.506662 -0.149016 0)
(0.36722 -0.108473 -1.10247e-23)
(0.906129 -0.283415 7.18339e-21)
(1.01039 -0.318576 -1.19642e-23)
(1.06634 -0.335453 -5.92763e-21)
(1.0915 -0.341256 4.65613e-24)
(1.09578 -0.340334 0)
(1.08273 -0.334385 9.02046e-24)
(1.05028 -0.32344 -4.55487e-21)
(0.993351 -0.306296 -4.31717e-21)
(0.90716 -0.281321 4.16427e-21)
(0.789868 -0.247385 3.80055e-24)
(0.643567 -0.204366 8.18992e-21)
(0.473986 -0.153191 0)
(0.2892 -0.0953881 -8.68231e-21)
(0.0973795 -0.0325943 -3.52229e-24)
(1.00111 0.00951555 0)
(1.00516 0.0346567 -1.80657e-20)
(1.01115 0.0690147 0)
(1.01333 0.116968 -1.83315e-20)
(0.997561 0.188887 -1.89253e-20)
(0.938489 0.303707 2.0871e-20)
(0.699466 0.432847 0)
(0.783339 0.461272 -7.14725e-22)
(0.318486 0.353248 2.21334e-20)
(0.425114 0.466249 -2.01515e-20)
(0.0418177 -0.0445482 0)
(0.031237 0.0099376 0)
(0.171064 0.154837 -1.16869e-20)
(0.193286 0.240599 1.14861e-20)
(0.0391229 -0.0783162 -1.4644e-20)
(0.105122 -0.0314076 5.37113e-22)
(0.214762 -0.0602971 1.37888e-23)
(0.0816146 -0.0223427 -4.00448e-23)
(0.199508 -0.0544714 8.85323e-22)
(0.33229 -0.0929584 -3.70663e-21)
(0.480358 -0.135913 -3.36654e-21)
(0.675045 -0.19497 -7.96443e-21)
(0.460804 -0.127247 2.03017e-22)
(0.307736 -0.084345 0)
(0.17513 -0.0472637 7.34608e-24)
(0.184978 -0.049829 -1.46541e-23)
(0.866047 -0.262587 -6.72758e-21)
(0.984473 -0.303322 1.28192e-23)
(1.05232 -0.325466 -1.01538e-23)
(1.08524 -0.335531 -7.99048e-25)
(1.09373 -0.337018 8.80426e-24)
(1.08209 -0.332257 -1.72556e-23)
(1.04932 -0.321807 4.13813e-21)
(0.991284 -0.304782 -3.94691e-21)
(0.903864 -0.279772 7.4402e-24)
(0.785627 -0.245795 -1.48535e-20)
(0.638947 -0.202821 7.49492e-21)
(0.469759 -0.151835 0)
(0.286175 -0.0944181 -3.78588e-24)
(0.0962185 -0.0322313 3.54121e-24)
(1.00102 0.00804489 0)
(1.00577 0.0305535 1.09684e-21)
(1.01439 0.0626318 0)
(1.02337 0.108274 1.85959e-20)
(1.02504 0.177189 3.4944e-20)
(1.00736 0.291036 -4.81147e-21)
(0.899505 0.546466 -5.33027e-21)
(0.561316 0.556629 0)
(0.694589 0.61113 1.01191e-20)
(0.0646045 0.19338 2.66682e-21)
(0.100787 0.25081 0)
(0.208026 0.350459 -1.24939e-21)
(0.149712 0.303755 -8.8236e-22)
(0.0310291 0.0711148 -3.71418e-22)
(0.0413921 0.132048 0)
(0.0696555 -0.017649 0)
(0.0645888 -0.0161835 -5.69809e-22)
(0.165013 -0.0433113 1.00162e-21)
(0.158947 -0.0415954 -7.61815e-24)
(0.290587 -0.0770219 3.79342e-21)
(0.443237 -0.120889 -3.30996e-24)
(0.63365 -0.178849 5.61963e-21)
(0.42911 -0.115857 -3.25972e-21)
(0.277978 -0.0729265 2.28222e-21)
(0.147407 -0.0383763 0)
(0.152064 -0.039528 -9.72441e-22)
(0.0566475 -0.0142449 -2.76367e-25)
(0.0601214 -0.0149782 2.75643e-25)
(0.828099 -0.24509 6.26692e-21)
(0.95785 -0.288984 -7.03044e-25)
(1.0369 -0.316404 -8.73149e-24)
(1.07783 -0.329979 -4.61417e-21)
(1.09066 -0.333606 -1.68823e-23)
(1.08063 -0.330043 -4.04234e-21)
(1.04778 -0.320142 3.88205e-24)
(0.988842 -0.303275 3.69017e-24)
(0.900337 -0.278253 1.039e-20)
(0.781268 -0.244246 1.16071e-22)
(0.634307 -0.201317 2.94275e-25)
(0.465586 -0.15052 3.2678e-24)
(0.283243 -0.093481 3.25192e-25)
(0.0951058 -0.0318821 0)
(1.00093 0.00651053 0)
(1.00613 0.0260561 2.55739e-20)
(1.01655 0.0551907 0)
(1.03031 0.0972723 0)
(1.0437 0.160415 -2.47291e-21)
(1.05299 0.261361 -1.53469e-20)
(1.05176 0.494194 6.92091e-21)
(0.770807 0.694212 -1.56377e-22)
(0.964035 0.747246 2.8234e-21)
(0.279147 0.473978 -3.5871e-21)
(0.435175 0.586004 7.27645e-21)
(0.657704 0.685433 0)
(0.551778 0.636129 -2.8792e-21)
(0.0533034 -0.013237 0)
(0.0513102 -0.0127673 5.91572e-25)
(0.142431 -0.0363393 -2.33241e-23)
(0.139646 -0.0355434 -1.0105e-21)
(0.267908 -0.0694469 -7.54179e-22)
(0.415019 -0.111701 4.95453e-23)
(0.595883 -0.165689 -6.97651e-21)
(0.40253 -0.107531 0)
(0.259281 -0.0671123 2.94629e-21)
(0.133961 -0.0339944 1.02239e-21)
(0.136222 -0.0346023 3.98159e-24)
(0.0474673 -0.0118528 2.43402e-24)
(0.0491758 -0.0122065 6.19835e-22)
(0.79106 -0.228775 -1.21178e-23)
(0.93172 -0.277041 -1.98298e-23)
(1.02144 -0.308128 4.77146e-21)
(1.06971 -0.324518 0)
(1.08671 -0.33014 8.08044e-24)
(1.07843 -0.327773 3.46381e-24)
(1.04572 -0.318451 0)
(0.986057 -0.301773 -3.29489e-21)
(0.896608 -0.276761 -3.12394e-21)
(0.776814 -0.242735 -6.27409e-21)
(0.62967 -0.199855 2.67242e-25)
(0.46149 -0.149243 -6.2709e-24)
(0.280401 -0.0925765 6.93681e-21)
(0.0940376 -0.0315452 -2.7291e-24)
(1.00083 0.00494913 0)
(1.00631 0.0213352 -8.31593e-21)
(1.01787 0.0471167 0)
(1.0348 0.0850111 1.3825e-20)
(1.05553 0.14139 -1.39963e-20)
(1.0813 0.227459 0)
(1.12349 0.407136 -1.15452e-20)
(1.18064 0.631273 -1.61842e-21)
(0.460503 0.474374 0)
(0.599122 0.478392 -5.87109e-21)
(0.382135 0.325503 4.53667e-21)
(0.809437 0.498397 -3.40784e-23)
(0.100227 0.201801 0)
(0.254517 0.348989 0)
(0.346102 0.372624 0)
(0.0458477 -0.0113319 -1.27629e-21)
(0.0449618 -0.0111141 5.33402e-24)
(0.13113 -0.0330837 1.01703e-21)
(0.129538 -0.0325772 1.02424e-21)
(0.251417 -0.0647561 2.15735e-21)
(0.388671 -0.103949 0)
(0.554118 -0.151065 1.53603e-21)
(0.374022 -0.0991441 0)
(0.243836 -0.0627913 -6.5849e-22)
(0.125658 -0.0316341 -9.99433e-22)
(0.127228 -0.0321298 2.00928e-21)
(0.0431665 -0.010672 0)
(0.0439597 -0.0108606 -3.13291e-25)
(0.756913 -0.216165 -4.39817e-23)
(0.90814 -0.266822 2.01632e-23)
(1.00642 -0.300415 0)
(1.06102 -0.319213 -3.69929e-24)
(1.082 -0.326673 -3.61053e-21)
(1.07558 -0.325469 -3.45766e-24)
(1.04318 -0.316737 3.18002e-21)
(0.982961 -0.300276 -3.01863e-21)
(0.892696 -0.275298 5.78611e-21)
(0.772284 -0.241262 -2.91386e-24)
(0.625051 -0.198431 2.91713e-24)
(0.45748 -0.148006 -5.77397e-21)
(0.277652 -0.0916992 2.92383e-24)
(0.0930082 -0.03122 5.48013e-21)
(1.00073 0.00338659 0)
(1.00635 0.0165142 1.47715e-23)
(1.01858 0.0387198 -1.22391e-23)
(1.03745 0.0721551 -1.40386e-20)
(1.06258 0.121558 0)
(1.09805 0.194954 0)
(1.15172 0.324535 6.9666e-21)
(1.32122 0.542761 3.07203e-24)
(0.825812 0.263687 0)
(1.17032 0.395035 6.58441e-23)
(0.187427 0.214564 1.81707e-22)
(0.209288 0.139509 0)
(0.612071 0.280811 5.57392e-23)
(0.237173 0.120842 5.68631e-21)
(0.0423105 -0.0104303 -6.48207e-22)
(0.0418154 -0.0102874 0)
(0.123482 -0.0310869 -9.6612e-25)
(0.122183 -0.0306174 1.0611e-23)
(0.23589 -0.0606357 -1.32875e-21)
(0.354055 -0.09385 -2.79944e-21)
(0.515732 -0.139775 0)
(0.328922 -0.0849339 -2.71086e-21)
(0.226238 -0.0582329 1.02837e-23)
(0.118884 -0.0298229 5.4976e-24)
(0.120268 -0.0303171 3.69841e-24)
(0.0406015 -0.0100015 0)
(0.0411668 -0.0101546 -6.39183e-22)
(0.729266 -0.205993 4.50489e-23)
(0.887142 -0.257824 1.73371e-23)
(0.991843 -0.293286 3.79131e-24)
(1.05192 -0.314106 3.67434e-21)
(1.07666 -0.323233 0)
(1.07216 -0.323138 -3.11604e-21)
(1.04021 -0.315004 0)
(0.979575 -0.298788 2.83177e-24)
(0.888618 -0.273866 2.72751e-24)
(0.767704 -0.239826 5.29032e-21)
(0.620483 -0.197044 -2.45407e-24)
(0.453561 -0.146796 0)
(0.274986 -0.0908496 -5.62317e-21)
(0.0920222 -0.0309068 4.9343e-21)
(1.00063 0.00184145 0)
(1.00631 0.0116803 0)
(1.01885 0.0302152 -1.44415e-23)
(1.03874 0.0591263 2.63158e-23)
(1.06631 0.101788 4.91109e-21)
(1.10663 0.164312 0)
(1.16354 0.259453 -2.6637e-21)
(1.33687 0.432013 0)
(1.35111 0.35006 -5.13416e-20)
(0.196878 0.0520194 4.86894e-21)
(0.659703 0.167344 0)
(0.313082 0.0780584 0)
(0.901721 0.166802 3.5091e-20)
(0.0399589 -0.00984255 -6.24296e-22)
(0.0395301 -0.00970955 6.18402e-22)
(0.116928 -0.0294251 4.71014e-24)
(0.115427 -0.028894 1.81923e-21)
(0.210803 -0.0543393 2.13629e-21)
(0.305778 -0.0799319 0)
(0.491175 -0.131569 0)
(0.294252 -0.0765991 0)
(0.176306 -0.0438152 0)
(0.110511 -0.0277889 1.74436e-21)
(0.113265 -0.0286136 -3.72355e-24)
(0.0385072 -0.0094659 6.00027e-22)
(0.0389953 -0.00961088 -5.88319e-25)
(0.706683 -0.197692 1.94672e-23)
(0.868076 -0.249902 -1.75795e-23)
(0.977682 -0.286692 -3.82158e-24)
(1.04252 -0.309203 3.33639e-21)
(1.07079 -0.319828 0)
(1.06822 -0.320785 -2.67893e-24)
(1.03684 -0.313262 0)
(0.975923 -0.29732 -4.78734e-24)
(0.884403 -0.272463 -4.86459e-21)
(0.763101 -0.238416 -2.00172e-25)
(0.615957 -0.195677 2.02094e-25)
(0.449732 -0.145616 5.0313e-21)
(0.272408 -0.0900258 0)
(0.0910808 -0.0306068 -2.12025e-24)
(1.00055 0.000327016 0)
(1.00619 0.00689389 -7.53487e-21)
(1.01882 0.0217459 0)
(1.03911 0.0461921 1.03868e-23)
(1.06779 0.082588 -4.99978e-21)
(1.10965 0.135396 -2.85262e-21)
(1.16827 0.20863 -6.41038e-22)
(1.30899 0.332984 -3.08945e-23)
(1.48621 0.340831 3.66075e-20)
(1.03884 0.0993546 2.72077e-20)
(0.461381 0.0515721 4.70981e-22)
(0.179341 0.0101676 -1.07283e-20)
(0.605952 0.0139946 2.59844e-20)
(0.0379456 -0.00934252 3.33813e-24)
(0.0374589 -0.00919583 -1.15885e-21)
(0.105384 -0.0270097 -8.44975e-22)
(0.0969991 -0.0232603 4.2216e-22)
(0.15165 -0.0386736 6.03329e-22)
(0.286132 -0.0740874 0)
(0.473571 -0.126015 -1.46597e-21)
(0.280721 -0.0721081 0)
(0.144966 -0.0364876 -5.57888e-22)
(0.0431307 -0.01169 -1.80797e-22)
(0.0651533 -0.0121021 -2.65687e-22)
(0.0359862 -0.00886912 -5.5764e-22)
(0.0368467 -0.00909844 -5.70211e-22)
(0.687286 -0.190757 -4.84506e-21)
(0.85051 -0.242825 0)
(0.963865 -0.280559 -3.50721e-21)
(1.03287 -0.304481 0)
(1.06446 -0.316445 0)
(1.06383 -0.318425 2.67366e-24)
(1.03309 -0.311534 0)
(0.972032 -0.295877 9.18026e-24)
(0.880072 -0.271074 0)
(0.758474 -0.237016 -2.25089e-24)
(0.611492 -0.194332 -4.3517e-21)
(0.445999 -0.144464 2.32305e-24)
(0.269926 -0.0892302 0)
(0.0901668 -0.0303154 2.12984e-24)
(1.00046 -0.00114602 0)
(1.00603 0.00219729 1.51983e-20)
(1.01857 0.0134013 -6.81472e-21)
(1.03887 0.0335065 0)
(1.0678 0.0641675 -1.69148e-23)
(1.10935 0.108388 2.91602e-21)
(1.16796 0.166928 6.71683e-22)
(1.27816 0.255023 6.6579e-21)
(1.47488 0.290759 3.33285e-23)
(1.41872 0.163772 -9.48788e-20)
(0.674773 -0.0333854 -9.40942e-20)
(0.370377 -0.0178363 3.97538e-20)
(0.317699 -0.0143434 0)
(0.0974002 -0.0164135 1.00904e-20)
(0.231755 -0.0240272 1.46038e-20)
(0.034026 -0.00867876 9.65185e-24)
(0.0315219 -0.00826356 0)
(0.0375878 -0.00956952 -4.93992e-22)
(0.0350286 -0.00889071 -6.12271e-22)
(0.14132 -0.0354012 -6.06916e-22)
(0.275223 -0.0709664 2.50886e-21)
(0.459061 -0.121778 5.4871e-21)
(0.271296 -0.0696054 0)
(0.138532 -0.0346165 5.61639e-22)
(0.0339401 -0.00831617 0)
(0.0342982 -0.00854751 5.80671e-22)
(0.018147 -0.00320518 9.79683e-23)
(0.670173 -0.184666 0)
(0.833989 -0.236398 -7.04285e-24)
(0.950253 -0.274801 0)
(1.02297 -0.299879 0)
(1.05771 -0.313087 0)
(1.059 -0.316092 2.41772e-21)
(1.02902 -0.309841 2.28175e-21)
(0.967935 -0.294442 -4.39477e-24)
(0.875638 -0.269683 0)
(0.753837 -0.23562 1.90081e-24)
(0.607089 -0.193006 4.12318e-21)
(0.442364 -0.143337 0)
(0.267513 -0.0884579 -2.08276e-24)
(0.0892942 -0.0300363 1.79395e-24)
(1.00039 -0.00256787 7.87947e-21)
(1.00584 -0.00237828 -7.66795e-21)
(1.01818 0.00523639 6.92701e-21)
(1.03824 0.0211474 -5.70369e-21)
(1.06689 0.0465615 0)
(1.10726 0.0833493 6.6072e-24)
(1.16395 0.131143 0)
(1.25461 0.195412 -1.02151e-20)
(1.41807 0.233626 -1.25401e-23)
(1.532 0.173707 8.02467e-21)
(1.20354 0.0312037 5.47732e-20)
(0.481775 -0.0737836 -8.00946e-20)
(0.193248 -0.0282393 5.0311e-20)
(0.234541 -0.0473704 -2.05678e-20)
(0.117556 -0.00990111 0)
(0.158946 -0.0225332 1.47451e-23)
(0.0613197 -0.013449 3.94997e-23)
(0.0335123 -0.00828359 5.52997e-22)
(0.0333261 -0.00815675 -5.43858e-22)
(0.136092 -0.0340587 5.39662e-22)
(0.266676 -0.0687881 -2.31414e-21)
(0.446906 -0.117652 1.22017e-21)
(0.263206 -0.067709 -1.69159e-23)
(0.134019 -0.0334987 5.37346e-22)
(0.0328042 -0.00801955 -5.26126e-22)
(0.032929 -0.00812843 -2.0697e-24)
(0.6544 -0.179256 -4.20775e-21)
(0.818064 -0.230466 7.09943e-24)
(0.936683 -0.269262 -2.79145e-24)
(1.01279 -0.295344 0)
(1.05057 -0.309803 -2.41916e-21)
(1.05382 -0.313845 -2.24073e-21)
(1.02469 -0.308168 -3.93994e-24)
(0.963657 -0.29299 -3.7219e-24)
(0.871112 -0.268276 1.78625e-24)
(0.749208 -0.23423 -3.67795e-21)
(0.602752 -0.191696 -3.79134e-21)
(0.438822 -0.142242 1.80292e-24)
(0.26519 -0.0877124 1.71998e-25)
(0.0884565 -0.0297667 -3.45201e-24)
(1.00032 -0.00392796 -7.9443e-21)
(1.0056 -0.00680523 0)
(1.01767 -0.00271349 7.89507e-25)
(1.03736 0.00914495 3.61444e-23)
(1.06546 0.0297219 3.22526e-24)
(1.1043 0.0601213 0)
(1.15791 0.0995219 1.55638e-24)
(1.23645 0.148594 3.06297e-22)
(1.36356 0.182166 7.44381e-21)
(1.51206 0.156023 5.89135e-20)
(1.46748 0.0667825 0)
(0.997363 -0.0437803 5.79076e-20)
(0.400367 -0.0724981 -2.06683e-20)
(0.182572 -0.0369175 -2.71343e-22)
(0.170479 -0.0457091 4.78256e-21)
(0.0628358 -0.00902496 -1.98746e-22)
(0.0668488 -0.0146021 -1.24349e-20)
(0.077667 -0.0152874 1.30615e-20)
(0.082267 -0.0233237 1.33365e-20)
(0.0228036 -0.00481675 0)
(0.0371449 -0.00980481 -9.50114e-21)
(0.0324144 -0.00800505 -5.15547e-22)
(0.0322988 -0.00790432 -5.06821e-22)
(0.131902 -0.033053 1.5318e-21)
(0.259616 -0.067294 -2.18928e-21)
(0.435432 -0.114243 5.95079e-21)
(0.257587 -0.0656849 -1.85497e-21)
(0.129778 -0.0325894 0)
(0.0318374 -0.0077838 1.92984e-24)
(0.0319428 -0.00788779 -9.97017e-22)
(0.639283 -0.174269 -3.96584e-21)
(0.80231 -0.224778 -3.21473e-21)
(0.922945 -0.263766 2.79917e-24)
(1.00237 -0.290933 -4.64884e-24)
(1.04315 -0.306714 -3.20474e-25)
(1.04839 -0.311663 2.07341e-21)
(1.02013 -0.306476 3.93487e-24)
(0.959208 -0.291508 3.71711e-24)
(0.866513 -0.266856 1.76678e-21)
(0.744586 -0.232842 3.37914e-21)
(0.598497 -0.19041 0)
(0.435387 -0.141174 -1.80489e-24)
(0.262942 -0.0869897 1.91864e-24)
(0.0876518 -0.0295085 -3.32966e-21)
(1.00025 -0.00521277 0)
(1.00533 -0.0110545 2.01401e-24)
(1.01706 -0.010421 0)
(1.03631 -0.00250083 5.86542e-21)
(1.06375 0.0135661 4.26652e-21)
(1.10103 0.03843 -4.24678e-24)
(1.15124 0.0710648 0)
(1.22098 0.110021 3.15392e-21)
(1.3226 0.138906 -1.44865e-20)
(1.45367 0.128307 -2.75245e-20)
(1.53125 0.0739871 6.54695e-23)
(1.3502 -0.0112128 0)
(0.846057 -0.0817291 -1.22001e-22)
(0.355866 -0.0665277 -8.13791e-20)
(0.170049 -0.0309762 -5.65711e-22)
(0.174905 -0.0402073 3.26728e-20)
(0.0911582 -0.0192226 -1.57377e-22)
(0.0869704 -0.020894 0)
(0.0752369 -0.0175572 -5.71707e-21)
(0.0616828 -0.0204462 0)
(0.0110763 -0.00226095 8.16422e-21)
(0.0134855 -0.00392364 0)
(0.0169256 -0.00431957 -6.47075e-23)
(0.0145279 -0.00638283 -8.30563e-21)
(0.0314707 -0.00777702 4.78212e-22)
(0.0313566 -0.00767674 -4.7179e-22)
(0.127873 -0.0323358 2.30803e-21)
(0.252939 -0.0644509 -4.5077e-22)
(0.424631 -0.111179 5.53204e-21)
(0.250293 -0.0635342 -2.20926e-21)
(0.157863 -0.0419667 0)
(0.158057 -0.0408309 5.65867e-22)
(0.0308388 -0.00757125 -1.76949e-24)
(0.0309794 -0.00765823 -4.61649e-22)
(0.624094 -0.169415 3.69883e-21)
(0.786094 -0.218988 0)
(0.909012 -0.258325 0)
(0.991871 -0.286901 4.65971e-24)
(1.03567 -0.30379 -2.09304e-21)
(1.04279 -0.309487 1.9195e-21)
(1.01536 -0.304751 0)
(0.954607 -0.289998 -1.66377e-21)
(0.861859 -0.265425 0)
(0.740002 -0.231462 0)
(0.594334 -0.189146 0)
(0.432049 -0.140135 -3.32134e-21)
(0.260771 -0.0862921 3.36989e-21)
(0.0868766 -0.0292605 -2.92081e-24)
(1.00019 -0.00640534 0)
(1.005 -0.0150904 -3.98833e-24)
(1.01633 -0.0178559 3.39942e-24)
(1.03512 -0.0138007 0)
(1.06192 -0.00201148 -8.79973e-21)
(1.09777 0.0179731 2.39136e-21)
(1.1448 0.0450609 1.08342e-24)
(1.20735 0.0769042 0)
(1.29237 0.102274 6.95358e-21)
(1.3991 0.0998566 -1.17218e-23)
(1.50185 0.0656202 0)
(1.49829 0.00622637 -1.37537e-22)
(1.2287 -0.0647983 -4.31937e-20)
(0.742718 -0.0969106 6.20132e-20)
(0.334979 -0.0643033 -9.64578e-20)
(0.156985 -0.0294943 3.39231e-20)
(0.157792 -0.035263 -1.32696e-22)
(0.0620127 -0.0132552 -6.95042e-21)
(0.0898756 -0.020713 -1.032e-20)
(0.0897516 -0.0227034 1.01469e-20)
(0.0435092 -0.0101506 -1.3607e-22)
(0.0413601 -0.00931106 0)
(0.0250938 -0.00337814 3.91261e-21)
(0.0120237 -0.0040933 -8.64598e-21)
(0.030517 -0.00754585 -4.51661e-22)
(0.0302939 -0.00756606 -4.41557e-22)
(0.09364 -0.0252218 -6.10409e-22)
(0.156929 -0.0397781 5.74465e-22)
(0.156405 -0.0392644 0)
(0.247174 -0.0630615 3.36807e-24)
(0.413522 -0.108053 -9.80455e-22)
(0.244618 -0.0621737 -1.64561e-21)
(0.155565 -0.0390437 5.57644e-22)
(0.154906 -0.0387849 5.53432e-22)
(0.0937927 -0.0241308 -1.01534e-21)
(0.607578 -0.164247 0)
(0.769197 -0.212778 0)
(0.895266 -0.253542 0)
(0.9817 -0.283194 8.09519e-24)
(1.0282 -0.300937 -1.92939e-21)
(1.037 -0.307303 0)
(1.01039 -0.303 0)
(0.949889 -0.288467 0)
(0.857177 -0.263985 0)
(0.735468 -0.230093 0)
(0.59026 -0.187907 5.8207e-21)
(0.428803 -0.139125 -1.4063e-24)
(0.258673 -0.0856208 -3.2619e-21)
(0.0861348 -0.0290215 2.8283e-21)
(1.00013 -0.00748302 4.43699e-24)
(1.00459 -0.0188642 8.41919e-24)
(1.01544 -0.0249765 3.98821e-24)
(1.03376 -0.0247601 -3.37489e-24)
(1.06001 -0.0171164 9.25247e-21)
(1.09471 -0.00155068 -5.02036e-21)
(1.13903 0.0209082 0)
(1.19566 0.0475662 0)
(1.2689 0.0702817 -5.57619e-21)
(1.35731 0.0733243 0)
(1.45038 0.0511578 -1.2402e-20)
(1.51444 0.0101325 0)
(1.43973 -0.046844 3.84593e-20)
(1.12177 -0.0973255 -8.76635e-23)
(0.67432 -0.101558 6.17482e-20)
(0.32023 -0.0629018 -3.70432e-20)
(0.161496 -0.0319219 -7.21943e-22)
(0.157579 -0.0350937 6.33545e-20)
(0.0583721 -0.0133447 -2.94006e-20)
(0.0569268 -0.0135801 7.17832e-21)
(0.0112547 -0.00240202 6.54093e-21)
(0.045025 -0.0113453 -1.64416e-22)
(0.0113937 -0.0035367 0)
(0.0447623 -0.0116021 -8.57653e-21)
(0.0106617 -0.00303074 -6.12587e-21)
(0.0107791 -0.00306487 -6.05852e-21)
(0.00642148 -0.000864699 4.66516e-21)
(0.0305767 -0.00794295 4.27465e-22)
(0.092149 -0.0231701 1.97365e-24)
(0.0915743 -0.0227856 -5.04682e-22)
(0.153971 -0.038707 5.39974e-22)
(0.153306 -0.0384934 5.29178e-22)
(0.241458 -0.0615934 0)
(0.40001 -0.1044 -1.02374e-21)
(0.238389 -0.0605169 1.52511e-21)
(0.152387 -0.0383349 5.03072e-25)
(0.15165 -0.038044 -5.03827e-25)
(0.0911346 -0.0226374 -9.89906e-22)
(0.0907484 -0.0225144 -4.93536e-22)
(0.0305462 -0.00767922 3.76659e-22)
(0.588201 -0.157573 0)
(0.752654 -0.207627 0)
(0.882536 -0.249291 8.60746e-24)
(0.971971 -0.279657 1.98205e-21)
(1.02074 -0.298139 0)
(1.03106 -0.305122 3.05846e-24)
(1.00526 -0.301229 0)
(0.945081 -0.286914 1.4352e-21)
(0.85249 -0.26254 -1.38361e-21)
(0.730996 -0.228739 -2.63611e-21)
(0.586282 -0.186697 2.73452e-21)
(0.425651 -0.138146 2.69505e-21)
(0.25665 -0.0849716 -2.84448e-21)
(0.0854165 -0.0287896 -2.36118e-24)
(1.00007 -0.00841615 0)