/*--------------------------------*- C++ -*----------------------------------*\
| =========                 |                                                 |
| \\      /  F ield         | OpenFOAM: The Open Source CFD Toolbox           |
|  \\    /   O peration     | Version:  v1912                                 |
|   \\  /    A nd           | Website:  www.openfoam.com                      |
|    \\/     M anipulation  |                                                 |
\*---------------------------------------------------------------------------*/
FoamFile
{
    version     2.0;
    format      ascii;
    class       surfaceScalarField;
    location    "270";
    object      phi;
}
// * * * * * * * * * * * * * * * * * * * * * * * * * * * * * * * * * * * * * //

dimensions      [0 3 -1 0 0 0 0];
oriented        oriented;


internalField   nonuniform List<scalar> 
7200
(
-8.4387e-05
0.0100461
-0.000172535
0.0100534
2.44939e-05
0.010021
-0.000267793
0.0100665
3.70626e-05
0.0100408
0.000172704
0.00984742
-0.000372151
0.0100837
2.64084e-05
0.0100771
0.000317599
0.00989592
0.000405991
0.0094401
-0.000486417
0.0101023
-1.37903e-05
0.0101239
0.000411733
0.00998298
0.00075014
0.00955178
0.00083131
0.00860697
-0.000610355
0.0101201
-8.57303e-05
0.0101742
0.000443293
0.0100923
0.000988192
0.00974493
0.00150219
0.0088809
0.00167817
0.00342056
0.00350577
-0.000742729
0.0101356
-0.000187717
0.0102221
0.000411026
0.0102065
0.00110033
0.00998016
0.00193706
0.00931005
0.00287001
0.0037433
0.00394576
0.000812704
0.00260638
0.00152825
0.00279023
-0.000882479
0.0101483
-0.000316705
0.0102646
0.000320599
0.0103125
0.00109318
0.0102136
0.00211337
0.00980384
0.00359914
0.00858092
0.00215755
0.003114
0.00265787
0.00344544
0.00123556
0.000675054
0.000694123
0.00232389
0.000921749
0.000780151
-0.00102823
0.010158
-0.00046797
0.0102996
0.000181444
0.0104037
0.000988075
0.0104177
0.0020766
0.0102504
0.00372875
0.00967424
-0.00363961
0.00705597
0.00363452
0.00418791
0.00307215
0.00113743
0.00122831
0.00287798
0.000396303
0.000278077
0.000790835
0.000299592
-0.00119493
0.00150947
0.000607209
0.000376051
-0.00117904
0.0101653
-0.000637654
0.0103277
2.89683e-06
0.0104782
0.000808182
0.0105836
0.00189258
0.0106017
0.00350339
0.0104758
0.00651348
0.0102167
0.00573558
-0.00518363
0.00169704
0.00138552
0.00559682
0.00432667
0.00183227
0.000814639
0.00208788
0.000972691
-0.00210232
0.00104625
0.000838313
0.000277765
0.000577357
-0.000953408
0.00156062
-0.00133266
0.0101691
-0.000821567
0.0103492
-0.000205913
0.0105365
0.000573263
0.0107131
0.0016118
0.0108644
0.00310429
0.0110008
0.00558321
0.011406
-0.00535043
0.00994286
0.005277
0.00594412
-0.00260718
0.00278089
0.00152334
-0.00218738
0.00096572
-0.00210085
0.00211438
0.00174361
0.00173975
0.000635502
0.00061012
-0.00208393
0.000942799
-0.00124562
-0.001491
0.0101733
-0.00101765
0.0103652
-0.000437609
0.0105809
0.000298692
0.0108111
0.00126891
0.011056
0.00261676
0.0113519
0.0046234
0.0119606
0.00806939
0.0132795
0.0044102
-0.001987
0.00438723
-0.00153343
0.0044428
0.00591152
-0.00190852
0.00133101
-0.000942799
-0.00165985
0.00178723
-0.00133101
0.00141476
0.000635502
-0.00165092
0.0101749
-0.00122202
0.0103777
-0.000687457
0.0106151
-4.36154e-06
0.010884
0.00088775
0.0111923
0.00208843
0.0115843
0.00373957
0.0122358
0.00629198
0.013738
-0.00314596
0.0072073
0.0136609
0.00247721
0.00315555
-0.000540759
-0.000704767
-0.000977786
0.00123159
0.00524277
0.000436976
-0.0018119
0.010175
-0.00143269
0.0103856
-0.000949069
0.0106393
-0.000326278
0.010937
0.000483248
0.0112885
0.00154579
0.0117349
0.00293058
0.0123933
0.00482803
0.0136997
0.00600366
0.0149416
-0.00187896
0.00440129
0.0123622
-0.00122358
0.00111075
-0.000140891
0.00226387
-7.81819e-05
-0.000963797
0.000423038
-0.000436976
0.00447456
-0.00197556
0.0101767
-0.00165015
0.0103924
-0.00122227
0.0106588
-0.000661616
0.0109747
6.59758e-05
0.0113542
0.00100427
0.01183
0.00218177
0.0124837
0.00365167
0.0135697
0.00474403
0.0149593
0.00435747
0.0149854
0.00231184
0.0107528
-0.000238919
-0.000463498
-0.000504991
0.00375597
0.000282146
0.00179511
-1.01506e-05
-2.60764e-05
0.000203964
-0.00213959
0.010177
-0.00187131
0.0103978
-0.00150277
0.0106729
-0.0010078
0.011005
-0.000360383
0.011401
0.000467053
0.0118915
0.00148208
0.0125297
0.00267314
0.0134622
0.00363574
0.0146779
0.00373651
0.0155803
0.00289216
0.0144051
0.00121784
0.00966869
-0.000104954
-2.88044e-05
-0.00333774
0.00302204
7.67852e-05
-4.52721e-05
0.00165015
2.32682e-05
7.64208e-05
-0.000177888
0.000167737
-0.00230579
0.0101772
-0.00209633
0.0104021
-0.00179005
0.0106851
-0.00136146
0.0110266
-0.000791709
0.0114363
-6.28966e-05
0.011931
0.000821372
0.0125522
0.00182326
0.0133796
0.00268227
0.0144157
0.00298732
0.0154271
0.00274444
0.015728
0.00191237
0.0137106
0.000757356
0.00906266
-9.98134e-05
-5.15101e-05
-0.00293033
0.00283681
-1.14344e-05
6.29041e-05
0.00155417
7.4495e-05
9.82659e-05
0.000191006
0.000267426
-0.00247194
0.0101772
-0.00232457
0.0104054
-0.00208207
0.0106941
-0.00172244
0.0110461
-0.00122837
0.0114633
-0.000585903
0.0119593
0.000192322
0.01256
0.00106162
0.0133138
0.00184357
0.0142183
0.00225629
0.0151467
0.00229167
0.0158799
0.00201161
0.0156288
0.00132095
0.013147
0.000538152
0.00867053
-8.19119e-05
-6.41156e-05
-0.00279341
0.00272225
-2.86522e-05
-8.10486e-06
-0.00157829
0.00157353
-8.06094e-06
1.39486e-06
3.63613e-05
2.42005e-06
-0.000299523
0.000345925
2.80925e-05
6.61698e-05
-0.00263986
0.0101769
-0.00255547
0.0104081
-0.00238017
0.0107035
-0.00209131
0.0110629
-0.00166966
0.0114874
-0.00110779
0.0119852
-0.000417189
0.0125688
0.000356702
0.0132649
0.00108335
0.014074
0.00156321
0.0149113
0.00175614
0.0156823
0.00175331
0.0161382
0.0014982
0.0154515
0.000971711
0.0127134
0.000408018
0.00839087
-6.52322e-05
-6.3123e-05
-0.00267832
0.00262454
-2.81369e-05
-2.01866e-05
-0.00156684
0.00154461
-4.37764e-06
-2.04e-06
1.00747e-06
-2.43175e-06
-0.000376769
0.00037074
-2.03273e-06
-0.000375275
-9.9175e-08
0.000373413
8.87328e-06
5.58308e-07
-6.61698e-05
9.42622e-05
-0.00280732
0.0101765
-0.00278742
0.0104089
-0.00268067
0.0107086
-0.00246493
0.0110772
-0.00211799
0.0115113
-0.00163055
0.0120101
-0.0010137
0.0125817
-0.000309553
0.0132351
0.000378697
0.0139696
0.000906193
0.014731
0.00121261
0.0154549
0.00135635
0.0160792
0.00135483
0.0162816
0.00115651
0.0152667
0.000748583
0.0123729
0.000315777
0.00818679
-5.1734e-05
-5.99711e-05
-0.00258394
0.00254415
-2.54424e-05
-2.25269e-05
-0.00152786
0.00150579
-3.43857e-06
-2.623e-06
-1.17666e-06
-2.2632e-06
-0.000366811
0.00036344
-1.00631e-06
-0.000368588
-2.62799e-07
0.00037102
7.27666e-07
2.82429e-10
-0.000103595
0.000101562
-0.000103694
0.000103136
-0.002975
0.0101767
-0.00302167
0.0104107
-0.00298694
0.0107151
-0.00284651
0.0110901
-0.00257507
0.0115342
-0.00216099
0.0120417
-0.00160829
0.0126047
-0.000955896
0.013228
-0.000290775
0.0139045
0.000273914
0.0146019
0.00066903
0.0152746
0.000918489
0.0158927
0.00105659
0.0163775
0.00107597
0.0163621
0.000925966
0.0150893
0.000585544
0.0121031
0.000228118
0.00804534
-3.22714e-05
-5.43947e-05
-0.00250696
0.00247839
-2.31707e-05
-2.27723e-05
-0.00148757
0.00146788
-2.98331e-06
-2.77398e-06
-1.99327e-06
-2.31205e-06
-0.000357941
0.00035534
-8.37336e-07
-0.000360135
-4.29306e-07
0.00036218
8.32097e-08
-2.18642e-07
-0.000102027
0.000101021
-0.00010229
0.00010229
-0.00314248
0.0101755
-0.00325509
0.0104101
-0.00329384
0.0107176
-0.00323389
0.0111025
-0.0030429
0.011558
-0.00270204
0.0120753
-0.00220774
0.0126412
-0.00159527
0.0132441
-0.000938717
0.0138759
-0.000338884
0.0145173
0.000132014
0.0151389
0.000469841
0.0157233
0.000700199
0.0162491
0.000843202
0.0166102
0.000886399
0.0164017
0.000755013
0.0149199
0.000445973
0.0118853
0.000109571
0.00795216
1.70702e-05
-3.34631e-05
-0.0024453
0.00243058
-1.7557e-05
-2.13004e-05
-0.00145004
0.00143272
-2.79988e-06
-3.05222e-06
-2.51756e-06
-2.4173e-06
-0.00034933
0.000347108
-7.61825e-07
-0.000351617
-4.87209e-07
0.000353566
-2.19387e-07
-3.62634e-07
-0.000100456
9.96186e-05
-0.000100885
0.000101104
-0.00331012
0.0101756
-0.00348813
0.0104085
-0.0036027
0.010719
-0.00362847
0.0111122
-0.00352214
0.0115818
-0.00326021
0.0121161
-0.00282224
0.0126898
-0.00224108
0.013287
-0.00158329
0.0138887
-0.000945183
0.0144822
-0.000403621
0.015053
1.50491e-05
0.0155937
0.000327324
0.0160961
0.000549318
0.016543
0.000702094
0.0167945
0.00075025
0.0164065
0.000613684
0.0147521
0.000307312
0.0116875
-5.33639e-05
0.00782797
0.000135265
4.22944e-05
-0.00240872
0.00242001
5.78434e-06
-1.16024e-05
-0.00141679
0.00140488
-2.34398e-06
-3.30548e-06
-2.97827e-06
-2.38905e-06
-0.000340591
0.00033855
-7.58437e-07
-0.000343064
-5.79521e-07
0.000345011
-4.20382e-07
-4.70291e-07
-9.85494e-05
9.77875e-05
-9.90366e-05
9.93992e-05
-0.00347506
0.0101729
-0.00371652
0.010404
-0.00390978
0.0107156
-0.00402541
0.0111159
-0.00401523
0.0116053
-0.00384107
0.0121626
-0.00346138
0.0127553
-0.00290661
0.0133553
-0.00223584
0.0139395
-0.00154931
0.0144928
-0.000937293
0.0150159
-0.000441013
0.015509
-5.51205e-05
0.0159761
0.000233538
0.0164119
0.000456547
0.0167886
0.000611383
0.0169334
0.000644331
0.0163758
0.000490444
0.014569
0.000177195
0.011457
-0.000139755
0.00761991
0.000174442
0.000173373
-0.0024229
0.00244639
0.000111769
3.94061e-05
-0.00139799
0.00140636
4.59898e-07
-3.03868e-06
-3.23266e-06
-1.47816e-06
-0.000331634
0.00033003
-7.39455e-07
-0.000334296
-6.44239e-07
0.000336136
-5.64349e-07
-5.48806e-07
-9.63173e-05
9.55589e-05
-9.68968e-05
9.73671e-05
-0.00363713
0.0101691
-0.00393911
0.0103955
-0.00420989
0.0107041
-0.0044235
0.0111137
-0.00452324
0.0116239
-0.00444991
0.0122141
-0.00413541
0.0128367
-0.00360787
0.0134565
-0.0029116
0.0140311
-0.00216305
0.0145533
-0.00147424
0.0150297
-0.000901477
0.0154764
-0.000443419
0.0158973
-8.96439e-05
0.0162993
0.000188887
0.0166796
0.000405192
0.0169948
0.000548863
0.0170289
0.000560194
0.0163061
0.000394108
0.0143521
0.000121693
0.0111955
-2.56842e-05
0.0075087
2.30607e-05
0.000113833
-0.00243724
0.00243508
0.00017661
0.000182523
-0.00143633
0.00148325
4.7236e-05
1.76165e-05
-1.64767e-07
9.59343e-06
-0.000324011
0.000324845
-3.74791e-07
-0.000326456
-5.92768e-07
0.000327429
-6.32146e-07
-5.05366e-07
-9.38015e-05
9.3062e-05
-9.44457e-05
9.49945e-05
-0.00379579
0.0101637
-0.00415166
0.0103816
-0.00449903
0.0106847
-0.00481814
0.0110988
-0.00504151
0.0116319
-0.00509011
0.0122641
-0.0048552
0.0129339
-0.0043606
0.0135894
-0.00362186
0.0141668
-0.00279321
0.0146612
-0.00201873
0.0150977
-0.00136413
0.0154924
-0.000833044
0.015866
-0.000416887
0.0162246
-8.81352e-05
0.0165763
0.000174074
0.0169107
0.000381721
0.0171619
0.000507994
0.0170811
0.000501964
0.0161982
0.000355065
0.0141187
0.000178058
0.0109918
0.000129381
0.00743152
-4.93806e-05
-2.8294e-06
-0.0024582
0.00245655
2.47062e-05
9.0708e-05
-0.00149667
0.00152325
5.37831e-05
9.62557e-05
7.40208e-05
9.50757e-05
-0.000342917
0.000367929
2.22247e-05
-0.000332289
6.98833e-06
0.000324602
7.87519e-08
1.90584e-06
-9.13317e-05
9.09569e-05
-9.19245e-05
9.24298e-05
-0.0039491
0.0101553
-0.00434764
0.0103596
-0.00476783
0.0106504
-0.00519747
0.011064
-0.00556618
0.0116235
-0.00576318
0.012305
-0.00563178
0.0130407
-0.00518461
0.0137579
-0.00438843
0.014356
-0.00345293
0.0148265
-0.00257331
0.0152158
-0.00182985
0.0155635
-0.00122536
0.0158847
-0.000746799
0.0161959
-0.00036705
0.0165035
-6.19497e-05
0.0168124
0.000184676
0.0171077
0.000376001
0.0172939
0.000487345
0.0170957
0.000483877
0.0160694
0.000381029
0.0139158
0.000282299
0.0108388
0.000221575
0.00732264
-6.57171e-05
-4.69757e-05
-0.00245915
0.00243483
-2.50623e-05
-5.42442e-06
-0.00156835
0.0015888
-3.53861e-06
7.79447e-06
3.55715e-05
1.00372e-05
-0.000444745
0.000464728
3.38002e-05
-0.000413376
6.48861e-05
0.000390538
5.14114e-05
7.22378e-05
-9.99298e-05
0.000122154
-9.29415e-05
9.10357e-05
-0.00409379
0.0101417
-0.00452128
0.010329
-0.00500726
0.0105991
-0.00555238
0.0110053
-0.00608747
0.0115853
-0.00646579
0.0123261
-0.00647841
0.0131516
-0.00611105
0.0139671
-0.0052303
0.0145998
-0.00414901
0.0150521
-0.00314261
0.0153958
-0.00230019
0.0156862
-0.0016192
0.0159573
-0.00107697
0.0162149
-0.000647392
0.0164763
-0.000303018
0.0167446
-2.18561e-05
0.0170189
0.000209605
0.0172741
0.000386989
0.0173942
0.000492108
0.0170875
0.000503418
0.015947
0.000445492
0.0137526
0.000367662
0.0106928
0.000260988
0.00718209
-6.20404e-05
-5.83938e-05
-0.0024171
0.00238555
-3.41675e-05
-2.92478e-05
-0.00159115
0.00157902
-7.99386e-06
-4.94006e-06
-1.10658e-06
-6.67465e-06
-0.000494688
0.000492488
-1.33855e-06
-0.000488826
1.93292e-06
0.000484491
1.58086e-05
5.70177e-06
-0.000241426
0.000266343
8.88292e-06
-0.000199909
2.33697e-05
0.000173566
4.58944e-05
-0.00422553
0.0101227
-0.004664
0.0102844
-0.00520302
0.0105247
-0.00586329
0.01091
-0.00658472
0.0115026
-0.00718739
0.0123069
-0.0074134
0.0132611
-0.00718549
0.0142261
-0.0061766
0.0149135
-0.0048936
0.0153443
-0.00372806
0.0156375
-0.00277372
0.0158693
-0.00201034
0.0160773
-0.00140524
0.0162856
-0.000925476
0.016493
-0.000540103
0.0167133
-0.000227948
0.0169506
3.03673e-05
0.0171981
0.000244625
0.0174165
0.000413891
0.0174725
0.000519667
0.0170712
0.000548583
0.0158439
0.000510599
0.0136096
0.000415936
0.0105378
0.000279191
0.00703993
-8.0559e-05
-5.64792e-05
-0.00235872
0.00232561
-2.89231e-05
-3.15637e-05
-0.00156295
0.00154268
-7.43714e-06
-6.46056e-06
-5.73241e-06
-7.44418e-06
-0.000486669
0.000482207
-3.53206e-06
-0.000488914
-2.69514e-06
0.000492992
-1.61096e-06
-2.5959e-06
-0.000286166
0.000285359
-5.30993e-07
-0.00028419
-4.33077e-08
0.000279208
2.94316e-06
7.19876e-07
-6.92642e-05
7.81471e-05
-4.58944e-05
-0.00434351
0.010101
-0.00476757
0.0102263
-0.00533804
0.0104194
-0.00610261
0.010764
-0.00703041
0.0113557
-0.0079123
0.0122275
-0.00848145
0.0133749
-0.00848699
0.0145626
-0.00727045
0.0153199
-0.00570321
0.0157231
-0.00433587
0.0159522
-0.00325223
0.016116
-0.00240009
0.0162591
-0.00173064
0.0164027
-0.00120027
0.0165604
-0.000776426
0.0167293
-0.000434694
0.0169201
-0.000152232
0.0171332
8.611e-05
0.0173566
0.00028827
0.0175421
0.00045274
0.0175394
0.00056231
0.0170575
0.000600311
0.0157542
0.000555167
0.0134704
0.000436638
0.0103804
0.000272344
-0.00013927
0.00690686
-0.0022866
0.00214658
5.94648e-05
-1.74727e-05
-0.00152335
0.00150423
-4.41582e-06
-5.38851e-06
-5.96169e-06
-6.26576e-06
-0.000471494
0.00046743
-3.37299e-06
-0.000475017
-2.93825e-06
0.00047939
-2.9158e-06
-3.07087e-06
-0.000280356
0.000277699
-8.75352e-07
-0.000282318
-7.32872e-07
0.000284207
-4.5935e-07
-7.0718e-07
-8.17668e-05
8.12358e-05
-8.18101e-05
8.10902e-05
-0.00444605
0.0100785
-0.00482415
0.0101576
-0.00539047
0.0102787
-0.00623606
0.0105529
-0.00738292
0.0111166
-0.00862525
0.0120686
-0.00975263
0.0134987
-0.0101236
0.0150115
-0.00856568
0.0158578
-0.00659764
0.0162144
-0.00497281
0.01636
-0.00373655
0.0164365
-0.00278655
0.0165025
-0.00205012
0.0165785
-0.00146929
0.0166717
-0.0010084
0.0167923
-0.000637152
0.0169317
-0.000331773
0.0170996
-7.43753e-05
0.0172937
0.0001464
0.0174985
0.000339032
0.0176558
0.000498856
0.0176028
0.000607681
0.0170501
0.000638898
0.0156705
0.000576208
0.0133308
0.000431851
0.0102209
-0.00158661
0.00361379
-8.94481e-06
-1.09246e-05
0.000256258
-0.000124866
0.00677547
-0.00149799
-2.91634e-05
-2.16453e-06
-9.06677e-06
-0.00045706
0.000453932
-1.28773e-06
-0.000460462
-1.98614e-06
0.000464191
-2.72212e-06
-2.537e-06
-0.000270862
0.000268301
-8.12836e-07
-0.000273082
-7.17791e-07
0.000275398
-6.14023e-07
-7.55393e-07
-7.93364e-05
7.8461e-05
-8.00693e-05
8.07764e-05
-0.00453504
0.010061
-0.00483361
0.010088
-0.00534668
0.0101138
-0.00622107
0.0102638
-0.00756677
0.0107367
-0.00927765
0.011769
-0.0112588
0.0135747
-0.0121466
0.0155217
-0.0100375
0.0164833
-0.00754584
0.016806
-0.00562625
0.0168678
-0.00422605
0.0168495
-0.00317167
0.0168216
-0.00236101
0.0168134
-0.00172967
0.0168389
-0.0012345
0.0168978
-0.000834997
0.0169902
-0.000509416
0.0171094
-0.000237081
0.0172623
-1.7214e-06
0.0174419
0.000207245
0.0176303
0.000392891
0.0177618
0.000546209
0.0176643
0.000647996
0.017041
0.000661499
0.0155852
0.000573148
0.0131895
0.000406236
0.0100709
0.00351175
-1.05592e-05
-1.22737e-05
-0.000669487
0.000661255
-3.93479e-07
-3.20108e-07
-0.00067915
-4.53895e-07
-8.07326e-07
0.000213249
-0.00010167
0.00666389
-0.00041923
-8.48439e-07
-8.33351e-07
-0.000287403
0.000448653
3.11412e-06
2.03563e-05
-0.000262664
0.00026169
-3.14187e-07
-0.000264198
-4.51954e-07
0.00026612
-5.40848e-07
-6.14747e-07
-7.63738e-05
7.5561e-05
-7.70916e-05
7.7847e-05
-0.00461383
0.0100498
-0.0048029
0.0100303
-0.00520661
0.00994793
-0.00601659
0.00990927
-0.00747329
0.0101703
-0.00969313
0.0111522
-0.0128631
0.0133733
-0.0143611
0.0157893
-0.0114018
0.016886
-0.00835085
0.0172883
-0.00619122
0.017371
-0.00467257
0.0173143
-0.00353457
0.0172124
-0.00266124
0.0171218
-0.00198384
0.0170675
-0.00145314
0.0170576
-0.00102833
0.0170912
-0.000682567
0.0171633
-0.000394717
0.017267
-0.000147606
0.0174082
6.84279e-05
0.0175807
0.000265241
0.0177579
0.000442409
0.0178656
0.000589993
0.0177223
0.000674579
0.0170279
0.000664653
0.0154937
0.000548199
0.0130476
0.000355255
0.00992887
0.00343422
-1.021e-05
-1.39262e-05
-0.00064991
0.000640573
-6.27933e-07
-5.94701e-07
-4.05069e-07
-5.23297e-07
-6.81338e-05
6.77403e-05
-6.84539e-05
-6.89078e-05
-6.97152e-05
0.000134019
-4.44507e-05
0.00657432
-7.05637e-05
-7.1397e-05
-0.000264247
-2.79954e-06
5.57358e-07
-7.39534e-05
7.36392e-05
-7.44054e-05
7.50201e-05
-0.00468682
0.010046
-0.00474679
0.00999368
-0.00499495
0.00981861
-0.00562534
0.00955669
-0.00699774
0.00943372
-0.00957094
0.0100481
-0.0140723
0.0123614
-0.0159922
0.0150043
-0.0118526
0.0162401
-0.00847409
0.0170093
-0.00635066
0.0174477
-0.00490927
0.0176077
-0.00380129
0.017581
-0.00291824
0.0174694
-0.00221628
0.0173543
-0.00166005
0.0172745
-0.00121319
0.0172424
-0.000850148
0.0172588
-0.000549195
0.0173178
-0.000292779
0.0174122
-6.86616e-05
0.0175453
0.000134824
0.0177111
0.000320036
0.0178803
0.000488547
0.017967
0.000622863
0.017774
0.000686109
0.0170065
0.00064798
0.0153939
0.000502201
0.0129006
0.000279113
0.00978378
0.00340406
-1.66957e-06
-1.26198e-05
-0.000627905
0.000619092
-6.81959e-07
-7.1528e-07
-5.62589e-07
-6.95519e-07
-6.62172e-05
6.55892e-05
-6.68119e-05
-6.7217e-05
2.02821e-05
8.82377e-05
0.0064658
-7.41966e-05
-0.00475774
0.0100499
-0.00467946
0.00997866
-0.00474549
0.00974423
-0.00511202
0.0093053
-0.00612417
0.00868311
-0.00865968
0.00444475
0.00407771
-0.00647966
0.00534344
0.00469781
-0.00758581
-0.00884427
0.00657614
-0.00683229
0.0054697
-0.00589374
0.0131779
-0.00413246
-0.00704075
0.0148068
-0.00558077
0.0162394
-0.00461345
0.0171519
-0.00379268
0.0175991
-0.00304443
0.0177072
-0.00239247
0.0176456
-0.00184241
0.0175366
-0.00138654
0.0174478
-0.00101096
0.0174032
-0.00069885
0.0174084
-0.00043386
0.0174589
-0.000202145
0.0175457
4.34543e-06
0.0176758
0.000193472
0.0178376
0.000370164
0.0179987
0.000528234
0.0180617
0.00064336
0.0178168
0.000682875
0.0169716
0.000614267
0.0152818
0.000440939
0.0127388
0.000194733
0.00960933
0.00341695
6.5722e-05
9.6294e-06
-0.000607781
0.000607285
-4.52587e-07
-7.20993e-07
-5.35544e-07
-7.73505e-07
-6.36158e-05
6.29339e-05
-6.43311e-05
-6.48937e-05
-4.45222e-05
0.000201657
0.00630867
-0.00483015
0.0100574
-0.0046128
0.00998327
-0.00448891
0.00972208
-0.00455792
0.00919012
-0.00505686
0.00823798
-0.00680927
0.0035581
0.00327461
-0.0060625
0.00402759
-0.00545447
0.00346967
-0.00878709
0.00528625
-0.00417784
-0.00337756
0.00150583
0.00196029
-0.00709599
0.00189612
0.00164164
-0.00504206
0.00572446
-0.00313185
0.00182686
0.00155109
-0.00179213
-0.00201564
-0.00136232
0.00182653
0.00197907
-0.00200584
0.00954756
-0.00140457
-0.00147682
0.00405241
-0.00098359
-0.00349332
0.0127193
-0.003437
0.0150629
-0.00325123
0.0166105
-0.00287062
0.0174253
-0.00241624
0.017731
-0.00195559
0.0177588
-0.00153181
0.0176819
-0.00116041
0.0175972
-0.000841915
0.0175463
-0.000569092
0.0175436
-0.000333412
0.0175902
-0.000124513
0.0176745
6.74901e-05
0.0178018
0.000246027
0.0179618
0.00041289
0.018114
0.000556011
0.018149
0.000651498
0.0178482
0.000666373
0.0169195
0.000573244
0.0151495
0.000382193
0.0125513
0.000156299
0.00940851
0.00336991
0.000117373
0.00013132
-0.000616624
0.000664857
1.42076e-05
3.28213e-06
8.37791e-07
-5.46808e-07
-6.09038e-05
6.04513e-05
-6.16248e-05
-6.21603e-05
3.16669e-05
6.32836e-05
0.00621372
-0.00490688
0.0100697
-0.00456044
0.010005
-0.0042562
0.00975055
-0.00403324
0.0091974
-0.00400683
0.00814009
-0.00461668
0.00305178
0.00299361
-0.0046462
0.00274983
-0.00357291
0.00220131
-0.00628617
0.00126783
0.00139203
0.00163762
-0.00391935
-0.00319781
0.00145787
0.0029637
-0.00145787
0.00179213
-0.00345349
0.00117579
-0.00155109
0.00136232
0.00108037
0.000746161
0.00158262
0.0027381
-0.00039041
-0.000301125
-0.000432776
0.0067535
-0.000266484
0.00167183
-0.00017751
-0.000160784
-0.000428056
0.00102708
-0.00148613
0.0107684
-0.00208256
0.0138942
-0.0022419
0.0159817
-0.00215226
0.0171613
-0.00191078
0.0176862
-0.00159794
0.0178249
-0.00127352
0.017795
-0.00097086
0.0177262
-0.000699095
0.0176763
-0.000460592
0.0176708
-0.000247349
0.017713
-5.46095e-05
0.0177966
0.000123001
0.0179248
0.000291478
0.0180832
0.00044567
0.0182244
0.000576051
0.0182245
0.000653029
0.0178615
0.000644236
0.0168485
0.000536066
0.0149957
0.000356922
0.0123507
0.000194475
0.0092457
0.0033844
-1.07854e-06
4.98716e-05
-0.000711008
0.000757307
2.17632e-05
4.93102e-05
4.93137e-05
3.58557e-05
-6.40244e-05
7.82321e-05
-6.07423e-05
-5.99045e-05
0.000132493
-5.28577e-05
0.00613408
-0.00498997
0.0100821
-0.00452689
0.0100362
-0.00406554
0.00981438
-0.00359223
0.00930954
-0.00309415
0.00828472
-0.00269102
0.00303623
0.0031782
-0.00261666
0.00103711
0.00105843
-0.00154523
0.00192217
-0.00494948
0.00088013
0.000533008
-0.00176982
-0.00162178
0.000303565
0.000339865
0.00300603
-0.00281565
0.00107745
0.000944572
-0.00202202
0.000318105
0.000759549
-0.000122875
0.00053461
-7.61861e-05
0.00129932
-3.54814e-05
-2.47882e-05
6.1916e-05
0.00515746
4.7993e-05
0.00106893
-2.66738e-05
-9.42291e-06
0.000396303
-3.92029e-05
0.000274477
-3.89577e-05
-0.000710595
0.00939647
-0.00123502
0.0128874
-0.00153731
0.0153668
-0.00161227
0.0168628
-0.0015115
0.0175997
-0.00130855
0.0178599
-0.00106331
0.0178875
-0.000813657
0.0178407
-0.00058099
0.0177967
-0.000367722
0.0177912
-0.000175128
0.0178335
3.36945e-06
0.0179163
0.000171598
0.0180447
0.000328884
0.0182
0.000472789
0.0183277
0.000587151
0.0182903
0.000646367
0.0178594
0.000624482
0.0167601
0.000520106
0.0148325
0.000375287
0.0121699
0.000266224
0.00911197
0.00335762
-1.96391e-05
-6.43796e-06
-0.000795724
0.000797847
-3.06209e-06
-1.38609e-07
9.72112e-07
1.04828e-05
-0.000166629
0.00018217
6.22252e-06
-0.000133651
1.63321e-05
-0.000114088
2.9751e-05
0.000198323
-9.98976e-05
0.00603566
-0.00507954
0.0100936
-0.0045173
0.0100725
-0.00392568
0.00989633
-0.00326094
0.0094831
-0.00242428
0.00863967
-0.00113419
0.0067279
-0.000594429
0.00208543
0.000214019
0.00236975
0.00143084
-0.00104622
0.000652498
0.000719442
-0.000449715
0.000803811
0.000270178
0.000251676
-0.00193552
-0.00140251
-0.00118702
0.000284687
0.00106265
-0.00075908
0.00107745
0.00019523
0.000119044
0.000235703
3.29285e-06
0.000214962
-4.04718e-06
0.00101979
4.97429e-05
6.13177e-05
1.71602e-06
0.00448451
-3.93567e-05
0.000998371
4.75332e-05
2.18786e-05
0.000194804
-6.51587e-06
0.000186736
-1.35507e-06
7.98409e-05
4.08831e-05
-0.000314498
0.00847596
-0.000727549
0.0120776
-0.00105773
0.0148123
-0.00120898
0.0165603
-0.00119916
0.0174903
-0.00107577
0.0178724
-0.000889638
0.0179634
-0.000683315
0.0179431
-0.000480983
0.01791
-0.000290603
0.0179067
-0.000112275
0.0179492
5.32681e-05
0.0180346
0.000211292
0.0181623
0.000360025
0.0183127
0.000493144
0.0184217
0.00059478
0.0183419
0.000642154
0.0178417
0.000617493
0.0166627
0.00052883
0.0146789
0.000421757
0.0120144
0.000327588
0.00898271
0.00329023
-1.87358e-05
-1.37708e-05
-0.000795405
0.00078145
-3.17761e-06
-2.50592e-06
-2.60889e-06
-1.38728e-06
-0.000192124
0.000189844
-7.82463e-07
-0.000191762
-5.00455e-07
-0.000190837
4.80844e-08
1.815e-06
-4.60831e-05
5.23057e-05
-2.9751e-05
0.000230554
-0.00011543
0.00592054
-0.00517699
0.0101055
-0.00453215
0.0101084
-0.00383856
0.00998537
-0.00303845
0.00967384
-0.00200454
0.00906336
-0.000375861
0.00788134
-0.00141842
0.00320249
0.00227576
0.00288208
0.000702202
0.000398722
0.000534795
0.000872912
0.000780616
0.000269289
-4.65721e-05
0.00031675
0.000205104
-0.000474393
4.4176e-05
4.01288e-05
0.00020315
3.33286e-05
0.000224069
4.03992e-05
0.000985521
1.65098e-05
-1.94401e-06
-9.62763e-06
0.00414516
3.44736e-05
0.000976999
-3.08345e-05
0.000242888
2.87141e-05
0.000251226
1.35407e-05
3.36129e-05
3.22578e-05
-0.000103528
0.00785193
-0.000432894
0.0114528
-0.00072531
0.0143286
-0.000912732
0.0162738
-0.000957184
0.0173718
-0.000887151
0.0178699
-0.00074856
0.0180287
-0.000577815
0.0180399
-0.000399892
0.0180193
-0.000225607
0.01802
-6.13354e-05
0.0180638
9.60842e-05
0.0181498
0.000244098
0.0182782
0.00038398
0.0184219
0.000506981
0.0185095
0.000600361
0.0183837
0.000644072
0.0178151
0.00062514
0.0165664
0.000557486
0.0145432
0.000468737
0.0118732
0.000365931
0.00884733
0.00320745
-1.76716e-05
-1.49781e-05
-0.000771491
0.0007576
-2.58857e-06
-2.25563e-06
-2.09227e-06
-1.71931e-06
-0.000185025
0.000182646
-7.98573e-07
-0.000186762
-7.67973e-07
-0.000188766
-6.04812e-07
-3.09511e-07
-5.36684e-05
5.28859e-05
-5.41688e-05
-5.41207e-05
0.00024301
-0.000119827
0.00579735
-0.00528116
0.0101142
-0.00456898
0.0101423
-0.00379834
0.0100682
-0.00290771
0.00985463
-0.00177902
0.00944832
-0.000115121
0.00880262
0.00307317
0.00801066
0.00322055
-0.00127552
-0.00113286
0.000893125
0.000570473
0.00324883
0.0028538
0.000715473
0.000862255
0.000388013
-0.00109379
0.000691182
0.000549077
6.55865e-05
8.89796e-05
1.70061e-05
0.000254621
1.31144e-05
0.00023404
1.86371e-05
0.000958223
9.14796e-06
6.22359e-05
0.00393783
4.15686e-05
0.00094695
4.57465e-05
-0.00014933
0.000354997
-1.48998e-06
-9.71703e-07
0.000110033
7.66042e-06
0.000120738
2.83584e-06
-3.0275e-05
0.00744931
-0.000238716
0.0109662
-0.000502805
0.0139187
-0.000692243
0.0160089
-0.000766404
0.017251
-0.000735321
0.0178567
-0.000631275
0.0180822
-0.000487568
0.0181276
-0.000329496
0.0181231
-0.000170844
0.0181295
-1.69389e-05
0.0181768
0.000131369
0.0182625
0.000271939
0.0183902
0.000405108
0.0185238
0.00052233
0.0185875
0.00060919
0.0184186
0.000652736
0.0177875
0.000644845
0.016479
0.000591741
0.0144202
0.00050352
0.0117356
0.000383796
0.00870654
0.00312013
-1.69324e-05
-1.5573e-05
-0.000746218
0.000733116
-2.37673e-06
-2.19231e-06
-1.89299e-06
-1.70276e-06
-0.000177896
0.000175959
-6.51584e-07
-0.000179509
-6.42235e-07
-0.000181156
-4.4548e-07
-2.29728e-07
-5.12037e-05
5.04052e-05
-5.19716e-05
-5.25764e-05
0.000244304
-0.000119141
0.00567219
-0.00538949
0.0101203
-0.00462841
0.0101736
-0.00380066
0.0101446
-0.00285344
0.0100139
-0.00169131
0.00976691
-0.000104584
0.00943779
0.00249743
0.00937835
-0.00235944
0.00531671
0.00381055
0.00449167
-0.000937091
0.000495409
-0.00106588
0.000992792
0.000966214
-0.000495409
-0.000677679
0.00127791
0.000886924
0.000388013
1.70061e-05
0.000130108
3.74462e-06
-5.85166e-07
0.000362404
-7.58934e-08
1.81736e-06
0.000937992
7.11944e-05
2.67901e-05
0.00385707
2.36912e-05
0.000944785
3.47752e-05
0.000384596
1.78428e-05
5.71104e-06
-2.96901e-05
2.82001e-05
-3.06618e-05
2.46665e-05
2.75023e-05
5.24627e-05
0.00715814
-0.000126358
0.0105897
-0.000350402
0.0135768
-0.000527342
0.0157698
-0.000618913
0.0171346
-0.000613761
0.0178392
-0.000534219
0.0181288
-0.000413478
0.0182116
-0.000271559
0.0182239
-0.000125918
0.0182385
1.93376e-05
0.0182888
0.000159908
0.0183746
0.000295321
0.0185
0.000422396
0.0186237
0.000534602
0.0186621
0.000621138
0.0184502
0.000669427
0.0177629
0.000668181
0.0164026
0.000619103
0.0143046
0.000522194
0.0115972
0.000387009
0.00856384
0.00303272
-1.60883e-05
-1.56421e-05
-0.000721126
0.000708622
-2.26292e-06
-2.16504e-06
-1.83512e-06
-1.74799e-06
-0.000171398
0.000169635
-6.13403e-07
-0.000172978
-6.12402e-07
-0.000174467
-4.03896e-07
-2.09934e-07
-4.90878e-05
4.84362e-05
-4.973e-05
-5.01754e-05
0.000238216
-0.000115591
0.00554957
-0.00550492
0.0101274
-0.00470865
0.0102006
-0.0038369
0.0102098
-0.0028557
0.0101469
-0.00169749
0.0100201
-0.000223101
0.00988543
0.0018842
0.010051
0.00425075
0.0104443
0.00175536
-0.000646816
0.00322775
-0.000525751
0.00189762
0.00434941
0.000288536
-0.000491695
0.00112279
-0.000288536
0.000683764
3.12469e-05
2.81242e-05
2.99415e-05
0.000408886
2.57984e-05
2.11056e-05
0.000954081
1.74945e-05
5.03161e-05
0.00378929
6.99324e-05
0.000965114
1.26577e-05
0.000433268
1.01331e-06
9.38005e-06
-3.56526e-05
5.34954e-05
8.18999e-05
0.00694988
-6.07821e-05
0.0103001
-0.000237124
0.0132866
-0.00040374
0.0155546
-0.00050129
0.0170221
-0.000514921
0.0178199
-0.000457023
0.0181724
-0.000352077
0.0182921
-0.000223287
0.0183212
-8.72451e-05
0.0183451
5.11126e-05
0.0183976
0.000185021
0.0184849
0.000316014
0.0186064
0.000437477
0.0187208
0.000549717
0.0187335
0.000637673
0.0184819
0.000687559
0.0177436
0.000690078
0.0163316
0.000635093
0.0141917
0.000526257
0.011458
0.000379012
0.00842304
0.00294772
-1.51578e-05
-1.54314e-05
-0.000696493
0.000684649
-2.14285e-06
-2.10096e-06
-1.76795e-06
-1.74514e-06
-0.000165103
0.000163431
-5.90978e-07
-0.000166666
-6.02054e-07
-0.000168102
-3.99068e-07
-2.14734e-07
-4.72101e-05
4.65968e-05
-4.78225e-05
-4.82263e-05
0.000226108
-0.000109828
0.00543329
-0.00562957
0.0101357
-0.00480989
0.0102287
-0.003905
0.0102687
-0.00290264
0.0102568
-0.00176612
0.0102155
-0.000406381
0.0102034
0.00133213
0.0104375
0.00321922
0.0110825
-0.00139225
0.00343679
0.0102974
0.00099688
0.00266799
-0.000171839
-0.00026528
-0.00032339
0.000920429
0.00395404
0.000360374
6.61356e-05
1.31582e-05
8.08829e-05
6.35825e-06
0.000449031
1.85522e-06
-1.23677e-07
0.000972992
4.24382e-05
7.17513e-05
0.00375285
4.65874e-05
0.000978811
6.41131e-05
0.000461921
7.37899e-07
-9.70086e-07
-8.84436e-05
8.9635e-05
-1.78128e-07
1.81935e-06