/*--------------------------------*- C++ -*----------------------------------*\
| =========                 |                                                 |
| \\      /  F ield         | OpenFOAM: The Open Source CFD Toolbox           |
|  \\    /   O peration     | Version:  v1912                                 |
|   \\  /    A nd           | Website:  www.openfoam.com                      |
|    \\/     M anipulation  |                                                 |
\*---------------------------------------------------------------------------*/
FoamFile
{
    version     2.0;
    format      ascii;
    class       volVectorField;
    location    "300";
    object      U;
}
// * * * * * * * * * * * * * * * * * * * * * * * * * * * * * * * * * * * * * //

dimensions      [0 1 -1 0 0 0 0];


internalField   nonuniform List<vector> 
3754
(
(0.995633 0.00297744 9.13871e-23)
(0.996038 0.00863419 0)
(0.950798 0.0118788 1.43455e-22)
(0.996667 0.013606 0)
(0.955796 0.0334792 0)
(0.812862 0.0380741 -1.89458e-21)
(0.997175 0.0174655 0)
(0.965272 0.0512209 -1.10425e-20)
(0.842238 0.0992293 1.25627e-22)
(0.515394 0.0519741 1.04028e-21)
(0.532019 0.147075 8.96052e-22)
(0.997539 0.0200133 -1.4925e-22)
(0.977303 0.0634544 1.09852e-20)
(0.893096 0.145365 0)
(0.578851 0.237939 8.09644e-22)
(0.646688 0.306692 -3.40843e-21)
(0.117812 0.102318 -2.1187e-22)
(0.111641 0.0344868 2.17276e-22)
(0.158634 0.226561 0)
(0.132331 0.167298 0)
(0.997874 0.0213585 0)
(0.988781 0.0708389 4.60867e-22)
(0.935306 0.167013 0)
(0.719285 0.356903 2.55826e-21)
(0.802371 0.380952 -3.74095e-21)
(0.250698 0.313658 -1.0906e-22)
(0.198166 0.277199 2.1839e-21)
(0.479283 0.477616 -6.44565e-22)
(0.345752 0.411292 0)
(0.998254 0.0217538 0)
(0.99791 0.0742484 0)
(0.964845 0.16728 -1.48365e-22)
(0.95562 0.44767 -9.41125e-21)
(0.663145 0.551267 8.33396e-22)
(0.576473 0.518699 -7.69686e-22)
(0.780231 0.506366 0)
(0.296373 0.331746 -2.49072e-21)
(0.132992 0.204064 5.45249e-21)
(0.998675 0.0214497 0)
(1.00446 0.0744506 -6.12423e-23)
(0.987915 0.158017 0)
(1.0643 0.423625 1.1925e-20)
(0.891278 0.31919 -1.1879e-21)
(1.06418 0.3886 3.67129e-21)
(0.557589 0.401564 9.90495e-22)
(0.399278 0.34346 -8.99204e-22)
(0.757684 0.378803 -2.00993e-21)
(0.534464 0.272104 1.72082e-21)
(0.999087 0.0206308 -1.31618e-23)
(1.00894 0.0721226 0)
(1.00696 0.146322 5.46859e-23)
(1.10781 0.371851 0)
(1.19037 0.309658 -2.24586e-21)
(0.631124 0.0926045 -7.10895e-21)
(0.545591 0.146029 2.13189e-21)
(0.922501 0.143596 7.69016e-21)
(0.240989 0.150333 0)
(0.250438 0.0825106 0)
(0.999447 0.0194145 2.46927e-20)
(1.01204 0.067881 1.42838e-23)
(1.02264 0.13419 1.73521e-23)
(1.12072 0.315029 -5.75637e-21)
(1.28819 0.299703 0)
(1.01837 0.142175 1.53948e-20)
(0.424726 0.0225086 -4.33402e-22)
(0.272139 0.0193286 1.75607e-22)
(0.375924 0.0484187 -1.38996e-22)
(0.726783 0.0702528 0)
(0.133703 0.00951589 -2.98648e-23)
(0.999738 0.0178826 -2.43213e-20)
(1.01429 0.0622719 0)
(1.03477 0.121799 0)
(1.12361 0.265607 1.05342e-20)
(1.305 0.275528 8.87488e-24)
(1.27025 0.177952 -1.45436e-20)
(0.828207 0.0512 -1.55238e-20)
(0.581339 0.053388 4.04087e-21)
(0.202105 0.00143947 1.68917e-22)
(0.324111 0.0206588 -3.61862e-21)
(0.18706 0.00516079 3.36974e-22)
(0.0827395 0.00206373 7.05954e-23)
(0.99996 0.0161015 0)
(1.01599 0.0557165 -2.19522e-20)
(1.04358 0.109032 0)
(1.12458 0.223715 -4.68752e-21)
(1.2908 0.246167 0)
(1.35974 0.186427 -2.29675e-20)
(1.15945 0.103428 4.09093e-20)
(0.738215 0.0233101 -3.08759e-20)
(0.465753 0.0147589 0)
(0.4956 0.0169047 1.63114e-23)
(0.0584976 -0.000852922 -1.5704e-22)
(0.268499 0.00405186 -2.03667e-22)
(0.139585 0.00727521 6.65388e-22)
(0.159422 0.00394445 -1.70081e-22)
(0.0578553 0.000227078 -9.77018e-23)
(1.00012 0.0141221 2.31286e-24)
(1.01735 0.0484955 4.11885e-20)
(1.04981 0.0958845 1.44166e-20)
(1.12539 0.187541 0)
(1.27024 0.215166 -3.82694e-24)
(1.37083 0.180012 2.07402e-21)
(1.32177 0.129892 -2.49911e-20)
(1.06886 0.0678392 2.79103e-20)
(0.701909 0.0201412 -3.85929e-21)
(0.452172 0.00911864 4.38382e-22)
(0.44768 0.00336998 -4.41291e-22)
(0.254149 0.00303538 -4.13499e-22)
(0.12144 -0.00125098 -6.12735e-22)
(0.119426 0.00210191 1.05491e-21)
(0.0413737 0.000821389 1.51145e-24)
(0.0497269 0.00017693 -1.49718e-24)
(1.00022 0.0119817 0)
(1.01848 0.0407809 -1.93108e-20)
(1.05423 0.0824638 -1.41857e-20)
(1.12608 0.15582 1.91172e-21)
(1.25217 0.185515 0)
(1.35482 0.165824 2.19591e-20)
(1.37445 0.137207 0)
(1.26842 0.0985839 -5.96416e-24)
(1.00697 0.052253 2.82169e-20)
(0.67268 0.021239 3.8729e-21)
(0.454781 0.00970948 6.6836e-21)
(0.456099 0.00645103 0)
(0.270674 0.00285901 -5.76425e-21)
(0.251848 -0.000598647 -3.14446e-24)
(0.11439 0.00192418 2.87805e-22)
(0.115703 -0.000754475 5.83941e-22)
(0.0355279 -0.000507102 8.73921e-23)
(0.0361766 0.000261447 -1.6949e-22)
(1.00027 0.00970685 0)
(1.01951 0.0326784 1.59813e-24)
(1.05744 0.0688502 0)
(1.12668 0.127422 -2.02529e-21)
(1.23834 0.157981 4.6019e-24)
(1.33443 0.149607 0)
(1.37725 0.134023 -5.53293e-24)
(1.35486 0.113587 0)
(1.21974 0.081551 -2.52185e-20)
(0.957942 0.046746 0)
(0.641445 0.0211494 1.65222e-20)
(0.438811 0.0083099 -4.25118e-22)
(0.445217 0.00826355 -6.22252e-21)
(0.296179 0.0036263 -1.03756e-21)
(0.293052 0.00179847 -3.39152e-22)
(0.151521 0.00413659 1.6771e-20)
(0.131753 -0.00161001 0)
(0.113426 -0.00160384 0)
(0.120442 0.000344296 -2.23297e-21)
(0.0346434 0.000271612 -1.62194e-22)
(0.0352668 -0.000243124 0)
(1.00027 0.0073113 0)
(1.02052 0.0242477 0)
(1.05987 0.0550801 -8.69872e-21)
(1.12742 0.101384 0)
(1.22849 0.132217 0)
(1.31698 0.133384 -3.93312e-20)
(1.36452 0.126766 0)
(1.37696 0.117701 2.28265e-20)
(1.32937 0.100177 0)
(1.17433 0.0733146 2.49251e-20)
(0.915758 0.0438393 0)
(0.346483 0.00541062 -2.01673e-20)
(0.613726 0.0207262 -1.61717e-20)
(0.285633 0.00204037 -1.05728e-21)
(0.292298 0.00359224 -3.46754e-22)
(0.18124 0.00176611 0)
(0.180831 0.000946961 3.14023e-21)
(0.17224 -0.000316063 1.91034e-24)
(0.179183 0.00103029 -1.23514e-22)
(0.0674578 0.00386286 -1.61545e-20)
(0.0446972 -0.000525836 1.57324e-21)
(0.0347272 -0.00037829 0)
(0.0386867 -7.48096e-05 7.03603e-24)
(1.00023 0.0048 4.56184e-25)
(1.02158 0.0155171 0)
(1.06185 0.041184 8.41039e-21)
(1.1286 0.076909 0)
(1.22227 0.107811 2.16592e-20)
(1.30396 0.117467 3.97467e-20)
(1.35035 0.118271 -4.49341e-20)
(1.37297 0.116317 -6.92894e-20)
(1.36835 0.108773 0)
(1.29972 0.0932342 -2.34865e-20)
(1.13233 0.0689006 0)
(0.879131 0.0424706 2.71076e-20)
(0.328431 0.00516308 1.83664e-20)
(0.127462 0.00189353 3.11803e-21)
(0.129954 -0.000679416 -9.20319e-22)
(0.595416 0.0223812 -3.12273e-20)
(0.172088 0.000450874 1.0472e-21)
(0.173964 0.00115643 5.13123e-22)
(0.178903 0.00112486 -1.26495e-22)
(0.177879 0.00171212 1.14646e-21)
(0.104681 0.000515433 0)
(0.104852 0.000316206 -8.64206e-22)
(0.0979795 -0.000300767 3.29351e-21)
(0.103139 0.000266854 -8.45046e-22)
(0.0187174 0.00102446 4.36993e-21)
(1.00016 0.00216516 0)
(1.02278 0.00649565 -1.39681e-20)
(1.06356 0.027164 -6.5062e-21)
(1.13051 0.0532612 -2.92061e-24)
(1.21955 0.0844002 -2.06776e-20)
(1.29546 0.101934 -9.94926e-24)
(1.33904 0.109527 4.44595e-20)
(1.36243 0.112763 1.29693e-22)
(1.37294 0.111262 0)
(1.3531 0.104428 0)
(1.26834 0.0894332 0)
(1.09414 0.0664679 -2.39431e-20)
(0.848493 0.0428369 2.6511e-20)
(0.332872 0.0067284 -1.71156e-23)
(0.123116 0.00168673 0)
(0.121614 -0.000520415 -1.03749e-22)
(0.0291492 0.000421726 1.60043e-22)
(0.0293647 3.2564e-05 0)
(0.0299202 8.26235e-05 8.05623e-23)
(0.0299967 -0.000503116 0)
(0.0990239 -0.000408037 0)
(0.578373 0.0212904 -1.55774e-20)
(0.101019 0.000636316 -4.38807e-22)
(0.10334 0.000366033 2.171e-22)
(0.102607 0.000526433 0)
(0.0332274 2.3993e-05 0)
(0.0334362 9.08211e-06 0)
(0.0315388 -0.000574776 -2.23687e-21)
(0.0328297 -8.41143e-05 5.67471e-22)
(1.00008 -0.000610097 3.0613e-20)
(1.02418 -0.00280401 2.72789e-20)
(1.06509 0.0129841 6.30172e-21)
(1.13339 0.0296947 -2.98038e-24)
(1.22038 0.0616264 9.7188e-24)
(1.29147 0.0868289 -1.64846e-23)
(1.33155 0.100948 4.33172e-20)
(1.35273 0.108597 4.53486e-20)
(1.36589 0.111022 -4.6291e-20)
(1.36618 0.1094 0)
(1.33368 0.102355 2.67298e-24)
(1.23733 0.0870707 2.66576e-24)
(1.06001 0.0653599 0)
(0.820944 0.0408744 3.23683e-24)
(0.331473 0.00746964 1.28458e-20)
(0.159412 0.00089401 -3.72774e-22)
(0.137915 0.00103548 6.77786e-21)
(0.0296326 0.000430548 -1.40006e-21)
(0.0276404 -0.000131872 8.1885e-23)
(0.0279576 2.27939e-05 -7.92785e-23)
(0.0279276 -0.000391251 7.94686e-23)
(0.0311574 -0.000282845 -1.84164e-23)
(0.556433 0.0202434 -1.52053e-20)
(0.0320668 6.81189e-05 1.82451e-23)
(0.0328056 8.54156e-06 -1.54425e-22)
(0.0325854 3.70782e-05 9.13856e-24)
(1.00001 -0.00355001 -3.0147e-20)
(1.02584 -0.0123559 -4.04767e-20)
(1.0664 -0.00143722 0)
(1.13747 0.00547885 0)
(1.22492 0.0391539 -3.96284e-24)
(1.29205 0.0721906 3.59021e-20)
(1.32813 0.0927315 -4.22651e-20)
(1.34598 0.10446 0)
(1.35735 0.109904 4.57107e-20)
(1.36292 0.111277 2.74526e-24)
(1.35481 0.109098 0)
(1.31254 0.101079 -2.15582e-20)
(1.20786 0.0854803 -2.68575e-24)
(1.02894 0.0627993 2.28987e-20)
(0.792871 0.0388852 0)
(0.316461 0.00702209 1.90694e-20)
(0.157317 0.00301227 0)
(0.160335 0.00114203 6.83243e-21)
(0.0774244 0.000254541 0)
(0.0723495 0.000122848 5.5382e-23)
(0.0496402 0.00291639 -5.68702e-21)
(0.0335725 -0.000600458 1.62314e-21)
(0.534343 0.0191584 0)
(1.00002 -0.00667663 0)
(1.02775 -0.0220935 2.6508e-20)
(1.06729 -0.0162296 0)
(1.14299 -0.0201399 0)
(1.23345 0.0166873 -6.89345e-24)
(1.29738 0.0580796 -7.07513e-20)
(1.32893 0.0850104 4.2565e-20)
(1.34281 0.100635 -1.09192e-23)
(1.35084 0.10871 0)
(1.35568 0.112048 5.54718e-24)
(1.35548 0.112404 -2.73967e-24)
(1.34117 0.109095 2.13598e-20)
(1.29115 0.100004 0)
(1.18003 0.0828724 -2.10776e-20)
(0.998891 0.0600563 -2.22973e-20)
(0.765931 0.0370788 0)
(0.300638 0.00625605 -7.98885e-24)
(0.147104 0.00277985 -2.85518e-21)
(0.150842 0.00070773 -3.78423e-22)
(0.0738886 0.00102942 1.18485e-22)
(0.0752167 0.000424422 2.37602e-22)
(0.0770636 0.00061993 -2.35273e-22)
(0.0773347 0.0001398 -9.34061e-22)
(0.0244767 -4.40397e-05 0)
(0.0232376 -0.000502302 0)
(0.0137553 0.000832011 0)
(0.51545 0.017947 0)
(1.00016 -0.00999242 -3.22296e-20)
(1.02979 -0.0318982 -2.82651e-20)
(1.0674 -0.0316157 1.04078e-20)
(1.15031 -0.0480192 -6.47116e-21)
(1.24654 -0.00605893 2.25048e-20)
(1.30778 0.0445765 3.48464e-20)
(1.33419 0.0779257 -4.14871e-20)
(1.34349 0.0973024 1.05297e-23)
(1.3475 0.107788 1.09196e-23)
(1.34942 0.112658 0)
(1.3497 0.114327 -2.63334e-24)
(1.34585 0.113409 -4.26387e-20)
(1.32665 0.108859 4.1146e-20)
(1.27 0.0979901 2.01148e-20)
(1.15294 0.0799067 4.08568e-20)
(0.970382 0.0575386 0)
(0.74197 0.0352519 2.41581e-20)
(0.287912 0.00569603 4.08645e-21)
(0.138458 0.00247857 0)
(0.141331 0.000375699 1.87893e-22)
(0.0683751 0.000946118 0)
(0.0694601 0.000259293 1.16328e-22)
(0.0709307 0.000553498 0)
(0.0716692 -6.4393e-05 -2.34452e-22)
(0.0230831 0.000115245 -6.85688e-23)
(0.0237702 -5.70031e-06 -1.02867e-22)
(0.0244747 7.46476e-05 1.03002e-22)
(0.0246628 -4.61654e-06 0)
(0.502712 0.0179103 -2.78157e-20)
(1.00051 -0.0134592 3.17349e-20)
(1.03164 -0.0416137 2.76187e-20)
(1.06634 -0.0480054 9.03151e-22)
(1.1602 -0.0791934 6.15058e-21)
(1.26517 -0.0293439 -6.92883e-20)
(1.32389 0.0317696 0)
(1.34433 0.0716272 9.41087e-25)
(1.34834 0.0946279 0)
(1.3478 0.107343 4.51817e-20)
(1.34591 0.11352 4.48993e-20)
(1.34376 0.11595 0)
(1.34167 0.116057 4.22499e-20)
(1.33534 0.113863 -8.18021e-20)
(1.31174 0.107666 -1.98009e-20)
(1.2488 0.0954049 -1.94547e-20)
(1.12688 0.0770533 0)
(0.944346 0.0550986 -2.10817e-20)
(0.72196 0.0342697 2.34753e-20)
(0.285108 0.00602767 0)
(0.132197 0.00239559 -5.93811e-21)
(0.133757 0.000269854 0)
(0.0640969 0.00085216 0)
(0.0649174 0.000181004 -1.14957e-22)
(0.0660485 0.00047204 -1.15286e-22)
(0.066581 -0.000168102 0)
(0.0212397 0.000105056 0)
(0.0218007 -3.07808e-05 6.75593e-23)
(0.0223192 7.77533e-05 0)
(0.0224454 -4.1146e-05 1.35865e-22)
(0.493836 0.0171196 2.70939e-20)
(1.00109 -0.0169831 -3.54306e-20)
(1.03276 -0.0510935 -3.11618e-20)
(1.06389 -0.0660904 -1.06444e-20)
(1.17411 -0.11492 3.95707e-21)
(1.29093 -0.0533625 -6.23862e-21)
(1.34674 0.0197843 -7.92972e-20)
(1.36005 0.0662859 -4.37531e-20)
(1.35787 0.0927797 -1.06035e-23)
(1.35219 0.107538 -4.43778e-20)
(1.34589 0.114842 -4.42968e-20)
(1.34015 0.117771 1.0394e-23)
(1.33614 0.118236 -4.20855e-20)
(1.33292 0.116966 -4.73718e-23)
(1.32442 0.113338 -2.44221e-24)
(1.29638 0.105741 0)
(1.22788 0.0927143 0)
(1.10249 0.074248 0)
(0.921114 0.0531625 0)
(0.705041 0.0327482 2.28017e-20)
(0.289679 0.00598697 -2.97323e-20)
(0.140348 0.00309193 3.5459e-22)
(0.132063 -0.000183565 2.55605e-21)
(0.060902 0.000801934 -4.49969e-22)
(0.0612233 0.000160784 0)
(0.0621842 0.000452526 0)
(0.0625775 -0.00016818 -1.12634e-22)
(0.0198733 9.55162e-05 0)
(0.0203218 -3.67211e-05 0)
(0.0207163 7.32343e-05 3.33396e-23)
(0.0207558 -5.22506e-05 -3.31346e-23)
(0.48271 0.0164362 2.64259e-20)
(1.00183 -0.0204265 3.48663e-20)
(1.03257 -0.0602748 -2.76619e-21)
(1.06044 -0.0868246 2.65538e-24)
(1.19406 -0.156568 -3.72498e-21)
(1.32547 -0.0781488 4.91827e-20)
(1.37728 0.00884703 -7.38183e-21)
(1.38203 0.0621175 4.24389e-20)
(1.37269 0.0919551 3.22652e-23)
(1.36116 0.108538 -4.50868e-20)
(1.34989 0.116766 4.44792e-20)
(1.33992 0.120016 4.32799e-20)
(1.33251 0.120528 8.3448e-20)
(1.32794 0.119434 4.02244e-20)
(1.32391 0.116852 3.87872e-20)
(1.31307 0.111999 -4.47973e-24)
(1.28085 0.103503 0)
(1.20779 0.0899472 0)
(1.08 0.0716938 0)
(0.900371 0.050915 -3.97324e-20)
(0.688415 0.0311497 -2.22665e-20)
(0.284932 0.00622877 -7.03434e-24)
(0.155675 0.00279334 0)
(0.152305 0.000674953 -2.62867e-21)
(0.0774172 0.00265924 -6.93229e-21)
(0.0680258 -0.000271234 0)
(0.0632871 0.000196591 -7.22935e-21)
(0.0606668 -0.000472819 0)
(0.0187776 8.36467e-05 2.60095e-22)
(0.0191085 -3.67968e-05 0)
(0.0194591 7.38193e-05 -3.26826e-23)
(0.0194742 -4.72861e-05 9.76839e-23)
(0.469744 0.0157431 -6.15008e-24)
(1.00257 -0.0236218 0)
(1.03063 -0.0692006 3.27138e-20)
(1.05701 -0.111183 3.57955e-24)
(1.22133 -0.205271 -2.21032e-24)
(1.36881 -0.103494 6.44919e-20)
(1.4146 -0.000579334 8.04525e-20)
(1.40959 0.0594425 0)
(1.39265 0.0924043 2.17341e-23)
(1.37496 0.110533 8.92495e-20)
(1.35832 0.119433 -4.37391e-20)
(1.34366 0.122821 -4.27241e-20)
(1.33217 0.1232 -4.13209e-20)
(1.32439 0.121928 -3.99148e-20)
(1.31963 0.119534 -3.84488e-20)
(1.31469 0.115881 0)
(1.30152 0.110208 4.46234e-24)
(1.2656 0.101051 0)
(1.18879 0.0872241 0)
(1.05934 0.0689531 7.7173e-23)
(0.880852 0.0485747 0)
(0.671758 0.029733 0)
(0.275875 0.00605349 7.16186e-24)
(0.151705 0.00309024 9.20248e-24)
(0.153858 0.00116529 -1.31079e-21)
(0.0935132 0.0012935 0)
(0.093229 0.000624598 1.04174e-22)
(0.0917901 0.000535884 -1.01971e-22)
(0.0881001 -0.000175409 3.24265e-21)
(0.03382 0.00233171 4.44881e-21)
(0.0228755 -0.00022065 0)
(0.0204489 -8.13676e-05 2.11784e-21)
(0.018838 -0.000127722 1.30898e-22)
(0.456966 0.0149787 -1.24764e-20)
(1.0031 -0.0263648 -1.64545e-22)
(1.02677 -0.0778977 0)
(1.05432 -0.139934 2.04907e-20)
(1.25411 -0.261873 -5.44598e-23)
(1.41612 -0.128174 -6.13687e-20)
(1.45265 -0.00775312 -1.97105e-23)
(1.4378 0.0587407 9.43868e-20)
(1.41468 0.0944264 -2.17142e-23)
(1.3921 0.113736 -1.34606e-19)
(1.37073 0.122997 4.41142e-20)
(1.35152 0.126307 -2.1184e-23)
(1.33571 0.126394 4.00289e-23)
(1.324 0.124758 3.94681e-20)
(1.31628 0.122126 -3.80215e-20)
(1.31133 0.118736 0)
(1.30541 0.114373 0)
(1.29008 0.108104 -3.40205e-20)
(1.25089 0.0984802 0)
(1.17093 0.0843378 1.67495e-20)
(1.03996 0.0661367 1.72696e-20)
(0.8622 0.0464565 0)
(0.655968 0.0284114 0)
(0.266685 0.00559224 1.22252e-20)
(0.145922 0.00272865 0)
(0.147797 0.00103057 -3.29807e-22)
(0.089912 0.00139218 4.12575e-22)
(0.09095 0.000776031 4.14467e-22)
(0.0921191 0.000908081 4.14231e-22)
(0.0926021 0.000306543 8.27778e-22)
(0.0531372 0.000372024 -8.66001e-23)
(0.0533537 0.000200733 2.67907e-22)
(0.0522108 0.000150472 0)
(0.0494708 -4.16613e-05 2.12539e-23)
(0.00933745 0.000622994 -4.68183e-22)
(0.445537 0.0142653 0)
(1.00328 -0.0283879 -4.61139e-20)
(1.02074 -0.0858739 1.55587e-22)
(1.05072 -0.173373 -1.97245e-20)
(1.28465 -0.326612 5.85264e-23)
(1.45361 -0.148177 -1.64026e-23)
(1.47581 -0.0114169 -2.35179e-23)
(1.45316 0.0605833 5.81417e-21)
(1.42922 0.0982595 2.20206e-23)
(1.4067 0.118283 8.89167e-20)
(1.38403 0.12757 -1.31368e-19)
(1.36219 0.130579 0)
(1.34291 0.130217 4.06191e-20)
(1.32735 0.128078 -9.34562e-25)
(1.31591 0.124991 7.51799e-20)
(1.30832 0.121376 9.03966e-24)
(1.30315 0.117345 8.30822e-24)
(1.29631 0.112496 3.3605e-20)
(1.27897 0.105781 -3.88937e-24)
(1.23682 0.0957201 -3.188e-20)
(1.15401 0.0813662 -1.61157e-20)
(1.02162 0.0635191 0)
(0.844801 0.0445293 0)
(0.641739 0.0272015 0)
(0.258506 0.00520255 6.82355e-24)
(0.139937 0.00275802 0)
(0.142374 0.000743495 2.88426e-21)
(0.0856831 0.000359652 0)
(0.0867144 0.000439966 0)
(0.0876791 0.000798172 0)
(0.0884454 0.000255653 8.15744e-22)
(0.0507686 0.000402831 0)
(0.0516954 0.000277423 -2.66649e-22)
(0.0524345 0.000278307 0)
(0.0526526 0.000140583 1.75745e-22)
(0.0165605 2.31418e-05 1.21874e-22)
(0.016792 1.88923e-06 -2.11987e-22)
(0.0163794 -6.11493e-05 -2.96463e-23)
(0.0157632 -0.000338128 9.27336e-22)
(0.436293 0.0136435 1.16821e-20)
(1.0032 -0.0293371 9.50591e-20)
(1.01174 -0.0914259 -1.70085e-22)
(1.04044 -0.209329 0)
(1.29607 -0.395185 1.48922e-21)
(1.45556 -0.157881 0)
(1.45447 -0.00922758 -2.88064e-23)
(1.42979 0.0653237 -9.8996e-20)
(1.41639 0.103765 0)
(1.40497 0.123955 -2.28219e-23)
(1.38954 0.133036 8.70644e-20)
(1.37079 0.135625 -3.97705e-23)
(1.35141 0.134718 -4.00743e-20)
(1.33367 0.131977 0)
(1.31899 0.128306 -7.7241e-23)
(1.30802 0.124221 -8.92586e-24)
(1.30063 0.11999 3.42592e-20)
(1.29526 0.115551 -8.25984e-24)
(1.28752 0.110349 3.18358e-20)
(1.26824 0.10324 3.11213e-20)
(1.22332 0.0928462 0)
(1.13792 0.0785356 0)
(1.00451 0.0611283 0)
(0.828961 0.0427891 0)
(0.629538 0.0261636 0)
(0.252196 0.00492899 -1.32728e-20)
(0.13492 0.00256483 0)
(0.136742 0.000723183 1.41513e-21)
(0.0638501 0.000517164 2.19823e-22)
(0.0652878 3.16449e-05 -2.12254e-22)
(0.0485315 -0.000469784 -8.94246e-23)
(0.0495167 3.61716e-05 -1.25677e-25)
(0.0496981 0.000213856 8.7454e-23)
(0.0500129 0.00012341 -4.38583e-22)
(0.0157015 2.95086e-05 -3.02298e-23)
(0.0161059 1.55242e-05 -3.03498e-23)
(0.0163691 1.65797e-05 0)
(0.0163796 -4.24772e-06 -1.21451e-22)
(0.430392 0.0133341 0)
(1.00293 -0.0287974 -4.83838e-20)
(0.99938 -0.0928377 0)
(1.01359 -0.239088 4.22527e-20)
(1.25987 -0.454611 -1.44629e-21)
(1.38363 -0.158432 2.96608e-23)
(1.34351 0.000922218 -1.36002e-19)
(1.32958 0.0722972 8.19611e-23)
(1.34555 0.109839 -5.21323e-23)
(1.36338 0.129692 0)
(1.37035 0.138662 8.9861e-20)
(1.3662 0.141046 -3.97866e-23)
(1.35459 0.139736 -7.97742e-20)
(1.33951 0.136432 3.80768e-20)
(1.32418 0.132137 -7.2838e-23)
(1.31076 0.127465 0)
(1.30044 0.122771 -3.39059e-20)
(1.2933 0.118175 3.62643e-25)
(1.28775 0.113468 -3.15187e-20)
(1.27907 0.107978 3.79288e-24)
(1.25786 0.100565 2.9552e-20)
(1.21036 0.0900475 0)
(1.12277 0.0759166 0)
(0.988738 0.0589621 0)
(0.814851 0.0412909 -1.66067e-20)
(0.619723 0.02548 -1.85795e-20)
(0.250461 0.0047298 3.20787e-21)
(0.131498 0.00245982 3.07555e-21)
(0.13235 0.000621709 -3.42429e-22)
(0.0612553 0.000464659 0)
(0.0623741 0.000142089 -1.21419e-21)
(0.0143957 0.00019976 -3.2025e-23)
(0.0145434 -0.000120766 6.37506e-23)
(0.0146555 -0.000249994 -6.50199e-23)
(0.0147698 0.000151805 -4.90062e-26)
(0.0149915 -0.000215787 5.89843e-23)
(0.0154179 -2.94309e-05 2.96472e-23)
(0.0154251 1.38196e-05 -5.94039e-23)
(0.0154594 -6.10381e-06 5.96502e-23)
(0.42755 0.0134524 2.15051e-20)
(1.00198 -0.0265964 0)
(0.984769 -0.0901774 -5.79975e-20)
(0.958301 -0.249623 -6.6574e-20)
(1.13979 -0.498664 -5.30176e-21)
(1.18174 -0.150747 5.03861e-21)
(1.08944 0.0168003 1.56381e-19)
(1.11229 0.0785593 -7.13331e-23)
(1.1832 0.113522 -5.93585e-23)
(1.25288 0.133029 4.84271e-23)
(1.30231 0.142602 -9.27305e-20)
(1.32981 0.145644 -4.05128e-23)
(1.33939 0.144596 7.99479e-20)
(1.33659 0.141124 3.78026e-20)
(1.32683 0.136385 -3.60998e-20)
(1.31451 0.131153 0)
(1.30271 0.125902 1.5872e-23)
(1.29322 0.120872 0)
(1.2864 0.116062 3.08701e-20)
(1.28061 0.111166 0)
(1.27091 0.105469 -2.90786e-20)
(1.24783 0.0979132 -3.52549e-24)
(1.19802 0.087416 0)
(1.10862 0.0735181 0)
(0.974338 0.0570621 1.48299e-20)
(0.802516 0.0401288 1.60242e-20)
(0.611908 0.0251193 1.79269e-20)
(0.255458 0.00517338 -3.00777e-20)
(0.133887 0.00230066 1.04683e-20)
(0.131036 0.00036898 -5.34715e-21)
(0.0593557 0.000434136 -2.22473e-21)
(0.0600584 0.000128017 -7.01969e-23)
(0.0137533 0.000189862 -3.12874e-23)
(0.0138787 -0.00012658 3.11819e-23)
(0.0140993 -0.000176036 6.31895e-23)
(0.0141078 0.000151011 0)
(0.424101 0.0132121 0)
(1.00047 -0.0226579 0)
(0.967422 -0.0809102 -5.0867e-21)
(0.944491 -0.182874 2.09997e-20)
(0.921185 -0.183101 2.40246e-20)
(0.971054 -0.57476 9.19634e-21)
(0.866264 -0.563631 1.90089e-20)
(0.871004 -0.308649 2.56966e-20)
(1.07472 -0.205197 1.43552e-19)
(0.912682 -0.483228 5.91429e-23)
(0.789903 -0.138769 -8.92992e-20)
(0.65782 0.0325771 0)
(0.636105 0.00916138 -6.92078e-20)
(0.763395 0.0796232 1.54316e-22)
(0.91427 0.109593 1.28312e-22)
(1.0531 0.12989 -5.47403e-23)
(1.16232 0.141643 -3.92649e-24)
(1.23929 0.14706 4.2505e-23)
(1.28685 0.147723 -8.20402e-20)
(1.31058 0.145118 -6.7681e-23)
(1.31727 0.140568 0)
(1.31349 0.1351 3.41035e-20)
(1.3047 0.129397 0)
(1.29486 0.123864 -1.57835e-23)
(1.28636 0.118668 -3.05222e-20)
(1.27987 0.113743 2.9321e-20)
(1.27378 0.108737 -6.81133e-24)
(1.26304 0.102957 2.75368e-20)
(1.2382 0.0953837 0)
(1.18635 0.0849762 0)
(1.09548 0.0713752 0)
(0.961277 0.0554731 -1.41936e-20)
(0.79168 0.0392318 -1.54499e-20)
(0.604425 0.0245059 0)
(0.256931 0.00539765 0)
(0.147411 0.00226151 0)
(0.140995 0.00157394 9.8165e-21)
(0.0621136 5.70447e-05 -1.33567e-20)
(0.0591131 -5.10473e-06 0)
(0.0132159 0.00017746 -3.06582e-23)
(0.0133019 -0.000124802 -2.86091e-25)
(0.0134901 -0.000171065 6.17737e-23)
(0.0135119 0.000147406 3.06099e-23)
(0.418219 0.0130594 0)
(0.998798 -0.017021 -5.10821e-22)
(0.952822 -0.0645376 6.47466e-20)
(0.896519 -0.168596 -2.40134e-20)
(0.874282 -0.15205 -2.91005e-20)
(0.828841 -0.283912 4.62875e-22)
(0.765589 -0.548653 -2.89254e-20)
(0.65452 -0.511382 -8.24434e-22)
(0.835256 -0.616539 1.0502e-21)
(0.594338 -0.189888 2.5057e-20)
(0.263232 -0.101704 -2.04008e-21)
(0.449794 -0.26808 3.49448e-21)
(0.2215 -0.00735205 -4.11846e-21)
(0.275826 0.0264865 -3.29649e-20)
(0.476397 0.014678 3.71806e-20)
(0.302013 0.0545964 1.11804e-19)
(0.345076 0.0715029 5.12809e-20)
(0.199758 0.0113491 -1.07919e-19)
(0.27862 0.0120941 -1.04273e-22)
(0.573854 0.092435 -1.85454e-22)
(0.774998 0.115523 -1.44412e-22)
(0.944688 0.131783 5.92314e-23)
(1.07938 0.141943 -9.6725e-23)
(1.17807 0.146512 8.67349e-20)
(1.24328 0.146581 -7.85137e-20)
(1.28052 0.143539 0)
(1.29688 0.138677 -3.41613e-20)
(1.29956 0.132983 -8.14915e-25)
(1.29475 0.127131 0)
(1.28717 0.12151 0)
(1.2798 0.116264 -2.90285e-20)
(1.27366 0.11131 0)
(1.26724 0.106298 -2.72026e-20)
(1.25547 0.100538 3.28372e-24)
(1.22902 0.0930147 0)
(1.17537 0.0827646 3.07356e-24)
(1.08331 0.0695168 -1.29591e-20)
(0.94939 0.0541359 0)
(0.781557 0.0382644 0)
(0.596048 0.0240165 0)
(0.253198 0.00543393 0)
(0.148444 0.00296881 2.39504e-21)
(0.148747 0.00121376 0)
(0.0823621 0.00057384 2.02707e-21)
(0.0740802 0.000676349 6.28485e-23)
(0.0158645 0.000514484 4.76319e-21)
(0.0140114 -0.000329606 -6.64272e-23)
(0.0129839 -0.000199208 -3.03402e-23)
(0.013273 0.000117446 9.22993e-23)
(0.410973 0.0128839 0)
(0.997122 -0.0100495 6.22619e-20)
(0.94295 -0.0416209 5.2447e-22)
(0.854426 -0.127498 2.94472e-20)
(0.838617 -0.10055 6.09789e-22)
(0.777401 -0.266204 -3.471e-20)
(0.727979 -0.235272 7.282e-20)
(0.694563 -0.448041 4.18182e-23)
(0.742096 -0.46159 9.18871e-21)
(0.470765 -0.456996 -1.36008e-21)
(0.529095 -0.45135 5.78712e-23)
(0.617403 -0.579137 9.62181e-21)
(0.281691 -0.249411 0)
(0.070976 0.0212878 -2.1479e-20)
(0.122734 0.0115998 9.18039e-23)
(0.0634581 0.0247953 -9.78414e-20)
(0.11901 0.0472661 9.67554e-20)
(0.261767 0.0600163 0)
(0.128816 0.0267513 -9.17624e-20)
(0.0473182 0.000632717 8.58833e-20)
(0.475435 0.0874254 0)
(0.676815 0.11016 0)
(0.856471 0.127152 0)
(1.00566 0.137903 1.38998e-22)
(1.12003 0.142899 -3.95719e-23)
(1.19994 0.143323 0)
(1.24963 0.14057 0)
(1.2756 0.135895 3.24758e-23)
(1.28504 0.130313 -1.53962e-23)
(1.2846 0.124528 -2.93505e-20)
(1.27957 0.118957 0)
(1.27347 0.11376 0)
(1.26771 0.10887 -6.37572e-24)
(1.26097 0.103939 -6.18936e-24)
(1.24825 0.0982585 0)
(1.22031 0.0908451 0)
(1.16506 0.0808067 2.46429e-20)
(1.07203 0.0679045 0)
(0.938289 0.0528634 0)
(0.771406 0.0374407 0)
(0.587023 0.0236491 -1.6293e-20)
(0.247713 0.00525477 1.38742e-21)
(0.14523 0.00289969 2.33609e-21)
(0.146741 0.00138179 0)
(0.0826266 0.000910834 -2.24546e-21)
(0.0832631 0.000484295 -2.83505e-22)
(0.0390776 0.000328995 0)
(0.0381465 -1.24912e-05 -1.34087e-21)
(0.0243379 0.00167557 -1.61235e-20)
(0.0357679 0.000141179 0)
(0.403298 0.012711 9.51031e-21)
(0.995685 -0.00243249 -1.249e-19)
(0.934008 -0.0134012 -3.04248e-21)
(0.827278 -0.0731923 0)
(0.820163 -0.0520944 -4.30707e-20)
(0.688742 -0.186786 -4.00901e-20)
(0.660486 -0.128905 -6.39373e-22)
(0.637517 -0.423532 -1.19293e-20)
(0.581453 -0.394532 1.05996e-20)
(0.488902 -0.3189 1.41246e-20)
(0.530557 -0.358654 -1.27602e-20)
(0.543375 -0.570206 -2.47025e-22)
(0.412548 -0.452361 1.5746e-21)
(0.0201333 0.00683222 -4.68481e-20)
(-0.00229888 0.0102201 1.44173e-21)
(0.00609604 -0.0032998 -1.74974e-21)
(0.0195017 0.0147408 -5.66823e-20)
(0.071949 0.0215358 -1.26561e-22)
(0.23047 0.0501933 0)
(0.0458066 0.0136189 1.7618e-20)
(-0.000392499 -0.00936832 -5.49095e-20)
(0.00787455 0.000347971 2.41428e-20)
(0.414272 0.0781164 0)
(0.604648 0.101945 1.26961e-22)
(0.784205 0.119888 1.0395e-22)
(0.940261 0.131541 -5.00456e-23)
(1.06536 0.13747 4.06563e-23)
(1.15726 0.138772 -7.18771e-20)
(1.21823 0.136703 0)
(1.25355 0.132524 2.93707e-23)
(1.26995 0.127276 5.84458e-20)
(1.27418 0.121715 0)
(1.27195 0.116305 0)
(1.26728 0.111253 0)
(1.26199 0.106508 6.32523e-24)
(1.25498 0.101711 2.32792e-25)
(1.24135 0.0961585 0)
(1.21204 0.0889014 0)
(1.15537 0.0790859 0)
(1.06144 0.0664394 0)
(0.927552 0.0517709 0)
(0.761179 0.0368208 3.26134e-23)
(0.577831 0.0233567 -7.88253e-21)
(0.241909 0.0051302 1.34622e-21)
(0.141317 0.00273124 -2.27791e-21)
(0.142986 0.00124889 0)
(0.080282 0.000844975 -2.2008e-21)
(0.0814962 0.000530197 0)
(0.0382486 0.00044226 0)
(0.0385824 -5.24463e-06 3.38197e-22)
(0.0389182 -0.000111898 6.78898e-22)
(0.0389947 0.000348399 -3.39354e-22)
(0.0120736 4.7616e-05 -2.5446e-23)
(0.0118617 -6.79251e-05 -8.06626e-22)
(0.00667734 0.000466191 6.34364e-21)
(0.0113936 -0.000262774 0)
(0.395639 0.012603 0)
(0.994534 0.00512603 6.25156e-20)
(0.93566 0.0183513 -7.83821e-20)
(0.752179 0.061581 3.53411e-20)
(0.641005 -0.0613359 0)
(0.636446 0.0216354 0)
(0.455551 -0.269782 0)
(0.4271 -0.216286 1.83583e-20)
(0.384355 -0.102309 0)
(0.403403 -0.159925 -1.8494e-20)
(0.404626 -0.502068 2.23887e-20)
(0.317119 -0.405198 -1.93849e-20)
(0.208143 -0.329342 -1.84551e-20)
(0.262738 -0.37569 -4.14751e-22)
(0.341197 -0.4454 1.22571e-21)
(-0.010634 0.00435833 -2.5727e-20)
(0.0019927 0.000126146 0)
(0.00676162 0.00902559 7.42761e-23)
(0.072543 0.0178921 -5.4104e-20)
(0.0145908 0.000366945 1.81567e-20)
(0.205218 0.0433167 2.04175e-19)
(0.0158836 0.0024335 -8.76598e-23)
(0.0116205 0.00684545 1.59689e-22)
(-0.00728635 -0.00233618 1.30722e-20)
(0.000330491 -0.000249685 9.30701e-22)
(0.370282 0.0699947 0)
(0.548423 0.0933885 -1.33011e-22)
(0.723369 0.111599 1.06754e-19)
(0.881658 0.124075 -2.7894e-24)
(1.01387 0.131104 7.79735e-20)
(1.11545 0.133449 1.85428e-24)
(1.18651 0.132271 0)
(1.23081 0.128772 -2.95412e-20)
(1.25425 0.124013 0)
(1.26341 0.118798 0)
(1.26423 0.113651 -2.56349e-20)
(1.26118 0.108823 0)
(1.25646 0.104277 5.80365e-24)
(1.24924 0.099655 5.86332e-24)
(1.23478 0.0942673 0)
(1.20421 0.0871848 -2.25849e-20)
(1.14623 0.0775563 0)
(1.0513 0.0651875 0)
(0.917061 0.0509314 2.95148e-23)
(0.751071 0.0363631 0)
(0.568767 0.0231647 0)
(0.23614 0.0050877 0)
(0.137394 0.00266445 -2.2146e-21)
(0.13906 0.0011974 0)
(0.0778197 0.000770064 -3.59626e-22)
(0.0789942 0.000460685 2.38722e-22)
(0.0368532 0.000419255 0)
(0.0371972 -2.3873e-05 4.13382e-22)
(0.0377508 -0.000103473 -8.32128e-23)
(0.037621 0.000341316 7.75449e-25)
(0.0117414 5.79685e-05 0)
(0.0119206 -2.49406e-05 0)
(0.01202 -3.97447e-05 2.57209e-23)
(0.0120542 4.84634e-05 0)
(0.388327 0.0125715 0)
(0.993753 0.0121633 0)
(0.942201 0.0457087 3.45136e-21)
(0.803503 0.133926 9.47968e-22)
(0.384357 0.261123 -1.98793e-20)
(0.507443 0.349323 -2.12325e-21)
(0.372031 -0.0431322 0)
(0.371221 0.014075 0)
(0.414035 0.126386 1.89412e-21)
(0.384016 0.0725836 0)
(0.166122 -0.269655 -1.59483e-21)
(0.1349 -0.202915 -1.61159e-21)
(0.0983244 -0.0676522 -2.64232e-20)
(0.112592 -0.135024 2.51885e-20)
(0.155645 -0.267279 -1.36138e-21)
(-0.00943684 -0.0008632 -1.49942e-20)
(-0.00291826 -0.00185544 0)
(0.00316599 3.40055e-05 -1.47106e-22)
(-0.00124307 0.00243082 1.29796e-20)
(-5.51271e-05 5.30105e-06 -1.42296e-20)
(0.0161444 0.00803805 -1.57021e-20)
(0.0662529 0.0154252 -2.04292e-19)
(0.0173761 2.10764e-05 8.33463e-20)
(0.000930421 0.000233371 -1.27853e-20)
(0.00252294 -0.00193184 -2.00017e-20)
(0.185261 0.0385036 0)
(0.000798905 -0.00112294 -1.63068e-20)
(0.3355 0.0628517 0)
(0.501969 0.0850301 -2.52941e-19)
(0.67064 0.103129 4.91706e-23)
(0.828499 0.116287 8.7039e-20)
(0.965235 0.124287 0)
(1.07455 0.127704 3.34595e-23)
(1.1546 0.1275 0)
(1.20744 0.124793 -5.5073e-23)
(1.23793 0.120635 0)
(1.25222 0.115869 2.2317e-22)
(1.25636 0.11107 0)
(1.25511 0.106524 1.14144e-23)
(1.25109 0.102215 -2.30671e-20)
(1.24374 0.0978001 -5.40379e-24)
(1.22851 0.0925968 2.2083e-20)
(1.19677 0.0856804 0)
(1.13748 0.0762605 -2.17128e-20)
(1.04152 0.0642159 2.22962e-20)
(0.90687 0.0503236 0)
(0.741234 0.0360683 0)
(0.560111 0.0230945 0)
(0.230595 0.00508917 0)
(0.133529 0.00263894 0)
(0.135165 0.00120275 -1.08877e-21)
(0.0754366 0.000748514 1.16489e-22)
(0.0765837 0.000443628 1.17042e-22)