/*--------------------------------*- C++ -*----------------------------------*\
| =========                 |                                                 |
| \\      /  F ield         | OpenFOAM: The Open Source CFD Toolbox           |
|  \\    /   O peration     | Version:  v1912                                 |
|   \\  /    A nd           | Website:  www.openfoam.com                      |
|    \\/     M anipulation  |                                                 |
\*---------------------------------------------------------------------------*/
FoamFile
{
    version     2.0;
    format      ascii;
    class       volScalarField;
    location    "40";
    object      p;
}
// * * * * * * * * * * * * * * * * * * * * * * * * * * * * * * * * * * * * * //

dimensions      [0 2 -2 0 0 0 0];


internalField   nonuniform List<scalar> 
3673
(
0.0662101
0.0485594
-0.00244411
0.0485325
0.00580354
-0.0272135
0.0631122
0.0273038
-0.0127252
-0.0113308
0.0799054
0.0486402
0.00776738
-0.00497945
0.00439114
0.0958625
0.0670628
0.0301771
0.00632945
0.00651527
0.0134724
0.111095
0.0843814
0.0524218
0.0236307
0.0125054
0.0142488
0.0181128
0.125512
0.10124
0.073802
0.0448395
0.0243493
0.0176087
0.0184805
0.019565
0.138824
0.117477
0.0941505
0.067215
0.0416665
0.0254516
0.0203295
0.0199081
0.0186556
0.150734
0.132845
0.113609
0.0895361
0.0622034
0.0385779
0.0252302
0.0209163
0.0190975
0.0161856
0.160906
0.147072
0.132289
0.111645
0.084335
0.0559227
0.0343589
0.0237005
0.0196884
0.0167402
0.0127442
0.168993
0.159795
0.150105
0.133624
0.107504
0.0760838
0.0475899
0.0293298
0.0211016
0.0171582
0.0133966
0.00871249
0.174632
0.170595
0.166753
0.155466
0.131678
0.0983511
0.064026
0.0381243
0.0241177
0.0178168
0.0137638
0.00943574
0.00434534
0.177508
0.179006
0.181772
0.176961
0.156959
0.122661
0.0830036
0.0496227
0.0291185
0.0192671
0.0140632
0.00978741
0.00512169
-0.000126983
0.177363
0.184562
0.194548
0.197678
0.183371
0.149308
0.104407
0.0632263
0.0358542
0.0218319
0.0147059
0.00989169
0.00547826
0.000687403
-0.00455336
0.174066
0.186822
0.204341
0.216913
0.210764
0.178733
0.128615
0.0786048
0.0437341
0.0254011
0.0159732
0.0100739
0.00547
0.00105994
-0.00370317
-0.00878441
0.167636
0.18545
0.210311
0.233642
0.23868
0.211437
0.156383
0.0957558
0.0521156
0.029519
0.0178552
0.0105602
0.00535669
0.0010079
-0.00329016
-0.00790493
-0.0127491
0.158288
0.180285
0.211622
0.246429
0.266177
0.247879
0.188874
0.114945
0.0603446
0.0335792
0.0200703
0.0113793
0.0053221
0.000751028
-0.00333056
-0.00744792
-0.0118316
-0.0163878
0.146419
0.171422
0.207612
0.253434
0.291477
0.288348
0.22772
0.13672
0.0676312
0.0368954
0.0221979
0.0123521
0.00540081
0.000433202
-0.00363127
-0.00744956
-0.0113061
-0.0154187
-0.0197321
0.132594
0.159243
0.19805
0.252652
0.311275
0.332793
0.275046
0.161913
0.0729328
0.0386842
0.0237813
0.0131709
0.00546587
9.31611e-05
-0.00406062
-0.00773517
-0.0112406
-0.0147968
-0.0186947
-0.0228238
0.117472
0.144416
0.183277
0.242646
0.320208
0.379284
0.334126
0.191249
0.0745243
0.0380941
0.0243215
0.013503
0.00529137
-0.00034743
-0.0045802
-0.00818888
-0.0114813
-0.0146327
-0.0179458
-0.0217192
-0.0256765
0.101744
0.127797
0.164285
0.223294
0.313138
0.416756
0.412007
0.226214
0.0689155
0.0342113
0.023341
0.0130166
0.0046473
-0.00104685
-0.0052414
-0.00876606
-0.0119108
-0.0147973
-0.0176425
-0.0208374
-0.0245294
-0.0282217
0.0860419
0.110317
0.14256
0.196094
0.288189
0.422026
0.510828
0.273292
0.0533286
0.0252008
0.0205287
0.0113758
0.0033482
-0.00215079
-0.00614893
-0.00949148
-0.0124697
-0.0151714
-0.0176984
-0.020379
-0.0235636
-0.0270844
-0.0303131
0.0709043
0.092812
0.119793
0.164082
0.246566
0.391557
0.520107
0.540489
0.419329
0.618651
0.501706
0.0673914
0.224043
0.044418
0.011226
0.0174177
0.0153592
0.00847754
0.00128351
-0.00373434
-0.00739371
-0.0104376
-0.013162
-0.0156802
-0.0179976
-0.0203066
-0.0229952
-0.0261279
-0.0292378
-0.0318021
0.0567349
0.0759525
0.0974422
0.130988
0.194576
0.322067
0.530105
0.486555
0.646652
0.587369
0.634326
0.526274
0.335744
0.313977
0.0561502
0.0597989
0.231561
0.00768463
0.00799855
0.0126256
0.00690393
-0.00021979
0.0046673
-0.00148174
-0.00576822
-0.00900359
-0.0116565
-0.0140252
-0.0163028
-0.0184446
-0.0205153
-0.0228136
-0.0255509
-0.0283927
-0.0308322
-0.0326083
0.0438321
0.0602112
0.0764988
0.0996468
0.141779
0.230415
0.435688
0.361968
0.647251
0.540499
0.57016
0.690683
0.66611
0.553518
0.467489
0.0203748
0.0616856
-0.0109645
0.00585169
0.0015792
0.000351106
0.000304774
-0.00419755
-0.00265145
-0.0043004
-0.00805882
-0.0109029
-0.0131432
-0.0150688
-0.017055
-0.0189977
-0.0208871
-0.0229234
-0.0253352
-0.0279436
-0.0301639
-0.0317632
-0.0327962
0.0323836
0.0459075
0.0574962
0.0716061
0.0948505
0.144438
0.282596
0.180184
0.493791
0.402918
0.709093
0.706537
0.65097
0.590401
0.648861
-0.00673459
-0.00412607
-0.0176588
-0.00568791
-0.00425801
-0.00392607
-0.00639647
-0.00679473
-0.00681205
-0.00843489
-0.00642079
-0.0101091
-0.0129216
-0.0148132
-0.016245
-0.017928
-0.0196536
-0.0213555
-0.023198
-0.0253777
-0.027815
-0.0299361
-0.0312865
-0.0320776
-0.0325506
0.0225144
0.0332289
0.0406696
0.0473972
0.0564256
0.0699275
0.0715494
0.303062
0.192674
0.568021
0.481388
0.271969
0.375683
0.681665
0.64057
-0.0101681
-0.0102698
-0.00747892
-0.00831285
-0.00675984
-0.00769491
-0.0113433
-0.0103151
-0.00842754
-0.00930119
-0.00858177
-0.0113157
-0.00956575
-0.0146302
-0.0165416
-0.0174178
-0.0188692
-0.0204051
-0.0219093
-0.0235591
-0.0255501
-0.027863
-0.0300028
-0.0313122
-0.0317631
-0.0319454
-0.0321054
0.0142805
0.0222862
0.0260811
0.0269291
0.0257891
0.0167602
-0.0312575
-0.167659
-0.233547
0.264657
0.105927
0.0217217
0.0605084
-0.00958633
-0.0101113
-0.00851279
-0.00889466
-0.00922169
-0.0114874
-0.0155809
-0.0139927
-0.0112074
-0.00984992
-0.00922892
-0.0106427
-0.00996585
-0.0183075
-0.0184105
-0.0197755
-0.021215
-0.0225428
-0.0239875
-0.0257767
-0.0279578
-0.0301568
-0.0316347
-0.0319999
-0.0317454
-0.0315994
-0.0316446
0.00771087
0.0131224
0.01372
0.00988899
0.00137916
-0.0191364
-0.0832666
-0.401165
-0.135438
-0.445446
-0.509999
-0.623941
0.234212
-0.0718744
-0.180279
-0.00959443
-0.0097711
-0.00993383
-0.0106435
-0.0124883
-0.0150894
-0.0199796
-0.0176199
-0.0145076
-0.0122854
-0.0113921
-0.0104964
-0.00992698
-0.0191167
-0.0205132
-0.0220115
-0.0232318
-0.02449
-0.0260589
-0.0280534
-0.0302525
-0.0319793
-0.0325643
-0.0321177
-0.0314706
-0.0312137
-0.0312416
0.00279466
0.00575059
0.00351971
-0.00404796
-0.0179036
-0.0449649
-0.111355
-0.343347
-1.04635
-0.904999
-0.206964
-0.703131
-0.885314
-0.809174
-0.0105251
-0.0111037
-0.0127581
-0.013706
-0.0157662
-0.0192508
-0.0197072
-0.022394
-0.0175115
-0.0155
-0.0144688
-0.0126426
-0.0118156
-0.0210663
-0.0227411
-0.0239348
-0.0250637
-0.026427
-0.0281871
-0.0302705
-0.0321748
-0.0331431
-0.0328607
-0.0319001
-0.0311319
-0.0308748
-0.0308975
-0.000483864
0.000148987
-0.00459763
-0.0151987
-0.0328895
-0.0638827
-0.12977
-0.299314
-0.845073
-1.26503
-1.03732
-0.960263
-1.0503
-0.0131781
-0.0139946
-0.0159119
-0.0169664
-0.0191495
-0.0197279
-0.0216664
-0.0208025
-0.0245803
-0.0184899
-0.0173888
-0.0157401
-0.0148147
-0.0233567
-0.0246061
-0.025687
-0.0269002
-0.0284291
-0.0303054
-0.032225
-0.0335386
-0.0336625
-0.0327374
-0.0315753
-0.0308302
-0.0305733
-0.0305411
-0.0021651
-0.00370853
-0.0107221
-0.0238357
-0.0443299
-0.0775274
-0.140976
-0.272302
-0.663308
-0.963551
-1.13154
-1.1398
-1.03084
-0.0163174
-0.0172125
-0.0185295
-0.0183795
-0.0196345
-0.0220481
-0.0239576
-0.0232136
-0.02112
-0.0203464
-0.0278944
-0.0187212
-0.0178672
-0.0252694
-0.0263595
-0.0274782
-0.0288269
-0.0304775
-0.0322654
-0.0337469
-0.0343137
-0.0337157
-0.0324408
-0.031264
-0.0305617
-0.0302503
-0.0301141
-0.00228596
-0.00586629
-0.0149302
-0.0301866
-0.0528162
-0.0872345
-0.147059
-0.255133
-0.528407
-0.8288
-0.83412
-1.00107
-1.0864
-1.11703
-1.07533
-0.0195522
-0.0177709
-0.0196718
-0.0202494
-0.022655
-0.0241212
-0.0259376
-0.025208
-0.0237189
-0.022037
-0.0213729
-0.0313508
-0.0270377
-0.028127
-0.0293635
-0.030857
-0.0324509
-0.0339173
-0.0347869
-0.03463
-0.0335188
-0.0321063
-0.0309864
-0.030269
-0.029843
-0.0295396
-0.000902206
-0.00636465
-0.0172952
-0.0344203
-0.0587815
-0.0939368
-0.150086
-0.242545
-0.439647
-0.691872
-0.785178
-0.742469
-0.83731
-0.893956
-0.985363
-1.02545
-1.08846
-0.0227252
-0.0233331
-0.0246508
-0.0260569
-0.0277731
-0.0270828
-0.025687
-0.024292
-0.023779
-0.028855
-0.0300075
-0.0314336
-0.0328798
-0.0342081
-0.0351933
-0.0354156
-0.0346358
-0.0332107
-0.0317829
-0.0306884
-0.0298804
-0.029289
-0.0288231
0.00193235
-0.00525672
-0.017875
-0.0366714
-0.0625239
-0.0982344
-0.151229
-0.232362
-0.381106
-0.58297
-0.709922
-0.725751
-0.694903
-0.736133
-0.77204
-0.819586
-0.852116
-0.880942
-0.915657
-0.986119
-1.02891
-0.0247006
-0.0252987
-0.026588
-0.0278499
-0.0295399
-0.0300927
-0.0275033
-0.0262777
-0.0257629
-0.0306612
-0.0320796
-0.0335339
-0.0347033
-0.0356447
-0.0361334
-0.0357125
-0.0344398
-0.0328416
-0.0314241
-0.0302904
-0.0293477
-0.0285927
-0.0279532
0.00614342
-0.00259296
-0.0167226
-0.0370271
-0.0642514
-0.100508
-0.151064
-0.223695
-0.341277
-0.502001
-0.629555
-0.684887
-0.685707
-0.651611
-0.682171
-0.705558
-0.726637
-0.744619
-0.75966
-0.782803
-0.817316
-0.849312
-0.878944
-0.910138
-0.026699
-0.0272515
-0.0278984
-0.0297955
-0.0313194
-0.0307249
-0.0336741
-0.0314605
-0.0281357
-0.0276872
-0.0326843
-0.0343255
-0.0353877
-0.0361752
-0.03683
-0.0367413
-0.0357007
-0.0340694
-0.0323884
-0.0309644
-0.0297561
-0.0286705
-0.0277554
-0.0269823
0.0116511
0.00156185
-0.0138794
-0.0355506
-0.064088
-0.101008
-0.149875
-0.216141
-0.313191
-0.442982
-0.560011
-0.630533
-0.660585
-0.647113
-0.614226
-0.639762
-0.659331
-0.679871
-0.693949
-0.709602
-0.725358
-0.74449
-0.75767
-0.781083
-0.0283419
-0.0288286
-0.0250547
-0.0305105
-0.0307063
-0.0314655
-0.0331504
-0.0324859
-0.031065
-0.0314331
-0.0308407
-0.0349646
-0.0361928
-0.0367028
-0.0374816
-0.0377028
-0.0369466
-0.0353894
-0.0335274
-0.0318097
-0.0303723
-0.0290836
-0.0278656
-0.0268183
-0.0259327
0.0183484
0.00713884
-0.00938626
-0.0322687
-0.0621045
-0.0998698
-0.147787
-0.209436
-0.292642
-0.399946
-0.504209
-0.577983
-0.622785
-0.633179
-0.612415
-0.58337
-0.604938
-0.620349
-0.638285
-0.657497
-0.673426
-0.698244
-0.685153
-0.708188
-0.72326
-0.740863
-0.751205
-0.0283896
-0.0310375
-0.0312022
-0.0317309
-0.0322302
-0.0331656
-0.0352289
-0.0342407
-0.0326388
-0.0330876
-0.0314923
-0.0317953
-0.0312745
-0.0371919
-0.0371231
-0.0380008
-0.0385326
-0.0381009
-0.0367287
-0.0347932
-0.0328046
-0.0310952
-0.0296609
-0.0282975
-0.0269649
-0.0258114
-0.0248682
0.0261088
0.014047
-0.00327935
-0.0271895
-0.0583118
-0.0971597
-0.144832
-0.203358
-0.277128
-0.368177
-0.460425
-0.532546
-0.582471
-0.608375
-0.60465
-0.582875
-0.554694
-0.574152
-0.588654
-0.603463
-0.618516
-0.633368
-0.64158
-0.660712
-0.651034
-0.696497
-0.706446
-0.0314019
-0.0315049
-0.0321526
-0.0325912
-0.0333571
-0.0338784
-0.0349159
-0.0382406
-0.0360688
-0.0342657
-0.0347804
-0.0329634
-0.0333524
-0.0317827
-0.0320467
-0.0373647
-0.0382748
-0.0391361
-0.0390617
-0.037981
-0.0361294
-0.0339517
-0.0319303
-0.0302816
-0.0288604
-0.0274334
-0.0260042
-0.0247836
-0.0238142
0.0347666
0.0221763
0.00439679
-0.0202935
-0.0526752
-0.092867
-0.140989
-0.197692
-0.265105
-0.344448
-0.426257
-0.494765
-0.545531
-0.578448
-0.588714
-0.578211
-0.5554
-0.529815
-0.546168
-0.559324
-0.572215
-0.586744
-0.597876
-0.60596
-0.620552
-0.614369
-0.0324111
-0.0328081
-0.0337124
-0.0341618
-0.0350209
-0.0356146
-0.0374838
-0.0376073
-0.0393173
-0.0358497
-0.0364628
-0.0345129
-0.0349505
-0.0332006
-0.0335526
-0.0383601
-0.0394868
-0.0397417
-0.0390276
-0.0374262
-0.0352271
-0.0329287
-0.03097
-0.0294196
-0.0280135
-0.0265155
-0.0250127
-0.0237614
-0.0228211
0.0441199
0.0313802
0.0135861
-0.0115471
-0.0451033
-0.0869162
-0.136202
-0.19228
-0.255598
-0.32658
-0.399679
-0.463836
-0.513727
-0.549079
-0.567354
-0.567785
-0.55323
-0.530954
-0.507232
-0.522187
-0.533608
-0.544322
-0.557717
-0.567199
-0.574238
-0.588693
-0.581425
-0.596498
-0.604483
-0.616617
-0.612791
-0.0339353
-0.0343352
-0.0353305
-0.0358242
-0.0367799
-0.0380077
-0.037846
-0.0384485
-0.0380214
-0.0406458
-0.0383295
-0.0360833
-0.0364258
-0.0347017
-0.0350981
-0.039599
-0.040105
-0.0397772
-0.0385629
-0.036543
-0.0341245
-0.031831
-0.0300023
-0.0285476
-0.0271281
-0.0255626
-0.0240212
-0.0227905
-0.0219049
0.0539144
0.0414726
0.0242033
-0.00090556
-0.0354576
-0.079145
-0.130355
-0.186985
-0.248015
-0.313115
-0.379117
-0.438727
-0.486947
-0.522805
-0.544925
-0.55269
-0.546831
-0.530176
-0.508977
-0.487675
-0.497261
-0.510326
-0.520802
-0.532237
-0.53961
-0.546452
-0.559465
-0.552919
-0.566048
-0.572965
-0.587331
-0.580288
-0.0355175
-0.0359654
-0.0367866
-0.0359422
-0.0377891
-0.0378965
-0.0385833
-0.03969
-0.0391404
-0.0382328
-0.0384086
-0.043111
-0.0363379
-0.0363072
-0.036583
-0.0402921
-0.0402524
-0.0394517
-0.0377804
-0.0354618
-0.0329498
-0.0307492
-0.0290652
-0.0276759
-0.026217
-0.0246009
-0.0230636
-0.0218894
-0.0210781
0.0638441
0.0522085
0.0361267
0.0116761
-0.0235429
-0.0693092
-0.123266
-0.181704
-0.242044
-0.303138
-0.363403
-0.418541
-0.464569
-0.500056
-0.523945
-0.535853
-0.536443
-0.526406
-0.508869
-0.488992
-0.485236
-0.47064
-0.501466
-0.509023
-0.516679
-0.522332
-0.533856
-0.52806
-0.538441
-0.546293
-0.558149
-0.551953
-0.0372932
-0.0361706
-0.0375427
-0.0380398
-0.0386456
-0.038942
-0.0396104
-0.0404354
-0.0401748
-0.0391886
-0.0394067
-0.0383449
-0.0385157
-0.0460065
-0.0405243
-0.0400674
-0.0388342
-0.0368224
-0.0343087
-0.0318025
-0.0297332
-0.028171
-0.0267957
-0.0252858
-0.0236491
-0.0221669
-0.0210725
-0.0203241
0.0735459
0.0632785
0.0491676
0.0262236
-0.00911354
-0.057053
-0.114649
-0.176302
-0.237565
-0.296163
-0.351747
-0.402589
-0.44602
-0.480547
-0.505157
-0.519397
-0.523973
-0.519399
-0.506726
-0.48922
-0.471606
-0.468986
-0.479898
-0.48886
-0.456132
-0.499015
-0.510179
-0.503629
-0.515681
-0.521324
-0.533725
-0.527109
-0.535778
-0.0387363
-0.0390256
-0.039594
-0.0399627
-0.0404172
-0.0408097
-0.0408961
-0.0401935
-0.0404229
-0.0392485
-0.0394168
-0.0405386
-0.0396804
-0.0380737
-0.0357906
-0.0331821
-0.0307261
-0.0287828
-0.0272938
-0.025895
-0.0243448
-0.0227452
-0.0213527
-0.0203278
-0.0196085
0.082608
0.0742929
0.063043
0.0427011
0.00811754
-0.0418809
-0.104093
-0.170612
-0.234623
-0.29204
-0.343704
-0.39038
-0.430896
-0.463948
-0.488563
-0.504153
-0.511163
-0.510269
-0.502019
-0.487994
-0.471755
-0.456646
-0.454971
-0.464468
-0.471242
-0.477911
-0.481439
-0.485478
-0.489765
-0.441982
-0.494965
-0.499946
-0.506155
-0.509668
-0.514847
-0.520338
-0.532208
-0.526098
-0.0397076
-0.0400706
-0.0404987
-0.0408276
-0.0409506
-0.0409547
-0.0413656
-0.0409918
-0.0411813
-0.0403054
-0.0404721
-0.0403113
-0.0391012
-0.0372218
-0.0347742
-0.0320992
-0.029709
-0.0278687
-0.0264097
-0.0249767
-0.0234308
-0.021916
-0.0206127
-0.0196249
-0.0188899
0.0905846
0.0847783
0.077341
0.0609646
0.0284492
-0.0231376
-0.0909783
-0.164383
-0.233408
-0.2909
-0.339105
-0.381632
-0.418926
-0.450041
-0.474047
-0.49029
-0.498868
-0.500358
-0.49533
-0.484735
-0.47076
-0.456469
-0.442655
-0.440744
-0.449941
-0.457189
-0.461859
-0.465687
-0.469541
-0.471769
-0.428547
-0.504814
-0.508788
-0.0406888
-0.0409928
-0.0411444
-0.0414317
-0.0412537
-0.0408624
-0.0415595
-0.0415385
-0.0417087
-0.0411649
-0.0412811
-0.0399246
-0.0384536
-0.036373
-0.0337527
-0.0310293
-0.0287172
-0.0269674
-0.0255118
-0.0240601
-0.0225731
-0.0211649
-0.0199274
-0.0189247
-0.0181362
0.0970297
0.0941838
0.0914793
0.0806974
0.052132
2.3723e-05
-0.0744091
-0.157242
-0.234347
-0.293155
-0.338025
-0.376222
-0.409972
-0.438702
-0.461542
-0.477825
-0.487373
-0.490483
-0.48766
-0.479734
-0.468221
-0.455354
-0.442578
-0.429607
-0.427044
-0.436017
-0.442806
-0.44729
-0.45096
-0.454399
-0.457903
-0.461295
-0.465078
-0.468551
-0.469322
-0.416444
-0.0413942
-0.0416413
-0.0415547
-0.0417987
-0.0412681
-0.0405671
-0.0414886
-0.041816
-0.0419217
-0.0417546
-0.0418406
-0.0393793
-0.037744
-0.0354693
-0.0326712
-0.0299319
-0.027752
-0.026071
-0.0246029
-0.0231777
-0.0217927
-0.0204854
-0.019257
-0.0181941
-0.0173306
0.101539
0.101916
0.104665
0.1013
0.079275
0.0285881
-0.053027
-0.148598
-0.23822
-0.299583
-0.340741
-0.374168
-0.403978
-0.42989
-0.451046
-0.466796
-0.476782
-0.481
-0.479745
-0.473733
-0.46426
-0.453075
-0.441564
-0.42991
-0.417693
-0.41495
-0.422864
-0.428789
-0.433513
-0.436981
-0.440114
-0.443454
-0.446812
-0.450448
-0.453656
-0.456976
-0.404103
-0.04185
-0.042044
-0.0416573
-0.0418203
-0.0410504
-0.0401037
-0.0411954
-0.0417797
-0.0418362
-0.042067
-0.0420728
-0.0387716
-0.0369908
-0.0344381
-0.0314467
-0.0288536
-0.0268257
-0.0251689
-0.023704
-0.0223565
-0.0210928
-0.0198393
-0.0185632
-0.0174147
-0.0164716
0.103806
0.107404
0.11591
0.12167
0.109726
0.0636149
-0.0248535
-0.137499
-0.246414
-0.311489
-0.347752
-0.375585
-0.400961
-0.423605
-0.442589
-0.457275
-0.467192
-0.47208
-0.471968
-0.467369
-0.459422
-0.449703
-0.439538
-0.429269
-0.418398
-0.405846
-0.402293
-0.410003
-0.416626
-0.420564
-0.423634
-0.425994
-0.429678
-0.433028
-0.436382
-0.439378
-0.442541
-0.391572
-0.0419868
-0.0420835
-0.041488
-0.0416033
-0.0406543
-0.039506
-0.0407681
-0.0415071
-0.0415387
-0.0420492
-0.0419971
-0.0380569
-0.0361074
-0.0330763
-0.0302145
-0.0278724
-0.0259188
-0.0242607
-0.0228444
-0.0216134
-0.0204464
-0.0191866
-0.0178237
-0.0165819
-0.0155772
0.110195
0.124144
0.139995
0.142517
0.106685
0.0126424
-0.122833
-0.261393
-0.330874
-0.359818
-0.380689
-0.400983
-0.419867
-0.436207
-0.44934
-0.458708
-0.463847
-0.464531
-0.461014
-0.454231
-0.44564
-0.436609
-0.427645
-0.418267
-0.407234
-0.393807
-0.389542
-0.397598
-0.403571
-0.405965
-0.410362
-0.413938
-0.41713
-0.419979
-0.423723
-0.424915
-0.42955
-0.379473
-0.0418379
-0.0418766
-0.0411312
-0.0412156
-0.0401176
-0.0386746
-0.0401945
-0.0410956
-0.0411101
-0.0417864
-0.0417083
-0.0374953
-0.0346243
-0.0316404
-0.0291684
-0.0269496
-0.024999
-0.0233698
-0.0220478
-0.0209347
-0.0198162
-0.018496
-0.0170283
-0.015707
-0.0146583
0.128433
0.153992
0.174545
0.160041
0.0633304
-0.104706
-0.287944
-0.360615
-0.378009
-0.389796
-0.404158
-0.418703
-0.431919
-0.443054
-0.451434
-0.456419
-0.457562
-0.454864
-0.449013
-0.441304
-0.433121
-0.425198
-0.4172
-0.407876
-0.395914
-0.381863
-0.37749
-0.384906
-0.391083
-0.396365
-0.402224
-0.407967
-0.410036
-0.41317
-0.416394
-0.419264
-0.422819
-0.423156
-0.3675
-0.0414874
-0.0414946
-0.04064
-0.0406938
-0.0393454
-0.038353
-0.0393254
-0.0405345
-0.0405331
-0.0413748
-0.0412741
-0.0360439
-0.032888
-0.0305591
-0.028238
-0.0260177
-0.0240846
-0.022522
-0.0213129
-0.0202912
-0.0191666
-0.0177498
-0.0161779
-0.0148031
0.161515
0.2007
0.219926
0.137833
-0.0814679
-0.334165
-0.40557
-0.403438
-0.403383
-0.410639
-0.420146
-0.429718
-0.43844
-0.445444
-0.449902
-0.451177
-0.449043
-0.443938
-0.436956
-0.429425
-0.422238
-0.415326
-0.407578
-0.397421
-0.384393
-0.369846
-0.365585
-0.37317
-0.378865
-0.383558
-0.390121
-0.394178
-0.397094
-0.403042
-0.400086
-0.406828
-0.409437
-0.412662
-0.415802
-0.355663
-0.0410076
-0.0409685
-0.0399487
-0.0399602
-0.0384126
-0.0373513
-0.0388941
-0.0396744
-0.039688
-0.0408098
-0.0406824
-0.0338041
-0.0318394
-0.0296458
-0.0272961
-0.0250881
-0.0231982
-0.0217214
-0.0206206
-0.0196518
-0.0184666
-0.0169356
-0.0152883
0.215618
0.270379
0.249212
-0.0379827
-0.407964
-0.474446
-0.436869
-0.422043
-0.420629
-0.424217
-0.429566
-0.435477
-0.440767
-0.444369
-0.445469
-0.443647
-0.439109
-0.432733
-0.425738
-0.419081
-0.41292
-0.406416
-0.398011
-0.386565
-0.372533
-0.357783
-0.353987
-0.361224
-0.366926
-0.372066
-0.378088
-0.381181
-0.385017
-0.390689
-0.387913
-0.344492
-0.0403271
-0.040226
-0.0389758
-0.0390214
-0.0391359
-0.0344887
-0.0367742
-0.0385622
-0.0381544
-0.0399599
-0.0398241
-0.0328502
-0.0309816
-0.0287027
-0.0263655
-0.0241818
-0.0223349
-0.0209542
-0.0199503
-0.0189796
-0.0176997
-0.0160654
-0.0143739
0.302412
0.306429
0.361325
0.116753
0.217281
0.371145
-0.387434
-0.104354
-0.444971
-0.561585
-0.582925
-0.478892
-0.445877
-0.434341
-0.430888
-0.431401
-0.434106
-0.437383
-0.43985
-0.440508
-0.438762
-0.434609
-0.428718
-0.422171
-0.415921
-0.410271
-0.404635
-0.397662
-0.387942
-0.375102
-0.360363
-0.346195
-0.343169
-0.350021
-0.355403
-0.360125
-0.36587
-0.369817
-0.372706
-0.379004
-0.375893
-0.379579
-0.334547
-0.0394506
-0.0393367
-0.0412253
-0.0371925
-0.0354481
-0.0336136
-0.0350405
-0.0369375
-0.0368609
-0.0391719
-0.0380177
-0.032084
-0.0300455
-0.0277894
-0.0254667
-0.0232691
-0.0214761
-0.0202122
-0.0192707
-0.0182535
-0.0168653
-0.0151501
0.394387
0.412597
0.430707
0.316739
0.0775836
0.0406592
-0.386154
-0.365356
-0.160194
-0.659491
-0.495415
-0.596616
-0.524499
-0.597326
-0.472871
-0.451587
-0.439949
-0.435101
-0.434235
-0.435227
-0.436324
-0.436316
-0.434446
-0.430514
-0.424986
-0.4188
-0.412869
-0.407574
-0.402514
-0.396575
-0.388371
-0.377046
-0.36303
-0.348359
-0.335638
-0.333649
-0.339684
-0.344781
-0.349185
-0.354433
-0.357987
-0.360776
-0.366452
-0.363656
-0.369211
-0.372144
-0.378341
-0.375139
-0.325694
-0.0439846
-0.0360945
-0.0358259
-0.0343923
-0.032878
-0.0341185
-0.0354831
-0.0352918
-0.0311344
-0.0291619
-0.0269251
-0.0245336
-0.0223068
-0.0206276
-0.019479
-0.0185559
-0.0174564
-0.0159607
0.484016
0.511677
0.474068
0.405273
0.14678
0.126822
0.376306
-0.151849
-0.405261
-0.299696
-0.704869
-0.636946
-0.64973
-0.561405
-0.497159
-0.545024
-0.608449
-0.4696
-0.450794
-0.440362
-0.435748
-0.434206
-0.433729
-0.432874
-0.430717
-0.426873
-0.421605
-0.415697
-0.410009
-0.40496
-0.400272
-0.395025
-0.387974
-0.378111
-0.365289
-0.350778
-0.337118
-0.326181
-0.324823
-0.330488
-0.33525
-0.339069
-0.344078
-0.347213
-0.349824
-0.354994
-0.352325
-0.357437
-0.360211
-0.365891
-0.363098
-0.317898
-0.034748
-0.034675
-0.0335329
-0.0319255
-0.0332742
-0.0344099
-0.0343209
-0.0302535
-0.0283816
-0.0259961
-0.0234618
-0.0213212
-0.0197932
-0.0187305
-0.0177793
-0.0165751
0.511609
0.548508
0.585499
0.572136
0.476013
0.247084
0.0673654
-0.669403
-0.674787
-0.670647
-0.575116
-0.524782
-0.481631
-0.511233
-0.548977
-0.615876
-0.633863
-0.461424
-0.446582
-0.438417
-0.434214
-0.431976
-0.430126
-0.427558
-0.423702
-0.41862
-0.412931
-0.407419
-0.402528
-0.398069
-0.39326
-0.387011
-0.37834
-0.36682
-0.353046
-0.338968
-0.326926
-0.317908
-0.317556
-0.320156
-0.326149
-0.330208
-0.334743
-0.337319
-0.340024
-0.344676
-0.342236
-0.346731
-0.349256
-0.354411
-0.351814
-0.311138
-0.0338611
-0.033836
-0.0326311
-0.0309021
-0.032352
-0.0335794
-0.0334812
-0.0296838
-0.027398
-0.0248426
-0.0223042
-0.0203441
-0.0189578
-0.0179376
-0.0169196
0.50268
0.554719
0.619099
0.601192
0.448876
-0.592111
-0.579422
-0.533408
-0.494266
-0.467882
-0.484893
-0.514977
-0.556551
-0.552397
-0.452564
-0.441781
-0.435106
-0.430978
-0.427999
-0.424926
-0.420986
-0.416037
-0.410531
-0.405154
-0.400356
-0.39602
-0.391474
-0.385753
-0.37796
-0.36759
-0.354832
-0.340943
-0.328073
-0.318017
-0.310871
-0.316489
-0.310968
-0.323028
-0.325933
-0.32863
-0.330993
-0.3355
-0.333144
-0.33687
-0.340204
-0.344102
-0.341907
-0.305118
-0.0329915
-0.0329341
-0.0316921
-0.0301385
-0.0314115
-0.0326697
-0.0325683
-0.0292303
-0.0261178
-0.0234997
-0.0211482
-0.0193744
-0.0180999
-0.0170737
-0.541341
-0.531227
-0.497435
-0.474701
-0.456622
-0.468156
-0.4867
-0.512129
-0.520468
-0.557878
-0.545708
-0.44515
-0.436638
-0.430667
-0.426439
-0.422776
-0.418693
-0.41383
-0.408481
-0.403221
-0.398476
-0.394194
-0.389794
-0.38441
-0.377234
-0.367777
-0.356041
-0.342765
-0.329574
-0.318463
-0.310466
-0.304755
-0.310288
-0.314342
-0.317834
-0.30489
-0.319793
-0.322839
-0.326505
-0.324309
-0.328279
-0.330565
-0.335672
-0.33285
-0.335505
-0.299441
-0.0320719
-0.0319979
-0.0308336
-0.0338085
-0.0307595
-0.0268618
-0.0317365
-0.0316252
-0.0270406
-0.0307692
-0.0246912
-0.0221281
-0.0200097
-0.0184019
-0.0171935
-0.54162
-0.531777
-0.502341
-0.49582
-0.47661
-0.461263
-0.44781
-0.456393
-0.469448
-0.485121
-0.490175
-0.51289
-0.521039
-0.438455
-0.43097
-0.425428
-0.421091
-0.416808
-0.411965
-0.406733
-0.401573
-0.396862
-0.392591
-0.388267
-0.383105
-0.376367
-0.367608
-0.356772
-0.344288
-0.331259
-0.319406
-0.310293
-0.304051
-0.299105
-0.304225
-0.308187
-0.3115
-0.313271
-0.315193
-0.316638
-0.318446
-0.321284
-0.299237
-0.322253
-0.32607
-0.324006
-0.327863
-0.330057
-0.334908
-0.332312
-0.29359
-0.0311809
-0.0311267
-0.0296071
-0.0310542
-0.0312018
-0.0306152
-0.028681
-0.0255849
-0.0278497
-0.0231367
-0.0207916
-0.0188953
-0.0174189
-0.50287
-0.496411
-0.479636
-0.475587
-0.46263
-0.451364
-0.44028
-0.44737
-0.45741
-0.468528
-0.471898
-0.485605
-0.490558
-0.431885
-0.42502
-0.419922
-0.41536
-0.410431
-0.405234
-0.400135
-0.395433
-0.391145
-0.386858
-0.381863
-0.375465
-0.367257
-0.357182
-0.345515
-0.33297
-0.320825
-0.310676
-0.303424
-0.298326
-0.293466
-0.298584
-0.302321
-0.305143
-0.307715
-0.308877
-0.310175
-0.311817
-0.320429
-0.293171
-0.321856
-0.325605
-0.323683
-0.287557
-0.0275997
-0.03369
-0.0308797
-0.0307897
-0.0317221
-0.0294532
-0.0268067
-0.0239629
-0.0260576
-0.0284229
-0.0216035
-0.0195298
-0.0178207
-0.480016
-0.476007
-0.464812
-0.462009
-0.452409
-0.443306
-0.433331
-0.439707
-0.448239
-0.45686
-0.459316
-0.468916
-0.472234
-0.425295
-0.419308
-0.414443
-0.409268
-0.403963
-0.398839
-0.394099
-0.389753
-0.385471
-0.380614
-0.374521
-0.366795
-0.357383
-0.346499
-0.334612
-0.322583
-0.311737
-0.303315
-0.29747
-0.292834
-0.287693
-0.292376
-0.296208
-0.299601
-0.301248
-0.303022
-0.304657
-0.305361
-0.287019
-0.281432
-0.0309247
-0.0301152
-0.0303567
-0.0298651
-0.0274219
-0.0249688
-0.0223275
-0.0242676
-0.0264946
-0.0287357
-0.0291538
-0.0201981
-0.0183627
-0.46517
-0.462375
-0.454149
-0.452024
-0.444176
-0.436231
-0.426418
-0.432766
-0.440534
-0.447902
-0.449893
-0.457219
-0.459647
-0.419299
-0.414237
-0.40858
-0.402948
-0.397652
-0.392786
-0.388322
-0.383993
-0.379247
-0.373452
-0.366194
-0.357403
-0.347269
-0.336123
-0.324515
-0.313393
-0.30397
-0.297003
-0.291967
-0.287315
-0.281799
-0.286228
-0.290055
-0.293355
-0.295109
-0.296819
-0.298282
-0.299899
-0.301044
-0.302697
-0.304188
-0.304091
-0.28068
-0.275253
-0.0306599
-0.0312684
-0.0301441
-0.0280696
-0.0276555
-0.0255007
-0.0232518
-0.0208379
-0.0226348
-0.0246603
-0.026664
-0.0270633
-0.0289963
-0.029529
-0.0189487
-0.454508
-0.452386
-0.445707
-0.443899
-0.437011
-0.429495
-0.419896
-0.425782
-0.433651
-0.440294
-0.442074
-0.448267
-0.450238
-0.414775
-0.408451
-0.402258
-0.396609
-0.391478
-0.386799
-0.38235
-0.377662
-0.37215
-0.365368
-0.3572
-0.347799
-0.337431
-0.326442
-0.315434
-0.305379
-0.297263
-0.291307
-0.28658
-0.281671
-0.27577
-0.279799
-0.283976
-0.287204
-0.288988
-0.290692
-0.292115
-0.29371
-0.29498
-0.296598
-0.297969
-0.29942
-0.274485
-0.268814
-0.0309403
-0.0303854
-0.0283995
-0.0278936
-0.0260739
-0.0257069
-0.0237708
-0.0217115
-0.0195119
-0.0211807
-0.0230348
-0.0248551
-0.0251908
-0.0268886
-0.0273602
-0.029178
-0.0297553
-0.446071
-0.444268
-0.438433
-0.436749
-0.430444
-0.421897
-0.415883
-0.420564
-0.42694
-0.433385
-0.435137
-0.44067
-0.442419
-0.408947
-0.402013
-0.395809
-0.390228
-0.385205
-0.380532
-0.375823
-0.370545
-0.364236
-0.356702
-0.348037
-0.338459
-0.328199
-0.317601
-0.307332
-0.298317
-0.291229
-0.285853
-0.281114
-0.275847
-0.269481
-0.27365
-0.277631
-0.280903
-0.282893
-0.284569
-0.285967
-0.28756
-0.288863
-0.290484
-0.291839
-0.293284
-0.267927
-0.262195
-0.0285854
-0.0280526
-0.0263821
-0.0259492
-0.0243322
-0.0240145
-0.02224
-0.0203314
-0.0215895
-0.0232716
-0.0235626
-0.0250987
-0.0254964
-0.0270461
-0.0275243
-0.438775
-0.437119
-0.431793
-0.430121
-0.421832
-0.418249
-0.40982
-0.41532
-0.421696
-0.42701
-0.428824
-0.43375
-0.435441
-0.402237
-0.395372
-0.389153
-0.383646
-0.378621
-0.373776
-0.368648
-0.362768
-0.355865
-0.347937
-0.339146
-0.329655
-0.31965
-0.309521
-0.299992
-0.291875
-0.28551
-0.280398
-0.275466
-0.269756
-0.26298
-0.26696
-0.271278
-0.274799
-0.276924
-0.278053
-0.279807
-0.281325
-0.282725
-0.284337
-0.285701
-0.287164
-0.261279
-0.255623
-0.0265551
-0.0261079
-0.0246584
-0.0242818
-0.0228032
-0.0225271
-0.0208724
-0.0218629
-0.0221181
-0.0235393
-0.0238904
-0.0252674
-0.0256731
-0.432031
-0.430463
-0.424761
-0.420007
-0.419082
-0.411904
-0.402928
-0.408893
-0.415801
-0.42194
-0.423407
-0.42803
-0.42914
-0.395436
-0.388474
-0.3823
-0.376792
-0.37167
-0.366562
-0.361019
-0.354702
-0.347495
-0.33947
-0.330743
-0.321406
-0.311658
-0.301985
-0.293137
-0.285746
-0.27986
-0.274803
-0.269563
-0.263431
-0.256436
-0.260298
-0.264192
-0.267991
-0.270112
-0.271942
-0.273619
-0.275358
-0.277209
-0.277755
-0.280055
-0.280997
-0.254718
-0.249013
-0.0248466
-0.0244573
-0.0231526
-0.0228105
-0.0214293
-0.0211899
-0.0221461
-0.0224655
-0.0237214
-0.0240821
-0.427773
-0.417589
-0.420077
-0.418745
-0.412468
-0.405234
-0.395969
-0.402042
-0.409315
-0.41551
-0.41688
-0.422511
-0.426741
-0.388389
-0.381386
-0.375287
-0.369743
-0.36449
-0.359133
-0.353299
-0.346756
-0.33946
-0.331457
-0.32279
-0.313539
-0.303998
-0.294759
-0.28653
-0.279723
-0.274138
-0.268999
-0.263425
-0.256986
-0.249859
-0.253828
-0.257923
-0.261094
-0.261884
-0.264635
-0.266587
-0.268444
-0.269993
-0.271771
-0.273387
-0.275129
-0.27671
-0.276654
-0.248076
-0.24238
-0.0233631
-0.022993
-0.0217814
-0.0214751
-0.0223339
-0.0226688
-0.414128
-0.420533
-0.41896
-0.413637
-0.412216
-0.405819
-0.39834
-0.388195
-0.394986
-0.402492
-0.408975
-0.410496
-0.415771
-0.417256
-0.422269
-0.426366
-0.381274
-0.374363
-0.368297
-0.362702
-0.357334
-0.351817
-0.345824
-0.339183
-0.331847
-0.323804
-0.315075
-0.30582
-0.296471
-0.287677
-0.28003
-0.273704
-0.268289
-0.262998
-0.25713
-0.250478
-0.243225
-0.247132
-0.251525
-0.254762
-0.257452
-0.260452
-0.263711
-0.264727
-0.266419
-0.268177
-0.269757
-0.271482
-0.273127
-0.27469
-0.241457
-0.235576
-0.0219903
-0.0216566
-0.42076
-0.419206
-0.414035
-0.412509
-0.407055
-0.405483
-0.398954
-0.390943
-0.381831
-0.38333
-0.395694
-0.402104
-0.403728