/*--------------------------------*- C++ -*----------------------------------*\
| =========                 |                                                 |
| \\      /  F ield         | OpenFOAM: The Open Source CFD Toolbox           |
|  \\    /   O peration     | Version:  v1912                                 |
|   \\  /    A nd           | Website:  www.openfoam.com                      |
|    \\/     M anipulation  |                                                 |
\*---------------------------------------------------------------------------*/
FoamFile
{
    version     2.0;
    format      ascii;
    class       volScalarField;
    location    "470";
    object      p;
}
// * * * * * * * * * * * * * * * * * * * * * * * * * * * * * * * * * * * * * //

dimensions      [0 2 -2 0 0 0 0];


internalField   nonuniform List<scalar> 
3673
(
0.00148525
0.00172884
0.00133776
0.00197231
0.00157162
0.00119829
0.00218451
0.00180796
0.00142655
0.00107082
0.00237274
0.00201754
0.0016551
0.00129284
0.000956349
0.00252619
0.00220664
0.00185891
0.00152041
0.00117406
0.000846335
0.00263322
0.00236092
0.00204677
0.00172276
0.001394
0.00105863
0.000747048
0.00267885
0.00246941
0.00220421
0.00190357
0.00158742
0.00127173
0.000954459
0.000656306
0.00265579
0.00252098
0.00231858
0.00205824
0.0017671
0.00146393
0.00116486
0.000860493
0.000570225
0.00256686
0.00251013
0.00238348
0.00217904
0.00192104
0.00164013
0.00135259
0.00106462
0.000767834
0.000495808
0.00242231
0.00242923
0.00239242
0.00225371
0.00203704
0.00178884
0.00152226
0.00124726
0.000970527
0.000689559
0.000425517
0.00224178
0.00227856
0.00234187
0.00228061
0.00211281
0.00190319
0.00166662
0.00141458
0.00115073
0.000885901
0.000615131
0.000362906
0.00207703
0.00204961
0.00223902
0.00226522
0.00214495
0.00197234
0.00177365
0.0015515
0.00131016
0.00105758
0.000808565
0.000547504
0.000300631
0.00200218
0.00175175
0.00208047
0.00221398
0.00213256
0.00199245
0.00183663
0.00165259
0.00144542
0.00121658
0.000980948
0.000736325
0.000484058
0.000249622
0.00148088
0.00176709
0.00202145
0.00182549
0.0021456
0.00208081
0.00196582
0.00185007
0.00171071
0.00154612
0.0013481
0.00113242
0.000900139
0.00066793
0.000428803
0.000203568
0.00149194
0.00118341
0.00164527
0.00178213
0.00190128
0.0020312
0.00205567
0.00199481
0.00189012
0.00181218
0.00171934
0.00159893
0.00143931
0.00125458
0.0010479
0.000830619
0.000608646
0.000377391
0.000164788
0.00188964
0.00164456
0.00119471
0.00111279
0.00169181
0.00161039
0.00175748
0.0018492
0.00195945
0.0017212
0.00188669
0.00177049
0.00172778
0.00167822
0.00160223
0.00148787
0.00134321
0.00116952
0.000975538
0.000767152
0.000555207
0.000335716
0.00013134
0.00172012
0.00163155
0.00168292
0.00160798
0.000740887
0.000931513
0.00161167
0.00171974
0.00153336
0.00158408
0.00165592
0.0018246
0.00176962
0.00194679
0.00168112
0.00162075
0.00160433
0.00159331
0.00155649
0.00148861
0.00138807
0.00125498
0.00109136
0.000905952
0.000710931
0.000508447
0.000298284
0.000103994
0.00145406
0.00145628
0.00146376
0.00146492
0.00163492
0.00163492
0.00155496
9.27598e-05
0.00123514
0.00233865
0.00182374
0.00160456
0.00162256
0.00152225
0.00159525
0.00178737
0.00170455
0.00187795
0.00164851
0.0014474
0.00147005
0.00146748
0.00144104
0.00138407
0.0012956
0.00117052
0.00101873
0.000845963
0.000654432
0.000467948
0.000267426
8.40554e-05
0.00128061
0.00128453
0.00130525
0.00131812
0.00135877
0.00135251
0.00133378
0.00145903
0.00146007
0.00156082
0.00186419
-0.00122277
0.00267177
0.00206661
0.00147732
0.00148935
0.00151863
0.00175659
0.0018244
0.00131697
0.00134287
0.00134884
0.00133209
0.001289
0.0012075
0.00109288
0.000949218
0.00078359
0.000614682
0.000433087
0.000243863
6.87549e-05
0.00114852
0.00113064
0.00116559
0.00117368
0.00122889
0.00123375
0.00123758
0.00127946
0.00128144
0.00128748
0.00130999
0.00140457
0.0013596
-0.00373681
0.00119165
0.00122054
0.00124031
0.00123689
0.00119887
0.00112626
0.00101949
0.000885319
0.000739203
0.000573539
0.000404473
0.000224706
6.1839e-05
0.00102196
0.000996093
0.00103371
0.00102789
0.00108441
0.00108791
0.00110894
0.00116861
0.00115107
0.0011787
0.00121225
0.00124148
0.00123386
0.00107214
0.00111695
0.00114427
0.00114585
0.00111488
0.0010486
0.000950952
0.00083274
0.000693071
0.000543406
0.000385251
0.000215582
5.6735e-05
0.000905942
0.000869228
0.000907273
0.000896334
0.000950578
0.000941497
0.000968175
0.00102976
0.00100367
0.0010351
0.00108087
0.00112996
0.00111
0.00096983
0.00101813
0.00105122
0.00106067
0.00103408
0.000974248
0.00088885
0.000781542
0.000658457
0.000517475
0.000370002
0.000208643
6.41978e-05
0.000803939
0.000751774
0.000794439
0.000772206
0.000821391
0.000808312
0.000833888
0.000892006
0.000864731
0.000889475
0.000936
0.000988667
0.000963084
0.000867537
0.000927303
0.000967318
0.000976222
0.000955695
0.000904689
0.000829516
0.000737127
0.000624001
0.000497872
0.000360477
0.000208711
7.38329e-05
0.00070366
0.000650297
0.000688565
0.000659549
0.000705449
0.000685038
0.000709967
0.000763087
0.000737262
0.000756344
0.000796995
0.000847651
0.000826283
0.000778867
0.000843323
0.000883928
0.000900749
0.00088195
0.000838055
0.000777096
0.000699152
0.000604221
0.000487442
0.000357223
0.000218794
9.32785e-05
0.000615063
0.000552626
0.000589094
0.000556842
0.000598345
0.000572669
0.000600011
0.000646504
0.000620138
0.000633776
0.00067253
0.000717972
0.000699049
0.000693458
0.000761277
0.000808832
0.000821153
0.00080643
0.000776241
0.00073356
0.000672483
0.000587175
0.000481494
0.000363231
0.0002332
0.000108578
0.000530008
0.000463934
0.000500088
0.000461065
0.000500558
0.000472072
0.000495138
0.000538362
0.000513626
0.000519196
0.000564283
0.000600056
0.000582561
0.000614932
0.000685144
0.000727777
0.000741128
0.000734294
0.000720019
0.000697236
0.000651986
0.000578778
0.000480312
0.000371891
0.000243236
0.000136351
0.000451286
0.00038026
0.000417216
0.000373937
0.000410833
0.000378987
0.000397831
0.000437665
0.000422532
0.000419715
0.000459388
0.000494465
0.00047444
0.000539472
0.000610249
0.000652178
0.000660453
0.000665337
0.000673257
0.000671438
0.000639813
0.000571673
0.000485423
0.000382563
0.000270903
0.000168405
0.000377892
0.000301503
0.000341074
0.000292642
0.000328163
0.000294146
0.000310831
0.000347251
0.000333075
0.000332139
0.000357337
0.000395964
0.000382846
0.000470507
0.000538195
0.000563612
0.000577385
0.000604041
0.000641254
0.000655505
0.000629642
0.000574035
0.000491538
0.000406834
0.000297852
0.000206914
0.000310795
0.00022445
0.000272988
0.000217552
0.000251558
0.000214817
0.000230704
0.000262966
0.00025223
0.000248192
0.000270799
0.000304391
0.000293672
0.000399899
0.000452006
0.000470312
0.000497749
0.000560442
0.000624514
0.000645255
0.000624145
0.000574793
0.000510243
0.000425744
0.000335438
0.000252425
0.000241147
0.000153029
0.000206311
0.000144321
0.000179936
0.000141924
0.000158198
0.000187531
0.000174861
0.000168998
0.00019125
0.000220039
0.000213371
0.000326735
0.000360654
0.000369584
0.000434973
0.000542696
0.000615472
0.000635604
0.000620138
0.000581258
0.000524335
0.000460107
0.000374768
0.000301508
0.000178834
8.45647e-05
0.000140987
7.37446e-05
0.000114685
7.13187e-05
8.38754e-05
0.000114791
0.000107527
9.70426e-05
0.000119824
0.0001459
0.000135249
0.000247827
0.000240072
0.000275497
0.000413425
0.000541387
0.000607082
0.000625274
0.000616173
0.000590509
0.000548975
0.000494731
0.000422263
0.00036317
0.000111751
1.28264e-05
7.73079e-05
6.65272e-06
4.96221e-05
3.86496e-06
1.79809e-05
4.70607e-05
4.1544e-05
2.64075e-05
4.01675e-05
7.1008e-05
7.82646e-05
0.000134822
0.000108857
0.000238564
0.00042564
0.000543963
0.000590093
0.000608373
0.000615604
0.000605359
0.000580922
0.000539696
0.000478885
0.000433172
3.53463e-05
-6.36973e-05
1.45621e-05
-5.88197e-05
-1.62933e-05
-6.35279e-05
-4.36921e-05
-1.42698e-05
-2.66757e-05
-3.94069e-05
-2.46078e-05
3.39513e-06
1.21192e-05
-1.55622e-05
1.78606e-05
0.000273184
0.000456286
0.000524055
0.000560633
0.000594439
0.000616468
0.00062744
0.000616251
0.000591412
0.000543792
0.000513529
-6.54603e-05
-0.000148888
-4.38261e-05
-0.000134567
-8.29379e-05
-0.00013008
-0.000108311
-7.94791e-05
-9.05371e-05
-0.000106242
-8.35626e-05
-5.5621e-05
-5.75774e-05
-0.00022742
7.34815e-05
0.000355998
0.000438561
0.000480099
0.000530782
0.000581092
0.000626043
0.000653288
0.000662393
0.000647233
0.00062129
0.000604623
-0.000373256
-0.000241007
-0.000106601
-0.000207978
-0.000147865
-0.000204253
-0.000174894
-0.000143323
-0.000159017
-0.000170145
-0.000148256
-0.000121339
-0.000118505
-0.000220916
0.000256688
0.000343197
0.000374363
0.000432296
0.000502063
0.000574055
0.000636379
0.000684589
0.000706948
0.000725766
0.000706853
0.000708094
-0.000592785
-0.000564085
-0.000215638
-0.000265299
-0.000218738
-0.000287695
-0.000246012
-0.000207651
-0.000235441
-0.000240176
-0.00021241
-0.000185588
-0.000186076
0.000162069
0.000251312
0.000254165
0.00030907
0.000387754
0.000476561
0.000567751
0.000652124
0.000721047
0.000776648
0.000798687
0.000806939
0.000824866
3.4246e-05
-0.000458259
-0.000902219
-0.000293893
-0.000195919
-0.000389516
-0.000314516
-0.000285432
-0.000326971
-0.000321258
-0.000286323
-0.000255461
-0.000256658
0.000162029
0.000117325
0.000168377
0.000249031
0.000344508
0.000452931
0.000566345
0.000675857
0.000771858
0.000839564
0.00089833
0.000914296
0.000949149
2.55065e-05
-0.000123269
-0.000106975
-0.000562652
-0.00152005
-0.000104366
-0.000183244
-0.00030877
-0.000385879
-0.000427342
-0.000374471
-0.000330518
-0.000352329
-2.72e-05
1.60746e-05
9.82711e-05
0.000193048
0.000304713
0.000430448
0.000567329
0.000703577
0.000823959
0.000928202
0.000991684
0.00103811
0.00109953
-0.000169345
-0.000219506
-0.000249453
-0.00026607
-9.6077e-05
-0.000153213
0.000465347
0.000276695
-0.00237279
-0.000241621
-0.000381119
-0.000411439
-0.000446049
-0.000138894
-5.2191e-05
3.57377e-05
0.000138112
0.000261285
0.000410153
0.000572916
0.000738614
0.000890567
0.00101395
0.00111476
0.00117964
0.00126285
-0.000276589
-0.000298154
-0.000307934
-0.00033581
-0.000342952
-0.000377522
-0.000416984
-0.000259604
-0.000297734
-1.46284e-05
-0.00459845
-0.000201372
-0.000118857
-3.20802e-05
7.86505e-05
0.000220897
0.000392732
0.000585198
0.000782215
0.00096716
0.00111915
0.00124786
0.00133556
0.00144104
-0.000341046
-0.000372111
-0.000369712
-0.000383479
-0.000362629
-0.000381821
-0.000396599
-0.000404506
-0.000384436
-0.000265599
-0.000191645
-9.98804e-05
2.24884e-05
0.00018056
0.00037621
0.000600346
0.00083299
0.00104777
0.00124212
0.00139293
0.00150948
0.00164425
-0.000406842
-0.000441847
-0.000432423
-0.000452209
-0.000423568
-0.000426995
-0.000429907
-0.000399543
-0.000403221
-0.000337093
-0.000264304
-0.00016971
-3.96624e-05
0.000137508
0.000362872
0.000622284
0.000890512
0.00114948
0.00137286
0.00156138
0.00170854
0.00186533
-0.0004722
-0.000511955
-0.000493669
-0.000519555
-0.000488834
-0.000505173
-0.000495431
-0.00045461
-0.000469241
-0.000412652
-0.00034127
-0.000243955
-0.000104345
9.58081e-05
0.000353694
0.000649539
0.000961656
0.00126604
0.00152386
0.00175279
0.00191937
0.00210408
-0.000545623
-0.000580136
-0.000557307
-0.000583978
-0.000555473
-0.000571521
-0.000562967
-0.000524813
-0.000538215
-0.000486921
-0.000419778
-0.0003238
-0.000170266
5.53979e-05
0.000346604
0.00068761
0.00104921
0.00138781
0.00169832
0.00194691
0.00216482
0.00236637
-0.000617205
-0.000650769
-0.000626715
-0.000650431
-0.000617517
-0.000640521
-0.000623615
-0.000591903
-0.00060556
-0.000567348
-0.0005107
-0.000411884
-0.00023912
1.37495e-05
0.000345926
0.000732422
0.00113597
0.00152802
0.00187727
0.00218693
0.00243461
0.00269136
-0.000693876
-0.000725095
-0.000694937
-0.00071953
-0.000684752
-0.000703007
-0.000690282
-0.000656604
-0.0006699
-0.000659386
-0.00061109
-0.000504796
-0.000311927
-2.43299e-05
0.000348848
0.000783373
0.00124083
0.00169015
0.00209234
0.00245322
0.00275682
0.00304371
-0.000778478
-0.000796808
-0.000766583
-0.00079004
-0.000754055
-0.000771361
-0.000756325
-0.00071629
-0.000734548
-0.000763203
-0.000719818
-0.000598349
-0.000381208
-6.00057e-05
0.000357044
0.000845897
0.00136748
0.00186423
0.00234012
0.00273245
0.0032952
0.00127139
-0.000877643
-0.000875065
-0.00083918
-0.00085874
-0.00082451
-0.000839464
-0.000826047
-0.000789694
-0.000804404
-0.00088549
-0.000837594
-0.000692272
-0.000451709
-9.6916e-05
0.000370149
0.000918825
0.00149565
0.00207945
0.00256041
0.00334198
0.00148274
-0.00100183
-0.000962408
-0.000919957
-0.000931708
-0.000896268
-0.000907309
-0.00089457
-0.000858459
-0.000873536
-0.00102575
-0.000942998
-0.000790058
-0.000529471
-0.000133309
0.000390201
0.000998194
0.00165972
0.00223974
0.00312792
0.00154245
-0.00113975
-0.00116276
-0.00102344
-0.000994131
-0.00096478
-0.00098563
-0.000966046
-0.000930943
-0.000947518
-0.00113826
-0.00105038
-0.000895767
-0.000608554
-0.000164822
0.000414118
0.00110372
0.00176068
0.00272775
0.00139819
-0.00127462
-0.00118462
-0.0014731
-0.000968628
-0.000990946
-0.00106588
-0.00104345
-0.00100429
-0.00102435
-0.00123673
-0.00117408
-0.00101163
-0.00068819
-0.000196661
0.00045796
0.00115327
0.0021583
0.00112738
-0.00136672
-0.00135128
-0.00126561
-0.00144879
-0.00160563
-0.00217174
-0.00377453
0.00134614
-0.00118569
-0.00114916
-0.0010872
-0.00111432
-0.00136582
-0.00131654
-0.00113298
-0.000770379
-0.000215437
0.000458102
0.0014428
0.000771486
-0.00148926
-0.00145471
-0.00139869
-0.00139291
-0.00139584
-0.00138114
-0.00140675
-0.00142402
-0.00140872
-0.00100803
-0.00073351
-0.00152147
-0.00146841
-0.00125593
-0.000847234
-0.000258952
0.000629458
0.000359933
-0.00164317
-0.00158546
-0.0015137
-0.00148922
-0.00146811
-0.00143495
-0.00141609
-0.00142225
-0.00141738
-0.00141884
-0.00141834
-0.00148328
-0.00149106
-0.00132658
-0.00169235
-0.00162593
-0.00138358
-0.000927466
-0.000208425
-6.72767e-05
-0.00181945
-0.0017373
-0.00165399
-0.00162729
-0.00158932
-0.00155318
-0.00152479
-0.00150912
-0.00148093
-0.00145644
-0.00143592
-0.00144057
-0.00143601
-0.00144912
-0.00145822
-0.00187334
-0.00179362
-0.00149328
-0.000993895
-0.000475476
-0.00201189
-0.00191117
-0.00181394
-0.00177826
-0.00173416
-0.00169789
-0.00165511
-0.00164122
-0.00160903
-0.00157026
-0.00154151
-0.00152233
-0.00149032
-0.00147259
-0.00144792
-0.00207403
-0.00193114
-0.00166398
-0.000831349
-0.00223711
-0.00210318
-0.00199386
-0.00194491
-0.0019005
-0.00185678
-0.00180902
-0.00178887
-0.0017505
-0.00171337
-0.001671
-0.00165269
-0.00161935
-0.00158449
-0.0015529
-0.00225006
-0.00218818
-0.00111316
-0.00246592
-0.00233492
-0.00220318
-0.00213318
-0.00208644
-0.00203594
-0.00198345
-0.00195316
-0.00191198
-0.00186629
-0.00182615
-0.00179759
-0.00176085
-0.00172241
-0.0016839
-0.00258249
-0.00131836
-0.00291552
-0.00255955
-0.00243154
-0.0023566
-0.00230083
-0.00223898
-0.0021831
-0.00213952
-0.00209026
-0.00204336
-0.00199792
-0.00195953
-0.00192317
-0.00187162
-0.00183475
-0.00145852
-0.00168282
-0.0030314
-0.00273635
-0.00259189
-0.00252908
-0.00247401
-0.00241065
-0.0023544
-0.00229949
-0.00224314
-0.00219057
-0.00213854
-0.00209622
-0.00204762
-0.00200341
-0.00159693
-0.00320685
-0.0029934
-0.00288259
-0.00275505
-0.00266447
-0.00259212
-0.00252839
-0.00247078
-0.00241263
-0.00235113
-0.00229827
-0.00224285
-0.00218991
-0.00137025
-0.00331421
-0.0033628
-0.00311333
-0.00296465
-0.00286237
-0.00275781
-0.0026692
-0.00257704
-0.00251901
-0.00246152
-0.00240629
-0.00134328
-0.00363938
-0.0033775
-0.00307957
-0.00294713
-0.00283512
-0.00273634
-0.00264887
-0.00164915
-0.00394124
-0.00335724
-0.00306408
-0.0602709
-0.0603437
-0.0592416
-0.0606714
-0.0603155
-0.0594041
-0.0587222
-0.061331
-0.0608822
-0.0601426
-0.0595979
-0.0588604
-0.0581414
-0.0615047
-0.0619674
-0.0613818
-0.0598164
-0.058862
-0.0590022
-0.0582638
-0.0575205
-0.0621283
-0.0626178
-0.0623383
-0.0626519
-0.060156
-0.0573584
-0.0576516
-0.0583788
-0.0576459
-0.0569419
-0.0627782
-0.0633364
-0.0649266
-0.0626919
-0.0639456
-0.0604748
-0.057712
-0.0549484
-0.056433
-0.0577776
-0.0571754
-0.057054
-0.0563545
-0.0634539
-0.0640059
-0.0675828
-0.0653095
-0.0652719
-0.0630147
-0.0641234
-0.0607667
-0.0580218
-0.0553134
-0.0552474
-0.0526299
-0.0540758
-0.0565881
-0.0559788
-0.056484
-0.0557554
-0.0646196
-0.0703238
-0.0679833
-0.0679535
-0.0665969
-0.0656395
-0.0654129
-0.0647615
-0.0633083
-0.0610415
-0.0583024
-0.0556247
-0.0529815
-0.05538
-0.0547939
-0.0529518
-0.0503761
-0.0517647
-0.0542219
-0.053621
-0.0558778
-0.0551351
-0.0652546
-0.0731626
-0.0707385
-0.0707061
-0.0693159
-0.0683273
-0.0680987
-0.0674312
-0.0667785
-0.0660934
-0.0659317
-0.0635882
-0.0613311
-0.0585704
-0.0559014
-0.0532891
-0.0507213
-0.0552598
-0.0546765
-0.0530448
-0.0524931
-0.0506513
-0.0481908
-0.0495422
-0.0514504
-0.0541099
-0.0535017
-0.0545633
-0.0659754
-0.0760885
-0.0735818
-0.0735392
-0.0721132
-0.0710942
-0.0708598
-0.0701736
-0.0695046
-0.0687996
-0.0686304
-0.0679359
-0.0672863
-0.0666596
-0.0662129
-0.0638835
-0.0616667
-0.0588493
-0.0561636
-0.0535599
-0.0510199
-0.0485236
-0.0528594
-0.0520836
-0.0504259
-0.0484564
-0.0460649
-0.0473703
-0.0493392
-0.0511106
-0.0516994
-0.0539852
-0.0533931
-0.0790298
-0.0764828
-0.0764668
-0.0749786
-0.0739398
-0.0737026
-0.0729984
-0.0723103
-0.0715842
-0.0714058
-0.070694
-0.0700262
-0.0693846
-0.0686798
-0.068919
-0.0665157
-0.0642299
-0.0620852
-0.0591735
-0.0564365
-0.0538161
-0.0512814
-0.0488107
-0.0463774
-0.0527878
-0.0522213
-0.0505472
-0.0499971
-0.0482495
-0.0463067
-0.043988
-0.0452534
-0.0471689
-0.0489137
-0.0494643
-0.0820889
-0.0794413
-0.0794222
-0.0779565
-0.0768424
-0.0766063
-0.075881
-0.0751756
-0.0744393
-0.0742546
-0.0735381
-0.0728518
-0.0721911
-0.0714647
-0.0717037
-0.0692265
-0.0668724
-0.0646638
-0.0626159
-0.0595794
-0.05675
-0.0540828
-0.05153
-0.0490644
-0.0466571
-0.0442857
-0.0483492
-0.0478133
-0.0460848
-0.0442456
-0.0419604
-0.0431928
-0.0450413
-0.0467534
-0.0472914
-0.0850391
-0.0825576
-0.0825388
-0.0809753
-0.0798218
-0.079502
-0.0787735
-0.0782516
-0.0773315
-0.0771673
-0.0764152
-0.0757259
-0.0750624
-0.0743262
-0.0745558
-0.0720185
-0.0695902
-0.0673194
-0.0652134
-0.0632677
-0.0600928
-0.0571421
-0.0543904
-0.0517894
-0.0493066
-0.0469091
-0.0445613
-0.0422617
-0.0461917
-0.0456544
-0.0441276
-0.0421901
-0.0399717
-0.0411815
-0.0430151
-0.0445525
-0.0451098
-0.0857169
-0.0857316
-0.0840805
-0.0871608
-0.0876824
-0.0829377
-0.082699
-0.0819436
-0.0812098
-0.0803723
-0.0801608
-0.0780865
-0.0771525
-0.0774777
-0.0748778
-0.0723903
-0.0700496
-0.0678839
-0.065885
-0.0640284
-0.060723
-0.0576374
-0.0547726
-0.0520915
-0.0495605
-0.0471479
-0.0448126
-0.0425329
-0.0402843
-0.0440047
-0.0438297
-0.041975
-0.0402019
-0.0380431
-0.0392282
-0.0409805
-0.0425351
-0.0430298
-0.0889893
-0.0861469
-0.0873863
-0.0859266
-0.0851318
-0.0843531
-0.0835239
-0.0893124
-0.0891613
-0.0832657
-0.0804827
-0.077809
-0.0752605
-0.0728593
-0.0706297
-0.0685733
-0.0666657
-0.0648688
-0.0614616
-0.0582485
-0.0552539
-0.0524614
-0.0498534
-0.0473946
-0.0450475
-0.0427785
-0.0405547
-0.038353
-0.0438837
-0.0420638
-0.0415684
-0.0400085
-0.0382746
-0.0361726
-0.0373267
-0.0390438
-0.0406004
-0.0410983
-0.04243
-0.0428493
-0.0894532
-0.0864723
-0.0884148
-0.0884461
-0.0876059
-0.0867632
-0.0911076
-0.0893459
-0.0908696
-0.0835919
-0.0808273
-0.0782072
-0.0757421
-0.0734538
-0.0713374
-0.0693745
-0.0675255
-0.0657536
-0.0622805
-0.0589666
-0.0558464
-0.0529289
-0.0502134
-0.0476793
-0.0452895
-0.0430088
-0.040795
-0.0386206
-0.0364751
-0.0419509
-0.0414693
-0.0401087
-0.0396197
-0.0380915
-0.0363981
-0.0343532
-0.0354737
-0.0371491
-0.0386648
-0.039151
-0.0404945
-0.0409883
-0.0897852
-0.0868072
-0.0892359
-0.0883851
-0.0902503
-0.0911197
-0.0839498
-0.0812401
-0.0787075
-0.0763544
-0.0741796
-0.0721587
-0.070254
-0.0684295
-0.0666483
-0.0631456
-0.0597638
-0.0565413
-0.0535043
-0.0506673
-0.0480288
-0.045567
-0.0432453
-0.0410212
-0.0388566
-0.0367373
-0.0346473
-0.0399966
-0.0395141
-0.0381812
-0.0377058
-0.0362187
-0.0345689
-0.0325834
-0.0336658
-0.0352985
-0.0367754
-0.0372473
-0.0385561
-0.0390371
-0.090128
-0.0871721
-0.0901087
-0.0891063
-0.0909729
-0.0843734
-0.0817603
-0.0793388
-0.0771006
-0.0750203
-0.0730588
-0.0711767
-0.0693416
-0.0675282
-0.0640228
-0.060608
-0.0573148
-0.05418
-0.0512242
-0.0484661
-0.0459032
-0.0435112
-0.0412508
-0.0390777
-0.0369679
-0.0349028
-0.0328648
-0.038069
-0.0375994
-0.036303
-0.0358409
-0.0343903
-0.0327834
-0.0308556
-0.0318993
-0.0334909
-0.0349329
-0.0353924
-0.0366667
-0.0371347
-0.0905021
-0.0876076
-0.0899621
-0.090809
-0.0849074
-0.0824123
-0.0801056
-0.0779605
-0.075939
-0.0739994
-0.0721058
-0.0702371
-0.0683807
-0.0648872
-0.061465
-0.0581356
-0.0549301
-0.0518765
-0.0490033
-0.0463252
-0.0438357
-0.0415085
-0.0393021
-0.0371831
-0.0351268
-0.0331118
-0.0311201
-0.0361918
-0.0357347
-0.0344715
-0.034023
-0.0326025
-0.0310371
-0.0291669
-0.0301859
-0.0317199
-0.033137
-0.0335829
-0.0348256
-0.0352823
-0.090946
-0.0881562
-0.0855787
-0.0832
-0.0809875
-0.0788984
-0.0768976
-0.074944
-0.0730161
-0.0711024
-0.0691908
-0.0657252
-0.0623106
-0.0589705
-0.0557268
-0.0526039
-0.0496344
-0.0468431
-0.0442422
-0.0418226
-0.0395537
-0.0374023
-0.0353366
-0.0333311
-0.0313616
-0.029422
-0.0343625
-0.0339194
-0.0326856
-0.0322483
-0.0308542
-0.0293604
-0.0275092
-0.0285021
-0.0300423
-0.0313785
-0.031814
-0.033031
-0.0334748
-0.0915042
-0.0888428
-0.0863863
-0.0841016
-0.0819451
-0.0798751
-0.0778586
-0.0758686
-0.0738943
-0.0719242
-0.0699553
-0.0665228
-0.0631323
-0.059796
-0.0565386
-0.0533775
-0.0503377
-0.0474516
-0.0447397
-0.0422116
-0.039857
-0.0376456
-0.035549
-0.0335352
-0.0315795
-0.0296596
-0.0277708
-0.0325804
-0.0321452
-0.0309247
-0.0304906
-0.0292375
-0.0276849
-0.02589
-0.0268611
-0.0283386
-0.0296854
-0.0300722
-0.0312727
-0.0317101
-0.0922054
-0.0896674
-0.0873075
-0.0850771
-0.082938
-0.0808519
-0.0787972
-0.0767598
-0.074728
-0.0726986
-0.0706645
-0.0672768
-0.0639157
-0.0605987
-0.057342
-0.0541657
-0.0510863
-0.0481298
-0.0453237
-0.0426889
-0.0402327
-0.037938
-0.0357849
-0.0337433
-0.0317827
-0.0298763
-0.0280062
-0.0261572
-0.030817
-0.0303627
-0.029372
-0.0288177
-0.0275032
-0.0260627
-0.0243264
-0.0252608
-0.0266893
-0.0279776
-0.0284059
-0.0294056
-0.0298941
-0.0930482
-0.0906062
-0.0883005
-0.0860856
-0.0839285
-0.0818043
-0.0797012
-0.0776059
-0.0755137
-0.0734177
-0.0713113
-0.0679778
-0.0646564
-0.0613645
-0.0581238
-0.0549464
-0.0518504
-0.0488527
-0.0459769
-0.0432514
-0.0406915
-0.0382999
-0.0360675
-0.0339741
-0.0319873
-0.030078
-0.028219
-0.0263926
-0.0245862
-0.0294461
-0.0285982
-0.0275806
-0.0271667
-0.0258925
-0.024479
-0.0228324
-0.0236871
-0.0250952
-0.0263719
-0.0267814
-0.027872
-0.0282472
-0.0940043
-0.0916155
-0.0893234
-0.0870893
-0.0848926
-0.0827204
-0.0805596
-0.078403
-0.0762439
-0.0740722
-0.0718907
-0.0686166
-0.0653462
-0.0620884
-0.0588701
-0.0557065
-0.0526077
-0.0495919
-0.0466744
-0.04388
-0.0412299
-0.0387411
-0.0364166
-0.0342487
-0.0322108
-0.0302777
-0.028417
-0.0266021
-0.0248182
-0.023072
-0.0295937
-0.028499
-0.0274832
-0.0270834
-0.0259747
-0.0255709
-0.0243034
-0.0229208
-0.0213111
-0.022127
-0.0235103
-0.0247837
-0.0251854
-0.0262888
-0.0266918
-0.027784
-0.028157
-0.0950291
-0.092653
-0.0903388
-0.0880644
-0.0858192
-0.0835903
-0.0813687
-0.0791457
-0.0769101
-0.0746575
-0.0724024
-0.0691908
-0.0659771
-0.0627622
-0.0595745
-0.0564319
-0.0533453
-0.0503247
-0.0473877
-0.0445506
-0.0418326
-0.0392594
-0.0368401
-0.0345834
-0.0324752
-0.0304964
-0.0286134
-0.0267975
-0.0250248
-0.0232898
-0.021584
-0.0273882
-0.0269955
-0.0258902
-0.0254906
-0.0243881
-0.0239936
-0.0227431
-0.0208403
-0.0198617
-0.0217401
-0.0232377
-0.0236139
-0.024701
-0.0250989
-0.0261961
-0.0265931
-0.096079
-0.0936797
-0.0913237
-0.0890003
-0.0866985
-0.0844111
-0.0821236
-0.0798255
-0.0775095
-0.0751756
-0.0728512
-0.0697021
-0.0665443
-0.0633766
-0.060229
-0.0571164
-0.0540493
-0.0510391
-0.0480958
-0.0452374
-0.0424775
-0.0398371
-0.0373355
-0.0349882
-0.0327967
-0.0307491
-0.0288239
-0.026989
-0.0252152
-0.02349
-0.0217971
-0.0201238
-0.025791
-0.0253992
-0.0243058
-0.0239104
-0.0229055
-0.0227041
-0.0211491
-0.0195319
-0.0204122
-0.0184491
-0.0217963
-0.0231218
-0.0235209
-0.0246073
-0.0249997
-0.0971149
-0.0946732
-0.0922677
-0.0898882
-0.0875279
-0.0851785
-0.0828173
-0.0804406
-0.0780438
-0.0756332
-0.073244
-0.0701572
-0.06705
-0.063929
-0.0608246
-0.0577516
-0.0547131
-0.0517205
-0.0487858
-0.0459192
-0.0431376
-0.0404545
-0.0378887
-0.0354616
-0.0331838
-0.0310556
-0.0290685
-0.0271936
-0.0254022
-0.0236746
-0.0219912
-0.0203384
-0.0187021
-0.024209
-0.0238219
-0.0226847
-0.0219824
-0.0212351
-0.0208591
-0.0197105
-0.0181483
-0.0190017
-0.0204953
-0.0201237
-0.0170725
-0.0219675
-0.0216025
-0.0230444
-0.0234298
-0.0981158
-0.0956241
-0.0931621
-0.0907256
-0.0883041
-0.0858852
-0.0834477
-0.080993
-0.0785212
-0.0760392
-0.073585
-0.0705646
-0.0675018
-0.0644204
-0.0613592
-0.058329
-0.0553283
-0.0523623
-0.0494443
-0.0465845
-0.0437935
-0.0410873
-0.0384798
-0.0359897
-0.0336351
-0.0314245
-0.0293614
-0.0274278
-0.0256012
-0.0238566
-0.0221708
-0.0205296
-0.0189152
-0.0173101
-0.022655
-0.0222446
-0.0197565
-0.0194081
-0.0182922
-0.0168172
-0.0175931
-0.0190679
-0.0187047
-0.0157304
-0.0990721
-0.0965245
-0.0940051
-0.0915091
-0.0890198
-0.086528
-0.0840163
-0.0814904
-0.0789545
-0.0764083
-0.0738575
-0.0709297
-0.0679077
-0.0648553
-0.061832
-0.058844
-0.0558862
-0.0529571
-0.0500651
-0.0472193
-0.0444333
-0.0417166
-0.0390859
-0.0365536
-0.0341373
-0.0318529
-0.0297102
-0.0277065
-0.0258264
-0.0240463
-0.0223465
-0.0207055
-0.0191026
-0.0175221
-0.0159535
-0.0183382
-0.018002
-0.0168825
-0.0155103
-0.016264
-0.0176685
-0.0173131
-0.0143984
-0.0999763
-0.0973724
-0.0947937
-0.0922325
-0.0896734
-0.0871084
-0.0845307
-0.0819449
-0.079357
-0.0767559
-0.0740915
-0.0712604
-0.0682681
-0.0652398
-0.0622473
-0.0592998
-0.0563861
-0.0534976
-0.0506403
-0.0478172
-0.0450439
-0.0423306
-0.0396876
-0.037131
-0.0346729
-0.0323288
-0.0301157
-0.028038
-0.0260918
-0.0242624
-0.0225295
-0.020874
-0.0192729
-0.0177086
-0.0161623
-0.0146304
-0.0169306
-0.0165644
-0.0157047
-0.0141237
-0.0148645
-0.0161949
-0.0157783
-0.0130987
-0.100827
-0.0981651
-0.095521
-0.0928919
-0.0902646
-0.0876323
-0.0849972
-0.0823629
-0.0797355
-0.077101
-0.0715701
-0.0736653
-0.0748928
-0.068585
-0.0655762
-0.0626149
-0.0597042
-0.0568303
-0.0539813
-0.051163
-0.0483716
-0.0456192
-0.0429166
-0.0402752
-0.0377049
-0.0352218
-0.0328367
-0.0305657
-0.02842
-0.026405
-0.0245143
-0.0227361
-0.0210513
-0.0194369
-0.0178777
-0.0163481
-0.0148366
-0.013334
-0.0158838
-0.0151299
-0.0142168
-0.012825
-0.013572
-0.014867
-0.0145632
-0.0118298
-0.101621
-0.098896
-0.0961854
-0.0934866
-0.0907963
-0.0881053
-0.0854189
-0.0827368
-0.0800658
-0.0765368
-0.07806
-0.0688486
-0.0710477
-0.0724056
-0.0738407
-0.0748201
-0.0658659
-0.0629423
-0.0600647
-0.0572243
-0.0544115
-0.051632
-0.0488753
-0.0461532
-0.0434696
-0.0408356
-0.0382651
-0.035767
-0.0333565
-0.0310444
-0.0288432
-0.0267652
-0.0248096
-0.0229745
-0.0212457
-0.0196083
-0.0180393
-0.0165156
-0.0150205
-0.01354
-0.0120662
-0.0160985
-0.0150475
-0.0142696
-0.0139448
-0.0129442
-0.0115639
-0.0123033
-0.0136406
-0.0133132
-0.0147928
-0.0145038
-0.0105894
-0.102354
-0.0995615
-0.0967872
-0.0940243
-0.0912753
-0.088531
-0.08579
-0.0830456
-0.0794763
-0.0810069
-0.0767584
-0.0781696
-0.0661126
-0.0683102
-0.0696441
-0.0711071
-0.0725344
-0.0737364
-0.0745146
-0.0758007
-0.0743117
-0.0632313
-0.0603886
-0.0575779
-0.0547972
-0.0520505
-0.0493284
-0.0466401
-0.043983
-0.0413646
-0.0388
-0.0362994
-0.0338726
-0.0315338
-0.0292934
-0.0271614
-0.0251472
-0.0232529
-0.0214716
-0.0197942
-0.018203
-0.0166725
-0.0151856
-0.0137225
-0.0122728
-0.0108273
-0.0141826
-0.0138649
-0.0129948
-0.0126749
-0.0116803
-0.0103253
-0.0110499
-0.0123631
-0.0120407
-0.0135644
-0.0132386
-0.0093724
-0.103023
-0.100164
-0.0973299
-0.0945117
-0.0917073
-0.088906
-0.0861012
-0.0824645
-0.0840178
-0.0795962
-0.081092
-0.0765392
-0.0772042
-0.0785739
-0.0778241
-0.063481
-0.0656279
-0.0669362
-0.0683863
-0.0697281
-0.070845
-0.0715091
-0.0729261
-0.0722367
-0.0736196
-0.0744322
-0.0734269
-0.0606767
-0.0578965
-0.0551439
-0.0524253
-0.0497357
-0.0470789
-0.0444509
-0.0418568
-0.0393054
-0.0368075
-0.0343762
-0.0320201
-0.0297531
-0.027582
-0.0255192
-0.0235686
-0.0217322
-0.0200062
-0.0183773
-0.0168275
-0.015338
-0.0138849
-0.012454
-0.0110349
-0.00961557
-0.0129018
-0.0125874
-0.0117243
-0.0114115
-0.0104338
-0.00910488
-0.00981463
-0.0111037
-0.0107878
-0.0122834
-0.0119618
-0.00817602
-0.103627
-0.10071
-0.0978221
-0.0949531
-0.0920908
-0.0892273
-0.0855208
-0.0870973
-0.0825916
-0.0841192
-0.0793066
-0.0800623
-0.0815297
-0.0807749
-0.0609242
-0.0630146
-0.0643003
-0.0657195
-0.0670391
-0.0681318
-0.0687983
-0.0701331
-0.0694677
-0.0708821
-0.0715494
-0.072927
-0.0722455
-0.0581791
-0.0554566
-0.0527642
-0.0501026
-0.047473
-0.0448747
-0.042307
-0.0397756
-0.0372879
-0.0348567
-0.0324948
-0.0302087
-0.0280117
-0.0259114
-0.0239128
-0.0220264
-0.0202482
-0.0185737
-0.0169925
-0.0154862
-0.0140332
-0.012613
-0.0112147
-0.00982622
-0.00842774
-0.0116317
-0.0113237
-0.0104751
-0.0101676
-0.00920454
-0.0078998
-0.00859484
-0.00986467
-0.00955335
-0.0110244
-0.0107085
-0.00699522
-0.104176
-0.101209
-0.0982713
-0.0953477
-0.0924244
-0.088641
-0.090246
-0.0856519
-0.0872072
-0.0823003
-0.0830655
-0.0845639
-0.0837972
-0.0584222
-0.0604616
-0.0617247
-0.0631075
-0.0644018
-0.0654646
-0.0661241
-0.0674401
-0.066777
-0.0681736
-0.0688382
-0.0701791
-0.0695093
-0.0557345
-0.0530706
-0.0504343
-0.0478294
-0.045257
-0.0427151
-0.0402068
-0.0377363
-0.0353118
-0.0329475
-0.0306531
-0.0284367
-0.0263097
-0.0242761
-0.022345
-0.0205179
-0.0187961
-0.0171752
-0.0156419
-0.0141738
-0.0127532
-0.0113674
-0.0100035
-0.00864267
-0.00725801
-0.0103841
-0.0100808
-0.00924311
-0.00894099
-0.00798861
-0.00670528
-0.00738658
-0.00864099
-0.00833345
-0.00978572
-0.00947365
-0.00582732
-0.104678
-0.101665
-0.0986761
-0.0956943
-0.0918298
-0.0934668
-0.0887754
-0.0903625
-0.0853545
-0.0861331
-0.0876614
-0.08688