/*--------------------------------*- C++ -*----------------------------------*\
| =========                 |                                                 |
| \\      /  F ield         | OpenFOAM: The Open Source CFD Toolbox           |
|  \\    /   O peration     | Version:  v1912                                 |
|   \\  /    A nd           | Website:  www.openfoam.com                      |
|    \\/     M anipulation  |                                                 |
\*---------------------------------------------------------------------------*/
FoamFile
{
    version     2.0;
    format      ascii;
    class       volVectorField;
    location    "200";
    object      U;
}
// * * * * * * * * * * * * * * * * * * * * * * * * * * * * * * * * * * * * * //

dimensions      [0 1 -1 0 0 0 0];


internalField   nonuniform List<vector> 
3753
(
(0.0486799 0.0205966 0)
(0.149571 0.0616003 2.16523e-23)
(0.0481824 0.0203933 -1.006e-23)
(0.251848 0.101696 0)
(0.148076 0.0609944 -1.06533e-23)
(0.0477063 0.0201924 1.01202e-23)
(0.351263 0.139055 -7.64056e-21)
(0.249373 0.100704 -8.3495e-24)
(0.146633 0.0604027 -1.02977e-20)
(0.0472441 0.0199957 9.42459e-24)
(0.441476 0.171313 6.71787e-21)
(0.34783 0.137692 -7.34751e-21)
(0.246947 0.0997261 8.42815e-21)
(0.145202 0.0598164 9.54618e-24)
(0.0467799 0.0198004 -9.52532e-21)
(0.514804 0.195767 -5.85121e-24)
(0.437125 0.169607 6.46992e-21)
(0.344446 0.136353 0)
(0.244561 0.0987712 7.75432e-24)
(0.143787 0.0592343 -9.56926e-24)
(0.0463315 0.01961 0)
(0.563562 0.209936 2.23438e-25)
(0.509625 0.193764 5.88803e-21)
(0.432835 0.167941 5.9562e-24)
(0.341123 0.135045 -6.82033e-21)
(0.242191 0.0978143 -7.76666e-24)
(0.142407 0.058665 0)
(0.0458811 0.0194189 0)
(0.581706 0.212173 -5.46569e-24)
(0.557671 0.207688 -5.54615e-21)
(0.504534 0.191817 0)
(0.428631 0.166309 5.99326e-21)
(0.337824 0.133737 0)
(0.239853 0.0968682 0)
(0.141036 0.0580994 0)
(0.0454302 0.0192273 -8.59234e-21)
(0.566403 0.202168 0)
(0.575245 0.20974 5.51977e-21)
(0.551892 0.205513 0)
(0.499536 0.189908 1.04201e-23)
(0.424455 0.164686 -1.67821e-23)
(0.334549 0.132439 0)
(0.237538 0.0959336 0)
(0.139666 0.0575328 0)
(0.0449902 0.019039 7.94212e-24)
(0.518845 0.181113 6.1921e-24)
(0.559508 0.199603 -5.61229e-21)
(0.568909 0.207397 0)
(0.546219 0.203386 5.15234e-21)
(0.494581 0.188016 -1.04302e-23)
(0.420314 0.163074 4.28872e-25)
(0.331313 0.131156 0)
(0.235242 0.0950018 0)
(0.138308 0.0569716 0)
(0.0445622 0.0188595 -7.98051e-24)
(0.443975 0.15147 3.41408e-24)
(0.511619 0.178454 -3.03497e-24)
(0.552756 0.197162 5.4196e-21)
(0.56273 0.20513 -5.0494e-21)
(0.540635 0.201291 4.9693e-21)
(0.489675 0.18614 0)
(0.416217 0.161477 1.06342e-23)
(0.328098 0.129877 0)
(0.23297 0.0940834 0)
(0.136988 0.0564248 -7.94248e-21)
(0.0441302 0.0186802 0)
(0.349297 0.116422 -4.24111e-21)
(0.436442 0.148723 2.26034e-23)
(0.504584 0.175984 -5.76432e-21)
(0.546268 0.194836 2.07467e-23)
(0.556705 0.20291 -4.85311e-21)
(0.535126 0.199223 0)
(0.484824 0.184282 0)
(0.412146 0.159889 -4.91828e-24)
(0.324928 0.128618 0)
(0.230726 0.0931687 6.45913e-21)
(0.135669 0.055883 7.64425e-21)
(0.0437056 0.0185009 0)
(0.243429 0.0792523 5.96986e-21)
(0.341244 0.113538 -4.03158e-24)
(0.429192 0.146264 -1.21275e-24)
(0.497997 0.173681 0)
(0.540036 0.192581 0)
(0.550808 0.200737 -1.87703e-23)
(0.529694 0.197181 4.61353e-21)
(0.480013 0.182443 0)
(0.408126 0.15832 4.92339e-24)
(0.321771 0.12736 0)
(0.228506 0.092274 -6.20976e-21)
(0.13438 0.0553518 3.52429e-24)
(0.0432857 0.018322 0)
(0.233723 0.075949 -2.36433e-21)
(0.158667 0.0508597 2.05318e-21)
(0.162813 0.0522526 -2.07587e-21)
(0.333726 0.111062 0)
(0.422759 0.144066 6.32427e-21)
(0.491847 0.171498 -5.48351e-21)
(0.534031 0.190411 0)
(0.545035 0.198608 -4.52017e-21)
(0.524337 0.195171 8.47797e-24)
(0.475267 0.180626 4.50182e-21)
(0.404144 0.15677 0)
(0.31868 0.126134 0)
(0.226329 0.0913904 -1.21694e-25)
(0.133102 0.0548241 -3.5303e-24)
(0.0428739 0.0181458 0)
(0.225485 0.0732498 1.05454e-21)
(0.145805 0.0468698 2.01185e-21)
(0.152386 0.0483972 2.04677e-21)
(0.104223 0.0331206 -1.82569e-21)
(0.107906 0.0342205 4.60546e-22)
(0.327724 0.109013 -7.37824e-21)
(0.417033 0.14207 6.10068e-21)
(0.48606 0.169446 -2.01683e-23)
(0.52822 0.188312 0)
(0.539383 0.196529 -8.72297e-24)
(0.519064 0.193192 -4.26163e-21)
(0.470592 0.17884 0)
(0.400231 0.155243 2.18342e-24)
(0.315629 0.124918 2.39616e-24)
(0.224192 0.0905253 -2.8499e-24)
(0.131847 0.0543028 0)
(0.0424913 0.0179829 0)
(0.220447 0.0714073 2.36152e-21)
(0.138622 0.0442886 -3.90207e-21)
(0.141198 0.0451588 0)
(0.0874876 0.0279391 -4.635e-22)
(0.0966647 0.0301267 0)
(0.0628033 0.0198133 3.70714e-23)
(0.0650535 0.0206123 6.09643e-22)
(0.0664059 0.0209162 -6.38732e-22)
(0.32285 0.107337 2.87866e-23)
(0.411845 0.140266 -8.39277e-25)
(0.480562 0.167503 7.43144e-25)
(0.522589 0.186283 0)
(0.533848 0.194493 0)
(0.513878 0.191249 0)
(0.465988 0.177077 0)
(0.396376 0.153738 -2.18591e-24)
(0.312648 0.123734 4.79602e-21)
(0.222101 0.0896736 -2.6187e-24)
(0.130656 0.0538059 6.49108e-21)
(0.0420987 0.0178181 0)
(0.217023 0.0702545 -2.20742e-21)
(0.13569 0.0431944 3.77482e-21)
(0.13681 0.0434977 -7.58608e-21)
(0.0814389 0.0256092 2.20496e-21)
(0.0831494 0.0262961 -4.55108e-22)
(0.0418472 0.0134321 5.97036e-22)
(0.045241 0.014358 2.03783e-23)
(0.0589445 0.0184752 -1.97856e-23)
(0.0521986 0.0154699 3.63681e-22)
(0.0363059 0.0114583 -5.75358e-22)
(0.037996 0.0119586 8.67576e-24)
(0.0388011 0.012142 8.92351e-24)
(0.318646 0.105916 0)
(0.407034 0.138606 -5.84574e-21)
(0.475312 0.165651 1.95468e-23)
(0.517113 0.184311 0)
(0.528425 0.192502 3.88653e-24)
(0.508787 0.189339 3.95617e-21)
(0.461451 0.175344 -3.99583e-21)
(0.392606 0.152268 -8.27584e-24)
(0.309731 0.12257 0)
(0.220075 0.0888449 -5.26375e-21)
(0.129476 0.0533167 6.22351e-21)
(0.0417252 0.0176611 0)
(0.214251 0.0693941 2.07792e-21)
(0.133877 0.0426538 3.6232e-21)
(0.134638 0.0427971 3.71822e-21)
(0.0798787 0.0250734 -3.38704e-21)
(0.0804828 0.025269 4.32933e-21)
(0.0386898 0.0120711 4.6437e-24)
(0.0389062 0.0121279 -1.80058e-21)
(0.0400451 0.0125873 6.53376e-22)
(0.0392243 0.0123127 -2.86129e-23)
(0.0138292 0.00450751 -4.13169e-22)
(0.0153454 0.00504828 0)
(0.0336319 0.0101724 -5.2384e-22)
(0.0229615 0.00550181 -2.67292e-22)
(0.0116171 0.00372597 4.05303e-22)
(0.01227 0.00383013 0)
(0.0125097 0.00389092 0)
(0.314869 0.104653 6.75678e-21)
(0.402493 0.137043 5.61911e-21)
(0.470245 0.163871 9.07215e-24)
(0.511783 0.182397 4.24444e-21)
(0.523112 0.190551 -3.89227e-21)
(0.503775 0.187465 3.78171e-21)
(0.457021 0.173649 -3.82872e-21)
(0.388924 0.150827 4.03256e-21)
(0.306895 0.121433 0)
(0.218105 0.088042 -5.0459e-21)
(0.128342 0.0528441 0)
(0.0413593 0.0175084 0)
(0.211801 0.068627 2.04135e-21)
(0.132385 0.0422157 2.96433e-23)
(0.133008 0.0423317 0)
(0.0789515 0.024808 -8.40789e-22)
(0.07939 0.0249242 -3.34455e-21)
(0.0382415 0.0119233 4.50444e-24)
(0.0382854 0.0119212 -9.04683e-24)
(0.0385044 0.0119887 -1.179e-21)
(0.0384009 0.0119848 4.54541e-24)
(0.0123526 0.00383217 -7.92917e-22)
(0.0124181 0.00385667 -1.81494e-24)
(0.0128605 0.00404883 -4.39733e-22)
(0.0125242 0.00391075 0)
(0.010885 0.00352974 2.5978e-22)
(0.00638018 0.00147622 5.3661e-23)
(0.311348 0.103482 -1.32089e-20)
(0.398174 0.135568 1.06944e-23)
(0.465346 0.16215 -4.53155e-21)
(0.506571 0.180525 -4.08604e-21)
(0.5179 0.188644 1.79509e-24)
(0.498876 0.185627 -1.81152e-24)
(0.452683 0.171986 -7.35126e-21)
(0.385337 0.149419 -3.8626e-21)
(0.304143 0.120328 0)
(0.216194 0.0872566 0)
(0.127242 0.0523888 -2.72179e-24)
(0.0409912 0.0173528 5.59896e-21)
(0.209519 0.0679061 1.15784e-20)
(0.130994 0.0417875 3.29267e-24)
(0.131598 0.0419102 -3.43054e-21)
(0.0781336 0.0245693 -3.18098e-21)
(0.0785275 0.0246838 1.10631e-25)
(0.03789 0.0118281 -1.10819e-21)
(0.0379476 0.0118184 1.11017e-21)
(0.0381139 0.0118622 0)
(0.0380342 0.0118699 -1.1302e-21)
(0.0122365 0.00379562 7.64827e-22)
(0.0122405 0.00379958 -7.6965e-22)
(0.0123014 0.00381642 -7.82965e-22)
(0.012271 0.00381303 -7.76785e-22)
(0.30804 0.102384 -1.26991e-23)
(0.394012 0.13414 0)
(0.460567 0.160476 4.35396e-21)
(0.501475 0.178701 -3.92848e-21)
(0.512795 0.186769 -1.7967e-24)
(0.494074 0.183826 3.47859e-21)
(0.448457 0.170362 3.51498e-21)
(0.381843 0.148043 1.76571e-24)
(0.301465 0.11925 0)
(0.21435 0.0865027 0)
(0.126156 0.0519364 -5.44744e-21)
(0.0406601 0.0172073 -5.2896e-24)
(0.207354 0.0672049 -3.7783e-21)
(0.129651 0.0413694 -3.27678e-21)
(0.130236 0.0414865 -3.31817e-21)
(0.0773379 0.0243284 3.00773e-24)
(0.0777347 0.0244469 3.10532e-24)
(0.0375238 0.0117177 0)
(0.037603 0.0117164 -1.09204e-21)
(0.0377655 0.0117696 0)
(0.0377014 0.0117707 4.2485e-24)
(0.0121217 0.00376517 1.07691e-24)
(0.0121509 0.00376688 7.48514e-22)
(0.0121973 0.00377962 -7.58841e-22)
(0.0121654 0.0037778 7.50253e-22)
(0.304832 0.101316 6.23444e-21)
(0.389965 0.132762 2.38843e-24)
(0.455912 0.158847 4.18434e-21)
(0.496471 0.176904 0)
(0.507785 0.184931 0)
(0.489383 0.182061 0)
(0.444339 0.168773 3.28919e-24)
(0.378461 0.146707 3.53362e-21)
(0.298893 0.118211 0)
(0.212558 0.0857647 -2.08647e-24)
(0.125108 0.0514943 -1.03688e-20)
(0.0403195 0.0170678 0)
(0.20523 0.0665231 -7.17524e-21)
(0.128363 0.0409513 3.16292e-21)
(0.12893 0.0410708 3.20164e-21)
(0.0765606 0.0240904 -7.5938e-22)
(0.0769483 0.0242009 -3.01056e-24)
(0.0371612 0.0116071 0)
(0.037236 0.0116073 0)
(0.0373952 0.0116553 -1.06812e-21)
(0.0373346 0.0116596 0)
(0.0120049 0.00372887 -7.21997e-22)
(0.0120409 0.00373258 1.45451e-21)
(0.0120998 0.00375517 -2.89034e-24)
(0.0120778 0.00375033 -7.31349e-22)
(0.301744 0.100294 0)
(0.386032 0.131416 -2.39239e-24)
(0.451339 0.157245 2.025e-24)
(0.49156 0.175143 3.62404e-21)
(0.502873 0.183125 0)
(0.484801 0.180332 3.21617e-21)
(0.440336 0.167223 -3.21928e-21)
(0.375198 0.145409 0)
(0.296399 0.117199 1.75147e-24)
(0.210806 0.0850413 4.18307e-21)
(0.124093 0.0510754 2.47281e-24)
(0.0399755 0.0169246 -9.25093e-24)
(0.203205 0.0658646 1.75514e-21)
(0.127092 0.0405524 1.5893e-23)
(0.127659 0.0406683 3.10218e-21)
(0.0758017 0.0238466 -2.81684e-24)
(0.0761699 0.0239574 -7.46809e-22)
(0.0367938 0.0114925 0)
(0.0368592 0.0114907 1.01158e-21)
(0.037044 0.0115474 0)
(0.0369755 0.0115419 0)
(0.0118986 0.00369594 -7.02411e-22)
(0.0119301 0.00369984 7.07571e-22)
(0.0119772 0.00371583 7.14496e-22)
(0.0119508 0.00371242 -7.11209e-22)
(0.29873 0.0992878 0)
(0.382169 0.130097 -4.67917e-21)
(0.44683 0.155665 -3.86533e-21)
(0.486721 0.173406 -4.87242e-24)
(0.498054 0.181347 3.43478e-23)
(0.480332 0.178637 0)
(0.436469 0.165712 -3.08406e-21)
(0.37204 0.144147 0)
(0.293969 0.116211 -3.4156e-24)
(0.209103 0.0843426 0)
(0.123083 0.0506573 4.67185e-21)
(0.0396557 0.0167897 9.24949e-21)
(0.201213 0.0652189 -1.69368e-21)
(0.125875 0.0401547 -2.94305e-21)
(0.126412 0.0402695 -3.02608e-21)
(0.0750678 0.0236207 -2.7991e-21)
(0.0754423 0.0237273 2.82017e-24)
(0.0364366 0.0113759 0)
(0.0365055 0.0113801 3.85519e-24)
(0.0366627 0.0114292 9.94182e-22)
(0.0365862 0.0114298 -3.85196e-24)
(0.0117741 0.00365701 -6.82033e-22)
(0.011797 0.00365917 6.87291e-22)
(0.0118693 0.00368277 -6.96146e-22)
(0.0118355 0.00367293 -6.91913e-22)
(0.295763 0.0983017 5.42792e-21)
(0.378349 0.128792 0)
(0.442385 0.154108 0)
(0.481947 0.171687 -3.27336e-21)
(0.493328 0.179595 6.0771e-24)
(0.475986 0.176972 2.91196e-21)
(0.432713 0.164236 1.46495e-24)
(0.368967 0.142917 0)
(0.291608 0.115253 1.66388e-24)
(0.207438 0.0836612 -3.76521e-21)
(0.1221 0.0502507 -2.18447e-23)
(0.0393351 0.0166535 4.382e-21)
(0.199248 0.0645827 0)
(0.124662 0.0397733 -2.76049e-23)
(0.125208 0.0398877 0)
(0.0743479 0.023389 -1.3691e-21)
(0.0747039 0.0234919 2.05125e-21)
(0.0360856 0.0112713 -9.47765e-22)
(0.0361461 0.0112675 3.69048e-24)
(0.0362987 0.011315 0)
(0.0362392 0.0113154 0)
(0.0116583 0.00361925 -6.62439e-22)
(0.0116963 0.00362786 6.67083e-22)
(0.0117435 0.00364355 0)
(0.0117137 0.00363998 -6.71314e-22)
(0.292832 0.0973256 0)
(0.374571 0.1275 -8.16145e-24)
(0.437964 0.152556 0)
(0.477224 0.169979 0)
(0.488686 0.177857 0)
(0.471745 0.175337 1.45925e-24)
(0.429067 0.162797 -2.7986e-21)
(0.365985 0.141721 0)
(0.289296 0.114319 3.14418e-21)
(0.205807 0.0829945 -3.57765e-21)
(0.12113 0.0498448 -2.02322e-23)
(0.0390043 0.0165143 -7.86834e-24)
(0.197315 0.0639552 -1.57908e-21)
(0.123482 0.0393933 2.7614e-21)
(0.124006 0.0395064 0)
(0.0736361 0.0231681 2.62161e-21)
(0.0739902 0.0232695 -1.03405e-23)
(0.0357376 0.0111591 9.07786e-22)
(0.0358131 0.0111688 9.15909e-22)
(0.0359682 0.0112111 9.28129e-22)
(0.0358947 0.0112064 -3.59366e-24)
(0.0115433 0.0035862 -1.79256e-24)
(0.0115754 0.00358932 6.47499e-22)
(0.0116168 0.00360492 -6.55794e-22)
(0.0115978 0.00360089 -6.5108e-22)
(0.289927 0.0963543 -9.7269e-24)
(0.370797 0.126208 8.16919e-24)
(0.433545 0.150999 -1.32137e-23)
(0.472528 0.168264 5.80997e-24)
(0.484125 0.176134 5.31653e-24)
(0.467619 0.173731 2.64633e-21)
(0.425518 0.161393 0)
(0.363067 0.140557 -2.52928e-25)
(0.287038 0.113406 0)
(0.204186 0.0823271 -3.3774e-21)
(0.120154 0.049438 3.94569e-21)
(0.0386736 0.0163739 3.92881e-21)
(0.1954 0.0633298 -1.50826e-21)
(0.122321 0.0390226 2.63198e-21)
(0.122844 0.039138 0)
(0.0729379 0.0229484 -2.52077e-21)
(0.0733003 0.0230532 0)
(0.0354033 0.0110564 -8.80103e-22)
(0.0354705 0.0110591 0)
(0.0356064 0.0110976 0)
(0.0355596 0.0110996 0)
(0.0114382 0.00355237 -1.20981e-24)
(0.0114694 0.00356073 -6.26295e-22)
(0.0115232 0.00357438 -6.36637e-22)
(0.0114942 0.00356717 0)
(0.287014 0.0953803 4.95492e-21)
(0.366974 0.124898 1.50582e-23)
(0.429078 0.149416 3.35446e-21)
(0.46785 0.166538 2.93829e-21)
(0.479636 0.174413 -5.30753e-24)
(0.46358 0.172154 2.39827e-24)
(0.422044 0.160024 -2.50025e-21)
(0.36021 0.139418 0)
(0.284787 0.112494 0)
(0.202562 0.0816585 -3.19219e-21)
(0.119175 0.0490276 -7.45435e-21)
(0.0383509 0.0162344 3.66565e-21)
(0.193494 0.0627076 -4.24662e-21)
(0.121165 0.0386508 5.0767e-21)
(0.121683 0.0387625 1.00084e-23)
(0.0722653 0.0227371 -6.08656e-22)
(0.0726123 0.0228382 -9.62961e-24)
(0.0350686 0.0109506 -8.45807e-22)
(0.0351428 0.0109609 -3.3199e-24)
(0.0352943 0.0109982 0)
(0.0352368 0.0110025 0)
(0.0113312 0.00351902 -4.01526e-24)
(0.011355 0.00352316 -6.06864e-22)
(0.0113985 0.00353592 -6.1485e-22)
(0.0113807 0.00353172 6.12276e-22)
(0.284054 0.0943919 9.35927e-24)
(0.363052 0.12355 -3.74854e-21)
(0.424538 0.147785 -3.13128e-21)
(0.463156 0.164774 2.82189e-21)
(0.475203 0.172706 -1.19902e-24)
(0.459616 0.170612 -2.39435e-24)
(0.418637 0.158686 4.49644e-24)
(0.357372 0.138288 -9.32995e-24)
(0.28254 0.111583 0)
(0.200938 0.0809869 2.47047e-23)
(0.118191 0.0486114 1.32702e-23)
(0.0380144 0.0160917 3.48836e-21)
(0.191564 0.0620755 1.42078e-21)
(0.120035 0.0382876 -2.42983e-21)
(0.120553 0.0384034 -2.50751e-21)
(0.0715854 0.0225199 -2.34283e-21)
(0.071935 0.0226205 0)
(0.0347471 0.0108518 0)
(0.0348154 0.0108593 8.15395e-22)
(0.0349528 0.0108924 8.39954e-22)
(0.0349042 0.0108997 3.22453e-24)
(0.0112298 0.00348609 -1.78003e-24)
(0.0112595 0.0034966 -5.87229e-22)
(0.0113083 0.00350554 6.00398e-22)
(0.0112781 0.00350289 -5.92108e-22)
(0.280966 0.0933607 -1.72701e-23)
(0.358942 0.122124 -3.68216e-21)
(0.419844 0.146066 -3.01361e-21)
(0.458437 0.162978 -2.69153e-21)
(0.470822 0.171022 1.197e-24)
(0.455724 0.169111 0)
(0.415267 0.157369 -1.29915e-23)
(0.354536 0.137157 9.3268e-24)
(0.280288 0.110667 2.51515e-21)
(0.199314 0.0803122 -1.0603e-23)
(0.117192 0.0481879 -8.76134e-25)
(0.0376737 0.0159504 -1.3097e-23)
(0.189557 0.0614185 1.35069e-21)
(0.118898 0.0379186 -4.53836e-24)
(0.119422 0.0380406 -2.36732e-21)
(0.0709356 0.0223167 6.76891e-24)
(0.071278 0.0224155 2.2879e-21)
(0.0344283 0.0107496 0)
(0.034487 0.0107503 -1.55531e-24)
(0.0346499 0.0107971 -3.13578e-24)
(0.0345903 0.0107995 4.69418e-24)
(0.0111283 0.00345563 -5.65385e-22)
(0.0111489 0.00346234 0)
(0.0111882 0.0034685 -5.76326e-22)
(0.0111653 0.00346871 -5.72725e-22)
(0.277609 0.09224 -9.89914e-23)
(0.354517 0.120563 0)
(0.414969 0.144237 5.84708e-21)
(0.453703 0.161178 0)
(0.466505 0.169389 8.54553e-24)
(0.451886 0.167641 0)
(0.411913 0.156057 1.65149e-23)
(0.351707 0.136025 0)
(0.278043 0.109747 -2.36368e-21)
(0.197663 0.0796225 1.0608e-23)
(0.116192 0.0477657 -2.39625e-23)
(0.0373206 0.0158032 3.01097e-21)
(0.187325 0.0606978 6.39539e-21)
(0.117737 0.0375424 -2.24989e-21)
(0.1183 0.0376791 -2.30988e-21)
(0.0702835 0.0221077 3.70007e-24)
(0.0706132 0.0222065 5.65032e-22)
(0.0341224 0.0106528 1.48357e-24)
(0.0341866 0.0106608 -1.48257e-24)
(0.0343323 0.0107031 0)
(0.0342712 0.0107004 0)
(0.0110151 0.00341935 5.45961e-22)
(0.01105 0.00342768 -5.48964e-22)
(0.0110984 0.0034399 1.09813e-24)
(0.0110732 0.00343864 -5.55196e-22)
(0.273819 0.090967 0)
(0.34964 0.118778 -6.75201e-21)
(0.409922 0.142331 1.38712e-24)
(0.449017 0.159445 8.94139e-24)
(0.462279 0.167808 -4.54481e-25)
(0.448098 0.166188 0)
(0.408576 0.154744 -2.0196e-21)
(0.348882 0.134887 2.05063e-21)
(0.275775 0.108814 8.87726e-24)
(0.19601 0.0789282 -9.22021e-24)
(0.115171 0.047334 -2.82629e-21)
(0.0369625 0.0156507 -5.20697e-24)
(0.184661 0.0598419 0)
(0.116421 0.0371201 2.18962e-21)
(0.117082 0.0372885 -2.18411e-21)
(0.0696233 0.0218997 0)
(0.0699734 0.0220004 1.59039e-21)
(0.0338159 0.0105581 -2.73943e-24)
(0.0338837 0.0105628 -7.29058e-22)
(0.0340174 0.0106042 -7.4379e-22)
(0.0339727 0.0106079 -1.44011e-24)
(0.0109297 0.00339147 5.27813e-22)
(0.0109512 0.00339894 -5.30833e-22)
(0.010993 0.00341116 -5.40154e-22)
(0.0109693 0.00340762 -5.35387e-22)
(0.269185 0.0893572 1.94518e-21)
(0.344264 0.116747 -3.28717e-21)
(0.404876 0.140514 0)
(0.444488 0.157799 -4.73984e-25)
(0.458157 0.166262 -1.57675e-23)
(0.444345 0.16474 1.89479e-21)
(0.405243 0.153426 7.55643e-24)
(0.346047 0.13374 1.93151e-21)
(0.273491 0.107869 0)
(0.194338 0.0782264 2.29299e-21)
(0.114132 0.046891 2.62127e-21)
(0.0366114 0.0155011 1.47529e-23)
(0.180912 0.0586395 2.99315e-21)
(0.11469 0.0365798 -1.61555e-23)
(0.115649 0.0368381 2.13958e-21)
(0.0689171 0.0216759 -2.54358e-21)
(0.069292 0.0217838 1.59902e-23)
(0.0335148 0.0104609 0)
(0.0335844 0.0104726 0)
(0.0337175 0.0105102 -1.41187e-24)
(0.0336616 0.0105076 7.11137e-22)
(0.0108204 0.00335868 5.05997e-22)
(0.0108562 0.00336686 -5.13266e-22)
(0.0108957 0.00338079 0)
(0.0108808 0.00338063 0)
(0.263347 0.0871705 3.8255e-21)
(0.338788 0.114837 -2.25401e-23)
(0.400117 0.138845 -2.48982e-21)
(0.440163 0.156215 -8.48476e-24)
(0.454128 0.16474 -1.93232e-21)
(0.440625 0.163299 -6.82402e-24)
(0.401912 0.152105 -1.75574e-21)
(0.343188 0.13258 -6.77789e-24)
(0.271201 0.10692 1.90921e-21)
(0.192653 0.0775145 -2.10848e-21)
(0.113103 0.0464498 -2.41201e-21)
(0.0362434 0.0153444 -9.55589e-24)
(0.174147 0.0562353 1.79089e-23)
(0.111493 0.0355904 4.74864e-23)
(0.113366 0.0361977 -2.04479e-21)
(0.0680023 0.0213953 -1.32312e-23)
(0.0685361 0.0215375 -1.95636e-21)
(0.0332238 0.0103702 -5.41034e-24)
(0.0332756 0.0103751 1.33267e-24)
(0.0334084 0.010414 0)
(0.0333588 0.0104136 -1.33265e-24)
(0.0107342 0.00332974 0)
(0.0107637 0.00334058 -4.94845e-22)
(0.0107992 0.00335099 -5.0194e-22)
(0.0107772 0.00334777 -4.99316e-22)
(0.257125 0.0851 1.47951e-23)
(0.333868 0.113177 2.7881e-21)
(0.395764 0.13729 1.86739e-23)
(0.43603 0.154687 1.99312e-21)
(0.450181 0.163244 0)
(0.436937 0.161866 6.82847e-24)
(0.398589 0.150782 1.66777e-21)
(0.340341 0.131417 -1.66239e-21)
(0.268902 0.10596 -6.60222e-24)
(0.190972 0.0767975 1.42242e-23)
(0.112055 0.0459943 2.19917e-21)
(0.035863 0.0151832 0)
(0.165983 0.0537188 -5.90747e-22)
(0.102597 0.0324246 -1.57099e-23)
(0.108125 0.0344905 -3.16858e-23)
(0.0661637 0.0208782 5.78276e-23)
(0.0672939 0.021195 4.64862e-22)
(0.0328888 0.0102672 6.46967e-22)
(0.0329777 0.0102806 -1.30425e-21)
(0.0331361 0.0103241 1.30702e-24)
(0.0330671 0.0103132 0)
(0.010642 0.00330257 9.48953e-22)
(0.0106665 0.00331006 -4.77968e-22)
(0.0106943 0.00331842 -4.86266e-22)
(0.0106788 0.00331786 -4.82085e-22)
(0.252125 0.0834269 3.47281e-21)
(0.329688 0.111711 0)
(0.391737 0.135828 0)
(0.432056 0.153214 1.45973e-23)
(0.446313 0.161774 0)
(0.433289 0.160444 -3.19955e-21)
(0.395287 0.149459 0)
(0.337498 0.130249 1.56321e-21)
(0.266607 0.104991 1.62436e-21)
(0.189272 0.0760652 -1.76809e-21)
(0.110978 0.045528 -1.97451e-21)
(0.0354815 0.0150235 -3.41494e-24)
(0.161165 0.0519436 -3.47182e-21)
(0.092732 0.029664 9.07539e-22)
(0.0963009 0.0306739 9.82372e-22)
(0.0567404 0.0175472 0)
(0.0639278 0.0201422 -2.85878e-22)
(0.0321137 0.0100589 0)
(0.032442 0.0101271 4.91569e-24)
(0.032753 0.0102151 -6.71791e-24)
(0.0326106 0.0101868 -4.92806e-24)
(0.0105459 0.00327338 -4.58937e-22)
(0.010575 0.00327961 4.60412e-22)
(0.0106225 0.00329397 -4.69837e-22)
(0.0105961 0.00328707 -4.66299e-22)
(0.248433 0.0821242 -2.61993e-23)
(0.326042 0.110408 0)
(0.387973 0.134463 0)
(0.428226 0.151792 -1.46228e-23)
(0.442523 0.160328 1.59368e-21)
(0.429681 0.159028 3.92324e-25)
(0.392008 0.148135 3.16229e-23)
(0.334661 0.129071 0)
(0.264307 0.104015 1.4806e-21)
(0.187556 0.075325 3.17234e-21)
(0.109906 0.0450628 0)
(0.0350855 0.0148561 4.89893e-24)
(0.158542 0.0509567 9.59253e-22)
(0.0899897 0.0284588 -1.39422e-23)
(0.090942 0.0287912 -8.75629e-22)
(0.0446857 0.0141118 -1.36933e-21)
(0.0477214 0.0154113 2.81384e-22)
(0.018828 0.00441485 0)
(0.0277617 0.00825068 0)
(0.0315524 0.00994722 1.8693e-23)
(0.0303494 0.0094167 2.80785e-22)
(0.0103194 0.00320812 -4.40989e-22)
(0.0104338 0.00323351 4.45717e-22)
(0.0105112 0.00326142 -2.70177e-24)
(0.0104716 0.00325128 -4.49356e-22)
(0.245477 0.0810888 3.25488e-21)
(0.322748 0.10924 0)
(0.384421 0.133177 7.73301e-24)
(0.424515 0.150409 0)
(0.438806 0.158903 0)
(0.42612 0.15762 -1.36952e-21)
(0.388742 0.146808 -1.34891e-21)
(0.331836 0.127891 -1.29898e-21)
(0.262 0.103027 -1.32827e-21)
(0.185846 0.0745793 1.41158e-21)
(0.108814 0.0445817 -1.53491e-21)
(0.0346789 0.0146881 1.39187e-21)
(0.156709 0.0503746 -4.83572e-21)
(0.0888373 0.0280748 -1.71857e-21)
(0.0892798 0.028163 1.3935e-23)
(0.0434579 0.0135389 -4.1177e-22)
(0.0438781 0.0136923 0)
(0.0102747 0.00323564 4.37128e-22)
(0.0105442 0.00332966 -2.26211e-22)
(0.0126229 0.00395931 -2.44725e-22)
(0.0112325 0.00373701 0)
(0.00520539 0.00117264 0)
(0.00900171 0.00289103 1.9165e-22)
(0.0101289 0.00317825 4.36957e-22)
(0.0096653 0.00309498 1.99552e-22)
(0.24293 0.0802187 0)
(0.31972 0.108174 2.42701e-21)
(0.381032 0.131946 -1.50853e-23)
(0.420918 0.149063 -1.6647e-21)
(0.435162 0.157496 -1.46492e-21)
(0.422598 0.15622 1.2716e-21)
(0.385519 0.145484 4.56068e-24)
(0.329025 0.126702 0)
(0.25971 0.102032 -1.18051e-21)
(0.184124 0.073818 1.23529e-21)
(0.107696 0.0440907 -2.7916e-24)
(0.0342621 0.0145125 0)
(0.155157 0.0499099 9.47928e-22)
(0.0880136 0.0278566 1.63591e-21)
(0.088353 0.0279082 1.31953e-23)
(0.0430073 0.0134042 0)
(0.0432045 0.0134615 4.05422e-22)
(0.0101513 0.00315665 -6.93368e-25)
(0.0101629 0.00314812 -4.24421e-22)
(0.0102345 0.00318121 4.35833e-22)
(0.0101913 0.00316943 0)
(0.240649 0.0794475 -2.85221e-21)
(0.31688 0.107173 0)
(0.377785 0.130763 1.79788e-21)
(0.417416 0.147745 1.50273e-21)
(0.431585 0.156105 1.3743e-21)
(0.419132 0.154824 9.38697e-24)
(0.382317 0.144154 -4.56001e-24)
(0.326232 0.125506 1.08901e-21)
(0.257412 0.101024 1.0633e-21)
(0.182373 0.0730411 -9.41129e-25)
(0.106568 0.0435903 -1.08634e-21)
(0.0338383 0.0143326 0)
(0.153782 0.0494806 -9.22487e-22)
(0.0872673 0.0276452 -1.57176e-21)
(0.0875914 0.0277007 0)
(0.0426736 0.0133113 1.49462e-24)
(0.0428401 0.0133625 -3.96647e-22)
(0.0100965 0.00313767 -3.99448e-22)
(0.0101056 0.00313147 -4.03729e-22)
(0.010136 0.00314096 -4.10042e-22)
(0.0101276 0.00314888 -4.08566e-22)
(0.238536 0.0787311 -2.17755e-23)
(0.314182 0.10622 0)
(0.374646 0.129614 -6.57115e-24)
(0.414001 0.14645 -1.40378e-21)
(0.428079 0.154726 0)
(0.415709 0.153432 -8.65073e-24)
(0.379151 0.142821 -2.03108e-21)
(0.323453 0.1243 -9.32399e-22)
(0.255113 0.100004 0)
(0.180612 0.0722505 8.73196e-22)
(0.105413 0.0430729 0)
(0.0333958 0.0141469 0)
(0.152497 0.0490671 -8.66157e-22)
(0.0865721 0.0274251 0)
(0.08686 0.0274821 3.08502e-21)
(0.0423354 0.0132203 2.92961e-24)
(0.0425179 0.0132708 -4.41926e-24)
(0.0100367 0.00311687 -7.53757e-25)
(0.010052 0.00311353 -3.87088e-22)
(0.0100765 0.00312404 7.75316e-25)
(0.0100753 0.00313127 -6.24519e-25)
(0.236534 0.0780511 1.06262e-23)
(0.311593 0.105303 -2.07987e-21)
(0.371607 0.128495 3.68958e-25)
(0.410672 0.145175 1.39352e-21)
(0.424635 0.153357 0)
(0.41234 0.152041 9.89354e-22)
(0.37602 0.141482 0)
(0.320689 0.123083 1.72852e-24)
(0.252809 0.0989655 0)
(0.178832 0.0714417 0)
(0.104236 0.0425414 -6.14832e-22)
(0.0329333 0.0139554 0)
(0.151259 0.0486664 -1.66582e-21)
(0.0858736 0.0272016 1.43689e-21)
(0.0861746 0.0272622 -5.6926e-24)
(0.0420012 0.0131144 5.60726e-24)
(0.0421685 0.0131677 -1.44285e-21)
(0.00996127 0.00309804 -3.66483e-22)
(0.00997817 0.00309458 -3.73114e-22)
(0.0100138 0.00310387 -3.79612e-22)
(0.0100091 0.00311163 0)
(0.234627 0.0774006 -1.12402e-22)
(0.30911 0.104417 -1.98623e-21)
(0.368653 0.127395 -1.49291e-21)
(0.407423 0.143916 -1.3166e-21)
(0.421261 0.151995 -2.01314e-24)
(0.409016 0.150646 -1.71456e-24)
(0.372914 0.140133 0)
(0.31793 0.121847 0)
(0.250491 0.0979056 -2.57587e-25)
(0.177023 0.0706098 4.93396e-22)
(0.103021 0.041993 -3.67889e-22)
(0.0324576 0.0137568 -3.42673e-26)
(0.150076 0.0482766 2.24808e-21)
(0.0852179 0.0269944 1.36165e-21)
(0.0855006 0.0270499 2.80564e-21)
(0.041667 0.0130059 3.42955e-22)
(0.041839 0.0130605 0)
(0.00988042 0.00307211 -3.54175e-22)
(0.00989567 0.00306826 6.93147e-25)
(0.00993429 0.00308109 -3.64186e-22)
(0.00992763 0.00308663 -3.60997e-22)
(0.2328 0.0767717 -1.11141e-22)
(0.306695 0.103549 -1.87632e-21)
(0.365793 0.126319 1.40723e-21)
(0.404249 0.142666 2.39773e-24)
(0.417948 0.150635 2.01309e-24)
(0.405742 0.149249 1.71468e-24)
(0.369838 0.138772 0)
(0.315184 0.120595 0)
(0.248156 0.0968218 2.57766e-25)
(0.175191 0.0697587 6.19598e-22)
(0.101771 0.0414244 0)
(0.0319647 0.0135536 2.17093e-22)
(0.148947 0.0479009 2.91302e-21)
(0.0845753 0.0267869 1.2957e-21)
(0.0848549 0.0268433 1.32296e-24)
(0.0413604 0.0129156 0)
(0.0415118 0.0129581 -1.31365e-21)
(0.00981222 0.00304658 -3.38592e-22)
(0.00982643 0.00304539 -6.71697e-25)
(0.00985482 0.00305576 -3.49166e-22)
(0.00984717 0.00306136 -3.44195e-22)
(0.231027 0.0761592 2.21109e-21)
(0.304368 0.102703 0)
(0.36301 0.125254 -1.41232e-21)
(0.401149 0.141424 0)
(0.414698 0.149275 0)
(0.402514 0.147844 0)
(0.366785 0.137394 -6.42444e-22)
(0.312438 0.11932 4.93959e-22)
(0.24581 0.095713 -2.71832e-22)
(0.173312 0.0688764 1.26093e-22)
(0.100488 0.0408417 -1.50782e-25)
(0.0314486 0.0133455 1.807e-25)
(0.147845 0.0475379 -7.16575e-22)
(0.0839696 0.0265854 1.23258e-21)
(0.0842313 0.0266423 -2.53886e-21)
(0.0410469 0.0128173 0)
(0.0412058 0.0128632 0)
(0.00974209 0.00302833 0)
(0.00974869 0.00302361 -3.26506e-22)
(0.00977679 0.00302996 -3.33671e-22)
(0.00977193 0.00303786 -3.31218e-22)
(0.229323 0.0755658 2.19917e-21)
(0.302111 0.10187 1.58822e-21)
(0.360299 0.124196 -2.4388e-24)
(0.398116 0.140183 -1.93669e-24)
(0.411508 0.147913 0)
(0.39933 0.146428 6.07415e-22)
(0.363763 0.135998 -9.90214e-22)
(0.309684 0.118012 0)
(0.24343 0.0945714 -1.05606e-22)
(0.171393 0.0679674 0)
(0.0991505 0.040241 4.42805e-25)
(0.0309243 0.01314 1.95836e-24)
(0.14679 0.0471897 -3.27728e-21)
(0.0833601 0.026394 1.16656e-21)
(0.0836235 0.0264465 4.66587e-24)
(0.0407594 0.0127209 0)
(0.0409126 0.0127705 1.19304e-21)
(0.00966388 0.00300457 -1.20688e-24)
(0.00967233 0.00299972 -3.12044e-22)
(0.00970963 0.00301025 -3.19981e-22)
(0.00969517 0.00301452 -3.16003e-22)
(0.227674 0.0749875 0)
(0.299929 0.101046 0)
(0.357664 0.123144 1.86583e-24)
(0.395158 0.138948 -1.00163e-21)
(0.408381 0.146548 0)
(0.396193 0.144996 5.12079e-22)
(0.360751 0.134574 0)
(0.30692 0.116674 -5.70033e-26)
(0.241007 0.0933934 0)
(0.169423 0.0670307 3.00016e-22)
(0.0977581 0.039634 -2.92415e-25)
(0.0304029 0.0129296 1.1657e-21)
(0.145767 0.0468597 6.41188e-22)
(0.082784 0.0262091 1.11227e-21)
(0.083033 0.0262597 0)
(0.0404682 0.0126339 4.43397e-24)
(0.0406202 0.0126781 -4.42775e-24)
(0.00959815 0.00298184 -1.16188e-24)
(0.00961106 0.0029782 -2.9788e-22)
(0.00963955 0.00298935 -3.04779e-22)
(0.00963533 0.00299439 -3.01727e-22)
(0.226092 0.0744181 -1.9888e-21)
(0.297819 0.100221 0)
(0.355097 0.122096 1.0792e-21)
(0.392272 0.137716 0)
(0.405314 0.145172 0)
(0.393094 0.143544 -5.37595e-22)
(0.357753 0.13312 -1.04738e-25)
(0.304147 0.115302 5.70258e-26)
(0.238553 0.0921804 -4.1745e-22)
(0.16738 0.0660614 -5.28294e-22)
(0.096306 0.0390483 0)
(0.0300302 0.0126395 -1.52514e-21)
(0.144777 0.0465548 2.35695e-21)
(0.0822011 0.0260429 -1.05506e-21)
(0.0824549 0.0260831 -1.07891e-24)
(0.0401882 0.012546 0)
(0.0403326 0.0125889 0)
(0.00952605 0.00296166 -2.81305e-22)
(0.00954035 0.00295805 -2.84536e-22)
(0.00957242 0.00296774 0)
(0.00956877 0.00297371 -2.88434e-22)
(0.224586 0.073835 8.80317e-25)
(0.295763 0.0993985 0)
(0.352614 0.121064 -1.10872e-21)
(0.38946 0.136481 0)
(0.402311 0.143784 5.2934e-22)
(0.390034 0.142066 -1.64287e-25)
(0.354771 0.131632 1.04769e-25)
(0.301351 0.113886 1.19136e-22)
(0.236032 0.0909262 4.4137e-22)
(0.165291 0.0650862 0)
(0.094757 0.0384119 0)
(0.0304393 0.0123884 0)
(0.143955 0.0461103 -1.15214e-24)
(0.0816623 0.0259646 3.99593e-24)
(0.0818807 0.0259474 -1.04978e-21)
(0.0399042 0.012461 0)
(0.0400476 0.0125018 0)
(0.00946331 0.0029407 -2.68425e-22)
(0.00947704 0.00293917 -2.7145e-22)
(0.0095041 0.00294729 0)
(0.00949728 0.0029521 -2.74607e-22)
(0.223097 0.0732542 -8.79604e-25)
(0.293786 0.0986012 1.24585e-21)
(0.350205 0.120034 0)
(0.386727 0.13524 0)
(0.399368 0.142375 -5.89096e-22)
(0.387009 0.140556 1.64237e-25)
(0.35179 0.130102 -1.00222e-22)
(0.298511 0.112426 -8.47817e-26)
(0.2335 0.0896371 0)
(0.162883 0.0640557 0)
(0.0948217 0.0377128 0)
(0.0263608 0.0100427 0)
(0.143015 0.0457865 0)
(0.0813932 0.0255685 0)
(0.0814496 0.0259279 9.88979e-22)
(0.0395429 0.0124161 0)
(0.0397441 0.0124299 9.76102e-22)
(0.00940376 0.00291932 0)
(0.00941087 0.00291687 -2.58901e-22)
(0.00943468 0.00292547 -2.65377e-22)
(0.0094295 0.00293025 5.14406e-25)
(0.221675 0.0726986 0)
(0.291885 0.0978157 0)
(0.347886 0.119006 0)
(0.384068 0.133984 -1.40054e-22)
(0.396483 0.140941 -3.95581e-25)