/*--------------------------------*- C++ -*----------------------------------*\
| =========                 |                                                 |
| \\      /  F ield         | OpenFOAM: The Open Source CFD Toolbox           |
|  \\    /   O peration     | Version:  v1912                                 |
|   \\  /    A nd           | Website:  www.openfoam.com                      |
|    \\/     M anipulation  |                                                 |
\*---------------------------------------------------------------------------*/
FoamFile
{
    version     2.0;
    format      ascii;
    class       surfaceScalarField;
    location    "350";
    object      phi;
}
// * * * * * * * * * * * * * * * * * * * * * * * * * * * * * * * * * * * * * //

dimensions      [0 3 -1 0 0 0 0];
oriented        oriented;


internalField   nonuniform List<scalar> 
7200
(
-8.45054e-05
0.0100461
-0.000172642
0.0100534
2.41362e-05
0.010021
-0.000267887
0.0100664
3.67395e-05
0.0100408
0.000172088
0.00984734
-0.000372228
0.0100836
2.61273e-05
0.0100771
0.000317039
0.00989582
0.000405077
0.00943997
-0.000486477
0.0101022
-1.40227e-05
0.0101238
0.000411245
0.00998285
0.000749304
0.00955159
0.000830027
0.00860678
-0.000610394
0.0101201
-8.59075e-05
0.0101741
0.000442889
0.0100921
0.000987458
0.0097447
0.001501
0.00888062
0.0016764
0.00342045
0.00350563
-0.000742747
0.0101356
-0.000187833
0.010222
0.000410717
0.0102063
0.00109972
0.00997988
0.00193602
0.00930968
0.00286838
0.0037431
0.00394553
0.00081153
0.00260629
0.0015271
0.00279006
-0.000882473
0.0101483
-0.000316755
0.0102645
0.000320395
0.0103124
0.00109271
0.0102133
0.0021125
0.0098034
0.00359771
0.00858034
0.00215643
0.00311377
0.0026568
0.00344517
0.00123418
0.000675025
0.000694081
0.00232254
0.000921629
0.000780074
-0.0010282
0.010158
-0.000467947
0.0102995
0.000181353
0.0104035
0.000987754
0.0104173
0.00207592
0.0102499
0.00372756
0.00967355
-0.0036384
0.00705401
0.00363409
0.00418745
0.00307087
0.00113728
0.00122816
0.00287763
0.000395642
0.000278068
0.000790158
0.000299564
-0.00119424
0.00150879
0.000607079
0.000375992
-0.00117898
0.0101653
-0.000637552
0.0103276
2.92973e-06
0.0104779
0.000808024
0.0105832
0.0018921
0.0106011
0.00350246
0.010475
0.00651189
0.0102157
0.00573432
-0.00518234
0.0016968
0.00138531
0.00559567
0.0043261
0.00183159
0.000814483
0.00208721
0.000972531
-0.00210173
0.00104607
0.000838166
0.000277402
0.000576966
-0.000952959
0.00156004
-0.00133257
0.0101691
-0.00082138
0.0103491
-0.000205746
0.0105363
0.000573278
0.0107127
0.00161153
0.0108638
0.00310362
0.011
0.00558199
0.0114049
-0.00534951
0.00994108
0.00527635
0.00594342
-0.00260668
0.00278037
0.00152311
-0.00218694
0.000965566
-0.00210049
0.00211409
0.00174336
0.0017392
0.000635322
0.000609999
-0.00208349
0.000942621
-0.00124532
-0.00149088
0.0101733
-0.00101737
0.0103651
-0.000437299
0.0105807
0.000298895
0.0108107
0.00126887
0.0110554
0.00261635
0.0113511
0.00462251
0.0119594
0.00806796
0.013278
0.00440952
-0.00198669
0.00438672
-0.0015332
0.00444209
0.00591084
-0.00190819
0.0013308
-0.000942621
-0.0016596
0.001787
-0.0013308
0.00141456
0.000635322
-0.00165076
0.0101749
-0.00122164
0.0103776
-0.000686989
0.0106148
-3.95605e-06
0.0108835
0.000887946
0.0111916
0.00208828
0.0115834
0.00373898
0.0122346
0.0062909
0.0137365
-0.00314545
0.00720608
0.0136595
0.00247683
0.00315525
-0.000540689
-0.000704666
-0.000977642
0.00123144
0.00524222
0.000436922
-0.0018117
0.0101749
-0.00143219
0.0103854
-0.000948427
0.010639
-0.000325652
0.0109365
0.000483698
0.0112878
0.00154592
0.011734
0.00293029
0.0123921
0.00482727
0.0136982
0.00600259
0.01494
-0.00187862
0.00440031
0.0123611
-0.00122331
0.00111056
-0.000140876
0.00226373
-7.81722e-05
-0.000963697
0.000423008
-0.000436922
0.00447417
-0.00197531
0.0101766
-0.00164954
0.0103923
-0.00122144
0.0106584
-0.000660748
0.0109741
6.67027e-05
0.0113535
0.0010047
0.011829
0.00218178
0.0124825
0.00365121
0.0135682
0.00474317
0.0149577
0.00435639
0.0149839
0.00231094
0.0107522
-0.00023874
-0.000463306
-0.000504886
0.00375574
0.000282131
0.00179507
-1.01469e-05
-2.60725e-05
0.000203959
-0.0021393
0.010177
-0.00187055
0.0103976
-0.00150173
0.0106726
-0.00100666
0.0110044
-0.000359352
0.0114002
0.000467803
0.0118904
0.00148241
0.0125283
0.00267298
0.0134607
0.00363511
0.0146762
0.0037355
0.0155785
0.00289094
0.0144039
0.00121685
0.00966874
-0.000104751
-2.86151e-05
-0.00333763
0.00302203
7.6862e-05
-4.52001e-05
0.00165017
2.32727e-05
7.64273e-05
-0.000177887
0.00016774
-0.00230544
0.0101771
-0.00209541
0.0104019
-0.00178877
0.0106847
-0.00136003
0.0110259
-0.00079034
0.0114353
-6.17936e-05
0.0119298
0.00082205
0.0125507
0.00182341
0.0133779
0.00268188
0.0144139
0.00298644
0.0154253
0.00274312
0.0157264
0.00191088
0.0137099
0.000756178
0.00906341
-9.95686e-05
-5.12778e-05
-0.00293042
0.00283701
-1.13372e-05
6.29946e-05
0.00155424
7.4509e-05
9.8277e-05
0.000191012
0.00026744
-0.00247153
0.0101771
-0.00232348
0.0104052
-0.00208052
0.0106936
-0.00172067
0.0110453
-0.00122662
0.0114622
-0.000584407
0.011958
0.00019338
0.0125584
0.00106212
0.013312
0.00184344
0.0142164
0.00225557
0.0151448
0.00229038
0.015878
0.00200985
0.0156274
0.00131909
0.013147
0.000536734
0.00867212
-8.1615e-05
-6.38324e-05
-0.00279373
0.00272269
-2.8536e-05
-7.99676e-06
-0.00157843
0.00157373
-8.0488e-06
1.4076e-06
3.63754e-05
2.43227e-06
-0.000299541
0.000345953
2.80976e-05
6.61754e-05
-0.00263939
0.0101769
-0.0025542
0.0104078
-0.00237832
0.010703
-0.00208916
0.0110621
-0.00166749
0.0114862
-0.00110585
0.0119837
-0.000415702
0.012567
0.000357577
0.013263
0.00108353
0.0140719
0.00156269
0.0149092
0.00175494
0.0156802
0.00175146
0.0161364
0.00149589
0.0154506
0.000969426
0.0127143
0.000406328
0.00839346
-6.48782e-05
-6.27854e-05
-0.00267892
0.0026253
-2.79955e-05
-2.00548e-05
-0.00156713
0.00154499
-4.36284e-06
-2.02549e-06
1.02052e-06
-2.41874e-06
-0.000376826
0.000370807
-2.02981e-06
-0.000375322
-9.63869e-08
0.000373451
8.8769e-06
5.61414e-07
-6.61754e-05
9.4273e-05
-0.00280677
0.0101764
-0.00278593
0.0104086
-0.00267848
0.010708
-0.00246236
0.0110762
-0.00211533
0.0115099
-0.0016281
0.0120084
-0.00101172
0.0125797
-0.000308245
0.0132329
0.000379229
0.0139673
0.000905917
0.0147287
0.00121154
0.0154526
0.00135452
0.0160772
0.0013523
0.01628
0.00115357
0.0152664
0.000745827
0.0123748
0.000313786
0.00819057
-5.13179e-05
-5.9577e-05
-0.00258488
0.00254528
-2.52741e-05
-2.23691e-05
-0.00152834
0.00150637
-3.42024e-06
-2.60523e-06
-1.16074e-06
-2.24688e-06
-0.000366909
0.000363549
-1.00277e-06
-0.000368675
-2.59535e-07
0.000371097
7.30441e-07
3.43636e-09
-0.000103615
0.000101585
-0.000103711
0.00010315
-0.00297437
0.0101766
-0.00301994
0.0104104
-0.00298438
0.0107145
-0.00284344
0.0110891
-0.00257186
0.0115327
-0.00215797
0.0120398
-0.00160576
0.0126025
-0.000954091
0.0132255
-0.000289837
0.0139019
0.000273932
0.0145993
0.000668135
0.0152721
0.000916714
0.0158904
0.00105398
0.0163755
0.00107266
0.0163609
0.000922342
0.0150899
0.000582278
0.0121063
0.000225791
0.0080505
-3.1782e-05
-5.394e-05
-0.00250829
0.00247994
-2.29744e-05
-2.25877e-05
-0.00148827
0.00146871
-2.96139e-06
-2.75289e-06
-1.97417e-06
-2.29232e-06
-0.000358089
0.000355501
-8.32935e-07
-0.000360269
-4.2524e-07
0.000362301
8.67014e-08
-2.14682e-07
-0.000102059
0.000101057
-0.000102319
0.000102316
-0.00314175
0.0101754
-0.00325309
0.0104098
-0.00329085
0.0107169
-0.00323028
0.0111013
-0.00303905
0.0115562
-0.00269836
0.0120731
-0.00220457
0.0126386
-0.00159289
0.0132413
-0.000937306
0.013873
-0.000338516
0.0145144
0.00013134
0.0151361
0.000468167
0.0157206
0.000697579
0.0162468
0.000839706
0.0166085
0.000882221
0.0164011
0.000750654
0.0149215
0.000442152
0.0118899
0.000106834
0.00795891
1.76769e-05
-3.29282e-05
-0.00244709
0.00243264
-1.73282e-05
-2.10874e-05
-0.00145101
0.00143384
-2.77437e-06
-3.02792e-06
-2.49538e-06
-2.3942e-06
-0.000349537
0.000347332
-7.56569e-07
-0.000351808
-4.82349e-07
0.000353742
-2.15164e-07
-3.57852e-07
-0.000100503
9.96705e-05
-0.000100929
0.000101143
-0.00330928
0.0101755
-0.00348583
0.0104081
-0.00359924
0.0107181
-0.00362423
0.0111108
-0.00351757
0.0115798
-0.00325575
0.0121136
-0.00281832
0.0126869
-0.00223803
0.0132837
-0.00158133
0.0138853
-0.000944401
0.0144789
-0.000404019
0.0150497
1.35208e-05
0.0155907
0.00032473
0.0160935
0.000545728
0.0165408
0.000697606
0.0167931
0.000745137
0.0164066
0.000608542
0.0147552
0.000302881
0.0116939
-5.66177e-05
0.00783643
0.000136112
4.29931e-05
-0.00241106
0.00242266
6.07127e-06
-1.13505e-05
-0.00141806
0.00140633
-2.31459e-06
-3.27816e-06
-2.95322e-06
-2.36256e-06
-0.000340869
0.000338847
-7.52349e-07
-0.000343323
-5.73917e-07
0.000345253
-4.15484e-07
-4.64718e-07
-9.86151e-05
9.78586e-05
-9.90975e-05
9.94553e-05
-0.00347411
0.0101728
-0.00371389
0.0104036
-0.00390578
0.0107147
-0.00402047
0.0111144
-0.00400982
0.0116031
-0.00383572
0.0121598
-0.00345659
0.0127519
-0.00290278
0.0133516
-0.00223323
0.0139356
-0.00154804
0.0144889
-0.000937357
0.0150122
-0.000442348
0.0155056
-5.76474e-05
0.0159731
0.000229901
0.0164093
0.000451878
0.0167866
0.000605816
0.0169324
0.000638223
0.0163769
0.000484468
0.0145736
0.000172087
0.0114652
-0.00014355
0.00763008
0.000175519
0.00017438
-0.00242589
0.00244974
0.00011226
3.97632e-05
-0.00139963
0.00140821
4.96547e-07
-3.00806e-06
-3.20488e-06
-1.44734e-06
-0.000331992
0.00033041
-7.32549e-07
-0.000334632
-6.37937e-07
0.000336452
-5.58837e-07
-5.42479e-07
-9.64044e-05
9.56521e-05
-9.69784e-05
9.74431e-05
-0.00363605
0.0101689
-0.00393612
0.0103951
-0.0042053
0.0107031
-0.00441776
0.0111119
-0.00451687
0.0116214
-0.00444352
0.0122109
-0.00412959
0.0128328
-0.0036031
0.0134522
-0.00290823
0.0140266
-0.00216121
0.0145488
-0.00147391
0.0150255
-0.000902569
0.0154724
-0.000445837
0.0158938
-9.32911e-05
0.0162963
0.000184097
0.0166771
0.000399348
0.016993
0.000542142
0.0170285
0.000553034
0.0163083
0.000387245
0.0143584
0.00011588
0.0112057
-2.98603e-05
0.0075209
2.40801e-05
0.000114952
-0.00244094
0.00243912
0.00017734
0.000183186
-0.00143846
0.00148567
4.73625e-05
1.76887e-05
-1.28656e-07
9.6463e-06
-0.00032446
0.000325323
-3.66613e-07
-0.000326882
-5.85736e-07
0.000327831
-6.26052e-07
-4.98231e-07
-9.39128e-05
9.31802e-05
-9.45507e-05
9.50932e-05
-0.00379458
0.0101635
-0.00414828
0.0103811
-0.0044938
0.0106836
-0.00481151
0.0110969
-0.00503405
0.0116291
-0.00508252
0.0122604
-0.00484819
0.0129294
-0.00435474
0.0135845
-0.0036176
0.0141616
-0.0027907
0.0146561
-0.00201792
0.0150928
-0.00136492
0.0154878
-0.000835311
0.0158619
-0.000420509
0.016221
-9.30099e-05
0.0165734
0.000168034
0.0169084
0.000374615
0.0171605
0.000500048
0.0170815
0.000493695
0.0162019
0.000347274
0.014127
0.00017157
0.0110043
0.000124942
0.00744612
-4.83876e-05
-1.77403e-06
-0.00246269
0.00246148
2.52954e-05
9.13748e-05
-0.00149934
0.00152619
5.39725e-05
9.65164e-05
7.42064e-05
9.53081e-05
-0.000343512
0.000368596
2.22793e-05
-0.000332835
7.01145e-06
0.000325107
8.6875e-08
1.91839e-06
-9.14702e-05
9.11036e-05
-9.2056e-05
9.25542e-05
-0.00394775
0.0101552
-0.00434384
0.0103591
-0.00476189
0.0106492
-0.00518985
0.0110619
-0.00555748
0.0116203
-0.0057542
0.0123008
-0.00562336
0.0130356
-0.00517744
0.0137521
-0.00438311
0.01435
-0.00344964
0.0148205
-0.00257196
0.0152101
-0.00183028
0.0155582
-0.00122743
0.0158799
-0.000750358
0.0161918
-0.000371978
0.0165
-6.81463e-05
0.0168096
0.000177295
0.0171057
0.00036755
0.017293
0.000478104
0.0170971
0.000474448
0.0160747
0.000372293
0.0139263
0.000275191
0.0108541
0.000216858
0.00733987
-6.46821e-05
-4.59219e-05
-0.00246457
0.0024407
-2.45213e-05
-4.86122e-06
-0.00157167
0.00159249
-3.44094e-06
7.91539e-06
3.57376e-05
1.01549e-05
-0.000445649
0.000465712
3.39093e-05
-0.000414182
6.505e-05
0.000391275
5.15271e-05
7.24004e-05
-0.00010012
0.0001224
-9.31088e-05
9.11905e-05
-0.0040923
0.0101415
-0.00451705
0.0103284
-0.00500057
0.0105978
-0.00554367
0.011003
-0.00607736
0.0115818
-0.00645522
0.0123213
-0.0064683
0.0131457
-0.0061023
0.0139605
-0.00522373
0.0145928
-0.00414481
0.0150451
-0.00314063
0.0153892
-0.00230022
0.0156801
-0.00162103
0.0159518
-0.00108043
0.01621
-0.000652341
0.0164721
-0.00030934
0.0167412
-2.94612e-05
0.0170163
0.000200797
0.0172725
0.000377113
0.017394
0.000481506
0.01709
0.000492783
0.0159542
0.000435807
0.0137657
0.000359951
0.010711
0.000255939
0.00720213
-6.09108e-05
-5.7284e-05
-0.00242348
0.00239241
-3.36122e-05
-2.86988e-05
-0.00159522
0.00158344
-7.9001e-06
-4.83986e-06
-1.00289e-06
-6.58279e-06
-0.000495893
0.000493745
-1.29342e-06
-0.000489961
1.98346e-06
0.000485565
1.58842e-05
5.75897e-06
-0.000241951
0.000266948
8.9129e-06
-0.00020033
2.34292e-05
0.000173927
4.59965e-05
-0.0042239
0.0101226
-0.00465934
0.0102838
-0.00519556
0.0105234
-0.00585341
0.0109075
-0.00657305
0.0114987
-0.00717498
0.0123015
-0.00740125
0.0132543
-0.00717479
0.0142182
-0.00616853
0.0149053
-0.00488834
0.0153363
-0.00372536
0.0156299
-0.00277327
0.0158623
-0.00201188
0.0160709
-0.00140856
0.0162799
-0.000930415
0.0164881
-0.000546524
0.0167093
-0.000235747
0.0169475
2.12685e-05
0.0171958
0.000234306
0.0174153
0.000402511
0.017473
0.000507639
0.0170751
0.000536705
0.0158533
0.000499963
0.0136257
0.0004076
0.0105593
0.000273786
0.00706295
-7.93498e-05
-5.52656e-05
-0.0023661
0.0023335
-2.83088e-05
-3.09812e-05
-0.00156772
0.0015478
-7.33664e-06
-6.35927e-06
-5.63502e-06
-7.34996e-06
-0.000488095
0.000483685
-3.48984e-06
-0.000490282
-2.65271e-06
0.000494311
-1.56869e-06
-2.55359e-06
-0.000286915
0.000286142
-5.20446e-07
-0.000284899
-3.3006e-08
0.000279872
2.95962e-06
7.32579e-07
-6.94257e-05
7.83386e-05
-4.59965e-05
-0.00434175
0.0101008
-0.0047625
0.0102258
-0.00532981
0.0104181
-0.00609152
0.0107615
-0.00701704
0.0113515
-0.00789777
0.0122215
-0.00846673
0.013367
-0.00847383
0.0145533
-0.00726057
0.0153103
-0.0056967
0.0157136
-0.00433232
0.0159433
-0.00325122
0.0161078
-0.00240129
0.0162517
-0.00173379
0.0163962
-0.00120516
0.0165547
-0.000782918
0.0167245
-0.000442662
0.0169162
-0.000161586
0.0171303
7.54341e-05
0.0173547
0.000276354
0.0175415
0.000439777
0.0175409
0.000548796
0.0170631
0.00058716
0.0157661
0.000543562
0.0134897
0.000427652
0.0104054
0.000266505
-0.000136609
0.00693306
-0.00229505
0.00215526
6.04367e-05
-1.68101e-05
-0.00152884
0.00151011
-4.29676e-06
-5.27597e-06
-5.8588e-06
-6.1614e-06
-0.000473138
0.00046913
-3.32827e-06
-0.000476603
-2.89455e-06
0.000480925
-2.87534e-06
-3.02819e-06
-0.000281238
0.000278614
-8.65175e-07
-0.000283167
-7.23857e-07
0.000285024
-4.50367e-07
-6.97203e-07
-8.19978e-05
8.14773e-05
-8.20308e-05
8.12982e-05
-0.00444418
0.0100784
-0.00481871
0.0101571
-0.00538152
0.0102775
-0.00622376
0.0105503
-0.00736772
0.0111122
-0.00860826
0.012062
-0.00973468
0.0134895
-0.0101073
0.0150005
-0.00855363
0.0158464
-0.00658967
0.0162032
-0.00496828
0.0163496
-0.0037349
0.0164269
-0.00278736
0.0164939
-0.00205305
0.0165709
-0.00147412
0.0166651
-0.00101494
0.0167867
-0.000645264
0.0169271
-0.000341359
0.017096
-8.53649e-05
0.0172911
0.000134063
0.017497
0.000325431
0.0176558
0.000484232
0.0176055
0.000592625
0.0170576
0.00062444
0.0156852
0.000563606
0.0133537
0.000422168
0.0102498
-0.00159374
0.00363182
-8.71066e-06
-1.07232e-05
0.000250012
-0.000122095
0.00680514
-0.0015043
-2.89955e-05
-2.04039e-06
-8.96698e-06
-0.000458938
0.000455872
-1.23142e-06
-0.000462278
-1.93555e-06
0.00046595
-2.67862e-06
-2.48963e-06
-0.000271875
0.000269348
-8.02023e-07
-0.000274061
-7.08419e-07
0.000276344
-6.05249e-07
-7.45257e-07
-7.96059e-05
7.87407e-05
-8.03298e-05
8.1027e-05
-0.00453308
0.0100609
-0.00482789
0.0100876
-0.00533713
0.0101127
-0.00620765
0.0102614
-0.00754969
0.0107323
-0.00925787
0.0117618
-0.0112369
0.0135642
-0.0121269
0.015509
-0.0100231
0.01647
-0.00753632
0.016793
-0.00562064
0.0168556
-0.00422367
0.0168384
-0.00317202
0.0168116
-0.0023637
0.0168045
-0.0017344
0.0168312
-0.00124106
0.0168912
-0.000843232
0.0169847
-0.000519213
0.0171049
-0.000248358
0.017259
-1.44273e-05
0.0174396
0.000193155
0.0176293
0.000377518
0.0177625
0.000529849
0.0176682
0.000631345
0.0170507
0.000645697
0.0156031
0.00055951
0.0132164
0.000395819
0.010104
0.00353205
-1.0295e-05
-1.20339e-05
-0.000673175
0.000665153
-3.80475e-07
-3.08352e-07
-0.000682657
-4.43293e-07
-7.986e-07
0.000206482
-9.86791e-05
0.00669733
-0.000421173
-8.41641e-07
-8.27289e-07
-0.00028881
0.000450647
3.18427e-06
2.0507e-05
-0.00026382
0.00026289
-3.00879e-07
-0.000265315
-4.40914e-07
0.000267201
-5.31324e-07
-6.0347e-07
-7.66818e-05
7.58797e-05
-7.73902e-05
7.81355e-05
-0.00461181
0.0100497
-0.00479698
0.01003
-0.00519661
0.00994709
-0.00600224
0.00990725
-0.00745446
0.0101661
-0.00967039
0.0111448
-0.012837
0.0133619
-0.0143381
0.0157754
-0.0113857
0.0168716
-0.00834015
0.0172738
-0.00618467
0.017357
-0.00466947
0.0173014
-0.00353442
0.0172008
-0.00266363
0.0171115
-0.00198844
0.0170586
-0.0014597
0.0170498
-0.00103667
0.0170847
-0.000692552
0.017158
-0.000406263
0.0172629
-0.000160653
0.0174052
5.39181e-05
0.0175788
0.000249309
0.0177575
0.000425175
0.0178672
0.000571822
0.0177278
0.000656277
0.0170401
0.000647465
0.0155152
0.000533482
0.0130787
0.000344011
0.00996644
0.00345698
-9.92929e-06
-1.36813e-05
-0.000654024
0.000644925
-6.14111e-07
-5.82239e-07
-3.93512e-07
-5.1173e-07
-6.85543e-05
6.81737e-05
-6.88626e-05
-6.93059e-05
-7.01046e-05
0.000126491
-4.0969e-05
0.00661181
-7.09463e-05
-7.17736e-05
-0.000265503
-2.80014e-06
5.70584e-07
-7.4304e-05
7.40031e-05
-7.4745e-05
7.53484e-05
-0.00468478
0.010046
-0.00474078
0.00999353
-0.0049847
0.00981808
-0.00561039
0.00955524
-0.00697752
0.00943031
-0.00954529
0.010041
-0.014042
0.0123498
-0.0159671
0.0149909
-0.0118368
0.0162265
-0.00846346
0.0169949
-0.0063438
0.017433
-0.00490568
0.0175933
-0.00380068
0.0175677
-0.00292031
0.0174574
-0.00222072
0.0173438
-0.00166658
0.0172655
-0.00122161
0.0172348
-0.000860306
0.0172524
-0.000560991
0.0173127
-0.000306146
0.0174083
-8.35576e-05
0.0175427
0.000118421
0.0177097
0.000302168
0.0178805
0.000469363
0.0179696
0.000602808
0.0177812
0.000666101
0.0170215
0.000629356
0.0154193
0.000486334
0.0129364
0.000266883
0.00982605
0.00342968
-1.30923e-06
-1.23589e-05
-0.000632479
0.00062392
-6.6801e-07
-7.03121e-07
-5.50922e-07
-6.83922e-07
-6.66863e-05
6.60721e-05
-6.72685e-05
-6.7662e-05
1.16534e-05
9.28606e-05
0.0065073
-7.45737e-05
-0.00475572
0.0100499
-0.00467346
0.00997864
-0.0047352
0.00974404
-0.00509684
0.00930453
-0.00610321
0.00868092
-0.00863176
0.00444175
0.00407502
-0.00646315
0.00533767
0.00469223
-0.00756774
-0.00882921
0.00656999
-0.00682257
0.00546447
-0.00588628
0.013168
-0.00412761
-0.00703242
0.0147954
-0.00557491
0.016226
-0.00461001
0.0171373
-0.00379183
0.0175844
-0.0030462
0.0176935
-0.00239671
0.0176334
-0.00184888
0.0175261
-0.00139501
0.0174389
-0.00102128
0.0173958
-0.000710881
0.0174023
-0.000447532
0.0174541
-0.000217411
0.0175422
-1.24899e-05
0.0176736
0.000175081
0.0178368
0.000350262
0.0179996
0.00050701
0.0180654
0.000621346
0.017826
0.000661102
0.0169897
0.000594148
0.0153115
0.000423824
0.0127795
0.000181373
0.00965633
0.00344571
6.67223e-05
1.01091e-05
-0.000612848
0.000612684
-4.36533e-07
-7.08928e-07
-5.23581e-07
-7.62572e-07
-6.41341e-05
6.34661e-05
-6.48373e-05
-6.53882e-05
-5.41452e-05
0.000207564
0.00635388
-0.00482816
0.0100574
-0.0046069
0.00998338
-0.00447878
0.00972222
-0.00454287
0.00919007
-0.00503579
0.00823712
-0.00678032
0.00355615
0.00327334
-0.00604517
0.00402377
-0.00543637
0.00346622
-0.00877155
0.00528001
-0.00416936
-0.00337133
0.00150373
0.00195764
-0.0070769
0.0018936
0.00163934
-0.00503604
0.00571975
-0.00312716
0.00182489
0.00154927
-0.00178956
-0.00201331
-0.00136085
0.00182506
0.00197753
-0.00200373
0.00954248
-0.00140314
-0.00147531
0.00405001
-0.000982565
-0.00349
0.0127105
-0.00343466
0.0150507
-0.00325056
0.016596
-0.00287217
0.0174104
-0.0024202
0.017717
-0.0019619
0.0177464
-0.00154028
0.0176714
-0.00117084
0.0175884
-0.00085416
0.017539
-0.000583053
0.0175378
-0.000349031
0.0175857
-0.00014176
0.0176715
4.86238e-05
0.0178001
0.000225549
0.0179615
0.000390856
0.0181158
0.000532657
0.0181541
0.000627451
0.0178596
0.000642772
0.0169411
0.000551562
0.0151838
0.000363752
0.0125971
0.000141888
0.0094603
0.00340115
0.000119078
0.000133049
-0.000622461
0.000671462
1.43825e-05
3.3397e-06
8.64902e-07
-5.32959e-07
-6.14711e-05
6.10345e-05
-6.218e-05
-6.27035e-05
2.17869e-05
6.8723e-05
0.00626337
-0.00490496
0.0100698
-0.00455474
0.0100053
-0.00424638
0.00975099
-0.00401865
0.009198
-0.00398633
0.00814061
-0.0045879
0.00305124
0.00299346
-0.0046276
0.00274738
-0.00355452
0.00220025
-0.00626609
0.00126556
0.00138985
0.0016351
-0.00391086
-0.00319158
0.00145535
0.00295908
-0.00145535
0.00178956
-0.00344539
0.00117388
-0.00154927
0.00136085
0.00107937
0.000745696
0.00158159
0.00273724
-0.000390074
-0.000300878
-0.000432589
0.00675144
-0.000266367
0.00167211
-0.000177362
-0.00016065
-0.00042765
0.00102668
-0.00148554
0.0107614
-0.00208252
0.0138826
-0.00224339
0.0159673
-0.00215588
0.0171461
-0.00191675
0.0176719
-0.00160623
0.0178124
-0.00128396
0.0177845
-0.000983262
0.0177175
-0.000713319
0.0176693
-0.000476549
0.0176653
-0.000264995
0.017709
-7.39286e-05
0.017794
0.000102005
0.0179236
0.00026881
0.0180836
0.000421402
0.018227
0.000550476
0.0182311
0.000626872
0.0178755
0.000618741
0.0168739
0.000512759
0.0150348
0.000337182
0.0124018
0.000179291
0.00930279
0.00341921
-3.94108e-07
5.10562e-05
-0.000718365
0.000765451
2.20801e-05
4.99118e-05
4.98741e-05
3.6272e-05
-6.47062e-05
7.90888e-05
-6.13665e-05
-6.05016e-05
0.000122639
-4.80222e-05
0.00618876
-0.00498813
0.0100822
-0.00452144
0.0100365
-0.00405618
0.00981508
-0.00357837
0.0093107
-0.00307476
0.00828643
-0.00266382
0.00303705
0.00317947
-0.00259823
0.00103686
0.00105809
-0.00152707
0.0019223
-0.00492931
0.000878392
0.000532204
-0.00175974
-0.00161229
0.000303389
0.000339592
0.00299841
-0.00280769
0.00107484
0.000942864
-0.00201771
0.000318046
0.000759399
-0.000122794
0.000534655
-7.6134e-05
0.00129983
-3.5501e-05
-2.48035e-05
6.17169e-05
0.00515635
4.78248e-05
0.00106951
-2.66618e-05
-9.39179e-06
0.000396468
-3.91756e-05
0.000274744
-3.89251e-05
-0.000711173
0.00939007
-0.00123654
0.0128758
-0.00154052
0.0153519
-0.00161768
0.016847
-0.00151933
0.017585
-0.00131876
0.0178472
-0.00107571
0.017877
-0.00082806
0.0178323
-0.000597246
0.01779
-0.000385748
0.0177861
-0.000194887
0.0178299
-1.81181e-05
0.0179141
0.00014837
0.018044
0.000303919
0.0182011
0.000446183
0.0183313
0.000559261
0.0182987
0.000618019
0.0178763
0.000597023
0.0167897
0.000495156
0.0148768
0.000354343
0.0122268
0.00025048
0.00917495
0.00339612
-1.91352e-05
-5.79891e-06
-0.000804753
0.00080741
-3.00393e-06
-4.69298e-08
1.06946e-06
1.06852e-05
-0.000168511
0.000184274
6.31724e-06
-0.000135139
1.65397e-05
-0.000115361
3.00961e-05
0.000188458
-9.52943e-05
0.00609559
-0.0050778
0.0100937
-0.00451217
0.0100729
-0.00391689
0.00989722
-0.003248
0.00948471
-0.00240636
0.0086423
-0.00110971
0.00673232
-0.000576938
0.00208692
0.000230354
0.00237218
0.00142074
-0.00103631
0.000652424
0.000719087
-0.000430731
0.000794508
0.000270563
0.000251654
-0.0019293
-0.00139709
-0.00117775
0.00028455
0.0010575
-0.00075411
0.00107484
0.000195252
0.000119118
0.000235972
3.27078e-06
0.000215223
-4.05424e-06
0.00102021
4.97263e-05
6.12929e-05
1.52992e-06
0.00448316
-3.95154e-05
0.000998655
4.75211e-05
2.18592e-05
0.000195069
-6.50798e-06
0.000187008
-1.33092e-06
7.99423e-05
4.10172e-05
-0.000315764
0.0084693
-0.000730207
0.0120655
-0.00106232
0.0147965
-0.00121597
0.0165436
-0.00120873
0.017475
-0.00108784
0.0178593
-0.000904005
0.0179529
-0.000699756
0.0179348
-0.000499337
0.0179036
-0.00031078
0.017902
-0.000134241
0.017946
2.95097e-05
0.018033
0.000185723
0.0181622
0.000332653
0.0183146
0.000464093
0.0184265
0.000564479
0.0183523
0.000611536
0.0178617
0.000588022
0.0166968
0.000502245
0.0147289
0.00039971
0.0120775
0.000311358
0.00905205
0.00333224
-1.82125e-05
-1.32027e-05
-0.000805489
0.000791918
-3.12108e-06
-2.44267e-06
-2.55696e-06
-1.32088e-06
-0.000194542
0.000192305
-7.67052e-07
-0.000194106
-4.8233e-07
-0.000193105
6.87303e-08
1.854e-06
-4.66359e-05
5.29531e-05
-3.00961e-05
0.000220554
-0.000110839
0.00598588
-0.00517536
0.0101056
-0.00452736
0.0101089
-0.00383039
0.00998639
-0.00302653
0.00967575
-0.00198827
0.00906661
-0.000354338
0.00788693
-0.0014347
0.00323101
0.0022798
0.00288656
0.000719816
0.000399927
0.000536448
0.000874737
0.000782563
0.000269177
-5.12715e-05
0.000321834
0.000200383
-0.00046956
4.42879e-05
4.02337e-05
0.000203389
3.33459e-05
0.000224273
4.04088e-05
0.00098569
1.64745e-05
-1.97974e-06
-9.84182e-06
0.00414302
3.42207e-05
0.000977051
-3.08761e-05
0.000243068
2.87258e-05
0.000251386
1.35409e-05
3.37257e-05
3.23948e-05
-0.000105338
0.00784443
-0.000436445
0.0114396
-0.000731115
0.0143117
-0.000921174
0.0162561
-0.00096841
0.0173555
-0.000901059
0.0178564
-0.000764904
0.018018
-0.000596342
0.0180318
-0.000420415
0.0180132
-0.000248023
0.0180158
-8.56085e-05
0.0180612
6.9947e-05
0.0181488
0.000216075
0.0182788
0.000354086
0.0184246
0.000475376
0.0185156
0.00056755
0.0183962
0.000611108
0.0178387
0.000593619
0.0166054
0.000529288
0.0145993
0.000445653
0.0119432
0.000349191
0.00892341
0.00325294
-1.71238e-05
-1.44119e-05
-0.000782407
0.000768908
-2.52411e-06
-2.18874e-06
-2.03424e-06
-1.65713e-06
-0.000187632
0.000185295
-7.83585e-07
-0.000189321
-7.53643e-07
-0.000191283
-5.94418e-07
-2.99129e-07
-5.43936e-05
5.36266e-05
-5.48759e-05
-5.48071e-05
0.000232774
-0.000115164
0.00586827
-0.00527964
0.0101143
-0.00456455
0.0101428
-0.00379082
0.0100693
-0.00289684
0.0098567
-0.00176442
0.0094519
-9.64055e-05
0.00880868
0.00309752
0.00802042
0.00323197
-0.00128173
-0.00113699
0.000894923
0.000571635
0.00325989
0.00285864
0.000721761
0.000868294
0.000389915
-0.00110002
0.000693026
0.000550836
6.57407e-05
8.91093e-05
1.70402e-05
0.000254764
1.30965e-05
0.00023416
1.86247e-05
0.000958138
9.07066e-06
6.18759e-05
0.00393461
4.11907e-05
0.000946705
4.56531e-05
-0.000149438
0.00035519
-1.49252e-06
-9.75133e-07
0.000110163
7.67223e-06
0.000120865
2.83858e-06
-3.2527e-05
0.00744051
-0.000243066
0.0109515
-0.000509702
0.0139002
-0.000702051
0.0159897
-0.000779244
0.0172337
-0.000751057
0.0178425
-0.000649626
0.0180713
-0.000508241
0.0181196
-0.00035227
0.0181175
-0.000195596
0.0181258
-4.36239e-05
0.0181747
0.000102741
0.0182621
0.000241345
0.0183915
0.000372574
0.0185274
0.00048806
0.0185951
0.000573774
0.0184336
0.000617356
0.0178149
0.000611244
0.0165235
0.000561959
0.014483
0.000479412
0.011813
0.000366484
0.0087897
0.00316915
-1.6366e-05
-1.50052e-05
-0.000757966
0.000745275
-2.30853e-06
-2.12352e-06
-1.83087e-06
-1.63893e-06
-0.000180693
0.000178804
-6.3458e-07
-0.000182255
-6.26265e-07
-0.000183856
-4.33371e-07
-2.18571e-07
-5.19794e-05
5.11959e-05
-5.27331e-05
-5.33275e-05
0.000233762
-0.000114365
0.00574888
-0.00538809
0.0101205
-0.00462433
0.0101741
-0.00379379
0.0101457
-0.0028436
0.0100161
-0.00167831
0.00977058
-8.83389e-05
0.00944383
0.00251773
0.00938847
-0.00236547
0.00533369
0.00381507
0.00449702
-0.000940751
0.000496786
-0.00106842
0.000995255
0.000968089
-0.000496786
-0.000679162
0.00127953
0.000888053
0.000389915
1.70402e-05
0.000130223
3.73832e-06
-5.90445e-07
0.000362526
-8.05006e-08
1.81476e-06
0.000937553
7.10285e-05
2.63522e-05
0.00385251
2.32259e-05
0.00094414
3.46038e-05
0.000384621
1.78468e-05
5.71105e-06
-2.97237e-05
2.82312e-05
-3.06989e-05
2.47124e-05
2.7551e-05
4.97229e-05
0.00714772
-0.000131443
0.0105733
-0.000358329
0.0135565
-0.000538474
0.0157489
-0.000633344
0.017116
-0.000631336
0.0178242
-0.000554622
0.0181177
-0.000436366
0.0182037
-0.000296673
0.0182185
-0.000153108
0.0182352
-9.86952e-06
0.0182873
0.00012867
0.0183748
0.000262035
0.0185021
0.000387101
0.0186284
0.00049755
0.0186713
0.000583023
0.0184679
0.000631567
0.0177946
0.000632482
0.0164529
0.00058774
0.0143747
0.000497037
0.0116825
0.000369056
0.00865441
0.00308536
-1.55022e-05
-1.50689e-05
-0.000733726
0.000721648
-2.19248e-06
-2.09523e-06
-1.77129e-06
-1.68396e-06
-0.000174396
0.000172683
-5.95698e-07
-0.000175923
-5.95824e-07
-0.000177363
-3.90938e-07
-1.98043e-07
-4.99177e-05
4.92832e-05
-5.0544e-05
-5.09773e-05
0.000227301
-0.000110668
0.00563224
-0.00550364
0.0101275
-0.00470492
0.010201
-0.00383066
0.0102109
-0.00284685
0.010149
-0.00168596
0.0100237
-0.000209001
0.00989124
0.00190107
0.0100605
0.00426631
0.0104558
0.00175911
-0.000648085
0.00323078
-0.000526733
0.00190214
0.00435399
0.000288928
-0.000492538
0.00112398
-0.000288928
0.000684443
3.12893e-05
2.81507e-05
2.99654e-05
0.000408779
2.57828e-05
2.10878e-05
0.000953197
1.72947e-05
4.97415e-05
0.00378321
6.92831e-05
0.000963977
1.24457e-05
0.000433029
9.94695e-07
9.35975e-06
-3.56765e-05
5.35232e-05
7.87083e-05
0.00693757
-6.65732e-05
0.0102815
-0.00024607
0.0132641
-0.000416176
0.0155318
-0.000517319
0.017002
-0.000534366
0.017804
-0.000479526
0.0181609
-0.000377253
0.0182843
-0.000250833
0.0183163
-0.000116979
0.0183424
1.92663e-05
0.0183967
0.000151053
0.0184858
0.000279909
0.0186093
0.000399299
0.0187266
0.000509776
0.0187445
0.000596769
0.0185027
0.000647161
0.0177799
0.000652261
0.0163884
0.000602128
0.0142696
0.000499997
0.0115515
0.00036034
0.00852137
0.00300409
-1.45494e-05
-1.48499e-05
-0.000709962
0.00069856
-2.07005e-06
-2.02972e-06
-1.70252e-06
-1.68063e-06
-0.000168307
0.000166687
-5.7281e-07
-0.000169817
-5.85241e-07
-0.000171202
-3.85955e-07
-2.02676e-07
-4.80985e-05
4.75029e-05
-4.86943e-05
-4.90852e-05
0.000214736
-0.000104717
0.00552223
-0.00562839
0.0101358
-0.00480648
0.0102291
-0.00389934
0.0102697
-0.00289469
0.0102588
-0.00175593
0.0102189
-0.000394135
0.0102089
0.00134626
0.0104461
0.00323276
0.011094
-0.00139542
0.00344595
0.0103074
0.000998792
0.00266973
-0.000172082
-0.000265661
-0.000323862
0.000921113
0.00395736
0.000360581
6.61441e-05
1.3162e-05
8.08754e-05
6.35642e-06
0.000448639
1.8306e-06
-1.46673e-07
0.000971572
4.21467e-05
7.0998e-05
0.00374509
4.5832e-05
0.000977111
6.3744e-05
0.000461364
7.13128e-07
-9.92338e-07
-8.84197e-05
8.95959e-05
-1.81628e-07
1.81547e-06
7.06805e-05