/*--------------------------------*- C++ -*----------------------------------*\
| =========                 |                                                 |
| \\      /  F ield         | OpenFOAM: The Open Source CFD Toolbox           |
|  \\    /   O peration     | Version:  v1912                                 |
|   \\  /    A nd           | Website:  www.openfoam.com                      |
|    \\/     M anipulation  |                                                 |
\*---------------------------------------------------------------------------*/
FoamFile
{
    version     2.0;
    format      ascii;
    class       volVectorField;
    location    "350";
    object      U;
}
// * * * * * * * * * * * * * * * * * * * * * * * * * * * * * * * * * * * * * //

dimensions      [0 1 -1 0 0 0 0];


internalField   nonuniform List<vector> 
3675
(
(0.999101 0.00117154 1.17184e-25)
(0.99915 0.00346341 0)
(0.990325 0.00377042 3.34265e-23)
(0.999239 0.00552483 -5.83751e-23)
(0.991015 0.0111189 0)
(0.969822 0.007324 -1.0623e-21)
(0.999356 0.00724056 3.57865e-21)
(0.992278 0.0176682 -3.86593e-21)
(0.972156 0.0214725 1.09141e-21)
(0.932746 0.0129889 -7.44483e-23)
(0.999483 0.00854383 -6.92982e-21)
(0.993912 0.0230288 7.65275e-21)
(0.976397 0.0338002 0)
(0.938868 0.0377382 2.34074e-21)
(0.869228 0.0234966 -2.11029e-22)
(0.99961 0.00941417 3.3528e-21)
(0.995702 0.0269917 -1.00663e-22)
(0.981822 0.0435102 -1.27763e-22)
(0.949606 0.0585351 -2.29021e-21)
(0.883506 0.0670317 0)
(0.754698 0.0450263 2.17755e-22)
(0.999726 0.00986731 0)
(0.997468 0.0295194 3.25637e-21)
(0.987647 0.0502829 0)
(0.962732 0.0738253 1.24683e-22)
(0.907434 0.100936 3.2635e-22)
(0.793569 0.123083 -3.25914e-21)
(0.586747 0.0432685 -2.43263e-22)
(0.607403 0.118742 -3.90325e-22)
(0.999828 0.00994261 0)
(0.999089 0.0307001 -6.80235e-21)
(0.99325 0.0541926 6.80969e-21)
(0.976191 0.0832994 3.61493e-21)
(0.93626 0.122692 -2.74385e-22)
(0.850111 0.177994 4.97936e-21)
(0.647427 0.192601 6.95032e-22)
(0.699968 0.240533 3.43754e-22)
(0.393954 0.0625325 8.09304e-22)
(0.433045 0.180718 -4.69182e-22)
(0.999917 0.00969076 0)
(1.0005 0.0306921 -4.8313e-23)
(0.998268 0.0555586 -6.72476e-21)
(0.988557 0.0876143 -3.49092e-21)
(0.963771 0.133068 0)
(0.909728 0.20552 -1.8037e-21)
(0.763483 0.355696 -2.1828e-21)
(0.50487 0.278461 -1.43165e-21)
(0.591996 0.358041 1.14521e-21)
(0.183955 0.039955 -1.80624e-22)
(0.197444 0.118552 3.74716e-22)
(0.270653 0.26639 1.87761e-21)
(0.224966 0.194063 -3.23841e-22)
(0.999995 0.00916495 0)
(1.00169 0.0296794 0)
(1.00255 0.0547961 1.10367e-24)
(0.999178 0.0878083 -9.89815e-23)
(0.98695 0.134794 -2.00637e-22)
(0.959664 0.209839 0)
(0.897165 0.366237 4.48901e-21)
(0.636907 0.560189 1.70654e-22)
(0.772576 0.592118 4.56479e-23)
(0.329715 0.339218 3.49032e-23)
(0.403984 0.408487 0)
(0.481664 0.490502 -7.34493e-22)
(0.0366878 0.0317727 -1.53008e-21)
(0.0487168 0.0947267 -7.00399e-22)
(0.113508 0.206827 -7.10123e-21)
(0.0757267 0.15373 -2.40604e-21)
(1.00006 0.00841479 0)
(1.00267 0.0278417 0)
(1.00609 0.0523192 0)
(1.00791 0.084862 4.59733e-23)
(1.00552 0.130717 0)
(0.997464 0.20123 9.17679e-23)
(0.982098 0.332332 -2.9469e-21)
(0.979247 0.555887 -4.47047e-22)
(0.621243 0.553977 -8.56566e-24)
(0.488652 0.487419 -8.83176e-23)
(0.769469 0.536371 1.05829e-22)
(0.166562 0.30852 8.72833e-21)
(0.289962 0.400782 -6.02681e-22)
(0.332562 0.383903 1.67832e-21)
(0.233921 0.280107 -1.58995e-21)
(1.00013 0.0074844 -4.53723e-24)
(1.00345 0.0253415 0)
(1.00893 0.0484997 -5.12719e-21)
(1.01487 0.0795779 0)
(1.01996 0.12285 -7.38912e-23)
(1.02511 0.186807 0)
(1.03357 0.290512 -3.95485e-23)
(1.10112 0.483978 3.26168e-22)
(0.914086 0.447386 -3.66281e-22)
(1.09718 0.50352 -3.17289e-23)
(0.462291 0.344123 -7.13961e-23)
(0.287743 0.247367 6.72655e-23)
(0.714364 0.422917 6.40792e-22)
(0.466292 0.2883 0)
(0.0575456 0.132862 2.69686e-21)
(0.161686 0.244943 -6.19251e-21)
(0.132457 0.164472 0)
(1.00019 0.00640964 0)
(1.00408 0.0223164 -4.38415e-24)
(1.01117 0.0436453 5.09667e-21)
(1.02029 0.072592 -4.01596e-23)
(1.03092 0.112518 0)
(1.04488 0.169524 6.96344e-23)
(1.06673 0.253266 0)
(1.14378 0.395954 6.55566e-22)
(1.22917 0.419511 -1.68015e-21)
(0.692774 0.205457 1.59339e-22)
(0.567471 0.273959 -1.29864e-21)
(1.01626 0.298675 -9.12841e-22)
(0.193679 0.133932 2.86689e-21)
(0.264403 0.154376 1.27887e-21)
(1.00025 0.0052202 0)
(1.00458 0.0188783 -8.62883e-24)
(1.01293 0.037998 9.22498e-24)
(1.02446 0.0643883 1.64729e-23)
(1.03907 0.100621 -2.88605e-23)
(1.05877 0.150876 3.28917e-21)
(1.08848 0.220159 2.22973e-21)
(1.15741 0.323158 5.12406e-22)
(1.28798 0.379451 2.20701e-21)
(1.15341 0.260526 0)
(0.44945 0.0578147 5.20698e-22)
(0.193822 0.0362914 0)
(0.36332 0.093267 4.30502e-23)
(0.84881 0.170167 -3.16523e-22)
(0.123 0.0330548 -1.57809e-22)
(1.00032 0.00393878 -8.13948e-21)
(1.00498 0.0151141 4.09189e-24)
(1.01431 0.0317431 1.65563e-23)
(1.02766 0.0553165 -1.4837e-23)
(1.04509 0.0877555 -1.61332e-23)
(1.06844 0.131802 -6.16897e-21)
(1.10226 0.189946 -4.11394e-21)
(1.16331 0.267476 -5.38341e-22)
(1.27954 0.322533 0)
(1.33578 0.287691 0)
(1.00189 0.142227 6.5774e-21)
(0.686326 0.0996559 -4.05953e-23)
(0.119923 0.00564838 1.12068e-22)
(0.320307 0.0211237 -1.0925e-23)
(0.0925098 0.00388407 -3.1899e-22)
(1.00039 0.00258235 8.077e-21)
(1.00531 0.0110887 -2.06491e-24)
(1.0154 0.0250163 -4.0919e-24)
(1.03013 0.0456097 -2.13896e-23)
(1.04955 0.0742974 6.61318e-21)
(1.07517 0.112797 2.91028e-21)
(1.11071 0.162134 1.86707e-21)
(1.16629 0.223122 -1.60839e-23)
(1.25956 0.271013 0)
(1.35813 0.267664 -4.89589e-21)
(1.29136 0.204549 -8.0355e-21)
(0.88941 0.0706334 8.11325e-23)
(0.5535 0.0437891 -5.52965e-21)
(0.594319 0.055578 2.80058e-24)
(0.276005 0.00788484 1.163e-23)
(0.0659418 0.00218571 9.55706e-23)
(0.0705778 -0.000917231 0)
(1.00046 0.00116452 0)
(1.00559 0.00685075 0)
(1.01629 0.0179132 -3.50233e-24)
(1.03208 0.0354198 0)
(1.05293 0.0604552 -5.0061e-22)
(1.07993 0.0940459 6.90595e-24)
(1.1159 0.13636 1.21111e-21)
(1.16719 0.186191 -5.82405e-24)
(1.24347 0.227908 -2.01577e-21)
(1.33468 0.237546 5.05842e-21)
(1.37586 0.214079 -5.86111e-21)
(1.22344 0.142219 0)
(0.810701 0.039357 -4.98111e-21)
(0.51201 0.0181836 -8.66873e-23)
(0.53158 0.0233932 8.05412e-23)
(0.287345 0.0126264 1.01222e-20)
(0.0613012 -0.00176949 -1.02041e-22)
(0.0667022 0.00229121 6.56269e-21)
(1.00054 -0.000304113 0)
(1.00582 0.00243624 -7.86989e-21)
(1.01701 0.0104974 0)
(1.03368 0.0248373 3.47721e-24)
(1.0556 0.046328 -3.86484e-22)
(1.08349 0.0755655 -4.00089e-21)
(1.11925 0.112227 -1.23681e-21)
(1.16686 0.154305 0)
(1.2317 0.191362 4.08687e-21)
(1.30851 0.206919 -1.20109e-23)
(1.37296 0.201007 6.69025e-22)
(1.36238 0.170053 0)
(1.15711 0.100829 1.21265e-20)
(0.754007 0.0275803 -1.24858e-21)
(0.476169 0.0116782 -1.22309e-21)
(0.491251 0.0110777 4.97123e-24)
(0.284358 0.0049639 0)
(0.293686 0.00594076 -1.25745e-21)
(0.132384 0.00366564 -3.62375e-21)
(0.0946183 0.00816275 -1.65561e-20)
(1.00063 -0.00181369 0)
(1.00602 -0.00212563 1.56038e-20)
(1.01762 0.00281097 0)
(1.03503 0.0139043 0)
(1.05784 0.0319342 -1.03421e-20)
(1.08638 0.0572638 3.88295e-21)
(1.12173 0.0893389 1.51157e-21)
(1.16624 0.125883 -1.00582e-21)
(1.22289 0.159522 -2.02948e-21)
(1.28825 0.178488 -8.36104e-24)
(1.34972 0.181129 5.40136e-21)
(1.38763 0.170231 -3.0115e-24)
(1.33535 0.135553 -7.18562e-21)
(1.09736 0.0757095 1.64327e-23)
(0.711785 0.0227165 -6.15636e-22)
(0.449041 0.009564 1.17155e-21)
(0.460492 0.00841095 1.18939e-21)
(0.268626 0.00283556 1.13096e-21)
(0.275282 0.00230058 -2.18795e-22)
(0.130669 0.00180428 -3.25085e-24)
(0.132507 0.000461944 2.73001e-23)
(0.134928 0.000933956 2.66283e-21)
(0.135679 0.00193043 4.10928e-22)
(0.0414624 -0.000746915 1.72428e-21)
(0.025664 0.00220806 4.92827e-21)
(1.00072 -0.00335349 0)
(1.00617 -0.00680709 -7.73126e-21)
(1.01812 -0.00511563 7.11155e-21)
(1.03621 0.00263384 6.06952e-21)
(1.05985 0.0172402 9.66634e-21)
(1.089 0.038992 0)
(1.12402 0.0672808 -1.47338e-21)
(1.16604 0.0998277 1.01851e-21)
(1.21656 0.131034 0)
(1.27334 0.15233 -2.68049e-23)
(1.32814 0.160675 4.6688e-21)
(1.37384 0.159172 5.27803e-24)
(1.38894 0.145249 -1.01717e-25)
(1.30172 0.111192 -6.98472e-21)
(1.04641 0.0609106 0)
(0.678962 0.0204514 -4.9652e-21)
(0.427483 0.0084397 1.15286e-21)
(0.436656 0.00750162 5.87415e-22)
(0.256635 0.00246953 6.85008e-23)
(0.26215 0.00199593 -5.84263e-25)
(0.124911 0.000989941 -4.94942e-23)
(0.125965 0.000129192 -2.5269e-23)
(0.128042 -0.000263365 3.12003e-22)
(0.127555 0.000777063 1.26805e-22)
(0.0397252 0.000203173 1.68126e-23)
(0.0403817 -8.51672e-05 0)
(0.0408227 -0.00034921 -5.65595e-22)
(0.0412171 0.000182742 -2.81809e-22)
(1.00082 -0.00491011 0)
(1.00628 -0.0115768 -7.39054e-24)
(1.01851 -0.0132547 -7.02264e-21)
(1.03724 -0.00897928 3.89038e-23)
(1.06175 0.0021721 -9.20574e-21)
(1.09164 0.0205564 2.84125e-21)
(1.1266 0.0456614 -3.6853e-25)
(1.16679 0.0752914 2.82397e-24)
(1.21267 0.104912 5.17441e-24)
(1.26273 0.127946 -6.87501e-21)
(1.31155 0.140865 -9.35319e-21)
(1.35464 0.145136 4.44991e-24)
(1.38755 0.141521 0)
(1.38082 0.126677 6.71275e-21)
(1.26658 0.0949824 7.08768e-21)
(1.00387 0.0522465 4.18819e-21)
(0.652241 0.0193555 -4.72971e-24)
(0.409411 0.00794807 0)
(0.417197 0.00710709 5.72981e-22)
(0.246268 0.00231986 1.99984e-22)
(0.251118 0.00202148 -6.02117e-22)
(0.120336 0.000793867 -4.74459e-23)
(0.121258 0.000245595 -9.5415e-23)
(0.123205 -4.15353e-07 9.72116e-23)
(0.122617 0.000665256 -1.44837e-22)
(0.0387135 9.70512e-05 3.18719e-23)
(0.0390531 -6.02375e-05 2.03455e-24)
(0.039141 -0.00017732 -8.32858e-23)
(0.0393282 4.99434e-05 -2.02881e-24)
(1.00092 -0.00646499 0)
(1.00633 -0.016392 0)
(1.01875 -0.0215705 7.24807e-24)
(1.03811 -0.0209452 -5.88065e-21)
(1.06356 -0.0133642 4.4688e-21)
(1.09445 0.00172685 -5.42483e-21)
(1.12979 0.0240748 -8.58278e-25)
(1.16887 0.0515894 3.60033e-25)
(1.21134 0.0803533 -4.35831e-21)
(1.25601 0.104933 6.98823e-21)
(1.29955 0.121647 -4.40852e-21)
(1.33868 0.130593 -1.10937e-23)
(1.37243 0.132804 5.58789e-24)
(1.39321 0.128326 0)
(1.3667 0.113751 -6.72948e-21)
(1.23285 0.0843371 -7.14299e-21)
(0.968115 0.0472299 0)
(0.630527 0.0188029 -6.20992e-22)
(0.39381 0.00775256 -1.0548e-21)
(0.400446 0.00697621 1.05671e-21)
(0.236802 0.00231238 -6.54941e-23)
(0.241311 0.00209672 -4.59148e-22)
(0.116058 0.000697594 -1.38275e-22)
(0.116918 0.000315555 -9.25038e-23)
(0.11885 0.000174367 -4.69724e-23)
(0.118178 0.000627864 0)
(0.0376826 7.07794e-05 1.53604e-23)
(0.0380034 -2.66435e-05 0)
(0.038343 -8.42558e-05 0)
(0.0383049 4.95597e-05 3.10807e-23)
(1.00102 -0.00799216 0)
(1.00628 -0.0211926 -8.4675e-21)
(1.01878 -0.0300077 0)
(1.03872 -0.0332633 0)
(1.06524 -0.0294734 -8.39673e-24)
(1.09748 -0.0177486 2.58667e-21)
(1.13376 0.00210809 0)
(1.17255 0.0281026 0)
(1.2127 0.0566845 4.22503e-21)
(1.25311 0.082918 5.35522e-24)
(1.29185 0.102972 1.82685e-20)
(1.32694 0.116004 0)
(1.35788 0.122634 5.87646e-21)
(1.38347 0.123745 0)
(1.39272 0.119243 0)
(1.34944 0.104927 6.71877e-21)
(1.20144 0.0774212 0)
(0.938038 0.0443968 0)
(0.615679 0.018687 -9.69794e-21)
(0.381533 0.00763781 1.11039e-21)
(0.38622 0.00687724 1.11667e-21)
(0.227964 0.00233273 -3.90432e-25)
(0.23215 0.00218542 6.43942e-23)
(0.111828 0.000667478 -4.51518e-23)
(0.112684 0.000373166 9.05e-23)
(0.114666 0.000284901 4.57684e-23)
(0.113929 0.000625241 -9.10687e-23)
(0.0365562 5.67504e-05 1.49271e-23)
(0.0368604 -1.031e-05 0)
(0.0373248 -4.25633e-05 4.54927e-23)
(0.0371781 4.75965e-05 0)
(1.00111 -0.00945496 -1.73444e-23)
(1.0061 -0.0258907 2.61107e-20)
(1.0185 -0.0384766 1.26037e-23)
(1.03895 -0.0459028 0)
(1.06665 -0.0462601 0)
(1.1007 -0.0381503 4.62364e-24)
(1.13863 -0.020681 3.37887e-25)
(1.17805 0.00423079 -2.19443e-21)
(1.21695 0.0332864 0)
(1.25405 0.0615329 0)
(1.28844 0.0847876 -8.95346e-21)
(1.31939 0.10154 0)
(1.34687 0.112022 -5.9751e-21)
(1.37089 0.117075 -3.26639e-24)
(1.38911 0.117827 0)
(1.38804 0.113288 0)
(1.33063 0.098998 0)
(1.17262 0.0730577 0)
(0.913509 0.0430702 8.32868e-21)
(0.611135 0.0195624 -2.4052e-21)
(0.377711 0.00775981 -4.32924e-21)
(0.377223 0.00667247 -2.20251e-21)
(0.220506 0.0023128 -9.47639e-22)
(0.223797 0.00223151 -6.37301e-23)
(0.107585 0.000659825 -8.8821e-23)
(0.108424 0.00040764 2.23459e-23)
(0.110456 0.000356378 2.23778e-23)
(0.10967 0.000639331 -4.47129e-23)
(0.0353231 5.15609e-05 4.37563e-23)
(0.0356356 4.0941e-07 -3.67669e-24)
(0.0361913 -1.84233e-05 -1.47041e-23)
(0.0359786 4.81319e-05 3.66757e-24)
(1.00118 -0.0108041 3.65492e-23)
(1.00573 -0.0303633 1.10811e-21)
(1.01778 -0.046834 -1.64779e-20)
(1.03857 -0.0587852 -2.70149e-23)
(1.06753 -0.0638058 7.24733e-24)
(1.10393 -0.0597782 0)
(1.14434 -0.0447732 -1.26838e-24)
(1.18552 -0.0206613 2.12593e-21)
(1.22432 0.0095628 0)
(1.25898 0.0404031 0)
(1.28943 0.0670068 0)
(1.31615 0.087315 0)
(1.33978 0.101312 1.18502e-20)
(1.36079 0.109744 6.27568e-24)
(1.37889 0.11386 6.18541e-24)
(1.39079 0.1144 0)
(1.38051 0.109547 0)
(1.31117 0.095152 0)
(1.14654 0.0705115 3.47337e-24)
(0.894078 0.042965 8.06843e-24)
(0.605244 0.0201414 -5.93936e-21)
(0.392556 0.00824642 -4.10245e-21)
(0.383477 0.00843397 4.12382e-21)
(0.219798 0.00198913 4.00376e-21)
(0.218238 0.00208823 2.52461e-21)
(0.10365 0.000647261 0)
(0.104297 0.000417294 -4.40361e-23)
(0.106238 0.000391912 4.42514e-23)
(0.105486 0.000652083 0)
(0.0340077 5.01917e-05 0)
(0.0343236 6.16312e-06 0)
(0.0349433 -4.80268e-06 -1.45707e-23)
(0.0346863 5.03749e-05 0)
(1.00122 -0.011974 3.86545e-23)
(1.00512 -0.0344397 -1.84825e-20)
(1.01645 -0.0548644 1.63354e-20)
(1.03725 -0.071756 0)
(1.06749 -0.0821574 -5.20932e-21)
(1.10684 -0.0829331 -6.95928e-24)
(1.15072 -0.0707068 0)
(1.19506 -0.0472996 0)
(1.23506 -0.015099 0)
(1.26813 0.0191702 8.10689e-24)
(1.29497 0.0495161 9.69886e-24)
(1.31738 0.0734085 1.09543e-23)
(1.33683 0.0907239 -2.35079e-20)
(1.35422 0.102224 6.28137e-24)
(1.3698 0.109098 -1.26434e-23)
(1.38312 0.112554 3.20132e-24)
(1.38958 0.112726 -6.47447e-21)
(1.3709 0.107363 0)
(1.29163 0.0927845 0)
(1.12295 0.0691816 -5.69894e-26)
(0.87564 0.04245 1.73054e-23)
(0.591398 0.0206289 -4.72312e-21)
(0.394064 0.00953253 -2.13835e-21)
(0.395557 0.00838785 8.4866e-23)
(0.251651 0.00284352 3.71519e-21)
(0.232383 0.00363913 0)
(0.106593 0.000299577 0)
(0.103027 -5.48841e-05 -7.00427e-22)
(0.102573 0.000335708 -1.31342e-22)
(0.102614 0.00051904 -6.54542e-22)
(0.0327169 4.98247e-05 1.41956e-23)
(0.0329904 9.32629e-06 3.02967e-23)
(0.0336204 2.25992e-06 -2.86414e-23)
(0.0333539 5.33685e-05 -1.78233e-24)
(1.00122 -0.0128809 0)
(1.00419 -0.037892 -3.90695e-23)
(1.01428 -0.0622579 0)
(1.03459 -0.0845471 -6.05683e-23)
(1.06597 -0.101279 5.08692e-21)
(1.10888 -0.107887 3.12377e-21)
(1.15732 -0.0990819 -1.37378e-24)
(1.20667 -0.0765654 0)
(1.24951 -0.0413704 5.59088e-21)
(1.28183 -0.00250615 0)
(1.3053 0.032227 1.94084e-24)
(1.32327 0.05988 -9.58104e-24)
(1.33823 0.0804334 1.16255e-20)
(1.35153 0.09479 -1.26439e-20)
(1.36374 0.104144 -1.31172e-20)
(1.37501 0.109779 -1.32498e-20)
(1.38456 0.112585 1.30848e-20)
(1.38615 0.112235 -6.44029e-21)
(1.35984 0.106232 6.39096e-21)
(1.27234 0.091345 0)
(1.10037 0.0678603 -3.83566e-25)
(0.854837 0.0419286 1.22025e-20)
(0.573557 0.0203976 -4.63454e-21)
(0.383586 0.0100247 1.02427e-21)
(0.389202 0.00930027 -4.05642e-24)
(0.25692 0.00408024 -5.89977e-23)
(0.257751 0.00354217 -3.68256e-21)
(0.153987 0.000799297 -1.31424e-21)
(0.147264 0.000877297 0)
(0.11435 8.27076e-05 -2.78366e-21)
(0.129576 0.00332502 5.32223e-21)
(0.0349554 -0.000399005 0)
(0.0327831 -0.000176549 4.61487e-22)
(0.0324121 -7.97854e-06 4.42875e-23)
(0.0324062 6.52796e-06 -1.78194e-24)
(1.00116 -0.013424 0)
(1.00286 -0.0404315 0)
(1.01104 -0.0685896 0)
(1.03008 -0.0967364 0)
(1.0622 -0.12096 0)
(1.10912 -0.134798 -3.0269e-21)
(1.16328 -0.130607 0)
(1.22019 -0.109596 2.96781e-21)
(1.26805 -0.0700102 -5.38475e-21)
(1.30049 -0.0249333 3.21885e-24)
(1.32068 0.015089 -1.02991e-23)
(1.33404 0.046813 -1.12821e-20)
(1.34418 0.0706017 -1.20463e-23)
(1.35298 0.0876617 1.24527e-20)
(1.36125 0.0992993 1.29754e-20)
(1.36936 0.106826 1.32657e-20)
(1.3774 0.11136 -6.61887e-21)
(1.38388 0.113482 6.4826e-21)
(1.381 0.112492 2.782e-23)
(1.34777 0.105712 6.31298e-21)
(1.25305 0.0901103 1.29551e-20)
(1.07723 0.0666496 -1.40079e-20)
(0.832222 0.0413543 7.05824e-24)
(0.55425 0.0197035 -4.33693e-24)
(0.369998 0.00961237 -6.34428e-23)
(0.376549 0.00916548 6.32196e-23)
(0.249044 0.00426512 -7.51875e-22)
(0.253523 0.00411159 5.81546e-23)
(0.156686 0.00172604 0)
(0.15748 0.00147594 3.30447e-22)
(0.156977 0.00115394 6.58745e-22)
(0.158092 0.00150089 3.29986e-22)
(0.0883156 0.000237029 1.76163e-21)
(0.0833461 0.000699079 0)
(0.0386216 -0.000353147 2.09079e-21)
(0.0562029 0.00413747 -3.59798e-21)
(1.00103 -0.0134938 2.38014e-20)
(1.00107 -0.0417135 2.35228e-20)
(1.00646 -0.0732863 0)
(1.02313 -0.10766 1.86581e-20)
(1.05513 -0.140691 -1.43288e-20)
(1.10604 -0.163602 0)
(1.1672 -0.166275 1.00873e-21)
(1.23554 -0.148066 3.13083e-22)
(1.29138 -0.101929 6.77032e-21)
(1.32477 -0.0483775 7.8709e-24)
(1.34149 -0.00188372 1.08017e-23)
(1.34985 0.0343282 1.10233e-20)
(1.35484 0.0614045 -1.24581e-20)
(1.35876 0.0810514 3.73885e-23)
(1.36264 0.094794 1.25143e-23)
(1.36698 0.104025 0)
(1.37206 0.10995 1.34434e-20)
(1.37768 0.11347 0)
(1.38156 0.114885 -6.39385e-21)
(1.37453 0.113137 -1.25058e-20)
(1.33486 0.105353 -1.24119e-20)
(1.23325 0.0889894 6.37342e-21)
(1.0534 0.0656102 3.44267e-21)
(0.808897 0.0405355 0)
(0.536095 0.0195963 -5.73282e-22)
(0.355874 0.00882131 -9.35671e-22)
(0.362601 0.00857051 9.38556e-22)
(0.239216 0.00400171 -5.75403e-23)
(0.244141 0.00400351 5.4806e-23)
(0.150577 0.00177941 -2.44717e-22)
(0.15208 0.00156063 -1.02059e-22)
(0.155124 0.00149811 2.05622e-22)
(0.153847 0.00172776 -2.06411e-23)
(0.0903375 0.000544109 -2.31365e-24)
(0.0909989 0.00047854 -2.2262e-22)
(0.0907961 0.000312576 -5.91206e-22)
(0.0913479 0.000461708 -2.96872e-22)
(0.0280223 -0.000184969 -4.19301e-22)
(0.0273206 -0.000457148 -8.19318e-22)
(0.0156353 0.00123551 4.27699e-22)
(1.00082 -0.0129918 -4.86214e-20)
(0.998837 -0.0413703 -2.35105e-20)
(1.00042 -0.0755997 0)
(1.01307 -0.11627 -1.86536e-20)
(1.04326 -0.159604 -2.22151e-21)
(1.0974 -0.194113 0)
(1.1674 -0.207834 -9.78044e-22)
(1.25356 -0.194757 -9.68225e-21)
(1.32144 -0.138473 -1.41338e-20)
(1.35616 -0.0731108 0)
(1.36851 -0.0186179 -1.16535e-20)
(1.37106 0.0225912 1.23264e-20)
(1.37036 0.0530425 1.21375e-20)
(1.36901 0.0751759 0)
(1.36811 0.0908492 -2.53267e-23)
(1.36822 0.101602 0)
(1.36967 0.108725 -1.33655e-20)
(1.37256 0.113239 6.51045e-24)
(1.37635 0.11583 1.30692e-20)
(1.37798 0.116506 -3.97556e-23)
(1.36698 0.113853 1.22738e-20)
(1.32107 0.105014 0)
(1.21283 0.0880144 -3.0212e-24)
(1.0293 0.0645391 0)
(0.785611 0.0400711 0)
(0.517931 0.0190429 -4.72869e-21)
(0.343742 0.00568687 0)
(0.347597 0.00752979 9.86997e-22)
(0.229678 0.003451 0)
(0.234379 0.00365451 -1.14117e-22)
(0.144038 0.00165908 1.00562e-22)
(0.145496 0.00144658 2.21725e-22)
(0.148707 0.00145872 -8.09329e-23)
(0.147263 0.00167132 -8.09758e-23)
(0.0865449 0.000562178 7.32771e-23)
(0.0875601 0.000517956 -7.34757e-23)
(0.0894248 0.00048217 -1.4528e-22)
(0.0885606 0.00054117 0)
(0.0286143 3.4115e-05 1.71065e-24)
(0.0288745 2.08156e-05 -5.63227e-23)
(0.0289643 -1.68538e-05 -5.09517e-24)
(0.0290578 2.12063e-05 -1.70834e-24)
(1.00054 -0.0118566 2.48309e-20)
(0.996269 -0.0390803 2.62507e-20)
(0.992982 -0.0746599 9.37482e-23)
(0.999277 -0.121028 0)
(1.02459 -0.176253 3.55868e-20)
(1.08061 -0.226464 5.83827e-23)
(1.16257 -0.258473 -2.99714e-21)
(1.27691 -0.254205 6.30188e-21)
(1.36219 -0.18163 7.27019e-21)
(1.39774 -0.0995834 1.15372e-23)
(1.40357 -0.0350526 2.39181e-20)
(1.39859 0.0117891 -1.20052e-20)
(1.39114 0.0457341 2.4219e-23)
(1.3839 0.0702625 2.51366e-23)
(1.3778 0.0876839 0)
(1.3733 0.0997617 -2.65712e-23)
(1.37069 0.107904 0)
(1.37009 0.113208 0)
(1.37142 0.116493 -1.31377e-20)
(1.37383 0.118225 6.36571e-21)
(1.3734 0.11811 -6.15454e-21)
(1.35845 0.114503 -6.02061e-21)
(1.30646 0.104701 0)
(1.19204 0.0870602 7.07882e-26)
(1.00524 0.0634928 0)
(0.762864 0.0391251 3.83751e-21)
(0.273134 0.00408236 0)
(0.499905 0.0189016 0)
(0.220704 0.000407184 -6.44514e-23)
(0.227279 0.00277078 5.65034e-23)
(0.13801 0.00125474 0)
(0.139358 0.00118447 0)
(0.142291 0.00131624 6.00925e-23)
(0.140977 0.0014976 2.59097e-22)
(0.0826224 0.000517957 -1.08251e-22)
(0.0835782 0.000479142 -7.2375e-23)
(0.085479 0.000472154 -7.2816e-23)
(0.0845619 0.000519342 7.2602e-23)
(0.0273175 3.64226e-05 1.68549e-23)
(0.0276716 2.95823e-05 -3.37887e-24)
(0.028314 1.9823e-05 0)
(0.0280251 3.54949e-05 0)
(1.0002 -0.0100899 0)
(0.993605 -0.0346745 1.28786e-21)
(0.984606 -0.0696916 5.03622e-23)
(0.981711 -0.120033 1.9951e-22)
(0.997116 -0.187817 -1.92461e-20)
(1.05225 -0.260183 -1.57475e-20)
(1.15062 -0.32332 7.56089e-21)
(1.30752 -0.331963 3.02277e-23)
(1.41645 -0.23297 1.22148e-23)
(1.45207 -0.127968 -2.71477e-20)
(1.44888 -0.0510661 -1.22354e-20)
(1.43414 0.002108 2.46455e-23)
(1.41822 0.0397109 -1.40203e-20)
(1.40394 0.0665403 0)
(1.39194 0.085517 2.69889e-23)
(1.38238 0.0987054 2.68703e-23)
(1.37533 0.107672 2.6552e-23)
(1.37083 0.113593 0)
(1.36883 0.117352 1.33925e-20)
(1.3691 0.119572 0)
(1.37039 0.120493 1.25485e-20)
(1.36796 0.11958 6.01423e-21)
(1.34906 0.115067 0)
(1.29121 0.104351 5.83732e-21)
(1.17108 0.0861029 2.97296e-24)
(0.9816 0.0624317 0)
(0.741053 0.0384464 0)
(0.26065 0.00495655 0)
(0.0992446 0.000916632 6.53546e-23)
(0.100323 0.000122129 -6.52555e-23)
(0.483688 0.018506 -4.45669e-24)
(0.103786 0.000707226 0)
(0.136397 0.000467255 0)
(0.135682 -0.000389133 0)
(0.0793338 0.000274307 0)
(0.0800216 0.000363934 -1.78565e-23)
(0.0816461 0.000421719 -7.16626e-23)
(0.0808381 0.000451125 -5.36054e-23)
(0.0260236 3.27283e-05 2.66148e-23)
(0.0263503 2.69371e-05 0)
(0.0269823 2.03334e-05 -1.34848e-23)
(0.0266866 3.34957e-05 0)
(0.999827 -0.0077649 0)
(0.991155 -0.0282334 -2.76141e-20)
(0.976187 -0.0603391 -2.92875e-20)
(0.961766 -0.111434 2.93757e-20)
(0.961122 -0.189456 -1.90802e-22)
(1.00661 -0.289651 -5.25182e-21)
(1.1223 -0.405634 -1.21183e-20)
(1.3352 -0.43077 0)
(1.47303 -0.289985 -3.26402e-23)
(1.51023 -0.155619 5.81779e-20)
(1.50011 -0.0654951 -2.89039e-23)
(1.47692 -0.00591004 0)
(1.45234 0.0352931 2.84201e-20)
(1.42998 0.0642673 -1.4557e-20)
(1.41105 0.0845633 0)
(1.39574 0.0986262 -1.42147e-20)
(1.38381 0.108202 -2.68911e-23)
(1.37504 0.114561 0)
(1.36928 0.118629 1.72431e-22)
(1.36636 0.12109 1.31866e-20)
(1.36589 0.12238 -2.53867e-20)
(1.36623 0.12255 -2.94412e-24)
(1.36179 0.120889 -6.42297e-26)
(1.33895 0.115514 -5.69858e-21)
(1.27549 0.103929 0)
(1.15017 0.085141 -5.90466e-21)
(0.958745 0.0614899 -3.10533e-24)
(0.720823 0.0377501 7.45406e-21)
(0.250284 0.00507266 1.76069e-22)
(0.0952602 0.00099738 -6.37577e-23)
(0.0967415 0.00018076 -3.20575e-23)
(0.0226896 0.000153234 1.20269e-23)
(0.022748 -7.02593e-06 1.73005e-24)
(0.0229612 8.00233e-05 -2.79414e-23)
(0.0231407 -0.000159753 2.80382e-23)
(0.469603 0.0180148 -4.57617e-21)
(0.0236428 0.000283112 0)
(0.0237431 3.76748e-06 0)
(0.0782329 -0.00104258 0)
(0.0794993 -0.000237466 3.52625e-23)
(0.0249642 2.13212e-05 -3.28695e-24)
(0.0252012 1.61532e-05 3.28095e-24)
(0.0257227 1.72772e-05 0)
(0.0254689 2.76467e-05 0)
(0.999461 -0.00501729 -5.51817e-23)
(0.989211 -0.0201091 0)
(0.9689 -0.0469092 2.97213e-20)
(0.942314 -0.0941985 -3.0013e-20)
(0.920369 -0.175705 -3.19723e-20)
(0.937787 -0.302104 2.12058e-20)
(1.05055 -0.492381 7.62205e-21)
(1.31945 -0.541315 -3.0292e-24)
(1.48428 -0.339982 3.62256e-20)
(1.53006 -0.173262 8.00965e-21)
(1.52935 -0.0738364 -6.47031e-23)
(1.51264 -0.0102182 2.96292e-23)
(1.48817 0.0333661 -1.43841e-20)
(1.461 0.0638783 -9.70842e-22)
(1.43548 0.0850919 0)
(1.41382 0.0997199 -5.14628e-22)
(1.39642 0.109662 0)
(1.38297 0.116258 0)
(1.37308 0.120473 -2.69855e-20)
(1.36651 0.123014 -1.30865e-20)
(1.36302 0.124387 2.57226e-20)
(1.36204 0.124872 -5.97018e-24)
(1.3615 0.124374 2.92802e-24)
(1.35503 0.122015 -5.57517e-24)
(1.32827 0.115813 0)
(1.25946 0.10342 -1.86688e-23)
(1.12957 0.084178 0)
(0.93705 0.0605441 -6.34593e-21)
(0.702576 0.0370389 -7.36559e-21)
(0.241235 0.00495222 5.86757e-21)
(0.0909728 0.00105246 -3.14287e-23)
(0.0926379 0.000298835 -2.2009e-22)
(0.0218091 0.000144811 1.36087e-23)
(0.0219433 9.86339e-06 2.72087e-23)
(0.0222269 5.02152e-05 2.73476e-23)
(0.0223488 -0.000128264 -1.37737e-23)
(0.458828 0.0175755 -8.99932e-21)
(0.0245774 -0.000328238 1.63403e-24)
(0.0251094 -9.17034e-05 -2.7719e-23)
(0.999123 -0.00201956 2.79613e-20)
(0.987971 -0.0108528 1.78722e-22)
(0.963752 -0.0303677 2.65532e-22)
(0.926684 -0.0690338 -3.50625e-20)
(0.879956 -0.143767 7.2103e-20)
(0.848573 -0.284514 -7.13582e-22)
(0.898394 -0.544348 5.41167e-21)
(1.17894 -0.629687 -1.46285e-21)
(1.34938 -0.349264 -2.46366e-20)
(1.417 -0.16335 -9.40164e-20)
(1.46566 -0.066628 0)
(1.49641 -0.00630757 1.35903e-22)
(1.50149 0.0361477 0)
(1.48649 0.0663532 -1.04154e-21)
(1.46191 0.0875821 5.77547e-23)
(1.43615 0.102261 1.42156e-20)
(1.4134 0.112232 0)
(1.39488 0.118828 -2.68574e-23)
(1.3805 0.123009 2.71701e-20)
(1.36994 0.125485 1.34017e-20)
(1.3629 0.126777 -2.58754e-20)
(1.35907 0.127244 1.25696e-20)
(1.35771 0.12705 1.17337e-23)
(1.35632 0.125961 1.15619e-20)
(1.34777 0.122943 2.74343e-24)
(1.31714 0.115953 5.40468e-21)
(1.2433 0.102822 0)
(1.10954 0.0831845 0)
(0.916791 0.0596071 5.58254e-24)
(0.686841 0.036498 0)
(0.235103 0.00450029 1.21523e-20)
(0.0869833 0.0010586 -3.09145e-23)
(0.088366 0.000296235 -4.79916e-22)
(0.0207466 0.000154694 0)
(0.020905 1.5821e-05 2.67422e-23)
(0.0212379 5.92183e-05 0)
(0.0214052 -0.000111495 -1.34141e-23)
(0.454022 0.0183645 -8.7512e-21)
(0.998827 0.00104898 -5.56702e-20)
(0.987498 -0.00110099 -3.01124e-20)
(0.961255 -0.0120966 3.24447e-20)
(0.917234 -0.038559 -1.63389e-21)
(0.849569 -0.0960715 -8.34468e-20)
(0.761298 -0.226331 4.01237e-22)
(0.782512 -0.45901 7.24357e-22)
(0.698732 -0.430471 0)
(0.962444 -0.7452 2.66178e-21)
(0.769357 -0.692282 1.65902e-22)
(0.693474 -0.608683 -1.02814e-20)
(1.16874 -0.394235 -6.50598e-23)
(0.808071 -0.497352 3.36698e-23)
(0.824684 -0.263201 0)
(1.03778 -0.0990782 9.8268e-20)
(0.900732 -0.166457 -3.47973e-20)
(1.20221 -0.0310934 5.46442e-20)
(1.34853 0.0111339 0)
(1.43788 0.0465653 3.77176e-20)
(1.47461 0.0732559 1.60217e-20)
(1.47499 0.0928356 0)
(1.45694 0.106694 -5.83838e-23)
(1.43325 0.116177 -2.78133e-23)
(1.41069 0.122439 2.70718e-23)
(1.39175 0.126362 -1.3483e-20)
(1.37691 0.128611 -1.32563e-20)
(1.36598 0.129687 1.28873e-20)
(1.3587 0.129965 -1.25983e-20)
(1.35469 0.129692 -1.22172e-20)
(1.35303 0.128927 -1.16348e-20)
(1.35079 0.127309 -5.45939e-24)
(1.34012 0.123667 -2.59673e-24)
(1.30567 0.115937 -5.28329e-21)
(1.22719 0.102136 0)
(1.09025 0.0821759 5.57381e-21)
(0.898157 0.0587951 -2.9719e-24)
(0.674018 0.0365963 0)
(0.243411 0.00535827 1.01626e-20)
(0.0856427 0.00105002 5.99317e-23)
(0.084995 8.33365e-05 -2.07022e-21)
(0.0196873 0.000159127 0)
(0.019817 1.75497e-05 2.62678e-23)
(0.020151 6.51762e-05 -3.30793e-24)
(0.0203242 -0.000115321 -9.93418e-24)
(0.449162 0.0181531 -8.56571e-24)
(0.998578 0.00402901 2.76739e-20)
(0.987727 0.00854577 3.00278e-20)
(0.961367 0.00643595 -3.30187e-20)
(0.914658 -0.00622705 7.65829e-20)
(0.835789 -0.0403492 4.55533e-20)
(0.708402 -0.13047 5.64125e-20)
(0.621622 -0.369133 7.33944e-23)
(0.558155 -0.294186 2.22933e-20)
(0.560353 -0.554024 0)
(0.656363 -0.683212 0)
(0.459401 -0.473073 0)
(0.381308 -0.324708 7.74078e-21)
(0.59793 -0.477295 -5.72378e-21)
(0.550558 -0.63396 -2.943e-21)
(0.611118 -0.280333 -5.50416e-23)
(0.236752 -0.120618 -5.61485e-21)
(0.208858 -0.139195 0)
(0.19658 -0.0519344 -4.83046e-21)
(0.312744 -0.0779572 0)
(0.658977 -0.167075 0)
(0.605509 -0.0139131 -2.57655e-20)
(0.674315 0.0333884 -5.41299e-20)
(0.370295 0.0178965 -3.9416e-20)
(0.461003 -0.051441 -4.70738e-22)
(0.996303 0.0436942 5.66152e-20)
(1.22712 0.0645436 -4.26759e-20)
(1.36963 0.0849705 1.45894e-22)
(1.43852 0.101326 3.42052e-20)
(1.45694 0.113456 1.57951e-20)
(1.44778 0.121834 0)
(1.42776 0.127325 6.32651e-25)
(1.40632 0.130688 -1.39e-20)
(1.38752 0.132502 -2.64303e-23)
(1.37254 0.133217 0)
(1.36148 0.133177 -1.27413e-20)
(1.35411 0.132641 1.22523e-20)
(1.35003 0.131767 -1.18397e-20)
(1.34812 0.130521 0)
(1.34499 0.128423 7.12324e-26)
(1.33214 0.124191 5.22574e-21)
(1.29396 0.115767 0)
(1.21123 0.101365 0)
(1.0718 0.081198 0)
(0.881078 0.0582112 3.00555e-24)
(0.661717 0.0359333 -7.06759e-21)
(0.248689 0.00604248 2.55389e-21)
(0.113416 0.000585172 0)
(0.0967757 0.000701055 -1.9378e-21)
(0.0202978 0.000111478 0)
(0.0191523 -0.000148176 -6.60364e-24)
(0.0192748 5.70692e-06 1.10525e-22)
(0.0192876 -0.000142195 0)
(0.439462 0.0178826 0)
(0.998376 0.0067982 0)
(0.988503 0.0176041 2.85953e-23)
(0.963598 0.0239807 -1.3506e-22)
(0.918246 0.0246717 -7.70254e-20)
(0.838782 0.0151385 0)
(0.701417 -0.0230198 -6.18413e-20)
(0.515079 -0.199286 -2.43241e-20)
(0.4901 -0.0995575 4.29836e-22)
(0.424383 -0.463562 -2.1664e-20)
(0.318049 -0.350482 2.23169e-20)
(0.278324 -0.472088 3.64442e-21)
(0.434128 -0.58387 -1.06366e-21)
(0.345202 -0.371494 0)
(0.186961 -0.213996 -3.77536e-23)
(0.179229 -0.0101405 1.06433e-20)
(0.317545 0.0143593 0)
(0.231702 0.0240482 -1.44849e-20)
(0.234625 0.0473546 1.97689e-20)
(0.48154 0.0736896 -7.98093e-20)
(0.193334 0.0282608 -4.91649e-20)
(0.158986 0.0225538 -1.46243e-23)
(0.117642 0.00994853 0)
(0.845106 0.0815167 8.42652e-24)
(1.12022 0.0969275 0)
(1.30141 0.111002 -3.69997e-20)
(1.39859 0.121858 -1.62984e-20)
(1.43504 0.12915 0)
(1.43578 0.133649 -5.5608e-23)
(1.42039 0.136163 -2.62612e-22)
(1.40076 0.137295 -5.25049e-23)
(1.38252 0.137466 0)
(1.36767 0.136975 2.54335e-20)
(1.35663 0.136052 1.23729e-20)
(1.34928 0.134868 1.18995e-20)
(1.3452 0.133506 -1.13232e-23)
(1.34305 0.13185 5.27512e-24)
(1.33898 0.129311 1.05395e-20)
(1.3239 0.12452 0)
(1.28211 0.115445 0)
(1.19553 0.100526 0)
(1.05412 0.0802541 0)
(0.864597 0.0572108 5.98445e-21)
(0.647478 0.0351201 0)
(0.242897 0.00623596 -3.11063e-22)
(0.116384 0.00202477 -6.30626e-23)
(0.117062 0.00116274 -3.8224e-21)
(0.0542704 0.000119383 1.89247e-23)
(0.0502291 0.000720722 -3.29203e-23)
(0.0331682 0.00250387 3.26704e-21)
(0.0227934 -0.000336184 -1.82666e-21)