/*--------------------------------*- C++ -*----------------------------------*\
| =========                 |                                                 |
| \\      /  F ield         | OpenFOAM: The Open Source CFD Toolbox           |
|  \\    /   O peration     | Version:  v1912                                 |
|   \\  /    A nd           | Website:  www.openfoam.com                      |
|    \\/     M anipulation  |                                                 |
\*---------------------------------------------------------------------------*/
FoamFile
{
    version     2.0;
    format      ascii;
    class       volVectorField;
    location    "360";
    object      U;
}
// * * * * * * * * * * * * * * * * * * * * * * * * * * * * * * * * * * * * * //

dimensions      [0 1 -1 0 0 0 0];


internalField   nonuniform List<vector> 
3673
(
(0.0770051 0.0260357 -6.80035e-22)
(0.231167 0.0766287 7.11557e-25)
(0.0764901 0.0258636 0)
(0.382954 0.124497 0)
(0.229716 0.0761539 -7.11874e-25)
(0.076001 0.0256988 0)
(0.527333 0.168207 0)
(0.380654 0.123758 0)
(0.228297 0.0756856 0)
(0.0755138 0.0255376 -5.0542e-22)
(0.657617 0.205916 0)
(0.524315 0.167247 0)
(0.378387 0.123027 0)
(0.226893 0.0752277 0)
(0.075039 0.0253789 5.02798e-22)
(0.766162 0.235555 0)
(0.653942 0.204751 5.52283e-25)
(0.521304 0.166292 0)
(0.376161 0.122315 0)
(0.225528 0.0747782 -4.8525e-22)
(0.0745666 0.0252207 0)
(0.845516 0.255249 0)
(0.761913 0.234205 2.90316e-22)
(0.650312 0.203607 -5.51769e-25)
(0.518342 0.165354 0)
(0.373945 0.121599 0)
(0.224155 0.0743225 0)
(0.0740922 0.0250637 0)
(0.88941 0.26358 -2.90044e-22)
(0.840706 0.253713 -2.7221e-22)
(0.757706 0.23288 0)
(0.646688 0.202469 2.63371e-22)
(0.515388 0.164416 0)
(0.371743 0.120886 -4.34969e-25)
(0.222782 0.073871 0)
(0.073625 0.0249086 -6.97907e-22)
(0.893608 0.259821 5.64012e-24)
(0.883985 0.261839 5.21052e-25)
(0.835928 0.252205 0)
(0.753517 0.231571 1.56936e-23)
(0.643092 0.201341 0)
(0.512425 0.163477 0)
(0.369537 0.120174 4.3492e-25)
(0.221423 0.073422 3.55812e-22)
(0.0731541 0.0247514 0)
(0.85659 0.24413 2.9128e-22)
(0.887478 0.257856 2.68452e-22)
(0.878587 0.260135 -2.60142e-22)
(0.831177 0.250722 -2.3915e-22)
(0.749317 0.230263 -4.38213e-25)
(0.63947 0.200206 0)
(0.509459 0.162535 0)
(0.367333 0.11946 -3.67234e-25)
(0.220042 0.0729665 0)
(0.0726876 0.0245952 0)
(0.780086 0.217671 5.88804e-25)
(0.849681 0.241928 -2.74486e-22)
(0.881366 0.255934 2.59169e-22)
(0.873224 0.258468 2.45595e-22)
(0.826419 0.249247 0)
(0.745117 0.228955 4.37938e-25)
(0.63583 0.199063 0)
(0.506486 0.161588 0)
(0.365128 0.118746 1.04128e-24)
(0.218685 0.0725169 0)
(0.072225 0.0244383 0)
(0.669099 0.182557 -3.55256e-24)
(0.77237 0.215236 -2.58904e-22)
(0.842762 0.239781 -2.55072e-22)
(0.875319 0.254077 -2.18014e-24)
(0.867894 0.256827 9.28107e-25)
(0.821661 0.247773 -2.18915e-22)
(0.740884 0.227636 0)
(0.63218 0.197915 0)
(0.503513 0.160639 0)
(0.362901 0.118021 -9.83558e-25)
(0.217334 0.0720687 0)
(0.0717642 0.0242807 0)
(0.531353 0.141582 2.64314e-24)
(0.660592 0.179913 3.34487e-23)
(0.764545 0.212858 2.72355e-22)
(0.835979 0.237746 -5.04097e-22)
(0.869389 0.252274 1.87588e-24)
(0.862597 0.255194 2.11702e-22)
(0.81689 0.246295 0)
(0.736624 0.226307 0)
(0.628504 0.196757 -3.70758e-22)
(0.500519 0.159682 0)
(0.36071 0.117309 3.3254e-22)
(0.215994 0.0716198 3.02962e-22)
(0.0713134 0.0241321 0)
(0.376298 0.0977422 0)
(0.522034 0.138797 2.89246e-22)
(0.651734 0.177285 2.56688e-22)
(0.757005 0.210678 2.6859e-22)
(0.829459 0.235803 -2.38104e-22)
(0.863573 0.2505 -1.63746e-24)
(0.857321 0.25357 0)
(0.812098 0.244811 -7.10811e-25)
(0.732358 0.224978 3.37723e-22)
(0.624836 0.195602 0)
(0.497548 0.15873 -2.8216e-22)
(0.358536 0.116595 -2.46666e-22)
(0.214665 0.0711764 0)
(0.0708564 0.0239813 0)
(0.366031 0.0949567 -5.74937e-23)
(0.250754 0.0640152 -2.12282e-24)
(0.254001 0.0649099 -1.38146e-22)
(0.511706 0.135839 -3.01464e-22)
(0.643433 0.174999 2.18142e-24)
(0.75003 0.208658 2.49912e-22)
(0.82323 0.233932 -1.66361e-24)
(0.857864 0.248759 1.6393e-24)
(0.852066 0.251955 1.42096e-24)
(0.80731 0.24333 1.37559e-24)
(0.728076 0.223642 -9.77081e-25)
(0.62116 0.194438 0)
(0.494582 0.157775 0)
(0.356364 0.115882 2.81474e-22)
(0.21335 0.0707377 0)
(0.0704089 0.0238307 0)
(0.352368 0.0913343 6.57273e-23)
(0.238382 0.0607243 9.53116e-23)
(0.245768 0.0628801 0)
(0.167278 0.0421936 2.1189e-24)
(0.169516 0.0426887 9.97791e-23)
(0.256365 0.0653909 0)
(0.502624 0.133415 -5.90069e-26)
(0.636235 0.172977 3.92097e-24)
(0.743586 0.206755 2.22922e-22)
(0.817225 0.232124 3.21138e-24)
(0.852243 0.247048 1.85193e-22)
(0.846841 0.250351 -1.77643e-22)
(0.802517 0.241847 -9.75935e-25)
(0.723805 0.222306 3.11101e-25)
(0.617503 0.193279 3.0095e-22)
(0.491657 0.156832 -2.39223e-22)
(0.354231 0.115182 -2.59833e-22)
(0.212035 0.0702993 -2.27006e-22)
(0.0699716 0.023684 0)
(0.342264 0.0885507 4.70416e-24)
(0.220102 0.0562412 -2.3851e-22)
(0.228351 0.0579162 7.52905e-23)
(0.15554 0.0392127 0)
(0.163523 0.0412951 2.30204e-23)
(0.103635 0.0259215 -3.74961e-23)
(0.104454 0.0261044 7.75765e-23)
(0.105417 0.0263031 3.19888e-25)
(0.170942 0.0430184 0)
(0.105018 0.0261948 3.98256e-23)
(0.495641 0.131459 2.79407e-22)
(0.629973 0.17116 -2.49249e-22)
(0.737571 0.204977 2.01129e-22)
(0.811424 0.230387 -1.94397e-22)
(0.846712 0.24537 4.16995e-24)
(0.841647 0.24876 0)
(0.797744 0.24037 3.1078e-25)
(0.719548 0.220974 -2.73642e-22)
(0.61387 0.192125 2.81267e-22)
(0.488741 0.15589 2.20845e-22)
(0.352128 0.11449 1.84485e-22)
(0.210764 0.0698729 -2.07502e-22)
(0.0695428 0.02354 -2.19541e-22)
(0.336412 0.0867394 -3.21944e-22)
(0.212127 0.0537915 1.81321e-24)
(0.214947 0.0546801 0)
(0.131171 0.033125 1.10708e-22)
(0.141312 0.035258 -6.42122e-23)
(0.0910302 0.0224814 2.27803e-24)
(0.0970242 0.0245078 -1.84592e-24)
(0.10244 0.0257325 0)
(0.100442 0.0252109 -1.78613e-25)
(0.0607093 0.0150769 5.2231e-25)
(0.0611675 0.0151624 -3.55561e-23)
(0.105786 0.0263807 -3.19968e-25)
(0.0616602 0.0152691 3.53019e-23)
(0.106082 0.0264593 -4.25645e-23)
(0.0614346 0.0152188 0)
(0.490108 0.129875 -2.37456e-22)
(0.624344 0.169531 -2.23596e-22)
(0.731882 0.203308 0)
(0.805792 0.228705 3.54479e-22)
(0.841264 0.243721 -6.66421e-25)
(0.836492 0.247181 0)
(0.792996 0.238901 1.46551e-22)
(0.71532 0.219648 -2.55773e-22)
(0.61029 0.190984 -2.35015e-25)
(0.485895 0.154965 2.45297e-22)
(0.350039 0.113797 1.68997e-22)
(0.209516 0.0694534 -6.91825e-23)
(0.0691179 0.0233979 0)
(0.332491 0.085656 2.81035e-22)
(0.20884 0.0527864 -1.63639e-24)
(0.210128 0.0531488 -1.81568e-24)
(0.12552 0.0313269 1.55284e-24)
(0.127183 0.0318723 -2.65501e-23)
(0.0622002 0.0156941 3.49315e-23)
(0.0648412 0.0164012 -3.83577e-23)
(0.0799658 0.0188292 -5.86713e-24)
(0.070264 0.0179346 5.45342e-25)
(0.0517247 0.0121216 2.07794e-24)
(0.0563127 0.0140909 0)
(0.0600132 0.0149513 0)
(0.0587578 0.0147085 -3.25929e-23)
(0.0195995 0.00482256 -1.96115e-25)
(0.0197189 0.0048463 1.96215e-25)
(0.0618489 0.0153198 -3.60034e-23)
(0.0198604 0.00487995 -4.49133e-25)
(0.0620143 0.0153543 3.89668e-23)
(0.0198115 0.00487252 -2.64731e-23)
(0.485394 0.128557 -2.17091e-22)
(0.619176 0.168052 1.9111e-22)
(0.726464 0.201724 -3.58577e-22)
(0.800318 0.227074 -1.61775e-22)
(0.835891 0.242095 -1.50912e-22)
(0.831379 0.245616 -2.85356e-22)
(0.78828 0.237438 -2.72297e-25)
(0.711137 0.218332 0)
(0.606751 0.189849 -2.1557e-22)
(0.483077 0.154044 0)
(0.348015 0.113126 1.54641e-22)
(0.20829 0.0690403 0)
(0.0687035 0.0232588 6.84679e-23)
(0.329328 0.0848732 3.02754e-22)
(0.206813 0.0523299 1.54356e-24)
(0.207657 0.0525235 9.6891e-23)
(0.123811 0.0308617 2.24836e-23)
(0.124488 0.0310468 2.16127e-23)
(0.0600456 0.0148576 -3.0513e-23)
(0.0602413 0.0149216 -5.02758e-25)
(0.0610868 0.015201 3.53122e-23)
(0.0605154 0.0150169 -3.19473e-23)
(0.0201176 0.00507514 -2.81359e-23)
(0.0215218 0.00562349 4.07513e-23)
(0.0347051 0.00598763 -1.75711e-24)
(0.0238191 0.00627664 -1.00836e-23)
(0.0169209 0.00434021 -3.59763e-23)
(0.0181291 0.00464061 -2.39409e-23)
(0.0194112 0.00478883 -2.35999e-23)
(0.0190362 0.00473075 -2.38358e-23)
(0.0199101 0.0048957 2.1147e-25)
(0.0199568 0.00490395 2.90459e-23)
(0.481198 0.127406 -2.19805e-22)
(0.614344 0.166678 1.9105e-22)
(0.721252 0.200203 3.3129e-22)
(0.79495 0.225477 7.53615e-24)
(0.830584 0.240493 1.43762e-22)
(0.826314 0.244064 0)
(0.783617 0.235989 0)
(0.707015 0.217027 0)
(0.603267 0.188728 2.28971e-22)
(0.480326 0.153142 2.14514e-22)
(0.346035 0.112465 0)
(0.207093 0.0686349 0)
(0.0682957 0.0231225 0)
(0.32655 0.0841865 5.26657e-23)
(0.205107 0.0519451 -8.35666e-23)
(0.205843 0.0521239 -5.37782e-24)
(0.122753 0.0306309 0)
(0.123238 0.0307443 -8.99284e-23)
(0.0595607 0.0147259 2.80165e-23)
(0.0596294 0.0147554 -2.92713e-23)
(0.0598572 0.0148091 2.92056e-23)
(0.0597396 0.0147847 -3.01909e-23)
(0.0192676 0.0047364 4.30647e-23)
(0.0193273 0.00475823 -2.16753e-23)
(0.0196192 0.00485757 0)
(0.0194125 0.00478262 4.55297e-23)
(0.00962709 0.00153363 2.75563e-24)
(0.477345 0.126356 -1.57293e-24)
(0.609745 0.165376 -3.35706e-22)
(0.716194 0.198735 1.59249e-22)
(0.789685 0.223916 0)
(0.825341 0.238911 0)
(0.8213 0.242527 0)
(0.779009 0.234552 1.19499e-22)
(0.702948 0.215738 -9.45563e-23)
(0.599861 0.187625 -1.88664e-22)
(0.477639 0.152256 -2.01134e-22)
(0.344097 0.111816 1.82701e-22)
(0.205918 0.0682392 0)
(0.0679004 0.0229918 -5.61345e-23)
(0.323986 0.0835356 -4.6924e-23)
(0.203535 0.0515638 -8.07523e-23)
(0.204211 0.051741 -7.80048e-23)
(0.121822 0.0304248 9.53835e-23)
(0.122279 0.030534 -8.09535e-23)
(0.0591711 0.0146388 0)
(0.0592393 0.0146682 -2.5646e-23)
(0.0594288 0.0147037 2.67875e-23)
(0.0593431 0.0146874 2.63904e-23)
(0.0191327 0.00469961 -2.35169e-25)
(0.0191484 0.0047107 -2.01783e-23)
(0.0192211 0.00472247 -2.64818e-25)
(0.0191711 0.00471478 2.04818e-23)
(0.473694 0.125367 1.85255e-22)
(0.605325 0.164134 -1.4779e-22)
(0.711253 0.197303 -1.36005e-22)
(0.7845 0.222381 1.28086e-22)
(0.820161 0.237348 1.22168e-22)
(0.816343 0.241003 8.45321e-25)
(0.774464 0.233128 -1.06702e-22)
(0.698964 0.214463 0)
(0.596532 0.18654 1.76864e-22)
(0.475032 0.151392 -1.54905e-22)
(0.34222 0.111186 -1.45341e-25)
(0.204786 0.0678556 0)
(0.0675093 0.0228648 5.25882e-23)
(0.32155 0.0829112 7.89257e-25)
(0.202034 0.0511908 6.85341e-24)
(0.202689 0.0513652 6.85996e-23)
(0.120914 0.0302048 1.57907e-23)
(0.121355 0.0303179 8.83807e-23)
(0.058763 0.0145457 -2.29644e-23)
(0.0588363 0.0145767 -2.25878e-23)
(0.0590327 0.0146155 8.22163e-25)
(0.0589453 0.0145971 -1.00528e-24)
(0.019018 0.00467195 1.75112e-23)
(0.0190374 0.00468372 1.96559e-25)
(0.0190998 0.00469176 -1.93486e-23)
(0.0190572 0.00468582 -2.87592e-25)
(0.470196 0.12442 1.69216e-22)
(0.601029 0.162924 1.50879e-22)
(0.706408 0.195901 -1.37017e-22)
(0.779383 0.220866 -1.26521e-22)
(0.815033 0.235797 -3.62457e-24)
(0.811443 0.239492 1.08483e-22)
(0.769993 0.231718 0)
(0.695069 0.213207 0)
(0.5933 0.185476 -1.91998e-22)
(0.472475 0.150536 0)
(0.340372 0.11056 1.45251e-25)
(0.203661 0.0674751 -1.42944e-22)
(0.0671099 0.0227293 -5.44598e-23)
(0.319198 0.0822992 3.5961e-23)
(0.200573 0.0508226 -5.69916e-23)
(0.201205 0.0509924 6.01597e-23)
(0.120031 0.0299888 6.07545e-23)
(0.120469 0.0301006 -4.9284e-23)
(0.0583439 0.014443 0)
(0.058417 0.0144732 -4.01486e-23)
(0.0586184 0.0145176 0)
(0.0585267 0.0144971 -1.0179e-24)
(0.0188889 0.00464132 1.17172e-25)
(0.0189129 0.00465376 1.62561e-23)
(0.0189822 0.00466392 3.39041e-23)
(0.0189375 0.00465706 -2.85179e-25)
(0.46681 0.1235 2.66928e-25)
(0.596824 0.161742 -1.21731e-22)
(0.701646 0.194524 1.15019e-22)
(0.774315 0.219363 -1.17359e-22)
(0.809947 0.234256 -1.08695e-22)
(0.806609 0.23799 -1.00697e-22)
(0.76561 0.230323 1.82672e-25)
(0.691262 0.211968 1.74714e-22)
(0.590139 0.184428 0)
(0.469998 0.149704 0)
(0.338583 0.109954 1.1602e-22)
(0.202541 0.067094 0)
(0.0667225 0.0225984 -5.46901e-26)
(0.31691 0.0817006 -2.99064e-23)
(0.199145 0.0504554 -4.96768e-23)
(0.199768 0.0506258 -5.82498e-23)
(0.119166 0.0297754 4.12414e-23)
(0.119597 0.0298842 -8.1119e-23)
(0.0579237 0.014341 0)
(0.0580012 0.0143713 -1.69904e-23)
(0.0582017 0.0144154 -1.80363e-23)
(0.0581116 0.0143954 -1.85685e-23)
(0.0187532 0.00460768 1.33016e-23)
(0.0187797 0.00462009 2.60477e-25)
(0.0188494 0.00463227 1.45646e-23)
(0.0188041 0.00462527 -2.89818e-23)
(0.463514 0.122604 2.25064e-23)
(0.592692 0.160579 -1.27886e-22)
(0.696919 0.193158 -2.10296e-25)
(0.769288 0.217874 0)
(0.804914 0.232723 1.00558e-22)
(0.801839 0.236497 0)
(0.761316 0.228942 9.02824e-23)
(0.687558 0.210752 -1.74418e-25)
(0.587062 0.183402 0)
(0.467563 0.148884 0)
(0.336791 0.109349 0)
(0.201442 0.06672 -1.42858e-22)
(0.0663602 0.0224724 0)
(0.314676 0.0811127 1.09808e-22)
(0.19775 0.0500998 4.93655e-23)
(0.198367 0.0502664 0)
(0.118323 0.0295617 3.61963e-23)
(0.118744 0.0296699 -1.08949e-23)
(0.0575154 0.0142399 0)
(0.0575864 0.0142703 1.54369e-23)
(0.0577838 0.0143125 1.03517e-24)
(0.057693 0.0142926 3.0987e-23)
(0.0186172 0.00457466 1.14314e-23)
(0.0186446 0.00458697 2.65113e-25)
(0.0187143 0.00459922 2.57468e-23)
(0.0186691 0.00459229 0)
(0.460266 0.121717 0)
(0.588611 0.159431 0)
(0.692219 0.191797 1.82241e-26)
(0.764265 0.216378 1.80935e-25)
(0.799907 0.231186 3.7384e-25)
(0.797139 0.23501 -8.77515e-23)
(0.757111 0.227576 0)
(0.683936 0.209552 0)
(0.584053 0.182393 8.47741e-23)
(0.465176 0.148078 0)
(0.335026 0.108747 1.15859e-22)
(0.200347 0.0663379 1.16421e-25)
(0.0659647 0.0223373 -9.9787e-23)
(0.312496 0.0805368 0)
(0.196393 0.04975 6.58191e-24)
(0.196994 0.0499137 0)
(0.117494 0.0293542 -8.4293e-24)
(0.11791 0.0294605 -1.84522e-23)
(0.0571084 0.0141387 0)
(0.0571805 0.0141678 8.1436e-25)
(0.0573759 0.0142114 1.41038e-23)
(0.0572877 0.0141908 1.27362e-23)
(0.0184874 0.00454253 0)
(0.0185118 0.00455544 0)
(0.0185786 0.004566 2.21526e-23)
(0.018532 0.00455931 -2.1545e-23)
(0.457068 0.120844 -9.28742e-23)
(0.584529 0.158282 0)
(0.687508 0.190432 8.7105e-23)
(0.759245 0.214876 -1.80863e-25)
(0.794932 0.229643 0)
(0.792506 0.233524 0)
(0.752994 0.226224 0)
(0.680402 0.208374 -7.69965e-23)
(0.58111 0.181402 0)
(0.462791 0.147268 0)
(0.333278 0.108144 0)
(0.199237 0.065953 9.28264e-23)
(0.0655505 0.0222011 -1.91911e-22)
(0.310325 0.0799623 1.07342e-22)
(0.195056 0.0494066 3.03094e-23)
(0.195654 0.0495679 1.35852e-25)
(0.116687 0.0291503 2.69432e-23)
(0.117092 0.0292539 -7.56856e-24)
(0.0567077 0.014041 0)
(0.0567815 0.014067 1.10826e-23)
(0.0569699 0.0141109 8.8787e-25)
(0.0568984 0.0140948 9.78664e-25)
(0.0183541 0.0045099 0)
(0.0183799 0.00452225 2.54577e-25)
(0.0184478 0.00453421 0)
(0.018404 0.00452698 -2.78612e-25)
(0.453867 0.119969 -5.38188e-25)
(0.580427 0.157129 -9.6698e-23)
(0.68275 0.189051 0)
(0.754186 0.213347 0)
(0.78997 0.228082 2.84973e-25)
(0.787936 0.232039 0)
(0.748956 0.224886 0)
(0.676928 0.20721 1.52472e-25)
(0.578183 0.180415 -8.11228e-23)
(0.460433 0.146462 0)
(0.331488 0.107529 1.622e-22)
(0.198109 0.0655661 1.02956e-22)
(0.0651361 0.0220599 9.42406e-23)
(0.308189 0.0793965 -1.72196e-23)
(0.19374 0.0490693 2.48719e-23)
(0.194333 0.0492284 -2.75277e-23)
(0.115894 0.0289508 -2.85205e-23)
(0.116295 0.0290519 -1.25256e-23)
(0.0563224 0.0139452 0)
(0.056394 0.0139701 9.19041e-24)
(0.0565764 0.0140124 0)
(0.0565087 0.0139971 9.73807e-25)
(0.0182219 0.00447891 0)
(0.018261 0.00449203 -7.15837e-24)
(0.0183149 0.00450213 2.973e-25)
(0.0182745 0.00449527 7.8352e-24)
(0.450642 0.11909 3.44559e-25)
(0.57626 0.155956 0)
(0.677884 0.187626 5.35204e-25)
(0.749065 0.211777 0)
(0.785009 0.226496 -6.43893e-23)
(0.783419 0.230556 6.84471e-23)
(0.744985 0.223566 -1.4645e-25)
(0.673496 0.20606 7.37667e-23)
(0.575264 0.179426 -3.03367e-25)
(0.458056 0.145648 -1.37232e-22)
(0.3297 0.106909 0)
(0.19694 0.0651568 0)
(0.0647169 0.0219184 -2.47893e-22)
(0.306047 0.0788257 -1.42495e-23)
(0.192439 0.0487296 -9.34238e-26)
(0.193026 0.0488897 5.05749e-23)
(0.115113 0.0287564 -2.79358e-23)
(0.115509 0.0288536 1.59331e-23)
(0.0559403 0.0138507 0)
(0.0560114 0.0138748 0)
(0.0561917 0.0139159 9.17772e-25)
(0.0561232 0.0139009 9.5523e-25)
(0.0180998 0.00444894 5.44169e-24)
(0.0181373 0.00446159 4.67305e-26)
(0.0181895 0.00447095 6.32613e-24)
(0.0181503 0.00446418 1.25471e-23)
(0.447344 0.118187 0)
(0.571927 0.154734 0)
(0.672853 0.186137 -5.72463e-23)
(0.743837 0.210143 1.20681e-22)
(0.780035 0.224883 -6.86287e-23)
(0.778947 0.229084 -6.62221e-23)
(0.741057 0.222262 -1.40819e-25)
(0.670071 0.20491 7.68202e-23)
(0.572337 0.17843 -7.97778e-23)
(0.455654 0.144817 0)
(0.327866 0.106267 0)
(0.195767 0.0647448 1.2804e-22)
(0.0642943 0.0217728 1.28491e-22)
(0.303853 0.0782412 0)
(0.191161 0.0483938 -1.42023e-23)
(0.191752 0.0485578 2.30965e-23)
(0.114353 0.0285623 -3.26894e-24)
(0.114742 0.0286601 -2.48801e-23)
(0.0555706 0.0137604 0)
(0.0556373 0.013783 5.82666e-24)
(0.0558157 0.0138227 6.50698e-24)
(0.0557481 0.0138072 6.32544e-24)
(0.0179752 0.00441853 4.18722e-24)
(0.0180131 0.00443098 0)
(0.0180656 0.00444022 1.03045e-23)
(0.0180247 0.00443335 5.16674e-24)
(0.443895 0.117251 -4.99439e-23)
(0.567336 0.153435 6.32024e-23)
(0.667571 0.184538 -5.82207e-23)
(0.73846 0.20843 0)
(0.775055 0.223264 6.65158e-23)
(0.774514 0.22763 0)
(0.737151 0.220968 -1.43605e-22)
(0.666648 0.203758 7.20975e-23)
(0.569386 0.177416 -8.00968e-23)
(0.453209 0.143965 0)
(0.325997 0.105607 0)
(0.194567 0.0643181 1.93873e-22)
(0.0638397 0.0216206 2.68147e-23)
(0.301584 0.0776392 4.92186e-23)
(0.189869 0.0480571 9.35491e-24)
(0.190478 0.0482246 0)
(0.113604 0.0283708 9.33886e-24)
(0.11398 0.0284649 -5.29486e-24)
(0.0552034 0.0136673 0)
(0.0552736 0.013689 4.20834e-24)
(0.0554439 0.0137316 4.95636e-24)
(0.0553786 0.013718 -4.02263e-24)
(0.0178587 0.00438995 3.0599e-24)
(0.0178924 0.00440184 2.75456e-26)
(0.0179452 0.00441085 3.82e-24)
(0.0179042 0.00440332 3.61961e-24)
(0.440138 0.116235 6.27104e-25)
(0.562303 0.15198 -3.38222e-23)
(0.661912 0.182781 0)
(0.73296 0.206667 4.18529e-23)
(0.770088 0.221662 -1.20944e-25)
(0.77012 0.226201 1.33641e-22)
(0.733254 0.219674 5.61916e-25)
(0.663196 0.202586 1.47041e-22)
(0.566396 0.176382 0)
(0.45071 0.143087 -3.31866e-25)
(0.324086 0.104929 -1.56684e-22)
(0.193325 0.0638793 4.88756e-23)
(0.0633603 0.0214595 2.00485e-22)
(0.299092 0.0769822 2.26439e-24)
(0.188566 0.0477126 0)
(0.189179 0.0478832 2.19016e-23)
(0.112865 0.0281824 -8.576e-24)
(0.113236 0.0282744 1.46865e-24)
(0.0548457 0.0135793 2.52021e-24)
(0.0549181 0.0136003 2.72639e-24)
(0.0550816 0.0136396 9.65995e-25)
(0.0550198 0.0136269 3.3431e-24)
(0.0177372 0.00435836 1.90334e-24)
(0.0177741 0.00436983 0)
(0.017821 0.00438203 2.60215e-24)
(0.0177912 0.00437877 2.10687e-25)
(0.435814 0.115063 3.86115e-23)
(0.556622 0.150291 -1.35586e-25)
(0.655892 0.180879 -4.49729e-23)
(0.727399 0.20491 4.38994e-23)
(0.765181 0.220108 -1.21408e-22)
(0.76577 0.224789 0)
(0.729352 0.218371 -6.89342e-23)
(0.659713 0.201394 0)
(0.563344 0.175318 0)
(0.448171 0.142187 3.3179e-25)
(0.322137 0.104233 -3.75669e-22)
(0.192033 0.06342 -1.85989e-22)
(0.0628728 0.0212934 -2.04642e-22)
(0.296107 0.0762249 0)
(0.187125 0.0473368 5.39009e-24)
(0.18785 0.0475348 -9.05144e-24)
(0.112114 0.0279892 3.95275e-25)
(0.112502 0.0280858 -7.209e-24)
(0.0545054 0.0134929 1.04233e-24)
(0.0545718 0.0135142 -1.32876e-24)
(0.0547312 0.0135529 0)
(0.0546715 0.0135383 -1.89022e-24)
(0.0176204 0.00433057 8.32484e-25)
(0.0176586 0.00434137 0)
(0.0177021 0.00435234 3.38606e-24)
(0.0176742 0.0043496 -1.65866e-24)
(0.430527 0.113594 0)
(0.550073 0.148262 1.35204e-25)
(0.649636 0.178944 -4.75177e-23)
(0.721943 0.203243 5.93296e-23)
(0.760392 0.218597 -9.15616e-25)
(0.761462 0.223378 0)
(0.725439 0.217051 -1.05202e-24)
(0.656183 0.200176 5.78922e-25)
(0.560249 0.174227 0)
(0.445586 0.141263 3.6007e-22)
(0.320153 0.103517 3.88295e-25)
(0.190694 0.062938 4.33625e-25)
(0.0623737 0.0211258 2.40307e-23)
(0.29208 0.0751873 4.53053e-24)
(0.185302 0.0468955 -4.31532e-27)
(0.186293 0.0471467 4.3122e-27)
(0.111322 0.0277862 -1.24766e-24)
(0.111757 0.0278905 1.78802e-25)
(0.0541656 0.0134074 9.36075e-25)
(0.0542367 0.0134296 7.76146e-25)
(0.05439 0.0134665 -6.35475e-25)
(0.0543331 0.0134534 0)
(0.0175153 0.00430369 0)
(0.0175476 0.0043146 1.16266e-25)
(0.0175909 0.0043258 -5.68502e-25)
(0.0175632 0.00432149 -5.31297e-25)
(0.423527 0.111529 3.35129e-23)
(0.542889 0.146071 0)
(0.643552 0.177173 3.36822e-25)
(0.71674 0.201662 0)
(0.755737 0.217112 8.49277e-25)
(0.757189 0.221966 0)
(0.721504 0.215714 5.19257e-25)
(0.652617 0.198932 -5.78834e-25)
(0.557115 0.173111 2.65878e-24)
(0.442974 0.140314 3.69061e-25)
(0.318093 0.102766 0)
(0.189347 0.0624564 -2.43055e-22)
(0.0618609 0.0209511 2.28334e-23)
(0.285035 0.0733316 -3.89364e-23)
(0.182195 0.0461679 -7.43268e-24)
(0.184037 0.0466414 1.04467e-25)
(0.110367 0.0275561 -2.48768e-24)
(0.11092 0.0276773 2.01139e-24)
(0.0538308 0.0133247 0)
(0.0539028 0.0133464 1.61901e-24)
(0.0540554 0.0133811 7.96632e-25)
(0.0539999 0.013367 -1.02715e-24)
(0.0174055 0.00427699 -2.28114e-24)
(0.0174417 0.00428845 -1.5863e-24)
(0.0174812 0.00429817 -4.94627e-25)
(0.0174554 0.00429532 4.64934e-25)
(0.414834 0.108949 -4.94796e-23)
(0.53602 0.144191 0)
(0.637998 0.175562 6.35545e-25)
(0.71183 0.200141 -3.92448e-23)
(0.751201 0.215648 -4.05537e-25)
(0.752945 0.22055 0)
(0.717557 0.214358 0)
(0.649013 0.197661 -2.23926e-22)
(0.553935 0.171962 -1.72853e-22)
(0.44029 0.139334 4.2169e-25)
(0.316016 0.102005 0)
(0.187974 0.061954 -2.77717e-22)
(0.0613318 0.0207711 3.46095e-22)
(0.272816 0.0699995 2.64751e-23)
(0.174456 0.044101 1.43229e-24)
(0.179353 0.0456163 9.09731e-24)
(0.108667 0.0271957 0)
(0.10972 0.0274023 -3.00088e-24)
(0.0534693 0.0132354 4.70039e-24)
(0.0535582 0.0132605 3.18442e-24)
(0.0537126 0.0132935 0)
(0.0536616 0.0132791 8.43235e-25)
(0.0173037 0.00425213 -2.4352e-24)
(0.017337 0.00426283 -1.98849e-24)
(0.0173753 0.00427139 -1.55571e-24)
(0.0173492 0.00426797 0)
(0.406858 0.106883 -5.22067e-25)
(0.530249 0.142594 -3.42054e-23)
(0.63302 0.174063 1.3911e-23)
(0.707193 0.198683 -5.47848e-25)
(0.746776 0.214205 0)
(0.748733 0.21913 0)
(0.713601 0.212983 6.71789e-23)
(0.645391 0.196366 1.56989e-22)
(0.550717 0.17079 3.72553e-25)
(0.437587 0.138329 -4.21599e-25)
(0.313876 0.101209 -2.7966e-22)
(0.186577 0.0614419 -3.19202e-22)
(0.0607866 0.020581 3.94986e-22)
(0.262917 0.0674586 5.14477e-25)
(0.155997 0.0397069 -1.55235e-23)
(0.165442 0.0414221 8.96178e-23)
(0.103527 0.0259751 -1.48109e-24)
(0.107037 0.0268691 -7.8683e-24)
(0.0528707 0.0131067 0)
(0.0530918 0.0131525 -5.58767e-24)
(0.0533352 0.0132046 -9.54364e-25)
(0.0532317 0.0131745 -5.46145e-24)
(0.0171943 0.00422564 -7.23109e-24)
(0.0172351 0.00423684 -3.19346e-24)
(0.0172729 0.00424554 0)
(0.0172464 0.00424191 1.54266e-25)
(0.401121 0.105289 1.72052e-23)
(0.525475 0.14118 3.09507e-23)
(0.628482 0.172668 0)
(0.702764 0.197275 5.48654e-25)
(0.742448 0.212779 -3.24903e-23)
(0.744557 0.217706 -3.82712e-25)
(0.709645 0.211589 2.4654e-25)
(0.641742 0.195045 0)
(0.547472 0.169585 -3.72403e-25)
(0.434825 0.137292 4.75975e-22)
(0.311746 0.100406 2.81867e-25)
(0.185126 0.0608972 -3.62955e-22)
(0.0602004 0.0203885 0)
(0.258044 0.0658542 3.03863e-23)
(0.147677 0.0371865 -9.04449e-24)
(0.150209 0.0380171 -1.06681e-25)
(0.0777635 0.020118 1.49916e-23)
(0.0920479 0.0225922 -3.687e-23)
(0.0491934 0.0120026 -1.09291e-24)
(0.0512066 0.0128694 -9.13836e-26)
(0.0525955 0.0130655 4.41732e-26)
(0.0520931 0.0129738 7.10529e-24)
(0.0170337 0.00418562 0)
(0.0171072 0.00420239 -4.40333e-25)
(0.0171696 0.00422155 3.55174e-24)
(0.0171245 0.00420949 -1.85091e-25)
(0.39701 0.104065 5.76441e-24)
(0.521371 0.139942 -4.53745e-25)
(0.624297 0.171375 -2.0974e-25)
(0.698519 0.195915 1.6292e-23)
(0.738219 0.21137 5.53979e-25)
(0.740419 0.216274 3.82887e-25)
(0.705697 0.210175 -4.93141e-25)
(0.638075 0.193693 0)
(0.544205 0.168354 -2.10407e-22)
(0.432042 0.136227 2.70985e-25)
(0.30953 0.0995607 -3.38368e-22)
(0.183608 0.0603382 0)
(0.0595898 0.0201839 -1.00964e-21)
(0.255333 0.0650537 2.09815e-24)
(0.145377 0.0363649 -5.42229e-24)
(0.146213 0.0366117 1.65583e-23)
(0.0716634 0.0177519 8.86001e-24)
(0.0727957 0.0183056 -2.39539e-25)
(0.0184086 0.00494841 -1.82596e-24)
(0.0206028 0.00508833 2.05035e-24)
(0.0448337 0.0102381 -1.23267e-24)
(0.0301985 0.00506831 0)
(0.0157733 0.00402006 4.23204e-24)
(0.016491 0.00412347 8.16783e-26)
(0.016954 0.00417085 5.21682e-24)
(0.0167903 0.00414527 3.60056e-25)
(0.39369 0.103099 5.52572e-25)
(0.517692 0.138842 9.51444e-24)
(0.620378 0.170158 1.80092e-23)
(0.694435 0.194589 0)
(0.734071 0.209966 -2.59414e-25)
(0.736321 0.214832 0)
(0.701759 0.20874 5.41491e-23)
(0.634405 0.192317 0)
(0.540913 0.167089 0)
(0.429222 0.135136 3.24779e-24)
(0.307279 0.0986951 0)
(0.182053 0.0597591 9.74368e-22)
(0.0589782 0.0199733 -5.68052e-22)
(0.253339 0.0645801 1.2834e-23)
(0.144262 0.0361444 1.3584e-25)
(0.144707 0.0362286 -1.45525e-23)
(0.0707485 0.0174702 7.54177e-26)
(0.0710965 0.0175688 -1.55829e-23)
(0.0167207 0.00411223 5.31723e-24)
(0.0167915 0.00414669 5.962e-24)
(0.0172743 0.00436188 -3.43463e-24)
(0.0168528 0.00421332 -3.9497e-24)
(0.0146887 0.00369905 -9.49903e-26)
(0.00831179 0.00128568 -7.28162e-23)
(0.390868 0.1023 -1.06808e-23)
(0.514364 0.137845 1.92259e-23)
(0.616669 0.168992 0)
(0.690487 0.19329 0)
(0.730006 0.208568 -1.63596e-23)
(0.732263 0.213378 -5.23887e-23)
(0.697829 0.20728 2.53369e-25)
(0.630727 0.190909 0)
(0.537596 0.165792 2.47857e-22)
(0.426341 0.134001 -3.08186e-22)
(0.304969 0.0977959 -4.0649e-22)
(0.180451 0.0591529 0)
(0.0583134 0.0197516 -6.47016e-22)
(0.251635 0.0641755 -1.58091e-23)
(0.143397 0.0359789 0)
(0.143758 0.036057 -2.01392e-23)
(0.0703351 0.0173976 0)
(0.070518 0.0174369 -5.56297e-24)
(0.0166567 0.00409067 -5.35301e-24)
(0.0166644 0.00409278 -5.67582e-24)
(0.0166992 0.00410602 0)
(0.0166859 0.00410229 5.41299e-24)
(0.388354 0.101588 -2.14624e-23)
(0.511272 0.136912 2.92605e-25)
(0.613138 0.167868 -1.5965e-23)
(0.686654 0.192008 2.06618e-23)
(0.726015 0.207168 -1.08432e-23)
(0.728248 0.211908 -1.58266e-25)
(0.693919 0.205795 -5.34163e-23)
(0.627052 0.189468 0)
(0.534231 0.164452 2.74923e-23)
(0.423424 0.132832 0)
(0.302583 0.0968572 0)
(0.178791 0.0585281 0)
(0.0576346 0.0195278 -7.37722e-22)
(0.250138 0.0637977 0)
(0.142603 0.0357942 0)
(0.14294 0.0358811 2.48803e-23)
(0.0699753 0.0173236 -7.38333e-24)
(0.0701568 0.017371 0)
(0.0166072 0.00408205 0)
(0.016609 0.00408316 -6.25572e-24)
(0.016636 0.00408958 1.12792e-23)
(0.0166353 0.00408866 -4.49235e-26)
(0.386074 0.100938 -2.98758e-25)
(0.508351 0.13602 1.77583e-23)
(0.609741 0.166768 2.08122e-23)
(0.682922 0.190732 1.12849e-23)
(0.722095 0.205761 0)
(0.724275 0.210418 7.80308e-23)
(0.69003 0.204281 -5.35316e-23)
(0.623355 0.18799 3.0762e-22)
(0.530846 0.163075 2.66971e-25)
(0.420468 0.131631 -3.72535e-22)
(0.300154 0.0958909 0)
(0.17709 0.0578842 0)
(0.0569372 0.0192961 8.48792e-22)
(0.248764 0.0634376 3.22004e-25)
(0.141849 0.0356059 0)
(0.142163 0.0356909 0)
(0.0696125 0.0172382 -8.34294e-24)
(0.0697945 0.0172881 1.08998e-25)
(0.01653 0.00406148 -2.78e-25)
(0.0165417 0.00406674 0)
(0.0165769 0.00407817 6.70211e-24)
(0.0165709 0.00407404 6.9649e-24)
(0.383921 0.100317 4.81254e-25)
(0.505567 0.135158 -2.77842e-23)
(0.606468 0.165689 0)
(0.679293 0.189464 3.07051e-26)
(0.718242 0.204342 -2.64118e-23)
(0.720345 0.208906 5.2018e-23)
(0.686153 0.202734 -1.36808e-22)
(0.61965 0.186474 -9.36285e-23)
(0.527452 0.161664 3.2642e-22)
(0.417454 0.130382 0)
(0.2977 0.0948943 0)
(0.175303 0.0572001 -7.78257e-22)
(0.0561956 0.0190625 9.4353e-22)
(0.247462 0.0630879 -1.34704e-25)
(0.141136 0.0354218 1.45329e-25)
(0.141433 0.0355066 -1.45374e-25)
(0.0692687 0.0171549 0)
(0.0694363 0.0171992 0)
(0.0164487 0.00404247 0)
(0.0164608 0.00404748 8.41136e-24)
(0.0164973 0.00405744 7.95587e-24)
(0.0164922 0.00405475 8.1976e-24)
(0.381888 0.099724 -4.81035e-25)
(0.502916 0.134323 0)
(0.6033 0.164618 4.39188e-23)
(0.67575 0.18819 2.75773e-23)
(0.714461 0.20291 2.94146e-26)
(0.716457 0.207367 5.27511e-23)
(0.682294 0.201153 8.79067e-23)
(0.615955 0.184916 0)
(0.524016 0.160199 0)
(0.414409 0.129085 -4.53509e-22)
(0.295113 0.093836 0)
(0.173437 0.0565106 0)
(0.0554097 0.0187822 1.07688e-21)
(0.246221 0.0627478 2.68122e-26)
(0.140443 0.0352431 -1.65562e-25)
(0.140741 0.0353296 1.65618e-25)
(0.0689253 0.0170703 0)
(0.0690988 0.0171156 0)
(0.0163787 0.00402452 0)
(0.0163806 0.00402818 -9.73143e-24)
(0.0164184 0.00403753 -9.15915e-24)
(0.0164104 0.00403474 9.40462e-24)
(0.37995 0.0991493 -8.94958e-23)
(0.500364 0.133499 -1.19973e-22)
(0.600239 0.163551 -2.98179e-23)
(0.672296 0.186908 0)
(0.710742 0.201456 1.20477e-26)
(0.712611 0.205798 0)
(0.67845 0.199528 0)
(0.61224 0.183308 0)
(0.520525 0.158675 3.97526e-22)
(0.411262 0.127733 0)
(0.292445 0.0927408 0)
(0.171469 0.0558019 -9.87714e-22)
(0.0547826 0.0183522 1.22285e-21)
(0.245038 0.0624233 1.04969e-22)
(0.139791 0.035069 -1.75701e-25)
(0.140067 0.0351513 3.72309e-25)
(0.0685919 0.0169871 0)
(0.0687592 0.0170343 0)
(0.0162949 0.00400586 1.11638e-23)
(0.0163091 0.00401044 -1.08503e-23)
(0.0163457 0.0040193 -1.02469e-23)
(0.016339 0.00401638 1.04034e-23)
(0.378111 0.0985959 8.30834e-23)
(0.497922 0.132685 -2.65435e-25)
(0.597276 0.162479 0)
(0.668921 0.185611 0)
(0.707086 0.19998 -1.8323e-23)
(0.708806 0.204195 -1.65321e-23)
(0.674623 0.197861 -6.09535e-23)
(0.608495 0.181647 0)
(0.517006 0.157104 -3.86768e-25)
(0.408026 0.126318 0)
(0.289717 0.0916091 0)
(0.169348 0.0549398 -1.12144e-21)
(0.0552832 0.0179974 1.42466e-21)
(0.243913 0.0621236 2.42887e-25)
(0.139157 0.034907 4.13352e-25)
(0.139413 0.03498 -6.09856e-25)
(0.0682733 0.0169051 0)
(0.0684377 0.0169491 -1.2561e-23)
(0.0162208 0.00398632 1.23903e-23)
(0.0162308 0.00399163 -1.21199e-23)
(0.016269 0.00400341 0)
(0.016259 0.0039983 0)
(0.376357 0.0980558 1.18641e-22)
(0.495587 0.13187 9.95245e-23)
(0.594417 0.1614 0)
(0.66563 0.184302 1.90954e-23)
(0.703499 0.198481 1.66251e-23)
(0.705043 0.202553 4.43732e-23)
(0.670809 0.196146 0)
(0.604751 0.179931 0)
(0.513404 0.155461 4.12629e-22)
(0.404784 0.124845 0)
(0.286572 0.0903474 0)
(0.169414 0.0538441 6.15413e-23)
(0.0492862 0.0151578 -5.95933e-23)
(0.24285 0.0618552 -1.39803e-22)
(0.138538 0.0347663 0)
(0.138798 0.0348289 5.91384e-23)
(0.0679695 0.0168299 0)