/*--------------------------------*- C++ -*----------------------------------*\
| =========                 |                                                 |
| \\      /  F ield         | OpenFOAM: The Open Source CFD Toolbox           |
|  \\    /   O peration     | Version:  v1912                                 |
|   \\  /    A nd           | Website:  www.openfoam.com                      |
|    \\/     M anipulation  |                                                 |
\*---------------------------------------------------------------------------*/
FoamFile
{
    version     2.0;
    format      ascii;
    class       volVectorField;
    location    "200";
    object      U;
}
// * * * * * * * * * * * * * * * * * * * * * * * * * * * * * * * * * * * * * //

dimensions      [0 1 -1 0 0 0 0];


internalField   nonuniform List<vector> 
3754
(
(0.995637 0.00297836 8.75494e-23)
(0.996043 0.00863342 0)
(0.950816 0.0118726 1.39601e-22)
(0.996672 0.0136029 0)
(0.955814 0.0334698 0)
(0.812903 0.0380481 -1.84963e-21)
(0.99718 0.0174601 0)
(0.96529 0.0512069 -1.05559e-20)
(0.842282 0.0992073 1.21965e-22)
(0.515422 0.0518805 1.018e-21)
(0.53204 0.146988 8.76404e-22)
(0.997545 0.0200051 -1.41756e-22)
(0.977324 0.0634354 1.05013e-20)
(0.89315 0.145346 0)
(0.578868 0.237862 7.91675e-22)
(0.646706 0.30663 -3.3237e-21)
(0.117807 0.102204 -2.08504e-22)
(0.111642 0.0343676 2.13821e-22)
(0.158617 0.226461 0)
(0.13232 0.167191 0)
(0.99788 0.0213473 0)
(0.988806 0.070814 4.38221e-22)
(0.935366 0.166993 0)
(0.719312 0.356858 2.49268e-21)
(0.80241 0.380919 -3.60265e-21)
(0.250672 0.313578 -1.09075e-22)
(0.198144 0.277107 2.14117e-21)
(0.479251 0.477531 -6.22746e-22)
(0.345725 0.41121 0)
(0.998261 0.0217391 0)
(0.997938 0.0742166 0)
(0.964912 0.167254 -1.41796e-22)
(0.95568 0.447639 -8.89101e-21)
(0.663111 0.551185 8.11264e-22)
(0.576435 0.518616 -7.49244e-22)
(0.780221 0.506309 0)
(0.296338 0.331703 -2.41989e-21)
(0.132976 0.204033 5.24613e-21)
(0.998682 0.0214311 0)
(1.00449 0.0744102 -5.74208e-23)
(0.987992 0.157982 0)
(1.06439 0.423601 1.1304e-20)
(0.891263 0.319197 -1.21884e-21)
(1.06419 0.388619 3.80977e-21)
(0.557554 0.401533 9.07254e-22)
(0.399237 0.343424 -8.23624e-22)
(0.757651 0.378795 -2.11269e-21)
(0.53444 0.272102 1.8088e-21)
(0.999095 0.0206077 -1.22739e-23)
(1.00898 0.0720723 0)
(1.00705 0.146276 5.1273e-23)
(1.10791 0.371822 0)
(1.19044 0.309678 -2.33054e-21)
(0.631147 0.0925993 -7.26433e-21)
(0.545573 0.146026 2.18743e-21)
(0.922526 0.143596 7.85833e-21)
(0.240979 0.150331 0)
(0.250434 0.0825119 0)
(0.999456 0.0193865 2.29068e-20)
(1.01209 0.0678193 1.33203e-23)
(1.02274 0.134132 1.55865e-23)
(1.12084 0.314991 -5.05872e-21)
(1.28831 0.299733 0)
(1.01843 0.142222 1.58262e-20)
(0.424766 0.0225205 -4.44576e-22)
(0.272164 0.0193197 1.7921e-22)
(0.37593 0.0484212 -1.4184e-22)
(0.726824 0.0702818 0)
(0.133708 0.00951794 -3.04698e-23)
(0.999748 0.017849 -2.2562e-20)
(1.01434 0.0621974 0)
(1.03488 0.121724 0)
(1.12376 0.265558 9.04613e-21)
(1.30515 0.275554 9.2269e-24)
(1.27037 0.178031 -1.49501e-20)
(0.828149 0.0512716 -1.60364e-20)
(0.581346 0.0534005 4.1471e-21)
(0.202137 0.00144918 1.72965e-22)
(0.324115 0.0206647 -3.71409e-21)
(0.187075 0.00516106 3.45503e-22)
(0.0827533 0.0020618 7.20997e-23)
(0.999971 0.0160619 0)
(1.01605 0.0556275 -2.00667e-20)
(1.0437 0.108939 0)
(1.12475 0.223653 -3.89339e-21)
(1.29099 0.246183 0)
(1.35991 0.186521 -2.37607e-20)
(1.15947 0.103548 4.22947e-20)
(0.737969 0.0234048 -3.19948e-20)
(0.465635 0.0147909 0)
(0.495549 0.0169414 1.67699e-23)
(0.0585133 -0.00085108 -1.60669e-22)
(0.26846 0.00406674 -2.10004e-22)
(0.139581 0.00727412 6.83023e-22)
(0.159422 0.00394914 -1.74418e-22)
(0.0578612 0.000226686 -1.00157e-22)
(1.00013 0.0140754 2.10496e-24)
(1.0174 0.0483903 3.75163e-20)
(1.04995 0.0957697 1.24775e-20)
(1.12559 0.187463 0)
(1.27046 0.215172 -4.59318e-24)
(1.37104 0.180109 2.07208e-21)
(1.32189 0.130054 -2.58474e-20)
(1.06869 0.0680001 2.89142e-20)
(0.701436 0.0202534 -4.00573e-21)
(0.451882 0.00916331 4.53994e-22)
(0.447471 0.00341684 -4.56987e-22)
(0.25406 0.00304641 -4.26574e-22)
(0.121422 -0.00124421 -6.3068e-22)
(0.119395 0.00210404 1.08668e-21)
(0.0413731 0.000821179 1.5507e-24)
(0.0497267 0.000177881 -1.53605e-24)
(1.00023 0.0119274 0)
(1.01855 0.0406572 -1.75207e-20)
(1.05438 0.0823244 -1.22752e-20)
(1.12631 0.155722 1.24894e-22)
(1.25243 0.18551 0)
(1.35508 0.165922 2.2792e-20)
(1.37465 0.137394 0)
(1.2684 0.0988141 -6.18597e-24)
(1.00657 0.0524496 2.92842e-20)
(0.671948 0.021346 4.02325e-21)
(0.454279 0.00975829 6.93596e-21)
(0.455696 0.00651482 0)
(0.270452 0.00287556 -5.97511e-21)
(0.251695 -0.00057991 -3.24914e-24)
(0.114332 0.00192521 2.9715e-22)
(0.115655 -0.000750268 6.02397e-22)
(0.035523 -0.00050596 8.99262e-23)
(0.0361658 0.000261404 -1.74615e-22)
(1.00028 0.0096439 0)
(1.01959 0.0325339 1.38466e-24)
(1.0576 0.0686827 0)
(1.12694 0.1273 -1.39038e-22)
(1.23865 0.157961 5.45635e-24)
(1.33474 0.149702 0)
(1.37751 0.134223 -5.74438e-24)
(1.35498 0.113867 0)
(1.21953 0.0818384 -2.61597e-20)
(0.957263 0.0469523 0)
(0.64045 0.0212427 1.71946e-20)
(0.438085 0.00835336 -4.41799e-22)
(0.444604 0.00832091 -6.46475e-21)
(0.295767 0.00364637 -1.07653e-21)
(0.292725 0.00182964 -3.51752e-22)
(0.15136 0.00413811 1.73853e-20)
(0.13163 -0.00160173 0)
(0.113349 -0.00159758 0)
(0.120344 0.000348452 -2.31062e-21)
(0.0346238 0.000271438 -1.67456e-22)
(0.0352499 -0.000242549 0)
(1.00029 0.00723892 0)
(1.0206 0.0240796 0)
(1.06005 0.0548808 -6.92244e-21)
(1.12771 0.101235 0)
(1.22884 0.13218 0)
(1.31734 0.133474 -4.1148e-20)
(1.36484 0.126974 0)
(1.37719 0.118012 2.3706e-20)
(1.32936 0.10054 0)
(1.17386 0.0736355 2.58952e-20)
(0.914755 0.0440486 0)
(0.345749 0.00542847 -2.09894e-20)
(0.612432 0.0208337 -1.6864e-20)
(0.285056 0.00205737 -1.0986e-21)
(0.291804 0.00361874 -3.60104e-22)
(0.180929 0.0017714 0)
(0.180543 0.000956922 3.25736e-21)
(0.172024 -0.00030022 1.98001e-24)
(0.178928 0.00104074 -1.28089e-22)
(0.0673804 0.00385788 -1.67497e-20)
(0.0446526 -0.000524139 1.62821e-21)
(0.0347013 -0.000377413 0)
(0.0386521 -7.45738e-05 7.01379e-24)
(1.00025 0.00471678 4.07827e-25)
(1.02167 0.0153225 0)
(1.06206 0.0409486 6.69255e-21)
(1.12893 0.0767287 0)
(1.22267 0.107755 2.35135e-20)
(1.30437 0.117552 4.1587e-20)
(1.35073 0.118485 -4.67651e-20)
(1.37327 0.116647 -7.19875e-20)
(1.3685 0.109188 0)
(1.29952 0.0936598 -2.43946e-20)
(1.13154 0.0692448 0)
(0.877762 0.0426988 2.82602e-20)
(0.32753 0.00519184 1.9151e-20)
(0.127117 0.00189901 3.24433e-21)
(0.129628 -0.000680715 -9.57125e-22)
(0.593797 0.0225008 -3.26384e-20)
(0.171677 0.000454872 1.08815e-21)
(0.173571 0.00116359 5.32999e-22)
(0.178563 0.00113774 -1.31342e-22)
(0.177513 0.00172103 1.19049e-21)
(0.104485 0.00051663 0)
(0.104669 0.000319729 -8.96351e-22)
(0.0978462 -0.000295219 3.41196e-21)
(0.102978 0.000269908 -8.76124e-22)
(0.0186932 0.00102313 4.53113e-21)
(1.00019 0.00207002 0)
(1.02287 0.00627092 -1.23692e-20)
(1.06379 0.026888 -4.84977e-21)
(1.13088 0.0530465 -3.34493e-24)
(1.22 0.0843239 -2.24473e-20)
(1.29592 0.102013 -1.03931e-23)
(1.33947 0.109748 4.62841e-20)
(1.36278 0.113108 1.21938e-22)
(1.37319 0.111709 0)
(1.35312 0.104931 0)
(1.26789 0.0899088 0)
(1.09299 0.0668439 -2.49483e-20)
(0.846739 0.0430839 2.76914e-20)
(0.33173 0.00677084 -1.78643e-23)
(0.122701 0.00169469 0)
(0.121231 -0.000520534 -1.08035e-22)
(0.0290597 0.000423323 1.66526e-22)
(0.0292764 3.18261e-05 0)
(0.0298354 8.29272e-05 8.37675e-23)
(0.0299149 -0.00050403 0)
(0.0987682 -0.000405596 0)
(0.576422 0.0214239 -1.62895e-20)
(0.100773 0.000638799 -4.5578e-22)
(0.103127 0.000370848 2.25359e-22)
(0.102377 0.00052915 0)
(0.0331624 2.37406e-05 0)
(0.0333747 9.47926e-06 0)
(0.0314944 -0.00057271 -2.31724e-21)
(0.0327758 -8.39788e-05 5.88318e-22)
(1.0001 -0.000718693 2.75809e-20)
(1.02429 -0.0030626 2.41645e-20)
(1.06535 0.0126614 4.69707e-21)
(1.13381 0.0294416 -3.38649e-24)
(1.22088 0.0615288 1.0548e-23)
(1.29198 0.0869031 -1.73386e-23)
(1.33202 0.101177 4.51155e-20)
(1.35312 0.108958 4.71696e-20)
(1.36619 0.111493 -4.8138e-20)
(1.36634 0.109954 0)
(1.33353 0.102935 2.78194e-24)
(1.23657 0.0875988 2.77897e-24)
(1.05846 0.0657677 0)
(0.818783 0.0411416 3.382e-24)
(0.330087 0.0075151 1.34338e-20)
(0.158739 0.000914761 -3.89053e-22)
(0.137387 0.00103989 7.0755e-21)
(0.0295217 0.000432499 -1.45912e-21)
(0.027539 -0.000131299 8.52769e-23)
(0.0278592 2.38389e-05 -8.25622e-23)
(0.0278327 -0.00039271 8.27315e-23)
(0.0310731 -0.000282427 -1.91297e-23)
(0.554135 0.0203855 -1.59268e-20)
(0.0319854 6.83953e-05 1.89518e-23)
(0.0327353 9.28495e-06 -1.60293e-22)
(0.0325089 3.71196e-05 9.48706e-24)
(1.00004 -0.00367352 -2.71607e-20)
(1.02596 -0.0126535 -3.5941e-20)
(1.06669 -0.00181285 0)
(1.13795 0.00518316 0)
(1.22548 0.0390344 -3.97256e-24)
(1.29262 0.072262 3.76068e-20)
(1.32864 0.0929716 -4.40193e-20)
(1.34642 0.104839 0)
(1.35769 0.1104 4.7535e-20)
(1.36314 0.111866 2.85804e-24)
(1.35485 0.10975 0)
(1.31216 0.101736 -2.24541e-20)
(1.20675 0.0860596 -2.80005e-24)
(1.02696 0.0632383 2.39352e-20)
(0.790283 0.0391687 0)
(0.314849 0.00706849 1.99712e-20)
(0.156512 0.00302363 0)
(0.159579 0.00115206 7.13557e-21)
(0.0770587 0.00025988 0)
(0.0720201 0.000125199 5.77835e-23)
(0.0494249 0.00290905 -5.93483e-21)
(0.0334384 -0.00059667 1.69166e-21)
(0.531689 0.0193057 0)
(1.00005 -0.00681726 0)
(1.02788 -0.0224346 2.35603e-20)
(1.06762 -0.0166665 0)
(1.14353 -0.0204827 0)
(1.23409 0.016546 -7.28007e-24)
(1.29801 0.0581511 -7.40527e-20)
(1.32949 0.085265 4.42928e-20)
(1.34328 0.101036 -1.13541e-23)
(1.35121 0.109231 0)
(1.35594 0.11267 5.77111e-24)
(1.35561 0.113105 -2.85279e-24)
(1.34105 0.109845 2.22662e-20)
(1.29051 0.100736 0)
(1.17853 0.0834996 -2.20202e-20)
(0.996464 0.0605222 -2.33487e-20)
(0.762899 0.0373739 0)
(0.298802 0.00630483 -8.39094e-24)
(0.146196 0.00279284 -2.98862e-21)
(0.149978 0.000716689 -3.95952e-22)
(0.0734639 0.00103174 1.2378e-22)
(0.0747993 0.000425092 2.4813e-22)
(0.0766579 0.000624059 -2.45628e-22)
(0.0769456 0.00014272 -9.75005e-22)
(0.0243536 -4.3731e-05 0)
(0.0231253 -0.000500003 0)
(0.0136911 0.00082945 0)
(0.51243 0.0181024 0)
(1.00019 -0.0101517 -2.93914e-20)
(1.02994 -0.0322889 -2.54198e-20)
(1.06778 -0.0321227 7.51692e-21)
(1.15093 -0.048414 -9.34362e-21)
(1.24725 -0.00622081 2.40118e-20)
(1.30847 0.0446526 3.64451e-20)
(1.3348 0.0782001 -4.31715e-20)
(1.34399 0.097731 1.09555e-23)
(1.34789 0.10834 1.13571e-23)
(1.3497 0.113312 0)
(1.34986 0.115068 -2.74588e-24)
(1.34586 0.114221 -4.4501e-20)
(1.32635 0.109705 4.29561e-20)
(1.26905 0.0987908 2.10143e-20)
(1.15102 0.0805768 4.27636e-20)
(0.967479 0.058026 0)
(0.738478 0.035558 2.54146e-20)
(0.285845 0.00574922 4.30059e-21)
(0.137441 0.00249293 0)
(0.140363 0.000385295 1.96909e-22)
(0.0679032 0.000949051 0)
(0.0689969 0.00026087 1.21717e-22)
(0.0704797 0.000557393 0)
(0.0712297 -6.18056e-05 -2.45075e-22)
(0.0229406 0.000115152 -7.16236e-23)
(0.0236294 -5.9326e-06 -1.07417e-22)
(0.0243378 7.53637e-05 1.07518e-22)
(0.0245312 -3.91329e-06 0)
(0.499298 0.0180716 -2.9375e-20)
(1.00055 -0.0136393 2.89393e-20)
(1.0318 -0.0420603 2.48374e-20)
(1.06677 -0.0485934 9.14804e-22)
(1.16091 -0.0796447 8.88026e-21)
(1.26597 -0.0295235 -7.36187e-20)
(1.32464 0.0318566 0)
(1.34498 0.0719281 9.46185e-25)
(1.34886 0.0950893 0)
(1.3482 0.10793 4.69648e-20)
(1.34619 0.114211 4.67172e-20)
(1.34393 0.116731 0)
(1.34172 0.116916 4.40966e-20)
(1.33521 0.114784 -8.55025e-20)
(1.31122 0.108601 -2.06946e-20)
(1.24751 0.0962689 -2.03541e-20)
(1.12452 0.0777598 0)
(0.940948 0.0556039 -2.21642e-20)
(0.718002 0.0345841 2.47671e-20)
(0.282748 0.00608989 0)
(0.131061 0.00241144 -6.24022e-21)
(0.132679 0.000279478 0)
(0.063574 0.000855443 0)
(0.0644045 0.000182894 -1.20455e-22)
(0.0655488 0.000475975 -1.20737e-22)
(0.0660928 -0.000165535 0)
(0.0210822 0.000105085 0)
(0.0216459 -3.08578e-05 7.06611e-23)
(0.0221686 7.83835e-05 0)
(0.0222987 -4.05048e-05 1.42001e-22)
(0.490012 0.0172905 2.86693e-20)
(1.00113 -0.0171861 -3.27282e-20)
(1.03294 -0.0516046 -2.84811e-20)
(1.06439 -0.0667711 -7.93981e-21)
(1.17492 -0.115432 6.55808e-21)
(1.29181 -0.0535552 -6.26048e-21)
(1.34756 0.0198912 -8.23348e-20)
(1.36073 0.0666221 -4.5381e-20)
(1.3584 0.0932813 -1.10171e-23)
(1.35258 0.108166 -4.61313e-20)
(1.34616 0.115573 -4.60926e-20)
(1.34031 0.118592 1.08399e-23)
(1.3362 0.119138 -4.39336e-20)
(1.33285 0.117942 -5.58821e-23)
(1.32413 0.114364 -2.55437e-24)
(1.29561 0.10676 0)
(1.22623 0.0936342 0)
(1.09966 0.074985 0)
(0.917207 0.0536813 0)
(0.700605 0.033071 2.41253e-20)
(0.286963 0.00605918 -3.1426e-20)
(0.138963 0.00311303 3.73398e-22)
(0.13083 -0.00016367 2.68982e-21)
(0.0603219 0.00080583 -4.72681e-22)
(0.0606578 0.000162862 0)
(0.0616325 0.000456341 0)
(0.0620382 -0.000165984 -1.18166e-22)
(0.0196994 9.55779e-05 0)
(0.0201512 -3.67885e-05 0)
(0.0205502 7.3786e-05 3.49141e-23)
(0.0205935 -5.17119e-05 -3.46993e-23)
(0.478492 0.0166039 2.80357e-20)
(1.00187 -0.0206555 3.22057e-20)
(1.03277 -0.0608596 -2.79159e-21)
(1.06102 -0.0876116 1.3433e-24)
(1.19498 -0.157142 -6.17365e-21)
(1.32644 -0.0783474 5.18198e-20)
(1.37814 0.00898435 -7.4113e-21)
(1.38272 0.0624992 4.40198e-20)
(1.37322 0.0925051 3.34914e-23)
(1.36154 0.109213 -4.68315e-20)
(1.35014 0.117543 4.62683e-20)
(1.34005 0.120881 4.51008e-20)
(1.33254 0.121474 8.71207e-20)
(1.32787 0.120457 4.2067e-20)
(1.3237 0.117943 4.06422e-20)
(1.3126 0.113126 -4.70578e-24)
(1.27981 0.104599 0)
(1.20574 0.0909157 0)
(1.07667 0.072455 0)
(0.895949 0.0514446 -4.19794e-20)
(0.683507 0.0314717 -2.3599e-20)
(0.28192 0.00629317 -7.45926e-24)
(0.153934 0.00281919 0)
(0.150693 0.00070386 -2.77069e-21)
(0.0765703 0.00264968 -7.30252e-21)
(0.0673033 -0.000257394 0)
(0.0626345 0.000206278 -7.60281e-21)
(0.0600602 -0.000466197 0)
(0.0185859 8.38616e-05 2.73159e-22)
(0.0189212 -3.68384e-05 0)
(0.0192763 7.43213e-05 -3.42886e-23)
(0.0192953 -4.6871e-05 1.0247e-22)
(0.465146 0.0158982 -6.53943e-24)
(1.00262 -0.0238795 0)
(1.03086 -0.0698705 3.01533e-20)
(1.05769 -0.112089 2.31251e-24)
(1.22237 -0.205909 -1.11841e-24)
(1.36986 -0.103689 6.70486e-20)
(1.4155 -0.00039955 8.32953e-20)
(1.4103 0.0598801 0)
(1.39316 0.0930112 2.25366e-23)
(1.37529 0.111263 9.26846e-20)
(1.35852 0.120262 -4.55018e-20)
(1.34375 0.123735 -4.45251e-20)
(1.33215 0.124192 -4.31442e-20)
(1.32428 0.122997 -4.1759e-20)
(1.31943 0.120675 -4.02899e-20)
(1.31434 0.117081 0)
(1.30085 0.111428 4.68888e-24)
(1.26426 0.102215 0)
(1.18632 0.0882324 0)
(1.05551 0.0697326 7.47398e-23)
(0.87591 0.0491063 0)
(0.666375 0.0300442 0)
(0.272606 0.00610321 7.593e-24)
(0.149793 0.00311056 9.50425e-24)
(0.152018 0.00118412 -1.38501e-21)
(0.0923526 0.00130145 0)
(0.0921028 0.000633681 1.09793e-22)
(0.0907155 0.000550501 -1.07469e-22)
(0.0870985 -0.000159119 3.41512e-21)
(0.0334254 0.00231026 4.68494e-21)
(0.0226173 -0.000214302 0)
(0.0202247 -7.78565e-05 2.22667e-21)
(0.0186367 -0.000126184 1.3759e-22)
(0.451997 0.0151213 -1.32875e-20)
(1.00316 -0.026655 -1.54729e-22)
(1.02703 -0.0786628 0)
(1.0551 -0.140971 1.81092e-20)
(1.25525 -0.262573 2.13162e-21)
(1.41724 -0.128353 -6.38025e-20)
(1.4536 -0.00752132 -2.03129e-23)
(1.43853 0.0592415 9.74635e-20)
(1.41518 0.0950969 -2.25079e-23)
(1.3924 0.114527 -1.39704e-19)
(1.37087 0.123883 4.58707e-20)
(1.35154 0.127275 -2.20584e-23)
(1.33563 0.127437 4.18019e-23)
(1.32383 0.125873 4.12952e-20)
(1.31603 0.123313 -3.98647e-20)
(1.31099 0.119991 0)
(1.30491 0.115678 0)
(1.2892 0.10941 -3.58695e-20)
(1.24923 0.0997036 0)
(1.16803 0.0853774 1.76995e-20)
(1.03562 0.0669252 1.82808e-20)
(0.856735 0.0469811 0)
(0.650113 0.0287094 0)
(0.263184 0.00563373 1.3012e-20)
(0.143873 0.00274281 0)
(0.145812 0.0010438 -3.49145e-22)
(0.088654 0.00139866 4.36057e-22)
(0.0897099 0.000782726 4.37839e-22)
(0.0909022 0.000917008 4.37341e-22)
(0.0914101 0.000314408 8.73704e-22)
(0.0524357 0.00037382 -9.13309e-23)
(0.0526718 0.00020404 2.82315e-22)
(0.0515652 0.000155202 0)
(0.0488759 -3.48359e-05 2.23766e-23)
(0.00922325 0.000616577 -4.92911e-22)
(0.440198 0.0144025 0)
(1.00335 -0.0287141 -4.37101e-20)
(1.02103 -0.0867432 1.46214e-22)
(1.05159 -0.174549 -1.74323e-20)
(1.28585 -0.327368 -1.98236e-21)
(1.45478 -0.148336 -1.7459e-23)
(1.47683 -0.0111319 -2.41973e-23)
(1.45396 0.0611461 5.84696e-21)
(1.42977 0.0989941 2.2807e-23)
(1.40703 0.119138 9.22693e-20)
(1.38416 0.128518 -1.36578e-19)
(1.36215 0.131605 0)
(1.34275 0.131314 4.2426e-20)
(1.32709 0.129244 -9.3757e-25)
(1.31558 0.126226 7.88422e-20)
(1.30793 0.12268 9.48814e-24)
(1.30267 0.11871 8.75425e-24)
(1.29564 0.113897 3.54306e-20)
(1.27784 0.107163 -4.1132e-24)
(1.23482 0.0969921 -3.37573e-20)
(1.15066 0.0824272 -1.70752e-20)
(1.01676 0.0643066 0)
(0.838809 0.0450417 0)
(0.635416 0.027489 0)
(0.254776 0.00524636 7.27255e-24)
(0.137799 0.00277362 0)
(0.140279 0.000745558 3.06268e-21)
(0.0843553 0.000377015 0)
(0.085399 0.000446748 0)
(0.0863831 0.000805098 0)
(0.0871654 0.000261103 8.62818e-22)
(0.0500117 0.000404287 0)
(0.0509488 0.000279816 -2.81612e-22)
(0.0517018 0.00028125 0)
(0.0519342 0.000143822 1.85428e-22)
(0.0163295 2.31244e-05 1.28474e-22)
(0.0165666 2.40766e-06 -2.23365e-22)
(0.0161674 -6.00022e-05 -3.12299e-23)
(0.0155648 -0.000333512 9.76343e-22)
(0.430594 0.0137777 1.25308e-20)
(1.00327 -0.0297011 9.0347e-20)
(1.01207 -0.0924054 -1.60963e-22)
(1.04136 -0.210646 0)
(1.29729 -0.395999 -4.87778e-22)
(1.45677 -0.15803 0)
(1.4556 -0.00890362 -2.95814e-23)
(1.43076 0.0659318 -1.02058e-19)
(1.41714 0.104553 0)
(1.40546 0.12487 -2.36422e-23)
(1.38976 0.134046 9.05069e-20)
(1.37079 0.136711 -4.14885e-23)
(1.35122 0.135872 -4.18596e-20)
(1.33334 0.133197 0)
(1.31857 0.129591 -7.04407e-23)
(1.30753 0.125572 -9.37241e-24)
(1.30008 0.121405 3.60867e-20)
(1.29463 0.11702 -8.70521e-24)
(1.28666 0.111839 3.36564e-20)
(1.26686 0.104689 3.29466e-20)
(1.22096 0.0941559 0)
(1.1341 0.0796076 0)
(0.999133 0.061908 0)
(0.822452 0.0432883 0)
(0.62276 0.0264406 0)
(0.248236 0.00497485 -1.42132e-20)
(0.132667 0.00258285 0)
(0.13454 0.000730507 1.50583e-21)
(0.0627668 0.000518637 2.33219e-22)
(0.0642193 3.29648e-05 -2.25226e-22)
(0.0477335 -0.000456162 -9.46616e-23)
(0.0487225 3.99385e-05 -1.31111e-25)
(0.048921 0.000216232 9.25146e-23)
(0.0492446 0.000125624 -4.63738e-22)
(0.0154534 2.94703e-05 -3.19246e-23)
(0.015861 1.58881e-05 -3.20366e-23)
(0.0161288 1.68301e-05 0)
(0.0161439 -3.70128e-06 -1.28113e-22)
(0.424329 0.0134649 0)
(1.00301 -0.0291966 -4.60981e-20)
(0.999714 -0.0939319 0)
(1.01449 -0.240562 4.00781e-20)
(1.26104 -0.455494 4.7372e-22)
(1.38483 -0.15858 3.02875e-23)
(1.34477 0.00125128 -1.39045e-19)
(1.33084 0.0729154 8.43347e-23)
(1.34668 0.110653 -5.37723e-23)
(1.36426 0.13065 0)
(1.3709 0.139726 9.33448e-20)
(1.36641 0.142191 -4.15016e-23)
(1.3545 0.14095 -8.33383e-20)
(1.33919 0.137709 3.98762e-20)
(1.32369 0.133476 -6.52356e-23)
(1.31017 0.128866 0)
(1.29979 0.124235 -3.57185e-20)
(1.29261 0.119697 3.64786e-25)
(1.28696 0.115033 -3.33226e-20)
(1.27801 0.109548 4.01375e-24)
(1.25621 0.102068 3.13738e-20)
(1.20762 0.0913833 0)
(1.11848 0.0769899 0)
(0.982841 0.0597295 0)
(0.807837 0.0417744 -1.7823e-20)
(0.612504 0.0257443 -2.00017e-20)
(0.246232 0.00478226 3.44385e-21)
(0.129118 0.0024789 3.2856e-21)
(0.130034 0.000631492 -3.6555e-22)
(0.0601229 0.000467174 0)
(0.0612633 0.000143938 -1.29046e-21)
(0.0141321 0.000200331 -3.39701e-23)
(0.0142818 -0.000121628 6.76281e-23)
(0.0143985 -0.000249571 -6.88768e-23)
(0.0145107 0.000152314 -4.91095e-26)
(0.014731 -0.000212654 6.24434e-23)
(0.0151582 -2.88438e-05 3.13679e-23)
(0.0151715 1.39303e-05 -6.28251e-23)
(0.0152082 -5.70973e-06 6.30551e-23)
(0.421112 0.0135752 2.32071e-20)
(1.00207 -0.0270237 0)
(0.985048 -0.0913713 -5.58051e-20)
(0.959062 -0.251266 -6.35168e-20)
(1.1408 -0.499599 -4.81315e-21)
(1.18282 -0.150888 5.0469e-21)
(1.09076 0.0170872 1.59857e-19)
(1.11383 0.0791365 -7.31204e-23)
(1.18482 0.114318 -6.11409e-23)
(1.25436 0.134001 5.01848e-23)
(1.30346 0.143704 -9.62945e-20)
(1.33054 0.14684 -4.22484e-23)
(1.33967 0.145866 8.35049e-20)
(1.33648 0.142458 3.96028e-20)
(1.32642 0.13778 -3.78913e-20)
(1.31389 0.132608 0)
(1.30197 0.127416 1.67513e-23)
(1.29241 0.122444 0)
(1.28554 0.117684 3.2673e-20)
(1.27964 0.112819 0)
(1.26965 0.107108 -3.0868e-20)
(1.24589 0.0994596 -3.74667e-24)
(1.19489 0.0887672 0)
(1.10386 0.0745856 0)
(0.96793 0.0578125 1.59045e-20)
(0.795013 0.0405923 1.72434e-20)
(0.604259 0.0253664 1.93555e-20)
(0.250877 0.00522732 -3.23989e-20)
(0.131292 0.00233 1.12181e-20)
(0.128566 0.000386772 -5.7227e-21)
(0.058166 0.000436944 -2.3731e-21)
(0.058897 0.000130508 -7.47698e-23)
(0.0134794 0.000190432 -3.32615e-23)
(0.0136071 -0.000127029 3.31493e-23)
(0.0138321 -0.000176454 6.7094e-23)
(0.0138391 0.000151986 0)
(0.417311 0.0133267 0)
(1.00055 -0.0231021 0)
(0.967592 -0.0821778 -5.14606e-21)
(0.944944 -0.184519 2.01259e-20)
(0.921546 -0.184796 2.32441e-20)
(0.971982 -0.576036 8.34171e-21)
(0.867059 -0.56481 1.82355e-20)
(0.871648 -0.310404 2.48031e-20)
(1.07558 -0.205485 1.45965e-19)
(0.913281 -0.48374 8.57337e-23)
(0.790534 -0.138951 -9.07573e-20)
(0.658907 0.0327837 0)
(0.636818 0.00927648 -7.03205e-20)
(0.764971 0.0801048 1.58691e-22)
(0.916219 0.110315 1.32436e-22)
(1.05519 0.130829 -5.66874e-23)
(1.16424 0.142749 -3.93121e-24)
(1.24082 0.148288 4.43067e-23)
(1.28785 0.149041 -8.56737e-20)
(1.31103 0.146508 -5.25648e-23)
(1.31721 0.142021 0)
(1.31304 0.136612 3.59003e-20)
(1.30398 0.130965 0)
(1.29398 0.125487 -1.66616e-23)
(1.28539 0.120342 -3.23086e-20)
(1.27885 0.115457 3.11083e-20)
(1.27264 0.110468 -7.24448e-24)
(1.26155 0.104653 2.93176e-20)
(1.23596 0.0969614 0)
(1.18283 0.0863334 0)
(1.09025 0.0724301 0)
(0.954371 0.0562007 -1.527e-20)
(0.783706 0.0396703 -1.66735e-20)
(0.596368 0.0247354 0)
(0.252044 0.0054437 0)
(0.144387 0.00229813 0)
(0.138179 0.00157963 1.05382e-20)
(0.0607811 7.26705e-05 -1.4289e-20)
(0.0578792 1.27973e-06 0)
(0.0129308 0.000178089 -3.26694e-23)
(0.0130199 -0.000125088 -2.86463e-25)
(0.0132128 -0.000171198 6.57405e-23)
(0.0132325 0.00014834 3.25997e-23)
(0.411116 0.0131575 0)
(0.998869 -0.0174704 -4.94648e-22)
(0.952884 -0.065839 6.25568e-20)
(0.896795 -0.170338 -2.32329e-20)
(0.874465 -0.153821 -2.83397e-20)
(0.829365 -0.285808 4.49896e-22)
(0.766215 -0.549789 -2.78308e-20)
(0.654846 -0.511969 -5.49836e-22)
(0.835706 -0.617211 7.0035e-22)
(0.594755 -0.190081 2.5471e-20)
(0.263433 -0.101816 -2.07749e-21)
(0.450015 -0.268289 3.59551e-21)
(0.221691 -0.00736804 -4.17463e-21)
(0.276149 0.0265504 -3.34537e-20)
(0.476907 0.0147486 3.77303e-20)
(0.302642 0.0547871 1.13949e-19)
(0.346197 0.0718572 5.26702e-20)
(0.200305 0.0114744 -1.10218e-19)
(0.279049 0.0121955 -1.03978e-22)
(0.575684 0.0930296 -1.90668e-22)
(0.777367 0.116373 -1.49015e-22)
(0.947271 0.132847 6.13221e-23)
(1.08182 0.143169 -1.00615e-22)
(1.18007 0.147858 9.05203e-20)
(1.24465 0.148018 -8.21858e-20)
(1.28121 0.145047 0)
(1.29694 0.140248 -3.59515e-20)
(1.29911 0.13461 -8.19474e-25)
(1.29395 0.12881 0)
(1.28616 0.123237 0)
(1.27868 0.118034 -3.08015e-20)
(1.27247 0.113109 0)
(1.2659 0.108097 -2.89622e-20)
(1.25376 0.10228 3.49956e-24)
(1.22648 0.0946129 0)
(1.17145 0.0841189 3.29811e-24)
(1.07762 0.0705511 -1.394e-20)
(0.942 0.0548339 0)
(0.773129 0.0386748 0)
(0.587611 0.0242215 0)
(0.248083 0.00546743 0)
(0.145211 0.00298756 2.57969e-21)
(0.145594 0.0012316 0)
(0.080509 0.00058571 2.17293e-21)
(0.0724539 0.000677677 6.72938e-23)
(0.0154953 0.000514372 5.08941e-21)
(0.0136918 -0.000323427 -7.0922e-23)
(0.0126956 -0.000198315 -3.23723e-23)
(0.0129762 0.000119473 9.85213e-23)
(0.403591 0.012961 0)
(0.997181 -0.0104943 6.02471e-20)
(0.942924 -0.0429019 5.07484e-22)
(0.854513 -0.129292 2.86761e-20)
(0.838587 -0.102359 5.9764e-22)
(0.777759 -0.268135 -3.39162e-20)
(0.728154 -0.237206 7.12515e-20)
(0.694982 -0.449288 4.10519e-23)
(0.742626 -0.462894 8.88082e-21)
(0.470949 -0.457525 -1.06657e-21)
(0.529307 -0.451861 4.96925e-23)
(0.617791 -0.58 9.30866e-21)
(0.281843 -0.249595 0)
(0.0710734 0.0213207 -2.17887e-20)
(0.12297 0.0116558 9.08899e-23)
(0.0637113 0.0248916 -9.97291e-20)
(0.119579 0.0474875 9.92033e-20)
(0.262993 0.0604411 0)
(0.129468 0.0269563 -9.42582e-20)
(0.0475618 0.00068692 8.7757e-20)
(0.477537 0.0881279 0)
(0.67958 0.111119 0)
(0.859545 0.128322 0)
(1.00865 0.139238 1.45031e-22)
(1.12256 0.144359 -4.14598e-23)
(1.20177 0.144877 0)
(1.25066 0.142197 0)
(1.27585 0.137582 3.42271e-23)
(1.28465 0.132052 -1.62659e-23)
(1.28375 0.126314 -3.11235e-20)
(1.27844 0.120783 0)
(1.2722 0.115618 0)
(1.26635 0.110744 -6.80246e-24)
(1.25944 0.105794 -6.61483e-24)
(1.24628 0.100034 0)
(1.21744 0.0924529 0)
(1.16073 0.0821479 2.64765e-20)
(1.06587 0.0689094 0)
(0.93043 0.0535259 0)
(0.762547 0.0378164 0)
(0.578232 0.0238228 -1.77514e-20)
(0.242415 0.00527904 1.50709e-21)
(0.141873 0.00291445 2.52291e-21)
(0.143437 0.00138667 0)
(0.080644 0.00091472 -2.41431e-21)
(0.0813255 0.000491164 -3.04225e-22)
(0.0381336 0.000332732 0)
(0.0372386 -1.14716e-05 -1.43598e-21)
(0.0237676 0.00164002 -1.72671e-20)
(0.0349268 0.000150238 0)
(0.395671 0.0127658 1.03772e-20)
(0.995734 -0.00286524 -1.20929e-19)
(0.933935 -0.0146097 -2.97762e-21)
(0.827114 -0.0750189 0)
(0.819818 -0.0539266 -4.22133e-20)
(0.688744 -0.188754 -3.92734e-20)
(0.660303 -0.130902 -6.26563e-22)
(0.637842 -0.424752 -1.16672e-20)
(0.581685 -0.39571 1.0366e-20)
(0.488981 -0.320061 1.3866e-20)
(0.530708 -0.359799 -1.2527e-20)
(0.543729 -0.571126 -2.47839e-22)
(0.412742 -0.452921 1.23478e-21)
(0.0201937 0.00685179 -4.75791e-20)
(-0.00224962 0.0102467 1.46968e-21)
(0.00616201 -0.00328115 -1.78364e-21)
(0.0197855 0.0148552 -5.81276e-20)
(0.0725654 0.0217498 -1.30115e-22)
(0.231944 0.0506889 0)
(0.0461826 0.013739 1.80975e-20)
(-0.000288137 -0.00934794 -5.61428e-20)
(0.00795942 0.000365609 2.46517e-20)
(0.416664 0.0789005 0)
(0.607786 0.102989 1.32122e-22)
(0.787754 0.121152 1.08502e-22)
(0.943794 0.132978 -5.21225e-23)
(1.06846 0.13904 4.25829e-23)
(1.15962 0.140442 -7.56317e-20)
(1.21967 0.138449 0)
(1.25406 0.134328 3.11081e-23)
(1.26968 0.129126 6.19772e-20)
(1.27333 0.123604 0)
(1.27073 0.118224 0)
(1.26587 0.11319 0)
(1.26046 0.108446 6.74978e-24)
(1.25324 0.103611 2.3471e-25)
(1.23913 0.0979566 0)
(1.20885 0.090507 0)
(1.15065 0.0804031 0)
(1.05483 0.0674066 0)
(0.91924 0.0523905 0)
(0.751912 0.0371544 3.32841e-23)
(0.568713 0.023495 -8.60845e-21)
(0.236457 0.00514583 1.46718e-21)
(0.137862 0.0027452 -2.4671e-21)
(0.139575 0.00125109 0)
(0.0782344 0.000848442 -2.37279e-21)
(0.0794762 0.000531985 0)
(0.0372603 0.000443556 0)
(0.0376016 -4.98995e-06 3.63126e-22)
(0.037959 -0.000110172 7.28031e-22)
(0.0380228 0.000350682 -3.64061e-22)
(0.0117653 4.79171e-05 -2.72616e-23)
(0.0115649 -6.66112e-05 -8.63322e-22)
(0.00651507 0.000455997 6.79153e-21)
(0.0111129 -0.000254672 0)
(0.387797 0.0126339 0)
(0.994576 0.00470903 6.0564e-20)
(0.935554 0.0172281 -7.63e-20)
(0.751573 0.0596784 3.46258e-20)
(0.640637 -0.0633196 0)
(0.635942 0.0197019 0)
(0.455562 -0.270974 0)
(0.42704 -0.217516 1.80936e-20)
(0.384168 -0.103613 0)
(0.403281 -0.161188 -1.82269e-20)
(0.404931 -0.50297 2.18926e-20)
(0.317331 -0.405994 -1.89562e-20)
(0.208288 -0.330169 -1.81716e-20)
(0.262909 -0.376482 -4.06819e-22)
(0.341409 -0.445972 1.14768e-21)
(-0.0105258 0.00441337 -2.63804e-20)
(0.00214001 0.000172652 0)
(0.00695737 0.00910735 7.64226e-23)
(0.0733715 0.0181649 -5.59606e-20)
(0.0148654 0.000449861 1.87386e-20)
(0.206951 0.0438701 2.116e-19)
(0.0161158 0.00250362 -9.01977e-23)
(0.0118099 0.00690985 1.59772e-22)
(-0.00726198 -0.00232638 1.33701e-20)
(0.000355218 -0.000243738 9.51023e-22)
(0.372961 0.0708393 0)
(0.551921 0.0945028 -1.38366e-22)
(0.72738 0.112944 1.11555e-19)
(0.885749 0.125607 -2.79637e-24)
(1.01758 0.132781 8.19606e-20)
(1.11838 0.135235 1.8619e-24)
(1.18843 0.134134 0)
(1.23166 0.130691 -3.13154e-20)
(1.25416 0.125971 0)
(1.2626 0.120783 0)
(1.26296 0.115654 -2.73698e-20)
(1.25964 0.11083 0)
(1.25476 0.106266 6.2219e-24)
(1.2473 0.101587 6.28255e-24)
(1.2323 0.0960747 0)
(1.20069 0.0887759 -2.43342e-20)
(1.14111 0.0788392 0)
(1.04426 0.0661081 0)
(0.908315 0.0514998 3.00824e-23)
(0.74142 0.0366489 0)
(0.559352 0.0232642 0)
(0.23056 0.00509222 0)
(0.133858 0.00267598 -2.40584e-21)
(0.135561 0.00119677 0)
(0.0757196 0.000773859 -3.88694e-22)
(0.076918 0.000461742 2.57931e-22)
(0.0358412 0.000420605 0)
(0.036191 -2.3731e-05 4.45005e-22)
(0.0367563 -0.000103359 -8.94886e-23)
(0.0366214 0.000342609 7.77115e-25)
(0.0114196 5.81481e-05 0)
(0.0116009 -2.48553e-05 0)
(0.0117072 -3.93468e-05 2.75563e-23)
(0.0117375 4.87369e-05 0)
(0.380297 0.0125751 0)
(0.99379 0.0117655 0)
(0.942069 0.0446596 3.37297e-21)
(0.80287 0.132236 9.27118e-22)
(0.383768 0.259577 -1.97178e-20)
(0.506755 0.347665 -2.10074e-21)
(0.371788 -0.0444751 0)
(0.37091 0.0126692 0)
(0.413547 0.124799 1.87548e-21)
(0.383638 0.0710884 0)
(0.166244 -0.27051 -1.60804e-21)
(0.135 -0.203794 -1.62043e-21)
(0.0983755 -0.0685529 -2.61417e-20)
(0.112671 -0.135916 2.48754e-20)
(0.155817 -0.267712 -1.30123e-21)
(-0.00941086 -0.000847725 -1.53776e-20)
(-0.00287398 -0.0018436 0)
(0.00329386 7.30597e-05 -1.51209e-22)
(-0.00120343 0.00245091 1.33688e-20)
(-4.3094e-06 2.26117e-05 -1.46696e-20)
(0.0165137 0.00816263 -1.62315e-20)
(0.0672804 0.0157446 -2.11795e-19)
(0.0178083 0.000153481 8.62508e-20)
(0.000995765 0.000255761 -1.31878e-20)
(0.00262842 -0.00190742 -2.06451e-20)
(0.187223 0.0391063 0)
(0.000880045 -0.00110549 -1.67511e-20)
(0.338453 0.0637468 0)
(0.505814 0.0862021 -2.64187e-19)
(0.675102 0.104546 5.15685e-23)
(0.83315 0.117909 9.144e-20)
(0.969575 0.126069 0)
(1.07812 0.129604 3.53153e-23)
(1.15707 0.12948 0)
(1.20871 0.126824 -5.85291e-23)
(1.23809 0.122694 0)
(1.25151 0.117943 2.18132e-22)
(1.25504 0.113146 0)
(1.25346 0.108588 1.22455e-23)
(1.24922 0.104244 -2.47689e-20)
(1.24158 0.0997511 -5.81671e-24)
(1.22577 0.0943999 2.37855e-20)
(1.19292 0.0872446 0)
(1.13197 0.0774983 -2.35193e-20)
(1.03405 0.0650802 2.42347e-20)
(0.89771 0.0508335 0)
(0.731227 0.0363009 0)
(0.550432 0.0231511 0)
(0.22491 0.00507805 0)
(0.129931 0.00264513 0)
(0.131594 0.00119881 -1.18484e-21)
(0.0732926 0.000752108 1.2629e-22)
(0.0744589 0.000443765 1.26768e-22)