/*--------------------------------*- C++ -*----------------------------------*\
| =========                 |                                                 |
| \\      /  F ield         | OpenFOAM: The Open Source CFD Toolbox           |
|  \\    /   O peration     | Version:  v1912                                 |
|   \\  /    A nd           | Website:  www.openfoam.com                      |
|    \\/     M anipulation  |                                                 |
\*---------------------------------------------------------------------------*/
FoamFile
{
    version     2.0;
    format      ascii;
    class       surfaceScalarField;
    location    "30";
    object      phi;
}
// * * * * * * * * * * * * * * * * * * * * * * * * * * * * * * * * * * * * * //

dimensions      [0 3 -1 0 0 0 0];
oriented        oriented;


internalField   nonuniform List<scalar> 
7200
(
-7.12066e-05
0.0100459
-0.000158977
0.0100534
4.42905e-05
0.0100219
-0.000253819
0.0100667
5.57968e-05
0.0100423
0.000202256
0.00985062
-0.000357924
0.0100841
4.39031e-05
0.0100792
0.00034448
0.00990041
0.000453631
0.00944579
-0.000472253
0.010103
2.13226e-06
0.0101266
0.00043543
0.00998881
0.000794308
0.00956014
0.000904394
0.00861437
-0.000596172
0.0101211
-7.18521e-05
0.0101776
0.000463236
0.0100994
0.00102771
0.00975593
0.00157142
0.00889353
0.00178436
0.00342344
0.00351144
-0.000729253
0.0101368
-0.000176007
0.0102262
0.00042664
0.0102148
0.00113422
0.00999346
0.00199969
0.00932803
0.00297072
0.00375095
0.00395621
0.000885252
0.00260933
0.00159938
0.00279754
-0.000869237
0.0101498
-0.000307968
0.0102693
0.000331742
0.0103219
0.00112057
0.0102288
0.00216773
0.00982588
0.00368825
0.00861095
0.00222653
0.00312385
0.00272622
0.00345677
0.00132649
0.000675861
0.000696005
0.00241162
0.000928519
0.000784007
-0.00101628
0.0101597
-0.000462112
0.010305
0.000187423
0.010414
0.00100876
0.0104343
0.0021216
0.0102751
0.0038048
0.00970928
-0.00371371
0.00718056
0.00365685
0.00421338
0.00315353
0.0011456
0.00123654
0.00289665
0.000443532
0.000278219
0.000838535
0.000301037
-0.00124302
0.00155623
0.000615387
0.000379538
-0.00116755
0.0101672
-0.00063574
0.0103337
3.85863e-06
0.0104894
0.000821594
0.0106014
0.0019282
0.0106281
0.00356618
0.0105138
0.00661557
0.0102747
0.00581584
-0.00526706
0.00171116
0.00139714
0.00567216
0.00435727
0.00187779
0.000824111
0.0021321
0.000982326
-0.00214182
0.0010568
0.000846799
0.00030378
0.000604857
-0.000984395
0.00159986
-0.0013232
0.0101712
-0.00082316
0.0103558
-0.000210968
0.0105487
0.000579774
0.0107318
0.00163762
0.0108919
0.00315415
0.0110399
0.00566352
0.011465
-0.0054052
0.0100578
0.00531089
0.00598314
-0.0026376
0.00281271
0.00153617
-0.00221492
0.000974504
-0.00212174
0.00213017
0.00175646
0.00177702
0.000647027
0.000617542
-0.00211145
0.000953413
-0.0012646
-0.00148232
0.0101757
-0.00102427
0.0103724
-0.000448248
0.010594
0.000297586
0.0108309
0.00128552
0.0110843
0.00265406
0.0113917
0.00468544
0.0120184
0.00815979
0.0133635
0.00444899
-0.00200574
0.00441278
-0.00154488
0.00448932
0.00594303
-0.00192794
0.00134246
-0.000953413
-0.00167394
0.00179846
-0.00134246
0.00142509
0.000647054
-0.00164508
0.0101775
-0.001233
0.0103856
-0.000704964
0.010629
-1.25149e-05
0.0109048
0.000894664
0.0112214
0.00211385
0.0116243
0.0037846
0.0122914
0.00635965
0.013818
-0.00316832
0.00727586
0.0137458
0.00249488
0.00317201
-0.000542297
-0.000711333
-0.000985095
0.00123878
0.00526969
0.000440011
-0.00180731
0.010178
-0.00144984
0.0103942
-0.000972623
0.0106542
-0.000342687
0.0109589
0.00048129
0.0113186
0.0015594
0.0117754
0.00296197
0.0124475
0.00487747
0.0137742
0.00606202
0.0150325
-0.00190394
0.00444935
0.0124316
-0.00122986
0.00112196
-0.000143136
0.00227146
-7.75915e-05
-0.000967538
0.000425322
-0.000440011
0.00448785
-0.00197491
0.0101801
-0.00167245
0.0104019
-0.00125338
0.0106746
-0.000685427
0.0109977
5.40688e-05
0.0113856
0.00100673
0.011871
0.00219885
0.0125369
0.00368483
0.0136393
0.00478925
0.0150474
0.00440784
0.015075
0.00234871
0.0108029
-0.000239244
-0.000479466
-0.00050782
0.00376618
0.000282219
0.00180027
-9.17457e-06
-2.71352e-05
0.00020465
-0.00214108
0.0101811
-0.00190103
0.0104083
-0.00154027
0.0106899
-0.0010404
0.0110291
-0.000381635
0.0114339
0.000457879
0.0119339
0.00148754
0.0125832
0.00269327
0.0135294
0.00366848
0.014761
0.00378035
0.0156756
0.00293989
0.0144848
0.00124823
0.00970122
-0.000104506
-3.97763e-05
-0.00333859
0.00302474
7.50217e-05
-5.16303e-05
0.00164992
2.19993e-05
7.69432e-05
-0.000177515
0.000168381
-0.00231274
0.0101819
-0.00213223
0.0104137
-0.00183576
0.0107033
-0.00140167
0.0110521
-0.000823871
0.0114707
-8.35552e-05
0.0119752
0.000812965
0.0126065
0.00182974
0.0134457
0.00270312
0.0144951
0.00302199
0.0155204
0.0027919
0.0158244
0.00195893
0.0137754
0.000786545
0.00907955
-0.00010228
-5.99555e-05
-0.00292702
0.00283492
-1.16138e-05
5.83603e-05
0.00155362
7.55145e-05
9.59748e-05
0.000190403
0.000267344
-0.00248238
0.0101827
-0.00236918
0.0104183
-0.00213458
0.0107137
-0.0017721
0.0110731
-0.00127056
0.0114994
-0.000619414
0.0120059
0.00017257
0.012617
0.00105659
0.0133809
0.00185355
0.0142963
0.00228139
0.0152365
0.00233327
0.0159801
0.00206412
0.0157202
0.00136844
0.0131948
0.000568881
0.00867191
-8.6786e-05
-7.24857e-05
-0.00278726
0.0027159
-3.00422e-05
-1.17454e-05
-0.00157484
0.00157052
-7.06557e-06
4.01112e-07
3.42051e-05
3.21141e-06
-0.000297632
0.000344764
2.84424e-05
6.56863e-05
-0.00265764
0.0101833
-0.00260713
0.0104223
-0.00244162
0.0107248
-0.00214926
0.0110919
-0.00172398
0.0115258
-0.0011542
0.0120341
-0.000452325
0.0126284
0.000337844
0.0133344
0.00108204
0.0141528
0.00157942
0.0149995
0.00179015
0.0157805
0.00180408
0.0162412
0.00155644
0.0155331
0.00102199
0.0127427
0.000441285
0.00837643
-7.11611e-05
-7.29215e-05
-0.00266797
0.00261239
-3.06153e-05
-2.41068e-05
-0.00156189
0.0015393
-3.87095e-06
-2.88505e-06
-5.15606e-07
-2.20653e-06
-0.000374143
0.000369013
-1.69846e-06
-0.000373294
-2.79614e-07
0.000370707
8.3915e-06
7.37713e-07
-6.56863e-05
9.4143e-05
-0.00283041
0.0101839
-0.00284892
0.0104245
-0.00274946
0.0107316
-0.00253365
0.0111085
-0.00218391
0.0115527
-0.00169154
0.0120627
-0.00106153
0.0126453
-0.000340452
0.0133085
0.000366435
0.0140512
0.000913037
0.01482
0.00123934
0.0155515
0.00140204
0.0161834
0.00141547
0.0163832
0.00122108
0.0153348
0.000802288
0.0123826
0.000351085
0.00815596
-5.73009e-05
-7.17103e-05
-0.00256694
0.00252482
-2.85361e-05
-2.71416e-05
-0.00152028
0.00149678
-3.09238e-06
-3.54959e-06
-2.5431e-06
-2.24087e-06
-0.000364017
0.000361175
-7.82539e-07
-0.000366284
-4.12921e-07
0.000368366
3.37451e-07
2.47873e-08
-0.000103038
0.000101395
-0.000103294
0.000102556
-0.00300788
0.010185
-0.00309116
0.0104277
-0.00306562
0.0107401
-0.00292503
0.0111242
-0.00265559
0.0115794
-0.00223728
0.0120984
-0.0016739
0.0126724
-0.00100258
0.0133058
-0.000315302
0.0139904
0.000271638
0.0146939
0.000688259
0.015372
0.000958767
0.0159959
0.00111501
0.0164847
0.00114671
0.0164584
0.000996762
0.0151409
0.000642385
0.0120922
0.000264659
0.00799694
-3.70785e-05
-6.67276e-05
-0.0024816
0.00245103
-2.6216e-05
-2.81422e-05
-0.00147559
0.00145402
-2.79747e-06
-3.75368e-06
-3.35651e-06
-2.41206e-06
-0.000354369
0.000352085
-6.77137e-07
-0.000357178
-6.11049e-07
0.000359073
-2.71164e-07
-2.37642e-07
-0.000101408
0.000100683
-0.000101789
0.000101764
-0.00318257
0.0101847
-0.00333542
0.0104284
-0.00338077
0.0107445
-0.0033255
0.0111398
-0.00313805
0.0116077
-0.00279617
0.0121379
-0.00228853
0.0127155
-0.00165593
0.0133279
-0.000975534
0.0139672
-0.000351184
0.014614
0.000144087
0.0152393
0.000504612
0.015827
0.000755304
0.0163566
0.000914506
0.0167176
0.000966785
0.0164891
0.000831372
0.0149524
0.000505408
0.0118523
0.000147538
0.00788409
1.09354e-05
-4.39761e-05
-0.00241146
0.00239511
-2.01739e-05
-2.67888e-05
-0.00143269
0.00141359
-2.67713e-06
-3.9877e-06
-3.95339e-06
-2.63744e-06
-0.000344502
0.000342477
-6.51085e-07
-0.00034748
-6.84955e-07
0.000349405
-5.76114e-07
-4.16923e-07
-9.96102e-05
9.89664e-05
-0.000100197
0.000100435
-0.00336187
0.0101854
-0.00357689
0.0104278
-0.00370093
0.0107478
-0.00373266
0.0111531
-0.00363604
0.0116369
-0.00337381
0.0121854
-0.00292463
0.0127712
-0.00232043
0.0133782
-0.00163433
0.0139869
-0.000967463
0.0145849
-0.000399244
0.0151581
4.4633e-05
0.0157004
0.000379009
0.0162041
0.00061946
0.0166524
0.00078581
0.0168992
0.000839452
0.0164817
0.000695022
0.0147633
0.000369331
0.0116314
-1.2062e-05
0.0077405
0.000122945
3.45909e-05
-0.00236799
0.00237662
2.83715e-06
-1.6488e-05
-0.00139407
0.00138063
-2.35454e-06
-3.91418e-06
-4.35307e-06
-2.70108e-06
-0.000334298
0.000332408
-6.57517e-07
-0.00033742
-7.57554e-07
0.000339421
-7.79669e-07
-5.53697e-07
-9.732e-05
9.67001e-05
-9.79891e-05
9.8406e-05
-0.00353514
0.0101831
-0.00381664
0.0104239
-0.00401766
0.0107461
-0.00414637
0.0111607
-0.00414861
0.0116668
-0.00397783
0.0122405
-0.00358348
0.0128468
-0.00300342
0.0134566
-0.00230167
0.0140468
-0.00158322
0.0146032
-0.00094047
0.0151273
-0.000416753
0.0156203
-6.36585e-06
0.0160868
0.000302319
0.0165219
0.000541169
0.0168977
0.000706732
0.0170324
0.000741701
0.0164356
0.000576397
0.0145567
0.000241854
0.0113782
-9.84164e-05
0.00751504
0.000157632
0.000167589
-0.00237711
0.00239566
0.000104901
3.44753e-05
-0.00137064
0.001377
-6.24955e-08
-2.97345e-06
-4.17883e-06
-2.08763e-06
-0.000324069
0.000322497
-6.50604e-07
-0.000327127
-7.50084e-07
0.000329082
-9.10649e-07
-6.64667e-07
-9.46472e-05
9.40239e-05
-9.53857e-05
9.59394e-05
-0.00370968
0.0101792
-0.00404756
0.0104156
-0.00433093
0.0107361
-0.0045611
0.0111624
-0.00468144
0.0116924
-0.00461239
0.0123015
-0.00428496
0.0129392
-0.00372796
0.0135695
-0.00299479
0.0141496
-0.00220886
0.0146736
-0.00148591
0.0151494
-0.000882144
0.0155938
-0.000397574
0.0160123
-2.17177e-05
0.0164116
0.000274054
0.0167897
0.000503626
0.0171015
0.000655396
0.0171191
0.000665255
0.0163473
0.000483959
0.014315
0.000186357
0.0110941
9.71076e-06
0.00738317
5.72197e-06
0.000117727
-0.00238899
0.00237939
0.000167536
0.000174588
-0.00140396
0.00144691
4.42968e-05
1.81296e-05
-2.39078e-07
7.95934e-06
-0.000315763
0.000316198
-3.72738e-07
-0.000318054
-5.67486e-07
0.000319353
-9.0589e-07
-6.99104e-07
-9.17372e-05
9.11226e-05
-9.24679e-05
9.31325e-05
-0.00387625
0.0101735
-0.00427123
0.0104013
-0.00463153
0.0107176
-0.00497737
0.0111513
-0.00522578
0.0117079
-0.00528342
0.0123628
-0.00503152
0.0130506
-0.00450369
0.0137172
-0.00372337
0.0142992
-0.00285264
0.0147939
-0.00203884
0.0152277
-0.00135013
0.015618
-0.000789605
0.0159868
-0.000349432
0.0163407
-1.70375e-06
0.0166882
0.000274927
0.0170189
0.000493617
0.0172638
0.000625363
0.0171594
0.000613779
0.016218
0.000446484
0.0140551
0.000238956
0.0108653
0.000158883
0.00728296
-7.01946e-05
1.21475e-05
-0.00240903
0.00239552
1.93989e-05
8.83683e-05
-0.0014597
0.00148257
5.11311e-05
9.40044e-05
7.21248e-05
8.99385e-05
-0.000333992
0.000356991
2.14033e-05
-0.000322722
6.96056e-06
0.000316144
-6.83652e-08
1.46088e-06
-8.89931e-05
8.86558e-05
-8.9539e-05
9.02381e-05
-0.00404111
0.0101644
-0.00447464
0.0103784
-0.00491544
0.0106839
-0.00537805
0.0111199
-0.00578264
0.0117069
-0.00599049
0.0124154
-0.00584434
0.0131727
-0.00535778
0.0139028
-0.00451139
0.0145052
-0.00352641
0.014974
-0.00260273
0.0153583
-0.00182061
0.0156992
-0.001184
0.0160132
-0.000679085
0.0163174
-0.000278815
0.0166185
4.19838e-05
0.0169217
0.000300866
0.0172122
0.000501339
0.0173884
0.000614847
0.0171587
0.000600373
0.0160645
0.000471178
0.0138231
0.000338874
0.0106857
0.00024816
0.00715174
-9.07146e-05
-2.57232e-05
-0.00241018
0.00237022
-3.02167e-05
-2.34609e-06
-0.00152774
0.00154336
-5.38414e-06
9.50541e-06
3.5389e-05
7.88165e-06
-0.000431424
0.000449589
3.28994e-05
-0.000400385
6.31402e-05
0.000379471
4.98525e-05
6.91729e-05
-9.70495e-05
0.000118518
-9.00682e-05
8.86073e-05
-0.00419186
0.01015
-0.00465821
0.0103465
-0.0051677
0.0106323
-0.00575929
0.0110639
-0.00633695
0.0116757
-0.00673355
0.0124492
-0.00672817
0.0133023
-0.00631568
0.0141331
-0.00537634
0.014769
-0.0042383
0.0152174
-0.00318104
0.0155534
-0.00229564
0.0158341
-0.00157892
0.0160952
-0.00100836
0.0163431
-0.000556501
0.0165958
-0.000195124
0.0168563
9.93362e-05
0.0171239
0.000341379
0.0173726
0.000525354
0.0174783
0.000627918
0.0171314
0.00062187
0.0159141
0.000532888
0.0136292
0.000420695
0.010513
0.000286732
0.00699158
-9.14032e-05
-3.48366e-05
-0.00236855
0.0023181
-4.03747e-05
-2.39255e-05
-0.00154884
0.00153154
-1.08494e-05
-1.82567e-06
1.51182e-06
-9.31182e-06
-0.000480317
0.000476364
-1.59168e-06
-0.00047302
2.37366e-06
0.000469905
1.52559e-05
4.82105e-06
-0.00023374
0.00025784
8.93903e-06
-0.000193347
2.28738e-05
0.000168443
4.43745e-05
-0.00433281
0.0101299
-0.00480674
0.0103002
-0.00537961
0.010557
-0.00609541
0.01097
-0.0068732
0.0115987
-0.00749938
0.0124423
-0.00771389
0.0134318
-0.00743158
0.0144163
-0.00634994
0.0151065
-0.00499932
0.0155309
-0.00377598
0.0158129
-0.00277295
0.0160316
-0.00197043
0.0162262
-0.00133432
0.016422
-0.000830733
0.0166182
-0.000427002
0.0168285
-0.000100744
0.017057
0.000168958
0.0172968
0.000391783
0.0175066
0.000563911
0.0175427
0.000661172
0.0170923
0.000666663
0.0157804
0.000594562
0.0134552
0.000466071
0.0103337
0.000304846
0.00683908
-0.000116313
-3.45547e-05
-0.0023093
0.00225509
-3.73037e-05
-2.60644e-05
-0.00152013
0.00149382
-1.12103e-05
-2.71343e-06
-1.76538e-06
-1.076e-05
-0.000473735
0.000466713
-4.04385e-06
-0.000473535
-1.86218e-06
0.0004793
-1.24264e-06
-3.5072e-06
-0.000277315
0.000276311
-4.34838e-07
-0.000274834
-3.11871e-08
0.000270483
2.69932e-06
5.20635e-07
-6.72615e-05
7.62366e-05
-4.43745e-05
-0.00445449
0.0101071
-0.00491809
0.0102399
-0.0055272
0.0104496
-0.00636334
0.0108239
-0.00735737
0.011456
-0.00827744
0.012376
-0.00883829
0.0135705
-0.00877989
0.0147826
-0.00747393
0.0155413
-0.00582693
0.0159343
-0.00439269
0.0161483
-0.00325458
0.0162951
-0.00235888
0.016421
-0.00165597
0.0165487
-0.00110004
0.0166922
-0.000656914
0.0168487
-0.000300177
0.0170286
-5.62018e-06
0.0172321
0.000242403
0.0174468
0.000449897
0.017621
0.000611873
0.0175922
0.000706539
0.0170525
0.000716069
0.0156588
0.00063503
0.0132861
0.00048326
0.010155
0.000299362
-0.0001643
0.00671201
-0.00223456
0.00207452
4.57864e-05
-1.36897e-05
-0.0014793
0.00145293
-9.72939e-06
-1.08644e-06
-1.24892e-06
-1.03724e-05
-0.000459977
0.000452717
-4.20893e-06
-0.000460588
-1.96853e-06
0.000467234
-2.13253e-06
-4.10719e-06
-0.000272057
0.000268991
-8.45017e-07
-0.000273202
-6.54176e-07
0.00027573
-5.85585e-07
-9.39243e-07
-7.94524e-05
7.905e-05
-7.94699e-05
7.89493e-05
-0.00456347
0.0100834
-0.00497755
0.0101685
-0.00559367
0.0103053
-0.00652208
0.01061
-0.00775354
0.0112189
-0.00904898
0.0122294
-0.0101857
0.0137204
-0.0104755
0.0152647
-0.00880228
0.016111
-0.00673879
0.0164537
-0.0050376
0.0165796
-0.00374003
0.0166345
-0.00274232
0.0166792
-0.00196967
0.0167356
-0.00136186
0.0168112
-0.000880579
0.0169167
-0.000493571
0.017043
-0.00017544
0.0171992
9.21313e-05
0.0173829
0.000319459
0.0175776
0.000512743
0.0177203
0.000663983
0.017635
0.000751868
0.0170166
0.000750675
0.0155429
0.000650991
0.013118
0.000475122
0.0099795
-0.00153554
0.00347604
-2.91043e-05
2.34538e-06
0.000274723
-0.000133562
0.00656809
-0.00145219
-3.50732e-05
3.19718e-06
-1.55241e-05
-0.000446862
0.000439536
-2.80122e-06
-0.000446815
-1.02876e-06
0.000453365
-1.75279e-06
-3.83671e-06
-0.000263138
0.000259931
-8.85396e-07
-0.00026446
-6.20017e-07
0.000267542
-6.4477e-07
-1.01131e-06
-7.68936e-05
7.60723e-05
-7.75364e-05
7.84756e-05
-0.00465402
0.0100648
-0.00499109
0.0100959
-0.00555836
0.010135
-0.00653264
0.0103148
-0.00797832
0.0108367
-0.00977103
0.0119392
-0.0117751
0.0138217
-0.0125605
0.0158062
-0.0103049
0.0167662
-0.00770171
0.0170738
-0.00569581
0.0171123
-0.00422789
0.0170678
-0.00312158
0.0170143
-0.00227232
0.0169825
-0.00161237
0.016987
-0.0010961
0.0170276
-0.000680349
0.0171043
-0.000341748
0.0172098
-5.88115e-05
0.0173506
0.000184053
0.0175188
0.00039524
0.0176955
0.000575599
0.0178088
0.000713915
0.0176728
0.00078958
0.0169775
0.000767791
0.0154258
0.000642321
0.0129509
0.000444192
0.00981062
0.00337329
-2.83682e-05
1.73909e-06
-0.000657095
0.000632362
-3.20422e-06
4.69225e-07
-0.000652825
-1.79656e-06
1.53597e-06
0.000232411
-0.000106416
0.00644862
-0.000405583
-3.70837e-06
1.70362e-06
-0.000278203
0.000438984
4.17187e-06
1.8167e-05
-0.000255257
0.000253157
-6.25355e-07
-0.000255869
-4.23253e-07
0.00025874
-5.40595e-07
-9.67238e-07
-7.38046e-05
7.29341e-05
-7.44204e-05
7.54317e-05
-0.0047372
0.0100525
-0.00495929
0.0100348
-0.00542578
0.00996239
-0.00634569
0.00995001
-0.00792444
0.010261
-0.0102531
0.0113233
-0.0134728
0.0136355
-0.0148324
0.0160921
-0.0116846
0.0171857
-0.0085118
0.0175773
-0.00626102
0.0176392
-0.00466896
0.0175538
-0.003475
0.0174218
-0.00256072
0.0173035
-0.00185363
0.0172245
-0.00130133
0.017193
-0.000860269
0.0172082
-0.000501283
0.0172646
-0.000202468
0.0173543
5.27521e-05
0.0174827
0.000271776
0.0176426
0.000464758
0.0178064
0.000630304
0.0178924
0.000757285
0.017705
0.000811543
0.0169334
0.000764146
0.0153038
0.000610109
0.012785
0.000388721
0.00965489
0.00329463
-2.44915e-05
-1.74782e-06
-0.000633519
0.000609116
-3.2051e-06
2.62998e-07
-1.50162e-06
1.83608e-06
-6.71258e-05
6.40915e-05
-6.66099e-05
-6.83062e-05
-6.64964e-05
0.000147716
-5.18309e-05
0.00634638
-7.00289e-05
-6.82243e-05
-0.000256829
-2.8348e-06
6.13773e-07
-7.10016e-05
7.04107e-05
-7.14256e-05
7.23928e-05
-0.00481
0.0100477
-0.00490251
0.00999476
-0.00521452
0.00982538
-0.00596711
0.00958287
-0.00747812
0.00950482
-0.0102008
0.0102051
-0.014771
0.012623
-0.0164969
0.0152996
-0.0121233
0.0165288
-0.00862491
0.0172984
-0.00641595
0.0177321
-0.00489902
0.0178695
-0.00373069
0.0178098
-0.00280351
0.017665
-0.00207004
0.0175204
-0.00149155
0.0174154
-0.00102837
0.017362
-0.000652394
0.0173603
-0.000340568
0.0174036
-7.5998e-05
0.0174836
0.000151826
0.0176029
0.000352478
0.0177552
0.00052754
0.0179094
0.000678398
0.0179712
0.000787207
0.017729
0.000816603
0.0168807
0.00073866
0.0151753
0.000555029
0.012619
0.000303663
0.00949826
0.00325857
-1.29649e-05
-2.06161e-06
-0.000607671
0.000586996
-2.72602e-06
-4.41882e-08
-1.52959e-06
1.41231e-06
-6.4625e-05
6.15538e-05
-6.44254e-05
-6.59276e-05
3.07419e-05
8.12324e-05
0.00623495
-7.10244e-05
-0.00488294
0.0100504
-0.00482947
0.00997623
-0.00496367
0.00974303
-0.00545527
0.00931522
-0.00662087
0.00872562
-0.00933309
0.0045121
0.00412977
-0.00685124
0.00546462
0.00480225
-0.00798234
-0.0091389
0.00670213
-0.00700867
0.00557066
-0.00603592
0.0134137
-0.00420234
-0.0071566
0.0150616
-0.00563533
0.0165186
-0.00460019
0.0174336
-0.00371612
0.0178552
-0.00291791
0.0179248
-0.00222953
0.0178251
-0.00165432
0.0176841
-0.00118145
0.0175694
-0.000793361
0.0175038
-0.000471121
0.0174914
-0.000198017
0.0175263
3.80209e-05
0.0175982
0.000242388
0.0177136
0.000421757
0.0178611
0.000581747
0.0180058
0.000717114
0.0180411
0.000802797
0.0177427
0.000804664
0.0168146
0.000693195
0.0150371
0.000480597
0.0124416
0.000208731
0.0093194
0.00326527
5.19682e-05
1.91181e-05
-0.000584746
0.000573277
-2.13465e-06
-2.91296e-08
-1.21238e-06
9.30926e-07
-6.14408e-05
5.88026e-05
-6.14931e-05
-6.29661e-05
-4.42883e-05
0.000194098
0.0060761
-0.00495297
0.0100566
-0.00475735
0.00997735
-0.00469919
0.00971335
-0.00489658
0.00918346
-0.00555332
0.00824838
-0.00750617
0.0035997
0.00329503
-0.00644437
0.00410719
-0.00585328
0.00353692
-0.00907777
0.0054036
-0.0043347
-0.0034902
0.00154157
0.00200785
-0.00750049
0.00194303
0.00168143
-0.00515195
0.00581731
-0.00321471
0.00186323
0.00158209
-0.00183561
-0.00205842
-0.00138675
0.0018538
0.00200925
-0.00204769
0.00972444
-0.00141849
-0.00150428
0.00411439
-0.00099579
-0.00352848
0.0129556
-0.00342494
0.0153444
-0.00318042
0.0168987
-0.00274451
0.0176822
-0.00224418
0.0179399
-0.00175015
0.0179216
-0.00130492
0.0178083
-0.000919804
0.0176965
-0.000591373
0.0176251
-0.000310928
0.0176054
-7.09148e-05
0.0176361
0.000136249
0.0177047
0.000318807
0.0178166
0.000480965
0.0179621
0.000625872
0.0180971
0.000742023
0.0181017
0.000803779
0.0177434
0.000776293
0.0167314
0.000636451
0.014881
0.000405828
0.0122439
0.000155392
0.00911856
0.00321817
0.000102899
0.000136798
-0.000590423
0.000625096
1.13307e-05
3.96312e-06
8.41723e-08
1.12607e-06
-5.83655e-05
5.61627e-05
-5.84938e-05
-5.97335e-05
2.06678e-05
6.75741e-05
0.00598858
-0.00502854
0.0100673
-0.00469505
0.00999568
-0.0044576
0.00973505
-0.00435819
0.00917627
-0.0044886
0.00811783
-0.00530236
0.00306088
0.00298713
-0.00504948
0.00279767
-0.00397681
0.0022201
-0.00670264
0.00130727
0.00143223
0.00168152
-0.00407287
-0.00330928
0.00150059
0.00304244
-0.00150059
0.00183561
-0.00360058
0.00120927
-0.00158209
0.00138675
0.00109675
0.000756465
0.00160161
0.00277092
-0.000401415
-0.000302149
-0.000444928
0.00690533
-0.000263094
0.00169502
-0.000182187
-0.000160069
-0.000434009
0.00103959
-0.00147456
0.0110062
-0.00202862
0.0141927
-0.00213526
0.0162892
-0.00198941
0.0174277
-0.00169997
0.0178903
-0.00135401
0.0179714
-0.00100924
0.0178987
-0.000694693
0.0178008
-0.00041524
0.0177303
-0.000172816
0.0177079
3.91571e-05
0.0177338
0.000223041
0.0178011
0.000384156
0.0179139
0.000530082
0.0180578
0.000657634
0.0181812
0.000757085
0.0181483
0.000795386
0.0177243
0.000738441
0.0166292
0.000579902
0.0147064
0.000360739
0.0120377
0.000176467
0.00896215
0.00323317
-9.74354e-06
6.01773e-05
-0.000678226
0.000713568
1.88551e-05
4.74338e-05
4.59396e-05
3.60914e-05
-6.11189e-05
7.21158e-05
-5.73092e-05
-5.72888e-05
0.000107104
-4.21716e-05
0.00591623
-0.00510583
0.0100777
-0.00465202
0.0100234
-0.00425359
0.00979303
-0.00390072
0.0092767
-0.00354646
0.00823486
-0.00333871
0.00301431
0.00313731
-0.00301613
0.001039
0.00106358
-0.00194236
0.00191243
-0.00536351
0.00091189
0.000546224
-0.00197514
-0.00181653
0.000304113
0.000344011
0.00314391
-0.00296127
0.00112456
0.00097554
-0.00210007
0.000322489
0.000764267
-0.000125827
0.000538777
-7.64082e-05
0.00131366
-3.86576e-05
-2.41828e-05
6.50557e-05
0.00530865
5.87096e-05
0.00108695
-2.68183e-05
-9.16979e-06
0.000396918
-4.02685e-05
0.000275866
-3.88813e-05
-0.000672137
0.00965158
-0.00115923
0.0132184
-0.00140447
0.0157061
-0.00141811
0.0171466
-0.00126639
0.0178035
-0.00102825
0.0179914
-0.000762569
0.0179677
-0.000502151
0.0178885
-0.000264434
0.0178231
-5.18962e-05
0.0178002
0.000132211
0.0178255
0.000293892
0.0178916
0.00043878
0.0180051
0.000568736
0.0181468
0.000682364
0.0182562
0.000761111
0.0181825
0.000775186
0.0176873
0.000698858
0.0165098
0.000540626
0.014526
0.00035652
0.0118571
0.000229191
0.0088394
0.00320954
-2.93942e-05
1.01701e-05
-0.000759328
0.000752218
-4.8611e-06
1.52866e-06
7.87632e-07
1.24421e-05
-0.000157163
0.000170049
5.69165e-06
-0.000125601
1.55121e-05
-0.000108207
2.76479e-05
0.000163536
-8.24537e-05
0.00583555
-0.00518978
0.0100869
-0.00462956
0.0100564
-0.00410095
0.00987012
-0.00354789
0.00944139
-0.00284279
0.00857193
-0.00170793
0.00660477
-0.000980984
0.0020539
-0.000173517
0.00232847
0.00163882
-0.00125591
0.000655773
0.000727239
-0.000847524
0.000990123
0.000261635
0.000252114
-0.00204936
-0.00150315
-0.00137485
0.000285503
0.00115914
-0.00085503
0.00112453
0.000196705
0.000120306
0.000234811
2.68793e-06
0.000214875
-4.01953e-06
0.0010399
5.02653e-05
6.23652e-05
2.00856e-05
0.0046476
-3.03801e-05
0.00102381
5.06316e-05
2.46295e-05
0.00019475
-6.57321e-06
0.000187073
-1.36399e-06
8.00473e-05
4.12057e-05
-0.000270246
0.0087625
-0.000638566
0.0124519
-0.000904085
0.0151911
-0.000988114
0.0168686
-0.000922106
0.0176979
-0.000761042
0.0179906
-0.000553001
0.0180198
-0.000336662
0.017962
-0.000132972
0.0179052
4.97606e-05
0.0178832
0.000211418
0.0179084
0.000353229
0.0179778
0.000482585
0.0180918
0.000599708
0.0182295
0.000698276
0.0183188
0.000758535
0.0181989
0.000753352
0.0176325
0.000667588
0.0163824
0.000522361
0.0143597
0.000377858
0.011708
0.00027262
0.00873026
0.00314988
-3.05058e-05
5.65287e-06
-0.000762457
0.000738588
-5.72438e-06
-3.76599e-07
-3.0484e-06
2.07358e-06
-0.000181652
0.000177638
-9.29211e-07
-0.000180308
-1.0298e-07
-0.00018006
-1.23367e-07
2.08468e-06
-4.30805e-05
4.86536e-05
-2.76479e-05
0.000185038
-9.60957e-05
0.00574045
-0.00527692
0.0100964
-0.0046326
0.0100892
-0.00399864
0.00995529
-0.00330444
0.009626
-0.00238505
0.00898436
-0.000881275
0.00774345
-0.0010865
0.00255577
0.00218433
0.00277827
0.000331733
0.000374479
0.0004994
0.000833821
0.000739817
0.000271054
4.63094e-05
0.00021504
0.000298448
-0.000569503
4.39311e-05
3.99295e-05
0.000204074
3.33985e-05
0.00022551
4.10866e-05
0.00102542
1.93247e-05
-5.9478e-07
1.81116e-05
0.00433074
2.9545e-05
0.00101919
-2.38809e-05
0.000245937
3.03826e-05
0.0002556
1.50676e-05
3.33735e-05
3.2035e-05
-5.29348e-05
0.0081799
-0.000326974
0.0118777
-0.000548594
0.0147546
-0.000664253
0.0166123
-0.000649583
0.0175881
-0.000538479
0.0179772
-0.000376425
0.0180608
-0.000197385
0.0180272
-2.36005e-05
0.0179795
0.000135511
0.0179604
0.000275655
0.0179868
0.000402807
0.0180578
0.000517356
0.0181741
0.000621905
0.0183058
0.000705566
0.0183717
0.000750328
0.0182016
0.000732981
0.0175668
0.000646439
0.0162579
0.000520516
0.0142168
0.000398411
0.011582
0.000292027
0.00862292
0.00307564
-3.06906e-05
7.34569e-06
-0.000744365
0.000718655
-5.50823e-06
3.53155e-08
-2.95406e-06
2.27397e-06
-0.000176284
0.000171701
-1.07538e-06
-0.000176534
-2.98807e-07
-0.00017926
-8.07577e-07
2.22915e-07
-5.02637e-05
4.92453e-05
-5.0506e-05
-5.07383e-05
0.000188924
-9.59022e-05
0.005648
-0.00537045
0.0101027
-0.00465561
0.0101204
-0.00394518
0.0100352
-0.00315105
0.009803
-0.00212369
0.00936382
-0.000555971
0.00865973
0.00252188
0.00777661
0.002972
-0.00114007
-0.00105364
0.000857698
0.000547427
0.00298795
0.00276331
0.000589272
0.000739573
0.000348776
-0.000964361
0.00065787
0.000514943
6.5475e-05
8.93773e-05
1.7297e-05
0.000261603
1.34163e-05
0.000242
1.90919e-05
0.0010197
1.77017e-05
9.37059e-05
0.00415126
3.40655e-05
0.00100176
4.78085e-05
-0.000153677
0.000373479
-2.67698e-06
1.18788e-06
0.000111608
8.27964e-06
0.000123459
3.31191e-06
2.93426e-05
0.0078226
-0.000116985
0.0114446
-0.000305772
0.0143943
-0.00041986
0.016383
-0.000429572
0.0174801
-0.000353272
0.0179548
-0.000224502
0.018089
-7.55576e-05
0.0180806
7.16438e-05
0.0180446
0.000207099
0.0180296
0.000329918
0.0180601
0.000442985
0.0181326
0.000546155
0.0182499
0.000639621
0.0183715
0.000711274
0.0184105
0.000740907
0.0181933
0.000714309
0.0174986
0.000632809
0.0161452
0.000521196
0.0140939
0.000404836
0.011469
0.000290866
0.00852128
0.00300119
-3.18382e-05
8.86418e-06
-0.000724833
0.000697706
-5.51114e-06
5.73118e-07
-2.68423e-06
2.911e-06
-0.000170961
0.000166371
-1.00831e-06
-0.000170891
-1.49798e-07
-0.000173457
-7.032e-07
4.01366e-07
-4.81864e-05
4.70817e-05
-4.85849e-05
-4.94682e-05
0.000178868
-9.27048e-05
0.00555845
-0.00546434
0.010107
-0.00470316
0.0101497
-0.00393336
0.0101096
-0.00307657
0.0099602
-0.00200071
0.00968085
-0.000490818
0.00929759
0.00203792
0.00914426
-0.00225482
0.00493987
0.00370708
0.00437149
-0.000863575
0.000467459
-0.00101482
0.000941644
0.000930918
-0.000467459
-0.000651866
0.0012415
0.000860637
0.000348632
1.73079e-05
0.000133623
3.30224e-06
-9.19781e-07
0.000388905
2.12742e-06
1.64441e-07
0.00101197
8.43737e-05
5.54006e-05
0.00410617
1.99262e-05
0.00101038
3.60745e-05
0.000411677
1.63425e-05
8.9885e-06
-3.25091e-05
2.98471e-05
-3.13117e-05
2.56015e-05
2.89207e-05
0.000128063
0.00758125
1.74891e-05
0.0111248
-0.000130573
0.0141088
-0.000229535
0.0161844
-0.000251947
0.0173804
-0.000197691
0.0179291
-9.45051e-05
0.0181091
2.63067e-05
0.0181269
0.000150035
0.0181026
0.000265797
0.0180946
0.000374268
0.0181291
0.000474941
0.0182036
0.000568892
0.0183204
0.000651181
0.0184314
0.000710195
0.0184409
0.000729536
0.0181776
0.000698394
0.0174328
0.000618499
0.0160477
0.000511932
0.0139868
0.000393545
0.0113664
0.000272928
0.00842728
0.0029314
-3.1833e-05
9.24096e-06
-0.000705188
0.000678087
-5.92538e-06
6.40879e-07
-2.86736e-06
3.47751e-06
-0.000166218
0.000161349
-1.04469e-06
-0.000165971
-7.56715e-08
-0.00016853
-6.55959e-07
5.19181e-07
-4.65194e-05
4.54392e-05
-4.67406e-05
-4.74831e-05
0.000160718
-8.24505e-05
0.00548142
-0.00556568
0.0101128
-0.0047711
0.0101758
-0.00395807
0.010174
-0.00305833
0.0100924
-0.0019758
0.00993473
-0.000560673
0.00975143
0.0014999
0.00983513
0.00391212
0.010174
0.00167126
-0.00061432
0.00316058
-0.000510074
0.00178187
0.00426165
0.000279068
-0.000471834
0.0010992
-0.000279068
0.000668003
3.22315e-05
3.1974e-05
3.21426e-05
0.000444243
3.23698e-05
1.98664e-05
0.00103866
2.70787e-05
7.75345e-05
0.00407835
7.9481e-05
0.00104452
1.43962e-05
0.00046886
-1.74417e-06
1.35335e-05
-4.11311e-05
5.75109e-05
0.000172259
0.0074246
9.75517e-05
0.0108955
1.00174e-06
0.0138769
-8.08391e-05
0.0160136
-0.000102901
0.0172862
-6.63932e-05
0.0179017
1.21615e-05
0.0181244
0.000111526
0.0181668
0.000215521
0.0181534
0.000315456
0.0181533
0.000412189
0.0181916
0.000502367
0.0182701
0.000587489
0.0183841
0.00065756
0.0184837
0.000707242
0.018463
0.000717213
0.0181584
0.000678712
0.0173724
0.000598564
0.0159609
0.00048853
0.0138919
0.000365403
0.011274
0.000242183
0.00834643
0.00286907
-3.01098e-05
9.53924e-06
-0.000686509
0.000660123
-6.03951e-06
5.319e-07
-3.07891e-06
3.53543e-06
-0.000161731
0.000156837
-1.10247e-06
-0.000161286
-4.55394e-08
-0.000163949
-6.56924e-07
6.37154e-07
-4.50272e-05
4.38402e-05
-4.52222e-05
-4.59584e-05
0.000133181
-7.03359e-05
0.005416
-0.00567485
0.010121
-0.00486305
0.0102044
-0.00401471
0.0102333
-0.00308752
0.0102027
-0.00201468
0.0101322
-0.00070314
0.0100767
0.00100783
0.0102441
0.00292298
0.0108231
-0.00135386
0.00325309
0.0100574
0.000966703
0.00261973
-0.000170629
-0.00025425
-0.000314336
0.000903637
0.00387468
0.000353691
7.50242e-05
1.49501e-05
8.86561e-05
6.39146e-06
0.00049257
5.48009e-06
-2.13488e-06
0.00106803
5.51361e-05
9.78782e-05
0.00408881
6.47341e-05
0.00107185
7.58634e-05
0.000506529
-1.07187e-06
1.75285e-06
-9.95135e-05
9.86668e-05
-7.28588e-07
2.79957e-06
0.000174994
0.00735342
0.000172694
0.0107291