/*--------------------------------*- C++ -*----------------------------------*\
| =========                 |                                                 |
| \\      /  F ield         | OpenFOAM: The Open Source CFD Toolbox           |
|  \\    /   O peration     | Version:  v1912                                 |
|   \\  /    A nd           | Website:  www.openfoam.com                      |
|    \\/     M anipulation  |                                                 |
\*---------------------------------------------------------------------------*/
FoamFile
{
    version     2.0;
    format      ascii;
    class       volScalarField;
    location    "460";
    object      p;
}
// * * * * * * * * * * * * * * * * * * * * * * * * * * * * * * * * * * * * * //

dimensions      [0 2 -2 0 0 0 0];


internalField   nonuniform List<scalar> 
3753
(
-0.00636028
0.0229229
0.0166979
0.0475265
0.0158985
0.0271752
0.0696758
0.0242875
0.0291908
0.0358156
0.0932395
0.0408632
0.0340361
0.0364635
0.0252967
0.117133
0.0624735
0.0440107
0.0384765
0.0263703
0.0158313
0.140034
0.0865337
0.0594922
0.0432439
0.0272567
0.0169176
0.00988713
0.161538
0.111581
0.0795453
0.0518667
0.0281994
0.0177743
0.0109331
0.00368776
0.18149
0.136895
0.103026
0.064605
0.0296837
0.0182671
0.0119626
0.00469405
-0.00192162
0.199685
0.162045
0.12912
0.0811852
0.031976
0.018483
0.0128926
0.00563177
-0.00101675
-0.00619375
0.215863
0.18669
0.157409
0.101315
0.0349793
0.0185108
0.0137735
0.00641269
-0.000203402
-0.0053998
-0.00949642
0.229708
0.210471
0.187768
0.124957
0.0383334
0.0183738
0.0146274
0.00707747
0.000406503
-0.00466091
-0.00880223
-0.0120797
0.240854
0.232932
0.22023
0.152361
0.0415256
0.0180068
0.0154472
0.00763022
0.000835739
-0.00408199
-0.00814306
-0.0114788
-0.0140012
0.248889
0.253467
0.254866
0.184047
0.0439192
0.017278
0.0161851
0.00805888
0.00108542
-0.00365043
-0.00761154
-0.0109029
-0.0134833
-0.0154081
0.253385
0.271266
0.291784
0.220673
0.0447803
0.0159944
0.0167534
0.0083283
0.00116011
-0.00337838
-0.00719641
-0.0104361
-0.0129773
-0.0149614
-0.0164066
0.25394
0.285267
0.331169
0.262571
0.0434216
0.0139282
0.0170226
0.00837847
0.00106912
-0.00327562
-0.00691659
-0.0100674
-0.0125572
-0.0145208
-0.0160226
-0.0170398
0.250269
0.2942
0.372757
0.310346
0.0386258
0.0110634
0.0167871
0.00814116
0.000818677
-0.00334093
-0.00679508
-0.00981264
-0.0122102
-0.0141563
-0.01564
-0.0167092
-0.0173887
0.24268
0.296099
0.413837
0.369331
0.026722
0.00777909
0.0158046
0.00754921
0.000421489
-0.00356974
-0.00684728
-0.00969495
-0.0119451
-0.0138576
-0.0153287
-0.016372
-0.0171039
-0.0175396
0.231855
0.287722
0.446854
0.444799
0.00805392
0.0036537
0.0140786
0.00653338
-8.06989e-05
-0.00394944
-0.00708095
-0.00973309
-0.0117757
-0.0136359
-0.0150865
-0.0160913
-0.0168042
-0.0172917
-0.0175418
0.21861
0.273759
0.378448
0.378798
0.569879
0.627501
0.535206
0.0584148
0.408396
0.0360871
-0.00262748
-0.0319565
0.0119958
0.00510654
-0.00061229
-0.00444314
-0.00749116
-0.00994064
-0.0117084
-0.0135085
-0.0149286
-0.0158647
-0.0165455
-0.0170255
-0.017325
-0.0174266
0.203799
0.253774
0.372151
0.354047
0.523275
0.610827
0.705125
0.559109
0.494891
0.62824
0.0920925
0.0966353
-0.0357296
-0.0179181
-0.00577768
0.00927659
-0.00830524
0.00358075
-0.00110654
-0.00497619
-0.00804753
-0.0103193
-0.0117381
-0.013486
-0.0148779
-0.0157079
-0.0163248
-0.0167925
-0.017089
-0.0172363
-0.0172165
0.188376
0.23119
0.331559
0.304854
0.500888
0.474581
0.636802
0.63667
0.719952
0.648274
-0.0142241
-0.0364063
-0.00646276
-0.0375943
0.00407697
0.0023984
0.00348935
-0.0113414
-0.00156082
-0.00544867
-0.00868871
-0.0108528
-0.0118422
-0.013568
-0.0149546
-0.0156435
-0.0161537
-0.0165886
-0.0168838
-0.0170257
-0.0170476
-0.0169374
0.173285
0.209168
0.277709
0.243938
0.440667
0.396293
0.628112
0.612666
0.567928
0.593769
0.733114
0.730725
-0.0397836
-0.0144329
-0.00960069
0.00220172
0.00402095
-0.00205935
-0.00120854
-7.80162e-05
0.00188823
-0.0124469
-0.0137474
-0.00581121
-0.009328
-0.0115131
-0.0119801
-0.0137372
-0.0151699
-0.0156899
-0.0160517
-0.0164228
-0.0167069
-0.0168435
-0.0168567
-0.0167875
-0.0166058
0.159157
0.185946
0.229145
0.353021
0.322097
0.538793
0.50522
0.435534
0.478328
0.723074
0.699659
0.627847
0.672594
-0.00221827
0.00201685
0.00519483
0.00415438
0.00276304
-0.00122457
-0.006234
-0.00382715
0.00192303
-0.0049219
0.00159109
-0.00981411
-0.0123066
-0.0121004
-0.0139572
-0.0155204
-0.0158559
-0.0160363
-0.0163104
-0.016567
-0.0166904
-0.0166915
-0.0166134
-0.0164707
-0.0162453
0.146461
0.165326
0.169826
0.23988
0.180747
0.382348
0.330709
0.309937
0.580043
0.511167
0.476335
0.458748
0.00316684
0.00364008
0.00246099
-5.48881e-05
-0.00244314
-0.00580899
-0.0100265
-0.00799331
-0.0036923
-0.00467683
0.00354302
-0.00742333
0.00123422
-0.0133457
-0.0121644
-0.0141898
-0.015978
-0.0161379
-0.0161179
-0.0162646
-0.0164793
-0.0165771
-0.0165536
-0.0164592
-0.0163101
-0.0161235
-0.015865
0.135396
0.148522
0.128911
0.0319104
0.0436594
0.0299413
-0.206881
0.413091
0.357145
-0.0329944
0.0383883
0.387271
0.00313646
0.00209458
0.00176415
-0.00269209
-0.00564698
-0.0068811
-0.00950319
-0.0146057
-0.0112212
-0.00791563
-0.00863314
-0.00385083
-0.0048121
0.00311973
-0.0079989
-0.0121977
-0.0144146
-0.0164769
-0.0165194
-0.0162961
-0.0162919
-0.0164561
-0.0165189
-0.016454
-0.0163276
-0.0161658
-0.0159761
-0.0157534
-0.015467
0.126026
0.134605
0.100149
0.0152863
-0.871451
-0.730843
-0.430462
-0.180234
-0.75418
-0.724269
0.141014
0.0737767
-0.00591088
-0.00710958
-0.00940522
-0.0104891
-0.0151643
-0.0123862
-0.0144832
-0.0109244
-0.0114511
-0.00805326
-0.00863939
-0.0145208
-0.0170013
-0.0169547
-0.0165667
-0.0163867
-0.0165025
-0.0165292
-0.0164111
-0.0162302
-0.0160387
-0.015844
-0.0156179
-0.0153649
-0.0150562
0.118367
0.122961
0.0785011
0.00392791
-0.743585
-1.04112
-0.897466
-0.919622
-0.870138
-0.00967223
-0.0107413
-0.011626
-0.0186603
-0.0129778
-0.0142973
-0.0131627
-0.0137838
-0.0145647
-0.0111916
-0.0114145
-0.0179968
-0.0173496
-0.0169305
-0.016535
-0.0166144
-0.0166149
-0.0164403
-0.0161842
-0.0159368
-0.0157287
-0.0155002
-0.01524
-0.0149622
-0.0146321
0.112399
0.113327
0.062587
0.00285377
-0.599354
-0.626909
-0.948256
-0.85784
-0.860824
-0.682097
-0.0113674
-0.0197095
-0.0135216
-0.0132413
-0.0141729
-0.0192204
-0.0151459
-0.0155101
-0.013436
-0.013536
-0.0177366
-0.0190197
-0.0173812
-0.0167243
-0.0167785
-0.0167708
-0.0165512
-0.0162066
-0.015872
-0.0156379
-0.0154032
-0.0151327
-0.0148445
-0.0145463
-0.0142096
0.108075
0.105556
0.0515218
-0.000405328
-0.481065
-0.592958
-0.472507
-0.604444
-0.862255
-0.675358
-0.0141158
-0.0146922
-0.0177845
-0.0149564
-0.0151369
-0.0156441
-0.0190087
-0.0177438
-0.0180766
-0.017891
-0.0182952
-0.0169507
-0.0169796
-0.0169807
-0.0167438
-0.0163107
-0.0158552
-0.0155829
-0.0153352
-0.0150481
-0.0147438
-0.0144373
-0.0141296
-0.0137833
0.105331
0.0995649
0.0442081
-0.00670092
-0.392239
-0.546811
-0.4706
-0.407281
-0.453608
-0.503618
-0.604689
-0.71143
-0.648106
-0.0183321
-0.016128
-0.0193211
-0.0183649
-0.0188188
-0.0187069
-0.0172384
-0.0177314
-0.01841
-0.0172098
-0.0172199
-0.0170077
-0.0165037
-0.0158925
-0.0155737
-0.0153074
-0.0149945
-0.0146656
-0.0143436
-0.0140245
-0.0137087
-0.0133521
0.104105
0.0952953
0.0397174
-0.0132451
-0.322217
-0.493929
-0.459057
-0.407278
-0.40429
-0.366058
-0.45684
-0.498238
-0.576032
-0.627522
-0.0190192
-0.0183179
-0.0186538
-0.0194512
-0.0186295
-0.0193699
-0.0175512
-0.0174928
-0.0176225
-0.0177811
-0.0183781
-0.0185156
-0.0174584
-0.017319
-0.0167888
-0.0159826
-0.0156152
-0.0153308
-0.014986
-0.0146217
-0.0142722
-0.0139338
-0.0136089
-0.0132836
-0.0129366
0.104336
0.0927055
0.0374284
-0.0187413
-0.268325
-0.441066
-0.438665
-0.402916
-0.366567
-0.364214
-0.390998
-0.415574
-0.331415
-0.444769
-0.466299
-0.509606
-0.481716
-0.572476
-0.619256
-0.0191265
-0.0188778
-0.0196163
-0.0187238
-0.0209186
-0.0180981
-0.0177457
-0.017741
-0.0177011
-0.0178507
-0.017862
-0.0178348
-0.0179436
-0.017222
-0.0186816
-0.0176285
-0.0171734
-0.0161164
-0.0157083
-0.0154096
-0.0150314
-0.0146255
-0.0142342
-0.0138638
-0.0135206
-0.0131894
-0.0128716
-0.0125347
0.105968
0.0917621
0.0369513
-0.0227633
-0.228281
-0.393691
-0.414483
-0.39404
-0.365509
-0.332298
-0.32999
-0.35341
-0.371741
-0.386571
-0.396471
-0.405981
-0.419851
-0.444031
-0.303463
-0.465947
-0.501787
-0.481611
-0.0190888
-0.0188485
-0.0223771
-0.0170568
-0.0179552
-0.0179672
-0.017933
-0.0178994
-0.0178762
-0.0180105
-0.0180402
-0.0180131
-0.0180561
-0.018006
-0.0179092
-0.0173949
-0.0189667
-0.0176759
-0.016283
-0.0158508
-0.0155438
-0.0151335
-0.0146837
-0.0142437
-0.0138267
-0.0134475
-0.0131032
-0.0127828
-0.0124736
-0.0121293
0.108949
0.0924335
0.0380386
-0.0251001
-0.198686
-0.353698
-0.390015
-0.381903
-0.362224
-0.332475
-0.304274
-0.302221
-0.321215
-0.336169
-0.348549
-0.357622
-0.36551
-0.374428
-0.38564
-0.442011
-0.280256
-0.461149
-0.0230643
-0.0180648
-0.0180896
-0.018057
-0.0180966
-0.0180873
-0.0179902
-0.0182578
-0.0181183
-0.0181772
-0.0181847
-0.0181653
-0.0181038
-0.0181408
-0.0164813
-0.0160397
-0.0157261
-0.0152886
-0.0147997
-0.0143124
-0.0138365
-0.013401
-0.0130307
-0.012703
-0.0123872
-0.0120711
-0.0117431
0.113227
0.0946973
0.0405489
-0.0256979
-0.176674
-0.320759
-0.367147
-0.368229
-0.356434
-0.331683
-0.304683
-0.281036
-0.279154
-0.294984
-0.307263
-0.320513
-0.330536
-0.338661
-0.34942
-0.357556
-0.364351
-0.37158
-0.260549
-0.018135
-0.0181712
-0.0182
-0.0182615
-0.0181633
-0.0181902
-0.0167231
-0.0189309
-0.0181576
-0.018338
-0.0182891
-0.018263
-0.0182415
-0.0162706
-0.015948
-0.0154881
-0.0149674
-0.0144453
-0.0139073
-0.0133956
-0.0129803
-0.0126358
-0.0123112
-0.0119905
-0.0116878
-0.0113624
0.11875
0.0985342
0.0444176
-0.0246149
-0.160265
-0.294078
-0.346721
-0.354553
-0.348847
-0.329553
-0.30469
-0.281582
-0.261279
-0.259491
-0.272939
-0.283458
-0.294544
-0.305738
-0.316598
-0.329942
-0.323871
-0.338041
-0.243722
-0.0182838
-0.0183316
-0.018294
-0.0183724
-0.0180458
-0.0170739
-0.0165579
-0.016877
-0.0198012
-0.0183536
-0.0182844
-0.0184158
-0.0183712
-0.0162014
-0.0157194
-0.0151757
-0.0146361
-0.0140482
-0.0134429
-0.0129603
-0.0125887
-0.0122513
-0.011921
-0.0116115
-0.0113097
-0.0109896
0.12546
0.103927
0.0496458
-0.0219128
-0.148103
-0.272927
-0.329006
-0.341807
-0.340549
-0.326158
-0.30415
-0.28196
-0.261877
-0.244374
-0.242796
-0.253779
-0.26317
-0.272509
-0.282163
-0.29102
-0.297032
-0.307932
-0.302246
-0.329484
-0.336124
-0.229223
-0.0183938
-0.0184539
-0.0181442
-0.0176272
-0.0169575
-0.0169237
-0.0164797
-0.0167966
-0.0170546
-0.018035
-0.0213087
-0.018456
-0.0184156
-0.0159703
-0.0154091
-0.0148696
-0.0142599
-0.0135502
-0.0129799
-0.0125734
-0.0122148
-0.0118677
-0.0115458
-0.0112343
-0.0109395
-0.0106257
0.133289
0.110867
0.0562958
-0.0176045
-0.139283
-0.25669
-0.314015
-0.330373
-0.332364
-0.321965
-0.302963
-0.282156
-0.262454
-0.244954
-0.229812
-0.241488
-0.228471
-0.253837
-0.262146
-0.269756
-0.274441
-0.283893
-0.278751
-0.290735
-0.296161
-0.301439
-0.21639
-0.0184966
-0.0173791
-0.0172243
-0.0170033
-0.0171035
-0.0167466
-0.0162608
-0.0166302
-0.0169817
-0.0172193
-0.0172673
-0.0220758
-0.0156453
-0.01512
-0.0145366
-0.0137207
-0.0130439
-0.0125971
-0.0122117
-0.0118381
-0.0114945
-0.0111692
-0.010867
-0.0105781
-0.0102697
0.142154
0.119337
0.0644734
-0.0116308
-0.133238
-0.244901
-0.301686
-0.32035
-0.324735
-0.31747
-0.301236
-0.282087
-0.263048
-0.24558
-0.230343
-0.216945
-0.227523
-0.237034
-0.244684
-0.215703
-0.253403
-0.263696
-0.259111
-0.270195
-0.273995
-0.282945
-0.278478
-0.205153
-0.017238
-0.017187
-0.0168908
-0.0164515
-0.0158819
-0.0168677
-0.0167907
-0.0170558
-0.0171466
-0.0153516
-0.0148672
-0.0139537
-0.0131513
-0.0126638
-0.0122495
-0.011842
-0.0114682
-0.0111229
-0.0108053
-0.0105088
-0.0102241
-0.00992413
0.15195
0.129317
0.0743287
-0.00381665
-0.129708
-0.237257
-0.291964
-0.311747
-0.317855
-0.313023
-0.299182
-0.281724
-0.26362
-0.246333
-0.230941
-0.217452
-0.205647
-0.214866
-0.223486
-0.229971
-0.234969
-0.238614
-0.242348
-0.245708
-0.204541
-0.250654
-0.255019
-0.25876
-0.262893
-0.269183
-0.195143
-0.0170185
-0.0169753
-0.0164161
-0.0162027
-0.015543
-0.0160459
-0.0180175
-0.017159
-0.0168696
-0.0169634
-0.015216
-0.0142566
-0.0132938
-0.0127746
-0.0123339
-0.0118877
-0.0114779
-0.011104
-0.0107624
-0.0104498
-0.0101556
-0.0098797
-0.00959185
0.162542
0.140781
0.0860803
0.00613934
-0.128741
-0.233602
-0.284812
-0.304563
-0.311805
-0.308825
-0.296995
-0.281117
-0.264095
-0.247224
-0.231714
-0.218027
-0.206104
-0.195598
-0.203776
-0.21118
-0.217147
-0.221838
-0.22471
-0.227619
-0.230861
-0.235047
-0.238349
-0.241615
-0.194586
-0.258746
-0.261969
-0.186268
-0.0166514
-0.016556
-0.0153375
-0.0164724
-0.0162872
-0.015822
-0.0155009
-0.0157069
-0.0162172
-0.0161202
-0.017084
-0.0146567
-0.0134588
-0.0129276
-0.0124646
-0.0119782
-0.0115291
-0.0111201
-0.0107449
-0.0104033
-0.0100935
-0.00981336
-0.00955078
-0.00926773
0.173748
0.153682
0.100036
0.0186313
-0.130667
-0.233939
-0.280211
-0.298805
-0.306629
-0.304989
-0.294805
-0.280344
-0.264428
-0.248183
-0.232715
-0.218791
-0.20663
-0.196018
-0.186677
-0.193898
-0.200608
-0.205669
-0.210683
-0.215011
-0.217979
-0.22241
-0.224576
-0.227166
-0.229993
-0.185763
-0.178359
-0.0162468
-0.0165785
-0.0163836
-0.015982
-0.0159457
-0.0155528
-0.0151351
-0.0156811
-0.0158478
-0.0157913
-0.0162998
-0.0162001
-0.0171641
-0.013639
-0.0131151
-0.0126384
-0.0121123
-0.0116239
-0.011179
-0.0107651
-0.0103833
-0.0100467
-0.00975352
-0.00948642
-0.00922619
-0.00896143
0.185339
0.167927
0.116584
0.0341118
-0.136111
-0.238425
-0.278147
-0.294483
-0.302359
-0.301584
-0.292693
-0.279474
-0.264611
-0.249116
-0.2339
-0.219819
-0.207346
-0.1965
-0.187054
-0.178728
-0.185139
-0.191012
-0.195619
-0.200396
-0.204944
-0.209087
-0.214325
-0.211974
-0.217125
-0.221775
-0.17791
-0.171295
-0.0166723
-0.0164556
-0.0160644
-0.0160195
-0.0156498
-0.0156616
-0.0158344
-0.0138651
-0.0148844
-0.0156347
-0.0155959
-0.0159354
-0.0158576
-0.0163681
-0.0162663
-0.0133269
-0.0128492
-0.0122854
-0.0117594
-0.0112826
-0.0108328
-0.0104047
-0.0100237
-0.00970305
-0.0094283
-0.00916482
-0.00892226
-0.00865545
0.19701
0.18336
0.136232
0.0531866
-0.146092
-0.247372
-0.278624
-0.291614
-0.29902
-0.298659
-0.290716
-0.278556
-0.264661
-0.249953
-0.235167
-0.221099
-0.208342
-0.197159
-0.187486
-0.179066
-0.171625
-0.177346
-0.182593
-0.186653
-0.19067
-0.194945
-0.198457
-0.201895
-0.205657
-0.2032
-0.214369
-0.216456
-0.170889
-0.164946
-0.0161305
-0.016081
-0.0157607
-0.0156948
-0.0167176
-0.0151808
-0.0143354
-0.0135649
-0.0140029
-0.015052
-0.0148332
-0.0156862
-0.014787
-0.016002
-0.015922
-0.013084
-0.0124905
-0.0119292
-0.0114244
-0.0109478
-0.0104737
-0.010033
-0.00967065
-0.0093796
-0.00910961
-0.00886232
-0.00861782
-0.00836535
0.208339
0.19977
0.159713
0.0764599
-0.162084
-0.261283
-0.281646
-0.29022
-0.296633
-0.296249
-0.288914
-0.277629
-0.264603
-0.250664
-0.236412
-0.222538
-0.20963
-0.198096
-0.188081
-0.179448
-0.171925
-0.165251
-0.170345
-0.174893
-0.178735
-0.182346
-0.186118
-0.189285
-0.191529
-0.195617
-0.193409
-0.198126
-0.201438
-0.164568
-0.159228
-0.0158531
-0.0157659
-0.0177009
-0.0144483
-0.0145976
-0.0143984
-0.0138884
-0.0133262
-0.0136974
-0.0142702
-0.014083
-0.0150298
-0.0149869
-0.0158818
-0.0149015
-0.0127208
-0.0121275
-0.0115952
-0.0111036
-0.0105964
-0.0100901
-0.00966555
-0.00934319
-0.00906498
-0.00881144
-0.00856196
-0.00832866
-0.00807465
0.218761
0.216881
0.188153
0.103689
-0.185797
-0.280858
-0.287258
-0.29033
-0.295212
-0.294375
-0.28732
-0.276723
-0.264465
-0.251248
-0.237564
-0.224019
-0.211137
-0.199344
-0.18894
-0.179974
-0.17226
-0.165519
-0.159508
-0.169615
-0.164093
-0.174434
-0.178272
-0.180875
-0.183331
-0.186727
-0.184686
-0.189112
-0.191252
-0.195186
-0.193258
-0.158877
-0.15407
-0.0184467
-0.0146726
-0.0144907
-0.0140188
-0.013939
-0.0135899
-0.0129673
-0.013421
-0.0138698
-0.0137522
-0.0143474
-0.0141681
-0.0123501
-0.011784
-0.0112863
-0.0107726
-0.010202
-0.00969393
-0.00933013
-0.00903922
-0.00877338
-0.00851561
-0.0082713
-0.0080392
-0.0077968
0.227545
0.234205
0.22304
0.13473
-0.21968
-0.306593
-0.2956
-0.291956
-0.294764
-0.29304
-0.285955
-0.275864
-0.264271
-0.251717
-0.238594
-0.225446
-0.212742
-0.20085
-0.190114
-0.180746
-0.172719
-0.165809
-0.159748
-0.154326
-0.163523
-0.167806
-0.170698
-0.15844
-0.174281
-0.178851
-0.177082
-0.180549
-0.183499
-0.186343
-0.184409
-0.153752
-0.149358
-0.0140584
-0.0139888
-0.0136974
-0.0136464
-0.0132482
-0.012593
-0.0130633
-0.0135853
-0.0134655
-0.0139305
-0.0138173
-0.0119885
-0.0114762
-0.0109904
-0.0103727
-0.00976157
-0.00934624
-0.00903721
-0.00875403
-0.00848363
-0.00822558
-0.00798786
-0.0077635
-0.00751983
0.2339
0.250551
0.265526
0.176837
-0.269616
-0.338376
-0.306727
-0.295119
-0.295277
-0.292235
-0.28483
-0.27507
-0.264042
-0.252094
-0.239502
-0.226769
-0.214335
-0.202503
-0.191572
-0.181823
-0.173399
-0.166203
-0.160001
-0.15454
-0.149597
-0.157911
-0.161597
-0.164503
-0.167304
-0.168153
-0.169482
-0.171085
-0.153361
-0.173194
-0.174994
-0.176498
-0.178508
-0.180299
-0.18312
-0.149059
-0.145098
-0.0137377
-0.0136991
-0.013372
-0.0133035
-0.0128732
-0.0122181
-0.0126932
-0.0132285
-0.013107
-0.0136515
-0.0135359
-0.0116617
-0.0112204
-0.010606
-0.00986881
-0.00939285
-0.00906399
-0.00876131
-0.00847196
-0.00819765
-0.00794636
-0.00771081
-0.00748702
-0.00724886
0.237214
0.263737
0.312968
0.238938
-0.33789
-0.376895
-0.320019
-0.299831
-0.296696
-0.291934
-0.283951
-0.274355
-0.263793
-0.2524
-0.240302
-0.227969
-0.215845
-0.204185
-0.193215
-0.183196
-0.174369
-0.166793
-0.160338
-0.154757
-0.149795
-0.145317
-0.152902
-0.156189
-0.158772
-0.160724
-0.16216
-0.163402
-0.164725
-0.167226
-0.148685
-0.176592
-0.178231
-0.144823
-0.141193
-0.0134204
-0.0133572
-0.0130034
-0.0129283
-0.012491
-0.011865
-0.0123273
-0.0128472
-0.0127377
-0.0132939
-0.013175
-0.0114023
-0.0109122
-0.0100108
-0.00947034
-0.00912148
-0.00879946
-0.00848935
-0.00819456
-0.00791805
-0.00766838
-0.00743699
-0.00721814
-0.00698623
0.270869
0.354855
0.318093
0.384885
-0.264563
0.22106
-0.321694
-0.418103
-0.482582
-0.334077
-0.305783
-0.2989
-0.292092
-0.283321
-0.273729
-0.263538
-0.252655
-0.241012
-0.229054
-0.217241
-0.205811
-0.194924
-0.184782
-0.175631
-0.167649
-0.160842
-0.15504
-0.149988
-0.145495
-0.141399
-0.148223
-0.151306
-0.153748
-0.155313
-0.156648
-0.157796
-0.159108
-0.160699
-0.16208
-0.163202
-0.164171
-0.144486
-0.140935
-0.137637
-0.0130558
-0.0129812
-0.0126213
-0.0125492
-0.01212
-0.0115074
-0.0119991
-0.0124716
-0.0123744
-0.0129104
-0.012803
-0.0113012
-0.0101826
-0.00957357
-0.0092122
-0.00887208
-0.00853973
-0.00822176
-0.00791606
-0.00764251
-0.00739667
-0.00716972
-0.00695741
-0.00672621
0.377312
0.451034
0.506702
0.42764
0.379223
-0.202825
-0.222012
0.135285
-0.521439
-0.465537
-0.43677
-0.347403
-0.424511
-0.311616
-0.301668
-0.292625
-0.282946
-0.273202
-0.263284
-0.252882
-0.241653
-0.230034
-0.21852
-0.207338
-0.196608
-0.186468
-0.177125
-0.168789
-0.161585
-0.155465
-0.150229
-0.145663
-0.141564
-0.137829
-0.144089
-0.146759
-0.148904
-0.150666
-0.151755
-0.152664
-0.154267
-0.155106
-0.15653
-0.157578
-0.158759
-0.140614
-0.137394
-0.134381
-0.012672
-0.0125999
-0.0122486
-0.0121857
-0.0117535
-0.0117008
-0.0115851
-0.0121265
-0.0120551
-0.0125331
-0.0124361
-0.0103969
-0.00969777
-0.00933622
-0.00897491
-0.00862264
-0.00828612
-0.00794853
-0.00763938
-0.00737041
-0.0071284
-0.0069086
-0.00669861
0.539838
0.554822
0.503888
0.460311
0.56839
0.515124
0.123268
-0.452656
-0.16823
-0.546687
-0.43873
-0.529481
-0.372162
-0.315375
-0.3484
-0.425446
-0.304385
-0.293463
-0.282832
-0.272789
-0.263042
-0.253103
-0.242247
-0.230927
-0.219691
-0.208755
-0.198212
-0.188158
-0.178746
-0.170166
-0.162595
-0.156101
-0.150585
-0.145863
-0.141712
-0.137981
-0.134561
-0.140227
-0.142819
-0.144699
-0.146509
-0.148479
-0.150115
-0.151606
-0.152309
-0.154376
-0.137091
-0.134154
-0.131387
-0.0122991
-0.0122357
-0.011919
-0.0118574
-0.0114326
-0.0106486
-0.0121528
-0.0117196
-0.0116618
-0.0121807
-0.0121076
-0.0098431
-0.0094895
-0.00910354
-0.00873386
-0.00838875
-0.00802326
-0.00767045
-0.00736618
-0.00710064
-0.00686849
-0.00665309
0.643276
0.614612
0.673823
0.665476
0.377247
0.205069
-0.551389
-0.463456
-0.554459
-0.440304
-0.37599
-0.326656
-0.306052
-0.313388
-0.351679
-0.420207
-0.434155
-0.294485
-0.283023
-0.272519
-0.26282
-0.253351
-0.242815
-0.231747
-0.220765
-0.210066
-0.199718
-0.189789
-0.180395
-0.17169
-0.163841
-0.15698
-0.151121
-0.146155
-0.141881
-0.138112
-0.134701
-0.131556
-0.136725
-0.138989
-0.140816
-0.142718
-0.144366
-0.145821
-0.146905
-0.148831
-0.147775
-0.150216
-0.151469
-0.152174
-0.154176
-0.133876
-0.131175
-0.128621
-0.0119826
-0.0119201
-0.0114807
-0.0114446
-0.0109987
-0.0100431
-0.0105934
-0.0110964
-0.0130771
-0.0117928
-0.0117282
-0.00966271
-0.00925219
-0.00886523
-0.00852368
-0.00814289
-0.0077397
-0.00739142
-0.0070957
-0.00684301
-0.00661537
-0.464938
-0.445372
-0.38735
-0.371034
-0.328427
-0.310008
-0.294984
-0.304042
-0.313755
-0.34695
-0.358762
-0.424287
-0.436342
-0.283677
-0.272432
-0.262645
-0.253666
-0.243384
-0.232511
-0.221757
-0.211282
-0.201127
-0.191335
-0.182004
-0.173262
-0.165244
-0.158086
-0.151874
-0.146597
-0.142119
-0.138252
-0.134816
-0.131686
-0.128784
-0.133551
-0.135599
-0.137254
-0.13878
-0.140475
-0.141668
-0.143428
-0.14456
-0.143547
-0.13092
-0.128416
-0.126088
-0.0116185
-0.0115411
-0.0106328
-0.0108783
-0.0104036
-0.0098553
-0.0101862
-0.0108291
-0.0107093
-0.011075
-0.0139147
-0.00941529
-0.00900582
-0.00868107
-0.00830785
-0.00784926
-0.00745122
-0.00711991
-0.00683638
-0.00658761
-0.386788
-0.37253
-0.333663
-0.325262
-0.311237
-0.29859
-0.284705
-0.291131
-0.304797
-0.30976
-0.319683
-0.347869
-0.358512
-0.272654
-0.262551
-0.254104
-0.243981
-0.233232
-0.222678
-0.212413
-0.20245
-0.192795
-0.183541
-0.174812
-0.166714
-0.159354
-0.152839
-0.147229
-0.142477
-0.13844
-0.134929
-0.13179
-0.128909
-0.126242
-0.130642
-0.132485
-0.134081
-0.135394
-0.13698
-0.138198
-0.139082
-0.140684
-0.139821
-0.141477
-0.143347
-0.128161
-0.125896
-0.123725
-0.0105802
-0.010438
-0.0100914
-0.00959649
-0.0099428
-0.0103459
-0.0102356
-0.00913204
-0.00886137
-0.00850058
-0.00800066
-0.00754652
-0.00717698
-0.00685988
-0.0065818
-0.333105
-0.325995
-0.31391
-0.309652
-0.299251
-0.285676
-0.273315
-0.29735
-0.303826
-0.306687
-0.308044
-0.321954
-0.262572
-0.254729
-0.244627
-0.233927
-0.223536
-0.213467
-0.203697
-0.194176
-0.184999
-0.176302
-0.168177
-0.160701
-0.153963
-0.148051
-0.142993
-0.138721
-0.135074
-0.131885
-0.129005
-0.126359
-0.123874
-0.127828
-0.129705
-0.13111
-0.132303
-0.1339
-0.134807
-0.135621
-0.137207
-0.136382
-0.138102
-0.138949
-0.140505
-0.139743
-0.125664
-0.123539
-0.121537
-0.0101824
-0.0101213
-0.00982694
-0.00924347
-0.00967034
-0.0100633
-0.00998043
-0.00903832
-0.00870736
-0.00818739
-0.00767514
-0.0072661
-0.00691894
-0.00660481
-0.316374
-0.309784
-0.300757
-0.29843
-0.289586
-0.274447
-0.28349
-0.26266
-0.292956
-0.297095
-0.304183
-0.306907
-0.306957
-0.2556
-0.245341
-0.234606
-0.224341
-0.214443
-0.204877
-0.195491
-0.186383
-0.177719
-0.169592
-0.162056
-0.155173
-0.149024
-0.143675
-0.139127
-0.135285
-0.131993
-0.129083
-0.126444
-0.123988
-0.121681
-0.127374
-0.125404
-0.129132
-0.130902
-0.131784
-0.132527
-0.133919
-0.133522
-0.134667
-0.135481
-0.137044
-0.136285
-0.123314
-0.121357
-0.119503
-0.00991919
-0.00986131
-0.00951225
-0.00898243
-0.00932979
-0.00979728
-0.00971086
-0.00919323
-0.00834874
-0.00783788
-0.00738085
-0.00701288
-0.00666188
-0.315958
-0.309821
-0.301007
-0.298677
-0.296954
-0.291242
-0.288136
-0.277939
-0.262888
-0.272926
-0.285711
-0.282489
-0.256688
-0.296551
-0.304513
-0.307036
-0.246124
-0.235295
-0.225096
-0.215335
-0.205992
-0.196746
-0.1877
-0.179065
-0.170942
-0.163374
-0.156402
-0.150086
-0.144493
-0.13967
-0.135589
-0.13214
-0.129159
-0.126504
-0.124069
-0.121791
-0.119641
-0.125137
-0.12653
-0.127795
-0.123043
-0.129129
-0.131118
-0.130535
-0.131682
-0.132208
-0.133617
-0.133722
-0.121139
-0.119333
-0.117595
-0.00962651
-0.00955291
-0.0091584
-0.0104694
-0.00906508
-0.00803194
-0.0094713
-0.00937351
-0.00848786
-0.00955962
-0.0080149
-0.00752313
-0.00713194
-0.00675653
-0.301207
-0.29902
-0.295724
-0.279133
-0.27682
-0.264677
-0.25779
-0.263316
-0.27518
-0.272461
-0.246952
-0.296647
-0.236026
-0.225821
-0.216126
-0.207037
-0.197941
-0.188954
-0.180345
-0.172226
-0.164636
-0.157605
-0.151175
-0.145397
-0.14033
-0.135999
-0.132349
-0.129251
-0.126552
-0.124121
-0.121867
-0.119748
-0.11773
-0.122717
-0.124181
-0.125577
-0.12608
-0.126725
-0.12732
-0.12797
-0.120877
-0.128753
-0.129439
-0.129923
-0.130941
-0.131619
-0.13205
-0.133706
-0.119132
-0.117431
-0.115812
-0.0092784
-0.0092089
-0.00977633
-0.00811985
-0.00919017
-0.00917827
-0.00935387
-0.00914665
-0.00892746
-0.00817471
-0.00862593
-0.0076893
-0.00726513
-0.00688273
-0.269049
-0.26177
-0.260285
-0.24777
-0.256129
-0.265736
-0.262878
-0.236804
-0.226558
-0.216806
-0.207999
-0.199065
-0.190139
-0.181558
-0.173446
-0.165837
-0.15876
-0.152247
-0.146332
-0.141066
-0.1365
-0.13263
-0.129374
-0.126595
-0.124147
-0.12191
-0.119821
-0.117835
-0.115944
-0.120573
-0.121932
-0.123012
-0.123744
-0.124256
-0.125382
-0.125417
-0.11891
-0.130059
-0.130824
-0.117238
-0.115653
-0.114138
-0.00935822
-0.00883399
-0.00944365
-0.00914064
-0.00940741
-0.00843788
-0.00785529
-0.00825415
-0.00879623
-0.00740485
-0.00702723
-0.260408
-0.261129
-0.259617
-0.250823
-0.237582
-0.245907
-0.257708
-0.25528
-0.266273
-0.262782
-0.22736
-0.217382
-0.208876
-0.200098
-0.191237
-0.182697
-0.174602
-0.166976
-0.159859
-0.15328
-0.147258
-0.141834
-0.137062
-0.132973
-0.129533
-0.126639
-0.124147
-0.121916
-0.119856
-0.117907
-0.116047
-0.114267
-0.118677
-0.119838
-0.120858
-0.121571
-0.122114
-0.122584
-0.123126
-0.123736
-0.12412
-0.125404
-0.117012
-0.115465
-0.11398
-0.112565
-0.00948874
-0.00937343
-0.00928043
-0.00949227
-0.00916846
-0.00855805
-0.00806758
-0.00755236
-0.00791932
-0.00835589
-0.00884461
-0.00898159
-0.00716865
-0.261066
-0.259742
-0.252146
-0.249895
-0.240655
-0.228208
-0.235795
-0.247701
-0.245035
-0.25805
-0.255773
-0.217876
-0.209678
-0.201022
-0.19222
-0.183743
-0.175683
-0.168051
-0.160901
-0.154265
-0.148155
-0.142597
-0.137649
-0.133355
-0.12972
-0.126683
-0.124119
-0.121879
-0.119846
-0.117938
-0.116117
-0.11437
-0.112691
-0.116747
-0.118017
-0.118898
-0.119482
-0.119988
-0.120464
-0.120975
-0.121526
-0.122057
-0.122486
-0.122971
-0.11524
-0.113794
-0.112415
-0.111075
-0.00950782
-0.00935434
-0.00955382
-0.00923195
-0.00870515
-0.00858765
-0.00816454
-0.00774253
-0.00729504
-0.00763131
-0.00800795
-0.00837878
-0.00848047
-0.00890776
-0.00905576
-0.252032
-0.250026
-0.241969
-0.239664
-0.231059
-0.218357
-0.226452
-0.237509
-0.23495
-0.248021
-0.245525
-0.210415
-0.201833
-0.19307
-0.184675
-0.176671
-0.169051
-0.161882
-0.1552
-0.149012
-0.143338
-0.138231
-0.13375
-0.129922
-0.126719
-0.124054
-0.121786
-0.119778
-0.117917
-0.116145
-0.114439
-0.112793
-0.1112
-0.114983
-0.116076
-0.116993
-0.117522
-0.118311
-0.118477
-0.118962
-0.119421
-0.119933
-0.120365
-0.120832
-0.113579
-0.112243
-0.110928
-0.109665
-0.00943188
-0.00930676
-0.0087639
-0.00863867
-0.00827782
-0.00818921
-0.0078402
-0.00745883
-0.00737438
-0.00771154
-0.00803637
-0.00810852
-0.00842777
-0.00852764
-0.00897004
-0.00911931
-0.241822
-0.239751
-0.232226
-0.230041
-0.221556
-0.211119
-0.216291
-0.228077
-0.225614
-0.237788
-0.235388
-0.202533
-0.19379
-0.185482
-0.17755
-0.169959
-0.162787
-0.156081
-0.14983
-0.144047
-0.138795
-0.134138
-0.13012
-0.126739
-0.123944
-0.121623
-0.119628
-0.117819
-0.116114
-0.114464
-0.112862
-0.111301
-0.109789
-0.113337
-0.114346
-0.115287
-0.115781
-0.116215
-0.116609
-0.117066
-0.117307
-0.118499
-0.118207
-0.118808
-0.112056
-0.110761
-0.109521
-0.108327
-0.00881532
-0.00868528
-0.00832322
-0.00823435
-0.00794289
-0.00787776
-0.00755729
-0.00743457
-0.00774774
-0.00779999
-0.00808016
-0.00815334
-0.00847384
-0.00856743
-0.232073
-0.230102
-0.222938
-0.220649
-0.213612
-0.203114
-0.209579
-0.218677
-0.214614
-0.228305
-0.226022
-0.19441
-0.18617
-0.178313
-0.170758
-0.1636
-0.156897
-0.150607
-0.144724
-0.139331
-0.134509
-0.130303
-0.126734
-0.123784
-0.121375
-0.119371
-0.117616
-0.115994
-0.114425
-0.112887
-0.111372
-0.10989
-0.10845
-0.111856
-0.112743
-0.113534
-0.114168
-0.115119
-0.115409
-0.11573
-0.116158
-0.116522
-0.116925
-0.11722
-0.118536
-0.110569
-0.109357
-0.108185
-0.107054
-0.00836497
-0.00827695
-0.0079905
-0.00791891
-0.00765459
-0.00760792
-0.00748838
-0.00751915
-0.00778733
-0.00784621
-0.00812268
-0.00819027
-0.222765
-0.220852
-0.215089
-0.212766
-0.205439
-0.194951
-0.201417
-0.210848
-0.208748
-0.219941
-0.214025
-0.18676
-0.178975
-0.171449
-0.164304
-0.157632
-0.151338
-0.145369
-0.139839
-0.134856
-0.130468
-0.126705
-0.123574
-0.121037
-0.118989
-0.117275
-0.115746
-0.114284
-0.11284
-0.111396
-0.109962
-0.108552
-0.107176
-0.11035
-0.111268
-0.112098
-0.112576
-0.113372
-0.113922
-0.114498
-0.114325
-0.115256
-0.115666
-0.116082
-0.116469
-0.116848
-0.109166
-0.108023
-0.106916
-0.105838
-0.00803222
-0.0079582
-0.00770534
-0.00764593
-0.00737683
-0.00752556
-0.00757357
-0.00782713
-0.00788431
-0.216156
-0.212816
-0.206472
-0.204561
-0.197362
-0.187277
-0.19308
-0.202689
-0.200621
-0.211055
-0.208996
-0.213211
-0.179547
-0.172055
-0.164897
-0.158271
-0.152014
-0.145978
-0.140321
-0.13518
-0.130613
-0.126653
-0.123323
-0.120619
-0.118476
-0.116766
-0.115324
-0.113993
-0.112681
-0.111345
-0.109987
-0.108625
-0.107279
-0.105959
-0.10895
-0.109813
-0.110532
-0.11112
-0.112051
-0.112262
-0.112668
-0.113469
-0.113074
-0.114643
-0.115173
-0.10784
-0.106763
-0.105702
-0.104676
-0.00774881
-0.00768094
-0.00744362
-0.00756433
-0.00761398
-0.215892
-0.212806
-0.206455
-0.204633
-0.198407
-0.196479
-0.189463
-0.18003
-0.185765
-0.194364
-0.191442
-0.202879
-0.200896
-0.211112
-0.209173
-0.172609
-0.165396
-0.15881
-0.15263
-0.146545