/*--------------------------------*- C++ -*----------------------------------*\
| =========                 |                                                 |
| \\      /  F ield         | OpenFOAM: The Open Source CFD Toolbox           |
|  \\    /   O peration     | Version:  v1912                                 |
|   \\  /    A nd           | Website:  www.openfoam.com                      |
|    \\/     M anipulation  |                                                 |
\*---------------------------------------------------------------------------*/
FoamFile
{
    version     2.0;
    format      ascii;
    class       volScalarField;
    location    "200";
    object      p;
}
// * * * * * * * * * * * * * * * * * * * * * * * * * * * * * * * * * * * * * //

dimensions      [0 2 -2 0 0 0 0];


internalField   nonuniform List<scalar> 
3754
(
-0.00734997
-0.00733158
-0.00707998
-0.00729365
-0.00706239
-0.00680915
-0.00726027
-0.00702322
-0.00679258
-0.00655382
-0.00723911
-0.00698904
-0.00675679
-0.00653824
-0.0063034
-0.00723647
-0.00696497
-0.00672571
-0.00650171
-0.00628834
-0.00606076
-0.00726115
-0.00695812
-0.00670065
-0.0064675
-0.0062539
-0.0060455
-0.00582886
-0.00732287
-0.00697481
-0.00668834
-0.00644207
-0.0062244
-0.00601182
-0.00581408
-0.00560224
-0.00742353
-0.00702278
-0.00669732
-0.00643083
-0.00620235
-0.00598312
-0.00578038
-0.00558813
-0.00538265
-0.0075647
-0.00710741
-0.00673316
-0.00644006
-0.00619222
-0.00596127
-0.00575078
-0.00555576
-0.00536924
-0.00517124
-0.00774174
-0.00723037
-0.00679784
-0.00647334
-0.00620198
-0.00595415
-0.00572956
-0.00552877
-0.00533732
-0.00515684
-0.00496644
-0.00793671
-0.00739235
-0.00688647
-0.00653194
-0.00623768
-0.00596788
-0.00572334
-0.00551
-0.00530877
-0.00512607
-0.00495328
-0.00476317
-0.00810548
-0.00760246
-0.00699734
-0.0066164
-0.00630373
-0.00600613
-0.00573841
-0.00550374
-0.00529
-0.00510204
-0.00492239
-0.00475054
-0.00456778
-0.00820189
-0.00784006
-0.00820553
-0.00712823
-0.00672452
-0.00639949
-0.00607324
-0.00577937
-0.00551812
-0.00528641
-0.00508374
-0.00489432
-0.00472103
-0.00455587
-0.00437484
-0.00825237
-0.0081442
-0.0072883
-0.00776981
-0.00818925
-0.00685326
-0.00651981
-0.00616896
-0.00584835
-0.00555784
-0.0053021
-0.00507751
-0.00487657
-0.00469754
-0.00452665
-0.00436402
-0.00418833
-0.00831399
-0.00837214
-0.00750972
-0.00700985
-0.00735266
-0.00787011
-0.00818913
-0.00819053
-0.0066562
-0.00629051
-0.005945
-0.00562626
-0.00534351
-0.00509274
-0.00487419
-0.00468142
-0.00450181
-0.00433662
-0.0041767
-0.0040095
-0.00834669
-0.00809673
-0.00871864
-0.00757316
-0.00725343
-0.00680442
-0.00709451
-0.0074585
-0.00782171
-0.00792003
-0.00813248
-0.00824349
-0.0064316
-0.00606401
-0.00572269
-0.00541312
-0.00513378
-0.00489011
-0.00467825
-0.00448547
-0.00431455
-0.00415
-0.00399938
-0.00382871
-0.00839497
-0.00768114
-0.00926033
-0.00771399
-0.00762387
-0.00733776
-0.00700069
-0.00657759
-0.00685834
-0.00719229
-0.00750823
-0.00759113
-0.00779351
-0.00741205
-0.00825001
-0.00831349
-0.00620076
-0.00584331
-0.00550837
-0.00520142
-0.00493075
-0.00469412
-0.00448233
-0.00429985
-0.00412895
-0.00397207
-0.00381867
-0.00365698
-0.0077686
-0.00999088
-0.00774624
-0.0076943
-0.00744102
-0.00736127
-0.00707566
-0.00675718
-0.00634835
-0.00662235
-0.00694303
-0.00721681
-0.00730115
-0.00756542
-0.00762809
-0.00597895
-0.0056228
-0.00529541
-0.00499816
-0.00473305
-0.00449881
-0.0042981
-0.00411586
-0.00395044
-0.00379447
-0.00364697
-0.00348463
-0.00747383
-0.00740361
-0.00717131
-0.0070928
-0.00682718
-0.00652317
-0.00612315
-0.00639661
-0.00670489
-0.00696875
-0.00704083
-0.0072626
-0.00732878
-0.00575421
-0.00541322
-0.0050907
-0.00479727
-0.00453944
-0.00431518
-0.00411583
-0.00393893
-0.0037761
-0.00362117
-0.00347581
-0.0033146
-0.00720482
-0.00712886
-0.00691196
-0.00685208
-0.00659101
-0.00629264
-0.0058974
-0.00617234
-0.006477
-0.00673364
-0.0068002
-0.00700509
-0.00707746
-0.00554579
-0.00520237
-0.00488742
-0.00460582
-0.00435327
-0.00413298
-0.00394027
-0.00376481
-0.00360151
-0.00345244
-0.00330749
-0.00315394
-0.00694606
-0.00688742
-0.00667677
-0.00661632
-0.00636272
-0.00606736
-0.00568461
-0.0059491
-0.00624682
-0.00650567
-0.00656727
-0.0067679
-0.00683876
-0.00532885
-0.00499948
-0.00469463
-0.00441595
-0.00417264
-0.00395873
-0.0037676
-0.00359219
-0.00343499
-0.00328522
-0.00314476
-0.00299164
-0.00671451
-0.00665054
-0.006445
-0.00639342
-0.00614092
-0.00584528
-0.00546577
-0.00573606
-0.00602314
-0.00627364
-0.00633852
-0.00654206
-0.0066028
-0.00512718
-0.0048033
-0.00450372
-0.00423449
-0.0039984
-0.00378887
-0.00359764
-0.00342666
-0.00326846
-0.003121
-0.00298474
-0.00283316
-0.0064806
-0.00643058
-0.00622498
-0.00616421
-0.00591552
-0.00562775
-0.00526296
-0.00551901
-0.00580699
-0.00605533
-0.00610986
-0.00631081
-0.00637281
-0.00492677
-0.00461142
-0.00431769
-0.00405974
-0.0038295
-0.00362165
-0.0034337
-0.00326176
-0.00310455
-0.00296249
-0.00282574
-0.00267932
-0.00625945
-0.00619776
-0.00599781
-0.00594175
-0.0057001
-0.00541799
-0.00505792
-0.00531368
-0.00559175
-0.00583286
-0.00589347
-0.00609202
-0.00614607
-0.00473274
-0.00442199
-0.0041426
-0.00389163
-0.00366744
-0.00346058
-0.00326917
-0.00309663
-0.00294536
-0.00280389
-0.00267299
-0.00252773
-0.00603089
-0.00597635
-0.00578241
-0.00572671
-0.00548507
-0.00521095
-0.00486306
-0.00511102
-0.00538333
-0.00562444
-0.00567014
-0.0058677
-0.00592935
-0.00454229
-0.0042431
-0.00397282
-0.00373225
-0.00350882
-0.00329702
-0.00310508
-0.00293748
-0.00278721
-0.0026521
-0.00252167
-0.00237866
-0.00581413
-0.00576635
-0.00556353
-0.00551238
-0.00527776
-0.00501003
-0.00467051
-0.004916
-0.00518068
-0.00541207
-0.00546368
-0.00565812
-0.00569987
-0.00435889
-0.00407011
-0.00381338
-0.00357735
-0.00335041
-0.00313425
-0.00294324
-0.00277936
-0.00263739
-0.00250133
-0.00237277
-0.00223193
-0.00559783
-0.00554828
-0.00535756
-0.0053042
-0.00507501
-0.00481671
-0.00448511
-0.00472268
-0.00498316
-0.00520988
-0.00525594
-0.00544415
-0.00549507
-0.00418146
-0.00390681
-0.00366242
-0.00342754
-0.00318771
-0.00296926
-0.00278458
-0.00263038
-0.00248779
-0.00235377
-0.00222702
-0.00208995
-0.00539526
-0.00533691
-0.00515433
-0.00510054
-0.00488396
-0.0046258
-0.004304
-0.00453841
-0.00478702
-0.00500848
-0.00505818
-0.00524389
-0.00528317
-0.00401179
-0.00375734
-0.00352276
-0.0032684
-0.00301903
-0.00280686
-0.00263504
-0.00248233
-0.0023414
-0.00220867
-0.00208553
-0.00194767
-0.00519173
-0.00513149
-0.00495969
-0.00490988
-0.00469105
-0.00444302
-0.00413079
-0.00435921
-0.00460168
-0.00481341
-0.00486414
-0.00504154
-0.00508556
-0.00385628
-0.00362235
-0.00337394
-0.00309549
-0.00284905
-0.0026555
-0.00249021
-0.00233766
-0.0021968
-0.00206831
-0.0019432
-0.00180888
-0.00499633
-0.00493842
-0.00476271
-0.00471878
-0.00450674
-0.00426275
-0.00396438
-0.00419025
-0.00442168
-0.00462972
-0.00467167
-0.00484827
-0.00489497
-0.00371435
-0.00349975
-0.00319937
-0.00291199
-0.00269313
-0.00251327
-0.00234755
-0.00219625
-0.00205907
-0.00192658
-0.00180537
-0.00166744
-0.00479427
-0.00474845
-0.00457868
-0.00453125
-0.00432752
-0.00409112
-0.00380491
-0.00402735
-0.00424824
-0.00444787
-0.00449277
-0.00466358
-0.00469972
-0.00361791
-0.00333393
-0.00299212
-0.00274702
-0.00255415
-0.00237541
-0.00220981
-0.00205957
-0.00191978
-0.0017897
-0.00166589
-0.00152797
-0.00461002
-0.00455901
-0.00439671
-0.00435548
-0.00415827
-0.00392478
-0.00369016
-0.00387279
-0.00408173
-0.00427645
-0.00431159
-0.00447961
-0.0045231
-0.00350475
-0.00308776
-0.00281447
-0.00261203
-0.0024218
-0.00224108
-0.00207523
-0.00192429
-0.00178275
-0.00165243
-0.0015262
-0.00138954
-0.0044275
-0.00438406
-0.0042254
-0.00418503
-0.00399583
-0.00377309
-0.00368592
-0.00373007
-0.00392333
-0.00410935
-0.00414495
-0.00430965
-0.00433751
-0.00320552
-0.00288926
-0.00268499
-0.00248642
-0.00229086
-0.00210948
-0.00194348
-0.00178866
-0.00164857
-0.00151367
-0.00138959
-0.00124933
-0.00425501
-0.0042109
-0.00406191
-0.0040298
-0.0038376
-0.00371176
-0.00333818
-0.00381902
-0.00373715
-0.00395568
-0.00398218
-0.00413948
-0.00417208
-0.00297086
-0.00277207
-0.00256785
-0.00235861
-0.0021621
-0.00198032
-0.00181176
-0.00165781
-0.00151301
-0.00137942
-0.00125147
-0.00110827
-0.00409175
-0.00405618
-0.00390718
-0.00388229
-0.00366548
-0.00351083
-0.00308064
-0.00330436
-0.00403843
-0.00380016
-0.00381676
-0.00398139
-0.00401256
-0.00286668
-0.00266259
-0.00244164
-0.00223269
-0.00203726
-0.00185424
-0.0016839
-0.00152706
-0.00138127
-0.00124266
-0.00111043
-0.000966253
-0.00394063
-0.00390797
-0.0036924
-0.00362841
-0.00355816
-0.00326146
-0.00297168
-0.00317015
-0.0033465
-0.00438994
-0.00348124
-0.00383566
-0.00386751
-0.00276544
-0.00253617
-0.00231737
-0.00211116
-0.00191523
-0.00173059
-0.00155963
-0.00139699
-0.0012466
-0.00110306
-0.000971061
-0.00082234
-0.00377305
-0.00367399
-0.00329143
-0.00346858
-0.00332456
-0.00312038
-0.00286674
-0.00303184
-0.0032468
-0.00341428
-0.00346009
-0.00504616
-0.0035255
-0.00263907
-0.00241176
-0.00219818
-0.00199138
-0.00179574
-0.00161066
-0.0014326
-0.00126852
-0.00111132
-0.00096655
-0.000828171
-0.000673423
-0.00340797
-0.0033577
-0.00317348
-0.00298403
-0.00274155
-0.00290345
-0.00309371
-0.00326458
-0.00332122
-0.00251075
-0.00229308
-0.00207968
-0.00187611
-0.00167993
-0.00149016
-0.00131125
-0.00113859
-0.000978391
-0.000825904
-0.000681844
-0.000522759
-0.00322962
-0.00318681
-0.00302981
-0.00285198
-0.00261293
-0.00277827
-0.00296068
-0.00311195
-0.00315292
-0.00239159
-0.00217485
-0.00196664
-0.00176433
-0.00156627
-0.00137524
-0.00118759
-0.00100938
-0.000841315
-0.000682096
-0.000533434
-0.000367317
-0.00307915
-0.00304562
-0.00289725
-0.00272267
-0.00249176
-0.00265284
-0.00283354
-0.00298347
-0.00301896
-0.0022734
-0.00206153
-0.00185615
-0.00165544
-0.00145722
-0.00125862
-0.00106537
-0.000878971
-0.000702267
-0.000536635
-0.00038046
-0.000208384
-0.00294893
-0.00291528
-0.00276914
-0.00259937
-0.00237127
-0.00253181
-0.00270627
-0.00285288
-0.00288703
-0.00215787
-0.00195135
-0.00175199
-0.00155068
-0.00134931
-0.00114586
-0.000943617
-0.000747129
-0.000561496
-0.000386962
-0.000223626
-4.20415e-05
-0.00282062
-0.00278874
-0.00264693
-0.00247501
-0.00225474
-0.0024122
-0.00258419
-0.0027267
-0.00276133
-0.00204767
-0.00184912
-0.00164927
-0.0014508
-0.00124479
-0.00103247
-0.000820711
-0.000613871
-0.000417673
-0.000232515
-6.07935e-05
0.000129196
-0.00269573
-0.00266604
-0.00252201
-0.00235716
-0.00214234
-0.00229618
-0.00246154
-0.00261029
-0.00263576
-0.00194328
-0.00174748
-0.00155577
-0.00135384
-0.00114102
-0.000920697
-0.000696919
-0.00047766
-0.000268431
-7.4091e-05
0.000108575
0.000306852
-0.00257232
-0.00254191
-0.00240438
-0.00224163
-0.00203574
-0.00218386
-0.00234498
-0.0024815
-0.00251314
-0.00184185
-0.00165624
-0.00146424
-0.00125933
-0.00103942
-0.000809146
-0.000571701
-0.000338891
-0.00011621
9.20661e-05
0.000284064
0.00049108
-0.00245399
-0.00242253
-0.00228715
-0.00213181
-0.00193141
-0.00207552
-0.00223284
-0.00236519
-0.00239467
-0.00174983
-0.00156982
-0.00137669
-0.00116608
-0.000939929
-0.000697313
-0.00044676
-0.000195525
4.28675e-05
0.000264672
0.000469042
0.000679101
-0.00233532
-0.00230581
-0.00217541
-0.00202463
-0.00183618
-0.00197081
-0.00212263
-0.00225375
-0.002283
-0.00166521
-0.00148797
-0.00129045
-0.00107682
-0.000842899
-0.000586626
-0.000316604
-4.66289e-05
0.00020999
0.000445797
0.000664241
0.000884374
-0.00222244
-0.00219379
-0.00206834
-0.0019234
-0.00175067
-0.00187088
-0.00201691
-0.00214107
-0.00217066
-0.00158825
-0.00140609
-0.00120663
-0.000992816
-0.000747234
-0.000474075
-0.000181959
0.000107973
0.000383198
0.000642446
0.000876476
0.00107601
-0.00211368
-0.00208717
-0.00196466
-0.00182643
-0.00167242
-0.00178209
-0.0019141
-0.00203766
-0.00206156
-0.00151113
-0.00132176
-0.0011324
-0.000911343
-0.000652952
-0.000359148
-4.49198e-05
0.000270469
0.000577156
0.000842952
0.00117056
0.000446312
-0.00200901
-0.00198467
-0.00186211
-0.00176332
-0.0015954
-0.00182244
-0.00179932
-0.00193835
-0.00196133
-0.00142306
-0.00125209
-0.00106206
-0.000834247
-0.000559177
-0.000241182
0.00010022
0.000451814
0.000757046
0.00118727
0.000536925
-0.00191055
-0.00188742
-0.00172927
-0.00166591
-0.00151064
-0.00162153
-0.00251812
-0.00202493
-0.00183647
-0.00186223
-0.00135171
-0.00118842
-0.000998515
-0.000758976
-0.00046328
-0.000120059
0.000260579
0.000610057
0.00110014
0.000566495
-0.00181028
-0.00178929
-0.00102846
-0.00181709
-0.00173446
-0.00158625
-0.00143514
-0.00154447
-0.00169507
-0.00165323
-0.0017443
-0.00128938
-0.00113379
-0.000938762
-0.000686026
-0.000367728
1.48903e-05
0.000397648
0.0009274
0.000508806
-0.00160708
-0.00180158
-0.00175803
-0.00163101
-0.00160017
-0.00150637
-0.00137052
-0.00147146
-0.0015849
-0.00155744
-0.00171928
-0.00168278
-0.00180794
-0.00123826
-0.00108415
-0.000884486
-0.000613558
-0.000261903
0.000128627
0.000672754
0.000392188
-0.00182736
-0.00178531
-0.00165042
-0.00162038
-0.0015408
-0.00152159
-0.00143713
-0.00131755
-0.00140827
-0.00150528
-0.00148659
-0.00160151
-0.00157711
-0.00174207
-0.00170725
-0.00119288
-0.0010438
-0.000831886
-0.00053703
-0.000171932
0.000349657
0.000235163
-0.00166676
-0.00163881
-0.0015566
-0.00154108
-0.00147133
-0.00145323
-0.00137781
-0.00127282
-0.00135353
-0.00143993
-0.00142501
-0.00152133
-0.00150399
-0.00161624
-0.00159464
-0.00115967
-0.00100595
-0.0007805
-0.000467972
-1.15791e-05
5.59678e-05
-0.00157274
-0.00155736
-0.00148785
-0.00146998
-0.00140808
-0.0013933
-0.00132793
-0.00123916
-0.0013085
-0.00138344
-0.00136764
-0.00145696
-0.00144171
-0.00153713
-0.00152043
-0.00113128
-0.000974545
-0.000728125
-0.000370162
-0.00012577
-0.00150301
-0.00148572
-0.00142435
-0.0014094
-0.00135433
-0.00134414
-0.00128695
-0.00121364
-0.00127415
-0.00133402
-0.00132187
-0.00139759
-0.00138404
-0.00147292
-0.00145563
-0.00111498
-0.000934016
-0.000686341
-0.000291164
-0.00144254
-0.00142433
-0.00136802
-0.00135953
-0.00131249
-0.00130129
-0.00125561
-0.00120501
-0.00124885
-0.00129601
-0.00128722
-0.00134599
-0.00133707
-0.00141024
-0.00139844
-0.00108866
-0.000936586
-0.000426079
-0.00138243
-0.00137156
-0.00132536
-0.00131509
-0.00127741
-0.00126951
-0.00123807
-0.00119756
-0.00124009
-0.00126777
-0.00125865
-0.00130699
-0.00130034
-0.00135864
-0.00135114
-0.00112482
-0.000527354
-0.00133708
-0.00132762
-0.00128998
-0.00128266
-0.0012519
-0.00125248
-0.00123057
-0.0012833
-0.00123104
-0.0012491
-0.00124916
-0.0012766
-0.00126926
-0.00131873
-0.00131074
-0.000599911
-0.00130309
-0.0012941
-0.00126331
-0.00126057
-0.00124333
-0.0012465
-0.00125688
-0.000712594
-0.00132141
-0.00124174
-0.00124137
-0.00125798
-0.00125455
-0.00128509
-0.00127942
-0.00127298
-0.00126765
-0.00125168
-0.00125215
-0.00124888
-0.00126204
-0.00135248
-0.000663295
-0.00129031
-0.00130986
-0.00124939
-0.00124876
-0.00126672
-0.00126166
-0.00125857
-0.00125626
-0.00125689
-0.00126623
-0.00134099
-0.00140981
-0.00136752
-0.000563936
-0.00128884
-0.00130794
-0.00125363
-0.00125234
-0.00125723
-0.00126555
-0.0013294
-0.00142568
-0.00152394
-0.000581075
-0.0012852
-0.00130711
-0.00133086
-0.00141945
-0.0016618
-0.000730131
-0.105075
-0.104905
-0.104089
-0.104134
-0.104723
-0.104547
-0.104054
-0.104057
-0.104366
-0.10478
-0.104749
-0.104863
-0.103862
-0.104112
-0.103897
-0.104339
-0.105071
-0.105142
-0.104947
-0.105107
-0.10367
-0.103934
-0.103698
-0.104217
-0.103857
-0.105874
-0.105183
-0.105543
-0.105163
-0.105364
-0.103451
-0.103711
-0.103492
-0.104342
-0.103365
-0.103485
-0.106028
-0.105992
-0.105294
-0.105392
-0.105612
-0.105584
-0.103263
-0.103539
-0.103293
-0.104451
-0.10351
-0.102561
-0.103048
-0.103322
-0.106165
-0.105826
-0.105398
-0.105781
-0.103072
-0.103113
-0.104552
-0.103632
-0.102703
-0.101735
-0.102319
-0.102682
-0.102921
-0.103138
-0.10628
-0.105494
-0.102874
-0.102908
-0.104646
-0.103738
-0.102834
-0.101887
-0.100872
-0.101417
-0.101873
-0.102427
-0.102452
-0.10255
-0.102745
-0.106383
-0.105587
-0.102667
-0.102705
-0.104738
-0.103838
-0.102953
-0.102038
-0.101048
-0.0999884
-0.100538
-0.101004
-0.10136
-0.101747
-0.101752
-0.10234
-0.10252
-0.10648
-0.105684
-0.102497
-0.104836
-0.103937
-0.103066
-0.102181
-0.10123
-0.100187
-0.0991274
-0.0996154
-0.100092
-0.100477
-0.100927
-0.101199
-0.101438
-0.101843
-0.101617
-0.101975
-0.102316
-0.10658
-0.105781
-0.104934
-0.104041
-0.10318
-0.102321
-0.101411
-0.100403
-0.0993196
-0.0980734
-0.0987035
-0.0992776
-0.099506
-0.0999906
-0.100305
-0.100553
-0.100983
-0.10075
-0.106679
-0.105858
-0.105009
-0.104143
-0.103296
-0.102459
-0.101589
-0.100629
-0.099555
-0.098339
-0.09695
-0.0976038
-0.0981892
-0.0985981
-0.0992769
-0.0992791
-0.0995555
-0.100065
-0.0998112
-0.106758
-0.105865
-0.10501
-0.104218
-0.103406
-0.102596
-0.101764
-0.100856
-0.0998233
-0.0986339
-0.0972671
-0.0957284
-0.0964443
-0.0970711
-0.0975003
-0.0980391
-0.0983187
-0.0985623
-0.0990393
-0.0992824
-0.10677
-0.105715
-0.104843
-0.104211
-0.103483
-0.102719
-0.10193
-0.101077
-0.100104
-0.0989606
-0.0976245
-0.0960904
-0.0943892
-0.0951729
-0.0958461
-0.0963265
-0.0969375
-0.0972778
-0.0975906
-0.0981057
-0.0978157
-0.098309
-0.0984374
-0.0994904
-0.106634
-0.105264
-0.104353
-0.104022
-0.103468
-0.102799
-0.102071
-0.101281
-0.100379
-0.0993048
-0.0980181
-0.0965079
-0.0947943
-0.0929334
-0.0937819
-0.094501
-0.0950316
-0.0956981
-0.0960753
-0.0964049
-0.0970023
-0.0966887
-0.0972296
-0.0975302
-0.0980469
-0.0977852
-0.106216
-0.104307
-0.103323
-0.103484
-0.103253
-0.102775
-0.102157
-0.101445
-0.100625
-0.0996407
-0.0984319
-0.0969702
-0.0952675
-0.0933751
-0.0913963
-0.0922794
-0.0930387
-0.0936158
-0.0943357
-0.0947516
-0.0951037
-0.095756
-0.0954226
-0.096013
-0.0963326
-0.0969297
-0.0966352
-0.105321
-0.102603
-0.101501
-0.102369
-0.10266
-0.102527
-0.102121
-0.101538
-0.100818
-0.0999343
-0.0988326
-0.0974554
-0.095794
-0.0938937
-0.0918533
-0.0898226
-0.0906941
-0.0914773
-0.0920898
-0.0928602
-0.0933083
-0.0936848
-0.0943928
-0.0940347
-0.0946756
-0.0950233
-0.0956743
-0.0953566
-0.103724
-0.099939
-0.0986656
-0.100414
-0.101445
-0.101868
-0.101834
-0.101487
-0.10092
-0.100158
-0.0991749
-0.0979206
-0.0963456
-0.0944726
-0.0923907
-0.0902509
-0.0880878
-0.0891335
-0.0898966
-0.0904734
-0.0912807
-0.0917679
-0.0921556
-0.092915
-0.09254
-0.0932208
-0.0935959
-0.0943057
-0.0939546
-0.101218
-0.0962105
-0.0947142
-0.0973901
-0.099337
-0.10054
-0.101095
-0.101152
-0.10085
-0.100269
-0.0994321
-0.0983122
-0.0968699
-0.0950788
-0.0929982
-0.0907681
-0.0885243
-0.0862857
-0.087322
-0.0882125
-0.0889931
-0.0897202
-0.0901309
-0.090531
-0.09134
-0.0909528
-0.0916699
-0.0920621
-0.0928199
-0.0924488
-0.0977015
-0.0914833
-0.0897233
-0.0932003
-0.0961053
-0.0982605
-0.0996335
-0.100318
-0.100457
-0.100177
-0.0995523
-0.0986034
-0.0973093
-0.0956517
-0.0936383
-0.09137
-0.0890183
-0.0867146
-0.0845252
-0.0855652
-0.0864024
-0.0870807
-0.0879899
-0.0885215
-0.0891684
-0.0897133
-0.0893534
-0.090007
-0.0904349
-0.0912432
-0.0908535
-0.0932296
-0.0859939
-0.0839485
-0.0879361
-0.0916601
-0.0948002
-0.0971624
-0.0987066
-0.0995145
-0.0997167
-0.0994309
-0.0987294
-0.0976324
-0.0961335
-0.0942431
-0.092016
-0.0895898
-0.0871678
-0.0848898
-0.0829514
-0.08389
-0.0846666
-0.0853413
-0.086194
-0.0867092
-0.087144
-0.0880261
-0.0875746
-0.0882269
-0.0893044
-0.0895482
-0.0890312
-0.0880216
-0.0800751
-0.0777448
-0.0818734
-0.086111
-0.0900828
-0.0934562
-0.0960239
-0.097732
-0.0986493
-0.0988922
-0.0985721
-0.0977597
-0.0964839
-0.0947588
-0.0926333
-0.0902142
-0.08768
-0.0852657
-0.08314
-0.0813821
-0.0825686
-0.0831284
-0.0836701
-0.0844816
-0.0849945
-0.0853965
-0.0862467
-0.0858319
-0.0865896
-0.0870269
-0.0878525
-0.0874486
-0.0881004
-0.0894866
-0.08239
-0.0740879
-0.0714973
-0.0753895
-0.0797573
-0.0842399
-0.088454
-0.092052
-0.094816
-0.0966776
-0.0976857
-0.0979438
-0.0975591
-0.0966065
-0.0951291
-0.0931713
-0.0908252
-0.088254
-0.0856828
-0.0833719
-0.0814964
-0.0810445
-0.0800815
-0.0816303
-0.0828923
-0.0833803
-0.0837336
-0.0845378
-0.0841543
-0.0848732
-0.0852914
-0.0861417
-0.0857173
-0.0864891
-0.0869214
-0.0877583
-0.0873564
-0.076672
-0.0683871
-0.0655849
-0.0688951
-0.0729997
-0.0775952
-0.0823117
-0.0867521
-0.0905625
-0.0935115
-0.095509
-0.0965834
-0.0968308
-0.0963556
-0.09524
-0.0935517
-0.0913716
-0.0888417
-0.0861774
-0.0836567
-0.0815499
-0.0800162
-0.0799948
-0.0807007
-0.081243
-0.0789572
-0.0817387
-0.083027
-0.08289
-0.0832488
-0.0836419
-0.0844441
-0.0840432
-0.0847744
-0.0851856
-0.0860344
-0.0856208
-0.0711987
-0.063308
-0.0603609
-0.0627914
-0.0662753
-0.0705748
-0.0753806
-0.0803091
-0.0849584
-0.0889649
-0.0920794
-0.0941878
-0.0953062
-0.0955204
-0.0949323
-0.0936432
-0.0917519
-0.0893812
-0.0867231
-0.084041
-0.081666
-0.0798728
-0.0787327
-0.0790066
-0.0797051
-0.0801603
-0.0804931
-0.0807181
-0.0810239
-0.0812985
-0.0780235
-0.0816357
-0.0819054
-0.081921
-0.0827947
-0.0831635
-0.0835539
-0.0843455
-0.0839539
-0.0662848
-0.0591404
-0.0561218
-0.0574492
-0.0600051
-0.0636389
-0.0681118
-0.0731017
-0.078218
-0.0830541
-0.0872331
-0.0904866
-0.0926846
-0.0938259
-0.093984
-0.0932736
-0.0918168
-0.089749
-0.0872404
-0.0845305
-0.0819289
-0.0798075
-0.0784084
-0.0776794
-0.0781767
-0.0788465
-0.0792391
-0.0795355
-0.0797379
-0.0799822
-0.0801895
-0.077375
-0.082189
-0.0827351
-0.0622132
-0.0560637
-0.053033
-0.0531665
-0.0545751
-0.0572298
-0.0609889
-0.0656052
-0.0707491
-0.076026
-0.08102
-0.0853428
-0.0887102
-0.0909745
-0.0921159
-0.0922111
-0.0913821
-0.0897802
-0.0875835
-0.0850082
-0.0823446
-0.0799477
-0.0781829
-0.0772314
-0.07693
-0.0776877
-0.0780978
-0.078445
-0.0787625
-0.0789169
-0.0791202
-0.0792886
-0.0768828
-0.0591703
-0.0540838
-0.0510782
-0.0500939
-0.0502809
-0.0517451
-0.0544736
-0.0583259
-0.0630515
-0.0683173
-0.0737216
-0.0788415
-0.0832769
-0.0867321
-0.0890402
-0.0901732
-0.0902061
-0.0892795
-0.0875781
-0.08532
-0.0827729
-0.0802754
-0.0782135
-0.0768982
-0.0764294
-0.0765205
-0.0770657
-0.0774963
-0.0780867
-0.0779858
-0.0782137
-0.0784189
-0.0785773
-0.0766817
-0.0571857
-0.0530378
-0.0500702
-0.0481873
-0.0472516
-0.0474722
-0.04897
-0.0517413
-0.0556515
-0.0604507
-0.0658023
-0.0712982
-0.0765086
-0.0810273
-0.0845436
-0.086882
-0.0880042
-0.0879935
-0.0870101
-0.0852716
-0.0830433
-0.0806407
-0.0784389
-0.0768334
-0.0760583
-0.076082
-0.0764977
-0.0767905
-0.0771938
-0.0773771
-0.0774438
-0.0775023
-0.0781798
-0.0777729
-0.0766507
-0.0561212
-0.0526629
-0.0497294
-0.0472326
-0.0454129
-0.0445142
-0.0447513
-0.046257
-0.0490393
-0.052971
-0.0578061
-0.0632045
-0.0687539
-0.0740201
-0.0785906
-0.0821504
-0.0845112
-0.0856378
-0.0856196
-0.0846385
-0.0829486
-0.0808578
-0.0787266
-0.0769524
-0.0759128
-0.0757435
-0.0762321
-0.0767914
-0.0765454
-0.0769899
-0.0772195
-0.0773909
-0.0774635
-0.0774566
-0.0775394
-0.0776246
-0.0775207
-0.0786319
-0.076607
-0.0557286
-0.0526869
-0.0497769
-0.0469334
-0.0445231
-0.0427614
-0.0418891
-0.0421262
-0.0436149
-0.0463752
-0.0502924
-0.0551241
-0.0605294
-0.0660932
-0.0713811
-0.0759791
-0.0795668
-0.0819586
-0.0831165
-0.0831422
-0.0822437
-0.0807046
-0.0788761
-0.0771482
-0.0759252
-0.0755315
-0.0759729
-0.0768172
-0.0772363
-0.0761083
-0.0766476
-0.0769955
-0.0771949
-0.0773095
-0.0773328
-0.0774446
-0.0775267
-0.077564
-0.0775799
-0.0776322
-0.0762804
-0.0557418
-0.052891
-0.0499933
-0.0470048
-0.0442697
-0.0419453
-0.0402384
-0.0393841
-0.0396056
-0.0410526
-0.0437607
-0.0476271
-0.0524155
-0.0577872
-0.0633286
-0.0686071
-0.0732118
-0.0768268
-0.0792664
-0.0804995
-0.0806406
-0.079916
-0.0786453
-0.0772082
-0.0760109
-0.0754338
-0.0757095
-0.0766629
-0.0776489
-0.0775392
-0.0752071
-0.0759447
-0.0765301
-0.0768206
-0.0770221
-0.0770801
-0.0772487
-0.0773403
-0.0774095
-0.07745
-0.0775215
-0.0753038
-0.05594
-0.0531343
-0.0502416
-0.0472301
-0.0443652
-0.0417412
-0.0395042
-0.0378493
-0.0370065
-0.0371968
-0.0385807
-0.041208
-0.0449887
-0.0496953
-0.0549947
-0.0604787
-0.065721
-0.0703196
-0.0739665
-0.0764843
-0.0778507
-0.0781873
-0.0777461
-0.0768675
-0.0759473
-0.075383
-0.0754951
-0.0763749
-0.0776393
-0.0783985
-0.0772745
-0.0735057
-0.0745741
-0.075555
-0.0760052
-0.0763662
-0.0765305
-0.0768058
-0.0769645
-0.0771185
-0.0772004
-0.0773219
-0.0732608
-0.056176
-0.0540583
-0.0525803
-0.0511265
-0.0474781
-0.0497107
-0.044598
-0.041861
-0.0393506
-0.0372014
-0.0355973
-0.0347586
-0.0349068
-0.0362106
-0.0387323
-0.0423939
-0.0469822
-0.0521737
-0.0575689
-0.0627533
-0.0673398
-0.0710346
-0.0736703
-0.0752322
-0.0758591
-0.0758138
-0.0754479
-0.0751492
-0.0752768
-0.0760439
-0.0773591
-0.0785981
-0.0785944
-0.0759706
-0.0706402
-0.0721917
-0.073721
-0.0744164
-0.0750156
-0.075378
-0.0758428
-0.0761248
-0.0764216
-0.0766355
-0.0768449
-0.0697657
-0.0571185
-0.0555821
-0.0544857
-0.0537503
-0.0530539
-0.0523062
-0.0515334
-0.0508291
-0.0483219
-0.0448437
-0.0469705
-0.0501618
-0.0494463
-0.0420997
-0.0394929
-0.0370982
-0.0350378
-0.0334831
-0.0326463
-0.0327458
-0.0339548
-0.0363462
-0.0398612
-0.0442992
-0.04935
-0.0546288
-0.0597399
-0.0643145
-0.0680762
-0.0708719
-0.0727031
-0.073714
-0.0741741
-0.0744216
-0.0748124
-0.0756225
-0.076913
-0.0783758
-0.0791294
-0.0777838
-0.0732108
-0.0662992
-0.0684721
-0.0706851
-0.0716933
-0.0726257
-0.0732635
-0.0740027
-0.0744523
-0.0750098
-0.0754185
-0.0758151
-0.0645835
-0.0568003
-0.0560754
-0.0552968
-0.0544859
-0.0537721
-0.0531172
-0.0523862
-0.051533
-0.0508493
-0.0487091
-0.0480367
-0.0456464
-0.0423411
-0.0443609
-0.0473993
-0.0467169
-0.0502215
-0.0495214
-0.0397356
-0.0372612
-0.0349838
-0.0330132
-0.0315099
-0.0306735
-0.0307183
-0.0318213
-0.0340672
-0.0374115
-0.0416711
-0.0465532
-0.0516932
-0.0567163
-0.0612798
-0.0651284
-0.0681301
-0.070301
-0.071785
-0.072839
-0.0737657
-0.0748531
-0.0762506
-0.0778304
-0.0790327
-0.0787732
-0.0756241
-0.0686753
-0.0604064
-0.0631688
-0.0661446
-0.0675422
-0.0688469
-0.0698533
-0.0709328
-0.07161
-0.0725085
-0.0732022
-0.0738777
-0.0576164
-0.0568251
-0.0561443
-0.0553833
-0.0487091
-0.0480557
-0.0460143
-0.0453739
-0.0431021
-0.0399714
-0.0418832
-0.0447668
-0.044118
-0.0474555
-0.0467871
-0.037506
-0.0351652
-0.0330056
-0.0311276
-0.0296758
-0.0288413
-0.0288305
-0.0298221
-0.0319106
-0.0350664
-0.0391261
-0.0438166
-0.048797
-0.053718
-0.0582672
-0.0622208
-0.0654702
-0.0680395
-0.0700625
-0.0717634
-0.0733835
-0.0750975
-0.0768947
-0.0784203
-0.078889
-0.0771178
-0.0717725
-0.0621921
-0.0531565
-0.0562153
-0.059932
-0.0617625
-0.0634613
-0.0648831
-0.0663388
-0.0672995
-0.0685783
-0.0696504
-0.070658
-0.0488318
-0.0460145
-0.0453915
-0.0434503
-0.0428423
-0.0406901
-0.0377348
-0.0395381
-0.0422658
-0.0416512
-0.0448193
-0.0441831
-0.03541
-0.0332028
-0.0311628
-0.0293774
-0.0279811
-0.0271503
-0.0270866
-0.0279665
-0.0298927
-0.0328491
-0.0366904
-0.0411663
-0.0459647
-0.0507678
-0.0552986
-0.0593696
-0.062893
-0.0658955
-0.0684869
-0.0708392
-0.0730927
-0.075281
-0.0771923
-0.0782508
-0.0775182
-0.0737919
-0.0659798
-0.0538635
-0.0440611
-0.0484369
-0.0522877
-0.0543029
-0.0563854
-0.058253
-0.0600803
-0.0613186
-0.0630313
-0.0644968
-0.0658924
-0.0385584
-0.0434505
-0.0428581
-0.0410188
-0.040443
-0.0384109
-0.0356308
-0.0373257
-0.0398967
-0.0393165
-0.0423142
-0.0417109
-0.033446
-0.0313725
-0.0294512
-0.0277607
-0.0264215
-0.0256011
-0.0254896
-0.026263
-0.0280285
-0.0307798
-0.0343909
-0.0386309
-0.0432221
-0.047886
-0.0523869
-0.0565716
-0.0603708
-0.0638047
-0.0669463
-0.0698849
-0.0726393
-0.0750595
-0.0767275
-0.0768937
-0.0745239
-0.06855
-0.058259
-0.0440167
-0.0334091
-0.0382898
-0.0435247
-0.0463831
-0.0480145
-0.050013
-0.0521009
-0.0536302
-0.0557872
-0.0576757
-0.0594742
-0.0274836
-0.041019
-0.0404572
-0.0387198
-0.0381764
-0.0362642
-0.0336579
-0.0352452
-0.0376605
-0.0371146
-0.039941
-0.0393708
-0.0316119
-0.0296703
-0.0278677
-0.0262723
-0.0249952
-0.0241906
-0.0240417
-0.0247199
-0.0263291
-0.0288739
-0.0322405
-0.0362267
-0.0405861
-0.0450851
-0.0495315
-0.0538039
-0.0578464
-0.0616662
-0.0652788
-0.0686741
-0.0717111
-0.0740539
-0.0751013
-0.0739707
-0.0696715
-0.0613757
-0.0488923
-0.0331844
-0.0221814
-0.0272795
-0.0326812
-0.0354313
-0.0381765
-0.0408021
-0.0435204
-0.0463875
-0.046613
-0.048934
-0.051239
-0.0163034
-0.0387199
-0.0381889
-0.0365533
-0.0360421
-0.0342488
-0.031814
-0.0332951
-0.0355566
-0.0350446
-0.0377006
-0.0371635
-0.0299046
-0.0280932
-0.0264073
-0.0249082
-0.0236967
-0.022918
-0.0227457
-0.0233416
-0.024808
-0.0271461
-0.0302576
-0.0339682
-0.0380686
-0.0423697
-0.0467179
-0.0510235
-0.0552409
-0.0593502
-0.0632973
-0.0669429
-0.0699912
-0.0719226
-0.0719854
-0.0692779
-0.0629362
-0.0525158
-0.0384109
-0.0220377
-0.0110257
-0.0160351
-0.0214439
-0.0242837
-0.0270914
-0.029877
-0.032572
-0.0343637
-0.0371156
-0.0396313
-0.0420964
-0.04646
-0.00560567
-0.036553
-0.0360528
-0.0345182
-0.0340389
-0.0323629
-0.0300965
-0.0314734
-0.0335834
-0.0331049
-0.0355925
-0.0350882
-0.028321
-0.0266361
-0.0250655
-0.0236635
-0.0225231
-0.0217808
-0.0216004
-0.0221315
-0.0234639
-0.0255985
-0.0284497
-0.0318665
-0.0356766
-0.0397309
-0.0439181
-0.0481768
-0.0524627
-0.0567191
-0.0608055
-0.0644562
-0.0672158
-0.0684148
-0.067234
-0.0628158
-0.0545608
-0.0424859
-0.0274652
-0.0112388
-0.000568449
-0.00508984
-0.010232
-0.0130119
-0.0157681
-0.0185882
-0.0212866
-0.0231587
-0.0260445
-0.0287835
-0.0315124
-0.033329
-0.0360684
-0.0386566
-0.0409724
0.00404735
-0.0345175
-0.0340478
-0.0326128
-0.0321649
-0.0306041
-0.028502
-0.0297774
-0.0317391
-0.0312935
-0.0336153
-0.0331435
-0.0268565
-0.0252947
-0.0238376
-0.0225333
-0.0214699
-0.0207776
-0.0206058
-0.0210874
-0.0222985
-0.0242373
-0.0268212
-0.0299228
-0.033404
-0.0371533
-0.0411011
-0.0452076
-0.0494242
-0.0536467
-0.0576489
-0.0610389
-0.0632297
-0.0634597
-0.0608982
-0.0548532
-0.0450446
-0.0319151
-0.0167378
-0.00136415
0.00864671
0.00502245
0.000371116
-0.00218405
-0.00475325
-0.00745033
-0.0100318
-0.0118539
-0.0146983
-0.0174462
-0.0202115
-0.0220584
-0.0249356
-0.0277417
-0.0304581
0.0121069
-0.0326117
-0.0321721
-0.0308351
-0.030418
-0.0289696
-0.0270266