/*--------------------------------*- C++ -*----------------------------------*\
| =========                 |                                                 |
| \\      /  F ield         | OpenFOAM: The Open Source CFD Toolbox           |
|  \\    /   O peration     | Version:  v1912                                 |
|   \\  /    A nd           | Website:  www.openfoam.com                      |
|    \\/     M anipulation  |                                                 |
\*---------------------------------------------------------------------------*/
FoamFile
{
    version     2.0;
    format      ascii;
    class       volScalarField;
    location    "170";
    object      p;
}
// * * * * * * * * * * * * * * * * * * * * * * * * * * * * * * * * * * * * * //

dimensions      [0 2 -2 0 0 0 0];


internalField   nonuniform List<scalar> 
3753
(
-0.0158116
0.0135348
0.00700047
0.0382735
0.00622832
0.0172554
0.0606029
0.0146792
0.0192815
0.0258046
0.0843697
0.0313514
0.0241458
0.0264617
0.0152088
0.108471
0.0530878
0.0341519
0.0284726
0.0162866
0.00587458
0.131598
0.0772871
0.049676
0.0332221
0.0171592
0.00695417
0.000156573
0.153337
0.102497
0.0697691
0.0418113
0.0180572
0.00779883
0.0011898
-0.00580015
0.173549
0.12799
0.0932971
0.0544907
0.0194615
0.00826493
0.00220575
-0.00481203
-0.011146
0.192016
0.153354
0.119446
0.0709926
0.0216289
0.00843828
0.00311776
-0.00389386
-0.0102644
-0.0151415
0.208494
0.178237
0.147818
0.0910258
0.0244603
0.00840296
0.00397468
-0.00313698
-0.00947419
-0.0143747
-0.018177
0.22265
0.202298
0.17829
0.114566
0.0275905
0.00818279
0.00479659
-0.00250266
-0.00888927
-0.0136611
-0.0175119
-0.0205001
0.234132
0.225067
0.210915
0.141855
0.0305063
0.00771074
0.00557573
-0.00198654
-0.00848915
-0.0131071
-0.0168801
-0.0199296
-0.0221654
0.242507
0.245961
0.245767
0.173426
0.0325572
0.00685531
0.00626326
-0.0016017
-0.00827225
-0.0127018
-0.0163754
-0.0193829
-0.0216787
-0.0233153
0.24736
0.264146
0.282988
0.20992
0.0329982
0.00542109
0.00677047
-0.00138284
-0.00823474
-0.0124568
-0.0159874
-0.0189455
-0.0212027
-0.0229005
-0.0240582
0.248258
0.278586
0.322774
0.251661
0.0311279
0.00317806
0.0069667
-0.00139095
-0.00836641
-0.0123828
-0.0157347
-0.018607
-0.0208134
-0.0224905
-0.0237068
-0.0244411
0.244928
0.287981
0.364906
0.299249
0.0257038
0.000113657
0.00664458
-0.00169352
-0.00866227
-0.0124788
-0.0156403
-0.0183824
-0.0204985
-0.0221572
-0.0233554
-0.0241441
-0.0245511
0.237655
0.290341
0.40672
0.358073
0.0129777
-0.00337845
0.00555921
-0.00235642
-0.00910893
-0.0127417
-0.0157202
-0.0182938
-0.0202658
-0.0218913
-0.0230751
-0.0238385
-0.0243003
-0.0244726
0.227136
0.28236
0.440757
0.433307
-0.00663355
-0.00771283
0.00371746
-0.00344512
-0.00966383
-0.0131593
-0.0159833
-0.0183602
-0.0201275
-0.0217029
-0.0228654
-0.0235887
-0.0240325
-0.024259
-0.0242557
0.214163
0.268761
0.373194
0.373811
0.562005
0.619918
0.529677
0.0429535
0.393045
0.0196378
-0.0142371
-0.0463435
0.00152934
-0.00494269
-0.0102474
-0.0136948
-0.0164254
-0.0185961
-0.0200896
-0.0216079
-0.0227404
-0.0233939
-0.0238049
-0.024025
-0.0240729
-0.0239292
0.199611
0.249087
0.367307
0.349439
0.518361
0.604701
0.696996
0.545226
0.480476
0.622551
0.0755139
0.0800841
-0.0501856
-0.0345646
-0.0182313
-0.00126844
-0.0197263
-0.00652536
-0.0107897
-0.0142716
-0.0170166
-0.0190039
-0.0201475
-0.021616
-0.0227219
-0.0232692
-0.0236155
-0.0238231
-0.0238689
-0.0237727
-0.0235158
0.184419
0.226784
0.327123
0.300589
0.496533
0.470584
0.631933
0.63132
0.71205
0.636402
-0.0309395
-0.0505997
-0.0190159
-0.0526251
-0.00680359
-0.00773703
-0.00695693
-0.0228957
-0.0112869
-0.0147869
-0.0176942
-0.0195678
-0.0202794
-0.0217276
-0.0228294
-0.0232357
-0.0234758
-0.0236507
-0.0236947
-0.0235938
-0.0233803
-0.0230399
0.169553
0.205006
0.273505
0.239961
0.436978
0.392848
0.623738
0.608798
0.564934
0.590323
0.727414
0.72386
-0.055008
-0.027561
-0.0218895
-0.00871313
-0.00622814
-0.0118216
-0.0112588
-0.0106687
-0.00851381
-0.0238433
-0.0256167
-0.0151896
-0.0183697
-0.0202593
-0.0204449
-0.0219259
-0.0230742
-0.0233116
-0.0234044
-0.0235164
-0.023549
-0.023442
-0.0232207
-0.0229231
-0.0225175
0.155622
0.182028
0.225505
0.349534
0.318427
0.536125
0.502748
0.432946
0.475748
0.718309
0.696231
0.626674
0.670074
-0.0133044
-0.00875053
-0.00540579
-0.00615169
-0.00743325
-0.0110878
-0.0156502
-0.0135293
-0.00818767
-0.0149463
-0.00883547
-0.0188891
-0.0210839
-0.0205927
-0.0221754
-0.0234539
-0.0235056
-0.0234183
-0.0234348
-0.0234404
-0.0233196
-0.0230853
-0.0227798
-0.0224152
-0.0219717
0.143109
0.161625
0.166663
0.237809
0.178203
0.379925
0.328521
0.307792
0.579758
0.511918
0.475495
0.459806
-0.00742841
-0.00666635
-0.00774187
-0.00996441
-0.012274
-0.0153275
-0.0191308
-0.0173608
-0.0134499
-0.0143593
-0.00657778
-0.0174588
-0.00920254
-0.0221535
-0.0206837
-0.0224383
-0.0239409
-0.0238142
-0.0235278
-0.0234193
-0.0233834
-0.023237
-0.0229775
-0.0226551
-0.0222851
-0.0218826
-0.0214123
0.132203
0.145015
0.125952
0.0310758
0.0451063
0.0330329
-0.202692
0.412327
0.356321
-0.0280453
0.0431081
0.390226
-0.00717331
-0.00812037
-0.00814083
-0.0125285
-0.0152147
-0.0163695
-0.0187008
-0.0234415
-0.0202803
-0.0173344
-0.017982
-0.0136202
-0.0145147
-0.00701096
-0.0180566
-0.0207431
-0.0226945
-0.0244698
-0.0242219
-0.0237332
-0.0234759
-0.0233905
-0.0232088
-0.0229079
-0.022553
-0.0221698
-0.0217653
-0.0213331
-0.020841
0.122983
0.131265
0.0973045
0.013882
-0.863471
-0.724818
-0.421599
-0.17404
-0.746612
-0.716319
0.146985
0.079263
-0.01548
-0.0166023
-0.0186482
-0.0196591
-0.0240801
-0.0209569
-0.0232749
-0.0200295
-0.0204927
-0.0174821
-0.0180057
-0.0228333
-0.0250249
-0.0246831
-0.0240301
-0.0235992
-0.0234666
-0.0232488
-0.0228941
-0.022485
-0.0220718
-0.0216617
-0.0212274
-0.0207711
-0.0202631
0.115456
0.119776
0.0757837
0.00236176
-0.738329
-1.03257
-0.892227
-0.91447
-0.865322
-0.0189159
-0.0199148
-0.0205733
-0.0275506
-0.0216287
-0.0226418
-0.021696
-0.022613
-0.0233435
-0.0203064
-0.0204723
-0.0260562
-0.0251029
-0.0244202
-0.0237754
-0.0236078
-0.0233637
-0.0229521
-0.0224677
-0.0219989
-0.021575
-0.0211376
-0.0206756
-0.020201
-0.0196778
0.109614
0.110279
0.0599998
0.000990338
-0.595493
-0.625285
-0.943188
-0.853908
-0.856999
-0.679952
-0.0203184
-0.0286108
-0.0222115
-0.021865
-0.0225823
-0.0273846
-0.0234588
-0.0236696
-0.0220093
-0.0220552
-0.0255145
-0.027038
-0.0248969
-0.0239918
-0.0238006
-0.0235486
-0.0230914
-0.0225182
-0.0219624
-0.0215128
-0.0210686
-0.0205957
-0.0201124
-0.0196236
-0.0190998
0.105399
0.102643
0.0490367
-0.00251043
-0.478441
-0.591155
-0.471584
-0.603095
-0.85835
-0.673437
-0.022556
-0.0230774
-0.0259986
-0.023172
-0.0234833
-0.0239448
-0.0270441
-0.0258845
-0.0259439
-0.025432
-0.0260319
-0.0242447
-0.0240296
-0.0237873
-0.0233125
-0.02265
-0.0219734
-0.0214859
-0.0210285
-0.0205382
-0.0200385
-0.0195432
-0.019051
-0.0185233
0.10276
0.0967725
0.0418097
-0.00889952
-0.390571
-0.545001
-0.469592
-0.406395
-0.452717
-0.502649
-0.603262
-0.709169
-0.646554
-0.0264837
-0.0243527
-0.0273355
-0.026248
-0.0268987
-0.0263242
-0.0245587
-0.0252363
-0.026162
-0.024287
-0.0240546
-0.0236047
-0.0228708
-0.0220381
-0.0215045
-0.0210284
-0.0205118
-0.0199868
-0.019476
-0.0189742
-0.0184795
-0.0179469
0.101627
0.0926207
0.0373888
-0.0154513
-0.321367
-0.492368
-0.457985
-0.406376
-0.403433
-0.365357
-0.455957
-0.497368
-0.574901
-0.62586
-0.0271058
-0.0264782
-0.0265836
-0.0274753
-0.0264907
-0.0269998
-0.0249445
-0.0245969
-0.0249112
-0.0253001
-0.0261117
-0.026313
-0.0243206
-0.0239441
-0.0231838
-0.0221557
-0.0215736
-0.0210793
-0.0205301
-0.0199691
-0.0194307
-0.0189096
-0.0184076
-0.0179087
-0.0173907
0.101947
0.090138
0.0351663
-0.0209093
-0.268129
-0.439894
-0.437648
-0.401967
-0.365841
-0.363525
-0.390187
-0.414726
-0.330784
-0.443897
-0.465353
-0.508733
-0.480906
-0.571395
-0.617666
-0.0272181
-0.0268157
-0.0276504
-0.0265947
-0.0285878
-0.0257067
-0.0251516
-0.0249177
-0.0245905
-0.0249234
-0.0251654
-0.0253402
-0.0255005
-0.0249613
-0.0264862
-0.0242809
-0.0235963
-0.0223169
-0.0216945
-0.0211857
-0.0206022
-0.0199989
-0.0194184
-0.0188653
-0.0183449
-0.0178419
-0.0173557
-0.0168524
0.103658
0.089298
0.0347471
-0.0248719
-0.228557
-0.392921
-0.413618
-0.393074
-0.364737
-0.331655
-0.329368
-0.352765
-0.371035
-0.38575
-0.395678
-0.405167
-0.419002
-0.443235
-0.30283
-0.464977
-0.500975
-0.480828
-0.0270332
-0.0267293
-0.030049
-0.0246684
-0.0253964
-0.0253567
-0.0251223
-0.0248612
-0.024555
-0.0248699
-0.0251278
-0.0253027
-0.0253958
-0.0255204
-0.0254712
-0.0251472
-0.0267775
-0.0241262
-0.022511
-0.021865
-0.021348
-0.0207313
-0.0200829
-0.0194532
-0.0188537
-0.0182972
-0.017781
-0.0172937
-0.0168209
-0.0163145
0.106716
0.0900629
0.0358929
-0.0271369
-0.199292
-0.353276
-0.389347
-0.380993
-0.361397
-0.331812
-0.303637
-0.301595
-0.320622
-0.335529
-0.347927
-0.35697
-0.364844
-0.37373
-0.384812
-0.4412
-0.279589
-0.460189
-0.0307507
-0.025511
-0.0254868
-0.0252817
-0.0252698
-0.025062
-0.024741
-0.0247343
-0.0247679
-0.0250517
-0.0252592
-0.0252892
-0.0254022
-0.0254853
-0.0227362
-0.0220821
-0.0215589
-0.0209142
-0.020225
-0.0195472
-0.0188885
-0.0182759
-0.0177334
-0.0172387
-0.0167609
-0.0162855
-0.0157997
0.111062
0.0924164
0.0384563
-0.0276646
-0.177507
-0.320617
-0.366678
-0.367438
-0.355585
-0.330983
-0.304037
-0.280369
-0.278491
-0.294373
-0.306638
-0.319934
-0.329922
-0.338003
-0.348819
-0.356909
-0.363691
-0.370909
-0.259811
-0.025365
-0.0253521
-0.0252102
-0.0252207
-0.0249274
-0.0247343
-0.0230042
-0.0253802
-0.0248225
-0.0252
-0.0251996
-0.0253464
-0.0253705
-0.0223409
-0.0218097
-0.021142
-0.0204193
-0.0197055
-0.0189843
-0.0182954
-0.0177079
-0.0171962
-0.0167093
-0.0162309
-0.0157731
-0.0152939
0.116651
0.0963341
0.0423799
-0.0265128
-0.161255
-0.294158
-0.346426
-0.353906
-0.348029
-0.328815
-0.304025
-0.280913
-0.260545
-0.258746
-0.272263
-0.282812
-0.29394
-0.305117
-0.316028
-0.329401
-0.323292
-0.337375
-0.242901
-0.0252994
-0.0252984
-0.0250933
-0.0251214
-0.0246007
-0.023422
-0.0226552
-0.0231334
-0.0262654
-0.0250067
-0.0249852
-0.0252867
-0.0252868
-0.0220917
-0.0214022
-0.0206546
-0.019922
-0.0191503
-0.0183675
-0.0177127
-0.0171736
-0.0166736
-0.0161854
-0.0157225
-0.0152696
-0.0147995
0.12342
0.101805
0.0476587
-0.0237484
-0.149197
-0.273179
-0.328851
-0.341298
-0.339799
-0.325406
-0.303456
-0.281283
-0.261149
-0.243561
-0.241971
-0.252999
-0.262443
-0.27183
-0.281527
-0.290414
-0.296443
-0.307349
-0.301609
-0.328927
-0.335458
-0.228328
-0.0251984
-0.0252105
-0.0247352
-0.024167
-0.0233179
-0.0230864
-0.0223978
-0.0228697
-0.0233262
-0.0244849
-0.0278029
-0.0251181
-0.0251217
-0.0216819
-0.0209152
-0.0201815
-0.0193873
-0.0184997
-0.0177571
-0.017183
-0.0166615
-0.0161561
-0.0156806
-0.0152195
-0.0147775
-0.0143174
0.131306
0.108813
0.0543611
-0.0193808
-0.140445
-0.257075
-0.313971
-0.32998
-0.331696
-0.321224
-0.302244
-0.281459
-0.261728
-0.24415
-0.228924
-0.240662
-0.227574
-0.253097
-0.261422
-0.269055
-0.273787
-0.283265
-0.278117
-0.290127
-0.295579
-0.300793
-0.215397
-0.0250945
-0.0239286
-0.0236178
-0.02335
-0.0232782
-0.0227286
-0.0220008
-0.0225252
-0.0230693
-0.0234803
-0.0235719
-0.0285796
-0.0211784
-0.0204578
-0.0196895
-0.0186952
-0.017846
-0.0172314
-0.0166828
-0.0161506
-0.0156528
-0.0151777
-0.0147299
-0.0142976
-0.0138465
0.140222
0.117349
0.0625865
-0.0133536
-0.13444
-0.245386
-0.301727
-0.32005
-0.324144
-0.316758
-0.300504
-0.281363
-0.262313
-0.244783
-0.229464
-0.215962
-0.226624
-0.236214
-0.243863
-0.214704
-0.252656
-0.262987
-0.25836
-0.269478
-0.273358
-0.282322
-0.277849
-0.20405
-0.0234435
-0.0233473
-0.0228844
-0.0222584
-0.0214416
-0.0225855
-0.0227002
-0.0231333
-0.0232664
-0.0207148
-0.0200454
-0.0189533
-0.0179784
-0.017323
-0.0167452
-0.0161786
-0.0156504
-0.0151547
-0.0146912
-0.0142529
-0.0138284
-0.0133891
0.150067
0.127388
0.0724913
-0.00548741
-0.130932
-0.237814
-0.292071
-0.311518
-0.317331
-0.312343
-0.298448
-0.280974
-0.262863
-0.245534
-0.230069
-0.21648
-0.204555
-0.213864
-0.222564
-0.229095
-0.23414
-0.237812
-0.241504
-0.244916
-0.20343
-0.249895
-0.254272
-0.258051
-0.262206
-0.268454
-0.193921
-0.0230423
-0.0229551
-0.0222373
-0.0218264
-0.0209316
-0.0215817
-0.0237749
-0.0228668
-0.0227692
-0.022904
-0.0204184
-0.0192811
-0.018146
-0.017459
-0.0168543
-0.0162486
-0.0156839
-0.0151594
-0.0146713
-0.0142166
-0.0137842
-0.0133719
-0.012948
0.160702
0.138907
0.0842879
0.00451453
-0.129975
-0.234208
-0.284968
-0.304389
-0.311335
-0.308175
-0.296262
-0.280345
-0.263307
-0.246409
-0.230844
-0.217066
-0.205024
-0.194388
-0.202659
-0.210155
-0.216159
-0.220888
-0.223811
-0.226738
-0.229993
-0.234214
-0.237551
-0.240759
-0.193354
-0.25802
-0.261278
-0.184911
-0.0224998
-0.0223622
-0.0210994
-0.0221283
-0.0218964
-0.021272
-0.0207262
-0.0210733
-0.0217853
-0.0216464
-0.0228021
-0.0197056
-0.0183358
-0.0176372
-0.0170099
-0.0163635
-0.0157592
-0.0151993
-0.0146771
-0.0141928
-0.0137446
-0.0133296
-0.0129338
-0.0125177
0.171949
0.151857
0.0982884
0.017047
-0.1319
-0.234574
-0.2804
-0.298672
-0.306202
-0.304364
-0.294074
-0.279553
-0.263606
-0.247338
-0.231832
-0.217833
-0.205562
-0.194821
-0.185334
-0.19266
-0.199461
-0.204575
-0.209659
-0.213993
-0.217005
-0.221448
-0.223692
-0.226286
-0.229123
-0.184396
-0.176859
-0.0220129
-0.0222396
-0.0219985
-0.0214622
-0.0213825
-0.0208371
-0.0202069
-0.0208839
-0.0212454
-0.0211486
-0.0218755
-0.0217362
-0.0228904
-0.0185405
-0.0178497
-0.0172088
-0.0165222
-0.0158782
-0.015282
-0.0147209
-0.0141959
-0.0137203
-0.0132921
-0.0128933
-0.0125028
-0.0121079
0.183576
0.166147
0.114874
0.0325582
-0.137335
-0.239073
-0.278356
-0.294381
-0.301965
-0.300978
-0.291964
-0.278666
-0.263755
-0.248232
-0.232988
-0.218853
-0.206285
-0.195316
-0.185725
-0.177244
-0.183763
-0.18974
-0.194404
-0.199242
-0.20385
-0.208051
-0.213341
-0.21096
-0.216164
-0.220798
-0.176398
-0.169665
-0.0223395
-0.0220777
-0.0215494
-0.0214617
-0.0209633
-0.0209334
-0.02096
-0.0187905
-0.0199373
-0.0208682
-0.0207896
-0.0213403
-0.0212244
-0.021949
-0.0218105
-0.0180861
-0.0174444
-0.0167199
-0.0160379
-0.0154096
-0.0148124
-0.0142407
-0.0137202
-0.013264
-0.0128573
-0.012465
-0.0120951
-0.011701
0.195281
0.181619
0.13456
0.0516595
-0.147303
-0.248018
-0.27884
-0.291533
-0.298651
-0.298068
-0.289986
-0.277732
-0.263774
-0.249027
-0.234214
-0.220107
-0.207277
-0.195984
-0.186173
-0.177598
-0.17001
-0.175818
-0.181177
-0.185301
-0.189393
-0.193728
-0.19731
-0.200734
-0.20457
-0.202104
-0.213372
-0.215488
-0.169245
-0.163192
-0.0216214
-0.0215301
-0.021079
-0.020972
-0.0218673
-0.0202958
-0.0193155
-0.0183477
-0.0189105
-0.0201338
-0.0198798
-0.0209275
-0.0199907
-0.0214118
-0.0212967
-0.0177034
-0.0169493
-0.0162318
-0.0155753
-0.0149512
-0.0143334
-0.0137528
-0.0132544
-0.0128309
-0.0124317
-0.0120585
-0.0116895
-0.0113125
0.206639
0.198065
0.15807
0.0749497
-0.163276
-0.261914
-0.28186
-0.290152
-0.296281
-0.295668
-0.288182
-0.27679
-0.263687
-0.249697
-0.235411
-0.221505
-0.208544
-0.19692
-0.186779
-0.177996
-0.170325
-0.163511
-0.168686
-0.173307
-0.177228
-0.180924
-0.18476
-0.187988
-0.190262
-0.19441
-0.192173
-0.196976
-0.200263
-0.1628
-0.157338
-0.0211772
-0.0210499
-0.0228487
-0.0195669
-0.0196039
-0.0193671
-0.0187241
-0.0179689
-0.0184621
-0.0192056
-0.0189835
-0.0201187
-0.0200437
-0.0211285
-0.0201162
-0.0172033
-0.0164538
-0.0157696
-0.0151306
-0.0144798
-0.0138336
-0.0132727
-0.0128173
-0.0124092
-0.0120293
-0.0116567
-0.0113017
-0.0109261
0.217087
0.215205
0.186541
0.10219
-0.186964
-0.281459
-0.287465
-0.290268
-0.294871
-0.293801
-0.286583
-0.275868
-0.263521
-0.250241
-0.236514
-0.222936
-0.210013
-0.198151
-0.18764
-0.178534
-0.170674
-0.163792
-0.157633
-0.167941
-0.162313
-0.172874
-0.176755
-0.179442
-0.181909
-0.185377
-0.183316
-0.187813
-0.189981
-0.193974
-0.192019
-0.156974
-0.15204
-0.0236046
-0.0196822
-0.0194635
-0.01888
-0.0187634
-0.0182843
-0.0174729
-0.0180458
-0.0186615
-0.01851
-0.0192891
-0.0190782
-0.0166997
-0.0159816
-0.0153363
-0.0146795
-0.0139691
-0.0133248
-0.0128276
-0.0124062
-0.0120131
-0.0116317
-0.0112671
-0.0109162
-0.0105551
0.225893
0.232558
0.221447
0.133236
-0.220809
-0.307149
-0.295794
-0.291894
-0.29443
-0.292469
-0.285212
-0.274994
-0.263301
-0.250673
-0.237497
-0.22431
-0.211567
-0.199622
-0.1888
-0.17931
-0.171143
-0.164094
-0.157887
-0.15231
-0.161733
-0.166102
-0.169046
-0.156523
-0.172705
-0.177347
-0.175526
-0.179121
-0.182064
-0.18499
-0.18305
-0.151706
-0.147184
-0.0189228
-0.0188172
-0.0184169
-0.0183299
-0.0178045
-0.0169652
-0.0175517
-0.0182367
-0.0180838
-0.0187285
-0.0185844
-0.0162088
-0.0155488
-0.0149202
-0.0141632
-0.0134161
-0.0128677
-0.0124277
-0.0120162
-0.0116211
-0.0112423
-0.0108874
-0.0105471
-0.0101875
0.232269
0.248928
0.263947
0.175348
-0.270696
-0.338865
-0.306899
-0.295051
-0.294944
-0.291663
-0.284081
-0.274184
-0.263047
-0.251015
-0.238361
-0.22558
-0.213105
-0.201226
-0.190227
-0.180377
-0.171827
-0.164496
-0.158151
-0.152538
-0.147438
-0.155982
-0.159771
-0.162733
-0.165573
-0.166474
-0.167822
-0.169438
-0.1513
-0.171597
-0.173423
-0.17497
-0.177002
-0.178862
-0.181669
-0.146869
-0.142779
-0.0184605
-0.0183865
-0.017953
-0.0178493
-0.0172951
-0.0164607
-0.0170488
-0.0177428
-0.017589
-0.0183091
-0.0181632
-0.0157564
-0.0151722
-0.0144193
-0.0135468
-0.0129383
-0.0124786
-0.0120469
-0.0116315
-0.0112353
-0.0108664
-0.0105166
-0.0101798
-0.00982842
0.235597
0.262136
0.3114
0.237413
-0.338883
-0.377286
-0.320163
-0.299751
-0.296358
-0.291361
-0.283193
-0.273453
-0.262774
-0.251288
-0.239119
-0.226731
-0.214558
-0.202851
-0.191822
-0.181722
-0.172786
-0.165085
-0.158493
-0.152765
-0.147649
-0.143014
-0.150827
-0.154225
-0.156859
-0.158873
-0.160341
-0.161615
-0.162969
-0.165481
-0.146479
-0.175052
-0.176718
-0.142488
-0.138728
-0.0180047
-0.0179069
-0.0174494
-0.0173398
-0.016782
-0.0159816
-0.0165539
-0.0172282
-0.0170871
-0.0178144
-0.0176659
-0.0153751
-0.0147472
-0.0137115
-0.0130396
-0.0125606
-0.0121093
-0.011672
-0.0112537
-0.0108584
-0.0104944
-0.0101516
-0.00982249
-0.00947997
0.269284
0.353308
0.316577
0.383323
-0.265732
0.219443
-0.322833
-0.418366
-0.483156
-0.334179
-0.305685
-0.298553
-0.291515
-0.282555
-0.272811
-0.262495
-0.251512
-0.23979
-0.227768
-0.215901
-0.204419
-0.193476
-0.183264
-0.174022
-0.165928
-0.158995
-0.153053
-0.147852
-0.143205
-0.13895
-0.146002
-0.149182
-0.151693
-0.15333
-0.154689
-0.155866
-0.157201
-0.158843
-0.160258
-0.161406
-0.16241
-0.142134
-0.138453
-0.135025
-0.0175049
-0.0173966
-0.0169359
-0.0168302
-0.0162839
-0.015501
-0.0161004
-0.0167228
-0.0165949
-0.0172973
-0.0171611
-0.0151567
-0.0139052
-0.0131659
-0.0126756
-0.0122066
-0.0117463
-0.0113032
-0.0108771
-0.0104883
-0.0101312
-0.00979574
-0.0094757
-0.0091362
0.37579
0.449441
0.505096
0.425928
0.377589
-0.204136
-0.223294
0.133615
-0.521899
-0.466454
-0.437109
-0.347455
-0.424676
-0.311495
-0.301309
-0.292044
-0.282172
-0.272268
-0.262219
-0.251707
-0.240393
-0.228705
-0.217129
-0.205889
-0.195099
-0.184895
-0.175472
-0.16704
-0.159723
-0.153474
-0.148097
-0.143382
-0.139128
-0.135233
-0.14172
-0.144496
-0.146692
-0.148496
-0.149639
-0.150599
-0.152214
-0.15313
-0.154568
-0.155644
-0.156845
-0.138115
-0.134766
-0.131626
-0.0169897
-0.0168847
-0.0164355
-0.01634
-0.0157938
-0.015575
-0.0155643
-0.0162518
-0.0161506
-0.0167902
-0.0166651
-0.0141404
-0.0133123
-0.0128232
-0.0123341
-0.0118538
-0.0113909
-0.0109309
-0.0105051
-0.0101244
-0.00977407
-0.00944833
-0.00913295
0.538246
0.553263
0.502122
0.458558
0.56657
0.513312
0.121586
-0.453575
-0.169556
-0.547052
-0.439068
-0.530039
-0.372256
-0.315241
-0.348374
-0.42564
-0.304014
-0.292881
-0.282053
-0.271842
-0.261954
-0.251899
-0.24095
-0.229556
-0.218252
-0.207252
-0.196644
-0.186523
-0.177038
-0.168374
-0.160703
-0.154093
-0.148448
-0.143586
-0.139286
-0.135399
-0.131822
-0.137713
-0.140406
-0.142347
-0.144234
-0.146257
-0.147967
-0.149486
-0.150245
-0.15231
-0.134447
-0.131384
-0.128494
-0.0164891
-0.0163936
-0.0159818
-0.0158883
-0.0153527
-0.0144118
-0.016011
-0.0157224
-0.0156354
-0.0163117
-0.0162113
-0.0134791
-0.0129991
-0.0124868
-0.01199
-0.0115177
-0.0110278
-0.0105565
-0.0101395
-0.00976539
-0.00942773
-0.00910876
0.641505
0.612812
0.672151
0.663754
0.375444
0.203341
-0.551917
-0.463818
-0.554848
-0.440605
-0.376072
-0.326563
-0.305683
-0.313195
-0.351665
-0.420372
-0.434401
-0.293908
-0.282243
-0.271561
-0.261714
-0.252118
-0.241484
-0.230336
-0.219282
-0.208511
-0.198093
-0.188093
-0.178625
-0.169841
-0.161904
-0.154942
-0.148967
-0.143872
-0.139458
-0.13554
-0.131977
-0.128679
-0.134066
-0.13643
-0.138317
-0.140289
-0.142007
-0.143524
-0.144636
-0.146613
-0.145538
-0.148052
-0.149342
-0.1501
-0.152092
-0.13109
-0.128264
-0.125602
-0.0160485
-0.0159548
-0.0154231
-0.0153563
-0.0148044
-0.0136993
-0.0143458
-0.014981
-0.016923
-0.0158012
-0.0157097
-0.0131936
-0.0126584
-0.0121459
-0.0116773
-0.0111704
-0.0106467
-0.0101842
-0.00977931
-0.00942112
-0.00909041
-0.465296
-0.445682
-0.38746
-0.371087
-0.328327
-0.309698
-0.294423
-0.303625
-0.313582
-0.346915
-0.358784
-0.424458
-0.436584
-0.282902
-0.271472
-0.261525
-0.252407
-0.24202
-0.231062
-0.22023
-0.209679
-0.199448
-0.189579
-0.180171
-0.171351
-0.16325
-0.156001
-0.149687
-0.144295
-0.139689
-0.135684
-0.132101
-0.128825
-0.125782
-0.130749
-0.132898
-0.134608
-0.136206
-0.13797
-0.139234
-0.140995
-0.142205
-0.141178
-0.127989
-0.125378
-0.122949
-0.015564
-0.0154569
-0.0144583
-0.0146775
-0.0141014
-0.013406
-0.0138303
-0.0146036
-0.0144574
-0.0149675
-0.0177688
-0.0128429
-0.0123102
-0.0118593
-0.0113589
-0.0107776
-0.0102638
-0.00982241
-0.00943297
-0.00908132
-0.386893
-0.372588
-0.333588
-0.325138
-0.310918
-0.298086
-0.283936
-0.290545
-0.304391
-0.309583
-0.319522
-0.34784
-0.358534
-0.271698
-0.261425
-0.252822
-0.242585
-0.231748
-0.22111
-0.210764
-0.200719
-0.190982
-0.181647
-0.172836
-0.164655
-0.157209
-0.150603
-0.144892
-0.140027
-0.135865
-0.132218
-0.128939
-0.125921
-0.123121
-0.127686
-0.12964
-0.131295
-0.13268
-0.134325
-0.135599
-0.136512
-0.138184
-0.137291
-0.139034
-0.140897
-0.125101
-0.122735
-0.120464
-0.0142979
-0.0141269
-0.0136824
-0.0130438
-0.0134814
-0.0140109
-0.0138755
-0.0124589
-0.0120641
-0.0115752
-0.0109507
-0.0103792
-0.00989851
-0.00947488
-0.00909377
-0.333028
-0.325875
-0.313613
-0.30931
-0.298746
-0.284916
-0.272366
-0.296723
-0.303399
-0.306316
-0.307901
-0.32178
-0.261451
-0.253429
-0.243204
-0.23241
-0.221931
-0.211774
-0.201917
-0.192309
-0.183046
-0.174262
-0.166051
-0.158489
-0.151665
-0.145663
-0.140507
-0.136125
-0.132357
-0.129037
-0.126027
-0.123253
-0.120635
-0.124744
-0.12668
-0.128165
-0.129447
-0.131103
-0.132071
-0.132911
-0.134556
-0.133705
-0.135496
-0.136374
-0.137997
-0.137204
-0.122479
-0.120254
-0.118153
-0.0137931
-0.0137038
-0.0133137
-0.0125903
-0.0131061
-0.0136224
-0.0135151
-0.0122661
-0.0118048
-0.0111592
-0.010528
-0.0100068
-0.00955238
-0.00913479
-0.316054
-0.309451
-0.30028
-0.297899
-0.288888
-0.2735
-0.282693
-0.261551
-0.292349
-0.29652
-0.303761
-0.306534
-0.306813
-0.254288
-0.243897
-0.233062
-0.222702
-0.21271
-0.20305
-0.193572
-0.184373
-0.175618
-0.167399
-0.159774
-0.152804
-0.146572
-0.141136
-0.136494
-0.132547
-0.129139
-0.126108
-0.123347
-0.120765
-0.118321
-0.124268
-0.122197
-0.12612
-0.127943
-0.128897
-0.129679
-0.131137
-0.130697
-0.131924
-0.132766
-0.134387
-0.133602
-0.120003
-0.117947
-0.115989
-0.0134253
-0.0133399
-0.0128974
-0.012236
-0.0126652
-0.013253
-0.0131428
-0.0123145
-0.0113417
-0.0107111
-0.0101408
-0.00966486
-0.00920976
-0.315639
-0.309496
-0.300528
-0.298151
-0.296309
-0.290569
-0.287412
-0.277038
-0.261792
-0.271934
-0.284945
-0.281672
-0.255368
-0.295979
-0.304095
-0.306663
-0.244668
-0.23373
-0.223428
-0.213567
-0.204122
-0.194777
-0.185637
-0.176906
-0.168686
-0.161022
-0.153959
-0.147559
-0.141886
-0.136982
-0.132813
-0.129265
-0.126177
-0.12341
-0.120856
-0.118449
-0.116153
-0.121909
-0.123397
-0.124696
-0.119707
-0.126094
-0.128166
-0.12753
-0.128783
-0.129364
-0.130841
-0.13088
-0.117699
-0.115788
-0.113942
-0.0130306
-0.01293
-0.0124461
-0.0136435
-0.0123075
-0.0112117
-0.0128259
-0.0127049
-0.0115005
-0.0126726
-0.0109083
-0.0103022
-0.00980236
-0.0093223
-0.300728
-0.298497
-0.2951
-0.278254
-0.275892
-0.263646
-0.256466
-0.262143
-0.274211
-0.27145
-0.245489
-0.296074
-0.234448
-0.224132
-0.214328
-0.205127
-0.195926
-0.186839
-0.17813
-0.16991
-0.162217
-0.155088
-0.148568
-0.142712
-0.13757
-0.133166
-0.129434
-0.126246
-0.123448
-0.12091
-0.118536
-0.11628
-0.114104
-0.119362
-0.120923
-0.122358
-0.12293
-0.123596
-0.124212
-0.124873
-0.117412
-0.125698
-0.126406
-0.126941
-0.127985
-0.128711
-0.129195
-0.130848
-0.115557
-0.113745
-0.112007
-0.012583
-0.0124881
-0.0129744
-0.0113278
-0.0124491
-0.0124147
-0.0124774
-0.0123165
-0.0119838
-0.0110876
-0.0116279
-0.0104879
-0.00995396
-0.00946633
-0.267998
-0.260743
-0.259012
-0.246306
-0.254766
-0.264579
-0.261682
-0.235221
-0.224856
-0.214988
-0.206055
-0.197007
-0.187976
-0.179291
-0.171072
-0.163354
-0.156171
-0.149561
-0.143561
-0.138223
-0.133591
-0.129655
-0.126326
-0.123466
-0.120924
-0.118579
-0.116364
-0.114231
-0.112169
-0.117084
-0.118533
-0.119668
-0.120458
-0.121008
-0.122138
-0.122219
-0.115305
-0.127062
-0.12786
-0.113515
-0.111811
-0.110175
-0.0125339
-0.0120438
-0.0125597
-0.0122072
-0.0125514
-0.0113906
-0.0106731
-0.0111565
-0.0118088
-0.0101121
-0.00962839
-0.259389
-0.259879
-0.258318
-0.249395
-0.235997
-0.244411
-0.256373
-0.253902
-0.265112
-0.261601
-0.225651
-0.215552
-0.206905
-0.198001
-0.189028
-0.180381
-0.172174
-0.164433
-0.157202
-0.150516
-0.144401
-0.138899
-0.134064
-0.129918
-0.126421
-0.123464
-0.120896
-0.118572
-0.116399
-0.114315
-0.112295
-0.110334
-0.115046
-0.116304
-0.117377
-0.118142
-0.118714
-0.119218
-0.119785
-0.120439
-0.120868
-0.122144
-0.113259
-0.111585
-0.109981
-0.108434
-0.012637
-0.0125541
-0.0123678
-0.0126134
-0.0122279
-0.0115199
-0.0109234
-0.0102783
-0.0107271
-0.0112681
-0.0118517
-0.0120152
-0.00978735
-0.25981
-0.258441
-0.250731
-0.248446
-0.239101
-0.226495
-0.234178
-0.246225
-0.243526
-0.256717
-0.254401
-0.216044
-0.207687
-0.198893
-0.189973
-0.181382
-0.173205
-0.165452
-0.15818
-0.151426
-0.145213
-0.139569
-0.134553
-0.130205
-0.126524
-0.12344
-0.120818
-0.118504
-0.116375
-0.114346
-0.112379
-0.110459
-0.108589
-0.112967
-0.114344
-0.115282
-0.115918
-0.116454
-0.116962
-0.117497
-0.118091
-0.118654
-0.119112
-0.119622
-0.111322
-0.109756
-0.108249
-0.10677
-0.0126605
-0.0124464
-0.0126806
-0.0122965
-0.0116865
-0.0115431
-0.0110289
-0.0105054
-0.00993146
-0.0103479
-0.0108251
-0.0112858
-0.0114123
-0.01192
-0.0120937
-0.250612
-0.248575
-0.240427
-0.238091
-0.229378
-0.216529
-0.224707
-0.235911
-0.233321
-0.246547
-0.244021
-0.208413
-0.199682
-0.190791
-0.182275
-0.174149
-0.1664
-0.1591
-0.15229
-0.145988
-0.140216
-0.135033
-0.130495
-0.126624
-0.123386
-0.12068
-0.118357
-0.116272
-0.114307
-0.112406
-0.110541
-0.108711
-0.106919
-0.111029
-0.112237
-0.113226
-0.113828
-0.114632
-0.114845
-0.115347
-0.115848
-0.116393
-0.116854
-0.117346
-0.109504
-0.108042
-0.106594
-0.105184
-0.0125288
-0.0123768
-0.0117497
-0.0115989
-0.0111607
-0.0110475
-0.0106115
-0.0101317
-0.0100018
-0.0104374
-0.0108487
-0.0109444
-0.0113396
-0.0114636
-0.0119875
-0.0121617
-0.240276
-0.238177
-0.23056
-0.228342
-0.219751
-0.209113
-0.214436
-0.22635
-0.223856
-0.236192
-0.233763
-0.200369
-0.191489
-0.183051
-0.174989
-0.167262
-0.15995
-0.153105
-0.146726
-0.140834
-0.135494
-0.130773
-0.126708
-0.123296
-0.120473
-0.118116
-0.116064
-0.114172
-0.112355
-0.110564
-0.108791
-0.107038
-0.105325
-0.109228
-0.110326
-0.111327
-0.111898
-0.112374
-0.112815
-0.113306
-0.113608
-0.114803
-0.114578
-0.115183
-0.107817
-0.106393
-0.105017
-0.103676
-0.0118055
-0.0116507
-0.0112103
-0.0110973
-0.0107322
-0.0106435
-0.0102387
-0.0100715
-0.0104691
-0.0105442
-0.0108972
-0.0109932
-0.0113907
-0.0115075
-0.230403
-0.228402
-0.221142
-0.218823
-0.211648
-0.200946
-0.207528
-0.216823
-0.212764
-0.226581
-0.224268
-0.192097
-0.183718
-0.175722
-0.168022
-0.160714
-0.15386
-0.147429
-0.141423
-0.13593
-0.131031
-0.126772
-0.123169
-0.120196
-0.117764
-0.115724
-0.113907
-0.112194
-0.110502
-0.108811
-0.107116
-0.105438
-0.103806
-0.107586
-0.108581
-0.109423
-0.110118
-0.111104
-0.11145
-0.111831
-0.112305
-0.112713
-0.113153
-0.113506
-0.11482
-0.10617
-0.104826
-0.103522
-0.102243
-0.0112563
-0.0111449
-0.0107839
-0.0106893
-0.0103535
-0.010284
-0.0101212
-0.0101743
-0.0105134
-0.0105944
-0.0109447
-0.0110342
-0.220966
-0.219022
-0.213134
-0.210773
-0.203315
-0.192632
-0.199211
-0.208823
-0.206681
-0.218072
-0.212208
-0.184296
-0.176363
-0.168684
-0.161378
-0.154542
-0.148091
-0.141985
-0.13634
-0.131267
-0.126814
-0.123009
-0.119854
-0.117301
-0.115232
-0.113478
-0.11188
-0.110318
-0.108741
-0.107133
-0.105513
-0.103911
-0.10236
-0.105921
-0.106949
-0.10783
-0.108392
-0.109245
-0.109853
-0.110508
-0.110275
-0.111288
-0.111756
-0.112221
-0.112649
-0.113062
-0.104607
-0.103343
-0.102105
-0.100885
-0.0108299
-0.0107335
-0.0104084
-0.0103266
-0.00998779
-0.0101633
-0.0102327
-0.0105581
-0.0106366
-0.21417
-0.210822
-0.204366
-0.202415
-0.195083
-0.184807
-0.190724
-0.200508
-0.198399
-0.209031
-0.206933
-0.211401
-0.176924
-0.16927
-0.161943
-0.155138
-0.148707
-0.142517
-0.13673
-0.131483
-0.126838
-0.122823
-0.119462
-0.116742
-0.114588
-0.112854
-0.111366
-0.109958
-0.108536
-0.107056
-0.105526
-0.10398
-0.102455
-0.100987
-0.104365
-0.10533
-0.106105
-0.106779
-0.107764
-0.108053
-0.108482
-0.109341
-0.108926
-0.110631
-0.111195
-0.103141
-0.101947
-0.100765
-0.0996059
-0.0104561
-0.0103665
-0.010059
-0.0102069
-0.0102772
-0.213904
-0.210816
-0.204345
-0.202485
-0.196145
-0.194176
-0.187026
-0.177402
-0.183261
-0.192033
-0.189082
-0.2007
-0.198678
-0.209086
-0.207112
-0.169813
-0.162426
-0.155647
-0.149273
-0.143017
-0.137098
-0.131686
-0.126847
-0.122621
-0.119039
-0.116114
-0.113812
-0.112034
-0.110616
-0.109366
-0.108134
-0.106833
-0.105443
-0.10399
-0.102517
-0.101071
-0.09969
-0.102916
-0.103817