/*--------------------------------*- C++ -*----------------------------------*\
| =========                 |                                                 |
| \\      /  F ield         | OpenFOAM: The Open Source CFD Toolbox           |
|  \\    /   O peration     | Version:  v1912                                 |
|   \\  /    A nd           | Website:  www.openfoam.com                      |
|    \\/     M anipulation  |                                                 |
\*---------------------------------------------------------------------------*/
FoamFile
{
    version     2.0;
    format      ascii;
    class       volVectorField;
    location    "490";
    object      U;
}
// * * * * * * * * * * * * * * * * * * * * * * * * * * * * * * * * * * * * * //

dimensions      [0 1 -1 0 0 0 0];


internalField   nonuniform List<vector> 
3753
(
(0.0489919 0.0207174 0)
(0.150269 0.0618933 1.89306e-23)
(0.0484922 0.0205132 -8.81025e-24)
(0.252719 0.102053 0)
(0.148767 0.0612848 -9.31118e-24)
(0.0480142 0.0203112 8.86294e-24)
(0.352126 0.139398 -6.65206e-21)
(0.250234 0.101057 -7.27809e-24)
(0.147319 0.0606905 -8.98182e-21)
(0.0475509 0.0201138 8.24364e-24)
(0.442204 0.171594 5.85082e-21)
(0.348679 0.13803 -6.39192e-21)
(0.2478 0.100075 7.35118e-21)
(0.145884 0.0601019 8.32709e-24)
(0.0470861 0.0199179 -8.32922e-21)
(0.515344 0.195966 -5.08557e-24)
(0.437836 0.169882 5.63052e-21)
(0.345283 0.136687 0)
(0.245406 0.0991166 6.74995e-24)
(0.144465 0.0595184 -8.34711e-24)
(0.0466371 0.0197274 0)
(0.563938 0.210063 1.99782e-25)
(0.510147 0.193956 5.11321e-21)
(0.433532 0.16821 5.17295e-24)
(0.34195 0.135374 -5.92387e-21)
(0.243029 0.0981573 -6.76062e-24)
(0.143081 0.0589481 0)
(0.0461858 0.0195364 0)
(0.582006 0.212262 -4.74967e-24)
(0.558029 0.207808 -4.81748e-21)
(0.50504 0.192004 0)
(0.429315 0.166575 5.20746e-21)
(0.338641 0.134063 0)
(0.240685 0.0972094 0)
(0.141707 0.0583821 0)
(0.0457336 0.0193448 -7.50104e-21)
(0.566744 0.202264 0)
(0.575532 0.209824 4.79508e-21)
(0.552236 0.205628 0)
(0.500027 0.19009 9.03295e-24)
(0.425127 0.164947 -1.45578e-23)
(0.335358 0.132763 0)
(0.238365 0.0962736 0)
(0.140335 0.0578152 0)
(0.0452925 0.0191564 6.92742e-24)
(0.519324 0.181253 5.39794e-24)
(0.559841 0.199695 -4.87519e-21)
(0.569183 0.207477 0)
(0.546548 0.203498 4.4637e-21)
(0.495058 0.188195 -9.04179e-24)
(0.420974 0.163333 3.79306e-25)
(0.332114 0.131478 0)
(0.236064 0.0953411 0)
(0.138975 0.0572538 0)
(0.0448638 0.0189768 -6.96083e-24)
(0.444624 0.151667 2.98044e-24)
(0.512095 0.178592 -2.6438e-24)
(0.553082 0.197252 4.70309e-21)
(0.562992 0.205207 -4.37495e-21)
(0.54095 0.2014 4.30243e-21)
(0.49014 0.186316 0)
(0.416868 0.161733 9.21513e-24)
(0.328891 0.130198 0)
(0.233788 0.0944222 0)
(0.137653 0.0567067 -6.89604e-21)
(0.0444315 0.0187972 0)
(0.350056 0.116657 -3.71953e-21)
(0.437092 0.148917 1.96685e-23)
(0.505058 0.176121 -5.00114e-21)
(0.546586 0.194925 1.79853e-23)
(0.556955 0.202985 -4.20225e-21)
(0.535428 0.199329 0)
(0.485276 0.184455 0)
(0.412786 0.160145 -4.25553e-24)
(0.325716 0.128938 0)
(0.231541 0.0935069 5.60827e-21)
(0.136331 0.0561644 6.63321e-21)
(0.044007 0.0186176 0)
(0.244154 0.0794768 5.236e-21)
(0.342005 0.11377 -3.52879e-24)
(0.429845 0.146459 -1.10912e-24)
(0.498469 0.173819 0)
(0.540346 0.19267 0)
(0.551047 0.200811 -1.62447e-23)
(0.529983 0.197285 3.98839e-21)
(0.480454 0.182615 0)
(0.408759 0.158574 4.25995e-24)
(0.322553 0.127679 0)
(0.229318 0.0926113 -5.38861e-21)
(0.135042 0.0556324 3.05907e-24)
(0.0435872 0.0184384 0)
(0.234443 0.0761688 -2.07671e-21)
(0.159217 0.0510249 1.80649e-21)
(0.163366 0.0524289 -1.82285e-21)
(0.334491 0.111295 0)
(0.423413 0.144264 5.49306e-21)
(0.492316 0.171637 -4.75703e-21)
(0.534333 0.1905 0)
(0.545262 0.198681 -3.90805e-21)
(0.524614 0.195273 7.32115e-24)
(0.475698 0.180796 3.88681e-21)
(0.404769 0.157022 0)
(0.319456 0.126452 0)
(0.227138 0.0917265 -1.07023e-25)
(0.133763 0.0551038 -3.06423e-24)
(0.0431752 0.0182621 0)
(0.226203 0.0734708 9.20709e-22)
(0.146334 0.0470278 1.76511e-21)
(0.152926 0.0485637 1.80118e-21)
(0.104623 0.0332439 -1.60647e-21)
(0.108313 0.0343475 4.0503e-22)
(0.328491 0.109249 -6.40618e-21)
(0.417688 0.14227 5.29061e-21)
(0.486525 0.169586 -1.7466e-23)
(0.528513 0.188401 0)
(0.5396 0.196601 -7.53778e-24)
(0.51933 0.193293 -3.68038e-21)
(0.471013 0.179008 0)
(0.400849 0.155493 1.88503e-24)
(0.316401 0.125234 2.07072e-24)
(0.224999 0.0908599 -2.46752e-24)
(0.132507 0.0545818 0)
(0.042792 0.0180991 0)
(0.221168 0.0716307 2.06078e-21)
(0.139144 0.0444464 -3.41032e-21)
(0.141719 0.0453233 0)
(0.0878457 0.0280493 -4.06985e-22)
(0.0970473 0.030242 0)
(0.0630592 0.0198915 3.22988e-23)
(0.0653149 0.0206956 5.36151e-22)
(0.0666711 0.0209977 -5.61883e-22)
(0.32362 0.107576 2.50205e-23)
(0.412499 0.140468 -7.38671e-25)
(0.481022 0.167645 6.54818e-25)
(0.522874 0.186371 0)
(0.534053 0.194564 0)
(0.514134 0.191347 0)
(0.4664 0.177243 0)
(0.396987 0.153986 -1.88718e-24)
(0.313416 0.124048 4.1387e-21)
(0.222904 0.0900068 -2.26442e-24)
(0.131314 0.0540842 5.61817e-21)
(0.0423986 0.0179341 0)
(0.217748 0.0704805 -1.92497e-21)
(0.136213 0.0433531 3.29887e-21)
(0.13733 0.0436626 -6.62925e-21)
(0.0817853 0.025716 1.92969e-21)
(0.0834974 0.0264047 -3.98922e-22)
(0.0420317 0.0134891 5.24429e-22)
(0.0454367 0.0144197 1.79014e-23)
(0.0591888 0.0185517 -1.74109e-23)
(0.0524198 0.0155322 3.24666e-22)
(0.0364614 0.0115072 -5.06164e-22)
(0.0381569 0.0120095 7.62478e-24)
(0.0389644 0.0121928 7.85387e-24)
(0.319418 0.106158 0)
(0.407685 0.13881 -5.0739e-21)
(0.475765 0.165793 1.69163e-23)
(0.517388 0.184399 0)
(0.528621 0.192571 3.35072e-24)
(0.509033 0.189435 3.40954e-21)
(0.461856 0.175508 -3.44262e-21)
(0.393211 0.152513 -1.4057e-23)
(0.310494 0.122881 0)
(0.220875 0.0891765 -4.55609e-21)
(0.130132 0.0535942 5.38384e-21)
(0.0420246 0.0177768 0)
(0.214978 0.0696224 1.81143e-21)
(0.134404 0.0428143 3.16124e-21)
(0.135161 0.0429636 3.24957e-21)
(0.0802267 0.0251809 -2.96092e-21)
(0.0808296 0.0253769 3.78854e-21)
(0.0388669 0.0121246 4.07118e-24)
(0.0390823 0.0121836 -1.57944e-21)
(0.0402237 0.0126443 5.72924e-22)
(0.0394011 0.0123667 -2.50953e-23)
(0.0138946 0.00452826 -3.62573e-22)
(0.0154171 0.00507201 0)
(0.0337781 0.0102171 -4.57652e-22)
(0.0230655 0.00552787 -2.38651e-22)
(0.0116705 0.00374268 3.56976e-22)
(0.0123259 0.00384716 0)
(0.0125664 0.00390807 0)
(0.315641 0.104897 5.86244e-21)
(0.403141 0.137248 4.87462e-21)
(0.470691 0.164013 7.84066e-24)
(0.512049 0.182483 3.66529e-21)
(0.523298 0.190617 -3.35479e-21)
(0.504012 0.187558 3.25901e-21)
(0.457418 0.17381 -3.30039e-21)
(0.389523 0.151071 3.47255e-21)
(0.307653 0.121743 0)
(0.218903 0.0883721 -4.36531e-21)
(0.128997 0.0531207 0)
(0.0416584 0.0176238 0)
(0.21253 0.0688571 1.77935e-21)
(0.132914 0.0423777 2.92993e-23)
(0.133534 0.0424998 0)
(0.0793021 0.0249166 -7.35625e-22)
(0.0797392 0.0250332 -2.92392e-21)
(0.0384203 0.0119775 3.94554e-24)
(0.0384628 0.0119773 -7.92566e-24)
(0.0386813 0.0120447 -1.03317e-21)
(0.0385786 0.0120388 3.98276e-24)
(0.0124131 0.00385017 -6.95877e-22)
(0.0124783 0.00387504 -1.75018e-24)
(0.0129222 0.00406798 -3.85983e-22)
(0.0125847 0.0039289 0)
(0.0109352 0.00354554 2.25133e-22)
(0.00640935 0.00148323 4.78275e-23)
(0.312118 0.103727 -1.1468e-20)
(0.398818 0.135774 9.26346e-24)
(0.465785 0.162291 -3.91221e-21)
(0.506829 0.18061 -3.52636e-21)
(0.518076 0.188707 1.5455e-24)
(0.499104 0.185717 -1.55975e-24)
(0.453071 0.172144 -6.32867e-21)
(0.385929 0.14966 -3.32364e-21)
(0.304897 0.120636 0)
(0.216988 0.0875849 0)
(0.127894 0.0526644 -2.35412e-24)
(0.0412903 0.0174678 4.85252e-21)
(0.210248 0.0681372 1.00708e-20)
(0.131525 0.0419506 2.87215e-24)
(0.132126 0.0420795 -2.99177e-21)
(0.0784861 0.0246787 -2.77837e-21)
(0.0788791 0.0247937 9.7795e-26)
(0.0380705 0.0118828 -9.70167e-22)
(0.0381267 0.0118752 9.71622e-22)
(0.0382925 0.0119189 0)
(0.0382136 0.0119245 -9.89735e-22)
(0.0122978 0.00381385 6.70259e-22)
(0.0123013 0.00381808 -6.74631e-22)
(0.0123621 0.00383487 -6.86733e-22)
(0.0123318 0.00383112 -6.81145e-22)
(0.308809 0.10263 -1.1021e-23)
(0.394651 0.134345 0)
(0.461 0.160616 3.75659e-21)
(0.501725 0.178784 -3.38803e-21)
(0.512962 0.18683 -1.5469e-24)
(0.494293 0.183913 2.99352e-21)
(0.448838 0.170516 3.02575e-21)
(0.382429 0.14828 1.51897e-24)
(0.302214 0.119555 0)
(0.215141 0.0868292 0)
(0.126807 0.0522109 -4.71691e-21)
(0.0409591 0.0173221 -1.15389e-23)
(0.208083 0.0674364 -3.28988e-21)
(0.130182 0.0415328 -2.8558e-21)
(0.130765 0.0416563 -2.89248e-21)
(0.0776913 0.0244383 2.62766e-24)
(0.0780876 0.0245575 2.71377e-24)
(0.0377051 0.0117728 0)
(0.0377833 0.0117736 -9.56003e-22)
(0.0379456 0.0118267 0)
(0.0378823 0.0118258 3.71816e-24)
(0.0121835 0.00378359 8.05171e-25)
(0.0122123 0.00378559 6.55753e-22)
(0.0122587 0.00379827 -6.65019e-22)
(0.0122268 0.00379611 6.57095e-22)
(0.305598 0.101562 5.41375e-21)
(0.390599 0.132967 2.06511e-24)
(0.456338 0.158985 3.60771e-21)
(0.496712 0.176985 0)
(0.507943 0.184988 0)
(0.489593 0.182145 0)
(0.444712 0.168924 2.8271e-24)
(0.37904 0.146941 3.03617e-21)
(0.299636 0.118513 0)
(0.213345 0.0860893 -1.79795e-24)
(0.125757 0.0517677 -8.95859e-21)
(0.040618 0.0171824 0)
(0.205957 0.0667545 -6.22987e-21)
(0.128893 0.0411149 2.75519e-21)
(0.129458 0.0412408 2.78947e-21)
(0.0769143 0.0242004 -6.6367e-22)
(0.0773019 0.0243117 -2.63013e-24)
(0.0373431 0.0116624 0)
(0.0374169 0.0116647 0)
(0.0375761 0.0117127 -9.34787e-22)
(0.0375161 0.011715 0)
(0.012067 0.00374738 -6.32088e-22)
(0.0121028 0.00375139 1.27368e-21)
(0.0121618 0.00377402 -2.53121e-24)
(0.0121399 0.00376879 -6.40438e-22)
(0.302507 0.100539 0)
(0.38666 0.13162 -2.06853e-24)
(0.451758 0.157381 1.7468e-24)
(0.491793 0.17522 3.12157e-21)
(0.503023 0.183179 0)
(0.485003 0.180412 2.76255e-21)
(0.440701 0.167369 -2.76722e-21)
(0.37577 0.14564 0)
(0.297137 0.117499 1.50578e-24)
(0.211589 0.085364 3.60883e-21)
(0.12474 0.0513478 2.13589e-24)
(0.0402733 0.017039 -8.01339e-24)
(0.203931 0.0660955 1.5267e-21)
(0.127622 0.0407158 1.71029e-23)
(0.128187 0.0408382 2.70167e-21)
(0.0761552 0.0239567 -2.45884e-24)
(0.0765233 0.0240683 -6.52582e-22)
(0.0369758 0.0115479 0)
(0.0370403 0.0115482 8.84382e-22)
(0.0372254 0.0116049 0)
(0.0371575 0.0115973 0)
(0.011961 0.00371452 -6.14824e-22)
(0.0119922 0.00371874 6.19444e-22)
(0.0120394 0.00373474 6.2539e-22)
(0.012013 0.00373097 -6.22558e-22)
(0.299489 0.0995323 0)
(0.382792 0.1303 -4.04778e-21)
(0.447242 0.155799 -3.32848e-21)
(0.486947 0.173481 -4.18904e-24)
(0.498196 0.181398 3.07036e-23)
(0.480525 0.178712 0)
(0.436825 0.165854 -2.64585e-21)
(0.372604 0.144373 0)
(0.294702 0.116508 -2.93513e-24)
(0.209883 0.0846634 0)
(0.123728 0.0509288 4.02425e-21)
(0.0399528 0.0169038 8.00228e-21)
(0.201936 0.0654492 -1.47275e-21)
(0.126404 0.0403179 -2.56141e-21)
(0.126939 0.040439 -2.63761e-21)
(0.0754209 0.0237306 -2.4413e-21)
(0.0757956 0.0238381 2.46174e-24)
(0.0366185 0.0114313 0)
(0.0366865 0.0114376 3.37024e-24)
(0.0368439 0.0114867 8.69037e-22)
(0.0367679 0.0114854 -3.36742e-24)
(0.0118365 0.00367559 -5.96746e-22)
(0.0118591 0.00367803 6.01489e-22)
(0.0119318 0.00370172 -6.09264e-22)
(0.0118979 0.00369148 -6.05614e-22)
(0.296518 0.0985451 4.69347e-21)
(0.378966 0.128992 0)
(0.44279 0.15424 0)
(0.482165 0.171758 -2.81288e-21)
(0.493461 0.179641 5.2192e-24)
(0.476171 0.177044 2.49891e-21)
(0.433061 0.164374 1.25677e-24)
(0.369524 0.14314 0)
(0.292335 0.115547 1.42914e-24)
(0.208214 0.0839802 -3.24354e-21)
(0.122744 0.0505214 -3.243e-23)
(0.0396315 0.0167673 3.78503e-21)
(0.199969 0.0648122 0)
(0.12519 0.039936 -2.72499e-23)
(0.125734 0.0400567 0)
(0.0747004 0.0234988 -1.19509e-21)
(0.0750566 0.0236025 1.78771e-21)
(0.0362672 0.0113266 -8.28344e-22)
(0.0363269 0.0113248 3.22488e-24)
(0.0364798 0.0113725 0)
(0.0364208 0.0113709 0)
(0.0117206 0.00363782 -5.79464e-22)
(0.0117585 0.00364677 5.83566e-22)
(0.0118059 0.00366249 0)
(0.011776 0.00365857 -5.87279e-22)
(0.293583 0.0975676 0)
(0.375184 0.127698 -7.0411e-24)
(0.438364 0.152685 0)
(0.477436 0.170047 0)
(0.488811 0.177899 0)
(0.471921 0.175404 1.25238e-24)
(0.429406 0.162931 -2.39706e-21)
(0.366534 0.141941 0)
(0.290017 0.11461 2.69299e-21)
(0.206579 0.0833118 -3.07895e-21)
(0.121771 0.0501145 -3.07399e-23)
(0.0392999 0.0166278 -6.80021e-24)
(0.198033 0.0641838 -1.37201e-21)
(0.124008 0.0395557 2.40472e-21)
(0.124531 0.0396748 0)
(0.0739879 0.0232776 2.28464e-21)
(0.0743423 0.0233799 -9.01765e-24)
(0.0359189 0.0112143 7.92731e-22)
(0.0359937 0.0112261 7.99741e-22)
(0.0361491 0.0112685 8.1065e-22)
(0.036076 0.0112618 -3.1392e-24)
(0.0116056 0.00360475 -1.70926e-24)
(0.0116375 0.00360816 5.66303e-22)
(0.0116791 0.00362382 -5.73549e-22)
(0.01166 0.00361941 -5.6939e-22)
(0.290674 0.0965948 -8.41125e-24)
(0.371405 0.126404 7.04777e-24)
(0.433939 0.151125 -1.13716e-23)
(0.472733 0.168329 4.99155e-24)
(0.484243 0.176172 4.55959e-24)
(0.467785 0.173793 2.26729e-21)
(0.425847 0.161522 0)
(0.363608 0.140773 -5.58727e-24)
(0.287753 0.113695 0)
(0.204954 0.0826428 -2.90412e-21)
(0.120793 0.0497067 3.38887e-21)
(0.0389684 0.016487 3.38716e-21)
(0.196116 0.0635575 -1.30993e-21)
(0.122846 0.0391844 2.2881e-21)
(0.123367 0.0393059 0)
(0.073289 0.0230576 -2.19592e-21)
(0.0736517 0.0231633 0)
(0.0355843 0.0111115 -7.68719e-22)
(0.0356508 0.0111162 0)
(0.035787 0.0111549 0)
(0.0357407 0.0111549 0)
(0.0115004 0.0035709 -1.05745e-24)
(0.0115314 0.0035796 -5.47373e-22)
(0.0115854 0.00359327 -5.5662e-22)
(0.0115565 0.0035857 0)
(0.287757 0.0956194 4.29018e-21)
(0.367578 0.125092 1.29835e-23)
(0.429468 0.149539 2.89007e-21)
(0.468049 0.166599 2.52695e-21)
(0.479745 0.174448 -4.55192e-24)
(0.463737 0.172212 2.05031e-24)
(0.422364 0.160149 -2.13858e-21)
(0.360744 0.139631 0)
(0.285496 0.112781 0)
(0.203326 0.0819725 -2.74194e-21)
(0.119811 0.0492953 -6.40773e-21)
(0.038645 0.0163471 3.16321e-21)
(0.194208 0.0629343 -3.67245e-21)
(0.121688 0.0388123 4.4146e-21)
(0.122205 0.0389299 8.70336e-24)
(0.0726157 0.0228461 -5.30775e-22)
(0.072963 0.022948 -8.39148e-24)
(0.0352494 0.0110056 -7.3858e-22)
(0.0353228 0.0110179 -2.89796e-24)
(0.0354747 0.0110553 0)
(0.0354176 0.0110578 0)
(0.0113933 0.00353752 -3.63702e-24)
(0.0114169 0.00354195 -5.30308e-22)
(0.0114607 0.00355475 -5.37354e-22)
(0.0114429 0.0035502 5.3511e-22)
(0.284794 0.0946295 8.09007e-24)
(0.363653 0.123743 -3.22824e-21)
(0.424924 0.147907 -2.69209e-21)
(0.46335 0.164831 2.42727e-21)
(0.475305 0.172736 -1.026e-24)
(0.459764 0.170666 -2.04699e-24)
(0.418948 0.158808 3.83452e-24)
(0.357898 0.138498 -7.96021e-24)
(0.283243 0.111867 0)
(0.201698 0.0812992 3.08896e-23)
(0.118825 0.0488778 1.13866e-23)
(0.0383077 0.0162039 3.00723e-21)
(0.192276 0.0623013 1.23313e-21)
(0.120557 0.0384487 -2.11087e-21)
(0.121074 0.0385703 -2.18135e-21)
(0.0719352 0.0226287 -2.0394e-21)
(0.072285 0.02273 0)
(0.0349275 0.0109067 0)
(0.0349951 0.0109161 7.1131e-22)
(0.0351328 0.0109494 7.33346e-22)
(0.0350847 0.0109548 2.8138e-24)
(0.0112919 0.00350457 -1.69901e-24)
(0.0113214 0.00351541 -5.12887e-22)
(0.0113705 0.00352435 5.24631e-22)
(0.0113401 0.00352139 -5.17245e-22)
(0.281704 0.0935968 -1.49236e-23)
(0.35954 0.122314 -3.17963e-21)
(0.420228 0.146185 -2.59138e-21)
(0.458625 0.163033 -2.31406e-21)
(0.470916 0.171048 1.02429e-24)
(0.455861 0.169161 0)
(0.415569 0.157488 -1.10705e-23)
(0.355054 0.137364 7.95757e-24)
(0.280985 0.110949 2.15057e-21)
(0.20007 0.0806226 -9.05903e-24)
(0.117823 0.048453 -7.6691e-25)
(0.0379662 0.0160622 -1.12832e-23)
(0.190267 0.0616433 1.17239e-21)
(0.119419 0.0380793 -3.94382e-24)
(0.119942 0.038207 -2.05579e-21)
(0.071285 0.0224253 5.89516e-24)
(0.0716275 0.0225249 1.99099e-21)
(0.0346085 0.0108045 0)
(0.0346665 0.0108071 -1.35687e-24)
(0.0348296 0.0108539 -2.73588e-24)
(0.0347705 0.0108546 4.09544e-24)
(0.0111902 0.00347408 -4.93727e-22)
(0.0112107 0.00348107 0)
(0.0112502 0.00348725 -5.03252e-22)
(0.0112272 0.00348715 -5.00106e-22)
(0.278345 0.0924747 -9.53018e-23)
(0.355114 0.120752 0)
(0.415351 0.144354 5.03515e-21)
(0.453887 0.16123 0)
(0.466591 0.169412 7.28501e-24)
(0.452015 0.167688 0)
(0.412206 0.156171 1.4059e-23)
(0.352218 0.136229 0)
(0.278735 0.110026 -2.01146e-21)
(0.198415 0.0799308 9.06322e-24)
(0.11682 0.0480295 -2.05151e-23)
(0.0376119 0.0159145 2.58852e-21)
(0.188032 0.0609214 5.5365e-21)
(0.118258 0.0377027 -1.95399e-21)
(0.11882 0.0378451 -2.00839e-21)
(0.0706326 0.0222161 3.2206e-24)
(0.0709622 0.0223157 4.92317e-22)
(0.0343024 0.0107076 1.29386e-24)
(0.034366 0.0107175 -1.29298e-24)
(0.034512 0.0107599 0)
(0.0344513 0.0107554 0)
(0.011077 0.00343778 4.76632e-22)
(0.0111117 0.0034464 -4.79274e-22)
(0.0111604 0.00345863 9.5898e-25)
(0.0111351 0.00345709 -4.84693e-22)
(0.274553 0.0912001 0)
(0.350237 0.118965 -5.83416e-21)
(0.410302 0.142446 1.19328e-24)
(0.449195 0.159495 7.63212e-24)
(0.462357 0.167829 -3.95569e-25)
(0.448217 0.166231 0)
(0.408861 0.154855 -1.71661e-21)
(0.349386 0.135087 1.74595e-21)
(0.276461 0.109091 7.55999e-24)
(0.196757 0.0792344 -7.84906e-24)
(0.115797 0.0475963 -2.40939e-21)
(0.0372526 0.0157614 -4.46136e-24)
(0.185366 0.060064 0)
(0.11694 0.0372799 1.90476e-21)
(0.1176 0.0374539 -1.89593e-21)
(0.069972 0.022008 0)
(0.0703223 0.0221094 1.38253e-21)
(0.033996 0.010613 -2.83892e-24)
(0.034063 0.0106195 -6.35515e-22)
(0.0341968 0.0106609 -6.48314e-22)
(0.0341527 0.0106629 -1.25572e-24)
(0.0109916 0.00340988 4.60737e-22)
(0.011013 0.00341764 -4.63253e-22)
(0.0110549 0.0034299 -4.71459e-22)
(0.0110312 0.00342604 -4.67296e-22)
(0.269919 0.0895882 1.67865e-21)
(0.344863 0.116932 -2.84721e-21)
(0.405255 0.140628 0)
(0.444661 0.157847 -4.13554e-25)
(0.458227 0.16628 -1.34222e-23)
(0.444456 0.16478 1.61101e-21)
(0.40552 0.153534 6.42061e-24)
(0.346544 0.133938 1.63842e-21)
(0.274171 0.108143 0)
(0.195081 0.0785303 1.95497e-21)
(0.114754 0.0471517 2.22915e-21)
(0.0369002 0.0156113 1.2617e-23)
(0.181613 0.0588591 2.59669e-21)
(0.115207 0.0367387 -1.40439e-23)
(0.116166 0.0370029 1.86028e-21)
(0.0692654 0.0217839 -2.21409e-21)
(0.0696405 0.0218926 1.39214e-23)
(0.0336948 0.0105157 0)
(0.0337637 0.0105293 0)
(0.033897 0.0105669 -1.23099e-24)
(0.0338416 0.0105626 6.19779e-22)
(0.0108823 0.00337711 4.41457e-22)
(0.0109179 0.00338557 -4.47937e-22)
(0.0109575 0.00339952 0)
(0.0109427 0.00339909 0)
(0.26408 0.0873983 3.31185e-21)
(0.339386 0.115021 -1.93226e-23)
(0.400494 0.138958 -2.12894e-21)
(0.440331 0.156262 -7.23344e-24)
(0.454191 0.164755 -1.6458e-21)
(0.440728 0.163336 -5.79199e-24)
(0.402182 0.15221 -1.49002e-21)
(0.343678 0.132774 -5.73748e-24)
(0.271876 0.10719 1.61559e-21)
(0.193391 0.077816 -1.79329e-21)
(0.113722 0.0467089 -2.04457e-21)
(0.0365306 0.015454 -8.16406e-24)
(0.17484 0.0564487 1.55785e-23)
(0.112003 0.0357468 4.13517e-23)
(0.113879 0.0363612 -1.77744e-21)
(0.0683491 0.0215028 -1.16951e-23)
(0.0688839 0.0216459 -1.70156e-21)
(0.0334039 0.0104251 -5.16382e-24)
(0.0334549 0.0104317 1.16194e-24)
(0.0335878 0.0104706 0)
(0.0335387 0.0104686 -1.16193e-24)
(0.0107962 0.00334817 0)
(0.0108255 0.00335929 -4.31703e-22)
(0.0108611 0.00336972 -4.37948e-22)
(0.0108391 0.00336621 -4.35665e-22)
(0.257857 0.0853265 1.28024e-23)
(0.334467 0.113362 2.3829e-21)
(0.396139 0.137403 1.59492e-23)
(0.436194 0.154732 1.69732e-21)
(0.450237 0.163257 0)
(0.437033 0.1619 5.79584e-24)
(0.398851 0.150884 1.41242e-21)
(0.340825 0.131608 -1.4075e-21)
(0.269571 0.106228 -5.57156e-24)
(0.191706 0.0770964 1.98866e-23)
(0.11267 0.0462514 1.85737e-21)
(0.0361483 0.015292 0)
(0.166664 0.0539293 -5.13198e-22)
(0.103083 0.0325694 -1.37447e-23)
(0.108626 0.0346483 -2.76108e-23)
(0.0665056 0.0209844 5.03296e-23)
(0.067639 0.0213028 4.03694e-22)
(0.0330686 0.0103221 5.64248e-22)
(0.0331571 0.0103371 -1.13742e-21)
(0.0333157 0.0103807 1.13977e-24)
(0.0332471 0.0103681 0)
(0.010704 0.00332102 8.28171e-22)
(0.0107284 0.00332878 -4.17056e-22)
(0.0107561 0.00333713 -4.24274e-22)
(0.0107406 0.00333632 -4.20606e-22)
(0.252856 0.0836538 2.9838e-21)
(0.330285 0.111897 0)
(0.392109 0.13594 0)
(0.432215 0.153257 1.244e-23)
(0.446363 0.161785 0)
(0.433377 0.160474 -2.71228e-21)
(0.395542 0.149557 0)
(0.337975 0.130437 1.31826e-21)
(0.26727 0.105256 1.37107e-21)
(0.190001 0.0763612 -1.49344e-21)
(0.111589 0.0457829 -1.65919e-21)
(0.0357645 0.0151313 -2.87042e-24)
(0.161841 0.0521533 -2.97942e-21)
(0.0931876 0.0298034 7.85701e-22)
(0.0967663 0.0308195 8.54016e-22)
(0.0570461 0.0176384 0)
(0.064262 0.020246 -2.48678e-22)
(0.0322915 0.0101135 0)
(0.0326204 0.0101836 4.28858e-24)
(0.0329322 0.0102717 -6.37335e-24)
(0.0327899 0.0102417 -4.29936e-24)
(0.0106078 0.00329185 -4.00727e-22)
(0.0106369 0.00329832 4.0172e-22)
(0.0106845 0.00331271 -4.10032e-22)
(0.010658 0.00330552 -4.07043e-22)
(0.249163 0.0823518 -2.24833e-23)
(0.326638 0.110594 0)
(0.388341 0.134575 0)
(0.428379 0.151834 -1.24618e-23)
(0.442566 0.160335 1.35196e-21)
(0.429762 0.159055 3.38261e-25)
(0.392256 0.14823 2.74171e-23)
(0.335132 0.129256 0)
(0.264964 0.104276 1.24133e-21)
(0.188279 0.0756178 2.65913e-21)
(0.110512 0.0453153 0)
(0.0353659 0.0149629 4.10497e-24)
(0.159218 0.0511662 8.29177e-22)
(0.0904413 0.028596 -1.20761e-23)
(0.0913929 0.0289338 -7.57237e-22)
(0.0449396 0.0141912 -1.18731e-21)
(0.0479881 0.0154956 2.43479e-22)
(0.0189389 0.0044411 0)
(0.027919 0.00829843 0)
(0.0317276 0.0100033 1.62647e-23)
(0.0305191 0.00946854 2.44308e-22)
(0.0103807 0.00322651 -3.85337e-22)
(0.0104954 0.00325222 3.89332e-22)
(0.0105731 0.00328016 -2.52752e-24)
(0.0105335 0.00326975 -3.9251e-22)
(0.246207 0.0813171 2.80653e-21)
(0.323342 0.109426 0)
(0.384786 0.133288 6.61262e-24)
(0.424663 0.150449 0)
(0.438843 0.158908 0)
(0.426194 0.157644 -1.15651e-21)
(0.388984 0.146898 -1.13689e-21)
(0.332301 0.128071 -1.08965e-21)
(0.262652 0.103285 -1.11099e-21)
(0.186563 0.0748684 1.17156e-21)
(0.109415 0.0448314 -1.26878e-21)
(0.0349564 0.0147937 1.14993e-21)
(0.157384 0.0505847 -4.17178e-21)
(0.0892895 0.0282121 -1.48628e-21)
(0.0897299 0.0283048 1.20699e-23)
(0.0437095 0.0136165 -3.57907e-22)
(0.04413 0.0137708 0)
(0.0103385 0.00325437 3.79864e-22)
(0.0106089 0.00335013 -1.96826e-22)
(0.0126994 0.00398407 -2.11604e-22)
(0.011301 0.00375853 0)
(0.00523631 0.0011797 0)
(0.00905536 0.00290797 1.66133e-22)
(0.0101893 0.00319687 3.81491e-22)
(0.00972303 0.00311289 1.73804e-22)
(0.243657 0.0804475 0)
(0.320312 0.108359 2.08713e-21)
(0.381393 0.132056 -1.29016e-23)
(0.421061 0.149101 -1.42153e-21)
(0.435193 0.157497 -1.24555e-21)
(0.422666 0.156239 1.07205e-21)
(0.385754 0.14557 3.82198e-24)
(0.329483 0.126878 0)
(0.260355 0.102285 -9.80256e-22)
(0.184834 0.0741032 1.02123e-21)
(0.108291 0.0443373 -2.3017e-24)
(0.0345362 0.0146168 0)
(0.155832 0.0501209 8.2064e-22)
(0.0884668 0.0279948 1.41622e-21)
(0.0888041 0.0280506 1.14335e-23)
(0.0432596 0.0134821 0)
(0.0434562 0.0135398 3.52392e-22)
(0.0102153 0.00317519 -7.13115e-25)
(0.0102264 0.00316775 -3.69487e-22)
(0.0102981 0.00320096 3.79641e-22)
(0.0102551 0.00318796 0)
(0.241376 0.0796767 -2.45147e-21)
(0.317469 0.107358 0)
(0.378142 0.130872 1.53467e-21)
(0.417554 0.14778 1.27746e-21)
(0.431611 0.156103 1.1685e-21)
(0.419195 0.15484 7.91121e-24)
(0.382546 0.144235 -3.82143e-24)
(0.326684 0.125676 9.05093e-22)
(0.258049 0.101272 8.74013e-22)
(0.183075 0.0733218 -7.56519e-25)
(0.107157 0.0438332 -8.66347e-22)
(0.0341086 0.0144353 0)
(0.154457 0.0496922 -7.9908e-22)
(0.0877211 0.0277841 -1.36169e-21)
(0.0880434 0.0278439 0)
(0.0429268 0.0133896 1.29844e-24)
(0.0430928 0.0134412 -3.44729e-22)
(0.010161 0.00315635 -3.47303e-22)
(0.0101696 0.00315124 -3.51091e-22)
(0.0101998 0.00316072 -3.56549e-22)
(0.0101919 0.00316756 -3.55302e-22)
(0.239261 0.0789603 -1.87685e-23)
(0.314768 0.106404 0)
(0.375 0.129721 -5.62752e-24)
(0.414135 0.146483 -1.19334e-21)
(0.428099 0.154721 0)
(0.415766 0.153443 -7.27827e-24)
(0.379374 0.142898 -1.69389e-21)
(0.323897 0.124466 -7.66844e-22)
(0.255742 0.100246 0)
(0.181306 0.0725261 6.9646e-22)
(0.105994 0.0433118 0)
(0.0336619 0.0142478 0)
(0.153172 0.0492791 -7.50957e-22)
(0.0870261 0.0275644 0)
(0.0873123 0.0276258 2.67663e-21)
(0.0425891 0.013299 2.54599e-24)
(0.0427713 0.0133499 -3.84012e-24)
(0.0101015 0.00313567 -6.55828e-25)
(0.0101163 0.00313342 -3.36785e-22)
(0.0101408 0.00314393 6.74148e-25)
(0.01014 0.00315009 -6.50424e-25)
(0.237257 0.0782801 9.16196e-24)
(0.312177 0.105487 -1.79264e-21)
(0.371958 0.128601 3.10021e-25)
(0.410802 0.145205 1.19241e-21)
(0.424651 0.153348 0)
(0.412391 0.152047 8.27693e-22)
(0.376236 0.141553 0)
(0.321126 0.123242 1.41539e-24)
(0.25343 0.0992019 0)
(0.179518 0.0717116 0)
(0.104808 0.0427757 -4.39318e-22)
(0.0331944 0.0140543 0)
(0.151933 0.0488786 -1.44537e-21)
(0.0863275 0.0273412 1.24671e-21)
(0.086627 0.0274062 -4.94355e-24)
(0.0422551 0.0131934 4.87632e-24)
(0.0424224 0.013247 -1.25349e-21)
(0.0100263 0.00311695 -3.1907e-22)
(0.0100428 0.00311458 -3.24802e-22)
(0.0100784 0.00312388 -3.30311e-22)
(0.010074 0.00313058 0)
(0.235349 0.0776293 -1.06668e-22)
(0.309692 0.1046 -1.71403e-21)
(0.369001 0.127498 -1.27692e-21)
(0.40755 0.143943 -1.12802e-21)
(0.421272 0.151982 -1.70598e-24)
(0.409061 0.150647 -1.43394e-24)
(0.373123 0.140198 0)
(0.31836 0.122 0)
(0.251104 0.0981354 -1.92912e-25)
(0.177698 0.0708734 3.5259e-22)
(0.103583 0.0422221 -2.13739e-22)
(0.0327132 0.0138533 -9.17749e-26)
(0.15075 0.0484889 1.94191e-21)
(0.0856718 0.0271342 1.18252e-21)
(0.085953 0.027194 2.43809e-21)
(0.0419211 0.0130849 2.98927e-22)
(0.0420929 0.0131401 0)
(0.00994548 0.00309106 -3.08599e-22)
(0.00996031 0.00308828 6.03926e-25)
(0.00999901 0.00310115 -3.17114e-22)
(0.0099927 0.00310563 -3.14423e-22)
(0.233521 0.0769999 -1.05407e-22)
(0.307275 0.10373 -1.62209e-21)
(0.366138 0.12642 1.20519e-21)
(0.404372 0.14269 2.04844e-24)
(0.417954 0.150617 1.70594e-24)
(0.405782 0.149244 1.43404e-24)
(0.37004 0.13883 0)
(0.315604 0.12074 0)
(0.248758 0.0970443 1.93047e-25)
(0.175856 0.0700154 3.66682e-22)
(0.102323 0.0416475 0)
(0.0322139 0.0136474 3.24571e-22)
(0.14962 0.0481132 2.52314e-21)
(0.0850293 0.0269268 1.12654e-21)
(0.0853074 0.0269875 1.15046e-24)
(0.0416146 0.0129948 0)
(0.0417659 0.0130377 -1.14309e-21)
(0.00987739 0.00306555 -2.95256e-22)
(0.00989118 0.00306544 -5.85632e-25)
(0.00991958 0.00307584 -3.04291e-22)
(0.00991227 0.00308039 -3.00074e-22)
(0.231747 0.0763871 1.91046e-21)
(0.304947 0.102883 0)
(0.363354 0.125353 -1.22084e-21)
(0.40127 0.141443 0)
(0.4147 0.149252 0)
(0.402547 0.147832 0)
(0.36698 0.137445 -5.24123e-22)
(0.312849 0.119458 3.79959e-22)
(0.246401 0.0959274 -1.63607e-22)
(0.173964 0.0691251 1.37128e-23)
(0.101028 0.041058 -1.99585e-25)
(0.0316904 0.013436 2.28323e-25)
(0.148519 0.0477503 -6.24455e-22)
(0.0844237 0.0267254 1.07316e-21)
(0.0846839 0.0267865 -2.21142e-21)
(0.0413013 0.0128966 0)
(0.04146 0.012943 0)
(0.00980732 0.00304736 0)
(0.00981347 0.00304368 -2.84956e-22)
(0.0098416 0.00305004 -2.91048e-22)
(0.00983708 0.00305691 -2.89007e-22)
(0.230042 0.0757935 1.91252e-21)
(0.302689 0.102049 1.37213e-21)
(0.360642 0.124293 -2.11151e-24)
(0.398235 0.140198 -1.66525e-24)
(0.411507 0.147884 0)
(0.399357 0.146409 4.95694e-22)
(0.36395 0.136041 -7.8096e-22)
(0.310085 0.118141 0)
(0.24401 0.0947768 -1.14901e-23)
(0.172032 0.0682072 0)
(0.099677 0.0404493 5.31226e-25)
(0.0311572 0.0132263 2.0731e-24)
(0.147463 0.0474024 -2.85204e-21)
(0.0838142 0.0265341 1.01742e-21)
(0.0840762 0.0265907 4.07206e-24)
(0.0410139 0.0128002 0)
(0.041167 0.0128504 1.04058e-21)
(0.00972913 0.00302362 -1.05486e-24)
(0.00973714 0.0030198 -2.72649e-22)
(0.00977451 0.00303036 -2.79433e-22)
(0.00976033 0.0030336 -2.76033e-22)
(0.228394 0.0752154 0)
(0.300508 0.101224 0)
(0.358006 0.123237 1.6134e-24)
(0.395275 0.138959 -8.68042e-22)
(0.408375 0.146513 0)
(0.396214 0.14497 4.12083e-22)
(0.36093 0.134609 0)
(0.307311 0.116794 -1.75806e-26)
(0.241574 0.0935888 0)
(0.170047 0.0672602 3.80081e-22)
(0.0982693 0.0398325 -3.32038e-25)
(0.0306247 0.0130105 1.21524e-21)
(0.14644 0.0470733 5.61256e-22)
(0.0832381 0.0263495 9.71983e-22)
(0.0834857 0.0264041 0)
(0.0407228 0.0127134 3.87874e-24)
(0.0408748 0.012758 -3.87331e-24)
(0.00966347 0.00300092 -1.01701e-24)
(0.00967598 0.00299829 -2.60691e-22)
(0.00970451 0.00300948 -2.66464e-22)
(0.00970062 0.00301351 -2.639e-22)
(0.226813 0.0746465 -1.74127e-21)
(0.2984 0.100399 0)
(0.35544 0.122186 9.34843e-22)
(0.392388 0.137721 0)
(0.405305 0.14513 0)
(0.393109 0.14351 -4.47139e-22)
(0.357922 0.133145 -6.79678e-26)
(0.304527 0.115412 1.75877e-26)
(0.239105 0.0923646 -5.54856e-22)
(0.167987 0.0662789 -5.92837e-22)
(0.0968 0.0392341 0)
(0.0302369 0.0127125 -1.5577e-21)
(0.145451 0.0467705 2.0632e-21)
(0.0826545 0.0261842 -9.2428e-22)
(0.0829074 0.026228 -9.44435e-25)
(0.0404429 0.0126256 0)
(0.0405872 0.0126689 0)
(0.00959138 0.00298078 -2.46652e-22)
(0.0096053 0.00297816 -2.49397e-22)
(0.00963743 0.00298788 0)
(0.00963412 0.00299287 -2.52665e-22)
(0.22531 0.0740637 7.75477e-25)
(0.296347 0.0995735 0)
(0.352959 0.12115 -9.75335e-22)
(0.389575 0.13648 0)
(0.402298 0.143734 4.40287e-22)
(0.390042 0.142023 -1.28806e-25)
(0.354931 0.131647 6.79877e-26)
(0.301719 0.113984 1.16991e-22)
(0.23657 0.0910977 4.95494e-22)
(0.165881 0.0652889 0)
(0.0952298 0.0385804 0)
(0.0306264 0.0124509 0)
(0.144631 0.0463279 -1.0128e-24)
(0.0821143 0.0261086 3.51268e-24)
(0.0823321 0.0260937 -9.2258e-22)
(0.0401584 0.0125407 0)
(0.040302 0.0125819 0)
(0.00952867 0.00295982 -2.35875e-22)
(0.00954204 0.00295929 -2.38354e-22)
(0.00956916 0.00296744 0)
(0.00956263 0.00297127 -2.41023e-22)
(0.223825 0.0734819 -7.74826e-25)
(0.294374 0.0987735 1.09532e-21)
(0.350552 0.120116 0)
(0.386841 0.135233 0)
(0.399352 0.142317 -5.09847e-22)
(0.387012 0.140503 1.28767e-25)
(0.351941 0.130106 1.64686e-23)
(0.298867 0.112512 -1.12487e-25)
(0.234022 0.0897936 0)
(0.163453 0.0642398 0)
(0.0952715 0.0378583 0)
(0.0265045 0.0100859 0)
(0.143696 0.0460031 0)
(0.0818461 0.0257139 0)
(0.0819003 0.0260786 8.71344e-22)
(0.039794 0.0124963 0)
(0.0399972 0.0125102 8.58244e-22)
(0.00946907 0.00293842 0)
(0.0094758 0.00293696 -2.27893e-22)
(0.00949969 0.00294561 -2.33272e-22)
(0.00949481 0.00294942 4.52345e-25)
(0.222407 0.0729246 0)
(0.292476 0.0979851 0)
(0.348235 0.119083 0)
(0.384182 0.133971 -1.38276e-22)
(0.396462 0.140875 -3.35247e-25)