/*--------------------------------*- C++ -*----------------------------------*\
| =========                 |                                                 |
| \\      /  F ield         | OpenFOAM: The Open Source CFD Toolbox           |
|  \\    /   O peration     | Version:  v1912                                 |
|   \\  /    A nd           | Website:  www.openfoam.com                      |
|    \\/     M anipulation  |                                                 |
\*---------------------------------------------------------------------------*/
FoamFile
{
    version     2.0;
    format      ascii;
    class       volScalarField;
    location    "370";
    object      p;
}
// * * * * * * * * * * * * * * * * * * * * * * * * * * * * * * * * * * * * * //

dimensions      [0 2 -2 0 0 0 0];


internalField   nonuniform List<scalar> 
3754
(
-0.00649965
-0.00647212
-0.00625867
-0.00642705
-0.00623213
-0.00601595
-0.00638743
-0.00618599
-0.00599064
-0.00578791
-0.00636001
-0.00614573
-0.00594812
-0.00576372
-0.00556402
-0.00635119
-0.00611549
-0.00591117
-0.00572059
-0.00554047
-0.00534715
-0.00636997
-0.00610248
-0.00588011
-0.00568063
-0.00549955
-0.0053235
-0.00514014
-0.00642616
-0.0061132
-0.00586171
-0.00564928
-0.00546435
-0.00528345
-0.00511713
-0.00493759
-0.00652166
-0.00615546
-0.00586464
-0.00563197
-0.00543641
-0.00524912
-0.00507717
-0.00491538
-0.00474131
-0.00665802
-0.00623466
-0.00589453
-0.00563511
-0.00542024
-0.00522143
-0.00504201
-0.00487689
-0.00471995
-0.00455263
-0.00683067
-0.00635254
-0.0059534
-0.00566231
-0.00542389
-0.00520827
-0.00501495
-0.0048444
-0.00468204
-0.00453041
-0.00437014
-0.00702117
-0.00650968
-0.0060364
-0.00571488
-0.00545347
-0.0052159
-0.00500271
-0.00481983
-0.00464811
-0.00449378
-0.00434926
-0.00418889
-0.00718526
-0.0067153
-0.00614187
-0.00579349
-0.00551344
-0.00524804
-0.0050117
-0.00480759
-0.00462364
-0.00446451
-0.00431267
-0.00416862
-0.00401526
-0.00726927
-0.0069484
-0.00728989
-0.0062673
-0.00589582
-0.00560323
-0.0053091
-0.00504658
-0.00481595
-0.00461417
-0.00444068
-0.00427951
-0.0041335
-0.00399576
-0.00384372
-0.00731728
-0.00724227
-0.00642205
-0.00688095
-0.00727045
-0.00601901
-0.00571789
-0.00539893
-0.00510956
-0.00484969
-0.00462397
-0.00442874
-0.00425639
-0.00410506
-0.00396102
-0.00382533
-0.00367807
-0.00738131
-0.00746906
-0.00663241
-0.00617012
-0.00648948
-0.00697854
-0.00727197
-0.0072648
-0.00584866
-0.00551477
-0.00520035
-0.00491222
-0.00465954
-0.00443828
-0.00424851
-0.00408373
-0.00393129
-0.00379243
-0.00365891
-0.00351959
-0.00741234
-0.00718663
-0.00781904
-0.00669358
-0.00640299
-0.00599138
-0.00625814
-0.00659259
-0.00693068
-0.00702267
-0.00721301
-0.00731649
-0.00565042
-0.00531385
-0.00500297
-0.00472341
-0.00447367
-0.00425892
-0.00407521
-0.00390983
-0.0037655
-0.00362675
-0.00350202
-0.00335872
-0.00745893
-0.00676804
-0.00836244
-0.00682919
-0.00674612
-0.00648524
-0.00617676
-0.00579088
-0.00604849
-0.0063532
-0.00664387
-0.00671969
-0.00690037
-0.00651147
-0.00732881
-0.00738523
-0.00544515
-0.00511809
-0.00481308
-0.00453574
-0.00429409
-0.00408573
-0.00390144
-0.00374573
-0.00360087
-0.00346928
-0.00334129
-0.00320667
-0.00685357
-0.00909349
-0.00686019
-0.00681512
-0.00658315
-0.0065106
-0.00624961
-0.00595971
-0.00558735
-0.00583868
-0.00613042
-0.00637913
-0.00645652
-0.00669951
-0.00675556
-0.00524854
-0.00492226
-0.00462434
-0.00435609
-0.00411934
-0.00391267
-0.00373879
-0.00358275
-0.00344287
-0.00331175
-0.00318934
-0.00305375
-0.00661482
-0.00655139
-0.00633995
-0.00626849
-0.0060276
-0.0057515
-0.00538743
-0.0056386
-0.00591851
-0.00615749
-0.0062226
-0.00642334
-0.006483
-0.00504845
-0.00473688
-0.00444332
-0.00417829
-0.00394809
-0.00375073
-0.00357764
-0.00342642
-0.00328867
-0.00315824
-0.00303766
-0.00290284
-0.00637236
-0.00630305
-0.00610706
-0.0060543
-0.00581726
-0.00554652
-0.00518645
-0.00543953
-0.00571633
-0.00594863
-0.00600835
-0.00619223
-0.00625816
-0.00486446
-0.00454992
-0.00426327
-0.0040093
-0.00378374
-0.00358978
-0.0034228
-0.00327254
-0.00313393
-0.00300905
-0.00288849
-0.00276092
-0.00614004
-0.00608811
-0.00589784
-0.0058443
-0.00561459
-0.00534613
-0.00499813
-0.00524103
-0.00551141
-0.00574635
-0.00580116
-0.0059813
-0.00604583
-0.00467134
-0.00437026
-0.00409304
-0.00384141
-0.00362451
-0.0034364
-0.0032705
-0.00311985
-0.00298698
-0.00286102
-0.00274454
-0.00261689
-0.00593453
-0.00587706
-0.00569177
-0.00564706
-0.0054177
-0.00514874
-0.00480321
-0.00505239
-0.0053125
-0.00553957
-0.00559786
-0.0057812
-0.00583563
-0.00449311
-0.00419686
-0.00392428
-0.00368151
-0.00347132
-0.00328705
-0.00312055
-0.00297389
-0.00283964
-0.00271559
-0.00260285
-0.00247624
-0.0057263
-0.00568276
-0.00549678
-0.00544265
-0.00521701
-0.00495526
-0.00462389
-0.0048592
-0.00512077
-0.00534601
-0.005394
-0.00557524
-0.00563109
-0.00431546
-0.00402715
-0.00375992
-0.00352797
-0.00332308
-0.00313994
-0.00297621
-0.00282819
-0.00269454
-0.00257547
-0.00246176
-0.00233984
-0.00553023
-0.00547479
-0.00529438
-0.0052449
-0.00502566
-0.00476925
-0.00444172
-0.00467725
-0.00492944
-0.00514792
-0.00520218
-0.00538122
-0.00542918
-0.00414383
-0.00385961
-0.00360621
-0.00338067
-0.00318122
-0.00299849
-0.00283085
-0.00268185
-0.00255374
-0.00243485
-0.00232653
-0.00220528
-0.0053264
-0.00527809
-0.00510315
-0.00505385
-0.00483439
-0.00458522
-0.00426929
-0.00449741
-0.00474445
-0.00496338
-0.00500275
-0.00518131
-0.00523704
-0.00397521
-0.0037021
-0.00345733
-0.0032416
-0.00304227
-0.00285411
-0.00268552
-0.00254108
-0.0024136
-0.00230065
-0.00219233
-0.00207287
-0.00513384
-0.00509215
-0.0049081
-0.00486328
-0.00465013
-0.00440697
-0.00409867
-0.00432471
-0.00456466
-0.00477441
-0.0048199
-0.00499561
-0.00503144
-0.00381339
-0.00355021
-0.00331835
-0.00310646
-0.00290305
-0.00271005
-0.00254205
-0.00240098
-0.00228141
-0.00216709
-0.00206019
-0.00194247
-0.00494137
-0.00489781
-0.00472531
-0.00467805
-0.00447007
-0.00423569
-0.00393486
-0.00415326
-0.0043895
-0.00459503
-0.00463506
-0.00480507
-0.00485025
-0.00365697
-0.00340739
-0.00318725
-0.00297585
-0.00275904
-0.00256338
-0.00240139
-0.00226968
-0.00214911
-0.00203639
-0.00193086
-0.00181658
-0.00476201
-0.00470943
-0.00454487
-0.00449707
-0.00430108
-0.00406655
-0.00377485
-0.00399048
-0.00421525
-0.00441596
-0.00445982
-0.00462765
-0.00466124
-0.00350801
-0.00327802
-0.00306693
-0.00283541
-0.00260863
-0.00241898
-0.00226957
-0.002139
-0.00201967
-0.00190781
-0.00180555
-0.00169018
-0.00458127
-0.00452667
-0.00437236
-0.00432839
-0.00412995
-0.00390498
-0.00362232
-0.00383234
-0.00405143
-0.00424271
-0.00428771
-0.00444766
-0.00448617
-0.0033726
-0.00316248
-0.00293684
-0.00268074
-0.0024566
-0.00228536
-0.00214221
-0.0020114
-0.00189171
-0.00178371
-0.00167916
-0.00156708
-0.00440804
-0.00435563
-0.00419721
-0.00415907
-0.00396685
-0.0037456
-0.0034761
-0.00368398
-0.00389249
-0.00408054
-0.00411686
-0.00427624
-0.00431754
-0.00325046
-0.00305886
-0.0027805
-0.00251511
-0.00231843
-0.00216068
-0.00201677
-0.00188678
-0.00177035
-0.001658
-0.00155707
-0.00144112
-0.00422776
-0.00418743
-0.00403448
-0.00399265
-0.00380855
-0.00359425
-0.00333646
-0.00354121
-0.00373967
-0.00391967
-0.00395906
-0.00411309
-0.0041439
-0.00317324
-0.00291123
-0.00259099
-0.00236788
-0.00219709
-0.0020402
-0.00189598
-0.00176661
-0.00164718
-0.00153693
-0.00143311
-0.00131692
-0.00406483
-0.00401913
-0.00387347
-0.0038378
-0.0036596
-0.0034479
-0.00324133
-0.0034064
-0.00359331
-0.00376888
-0.00379861
-0.0039501
-0.0039884
-0.00307869
-0.00268261
-0.00243101
-0.00225059
-0.00208224
-0.00192297
-0.00177807
-0.00164759
-0.00152602
-0.00141521
-0.00130874
-0.00119357
-0.00390325
-0.00386508
-0.00372257
-0.00368759
-0.00351717
-0.00331574
-0.00325653
-0.00328326
-0.00345462
-0.00362188
-0.00365215
-0.00380079
-0.00382351
-0.00279649
-0.00250155
-0.00231926
-0.0021426
-0.00196857
-0.00180823
-0.00166274
-0.00152795
-0.00140745
-0.00129178
-0.00118723
-0.00106823
-0.00375121
-0.0037122
-0.00357917
-0.0035524
-0.00337837
-0.00327426
-0.00292538
-0.00339205
-0.00328775
-0.00348797
-0.00350923
-0.00365072
-0.0036783
-0.00257902
-0.00240219
-0.00221984
-0.00203217
-0.0018568
-0.00169564
-0.00154715
-0.00141281
-0.00128727
-0.00117266
-0.00106402
-0.00094184
-0.00360802
-0.00357751
-0.00344398
-0.00342432
-0.00322576
-0.00309066
-0.00268473
-0.00289247
-0.0036106
-0.0033518
-0.00336314
-0.0035124
-0.00353865
-0.00249263
-0.00231047
-0.00211108
-0.00192335
-0.00174867
-0.00158584
-0.00143514
-0.00129751
-0.00117069
-0.00105083
-0.000937667
-0.000814223
-0.00347652
-0.00344878
-0.00324829
-0.0031894
-0.00313615
-0.0028583
-0.00259355
-0.00277625
-0.00293235
-0.00396525
-0.00304609
-0.00338604
-0.00341304
-0.0024093
-0.00220159
-0.00200398
-0.00181863
-0.00164307
-0.00147819
-0.00132644
-0.00118269
-0.001051
-0.00092596
-0.000812752
-0.000684399
-0.00332808
-0.00323352
-0.00286406
-0.00304613
-0.00291971
-0.00273502
-0.00250644
-0.00265565
-0.00285099
-0.00300098
-0.00304198
-0.00462316
-0.0030889
-0.00230044
-0.00209436
-0.00190168
-0.00171541
-0.00153974
-0.001374
-0.0012148
-0.00106928
-0.000930526
-0.00080396
-0.000684
-0.00054918
-0.00299933
-0.00295385
-0.00278644
-0.00261635
-0.00239878
-0.00254485
-0.00271555
-0.00286939
-0.00292143
-0.0021894
-0.00199266
-0.00179985
-0.00161643
-0.00143982
-0.00126904
-0.00110865
-0.000954277
-0.000812181
-0.000677517
-0.000551443
-0.000411828
-0.00283867
-0.00280057
-0.0026604
-0.00250177
-0.00228745
-0.00243712
-0.00260009
-0.00273436
-0.0027707
-0.00208721
-0.00189112
-0.00170319
-0.00152071
-0.00134189
-0.00116951
-0.00100007
-0.000839783
-0.000689414
-0.000547551
-0.000416419
-0.000269289
-0.00270582
-0.00267701
-0.00254531
-0.00238984
-0.00218333
-0.00232892
-0.00249041
-0.00262345
-0.00265435
-0.00198583
-0.0017943
-0.00160888
-0.00142769
-0.00124842
-0.00106816
-0.000892743
-0.000723828
-0.000564316
-0.000415542
-0.000276429
-0.000122863
-0.0025931
-0.00256411
-0.00243461
-0.00228365
-0.00207963
-0.00222493
-0.00238039
-0.00251029
-0.00253987
-0.00188676
-0.00170032
-0.00152069
-0.00133868
-0.00115598
-0.000970507
-0.000785636
-0.000606095
-0.000437102
-0.000278919
-0.000132187
3.13925e-05
-0.00248222
-0.00245496
-0.00232951
-0.00217619
-0.00197962
-0.00212203
-0.00227535
-0.00240134
-0.00243149
-0.00179284
-0.00161414
-0.00143384
-0.00125445
-0.00106679
-0.000871974
-0.000677035
-0.000486552
-0.000306434
-0.000137132
1.84513e-05
0.000190943
-0.00237447
-0.00234934
-0.0022215
-0.00207492
-0.00188347
-0.00202249
-0.00216941
-0.00230198
-0.00232296
-0.00170441
-0.00152834
-0.00135609
-0.00117302
-0.000978124
-0.000774737
-0.000567163
-0.000363658
-0.000169958
9.01954e-06
0.000176014
0.000357332
-0.00226804
-0.00224211
-0.00212045
-0.00197574
-0.00179286
-0.00192634
-0.00206933
-0.00218985
-0.00221714
-0.00161884
-0.00145293
-0.00128029
-0.00109388
-0.000891309
-0.000677341
-0.00045547
-0.000237814
-3.01341e-05
0.000163276
0.000340087
0.000530757
-0.00216631
-0.00213925
-0.00201957
-0.00188194
-0.00170426
-0.00183391
-0.00197338
-0.00208999
-0.00211517
-0.00154251
-0.00138227
-0.00120833
-0.0010157
-0.000806236
-0.000579276
-0.000343664
-0.000107028
0.000116888
0.000324335
0.000514054
0.000708501
-0.00206405
-0.00203886
-0.00192383
-0.00179057
-0.00162461
-0.00174482
-0.00187908
-0.00199471
-0.00201976
-0.00147371
-0.00131631
-0.00113748
-0.000941143
-0.00072324
-0.000481986
-0.000226314
2.96063e-05
0.000272264
0.000494255
0.000698669
0.000904161
-0.0019672
-0.00194279
-0.00183259
-0.00170483
-0.00155472
-0.00166026
-0.001789
-0.0018979
-0.00192334
-0.0014127
-0.00125007
-0.00106863
-0.000871439
-0.000641265
-0.000382508
-0.000104177
0.00017222
0.000433976
0.000680016
0.000900663
0.00108713
-0.00187432
-0.00185199
-0.00174438
-0.00162319
-0.00149256
-0.00158671
-0.00170155
-0.00181012
-0.00182995
-0.00135165
-0.00118102
-0.00100896
-0.00080396
-0.000560375
-0.000280368
2.06217e-05
0.000322911
0.000616612
0.000869716
0.00118517
0.000448377
-0.00178517
-0.00176494
-0.00165706
-0.0015756
-0.00143185
-0.00164399
-0.00160161
-0.00172624
-0.00174519
-0.00127896
-0.00112607
-0.000952898
-0.000740606
-0.000479712
-0.000174914
0.000153694
0.00049252
0.000785091
0.00120342
0.000540323
-0.00170216
-0.00168304
-0.0015383
-0.00149482
-0.00136265
-0.00145886
-0.00233823
-0.00184752
-0.00163953
-0.00166139
-0.00122256
-0.00107695
-0.000903449
-0.000678841
-0.000396646
-6.60666e-05
0.00030204
0.000638885
0.00111643
0.000570528
-0.00161693
-0.00160009
-0.000839338
-0.00164286
-0.00156447
-0.00143106
-0.00130208
-0.00139732
-0.00152891
-0.00149114
-0.00156399
-0.00117483
-0.00103667
-0.000857619
-0.000619115
-0.000313593
5.67428e-05
0.000426999
0.000943598
0.000512954
-0.00142092
-0.00162639
-0.00158709
-0.00147254
-0.00144574
-0.00136632
-0.00125219
-0.00133918
-0.00143423
-0.00141066
-0.0015522
-0.00151962
-0.001627
-0.00113836
-0.00100138
-0.000817048
-0.000559488
-0.000219962
0.000158399
0.000689156
0.000396427
-0.00165111
-0.00161321
-0.00149116
-0.00146502
-0.00139754
-0.00138227
-0.00131186
-0.00121388
-0.00129071
-0.00136957
-0.0013547
-0.00144986
-0.00142923
-0.00157391
-0.00154293
-0.00110749
-0.000975165
-0.000777775
-0.000495332
-0.000141956
0.00036672
0.00023964
-0.00150633
-0.00148222
-0.00141253
-0.00140084
-0.00134289
-0.00132866
-0.0012672
-0.00118382
-0.00125055
-0.00131895
-0.00130783
-0.00138467
-0.00137102
-0.00146343
-0.00144553
-0.00108886
-0.000951274
-0.000739189
-0.000438188
6.35577e-06
6.0911e-05
-0.00142747
-0.00141586
-0.00135862
-0.00134449
-0.0012943
-0.00128336
-0.00123191
-0.00116482
-0.00122017
-0.00127706
-0.00126502
-0.00133505
-0.00132345
-0.00139932
-0.00138624
-0.00107486
-0.000933305
-0.000698979
-0.000351738
-0.000120225
-0.00137258
-0.00135898
-0.0013098
-0.00129855
-0.00125511
-0.00124878
-0.00120555
-0.00115403
-0.00120044
-0.00124223
-0.00123386
-0.00129028
-0.00128035
-0.00134985
-0.00133613
-0.0010729
-0.000905679
-0.000668272
-0.000285117
-0.0013268
-0.00131222
-0.00126802
-0.00126325
-0.0012279
-0.00122054
-0.00118886
-0.00116022
-0.00118988
-0.00121884
-0.00121384
-0.00125324
-0.00124798
-0.00130175
-0.00129351
-0.0010604
-0.00091968
-0.000419878
-0.00128121
-0.001274
-0.00123996
-0.0012334
-0.00120743
-0.00120339
-0.00118609
-0.00116762
-0.001196
-0.00120527
-0.00119996
-0.00122886
-0.00122587
-0.00126469
-0.00126079
-0.00110925
-0.000521476
-0.00125043
-0.00124464
-0.0012192
-0.00121561
-0.00119663
-0.00120114
-0.00119358
-0.00126795
-0.0012023
-0.00120139
-0.00120535
-0.00121311
-0.00120945
-0.00123938
-0.00123497
-0.00059462
-0.00123105
-0.00122572
-0.00120721
-0.00120827
-0.00120296
-0.00121016
-0.0012354
-0.000707618
-0.00130878
-0.00120911
-0.0012128
-0.0012093
-0.0012096
-0.00122034
-0.00121827
-0.00121559
-0.00121398
-0.00121049
-0.00121481
-0.00122378
-0.00124123
-0.00134629
-0.000661515
-0.00127341
-0.00129751
-0.00121572
-0.00121892
-0.00121676
-0.00121534
-0.00121605
-0.00121751
-0.00123087
-0.00124416
-0.00133202
-0.00140596
-0.00136643
-0.000563016
-0.00127062
-0.00129385
-0.00121861
-0.00122104
-0.00122974
-0.00124185
-0.00131934
-0.00142041
-0.00152269
-0.000578409
-0.00126531
-0.00129106
-0.00131875
-0.0014119
-0.00165976
-0.000726531
-0.0953771
-0.0952283
-0.0943865
-0.0944448
-0.0950645
-0.0949102
-0.0943224
-0.0943376
-0.094676
-0.0951447
-0.0951096
-0.0952266
-0.0941074
-0.0944071
-0.0941509
-0.0946498
-0.0954649
-0.0955254
-0.0953184
-0.0954764
-0.0938903
-0.0942
-0.0939293
-0.094537
-0.0941409
-0.0963242
-0.0956073
-0.0959646
-0.0955402
-0.0957548
-0.09364
-0.0939619
-0.09369
-0.0946944
-0.0935942
-0.0936984
-0.0965062
-0.0964321
-0.0957578
-0.0957923
-0.0960239
-0.0959895
-0.0934327
-0.0937456
-0.0934727
-0.0948449
-0.0937732
-0.092698
-0.09324
-0.0935175
-0.096679
-0.0962516
-0.0959112
-0.0961998
-0.0932188
-0.0932684
-0.0949954
-0.0939355
-0.0928711
-0.0918
-0.0924124
-0.0928002
-0.0930773
-0.0933068
-0.0968399
-0.0960621
-0.092997
-0.093042
-0.0951457
-0.0940888
-0.0930354
-0.0919711
-0.0909023
-0.0914577
-0.0919072
-0.0924591
-0.0925116
-0.0926492
-0.0928556
-0.0969926
-0.0962112
-0.0927586
-0.0928065
-0.0952965
-0.0942406
-0.0931911
-0.0921383
-0.0910752
-0.0900207
-0.0905642
-0.0910093
-0.0913716
-0.0917623
-0.0918093
-0.0923916
-0.0926004
-0.0971406
-0.0963583
-0.092565
-0.0954473
-0.0943944
-0.0933457
-0.0922985
-0.0912456
-0.0901899
-0.089197
-0.0896722
-0.0901073
-0.0904827
-0.0909253
-0.0912095
-0.0914318
-0.0918398
-0.0916275
-0.0920034
-0.092359
-0.0972844
-0.0964961
-0.0955896
-0.0945496
-0.0935033
-0.0924577
-0.0914106
-0.0903591
-0.0893349
-0.0882562
-0.0888303
-0.0893332
-0.0895596
-0.0900095
-0.0903187
-0.0905402
-0.0909674
-0.0907534
-0.097418
-0.0966063
-0.0957033
-0.0946968
-0.0936633
-0.0926205
-0.0915755
-0.0905275
-0.0894867
-0.0884304
-0.0873353
-0.0878912
-0.0883603
-0.0887295
-0.0893394
-0.0893558
-0.089596
-0.0900681
-0.0898466
-0.0975249
-0.0966452
-0.0957402
-0.0948132
-0.0938155
-0.0927867
-0.0917448
-0.0906979
-0.089651
-0.0885972
-0.0875184
-0.086414
-0.0869821
-0.0874508
-0.0878087
-0.0882442
-0.0884937
-0.0886832
-0.0891194
-0.089343
-0.0975644
-0.0965313
-0.0956133
-0.0948466
-0.0939344
-0.0929444
-0.0919178
-0.0908742
-0.0898242
-0.0887678
-0.0876975
-0.0865997
-0.0854754
-0.0860603
-0.0865334
-0.0869047
-0.087364
-0.0876419
-0.08788
-0.0882996
-0.0880705
-0.0884859
-0.0885807
-0.0895274
-0.0974608
-0.0961314
-0.0951801
-0.094704
-0.0939637
-0.0930653
-0.0920811
-0.0910547
-0.0900071
-0.0889482
-0.0878783
-0.0867881
-0.085667
-0.0845113
-0.0851168
-0.0855974
-0.0859817
-0.0864484
-0.0867337
-0.086967
-0.0874184
-0.0871861
-0.0876038
-0.0878376
-0.088257
-0.0880446
-0.0970895
-0.0952506
-0.0942335
-0.094232
-0.093802
-0.0930878
-0.0922034
-0.0912242
-0.0901956
-0.0891402
-0.088069
-0.0869807
-0.085866
-0.0847123
-0.0835307
-0.0841446
-0.0846377
-0.0850356
-0.0855112
-0.085807
-0.0860419
-0.086499
-0.0862676
-0.0866919
-0.0869205
-0.0873692
-0.0871473
-0.0962672
-0.0936492
-0.092522
-0.0932111
-0.0932846
-0.0929021
-0.0922175
-0.0913468
-0.0903713
-0.0893378
-0.0882721
-0.0871844
-0.0860721
-0.0849257
-0.0837393
-0.0825586
-0.0831337
-0.0836473
-0.0840601
-0.0845519
-0.0848564
-0.0850984
-0.0855651
-0.0853282
-0.0857627
-0.0859955
-0.086449
-0.0862269
-0.0947662
-0.0910981
-0.089808
-0.0913787
-0.0921802
-0.0923331
-0.0920042
-0.0913491
-0.0904933
-0.0895197
-0.0884799
-0.0874011
-0.0862911
-0.0851486
-0.0839651
-0.0827566
-0.0814804
-0.0821706
-0.0826578
-0.0830327
-0.0835541
-0.0838833
-0.0841266
-0.0846086
-0.0843687
-0.0848117
-0.0850514
-0.0855178
-0.0852844
-0.0923673
-0.0874634
-0.0859571
-0.0884893
-0.0902144
-0.0911355
-0.0913741
-0.0911008
-0.0904804
-0.0896397
-0.0886682
-0.0876204
-0.0865237
-0.0853862
-0.0842068
-0.0829851
-0.0817127
-0.0803337
-0.0810225
-0.0816252
-0.082142
-0.0825766
-0.0828463
-0.0831069
-0.0836221
-0.0833751
-0.0838375
-0.0840811
-0.0845607
-0.0843239
-0.0889396
-0.0827792
-0.0810119
-0.0844102
-0.0871363
-0.0890228
-0.0900689
-0.0904003
-0.090191
-0.0896077
-0.0887841
-0.0878145
-0.0867558
-0.0856372
-0.0844657
-0.0832436
-0.0819664
-0.080608
-0.079137
-0.0798728
-0.0804817
-0.0809121
-0.0814924
-0.0818136
-0.0823266
-0.0825951
-0.0823488
-0.082788
-0.0830656
-0.0835776
-0.0833312
-0.0845092
-0.0772635
-0.0752095
-0.0791974
-0.0828178
-0.0857404
-0.0877937
-0.0889764
-0.0894096
-0.0892691
-0.0887274
-0.0879236
-0.0869552
-0.0858831
-0.0847369
-0.0835254
-0.0822498
-0.0809012
-0.0794428
-0.0779639
-0.0786546
-0.0792943
-0.0797713
-0.0803614
-0.0807062
-0.0810035
-0.0815423
-0.0812394
-0.0815839
-0.0825054
-0.0824894
-0.0820681
-0.0792784
-0.0712512
-0.0689063
-0.0731078
-0.0773301
-0.0811695
-0.0842927
-0.0865232
-0.08785
-0.088394
-0.0883303
-0.0878358
-0.0870538
-0.0860869
-0.0849977
-0.083819
-0.0825595
-0.0812192
-0.0797838
-0.0782308
-0.0765067
-0.0776377
-0.0781264
-0.0785341
-0.0791684
-0.0795594
-0.0798698
-0.0804445
-0.0801425
-0.0806719
-0.0809491
-0.08143
-0.0811956
-0.0815373
-0.0827733
-0.0735609
-0.0651156
-0.062501
-0.0665203
-0.0709529
-0.0754006
-0.0794583
-0.0827862
-0.0851997
-0.0866822
-0.0873477
-0.0873693
-0.0869274
-0.0861706
-0.0852045
-0.0840951
-0.0828778
-0.0815626
-0.0801464
-0.078609
-0.0769215
-0.076002
-0.0750163
-0.0766111
-0.0779149
-0.0783448
-0.0786554
-0.0792667
-0.0789473
-0.0795201
-0.0798191
-0.0803961
-0.0801053
-0.0806306
-0.0809016
-0.0814061
-0.0811668
-0.0677064
-0.0592261
-0.056387
-0.05986
-0.0640893
-0.0687378
-0.0734028
-0.0776746
-0.0812101
-0.0838163
-0.0854657
-0.0862617
-0.0863781
-0.0859966
-0.0852678
-0.0843024
-0.0831696
-0.0819078
-0.080529
-0.0790221
-0.0773595
-0.0755058
-0.0745839
-0.0755571
-0.0763173
-0.0734067
-0.0768571
-0.0781362
-0.0780637
-0.0782863
-0.0786078
-0.0792217
-0.0789113
-0.079473
-0.0797615
-0.0803411
-0.0800627
-0.0620589
-0.05393
-0.0509321
-0.0535436
-0.0571919
-0.0616104
-0.0664584
-0.0713287
-0.0758113
-0.0795574
-0.0823641
-0.0841884
-0.085128
-0.085351
-0.0850356
-0.0843385
-0.0833742
-0.0822153
-0.0809029
-0.0794487
-0.0778334
-0.0760278
-0.0739839
-0.0729229
-0.0740127
-0.0748158
-0.0752975
-0.0756839
-0.0760681
-0.0764454
-0.0717026
-0.0767833
-0.0771186
-0.0769638
-0.0779035
-0.0782427
-0.0785587
-0.0791666
-0.0788695
-0.0569444
-0.0495346
-0.0464522
-0.0479585
-0.0506987
-0.0544955
-0.0590811
-0.0641095
-0.0691728
-0.0738608
-0.077818
-0.0808301
-0.0828425
-0.0839391
-0.0842758
-0.0840355
-0.0833747
-0.0824116
-0.0812243
-0.0798536
-0.078311
-0.0765728
-0.0745986
-0.0723532
-0.071162
-0.0722877
-0.0731691
-0.0737068
-0.0741471
-0.0745286
-0.0749024
-0.0699461
-0.0773391
-0.0778772
-0.05266
-0.0462423
-0.0431385
-0.0434246
-0.0450149
-0.0478546
-0.0517733
-0.0565
-0.0616878
-0.0669299
-0.071814
-0.0759815
-0.0792061
-0.0814167
-0.0826783
-0.0831435
-0.0829863
-0.0823658
-0.0814057
-0.0801861
-0.0787483
-0.0771038
-0.075222
-0.0730569
-0.0706063
-0.0694843
-0.0704151
-0.0713263
-0.0719731
-0.0724349
-0.0728583
-0.0732618
-0.0678492
-0.0494132
-0.0440833
-0.0409997
-0.0401204
-0.040461
-0.0421071
-0.0450182
-0.0490282
-0.0538678
-0.0591918
-0.0645942
-0.0696649
-0.0740392
-0.0774805
-0.0798963
-0.0813372
-0.08194
-0.0818744
-0.081301
-0.0803441
-0.0790878
-0.0775741
-0.0758084
-0.0737602
-0.0713811
-0.0686561
-0.0671214
-0.0684685
-0.0698098
-0.0699556
-0.0705008
-0.0710085
-0.0714672
-0.0655513
-0.047257
-0.0429099
-0.0398634
-0.0380278
-0.0371961
-0.0375684
-0.0392448
-0.0421955
-0.0462641
-0.0511864
-0.0566202
-0.062163
-0.0674066
-0.0719836
-0.0756406
-0.0782703
-0.079899
-0.080651
-0.0806872
-0.0801649
-0.0792124
-0.0779144
-0.0763115
-0.0744027
-0.0721612
-0.069533
-0.0665012
-0.0647033
-0.0661099
-0.0672885
-0.0678834
-0.0684417
-0.0696765
-0.069422
-0.0630324
-0.0460688
-0.0424603
-0.0394492
-0.0369462
-0.0351715
-0.0343731
-0.0347571
-0.036436
-0.0393946
-0.0434874
-0.0484594
-0.053974
-0.0596344
-0.0650349
-0.069803
-0.0736765
-0.0765222
-0.0783492
-0.0792606
-0.079406
-0.0789414
-0.0779918
-0.0766439
-0.0749365
-0.072863
-0.0703954
-0.0674957
-0.0641214
-0.0620718
-0.0636142
-0.0649185
-0.0656574
-0.0662773
-0.0668146
-0.0673867
-0.0678346
-0.0682519
-0.0700451
-0.0602628
-0.0456025
-0.0424513
-0.039466
-0.0365764
-0.0341574
-0.0324367
-0.0316591
-0.0320358
-0.0336909
-0.0366238
-0.0407058
-0.0456926
-0.0512568
-0.0570078
-0.0625445
-0.0674923
-0.0715739
-0.07464
-0.0766704
-0.0777482
-0.0780125
-0.077608
-0.0766603
-0.0752529
-0.0734224
-0.0711591
-0.0684424
-0.0652392
-0.0614956
-0.0591724
-0.0608467
-0.0622781
-0.0630819
-0.0637677
-0.0644041
-0.0650428
-0.065548
-0.0661697
-0.0667061
-0.0672489
-0.0572205
-0.0455825
-0.0426489
-0.0396781
-0.0366198
-0.0338368
-0.0315006
-0.0298299
-0.0290629
-0.0294149
-0.0310193
-0.0338943
-0.037929
-0.0428941
-0.0484735
-0.0542854
-0.0599342
-0.0650436
-0.069326
-0.0726073
-0.074844
-0.0760972
-0.0764838
-0.0761428
-0.0751921
-0.0737132
-0.071739
-0.0692679
-0.0662763
-0.0627368
-0.058602
-0.0559855
-0.0577927
-0.0593579
-0.0602386
-0.060991
-0.0616942
-0.0623947
-0.0629391
-0.0636322
-0.064254
-0.0648763
-0.0538851
-0.0457733
-0.0428987
-0.0399343
-0.0368425
-0.0339069
-0.0312335
-0.0289818
-0.0273575
-0.0265933
-0.0269026
-0.0284316
-0.0312172
-0.0351686
-0.040074
-0.0456316
-0.0514713
-0.0572041
-0.0624532
-0.0669196
-0.0704095
-0.072854
-0.0742822
-0.0747964
-0.0745181
-0.0735582
-0.0719931
-0.0698599
-0.0671611
-0.0638721
-0.0599659
-0.0554166
-0.0524945
-0.054437
-0.0561494
-0.0571049
-0.0579289
-0.0587057
-0.0594666
-0.0600678
-0.0608352
-0.0615172
-0.0622082
-0.0502439
-0.0460146
-0.043852
-0.0423348
-0.0408488
-0.0370992
-0.0393933
-0.0341385
-0.0313308
-0.0287703
-0.0266037
-0.0250239
-0.0242532
-0.0245059
-0.0259387
-0.0286064
-0.0324378
-0.0372443
-0.0427417
-0.0485724
-0.0543562
-0.0597177
-0.064349
-0.0680356
-0.0706791
-0.0722838
-0.0729241
-0.0727054
-0.0717272
-0.0700646
-0.067758
-0.0648103
-0.0612015
-0.0569075
-0.0519274
-0.0486886
-0.0507674
-0.0526291
-0.0536653
-0.0545618
-0.0554188
-0.0562513
-0.0569114
-0.0577419
-0.0585068
-0.0592526
-0.0462915
-0.0469835
-0.045409
-0.044293
-0.0435386
-0.0428255
-0.0420574
-0.0412691
-0.0405456
-0.0379725
-0.0343936
-0.0365814
-0.0398616
-0.0391256
-0.0315699
-0.0288932
-0.0264483
-0.0243678
-0.0228305
-0.0220492
-0.0222353
-0.0235527
-0.0260725
-0.0297506
-0.0344199
-0.0398162
-0.0455981
-0.0513965
-0.0568386
-0.061609
-0.0654728
-0.068306
-0.0700785
-0.0708408
-0.0706751
-0.0696715
-0.067901
-0.0654028
-0.0621894
-0.0582419
-0.0535454
-0.0481272
-0.044568
-0.046779
-0.048793
-0.0499016
-0.0508849
-0.0518135
-0.052726
-0.0534324
-0.0543519
-0.0551849
-0.0560077
-0.0420484
-0.04666
-0.0459187
-0.0451204
-0.0442947
-0.0435635
-0.0428925
-0.0421425
-0.0412701
-0.0405688
-0.0383731
-0.0376815
-0.0352258
-0.0318213
-0.0339008
-0.0370274
-0.0363245
-0.0399249
-0.0392059
-0.0291378
-0.0265951
-0.0242677
-0.0222743
-0.0207807
-0.0199854
-0.0200953
-0.0212808
-0.0236306
-0.0271229
-0.0316164
-0.0368699
-0.0425619
-0.0483338
-0.0538198
-0.0586974
-0.0627139
-0.0657181
-0.0676469
-0.0685215
-0.0684008
-0.067363
-0.0654716
-0.0627707
-0.0592732
-0.0549733
-0.0498727
-0.0440134
-0.040188
-0.0424641
-0.0446337
-0.045823
-0.0468793
-0.0478878
-0.0488797
-0.0496357
-0.0506409
-0.0515477
-0.0524552
-0.0375406
-0.046688
-0.0459916
-0.045212
-0.0383743
-0.0377035
-0.0356068
-0.0349473
-0.0326114
-0.029384
-0.0313536
-0.0343238
-0.0336548
-0.0370872
-0.0363999
-0.0268429
-0.0244359
-0.022227
-0.0203234
-0.0188728
-0.0180627
-0.0180917
-0.0191338
-0.021293
-0.0245706
-0.0288529
-0.033922
-0.0394787
-0.045181
-0.0506691
-0.0556168
-0.0597552
-0.0629052
-0.0649719
-0.0659449
-0.0658607
-0.0647776
-0.0627565
-0.0598388
-0.0560448
-0.0513891
-0.045882
-0.0396037
-0.0356593
-0.0378166
-0.0401433
-0.0414236
-0.0425543
-0.04364
-0.0447099
-0.0455239
-0.0465958
-0.0475896
-0.0485677
-0.0327755
-0.0356082
-0.0349679
-0.0329724
-0.0323455
-0.030131
-0.0270821
-0.0289412
-0.0317532
-0.0311185
-0.0343799
-0.0337251
-0.0246846
-0.0224136
-0.0203252
-0.0185114
-0.0171069
-0.0162818
-0.0162281
-0.0171194
-0.0190726
-0.0221111
-0.0261477
-0.0309914
-0.0363681
-0.0419544
-0.0473994
-0.0523752
-0.0565974
-0.0598626
-0.0620432
-0.063099
-0.0630353
-0.0618984
-0.0597372
-0.0565923
-0.0525023
-0.0474832
-0.04159
-0.0349525
-0.0307577
-0.0332185
-0.0354075
-0.0366788
-0.0378984
-0.0390766
-0.0402237
-0.041081
-0.0422389
-0.0433019
-0.0443588
-0.0278381
-0.0329737
-0.0323644
-0.0304719
-0.0298777
-0.0277858
-0.0249155
-0.0266638
-0.0293166
-0.0287168
-0.0318053
-0.0311836
-0.0226611
-0.0205264
-0.0185578
-0.016836
-0.0154783
-0.0146423
-0.0145062
-0.0152433
-0.0169804
-0.0197582
-0.0235192
-0.0280989
-0.0332521
-0.0386746
-0.044028
-0.0489846
-0.0532485
-0.0565923
-0.058859
-0.0599727
-0.0599184
-0.0587148
-0.056404
-0.0530337
-0.048639
-0.0432809
-0.0370458
-0.0301244
-0.0256455
-0.0280007
-0.0305764
-0.0321492
-0.0330025
-0.0341481
-0.0353543
-0.0362876
-0.037551
-0.0387035
-0.0398463
-0.0227973
-0.030473
-0.0298947
-0.0281065
-0.0275452
-0.0255756
-0.0228826
-0.0245211
-0.027015
-0.02645
-0.0293644
-0.0287763
-0.0207702
-0.0187702
-0.0169212
-0.0152912
-0.0139842
-0.0131395
-0.0129255
-0.0135107
-0.0150246
-0.0175283
-0.0209864
-0.0252685
-0.0301549
-0.0353657
-0.0405776
-0.0454654
-0.0497236
-0.0531057
-0.0554236
-0.0565745
-0.0565075
-0.0552261
-0.052766
-0.0491647
-0.0444909
-0.0388264
-0.0323104
-0.0251791
-0.0205084
-0.0228361
-0.0253626
-0.0266808
-0.0279699
-0.0291968
-0.030577
-0.0322403
-0.0321423
-0.0335586
-0.0348989
-0.017731
-0.0281074
-0.0275605
-0.0258759
-0.0253474
-0.0234993
-0.0209812
-0.0225113
-0.0248481
-0.0243178
-0.0270584
-0.0265041
-0.0190082
-0.0171409
-0.0154096
-0.0138721
-0.0126173
-0.0117703
-0.0114851
-0.0119216
-0.0132138
-0.0154327
-0.0185689
-0.0225223
-0.0271025
-0.0320566
-0.0370767
-0.0418435
-0.0460472
-0.0494221
-0.0517566
-0.0529116
-0.0528164
-0.0514516
-0.0488348
-0.0450251
-0.0400966
-0.0341747
-0.0274567
-0.0201861
-0.0153934
-0.0176577
-0.0202003
-0.0215076
-0.0228085
-0.0240716
-0.025353
-0.0262317
-0.0275085
-0.0286558
-0.0297818
-0.032487
-0.0127478
-0.0258764
-0.0253609
-0.0237794
-0.0232833
-0.0215547
-0.0192081
-0.020632
-0.0228146
-0.0223183
-0.0248873
-0.0243665
-0.0173714
-0.015633
-0.0140173
-0.0125718
-0.011372
-0.010528
-0.0101803
-0.0104779
-0.0115506
-0.0134806
-0.0162824
-0.019883
-0.0241243
-0.0287783
-0.0335575
-0.0381528
-0.0422509
-0.0455726
-0.0478822
-0.0490161
-0.048874
-0.0474141
-0.0446566
-0.0406525
-0.0355134
-0.0294096
-0.02255
-0.0152617
-0.0103908
-0.0125231
-0.0150331
-0.0162924
-0.0175963
-0.0188717
-0.020159
-0.0210415
-0.022364
-0.0236188
-0.0248981
-0.0257889
-0.0270654
-0.0282739
-0.0293126
-0.00797032
-0.0237793
-0.0232948
-0.021815
-0.0213507
-0.0197393
-0.0175592
-0.01888
-0.0209122
-0.0204493
-0.0228496
-0.0223618
-0.0158544
-0.0142409
-0.0127378
-0.0113829
-0.0102401
-0.00940664
-0.00900617
-0.00917435
-0.0100356
-0.0116815
-0.0141418
-0.017373
-0.0212479
-0.0255636
-0.0300582
-0.0344323
-0.0383751
-0.0415964
-0.0438439
-0.0449263
-0.0447195
-0.0431664
-0.0402735
-0.0361178
-0.0308279
-0.024597
-0.0177047
-0.0105227
-0.00564287
-0.00755627
-0.00996048
-0.0111472