/*--------------------------------*- C++ -*----------------------------------*\
| =========                 |                                                 |
| \\      /  F ield         | OpenFOAM: The Open Source CFD Toolbox           |
|  \\    /   O peration     | Version:  v1912                                 |
|   \\  /    A nd           | Website:  www.openfoam.com                      |
|    \\/     M anipulation  |                                                 |
\*---------------------------------------------------------------------------*/
FoamFile
{
    version     2.0;
    format      ascii;
    class       volScalarField;
    location    "90";
    object      p;
}
// * * * * * * * * * * * * * * * * * * * * * * * * * * * * * * * * * * * * * //

dimensions      [0 2 -2 0 0 0 0];


internalField   nonuniform List<scalar> 
3754
(
0.000129626
0.000220279
0.000140393
0.000328398
0.000228865
0.000162932
0.00042921
0.000336586
0.00024867
0.000179091
0.000516495
0.000437074
0.000351507
0.000262258
0.000195608
0.000584144
0.000526094
0.000447585
0.000364363
0.000277324
0.000208103
0.000624232
0.000597192
0.000536233
0.000462405
0.000376143
0.000289049
0.000211895
0.000626196
0.000644412
0.000611608
0.000550431
0.000468206
0.000385957
0.000292174
0.000213498
0.000589087
0.000660423
0.000665373
0.000623497
0.000551507
0.000475807
0.000388441
0.0002928
0.000211174
0.000508993
0.000639043
0.000692379
0.000675737
0.000622076
0.00055731
0.000478026
0.000387241
0.000289681
0.000205554
0.000395329
0.000579033
0.00069054
0.000704301
0.00067227
0.000623206
0.000557476
0.000473742
0.000383567
0.00028464
0.000199073
0.000256599
0.000477333
0.000663403
0.000707419
0.000696838
0.000667814
0.000620916
0.000550014
0.00047128
0.000377225
0.000276438
0.00019785
0.000143672
0.000327905
0.000615233
0.000685301
0.00069173
0.000688492
0.000662646
0.00061244
0.00054731
0.000460706
0.000368941
0.000273825
0.000194231
0.000156266
0.000144737
2.26112e-05
0.000543184
0.000637766
0.00065688
0.000680946
0.000679058
0.000653681
0.000606944
0.000536609
0.00045637
0.000364377
0.000268883
0.000192097
0.000139609
-5.61042e-05
0.00044021
0.000194923
6.58278e-05
0.000570985
0.000599159
0.000646244
0.000668682
0.00067035
0.00064657
0.000598913
0.000531939
0.000447031
0.000358216
0.00026489
0.000185767
7.01365e-05
-0.000255993
0.000323081
0.000471334
0.000362399
0.000120197
5.80324e-05
0.000121622
0.000521855
0.000584537
0.000631223
0.000659383
0.000660827
0.00063893
0.000590723
0.000520715
0.000441193
0.000351405
0.000258943
0.000175098
5.40848e-05
7.31761e-05
-0.000614121
0.000290997
0.000331988
0.000430671
0.000371694
0.000284639
0.000163804
0.000122108
0.000131369
8.78724e-05
0.000504828
0.000573632
0.000622304
0.000648075
0.000653307
0.000629907
0.000579772
0.000514071
0.000430677
0.00034414
0.000246179
0.000170546
2.22967e-05
0.000506953
-0.00115015
0.000202792
0.000233018
0.000278848
0.000335469
0.000415019
0.000362188
0.000301243
0.000227439
0.000202698
0.000208393
0.000644218
3.12862e-05
3.33806e-05
0.000495213
0.000560302
0.000610199
0.000641438
0.000643841
0.000618298
0.000572178
0.000501006
0.000421592
0.00033149
0.000241056
0.000162441
0.000438932
-0.00186023
0.00018702
0.000177518
0.000226264
0.000247313
0.000291248
0.000336078
0.000404281
0.000355424
0.000304267
0.000270099
0.00024351
0.000184536
0.000180646
0.000484797
0.000555208
0.000604542
0.000631332
0.000633104
0.000609269
0.000556962
0.00048972
0.00040926
0.000323021
0.00023209
0.000159467
0.000208324
0.000218504
0.000246514
0.000266614
0.000296687
0.000328218
0.000395767
0.000342973
0.000299589
0.00027199
0.000256269
0.000238542
0.000230277
0.000480389
0.000543119
0.000593815
0.000622467
0.000621527
0.000592826
0.000543643
0.00047576
0.000397312
0.000315013
0.000227381
0.000157949
0.00022848
0.000244747
0.000261882
0.000264843
0.000290804
0.00032423
0.00039242
0.000333561
0.000288971
0.000265208
0.000254232
0.000249714
0.00023456
0.000468547
0.000539207
0.000587062
0.00060824
0.000607116
0.000579273
0.000528212
0.000463344
0.000390214
0.000307185
0.000223303
0.000149086
0.000242771
0.000242787
0.000254928
0.000258801
0.000284285
0.000317851
0.000383233
0.000329472
0.000285345
0.000254577
0.000247281
0.000244829
0.000229964
0.000467255
0.000529245
0.000572566
0.000596743
0.000591792
0.00056257
0.000514336
0.000453929
0.000379402
0.000301078
0.000216164
0.000144594
0.00023237
0.000238384
0.000250754
0.000247332
0.000274156
0.000316732
0.000383914
0.000320335
0.000281319
0.000253643
0.000242259
0.000231858
0.00022634
0.000457847
0.000519275
0.000562401
0.00058213
0.000575138
0.000545767
0.000501645
0.000441261
0.000371792
0.000294819
0.000208944
0.000138734
0.000229807
0.000223206
0.000238429
0.000244948
0.000275888
0.000313772
0.000374182
0.000320615
0.000275085
0.000243993
0.000241586
0.00023013
0.000221976
0.000449026
0.000507523
0.00055094
0.000565529
0.000556848
0.000529738
0.000486665
0.000431211
0.000364336
0.000285485
0.000203511
0.000131402
0.000218878
0.000225063
0.000240565
0.000244198
0.00027043
0.000310074
0.000370111
0.00031313
0.000272974
0.00024478
0.000235352
0.000220882
0.000219851
0.000440965
0.000500513
0.00053486
0.000546015
0.00053527
0.000511057
0.000475148
0.000423959
0.000354995
0.000279155
0.000194923
0.000125036
0.000221966
0.000222453
0.000234594
0.000238494
0.000271543
0.00030582
0.000361363
0.000307889
0.000268344
0.000235642
0.000239847
0.000223291
0.000213288
0.000431933
0.000485607
0.00051561
0.000521001
0.000513123
0.000497541
0.000466031
0.000413748
0.000347454
0.000269172
0.000188091
0.000119835
0.000217491
0.000212089
0.000238316
0.000239226
0.000267105
0.000302117
0.000354553
0.000299116
0.000262664
0.000235708
0.000233084
0.000215065
0.000224249
0.000422902
0.000470525
0.000490448
0.000494359
0.000493808
0.00048625
0.000457461
0.000405316
0.000334906
0.000261407
0.000182602
0.00011689
0.000218046
0.000215715
0.000232182
0.000235835
0.000264855
0.000293722
0.000346047
0.000294471
0.000256325
0.000229391
0.000231108
0.000216413
0.00021509
0.000409413
0.000446674
0.000458428
0.000465744
0.000481388
0.000479848
0.000448697
0.00039117
0.000325435
0.00025426
0.000178235
0.00011386
0.000208503
0.000215882
0.000229335
0.000234905
0.000253859
0.000289822
0.000336499
0.000284705
0.000254093
0.000227676
0.000224963
0.000207993
0.000217461
0.000393275
0.000413863
0.000419527
0.00044906
0.000477945
0.000474072
0.000434436
0.000379614
0.000316705
0.00024893
0.000174415
0.000116085
0.000205463
0.000216101
0.000221439
0.000223771
0.000251675
0.000279966
0.00032275
0.000274331
0.000245248
0.000224141
0.00021919
0.000207221
0.000210686
0.000363542
0.000367516
0.000391391
0.000449098
0.00047907
0.000461109
0.000419203
0.000368752
0.000310662
0.000243732
0.000176015
0.000118862
0.000198567
0.000207893
0.000222236
0.000220168
0.000243061
0.000272729
0.000304106
0.000256101
0.000235179
0.000214257
0.000217398
0.000201761
0.000201838
0.000324553
0.000314237
0.000393157
0.000463351
0.000470429
0.000443119
0.000406137
0.000359463
0.000302649
0.000244222
0.000177306
0.000128109
0.00020418
0.00020258
0.000212866
0.000214862
0.000234545
0.000257786
0.000280881
0.000234791
0.000221299
0.000205787
0.000204899
0.000192748
0.000202387
0.000241818
0.000305526
0.000430309
0.000463654
0.000449324
0.000425245
0.000392987
0.00035013
0.000300436
0.000243956
0.000183733
0.000138435
0.000195151
0.000199512
0.00020629
0.000203225
0.000217027
0.000241254
0.000214563
0.000206471
0.000203171
0.000190437
0.000198746
0.000186179
0.000187812
0.000182047
0.000382987
0.000444072
0.000439104
0.000426114
0.000408565
0.000381445
0.000343776
0.000299749
0.000247451
0.000193574
0.000150987
0.000188749
0.000186389
0.000190609
0.000186919
0.000196608
0.000210461
4.2859e-05
0.000168161
0.000178901
0.000172691
0.000179702
0.000169145
0.000185564
0.000311195
0.000416651
0.000414069
0.000409301
0.000405884
0.000393773
0.000371225
0.000341191
0.000299598
0.000255597
0.000203496
0.000168227
0.000174237
0.000172969
0.000170602
0.000159464
0.000172549
9.24516e-05
0.000222732
-9.93875e-05
0.000184019
0.000144113
0.000159815
0.000154248
0.000165374
0.00038399
0.000376463
0.000376603
0.000385846
0.000387907
0.000380575
0.000364506
0.000337276
0.0003038
0.000262373
0.000217928
0.000189141
0.000153653
0.000144484
0.000142775
0.000124545
0.000163404
0.000123533
0.000319122
0.000254107
-0.000302334
0.000118318
0.000143411
0.000130043
0.000141832
0.000329291
0.000329837
0.000350625
0.000364433
0.000369935
0.000367899
0.000357029
0.000336069
0.000307348
0.000274703
0.000238118
0.000213534
0.000122317
0.000110477
0.000176985
0.000198421
9.91137e-05
0.00021328
0.000270099
0.000226582
0.000234377
-0.000664029
0.000298289
9.43931e-05
0.000105252
0.00027606
0.000304993
0.000327483
0.000342681
0.000352679
0.000355734
0.000348947
0.000337174
0.000316808
0.000292692
0.000259173
0.000242134
0.000109534
0.000165306
0.0004039
0.000190037
0.000174363
0.000193649
0.000219168
0.000206486
0.000171542
0.000164472
0.000156375
-0.00130993
0.000269553
0.000248554
0.000279801
0.000302098
0.000322273
0.000335746
0.000342705
0.000346237
0.000339802
0.000329738
0.000310177
0.000286079
0.000278353
0.000125185
0.0001373
0.00016388
0.000173225
0.000191137
0.000178587
0.000165621
0.000151746
0.000131556
0.000228542
0.000254497
0.000280056
0.000300623
0.000318052
0.000332975
0.000341157
0.000346582
0.000342841
0.000334004
0.000318908
0.000319193
0.000141975
0.000147481
0.000150639
0.000150602
0.000169871
0.000151566
0.000142364
0.000145708
0.000140441
0.000200805
0.000229841
0.000254889
0.000278147
0.000300856
0.000320699
0.000340794
0.000354971
0.000362111
0.000363392
0.000356676
0.000368037
0.000135166
0.00013198
0.000128226
0.000129521
0.000144482
0.0001271
0.000116972
0.000118303
0.00011812
0.000177424
0.000205586
0.000230919
0.000255701
0.000282039
0.000312435
0.000341188
0.000366502
0.0003856
0.00039717
0.0004021
0.000423836
0.000110124
0.00010783
0.000105717
0.00010456
0.000121682
0.000102307
9.42498e-05
9.6447e-05
9.68432e-05
0.000152467
0.000179132
0.00020273
0.00023165
0.000264119
0.00030229
0.00034281
0.000381422
0.000413359
0.00043814
0.000454779
0.000490835
8.72703e-05
8.37728e-05
7.92506e-05
8.49266e-05
9.82197e-05
7.8441e-05
7.00395e-05
7.29377e-05
7.23404e-05
0.000127602
0.000149911
0.000176283
0.000204988
0.000244675
0.000294207
0.000347295
0.000400061
0.000446977
0.000487069
0.000517042
0.000566724
6.30735e-05
5.80717e-05
5.99034e-05
6.11085e-05
7.39039e-05
5.53064e-05
4.92205e-05
4.29471e-05
5.0801e-05
9.78033e-05
0.00012037
0.000142086
0.000176777
0.000225598
0.00028603
0.000354647
0.000424194
0.000488965
0.000543432
0.000589645
0.00065339
4.16043e-05
3.79604e-05
3.54548e-05
3.92832e-05
4.70199e-05
3.07713e-05
2.62039e-05
2.86904e-05
2.97535e-05
6.98861e-05
8.47249e-05
0.000107934
0.000147346
0.000205746
0.000279327
0.000365675
0.000453653
0.00053711
0.00061103
0.000672443
0.000751449
1.74804e-05
1.56589e-05
1.51567e-05
1.4081e-05
2.06833e-05
6.56445e-06
1.51171e-06
5.40504e-06
7.87618e-06
3.26073e-05
4.35072e-05
7.00126e-05
0.000117492
0.00018508
0.000274745
0.000379031
0.000490555
0.000595315
0.000688767
0.000769048
0.000858817
-2.01563e-06
-5.12918e-06
-8.46905e-06
-9.69314e-06
-1.21154e-05
-1.92316e-05
-2.11934e-05
-1.96563e-05
-1.74674e-05
-8.59785e-06
2.31166e-07
3.22236e-05
8.49619e-05
0.000163687
0.000271368
0.000400078
0.000535845
0.000664761
0.000778867
0.000880438
0.000989791
-2.48897e-05
-2.8075e-05
-3.24479e-05
-3.72479e-05
-5.3202e-05
-4.5546e-05
-4.5806e-05
-3.98478e-05
-3.87786e-05
-5.93164e-05
-4.43149e-05
-7.66624e-06
4.85315e-05
0.000142644
0.000272022
0.000428213
0.000589827
0.000743587
0.000888037
0.00101358
0.00111574
-4.77478e-05
-5.24794e-05
-5.76344e-05
-6.51583e-05
-0.000101894
-8.0918e-05
-6.9205e-05
-6.64517e-05
-6.01884e-05
-0.000107769
-8.38252e-05
-5.52414e-05
1.10188e-05
0.000122362
0.000277596
0.000461572
0.000654318
0.000845564
0.00100455
0.00123249
0.000445895
-7.24293e-05
-7.85523e-05
-7.88649e-05
-0.000126159
-0.000152885
-0.000250108
-7.55949e-05
-9.36141e-05
-8.72017e-05
-0.000146522
-0.000138385
-0.000106087
-2.91335e-05
0.00010368
0.000288591
0.000505338
0.00073947
0.000936314
0.00126446
0.000543622
-9.89891e-05
-0.000105299
-6.07203e-05
-0.000160876
-0.000194378
-0.000179432
-0.000910005
-0.00044813
-0.000113758
-0.000111062
-0.000198154
-0.000196085
-0.000161873
-6.94315e-05
8.93502e-05
0.000305335
0.00056607
0.000804125
0.00118647
0.000579155
-0.000118327
-0.000126218
0.000607586
-0.00027627
-0.000226866
-0.000209671
-0.000243233
-0.000228167
-0.000221073
-0.000209628
-0.000151697
-0.000259824
-0.000263645
-0.000220837
-0.000110181
7.72417e-05
0.000337847
0.000606316
0.0010222
0.000526722
2.75583e-05
-0.000246544
-0.000238179
-0.000221347
-0.000221543
-0.000254169
-0.000301394
-0.000279201
-0.00023816
-0.000239684
-0.000232093
-0.000227624
-0.000206617
-0.0003299
-0.000333954
-0.000283539
-0.000149168
7.78649e-05
0.000352434
0.000778949
0.000416034
-0.000261757
-0.000254268
-0.000228034
-0.000230467
-0.000255873
-0.00026704
-0.000307916
-0.000371047
-0.000337908
-0.000282049
-0.000292172
-0.000242255
-0.000248277
-0.000244309
-0.000241344
-0.000407762
-0.00041479
-0.00034694
-0.000180996
6.74136e-05
0.000471606
0.000266488
-0.000233796
-0.000237897
-0.000259315
-0.000275399
-0.000309372
-0.000321296
-0.000370628
-0.000448693
-0.000405791
-0.000339002
-0.000352608
-0.00028556
-0.000298244
-0.00024653
-0.000255076
-0.000495966
-0.000496131
-0.0004082
-0.000215097
0.000127794
9.63543e-05
-0.000264913
-0.000280653
-0.000313311
-0.000326708
-0.000367938
-0.000383169
-0.000442977
-0.000538411
-0.000482503
-0.000404392
-0.000417217
-0.00034347
-0.000358042
-0.000290918
-0.000303926
-0.000591879
-0.000583822
-0.00046359
-0.000215289
-7.59027e-05
-0.000317864
-0.00033135
-0.000371678
-0.000387856
-0.000436162
-0.000455977
-0.000524487
-0.000637372
-0.000571791
-0.000476906
-0.000493425
-0.000405731
-0.000422027
-0.000348885
-0.000361091
-0.00069782
-0.000656593
-0.000520973
-0.000233354
-0.000379236
-0.000391586
-0.000436988
-0.000459714
-0.000516532
-0.000535528
-0.000617092
-0.000755443
-0.000670748
-0.000561713
-0.000581988
-0.000475964
-0.000497096
-0.000407687
-0.000425401
-0.000794536
-0.000765707
-0.000363598
-0.000440527
-0.00046038
-0.000516543
-0.000537657
-0.000604948
-0.000627552
-0.000725239
-0.000876437
-0.000789757
-0.000657689
-0.000677983
-0.000559654
-0.000583347
-0.000477775
-0.000500034
-0.000946991
-0.000463312
-0.000517263
-0.000538758
-0.000604488
-0.00062891
-0.000704434
-0.000736216
-0.000846587
-0.00109154
-0.000911808
-0.000765158
-0.000795642
-0.000653358
-0.000676754
-0.000560516
-0.000582589
-0.000534797
-0.000606638
-0.000628839
-0.000702855
-0.000732088
-0.000823602
-0.00085903
-0.00100673
-0.000642202
-0.00114218
-0.000887649
-0.000919181
-0.000760655
-0.000788566
-0.000650798
-0.000675639
-0.000701154
-0.000727455
-0.000818498
-0.000851897
-0.000961606
-0.00100943
-0.00124246
-0.000619892
-0.00107377
-0.00112983
-0.00088133
-0.000913399
-0.000758065
-0.000784085
-0.000813632
-0.00084376
-0.000955638
-0.000999864
-0.00119807
-0.0013086
-0.00130358
-0.000534198
-0.00105728
-0.00111298
-0.000873546
-0.000904502
-0.00094318
-0.000985506
-0.00117276
-0.00131146
-0.00145198
-0.000541741
-0.0010397
-0.00109689
-0.00115813
-0.00128876
-0.00158117
-0.00068374
-0.0667219
-0.0665944
-0.0647123
-0.064869
-0.0664449
-0.0663743
-0.0643482
-0.064417
-0.0652939
-0.0668955
-0.0667754
-0.0671734
-0.0637531
-0.0646409
-0.0638516
-0.065248
-0.0679673
-0.0680757
-0.0674398
-0.06786
-0.0632036
-0.0640005
-0.0633039
-0.0650497
-0.0640347
-0.0709052
-0.0684755
-0.0696424
-0.0680705
-0.0687631
-0.0626001
-0.0634855
-0.0626854
-0.0654097
-0.0625333
-0.0627079
-0.071637
-0.0710867
-0.0689957
-0.0689683
-0.0696694
-0.0695144
-0.0621606
-0.0627717
-0.0622252
-0.0656456
-0.0626793
-0.0607829
-0.0619055
-0.0623473
-0.0724279
-0.0704386
-0.0695631
-0.0702123
-0.0617323
-0.061795
-0.0658341
-0.0625849
-0.0605685
-0.0597428
-0.0607456
-0.0609849
-0.0615605
-0.0618751
-0.0733055
-0.070219
-0.0613701
-0.0614249
-0.066098
-0.0623422
-0.0600533
-0.0591573
-0.0592813
-0.0598816
-0.0601553
-0.0610471
-0.0607905
-0.0608878
-0.0610577
-0.0742571
-0.070936
-0.0610077
-0.0610315
-0.0665134
-0.0621613
-0.0593362
-0.0582158
-0.0584264
-0.0594221
-0.0597722
-0.0597468
-0.0599538
-0.0601377
-0.0599371
-0.0606304
-0.0608049
-0.075186
-0.0717292
-0.0607691
-0.0671051
-0.0622291
-0.0586953
-0.0570542
-0.0571849
-0.0584262
-0.0603037
-0.0601449
-0.0599691
-0.0600497
-0.0599301
-0.0599805
-0.0599618
-0.0602005
-0.060044
-0.0602859
-0.0606131
-0.0760871
-0.0725204
-0.0677984
-0.0625776
-0.0584001
-0.0560001
-0.0557163
-0.057074
-0.0592769
-0.0617758
-0.0611886
-0.0608791
-0.0605475
-0.0602862
-0.0602526
-0.0601272
-0.059995
-0.060028
-0.0768914
-0.0731916
-0.0684801
-0.0631494
-0.0584857
-0.0553654
-0.0543769
-0.0555211
-0.0580131
-0.0609511
-0.0637587
-0.0628725
-0.0622576
-0.0616902
-0.0614346
-0.0608214
-0.0607528
-0.0604677
-0.0605611
-0.0774934
-0.0736922
-0.069106
-0.0638373
-0.0589357
-0.0551885
-0.0534755
-0.0540897
-0.0566188
-0.060031
-0.0633072
-0.0656471
-0.0647072
-0.0642135
-0.0635885
-0.0626764
-0.062159
-0.0617076
-0.0610258
-0.0619875
-0.0778519
-0.0739728
-0.0696329
-0.0645876
-0.0596587
-0.0555116
-0.053066
-0.0530415
-0.055314
-0.0590465
-0.062981
-0.0658624
-0.0668527
-0.0660938
-0.0659518
-0.0653972
-0.0646624
-0.0642362
-0.0639599
-0.062982
-0.0632599
-0.0626092
-0.0618626
-0.0626726
-0.0779122
-0.0739519
-0.0699747
-0.0653558
-0.0605822
-0.0562697
-0.0532636
-0.052463
-0.0542691
-0.0580816
-0.0626565
-0.0664326
-0.0679927
-0.0667977
-0.0665152
-0.0669404
-0.0666092
-0.0662413
-0.065932
-0.0657966
-0.0649997
-0.0651819
-0.0646054
-0.0641934
-0.0632514
-0.0636298
-0.0776066
-0.073571
-0.07003
-0.0660467
-0.0616201
-0.0573695
-0.0540414
-0.0525499
-0.0536095
-0.0571938
-0.0622281
-0.0670424
-0.0697457
-0.0690135
-0.0651893
-0.065523
-0.0666781
-0.0667321
-0.0669609
-0.0668932
-0.0670282
-0.0665881
-0.0665808
-0.0662868
-0.0659871
-0.0652215
-0.065533
-0.0768916
-0.0728151
-0.0697393
-0.0665292
-0.06265
-0.0586689
-0.0552804
-0.0533198
-0.0536064
-0.0565487
-0.0616379
-0.0673372
-0.07154
-0.0721271
-0.0684082
-0.0620788
-0.0628465
-0.0647842
-0.0653717
-0.0663771
-0.066633
-0.0671401
-0.0673017
-0.0669888
-0.0671775
-0.0671415
-0.0667518
-0.0668966
-0.0757853
-0.0717377
-0.0691126
-0.0667067
-0.0635135
-0.0600057
-0.0567753
-0.0546192
-0.0543185
-0.0564775
-0.0610991
-0.0671747
-0.072719
-0.0752675
-0.0727942
-0.0658279
-0.0565949
-0.0590276
-0.0614693
-0.0622226
-0.064116
-0.0648268
-0.0657301
-0.0666697
-0.0659998
-0.066792
-0.0671277
-0.0673682
-0.067208
-0.074359
-0.0704243
-0.0682151
-0.0665471
-0.0640885
-0.0611883
-0.0583168
-0.0561837
-0.0555655
-0.0570641
-0.0609793
-0.0668235
-0.0731013
-0.0774308
-0.077226
-0.0710695
-0.0607213
-0.0485297
-0.0523413
-0.05645
-0.0583447
-0.0604661
-0.0612104
-0.0625118
-0.0643684
-0.0633193
-0.0648055
-0.0655601
-0.0665856
-0.0660702
-0.0727224
-0.0689852
-0.0671381
-0.0660836
-0.064318
-0.0620775
-0.0596944
-0.0577664
-0.0570335
-0.0581126
-0.0613638
-0.0666618
-0.0730093
-0.078458
-0.0803611
-0.076493
-0.066456
-0.0529749
-0.0379866
-0.0431796
-0.0484395
-0.0509795
-0.0550183
-0.0565812
-0.0588678
-0.060298
-0.059145
-0.060947
-0.0621992
-0.0641244
-0.0632139
-0.0709911
-0.0675346
-0.0659914
-0.0653858
-0.0642142
-0.0626084
-0.0607746
-0.0591624
-0.058451
-0.0592764
-0.0620408
-0.0667595
-0.0727992
-0.0786915
-0.0821022
-0.0804724
-0.0724972
-0.0589444
-0.0428471
-0.0249899
-0.0311947
-0.0378305
-0.0413992
-0.0466054
-0.0488337
-0.0512628
-0.0551144
-0.052984
-0.055678
-0.0592466
-0.0596948
-0.0582434
-0.0692935
-0.0662008
-0.0648921
-0.0645534
-0.0638314
-0.0627867
-0.0614993
-0.0602619
-0.0596426
-0.0602917
-0.0626693
-0.0668912
-0.0725259
-0.0784335
-0.0827351
-0.0829598
-0.0771439
-0.0652713
-0.0489792
-0.0308784
-0.0112017
-0.0164944
-0.0239419
-0.0289148
-0.0356201
-0.038736
-0.0417363
-0.0467784
-0.0441757
-0.0481938
-0.0504605
-0.0542282
-0.0524108
-0.0550291
-0.0597049
-0.0677544
-0.0651044
-0.0639624
-0.0636951
-0.06326
-0.0626588
-0.0618768
-0.0610353
-0.0605559
-0.0610438
-0.0630395
-0.0667695
-0.0719752
-0.0777405
-0.0824773
-0.0840848
-0.0803606
-0.0703878
-0.0553467
-0.037268
-0.0180123
-0.00437996
0.00200956
-0.0120601
-0.021034
-0.0254789
-0.0293124
-0.035862
-0.0325814
-0.0378727
-0.0408101
-0.0459403
-0.0434499
-0.0475083
-0.0497357
-0.0535919
-0.0518543
-0.0664984
-0.0643393
-0.0632988
-0.0629329
-0.0626033
-0.0623039
-0.0619486
-0.0615055
-0.0612091
-0.0615601
-0.0631259
-0.0662814
-0.0709544
-0.0764505
-0.0814006
-0.0839309
-0.0820255
-0.074186
-0.0607174
-0.0435622
-0.0246374
-0.00481765
0.00788543
0.000951207
-0.00477025
0.0156377
-0.0105118
-0.0215594
-0.0176604
-0.0242598
-0.0281555
-0.0348688
-0.0316275
-0.0370299
-0.0399291
-0.0451467
-0.0427282
-0.0656097
-0.063932
-0.0629461
-0.0623663
-0.0619827
-0.0618174
-0.0617805
-0.0617109
-0.0616485
-0.061922
-0.0630529
-0.0655202
-0.0694789
-0.074493
-0.0794296
-0.0825906
-0.0820759
-0.0763203
-0.0648273
-0.0489157
-0.0306897
-0.0114292
0.00879951
0.0214416
0.0142545
0.00789388
0.00385515
0.000692083
-0.00242553
-0.00513913
0.0291977
-0.00855912
-0.0114516
-0.0143974
-0.0199197
-0.0232718
-0.0271427
-0.0339431
-0.0307716
-0.0651132
-0.0638475
-0.0628843
-0.0620559
-0.0615
-0.0613127
-0.0614493
-0.0616971
-0.0619112
-0.0622058
-0.0629717
-0.0647137
-0.0677777
-0.0720329
-0.0766424
-0.0801261
-0.0806671
-0.0766519
-0.0672819
-0.0530587
-0.0358014
-0.0171824
0.00223996
0.0225684
0.0346982
0.0281155
0.0217605
0.0176226
0.014278
0.0108359
0.00787481
0.0424266
-0.0146522
-0.0190563
-0.0649635
-0.0639956
-0.0630415
-0.0620018
-0.0612273
-0.0608915
-0.0610491
-0.0615121
-0.0620171
-0.0624493
-0.0629922
-0.0640796
-0.0661721
-0.0694219
-0.073357
-0.0767838
-0.0780203
-0.0754086
-0.0679346
-0.0556527
-0.0397327
-0.0219168
-0.00323938
0.0161644
0.0362943
0.0470744
0.0411411
0.0355497
0.0315301
0.0283317
0.0248503
0.021911
0.0555265
-0.0650669
-0.0642728
-0.0633243
-0.0621546
-0.0611825
-0.0606352
-0.0606741
-0.0612191
-0.0619751
-0.0626438
-0.0631527
-0.0637588
-0.064936
-0.0670553
-0.0700166
-0.0730011
-0.0745428
-0.0729802
-0.067082
-0.0565785
-0.0422508
-0.0254826
-0.00757818
0.0109157
0.0301451
0.049803
0.0599626
0.0528648
0.0471945
0.0445588
0.0419246
0.038636
0.0358646
0.0673882
-0.0653127
-0.0645849
-0.063645
-0.0624365
-0.0613359
-0.0605782
-0.0604105
-0.0608912
-0.0618039
-0.0627515
-0.0634148
-0.0637908
-0.0642348
-0.0652429
-0.0670471
-0.0692512
-0.070715
-0.0698533
-0.0652728
-0.05633
-0.0434385
-0.0278218
-0.0107472
0.00695142
0.0251056
0.0439476
0.0623553
0.0712377
0.0656362
0.0603354
0.0565972
0.0534641
0.0491672
0.0477939
0.0771948
-0.0656046
-0.0648704
-0.063942
-0.0627681
-0.0616248
-0.0607106
-0.0603092
-0.0606129
-0.0615459
-0.0627357
-0.0636895
-0.0641075
-0.0641091
-0.0641656
-0.0647652
-0.0659468
-0.0669953
-0.0665104
-0.062932
-0.0553265
-0.0437678
-0.0291739
-0.0128537
0.00416703
0.0214394
0.0390913
0.0570349
0.0732348
0.0801843
0.0759225
0.07175
0.0688399
0.0663362
0.0633279
0.0606858
0.058237
0.0548998
0.0500134
0.0847524
-0.0658769
-0.0650972
-0.0641805
-0.0630867
-0.0619772
-0.0609876
-0.0603865
-0.0604524
-0.0612722
-0.0625923
-0.0638752
-0.0645697
-0.064469
-0.0638669
-0.0633582
-0.0633788
-0.0637146
-0.0633212
-0.0606452
-0.0543091
-0.0438815
-0.0301083
-0.0143178
0.00228766
0.018989
0.0356704
0.0525338
0.0688656
0.0820713
0.0868492
0.0838441
0.0807436
0.0785275
0.0766166
0.0741897
0.0721074
0.0700574
0.0673569
0.0646482
0.0619123
0.0902079
-0.066098
-0.0652557
-0.0643452
-0.0633498
-0.0623302
-0.0613498
-0.0606214
-0.060451
-0.0610591
-0.0623674
-0.0639112
-0.0650083
-0.0651291
-0.0642467
-0.0628806
-0.0617302
-0.061112
-0.0604798
-0.058429
-0.0533534
-0.0442696
-0.0313279
-0.0158155
0.000751178
0.0173382
0.0335034
0.0493794
0.0650414
0.0790283
0.0887912
0.0914834
0.089554
0.0874203
0.0858941
0.0845304
0.0826738
0.0811127
0.0795337
0.0774398
0.0752546
0.073014
0.093805
-0.0662573
-0.0653502
-0.0644391
-0.0635333
-0.0626325
-0.0617337
-0.0609676
-0.0606132
-0.0609718
-0.0621347
-0.0638014
-0.0652945
-0.0658586
-0.0650927
-0.0632416
-0.0610753
-0.0593488
-0.058154
-0.0565473
-0.0527651
-0.045177
-0.033334
-0.0181206
-0.00124043
0.0157687
0.0320686
0.0474846
0.0623459
0.0763148
0.0872765
0.0934587
0.094387
0.0933061
0.0920109
0.0910762
0.0901975
0.0888754
0.0877947
0.0866931
0.0851843
0.0835371
0.0818253
0.095795
-0.0663565
-0.0656289
-0.0651407
-0.0646818
-0.0636349
-0.06425
-0.0628473
-0.0620763
-0.0613629
-0.06091
-0.0610355
-0.0619679
-0.063599
-0.0653778
-0.0664604
-0.0661245
-0.0642252
-0.0613561
-0.058525
-0.0564288
-0.054766
-0.0521
-0.0464232
-0.0362635
-0.0217696
-0.00454619
0.013377
0.0305324
0.0462975
0.0607931
0.0743885
0.0860101
0.0933736
0.0962036
0.0958558
0.0953998
0.0947998
0.094317
0.0938508
0.0929998
0.0923485
0.0916605
0.0906717
0.0895341
0.0883258
0.0965576
-0.0666692
-0.066129
-0.0657488
-0.0654969
-0.065272
-0.0650317
-0.0647855
-0.064561
-0.0638395
-0.0629671
-0.0634749
-0.0643565
-0.0641471
-0.0623285
-0.0617324
-0.0612799
-0.0612368
-0.06191
-0.0633788
-0.065278
-0.0668182
-0.0670823
-0.065528
-0.0623888
-0.0586478
-0.0554708
-0.0533417
-0.0514099
-0.0476123
-0.0397536
-0.0268345
-0.00976716
0.00921086
0.0278687
0.044869
0.0598749
0.0733483
0.0852642
0.0936967
0.0971916
0.0973794
0.0962564
0.0961855
0.0961279
0.0959638
0.0958229
0.0953509
0.095065
0.0946954
0.0941503
0.0934513
0.092697
0.0965314
-0.0665301
-0.0662862
-0.0660154
-0.0657332
-0.0654894
-0.0652785
-0.0650453
-0.0647709
-0.0645509
-0.0639247
-0.0637327
-0.0631329
-0.0624755
-0.0628496
-0.0635547
-0.0633826
-0.064359
-0.0641529
-0.0620161
-0.061641
-0.0615253
-0.0619691
-0.0631953
-0.065055
-0.0669046
-0.0677834
-0.0668427
-0.0638769
-0.059593
-0.055331
-0.0522564
-0.05042
-0.0482784
-0.0431606
-0.0328422
-0.0169887
0.00258223
0.0230389
0.0420897
0.0586395
0.0727781
0.085032
0.0944218
0.0988514
0.098933
0.0975465
0.0959371
0.0960358
0.0963744
0.0964034
0.0965048
0.0963178
0.0963162
0.0961743
0.0959691
0.0956228
0.0952535
0.0959944
-0.0665262
-0.0662978
-0.0660373
-0.0639124
-0.0637205
-0.0631966
-0.0630444
-0.0626044
-0.0621951
-0.0624162
-0.0629029
-0.0627759
-0.0635531
-0.0633811
-0.0619347
-0.0618232
-0.0621133
-0.0630796
-0.0647715
-0.0667573
-0.0681455
-0.067925
-0.0654952
-0.0611244
-0.0560275
-0.0517997
-0.049394
-0.048179
-0.0457348
-0.0388841
-0.0256721
-0.00667551
0.0152581
0.0368359
0.0558935
0.0717673
0.0849354
0.0953348
0.101029
0.101356
0.0992394
0.0970881
0.0951164
0.0952345
0.0958569
0.0959924
0.0962757
0.0962829
0.09649
0.0964958
0.0965344
0.096454
0.096373
0.094717
-0.0631864
-0.0630314
-0.0626447
-0.0625407
-0.0622942
-0.0621421
-0.0622084
-0.0624473
-0.0623718
-0.0628978
-0.0627695
-0.0620887
-0.062283
-0.0630312
-0.0644854
-0.0664368
-0.0681659
-0.0686333
-0.06695
-0.0629282
-0.0573966
-0.0520402
-0.0485388
-0.0473824
-0.0469771
-0.0439066
-0.0347103
-0.018058
0.00421272
0.0282124
0.0504502
0.0691407
0.0841764
0.095958
0.103254
0.10448
0.101785
0.098548
0.0957281
0.0934839
0.0940369
0.0947969
0.0948966
0.0953502
0.0955261
0.0958954
0.0959925
0.0962174
0.0963209
0.0964464
0.0918182
-0.0626364
-0.0625295
-0.0623128
-0.0622628
-0.062223
-0.0623114
-0.0622366
-0.062227
-0.0622043
-0.0624406
-0.0623647
-0.0624726
-0.0630183
-0.0642286
-0.0660172
-0.0678833
-0.0689024
-0.0680429
-0.0646931
-0.0591918
-0.0529876
-0.0481529
-0.0462109
-0.0467994
-0.047067
-0.0427212
-0.0303537
-0.009727
0.0157113
0.0413047
0.0636778
0.0816732
0.0955312
0.104824
0.107771
0.105117
0.10057
0.0965453
0.0924837
0.0901266
0.091396
0.0932462
0.0934478
0.0938689
0.0941351
0.0945923
0.0947696
0.0951954
0.0954709
0.0957611
0.0864876
-0.0623071
-0.0622577
-0.0622271
-0.0622309
-0.0623855
-0.0626866
-0.0624856
-0.0622556
-0.0622814
-0.0622224
-0.0622037
-0.0630811
-0.0639992
-0.0655619
-0.0673751
-0.0687237
-0.0686245
-0.0661738
-0.0611389
-0.0545188
-0.0484239
-0.0451161
-0.0455454
-0.0480694
-0.0484707
-0.0418735
-0.0253472
-0.000467862
0.027753
0.0542722
0.0762454
0.0931435
0.104943
0.110357
0.108802
0.10321
0.0974134
0.0921872
0.086425
0.0847016
0.0868025
0.0896359
0.0900774
0.0913418
0.0921114
0.0929836
0.093329
0.0936193
0.0938344
0.094289
0.0786834
-0.0622272
-0.0622381
-0.0623852
-0.0624361
-0.0627585
-0.0632489
-0.0629275
-0.0625187
-0.0625832
-0.0622586
-0.0622945
-0.0638866
-0.0651036
-0.0667381
-0.0681645
-0.0686155
-0.0671112
-0.0629361
-0.0563981
-0.0493379
-0.0444735
-0.0438294
-0.0471962
-0.0513447
-0.050921
-0.0407569
-0.0192116
0.00982435
0.040092
0.0667204
0.0877156
0.102773
0.111231
0.111948
0.10626
0.0985486
0.0913839
0.0846956
0.0776275
0.0773215
0.0805015
0.0840872
0.0848583
0.0865138
0.0877737
0.0891723
0.0895019
0.0906623
0.0915764
0.0925163
0.0930056
0.069239
-0.0623941
-0.0624613
-0.0627612
-0.0628489
-0.0633148
-0.0639575
-0.0635266
-0.0629848
-0.0630766
-0.0625344
-0.0626174
-0.0647746
-0.0660555
-0.0673621
-0.0680592
-0.0673535
-0.0642676
-0.0583964
-0.050894
-0.0445525
-0.0422696
-0.0452195
-0.0515412
-0.0564573
-0.0538096
-0.0385861
-0.0115902
0.0209985
0.0522538
0.0780971
0.0973207
0.109428
0.113364
0.10904
0.100029
0.0905569
0.0820337
0.0744719
0.0670986
0.0686186
0.0727309
0.076875
0.078027
0.0799897
0.081738
0.0834735
0.0840272
0.0856423
0.0870125
0.0883414
0.0887824
0.0899377
0.0909085
0.0918231
0.0594639
-0.0627812
-0.0628964
-0.0633219
-0.0634321
-0.0640095
-0.0646963
-0.0642212
-0.0636138
-0.0637143
-0.0630158
-0.0631352
-0.0654914
-0.066475
-0.06713
-0.0668982
-0.064879
-0.0601253
-0.0528867
-0.0455244
-0.0414212
-0.0430221
-0.049995
-0.0585606
-0.0628972
-0.056157
-0.0346742
-0.00239196
0.0325738
0.0635514
0.0876079
0.104014
0.111902
0.110396
0.10152
0.0900292
0.0791565
0.070071
0.0626339
0.0562668
0.0596685
0.0640112
0.0684888
0.0698923
0.0720499
0.0741902
0.0761779
0.0769072
0.0789062
0.0807027
0.0824399
0.0831484
0.084776
0.0862499
0.0875771
0.0510821
-0.0633476
-0.0634988
-0.0640147
-0.0641262
-0.0647398
-0.0652328
-0.0648725