/*--------------------------------*- C++ -*----------------------------------*\
| =========                 |                                                 |
| \\      /  F ield         | OpenFOAM: The Open Source CFD Toolbox           |
|  \\    /   O peration     | Version:  v1912                                 |
|   \\  /    A nd           | Website:  www.openfoam.com                      |
|    \\/     M anipulation  |                                                 |
\*---------------------------------------------------------------------------*/
FoamFile
{
    version     2.0;
    format      ascii;
    class       surfaceScalarField;
    location    "420";
    object      phi;
}
// * * * * * * * * * * * * * * * * * * * * * * * * * * * * * * * * * * * * * //

dimensions      [0 3 -1 0 0 0 0];
oriented        oriented;


internalField   nonuniform List<scalar> 
7191
(
-1.95344e-06
0.00132346
-9.07646e-06
0.00397423
-2.10587e-06
0.00132557
-2.41753e-05
0.00658496
-9.46216e-06
0.00398159
-2.10931e-06
0.00132768
-4.48184e-05
0.00906853
-2.40427e-05
0.00659954
-9.46532e-06
0.00398895
-1.99043e-06
0.00132967
-7.50954e-05
0.0113128
-4.80903e-05
0.00909258
-2.35639e-05
0.00661364
-9.33955e-06
0.00399629
-2.03283e-06
0.0013317
-0.000115878
0.0131806
-7.91313e-05
0.0113439
-4.53788e-05
0.00911439
-2.41804e-05
0.00662848
-9.72435e-06
0.00400399
-1.71639e-06
0.00133342
-0.000162339
0.0145441
-0.00011955
0.0132211
-7.90237e-05
0.0113775
-4.63647e-05
0.00913658
-2.17583e-05
0.00664052
-8.08102e-06
0.00401035
-1.59266e-06
0.00133501
-0.000206852
0.01529
-0.000165264
0.0145899
-0.000117896
0.0132599
-7.33384e-05
0.0114045
-4.14346e-05
0.00915625
-1.95598e-05
0.00665199
-7.26133e-06
0.00401602
-1.48918e-06
0.0013365
-0.000249977
0.0153519
-0.000215704
0.0153405
-0.000162601
0.0146346
-0.000112595
0.0132992
-7.07363e-05
0.0114338
-3.77906e-05
0.00917448
-1.82219e-05
0.00666295
-6.63871e-06
0.00402117
-1.16317e-06
0.00133766
-0.00028041
0.0146901
-0.000258911
0.0153951
-0.000211806
0.0153897
-0.000156092
0.0146781
-0.000101067
0.0133295
-6.17578e-05
0.0114577
-3.35561e-05
0.00918982
-1.5527e-05
0.00667184
-4.56664e-06
0.00402457
-1.17748e-06
0.00133884
-0.000293126
0.0133428
-0.000301327
0.0147326
-0.000258838
0.0154422
-0.000198131
0.0154317
-0.000137217
0.0147142
-9.21673e-05
0.0133599
-5.43293e-05
0.0114785
-2.99379e-05
0.00920423
-1.41731e-05
0.00668145
-5.1946e-06
0.00402859
-8.44779e-07
0.00133968
-0.00028636
0.0113948
-0.000332498
0.013374
-0.000298114
0.0147718
-0.000237762
0.0154818
-0.00017464
0.0154691
-0.00012272
0.0147448
-7.85408e-05
0.0133841
-4.75637e-05
0.0114961
-2.56624e-05
0.00921572
-1.08912e-05
0.00668715
-4.57351e-06
0.00403232
-7.50442e-07
0.00134043
-0.000246403
0.00897877
-0.000352947
0.0114153
-0.000327646
0.0134035
-0.000264243
0.0147983
-0.000201428
0.0155086
-0.000148686
0.0154951
-0.000102547
0.0147688
-6.58437e-05
0.0134024
-3.94962e-05
0.01151
-2.14486e-05
0.00922628
-1.13742e-05
0.00669395
-4.16804e-06
0.00403574
-7.86839e-07
0.00134122
0.00624764
-0.000110273
-5.04326e-05
-0.000357963
0.00898379
-0.000344311
0.0114319
-0.000277641
0.0134169
-0.000217095
0.014814
-0.000166935
0.0155268
-0.000119795
0.0155123
-8.43096e-05
0.0147872
-5.80232e-05
0.013421
-3.63598e-05
0.0115249
-2.06477e-05
0.00923555
-1.02422e-05
0.00670002
-4.00733e-06
0.00403896
-7.71703e-07
0.00134199
0.00623327
-0.000201375
-0.000142223
-0.00212035
0.0020738
-6.37202e-05
-3.27348e-05
-0.00213805
-0.000350123
0.0089896
-0.00026958
0.0114239
-0.0002113
0.0134111
-0.000167293
0.0148143
-0.000129753
0.0155368
-0.000101362
0.0155294
-7.37008e-05
0.0148029
-4.78271e-05
0.0134324
-3.02808e-05
0.0115345
-1.74252e-05
0.00924273
-8.68756e-06
0.0067047
-3.88527e-06
0.00404207
-8.39823e-07
0.00134283
0.00621925
-0.000140192
-0.000195908
-0.00204306
0.00201582
-0.000174141
-0.000111482
-0.00139774
0.00135446
-1.55278e-05
-4.91283e-06
-9.14314e-07
-0.0014229
-6.6593e-06
-2.01256e-05
-0.0002286
0.00894862
-0.000184044
0.0113966
-0.000154343
0.0133982
-0.000128932
0.0148135
-0.000105407
0.0155408
-8.079e-05
0.0155365
-5.75486e-05
0.0148126
-4.23753e-05
0.0134445
-2.77353e-05
0.0115448
-1.88125e-05
0.00925286
-1.02257e-05
0.00671104
-3.429e-06
0.00404466
-1.08229e-06
0.00134391
0.00613296
-4.19568e-05
-0.000100348
-0.00199174
0.00196096
-0.000109409
-0.000171825
-0.00129969
0.00126563
-8.70334e-05
-5.30405e-05
-1.70046e-05
-3.97134e-05
-0.000439189
0.000429158
-5.49688e-06
-0.000441457
-2.64485e-06
0.000446357
-0.000446502
-7.69304e-07
-3.61146e-06
-6.19803e-08
-1.75923e-06
-0.000125398
0.00888998
-0.0001173
0.0113596
-0.00010772
0.013377
-9.62205e-05
0.0148043
-8.01836e-05
0.0155402
-6.39406e-05
0.0155429
-5.2161e-05
0.0148224
-3.84559e-05
0.0134552
-2.71151e-05
0.0115531
-1.7165e-05
0.0092598
-1.07645e-05
0.00671838
-4.98789e-06
0.00404857
-1.14317e-06
0.00134506
0.00605238
-8.25004e-06
-3.65753e-05
-0.00191513
0.00189752
-2.43447e-05
-5.45206e-05
-0.00123751
0.0011856
-1.70323e-05
-4.04628e-05
-8.00811e-05
-6.36274e-05
-0.000380112
0.000353076
-5.99976e-05
-0.000399924
-3.32283e-05
0.000421352
-9.19841e-06
-1.82855e-05
-0.000257694
0.00025296
-7.62813e-07
-0.000259925
-4.14009e-07
-0.000449049
-1.06419e-06
0.000261408
-0.000262115
-6.23213e-08
-1.939e-08
-2.76062e-07
-6.71776e-05
0.00883985
-7.48251e-05
0.0113267
-7.63061e-05
0.0133571
-7.25833e-05
0.0147967
-6.50429e-05
0.0155413
-5.80439e-05
0.0155488
-4.68333e-05
0.0148308
-3.67666e-05
0.0134649
-2.91631e-05
0.0115651
-2.05554e-05
0.00926959
-1.06081e-05
0.006724
-5.31172e-06
0.00405273
-1.21033e-06
0.00134627
0.00600118
-6.30081e-07
-1.534e-05
-0.0018735
0.0018707
-5.44251e-06
-1.25611e-05
-0.00114406
0.00112304
-1.76019e-07
-3.1414e-06
-1.04118e-05
-2.5741e-06
-0.000289617
0.000278903
-6.31894e-06
-0.000311391
-1.86884e-05
0.00033147
-5.84751e-05
-4.35486e-05
-0.000207495
0.000168808
-2.13112e-05
-0.000230986
-9.73645e-06
0.000245488
-1.72644e-06
-3.78428e-06
-7.5016e-05
7.42531e-05
-7.543e-05
-0.000263065
-1.14236e-07
7.5706e-05
-7.57684e-05
-4.50467e-08
-3.73293e-05
0.00880236
-4.90271e-05
0.0112994
-5.43575e-05
0.0133388
-5.47212e-05
0.0147864
-5.42082e-05
0.0155375
-4.90594e-05
0.015551
-4.31846e-05
0.0148372
-3.80147e-05
0.0134737
-2.95341e-05
0.0115741
-2.03564e-05
0.00927934
-1.36268e-05
0.00673231
-6.1586e-06
0.00405768
-1.53441e-06
0.0013478
0.00597079
9.52329e-07
-7.89871e-06
-0.0018589
0.00185927
-1.00669e-06
-3.54105e-06
-0.00111146
0.00110611
5.50343e-07
-6.38958e-07
-1.20268e-06
2.16985e-07
-0.000266104
0.000266021
-9.30502e-08
-0.00026887
-3.7536e-07
0.000270772
-2.28028e-06
-6.71986e-07
-8.5791e-05
7.9472e-05
-0.000104479
0.000148028
-3.76947e-05
-5.9006e-05
3.76947e-05
-6.87424e-05
7.25267e-05
-7.58826e-05
-2.20691e-05
0.0087754
-3.3542e-05
0.0112786
-4.06689e-05
0.0133248
-4.67812e-05
0.014779
-4.76754e-05
0.0155361
-4.67492e-05
0.0155545
-4.59178e-05
0.0148451
-4.06521e-05
0.0134849
-3.25969e-05
0.0115864
-2.51074e-05
0.00929082
-1.5119e-05
0.00674127
-6.92666e-06
0.00406307
-1.57257e-06
0.00134938
0.00595208
1.64794e-06
-5.00723e-06
-0.00185279
0.00185438
-6.28687e-07
-1.4184e-06
-0.00110268
0.00110159
4.0351e-07
-3.23513e-07
-3.34669e-07
2.24643e-07
-0.000264488
0.000264979
5.9381e-08
-0.000265184
5.6598e-08
0.000264991
-1.73281e-07
2.46673e-08
-7.61444e-05
7.60514e-05
-7.65198e-05
7.71917e-05
-1.40523e-05
0.00875591
-2.49536e-05
0.0112629
-3.20573e-05
0.0133101
-3.78271e-05
0.0147691
-4.44681e-05
0.0155338
-4.7726e-05
0.0155564
-4.933e-05
0.0148538
-4.53633e-05
0.0134976
-3.93762e-05
0.0116006
-2.85337e-05
0.00930423
-1.70098e-05
0.00675136
-7.7738e-06
0.00406928
-1.9359e-06
0.00135131
0.00594022
9.617e-07
-3.15309e-06
-0.00185003
0.00185171
-3.21601e-08
-6.58892e-07
-0.00110021
0.00109948
2.63618e-07
-1.61841e-07
-1.88696e-07
1.51834e-07
-0.000264495
0.000264866
3.30138e-08
-0.0002649
8.06737e-08
0.000264731
-8.63793e-08
5.57143e-08
-7.59593e-05
7.60187e-05
-7.59027e-05
7.58781e-05
-1.01875e-05
0.00874114
-1.72913e-05
0.0112481
-2.74945e-05
0.0132997
-3.55772e-05
0.0147602
-4.38161e-05
0.0155299
-5.345e-05
0.0155605
-5.57667e-05
0.0148642
-5.42461e-05
0.0135125
-4.52259e-05
0.0116173
-3.40161e-05
0.00932124
-2.04307e-05
0.00676401
-9.34247e-06
0.00407668
-2.03639e-06
0.00135335
0.00593117
7.36247e-07
-1.86779e-06
-0.0018491
0.00184984
2.22649e-07
-5.47554e-07
-0.00109892
0.00109873
2.52883e-07
-9.60569e-08
-1.52388e-07
4.6824e-08
-0.000264637
0.00026489
1.05866e-08
-0.000264865
6.57446e-08
0.000264746
-6.85982e-08
3.26786e-08
-7.60687e-05
7.61017e-05
-7.59881e-05
7.59323e-05
-7.0887e-06
0.00873094
-1.43154e-05
0.0112349
-2.50142e-05
0.0132892
-3.63755e-05
0.0147528
-4.92456e-05
0.0155257
-5.91307e-05
0.0155638
-6.58785e-05
0.0148758
-6.35218e-05
0.0135308
-5.33981e-05
0.0116367
-3.59012e-05
0.00933671
-2.07634e-05
0.00677543
-8.88359e-06
0.00408353
-1.8482e-06
0.0013552
0.0059244
1.15887e-06
-1.48499e-06
-0.00184836
0.00184892
1.78695e-07
-3.91593e-07
-0.00109824
0.00109841
1.64131e-07
-1.08512e-07
-8.8168e-08
3.45203e-08
-0.000264681
0.000264925
8.22461e-09
-0.000264848
7.10514e-08
0.000264818
-7.96457e-08
1.67838e-08
-7.61316e-05
7.61422e-05
-7.60658e-05
7.60331e-05
-5.9437e-06
0.00872257
-1.30349e-05
0.0112229
-2.40197e-05
0.0132768
-4.21477e-05
0.0147457
-6.09371e-05
0.0155275
-7.5692e-05
0.0155736
-7.95623e-05
0.0148919
-7.32072e-05
0.0135506
-5.87171e-05
0.0116595
-4.11227e-05
0.00935707
-2.29132e-05
0.00678946
-8.79001e-06
0.00409047
-1.91831e-06
0.00135711
0.00591867
9.68602e-07
-1.18163e-06
-0.00184765
0.00184859
2.23944e-07
-2.13506e-07
-0.00109808
0.00109814
1.6247e-07
-4.35915e-08
-2.03341e-08
-4.46927e-08
-0.000264761
0.000264923
2.06519e-09
-0.000264938
6.83496e-08
0.000264918
-8.05128e-08
1.40277e-08
-7.61503e-05
7.61586e-05
-7.60793e-05
7.60625e-05
-4.12407e-06
0.00871366
-1.27559e-05
0.0112117
-2.84988e-05
0.0132632
-4.73668e-05
0.0147321
-7.09129e-05
0.0155227
-8.95585e-05
0.0155836
-9.74621e-05
0.0149161
-8.69462e-05
0.0135788
-6.64593e-05
0.0116849
-4.34203e-05
0.00937757
-2.24125e-05
0.00680309
-9.48941e-06
0.00409804
-2.49902e-06
0.00135961
0.00591437
8.22468e-07
-6.48406e-07
-0.00184759
0.00184833
2.32873e-07
-1.85899e-07
-0.00109798
0.00109807
1.66211e-07
-3.17208e-08
-1.88567e-08
-3.87793e-08
-0.000264789
0.000264946
5.46949e-09
-0.00026493
9.7144e-08
0.000264983
-8.0175e-08
8.49774e-09
-7.61604e-05
7.61625e-05
-7.60921e-05
7.60781e-05
-4.69048e-06
0.00870559
-1.51406e-05
0.0111983
-3.49435e-05
0.0132507
-6.5029e-05
0.0147262
-9.42797e-05
0.0155275
-0.000113101
0.0155993
-0.000113283
0.0149425
-9.7367e-05
0.0136097
-7.14539e-05
0.0117129
-4.46467e-05
0.00939981
-2.27554e-05
0.00681635
-7.73206e-06
0.00410328
-7.22921e-07
0.00136034
0.00590959
4.3907e-07
-3.42313e-07
-0.00184767
0.00184822
2.67663e-07
1.04178e-08
-0.00109795
0.00109804
1.649e-07
-2.25378e-08
-1.16193e-08
-4.89756e-08
-0.000264859
0.000265019
6.04226e-09
-0.000264956
6.54326e-08
0.000265011
-8.36296e-08
1.62354e-08
-7.6188e-05
7.61934e-05
-7.60908e-05
7.60823e-05
-4.74282e-06
0.0086952
-2.03773e-05
0.0111838
-4.7501e-05
0.0132332
-8.48285e-05
0.0147168
-0.000118777
0.0155331
-0.00013688
0.0156229
-0.000130176
0.0149753
-0.000106837
0.0136451
-7.5097e-05
0.0117433
-4.20454e-05
0.0094191
-2.13441e-05
0.00682996
-6.70962e-06
0.00410926
-6.53791e-07
0.00136099
0.00590542
-7.52203e-07
1.80004e-07
-0.00184782
0.00184812
1.36083e-07
5.77515e-08
-0.0010981
0.00109821
1.68671e-07
-1.66794e-08
-6.9204e-09
-3.88282e-08
-0.000264929
0.0002651
-6.53148e-09
-0.000264938
-1.34709e-08
0.000265096
-8.80799e-08
1.08642e-07
-7.61915e-05
7.61975e-05
-7.6126e-05
7.61098e-05
-7.56448e-06
0.00868238
-2.78182e-05
0.0111641
-6.49896e-05
0.0132134
-0.00011385
0.0147119
-0.000151588
0.0155478
-0.000163771
0.0156565
-0.000145093
0.0150135
-0.000111121
0.0136811
-7.23018e-05
0.0117736
-4.1122e-05
0.00943888
-1.7437e-05
0.00684069
-6.20332e-06
0.00411481
-4.02924e-07
0.00136139
0.00589784
-1.04468e-06
1.05753e-06
-0.00184821
0.00184731
1.43955e-07
9.68543e-08
-0.0010983
0.00109828
1.70549e-07
-1.31768e-08
3.25941e-09
-3.28839e-08
-0.000264984
0.000265158
-5.5005e-09
-0.000264989
-1.15773e-08
0.00026514
-4.65576e-08
1.12003e-07
-7.62046e-05
7.61981e-05
-7.62181e-05
7.61094e-05
-1.12171e-05
0.00866578
-4.06757e-05
0.0111398
-9.54344e-05
0.013195
-0.000151949
0.0147122
-0.000189349
0.0155734
-0.000186032
0.0156974
-0.000155185
0.0150576
-0.000110435
0.0137193
-6.82303e-05
0.0118007
-3.64103e-05
0.00945785
-1.59755e-05
0.00685046
-2.99241e-06
0.0041174
-1.81797e-07
0.00136157
0.00588724
-2.00982e-06
1.39342e-06
-0.0018482
0.00184735
-1.92049e-07
1.70339e-07
-0.00109839
0.00109839
1.65562e-07
-2.02843e-08
3.56324e-09
-2.37953e-08
-0.000265092
0.000265268
-5.40422e-09
-0.000265095
-1.01209e-08
0.00026524
-7.90094e-08
1.12802e-07
-7.62519e-05
7.62464e-05
-7.62635e-05
7.61515e-05
-1.83554e-05
0.00864346
-6.47635e-05
0.0111091
-0.000135795
0.0131788
-0.000199858
0.0147227
-0.000223028
0.0156104
-0.000197876
0.0157401
-0.000153851
0.015101
-0.000102672
0.0137537
-6.10507e-05
0.0118253
-3.09719e-05
0.00947285
-1.06899e-05
0.00685816
-2.73651e-06
0.00411996
1.91723e-07
0.00136138
0.00587143
-3.45686e-06
9.07748e-07
-0.00184827
0.00184668
-4.13019e-07
4.64284e-07
-0.00109859
0.00109822
1.792e-07
2.64534e-09
-6.27435e-10
-3.00265e-08
-0.000265169
0.000265343
-8.34438e-09
-0.000265211
2.21546e-08
0.000265315
-4.3688e-08
7.98355e-08
-7.62701e-05
7.62647e-05
-7.62802e-05
7.61674e-05
-3.09161e-05
0.00860962
-0.000101084
0.0110744
-0.000192228
0.0131712
-0.000249509
0.0147492
-0.000241759
0.0156543
-0.000200387
0.0157866
-0.000142893
0.0151412
-9.28401e-05
0.0137855
-5.18672e-05
0.0118462
-2.28618e-05
0.00948502
-6.48727e-06
0.00686191
7.62681e-07
0.00411939
1.74596e-06
0.00135964
0.00584479
-5.90578e-06
1.63303e-06
-0.00184704
0.00184423
-6.4436e-07
5.42585e-07
-0.00109868
0.00109815
1.08426e-07
6.83191e-09
1.80592e-08
-1.20734e-08
-0.000265298
0.000265475
2.52376e-09
-0.000265305
9.4088e-09
0.000265426
-8.40633e-08
9.13773e-08
-7.6323e-05
7.63147e-05
-7.63009e-05
7.6221e-05
-5.55412e-05
0.00856407
-0.000161635
0.0110438
-0.000260645
0.0131823
-0.000281876
0.0147893
-0.000245385
0.0156993
-0.0001857
0.0158294
-0.000126749
0.0151751
-7.72747e-05
0.0138109
-4.13099e-05
0.0118647
-1.56913e-05
0.00949422
-3.03923e-06
0.00686571
1.66474e-06
0.00411947
2.07794e-06
0.00135756
0.00580152
-1.20786e-05
-1.9125e-07
-0.00184591
0.00184095
-9.51614e-07
-4.22743e-08
-0.00109866
0.00109789
5.02223e-08
8.07858e-08
9.37241e-08
-6.35062e-08
-0.000265457
0.000265567
-1.65165e-09
-0.000265462
1.18353e-08
0.000265571
-7.78181e-08
9.67018e-08
-7.63314e-05
7.63339e-05
-7.6322e-05
7.62306e-05
-0.000104605
0.00850704
-0.000243759
0.0110269
-0.000311514
0.0132119
-0.00028854
0.0148325
-0.000225466
0.0157391
-0.000159084
0.0158618
-0.000103901
0.0152018
-6.16277e-05
0.0138312
-2.87075e-05
0.0118777
-9.34086e-06
0.00950052
1.0216e-06
0.00686636
5.28052e-06
0.00411626
2.47586e-06
0.00135508
0.00572996
-2.78162e-05
-5.22622e-06
-0.00184157
0.00183238
-2.88528e-06
-8.10578e-07
-0.00109779
0.00109674
-4.17271e-10
9.89859e-08
1.77396e-07
-1.26502e-07
-0.000265609
0.000265653
5.57758e-09
-0.000265573
4.55513e-08
0.000265706
-4.53268e-08
6.9105e-08
-7.63646e-05
7.6363e-05
-7.63528e-05
7.62561e-05
-0.000192782
0.00845606
-0.000329993
0.0110454
-0.000323329
0.0132467
-0.000256122
0.0148632
-0.000189082
0.0157691
-0.000130956
0.0158888
-8.24559e-05
0.0152226
-4.38005e-05
0.0138463
-1.84405e-05
0.0118868
-2.3284e-06
0.00950387
3.68869e-06
0.00686795
7.33053e-06
0.00411141
2.85657e-06
0.00135223
0.00563448
-7.17615e-05
-2.55427e-05
-0.00183045
0.0018114
-8.76739e-06
-3.30056e-06
-0.00109591
0.00109324
-3.13718e-07
9.78e-08
1.92668e-07
-1.70898e-07
-0.000265758
0.000265787
-2.98888e-08
-0.000265674
1.52869e-08
0.000265903
-7.28126e-08
1.02717e-07
-7.64323e-05
7.64379e-05
-7.63868e-05
7.63177e-05
-0.000324051
0.00845012
-0.000349961
0.011072
-0.000276278
0.0132669
-0.000207558
0.0148816
-0.000147668
0.0157858
-9.9131e-05
0.0159055
-5.87965e-05
0.0152376
-2.92588e-05
0.0138571
-8.52573e-06
0.011893
4.02305e-06
0.00950354
1.08571e-05
0.00686442
7.65602e-06
0.00410661
3.33135e-06
0.0013489
0.00558151
-0.000175349
-9.57305e-05
-0.00179995
0.00175929
-3.11028e-05
-1.40906e-05
-0.00108999
0.00108187
-8.07215e-07
1.58583e-07
4.46979e-07
-4.91653e-07
-0.000265805
0.000265526
-3.43934e-08
-0.000265759
5.17166e-08
0.000266008
-2.77595e-08
7.79009e-08
-7.64831e-05
7.64532e-05
-7.64678e-05
7.63651e-05
-0.000363535
0.0084637
-0.000276008
0.0110717
-0.000206669
0.013266
-0.000154432
0.0148884
-0.000108676
0.0157953
-7.04344e-05
0.0159172
-3.94222e-05
0.0152477
-1.38338e-05
0.0138624
2.88402e-06
0.0118941
1.15353e-05
0.00950286
1.1995e-05
0.00686008
9.21741e-06
0.00410072
3.86936e-06
0.00134503
0.00557509
-0.000161057
-0.000196061
-0.00172308
0.00167436
-0.000126629
-5.95182e-05
-0.00106908
0.00104183
-3.59776e-06
-2.55334e-07
1.39708e-07
-1.44039e-06
-0.000265584
0.000264853
-7.68903e-08
-0.00026545
2.49441e-08
0.00026602
-4.71645e-08
7.80102e-08
-7.65551e-05
7.65207e-05
-7.65033e-05
7.64254e-05
-0.000240081
0.00842777
-0.000179441
0.0110445
-0.000139596
0.0132512
-0.000103969
0.0148837
-7.42917e-05
0.0157992
-4.69021e-05
0.0159246
-2.06838e-05
0.0152546
-3.62392e-06
0.013869
1.08687e-05
0.0118948
1.54108e-05
0.00949945
1.95332e-05
0.00684977
1.07566e-05
0.00409384
4.59937e-06
0.00134043
0.00548462
-4.27511e-05
-0.000106863
-0.00164701
0.00161319
-0.000127237
-0.00016871
-0.000994986
0.000919775
-3.71009e-05
-1.43164e-05
-2.10353e-06
-1.05726e-05
-0.000263495
0.000260422
-5.24262e-07
-0.000263681
-6.98295e-08
0.000265095
-1.01396e-07
-2.65886e-08
-7.65765e-05
7.64996e-05
-7.65515e-05
7.64735e-05
-0.000121425
0.00836975
-0.000106806
0.0110117
-8.983e-05
0.013237
-6.96569e-05
0.0148791
-4.86765e-05
0.0158009
-2.49115e-05
0.0159289
-6.04366e-06
0.015257
8.34437e-06
0.0138715
1.81559e-05
0.0118921
2.16399e-05
0.00949734
1.75251e-05
0.006843
1.52034e-05
0.00408323
6.31776e-06
0.00133411
0.00540027
-5.30561e-06
-3.17642e-05
-0.00156121
0.00153857
-2.01105e-05
-5.48834e-05
-0.000874262
0.00081066
-1.86649e-05
-4.49695e-05
-5.95193e-05
-6.3679e-05
-0.000239589
0.000212464
-9.9759e-06
-0.000250053
-3.85226e-06
0.000258923
-6.05098e-07
-1.70209e-06
-7.63017e-05
7.57775e-05
-7.63716e-05
7.63982e-05
-5.70478e-05
0.00832
-5.9612e-05
0.0109815
-5.32844e-05
0.0132206
-4.12028e-05
0.0148716
-2.33481e-05
0.0157994
-7.17443e-06
0.01593
6.0183e-06
0.0152593
2.06585e-05
0.013869
2.5811e-05
0.0118879
2.83103e-05
0.00948655
2.55847e-05
0.00683262
1.5357e-05
0.00407419
5.77528e-06
0.00132833
0.00535251
1.76574e-06
-1.10538e-05
-0.00151529
0.00151258
-2.59856e-06
-8.48482e-06
-0.000763386
0.000744057
9.83681e-08
-8.79132e-07
-6.36493e-06
-1.24447e-06
-0.000103938
8.52731e-05
-0.000148908
0.000175032
-2.20881e-05
-3.75541e-05
-6.9618e-05
5.96421e-05
-7.34703e-05
7.51724e-05
-2.7042e-05
0.00828743
-3.24976e-05
0.0109607
-2.84886e-05
0.0132079
-1.94279e-05
0.0148677
-9.00842e-06
0.0158012
4.36618e-06
0.0159316
1.70515e-05
0.0152629
2.74046e-05
0.0138674
3.1598e-05
0.0118846
3.2824e-05
0.00947931
2.79953e-05
0.00681998
1.9128e-05
0.00406084
6.59517e-06
0.00132174
0.00532733
3.1503e-06
-5.01046e-06
-0.00150289
0.00150456
1.01049e-07
-1.36543e-06
-0.000735621
0.000732961
1.4615e-07
-8.41288e-08
-1.9488e-07
1.45539e-07
-7.67846e-05
7.68829e-05
-7.76637e-05
7.89082e-05
3.75541e-05
-1.13358e-05
0.00826626
-1.3899e-05
0.0109461
-1.2241e-05
0.0132007
-4.08871e-06
0.0148627
6.70751e-06
0.0157989
1.83135e-05
0.0159304
2.92833e-05
0.0152611
3.54345e-05
0.0138635
3.98382e-05
0.0118776
4.12603e-05
0.00946605
3.18567e-05
0.00680725
2.15197e-05
0.00404592
8.51468e-06
0.00131322
0.0053159
2.89811e-06
-2.81314e-06
-0.00149968
0.00150241
4.27405e-07
-1.34068e-07
-0.000731488
0.000731524
9.54484e-08
-3.05685e-08
-1.84726e-08
1.25642e-07
-7.67495e-05
7.68956e-05
-7.68336e-05
7.66881e-05
-3.37794e-06
0.00825574
-3.26509e-06
0.0109372
9.87625e-07
0.0131957
8.66775e-06
0.0148608
1.92297e-05
0.015798
2.84636e-05
0.0159312
3.8532e-05
0.015258
4.40986e-05
0.0138593
4.85224e-05
0.0118703
4.35852e-05
0.00945432
3.72788e-05
0.00679149
2.15847e-05
0.00403285
8.06887e-06
0.00130516
0.005311
2.72491e-06
-1.19637e-06
-0.00149948
0.00150185
5.26295e-07
1.12426e-07
-0.000731331
0.000731714
6.3783e-08
-1.97219e-08
-3.06436e-08
9.01096e-08
-7.69722e-05
7.70677e-05
-7.70028e-05
7.68772e-05
1.84655e-06
0.00825063
3.80762e-06
0.0109343
9.44262e-06
0.0131949
1.67892e-05
0.0148632
2.67992e-05
0.0157996
3.84696e-05
0.0159313
4.56863e-05
0.0152564
5.40667e-05
0.0138537
5.55908e-05
0.0118583
4.96745e-05
0.00944192
4.08159e-05
0.00677226
2.4382e-05
0.00401653
8.97057e-06
0.00129618
0.00531004
3.06958e-06
-2.66345e-07
-0.00150033
0.00150247
5.84391e-07
3.28294e-07
-0.000731748
0.000732249
5.28131e-08
-2.77606e-08
-4.24466e-09
8.27387e-08
-7.71074e-05
7.71712e-05
-7.71272e-05
7.7037e-05
4.29522e-06
0.00825014
9.08642e-06
0.0109347
1.69167e-05
0.0131948
2.62759e-05
0.0148637
3.61956e-05
0.0158019
4.69783e-05
0.01593
5.63001e-05
0.0152542
6.08573e-05
0.0138485
5.76898e-05
0.0118503
5.5088e-05
0.00942765
4.25052e-05
0.00675414
2.99036e-05
0.0039956
9.37526e-06
0.00128681
0.00531148
2.96222e-06
-1.04134e-07
-0.00150178
0.00150425
5.97642e-07
4.24877e-07
-0.0007325
0.000732973
3.30948e-08
7.76281e-08
2.82887e-08
4.95048e-08
-7.7222e-05
7.72748e-05
-7.72497e-05
7.7167e-05
7.49936e-06
0.00825173
1.43812e-05
0.0109372
2.25321e-05
0.0131985
3.38906e-05
0.014866
4.61199e-05
0.0158028
5.55351e-05
0.0159307
6.3651e-05
0.0152514
6.92872e-05
0.0138369
7.20767e-05
0.0118333
6.28201e-05
0.00940734
5.28558e-05
0.00673119
3.05384e-05
0.00397444
9.95226e-06
0.00127686
0.00531565
2.50704e-06
8.16249e-07
-0.00150371
0.00150604
6.24736e-07
4.3729e-07
-0.000733312
0.00073389
2.04279e-08
-9.93358e-10
3.12979e-08
5.50739e-08
-7.74302e-05
7.74633e-05
-7.73526e-05
7.73031e-05
8.99261e-06
0.00825712
1.70651e-05
0.0109427
2.74621e-05
0.0132049
4.08517e-05
0.0148713
5.22092e-05
0.0158061
6.49267e-05
0.0159295
7.5288e-05
0.0152454
7.92005e-05
0.0138298
8.15579e-05
0.0118146
7.24286e-05
0.00938777
5.44303e-05
0.00670729
3.43156e-05
0.00395007
1.34298e-05
0.00126343
0.00532097
2.57759e-06
1.09616e-06
-0.00150624
0.00150808
6.72588e-07
6.15693e-07
-0.000734277
0.000734848
2.44077e-08
2.92764e-08
7.26741e-09
4.2938e-08
-7.75487e-05
7.75691e-05
-7.75497e-05
7.74946e-05
1.04235e-05
0.00826376
2.10224e-05
0.0109491
3.35246e-05
0.0132123
4.67238e-05
0.0148768
6.09903e-05
0.01581
7.44789e-05
0.0159303
8.31819e-05
0.0152414
8.75479e-05
0.0138238
8.47056e-05
0.0118023
8.01404e-05
0.00936205
6.13655e-05
0.00668024
3.77498e-05
0.00392575
2.76803e-05
0.00123575
0.00532781
2.32419e-06
1.2587e-06
-0.00150851
0.00151015
9.39632e-07
6.61522e-07
-0.000735373
0.000736012
2.79197e-08
5.06829e-09
3.33578e-08
5.77302e-08
-7.76486e-05
7.7673e-05
-7.76193e-05
7.75764e-05
1.15379e-05
0.00827325
2.49266e-05
0.0109577
4.13407e-05
0.0132177
5.55246e-05
0.0148823
7.18285e-05
0.0158127
8.2375e-05
0.0159311
9.28235e-05
0.0152361
9.78363e-05
0.0138106
9.62295e-05
0.0117862
8.59942e-05
0.00933743
6.80052e-05
0.00664999
5.82466e-05
0.00389519
5.4639e-05
0.00533661
1.61033e-06
1.13539e-06
-0.00151066
0.00151243
5.50046e-07
7.54534e-07
-0.00073658
0.000737408
1.05721e-07
5.95387e-09
3.47839e-08
5.906e-08
-7.77691e-05
7.77971e-05
-7.77641e-05
7.77063e-05
1.30482e-05
0.00828512
2.79838e-05
0.0109711
4.50618e-05
0.0132281
6.32951e-05
0.0148908
7.91584e-05
0.0158159
9.3986e-05
0.0159299
0.000103016
0.0152309
0.000106566
0.0138003
0.000103944
0.0117683
9.13973e-05
0.00931403
8.77251e-05
0.00662051
9.95765e-05
0.00534776
1.13845e-06
7.60402e-07
-0.00151326
0.00151508
-2.05572e-07
3.01092e-07
-0.000738059
0.000738552
3.10566e-08
2.6596e-08
7.18699e-08
3.15378e-08
-7.78969e-05
7.80026e-05
-7.78909e-05
7.78318e-05
1.71712e-05
0.00829594
3.38622e-05
0.0109823
5.11988e-05
0.0132402
6.95317e-05
0.0149004
8.6892e-05
0.015823
0.00010286
0.0159301
0.000112487
0.015225
0.000119783
0.0137845
0.000116784
0.0117429
0.000114028
0.00928773
0.000129544
0.00535832
5.12767e-06
1.47538e-06
-0.00151718
0.00152026
-1.93863e-06
-1.34251e-06
-0.000738788
0.000738633
-1.00416e-09
-5.00964e-08
1.58177e-08
4.90469e-08
-7.81326e-05
7.81636e-05
-7.8106e-05
7.80744e-05
2.07992e-05
0.008309
3.69567e-05
0.0109965
5.79745e-05
0.0132518
7.85096e-05
0.0149088
9.82561e-05
0.0158276
0.000110948
0.0159316
0.00012304
0.0152217
0.000128314
0.0137729
0.000133876
0.011723
0.000151121
0.00536859
5.21924e-06
5.31698e-06
-0.00151826
0.00152257
1.22921e-06
-4.05638e-07
-1.7366e-06
5.20832e-06
-0.000737246
0.000436086
0.000299447
-2.20935e-07
-4.64446e-09
2.31085e-08
2.21354e-08
-7.81784e-05
7.81774e-05
-7.82285e-05
7.81794e-05
2.2354e-05
0.0083236
4.23536e-05
0.0110121
6.31595e-05
0.0132671
8.67867e-05
0.0149203
0.000104613
0.0158339
0.000121395
0.0159333
0.000130265
0.0152198
0.000143125
0.0137637
0.00015979
0.00538186
4.47875e-06
4.60665e-06
-0.00152483
0.0015273
1.50572e-06
1.23824e-06
1.82071e-06
1.23879e-06
-0.000464774
0.000466929
-9.26262e-07
-0.000462108
-3.07111e-06
-0.000457029
-6.81633e-06
-1.57345e-05
0.00028087
2.84241e-06
-7.8218e-05
7.79971e-05
-7.82226e-05
7.82005e-05
2.4246e-05
0.00834171
4.66473e-05
0.0110287
7.13477e-05
0.0132826
9.45684e-05
0.0149303
0.000113661
0.0158416
0.000130015
0.0159335
0.000146196
0.0152167
0.000164514
0.00539674
4.52704e-06
4.83704e-06
-0.00152961
0.00153224
1.07576e-06
7.65724e-07
1.28388e-06
1.0184e-06
-0.000469756
0.000470449
8.13019e-07
-0.00046916
6.42285e-07
-0.000467865
5.25388e-07
3.03052e-07
-0.000272919
0.000272508
-5.15717e-07
-0.000274942
-1.04773e-06
-8.88966e-07
8.08395e-05
2.7655e-05
0.0083607
5.13915e-05
0.0110486
7.91056e-05
0.013298
0.000100809
0.0149432
0.000120547
0.0158511
0.000138798
0.0159409
0.000157918
0.00541423
4.95694e-06
5.20069e-06
-0.0015353
0.00153795
8.19898e-07
1.05577e-06
9.99887e-07
7.78092e-07
-0.00047209
0.000472599
5.66819e-07
-0.000471736
4.11814e-07
-0.000470871
4.1872e-07
5.9639e-07
-0.000273714
0.000274381
1.46243e-07
-0.000273233
1.61044e-07
-0.000272812
1.04716e-07
-5.40051e-10
-7.89028e-05
7.83871e-05
-7.99505e-05
3.04809e-05
0.00838161
5.79084e-05
0.0110698
8.43133e-05
0.0133145
0.000106661
0.0149571
0.000127169
0.0158627
0.000141188
0.00543346
5.36958e-06
5.89029e-06
-0.00154131
0.00154435
7.92665e-07
1.11894e-06
8.04216e-07
1.04311e-06
-0.000474179
0.000474627
3.71581e-07
-0.000473499
3.7595e-07
-0.000472961
4.6178e-07
4.15884e-07
-0.000275391
0.000275859
9.90219e-08
-0.000275077
9.77197e-08
-0.000274792
1.34333e-07
1.84827e-07
-7.86523e-05
7.87985e-05
-7.84912e-05
-7.83865e-05
3.50108e-05
0.00840451
6.45847e-05
0.0110895
9.01355e-05
0.013331
0.000110119
0.0149741
0.000117464
0.00545564
6.19378e-06
6.63385e-06
-0.00154811
0.00155138
8.83143e-07
1.21772e-06
8.98311e-07
1.23034e-06
-0.000476299
0.000476689
4.02242e-07
-0.000475513
3.32913e-07
-0.000475091
3.81905e-07
5.7985e-07
-0.000276835
0.000277115
9.21666e-08
-0.000276516
5.63106e-08
-0.000276181
1.26658e-07
9.38556e-08
-7.92154e-05
7.93144e-05
-7.91177e-05
-7.89833e-05
4.05607e-05
0.00842853
7.14056e-05
0.0111083
9.09715e-05
0.0133502
9.13743e-05
0.00548107
7.09551e-06
8.03067e-06
-0.00155537
0.00155915
1.28598e-06
1.12628e-06
1.28437e-06
1.36431e-06
-0.000478629
0.000478899
6.13124e-07
-0.000477782
3.70844e-07
-0.000477298
4.143e-07
6.21389e-07
-0.000278095
0.000278397
1.00605e-07
-0.000277859
9.66274e-08
-0.00027757
9.27427e-08
1.24864e-07
-7.95912e-05
7.96834e-05
-7.95349e-05
-7.94083e-05
4.92736e-05
0.00845067
7.24869e-05
0.0111268
6.47228e-05
0.00550964
1.02284e-05
1.04796e-05
-0.0015644
0.00156859
1.49194e-06
1.42121e-06
1.46843e-06
1.30682e-06
-0.000481196
0.0004818
6.81492e-07
-0.000480558
4.8885e-07
-0.000479748
4.7409e-07
5.15427e-07
-0.000279418
0.00027992
1.11474e-07
-0.000279129
8.21922e-08
-0.000278922
2.07337e-07
9.56537e-08
-7.99976e-05
8.00982e-05
-7.9901e-05
-7.98082e-05
5.39692e-05
0.00846918
4.206e-05
0.00553326
1.57882e-05
1.45565e-05
-0.00157538
0.00158108
2.36382e-06
2.16547e-06
1.95669e-06
1.72961e-06
-0.000484335
0.000484986
8.40408e-07
-0.00048343
5.16014e-07
-0.000482522
5.60587e-07
5.85367e-07
-0.000281021
0.000281624
7.86701e-08
-0.000280649
1.17389e-07
-0.000280291
1.16169e-07
1.43701e-07
-8.04834e-05
8.05948e-05
-8.04012e-05
-8.01939e-05
2.80232e-05
1.231e-05
3.11128e-05
-0.0015895
0.0015965
4.96774e-06
3.81973e-06
3.36792e-06
2.77014e-06
-0.000488418
0.000489464
1.31747e-06
-0.000487209
9.56377e-07
-0.000485996
7.43806e-07
7.19892e-07
-0.000282861
0.000283558
1.43344e-07
-0.000282483
1.37962e-07
-0.000282057
1.34579e-07
1.52421e-07
-8.09721e-05
8.10508e-05
-8.08547e-05
-8.07385e-05
-0.00160877
7.83153e-06
1.61079e-05
1.07847e-05
8.05646e-06
-0.000494605
0.000496746
2.82631e-06
-0.000492591
1.80622e-06
-0.000490827
1.60365e-06
1.40762e-06
-0.000285399
0.000286425
2.91327e-07
-0.00028466
2.17203e-07
-0.000284091
1.75246e-07
1.86436e-07
-8.14757e-05
8.1619e-05
-8.13378e-05
-8.12032e-05
-0.000507559
1.1256e-05
-0.000503167
1.17159e-05
-0.00049988
7.49801e-06
4.92216e-06
-0.000290024
0.000292121
7.29093e-07
-0.000288701
4.83113e-07
-0.000287482
3.8441e-07
3.50864e-07
-8.21979e-05
8.24892e-05
-8.19807e-05
-8.18055e-05
-0.000303939
1.53231e-05
-0.000299677
7.45416e-06
-0.000295564
3.38499e-06
1.4789e-06
-8.37076e-05
8.44367e-05
-8.32245e-05
-8.28401e-05
-9.67548e-05
-8.93006e-05
-8.59156e-05
3.17479e-06
-3.17493e-06
1.20003e-05
3.57022e-06
-1.23962e-05
1.85527e-06
-5.03029e-06
8.73549e-06
3.26457e-06
1.90974e-05
4.16398e-06
-1.96917e-05
3.7448e-06
-1.4286e-05
9.54458e-07
-5.98491e-06
1.64063e-06
7.09476e-06
1.84325e-05
3.92921e-06
-4.14709e-06
4.33687e-05
6.80886e-06
-4.18688e-05
-2.00942e-05
2.6061e-06
-1.5938e-05
5.08235e-07
-6.49325e-06
2.56348e-06
1.75093e-05
6.24145e-07
6.4705e-06
6.74862e-06
4.31118e-05
-7.2483e-06
-5.61112e-05
1.58886e-05
5.42733e-05
-3.78731e-06
-4.27778e-05
-2.55284e-06
-2.12755e-05
1.71619e-06
-1.71462e-05
2.1693e-07
-6.71031e-06
1.62342e-06
1.65098e-05
2.03095e-07
6.26725e-06
-5.47414e-06
-6.1682e-05
1.77882e-05
-8.43406e-07
4.01037e-05
-0.000675286
3.38202e-05
0.000657347
-7.72494e-06
2.79087e-05
4.13764e-05
-7.29321e-06
-4.66757e-05
-2.21302e-06
-1.61499e-06