/*--------------------------------*- C++ -*----------------------------------*\
| =========                 |                                                 |
| \\      /  F ield         | OpenFOAM: The Open Source CFD Toolbox           |
|  \\    /   O peration     | Version:  v1912                                 |
|   \\  /    A nd           | Website:  www.openfoam.com                      |
|    \\/     M anipulation  |                                                 |
\*---------------------------------------------------------------------------*/
FoamFile
{
    version     2.0;
    format      ascii;
    class       volScalarField;
    location    "230";
    object      p;
}
// * * * * * * * * * * * * * * * * * * * * * * * * * * * * * * * * * * * * * //

dimensions      [0 2 -2 0 0 0 0];


internalField   nonuniform List<scalar> 
3753
(
-0.00683785
-0.00681292
-0.00658486
-0.00677066
-0.00656087
-0.00633118
-0.00673374
-0.00651753
-0.00630826
-0.00609299
-0.00670914
-0.00648006
-0.00626846
-0.00607106
-0.00585945
-0.00670312
-0.0064528
-0.00623429
-0.00603052
-0.00583809
-0.00563346
-0.0067244
-0.00644278
-0.00620623
-0.00599327
-0.00579967
-0.00561187
-0.00541757
-0.00678275
-0.00645637
-0.00619097
-0.00596489
-0.00576711
-0.0055742
-0.00539654
-0.00520636
-0.00687979
-0.00650142
-0.00619697
-0.00595067
-0.00574208
-0.00554248
-0.00535885
-0.00518598
-0.00500137
-0.007016
-0.00658349
-0.00622981
-0.00595684
-0.00572897
-0.0055177
-0.00532624
-0.00514963
-0.00498176
-0.004804
-0.00718909
-0.00670457
-0.00629156
-0.005987
-0.00573565
-0.0055076
-0.00530209
-0.00511962
-0.0049459
-0.00478344
-0.00461283
-0.00738296
-0.00686389
-0.00637719
-0.00604238
-0.00576821
-0.00551825
-0.00529291
-0.00509793
-0.00491433
-0.00474877
-0.00459362
-0.00442309
-0.00755079
-0.00707033
-0.00648505
-0.00612374
-0.00583114
-0.0055534
-0.00530489
-0.00508871
-0.00489267
-0.00472179
-0.00455895
-0.0044045
-0.00424116
-0.007304
-0.00765472
-0.00763885
-0.00661226
-0.00622844
-0.0059237
-0.0056174
-0.00534268
-0.00510002
-0.00488618
-0.00470069
-0.00452801
-0.00437132
-0.00422342
-0.00406146
-0.00676856
-0.00723585
-0.00760024
-0.00763675
-0.00768823
-0.00635429
-0.00604118
-0.00571015
-0.00540854
-0.00513663
-0.00489887
-0.00469164
-0.00450753
-0.00434507
-0.00419065
-0.00404486
-0.00388762
-0.00650742
-0.00683547
-0.00698209
-0.00733458
-0.00782675
-0.0076381
-0.00763192
-0.0077519
-0.00617421
-0.00582844
-0.005502
-0.00520194
-0.00493723
-0.00470399
-0.00450243
-0.00432629
-0.00416309
-0.00401398
-0.0038703
-0.00372098
-0.00631908
-0.006595
-0.00674382
-0.00693929
-0.00704456
-0.00728568
-0.00738019
-0.00754631
-0.00817792
-0.0075795
-0.00768308
-0.00778542
-0.00596664
-0.00561819
-0.00529543
-0.00500385
-0.00474214
-0.00451556
-0.00432043
-0.00414411
-0.00398927
-0.00384023
-0.00370526
-0.00355197
-0.0061091
-0.00637573
-0.00650807
-0.00669082
-0.00682729
-0.00699046
-0.007068
-0.00718181
-0.00709698
-0.00725624
-0.00686797
-0.00712922
-0.00872204
-0.00769673
-0.00775134
-0.00783303
-0.00575164
-0.00541285
-0.00509607
-0.00480689
-0.00455337
-0.00433352
-0.00413828
-0.00397196
-0.00381663
-0.00367466
-0.0035364
-0.00339191
-0.00589595
-0.00615644
-0.00628158
-0.00645846
-0.00658218
-0.00671654
-0.00679591
-0.00692701
-0.00685255
-0.00704662
-0.00710456
-0.00721361
-0.0071665
-0.00721623
-0.00945445
-0.00554574
-0.0052078
-0.00489814
-0.004618
-0.00436969
-0.00415196
-0.00396748
-0.003801
-0.0036506
-0.00350907
-0.00337646
-0.00323111
-0.00568658
-0.00594676
-0.00606373
-0.00623709
-0.00635074
-0.00648534
-0.00655233
-0.00667434
-0.00660089
-0.00676128
-0.00682304
-0.00695933
-0.00689378
-0.00533605
-0.00501294
-0.00470774
-0.00443119
-0.00418979
-0.00398176
-0.00379832
-0.00363671
-0.00348843
-0.00334762
-0.00321695
-0.00307249
-0.00547608
-0.00573823
-0.00584931
-0.00602531
-0.00613077
-0.00626702
-0.00632876
-0.00643208
-0.0063773
-0.00652059
-0.00658858
-0.00670744
-0.00663595
-0.0051429
-0.00481688
-0.00451875
-0.00425346
-0.00401709
-0.00381272
-0.00363552
-0.0034749
-0.00332583
-0.00319066
-0.00306008
-0.00292292
-0.00527847
-0.0055302
-0.00563935
-0.00581094
-0.00591866
-0.00605517
-0.00611186
-0.00621322
-0.00615765
-0.00630019
-0.00636688
-0.00646572
-0.00641155
-0.00494039
-0.004628
-0.0043396
-0.00407709
-0.00384964
-0.00365133
-0.00347533
-0.00331444
-0.00317116
-0.00303496
-0.00290851
-0.00277136
-0.00507431
-0.00533232
-0.00543265
-0.00560251
-0.00571222
-0.00583893
-0.00589923
-0.00599776
-0.00595102
-0.0060905
-0.006147
-0.00625058
-0.00619088
-0.00475326
-0.00444591
-0.00416236
-0.00390888
-0.00368838
-0.00349409
-0.00331764
-0.00316083
-0.00301624
-0.00288197
-0.00275929
-0.0026232
-0.00488599
-0.00512992
-0.00522988
-0.00540156
-0.00550224
-0.00563587
-0.00568572
-0.00579316
-0.00573702
-0.00587509
-0.0059331
-0.00603293
-0.00598716
-0.00456658
-0.0042674
-0.00398952
-0.00374718
-0.00353218
-0.00333924
-0.00316574
-0.00300765
-0.00286363
-0.00273434
-0.00261072
-0.00247935
-0.0046949
-0.00493907
-0.00503487
-0.00520104
-0.00530161
-0.00542857
-0.00548478
-0.00558147
-0.00553005
-0.00567157
-0.0057216
-0.00582729
-0.00576965
-0.00438642
-0.00409154
-0.00382766
-0.00359188
-0.00338262
-0.0031903
-0.00301297
-0.00285386
-0.00271537
-0.00258625
-0.00246803
-0.00233734
-0.00451379
-0.00475035
-0.00484189
-0.00500716
-0.00510137
-0.00523488
-0.00527604
-0.00538093
-0.00532972
-0.00546246
-0.00552031
-0.00561417
-0.0055637
-0.00420914
-0.00392562
-0.00367065
-0.00344508
-0.00323618
-0.00303858
-0.00286028
-0.00270568
-0.00256777
-0.0024446
-0.00232642
-0.00219758
-0.0043346
-0.00456901
-0.00465494
-0.0048185
-0.00490815
-0.00503704
-0.00508438
-0.00517693
-0.00513023
-0.0052676
-0.00530543
-0.00541232
-0.00536852
-0.00403916
-0.00376577
-0.00352402
-0.00330246
-0.00308969
-0.00288722
-0.00270943
-0.00255812
-0.00242813
-0.00230364
-0.00218695
-0.00205995
-0.00416251
-0.00438898
-0.00447501
-0.00463471
-0.00471941
-0.00484884
-0.00489058
-0.00498516
-0.00493606
-0.0050682
-0.0051154
-0.00521088
-0.00516522
-0.0038745
-0.0036151
-0.00338533
-0.00316459
-0.00293838
-0.00273322
-0.00256133
-0.00241934
-0.00228842
-0.00216564
-0.00205043
-0.00192701
-0.00399437
-0.00421799
-0.00429754
-0.00445188
-0.00454177
-0.00466115
-0.0047068
-0.00479606
-0.00474644
-0.00488193
-0.00491745
-0.00502257
-0.00496791
-0.00371792
-0.00347791
-0.00325805
-0.00301677
-0.00278074
-0.00258142
-0.00242201
-0.00228122
-0.00215167
-0.00202992
-0.00191811
-0.00179372
-0.00383412
-0.00405175
-0.00412779
-0.00427985
-0.00436231
-0.00447933
-0.004526
-0.00461485
-0.0045691
-0.00469334
-0.00473382
-0.00483315
-0.00477649
-0.00357417
-0.00335691
-0.00311973
-0.00285507
-0.00262138
-0.00244029
-0.00228717
-0.0021463
-0.00201659
-0.00189884
-0.00178487
-0.00166391
-0.00367997
-0.00389573
-0.00396059
-0.00411283
-0.00419103
-0.00430897
-0.00434698
-0.00443135
-0.0043915
-0.00451336
-0.00455654
-0.00465123
-0.00459683
-0.00344673
-0.00324257
-0.00295713
-0.00268223
-0.00247574
-0.00230815
-0.00215438
-0.00201453
-0.00188827
-0.00176634
-0.00165609
-0.00153139
-0.00353325
-0.00374519
-0.00380148
-0.00395233
-0.00402488
-0.00414005
-0.00418101
-0.00426038
-0.00421689
-0.00434202
-0.00437471
-0.0044626
-0.00442034
-0.00335922
-0.00308989
-0.00276048
-0.00252755
-0.00234695
-0.0021803
-0.00202642
-0.00188741
-0.00175833
-0.00163861
-0.00152559
-0.00140079
-0.00343017
-0.00360302
-0.00364762
-0.00379823
-0.00386821
-0.00398161
-0.0040129
-0.00409153
-0.00405425
-0.00417096
-0.00421106
-0.00429144
-0.00424387
-0.00325927
-0.00285448
-0.00259312
-0.0024029
-0.0022248
-0.00205592
-0.00190155
-0.00176162
-0.00163055
-0.00151037
-0.00139481
-0.00127117
-0.00343832
-0.00347217
-0.00350784
-0.00365216
-0.00371824
-0.00382692
-0.00385867
-0.00393288
-0.00389631
-0.00401399
-0.00403846
-0.00412199
-0.00408199
-0.00297006
-0.00266592
-0.00247406
-0.00228766
-0.00210396
-0.00193419
-0.00177944
-0.00163537
-0.00150548
-0.00138053
-0.00126701
-0.0011397
-0.00310047
-0.00357373
-0.00345879
-0.00347751
-0.00357184
-0.00368559
-0.00370839
-0.00378196
-0.00375362
-0.00385621
-0.00388548
-0.00396219
-0.00392138
-0.00274573
-0.00255963
-0.00236756
-0.00217013
-0.00198525
-0.00181484
-0.00165723
-0.00151371
-0.00137887
-0.00125509
-0.00113761
-0.00100728
-0.00285328
-0.00306761
-0.00326835
-0.0037931
-0.00341145
-0.00354169
-0.00355453
-0.00363917
-0.00361794
-0.00371048
-0.00373846
-0.00381146
-0.00377917
-0.00265234
-0.00246073
-0.00225168
-0.00205437
-0.00187033
-0.00169837
-0.00153868
-0.00139198
-0.00125595
-0.00112704
-0.0010052
-0.000873778
-0.00275541
-0.0029451
-0.00302985
-0.00310834
-0.00331493
-0.00414782
-0.00322939
-0.00343574
-0.0033752
-0.00357641
-0.00360513
-0.0036724
-0.00364287
-0.00256224
-0.00234498
-0.00213771
-0.00194284
-0.00175804
-0.00158415
-0.00142351
-0.00127077
-0.00112998
-0.000996025
-0.000874335
-0.000738203
-0.00266143
-0.00281779
-0.00289997
-0.0030207
-0.00309249
-0.00317718
-0.00321926
-0.00304365
-0.00322508
-0.004807
-0.00327315
-0.00351634
-0.00341995
-0.00244621
-0.00223064
-0.00202851
-0.00183288
-0.00164805
-0.00147341
-0.00130544
-0.00115105
-0.0010033
-0.000867991
-0.000739766
-0.000597378
-0.00254681
-0.00270015
-0.00277455
-0.00287857
-0.00295262
-0.00303916
-0.00309238
-0.00317343
-0.00312671
-0.00232835
-0.00212221
-0.00191993
-0.00172716
-0.00154154
-0.00136199
-0.00119292
-0.00102977
-0.000878827
-0.000735632
-0.000601528
-0.00045457
-0.00242843
-0.00258539
-0.002653
-0.00275628
-0.00281984
-0.00289745
-0.00293497
-0.00300621
-0.00296681
-0.00221902
-0.00201362
-0.0018164
-0.00162476
-0.00143705
-0.00125601
-0.001078
-0.000909064
-0.000750036
-0.000599881
-0.000460973
-0.000306729
-0.00231728
-0.0024701
-0.00253403
-0.00263953
-0.00269776
-0.00277967
-0.00281181
-0.00286665
-0.00283646
-0.00211087
-0.0019101
-0.0017154
-0.00152513
-0.00133707
-0.00114827
-0.000964388
-0.000786984
-0.000619033
-0.000462228
-0.0003156
-0.000155162
-0.00220657
-0.00235894
-0.00242069
-0.0025224
-0.00258
-0.00265942
-0.00269026
-0.00274694
-0.00271654
-0.00200472
-0.00180916
-0.00162047
-0.00142952
-0.00123814
-0.00104424
-0.000851071
-0.000663236
-0.000486047
-0.000320108
-0.000166135
4.06282e-06
-0.00209964
-0.00224903
-0.00230619
-0.00241016
-0.00246773
-0.00254331
-0.00257478
-0.00262902
-0.00260031
-0.00190415
-0.00171642
-0.00152703
-0.00133872
-0.0011425
-0.000939422
-0.000736368
-0.000537802
-0.000349743
-0.000172975
-1.04377e-05
0.000168393
-0.00199663
-0.0021425
-0.0021979
-0.00229719
-0.00235267
-0.00243677
-0.00245905
-0.00251406
-0.00248753
-0.0018088
-0.00162377
-0.00144256
-0.00125072
-0.00104745
-0.00083601
-0.000620515
-0.000409145
-0.000207775
-2.16359e-05
0.000151999
0.000339346
-0.00189925
-0.00203953
-0.00209185
-0.0021901
-0.00224457
-0.00231757
-0.00234619
-0.00240055
-0.00237322
-0.00171671
-0.00154183
-0.00136015
-0.00116509
-0.000954392
-0.000732566
-0.000502956
-0.000277655
-6.26016e-05
0.000137639
0.000320744
0.000517084
-0.00180396
-0.00194029
-0.00199121
-0.0020873
-0.00213679
-0.00221072
-0.00223717
-0.00229175
-0.00226332
-0.00163354
-0.00146429
-0.0012815
-0.00108056
-0.000863205
-0.000628565
-0.000385383
-0.000141359
8.9624e-05
0.000303523
0.00049915
0.000698837
-0.00171771
-0.00184455
-0.00189314
-0.00198617
-0.00203418
-0.00210857
-0.0021349
-0.00218257
-0.00215601
-0.00155818
-0.00139168
-0.0012042
-0.00099982
-0.000774247
-0.000525433
-0.000262376
6.79222e-07
0.000250003
0.00047806
0.00068793
0.000898211
-0.00164119
-0.00175345
-0.00180078
-0.00188943
-0.00193622
-0.00200494
-0.00203162
-0.00207883
-0.00205307
-0.00149012
-0.00131858
-0.00112902
-0.00092419
-0.000686317
-0.000420183
-0.000134661
0.000148471
0.000416775
0.000668084
0.00089381
0.00108451
-0.00157214
-0.00167367
-0.00171276
-0.00179546
-0.00184138
-0.00191047
-0.00193154
-0.0019792
-0.00195552
-0.00142231
-0.00124327
-0.00106341
-0.000850443
-0.000599701
-0.000312312
-4.44974e-06
0.000304478
0.000602966
0.00086206
0.00118197
0.000447715
-0.00150413
-0.00172406
-0.00165897
-0.00168951
-0.00174777
-0.00182005
-0.00184019
-0.00188337
-0.00186186
-0.00134285
-0.00118212
-0.00100125
-0.000781732
-0.000513111
-0.00020122
0.000133982
0.000477722
0.000777258
0.00119942
0.00053938
-0.00142825
-0.00153092
-0.00157019
-0.00192819
-0.00242162
-0.00162358
-0.00172724
-0.00175017
-0.00179395
-0.00177362
-0.00128049
-0.00112722
-0.000946319
-0.000713775
-0.000424215
-8.68639e-05
0.000287135
0.000630451
0.00111156
0.000569177
-0.00136148
-0.0014627
-0.00149928
-0.00156335
-0.00160268
-0.00164034
-0.00172064
-0.00164512
-0.000921961
-0.00170288
-0.00168521
-0.0012267
-0.00108094
-0.000894047
-0.000648064
-0.000335468
4.1181e-05
0.000417135
0.000938182
0.00051113
-0.00130571
-0.00139846
-0.0014282
-0.00147616
-0.00150104
-0.00151438
-0.00154263
-0.00159244
-0.00162689
-0.00166374
-0.00170517
-0.00170855
-0.00150443
-0.00118453
-0.0010398
-0.000847592
-0.000582598
-0.000236292
0.0001479
0.000683434
0.000394356
-0.00126156
-0.00134418
-0.00136782
-0.00141413
-0.00143021
-0.00144457
-0.00146113
-0.00149527
-0.00151752
-0.00153433
-0.00156212
-0.00161626
-0.00164909
-0.00169036
-0.00173042
-0.00114762
-0.00100747
-0.000802358
-0.000512649
-0.000153012
0.00036076
0.000237629
-0.00122575
-0.00129831
-0.00131743
-0.00136151
-0.00137378
-0.00138507
-0.00140053
-0.00143098
-0.00144612
-0.00146379
-0.00147695
-0.00151209
-0.00153158
-0.001552
-0.0015778
-0.00112323
-0.000977661
-0.000757803
-0.000449911
1.89837e-07
5.90594e-05
-0.00120092
-0.00126225
-0.00127646
-0.00131305
-0.00132626
-0.00133411
-0.00134625
-0.00137768
-0.0013907
-0.00140157
-0.00141708
-0.00144673
-0.00146127
-0.0014793
-0.00149242
-0.00110306
-0.00095345
-0.000711708
-0.000358246
-0.000121948
-0.00118426
-0.00123685
-0.00124444
-0.00127628
-0.0012858
-0.00129389
-0.00130143
-0.00132897
-0.00134032
-0.00134998
-0.00136258
-0.0013909
-0.00140602
-0.00141656
-0.00143159
-0.00109514
-0.0009199
-0.000675417
-0.000286844
-0.00118438
-0.00122053
-0.00122204
-0.00125068
-0.00125684
-0.00126007
-0.00126863
-0.00129104
-0.0012977
-0.00130909
-0.0013152
-0.0013427
-0.00135232
-0.00136417
-0.00138014
-0.00107626
-0.000927737
-0.000421826
-0.00118545
-0.00122073
-0.00121342
-0.00123114
-0.00123764
-0.0012373
-0.00124256
-0.00126342
-0.00126779
-0.00127371
-0.0012816
-0.00130444
-0.0013097
-0.00132038
-0.00132898
-0.00111872
-0.000523847
-0.00127912
-0.00122079
-0.00121485
-0.00123072
-0.00122801
-0.00122931
-0.00122605
-0.00124142
-0.00124649
-0.00125036
-0.0012553
-0.00127312
-0.00127889
-0.0012855
-0.00129267
-0.000597586
-0.0007115
-0.00132006
-0.00125032
-0.00123195
-0.00122965
-0.00123238
-0.0012265
-0.00123591
-0.001237
-0.00123738
-0.0012377
-0.0012509
-0.00125432
-0.00126107
-0.00126778
-0.000664436
-0.00135359
-0.00130962
-0.00128718
-0.001257
-0.001241
-0.00123912
-0.00123747
-0.00123809
-0.00123521
-0.00124235
-0.00124513
-0.00124374
-0.00124674
-0.000564997
-0.00137135
-0.00141364
-0.00134163
-0.00130693
-0.00128566
-0.001261
-0.00124933
-0.00124203
-0.00124113
-0.00124152
-0.00124151
-0.000580373
-0.00152824
-0.00142868
-0.00132999
-0.00130486
-0.00128112
-0.00125948
-0.00124903
-0.000728556
-0.0016657
-0.00142059
-0.00133005
-0.0989493
-0.0979178
-0.0987906
-0.0979784
-0.097855
-0.0984506
-0.0986134
-0.0982218
-0.0978695
-0.0976335
-0.0986583
-0.0987783
-0.0986903
-0.0981937
-0.0979396
-0.0976789
-0.097409
-0.0988718
-0.0990368
-0.0990182
-0.0990856
-0.0980701
-0.0976579
-0.0977288
-0.0974486
-0.0971516
-0.0991027
-0.0993181
-0.099889
-0.099163
-0.0995243
-0.0982332
-0.0970958
-0.0972123
-0.097477
-0.0972042
-0.0969348
-0.099353
-0.0995584
-0.100072
-0.0993181
-0.0995925
-0.0983917
-0.0972856
-0.096154
-0.0967209
-0.0972637
-0.0970201
-0.096976
-0.0967102
-0.0997712
-0.100247
-0.0994785
-0.0998221
-0.0985536
-0.0974611
-0.0963438
-0.0962693
-0.0951915
-0.0958433
-0.0968012
-0.096554
-0.0967628
-0.0964763
-0.100411
-0.0996382
-0.0987179
-0.0976314
-0.0965285
-0.0953873
-0.0963303
-0.0961048
-0.0953107
-0.0942119
-0.0948149
-0.0959599
-0.0958937
-0.0965229
-0.0962261
-0.100568
-0.0997978
-0.0988844
-0.0978037
-0.0967093
-0.0955846
-0.0944177
-0.0962771
-0.0960565
-0.0951553
-0.0943302
-0.0932326
-0.0938306
-0.0947258
-0.095834
-0.0952116
-0.0960202
-0.100722
-0.099956
-0.099051
-0.0979795
-0.0968925
-0.0957805
-0.0946293
-0.0934425
-0.0952445
-0.0950075
-0.0942353
-0.093326
-0.092298
-0.0928302
-0.0937417
-0.0945453
-0.094797
-0.0957993
-0.0954189
-0.100872
-0.100104
-0.0992069
-0.0981557
-0.0970796
-0.0959786
-0.0948421
-0.0936632
-0.0924814
-0.0942843
-0.0940407
-0.093212
-0.0924439
-0.0912128
-0.0918667
-0.0927023
-0.0935536
-0.0938089
-0.101012
-0.100221
-0.0993289
-0.09832
-0.0972666
-0.0961802
-0.095058
-0.0938919
-0.092693
-0.0914438
-0.0932777
-0.0930215
-0.0924371
-0.091325
-0.0901199
-0.0907662
-0.0917495
-0.0924674
-0.0927435
-0.101123
-0.100257
-0.0993627
-0.0984462
-0.0974399
-0.0963802
-0.0952769
-0.0941263
-0.092929
-0.0916812
-0.0903709
-0.0922041
-0.0924273
-0.0911816
-0.0902413
-0.0890028
-0.0896735
-0.0906605
-0.0914712
-0.091706
-0.101159
-0.100122
-0.099211
-0.0984752
-0.0975701
-0.096563
-0.0954914
-0.0943638
-0.0931789
-0.091935
-0.0906315
-0.0892645
-0.0926182
-0.0912412
-0.0909665
-0.090125
-0.0891266
-0.0878472
-0.0885461
-0.0895682
-0.0904516
-0.090739
-0.0914544
-0.0915844
-0.101037
-0.0996686
-0.0987163
-0.0983027
-0.0975935
-0.0966962
-0.095684
-0.094594
-0.0934346
-0.0922047
-0.0909065
-0.0895428
-0.0881192
-0.0911849
-0.090931
-0.0901832
-0.0899006
-0.0890088
-0.0879724
-0.0866507
-0.0873779
-0.0884346
-0.0893491
-0.0896363
-0.090402
-0.0906831
-0.100619
-0.0986877
-0.0976579
-0.0977593
-0.0973961
-0.0967105
-0.0958193
-0.0947973
-0.0936812
-0.0924809
-0.0911978
-0.0898384
-0.0884122
-0.0869319
-0.0901185
-0.0898492
-0.0890616
-0.0887762
-0.0878504
-0.0867787
-0.0854327
-0.0861694
-0.0872596
-0.0882066
-0.0884988
-0.0892932
-0.0895743
-0.0997068
-0.0969332
-0.0957786
-0.0966126
-0.0967966
-0.0964821
-0.0958215
-0.0949331
-0.093895
-0.0927444
-0.0914953
-0.0901515
-0.0887254
-0.0872366
-0.0857141
-0.0889944
-0.0887202
-0.0879054
-0.0876113
-0.0866555
-0.0855485
-0.0842252
-0.0849223
-0.086045
-0.0870235
-0.0873248
-0.0881455
-0.0884351
-0.0980659
-0.0941848
-0.0928536
-0.0945967
-0.0955513
-0.0958193
-0.0955567
-0.0949185
-0.0940303
-0.0929691
-0.0917763
-0.0904702
-0.0890581
-0.0875637
-0.0860194
-0.0844807
-0.0878394
-0.0875498
-0.0867119
-0.0864143
-0.0854174
-0.0843282
-0.0829147
-0.0837352
-0.0847808
-0.0858107
-0.0861124
-0.0869599
-0.0872593
-0.095484
-0.0903372
-0.0887812
-0.091483
-0.0933854
-0.0944653
-0.0948197
-0.0946085
-0.0939948
-0.0931021
-0.0920115
-0.0907685
-0.0893963
-0.0879126
-0.0863526
-0.0847673
-0.0831861
-0.0866446
-0.0863502
-0.0854841
-0.0851813
-0.0842154
-0.0830662
-0.0815632
-0.0823667
-0.0836744
-0.0845384
-0.0848533
-0.0857449
-0.0860482
-0.0918545
-0.0854631
-0.0836456
-0.0871757
-0.0900695
-0.0921362
-0.0933418
-0.0937863
-0.0936323
-0.0930408
-0.0921393
-0.0910132
-0.0897114
-0.0882676
-0.0867117
-0.0850937
-0.083469
-0.0818487
-0.0854205
-0.0851174
-0.0842276
-0.083936
-0.0829067
-0.081719
-0.0802275
-0.0810483
-0.0822241
-0.0832943
-0.0838625
-0.0844587
-0.0847936
-0.0872383
-0.0798113
-0.0777155
-0.0817754
-0.0855176
-0.0886041
-0.0908348
-0.0921729
-0.0927134
-0.0926172
-0.0920465
-0.0911326
-0.0899641
-0.0885981
-0.087079
-0.0854548
-0.0837865
-0.0821323
-0.0804978
-0.0841015
-0.0836355
-0.0829557
-0.0826036
-0.0815817
-0.0804026
-0.0790245
-0.0797564
-0.0809284
-0.0819745
-0.0823119
-0.0830423
-0.0840329
-0.0818671
-0.0737292
-0.0713592
-0.0755707
-0.0798479
-0.0837973
-0.0870752
-0.089474
-0.0909477
-0.0915893
-0.0915523
-0.0910018
-0.0900711
-0.0888562
-0.0874224
-0.0858298
-0.0841448
-0.0824399
-0.0807739
-0.0791789
-0.0828251
-0.0825389
-0.0816616
-0.0813297
-0.0802801
-0.0792333
-0.0776344
-0.0787899
-0.0796397
-0.0806926
-0.0810198
-0.0819216
-0.0822424
-0.0829747
-0.0842827
-0.0760675
-0.0675899
-0.0649735
-0.0689515
-0.0733721
-0.0778559
-0.0820067
-0.0854729
-0.0880402
-0.0896566
-0.0904018
-0.0904269
-0.0898951
-0.0889462
-0.0876826
-0.086183
-0.0845244
-0.0827924
-0.08107
-0.0794177
-0.0778557
-0.0827845
-0.0824956
-0.0816012
-0.0812769
-0.0803721
-0.080051
-0.0790541
-0.0772676
-0.0762983
-0.0778105
-0.0794578
-0.0797495
-0.0806401
-0.08096
-0.0818676
-0.082182
-0.0701902
-0.0617584
-0.058946
-0.0623388
-0.0665021
-0.0711148
-0.0757931
-0.0801346
-0.0837856
-0.0865251
-0.0882869
-0.0891395
-0.0892281
-0.0887174
-0.0877501
-0.0864409
-0.0848836
-0.0831744
-0.0814135
-0.079694
-0.0780688
-0.0765283
-0.081536
-0.0812245
-0.0803221
-0.0800061
-0.0792629
-0.0792325
-0.0775871
-0.0760446
-0.0769051
-0.074944
-0.0780696
-0.079396
-0.0797023
-0.0805857
-0.0808947
-0.0645763
-0.056577
-0.0536362
-0.056141
-0.0596841
-0.0640101
-0.0687958
-0.073651
-0.0781736
-0.0820062
-0.084918
-0.0868265
-0.0877907
-0.0879478
-0.0874602
-0.0864796
-0.0851334
-0.0835342
-0.0817954
-0.0800284
-0.0783307
-0.0767477
-0.0752134
-0.0802632
-0.0799609
-0.0790382
-0.0781375
-0.0777002
-0.0773571
-0.0762914
-0.0746786
-0.0756217
-0.0770138
-0.0766879
-0.0735886
-0.0783088
-0.0780051
-0.0793534
-0.0796539
-0.0595492
-0.05234
-0.0493429
-0.0507339
-0.053345
-0.0570097
-0.0614747
-0.0664101
-0.0714245
-0.0761169
-0.0801247
-0.0832057
-0.0852655
-0.0863458
-0.0865754
-0.086119
-0.0851354
-0.0837681
-0.0821485
-0.0804063
-0.078661
-0.0770106
-0.0754675
-0.0739141
-0.0790152
-0.0785101
-0.0763727
-0.0760607
-0.0749674
-0.0732843
-0.0742548
-0.075753
-0.0753946
-0.0722882
-0.0553965
-0.0492251
-0.0462289
-0.0464156
-0.0478737
-0.0505605
-0.0543199
-0.0588954
-0.0639553
-0.0691098
-0.0739569
-0.0781315
-0.0813807
-0.0835925
-0.084794
-0.085107
-0.0846935
-0.0837239
-0.0823589
-0.0807478
-0.0790335
-0.0773442
-0.0757556
-0.0742335
-0.0726386
-0.0750669
-0.0747425
-0.0735235
-0.0720554
-0.0727828
-0.0744185
-0.0740512
-0.0707731
-0.0523055
-0.0472326
-0.0442705
-0.043332
-0.0435641
-0.0450609
-0.0477963
-0.0516188
-0.0562736
-0.0614311
-0.0667028
-0.0716894
-0.0760206
-0.0794342
-0.0818008
-0.0831324
-0.0835399
-0.0831879
-0.0822566
-0.0809233
-0.0793544
-0.0777066
-0.0761011
-0.0745753
-0.0730432
-0.0713132
-0.0736941
-0.0733211
-0.0724339
-0.0702545
-0.0712861
-0.0729227
-0.0724529
-0.0691399
-0.0503005
-0.0461903
-0.0432716
-0.0414312
-0.040539
-0.0407946
-0.0423067
-0.0450593
-0.0489109
-0.0536122
-0.058838
-0.0642035
-0.069311
-0.0737888
-0.0773611
-0.0798864
-0.0813573
-0.0818784
-0.0816127
-0.0807515
-0.0794854
-0.0779981
-0.0764485
-0.0749404
-0.0734633
-0.0718636
-0.0699034
-0.0720336
-0.072395
-0.0704848
-0.068452
-0.069558
-0.0712965
-0.0708798
-0.0672798
-0.0492346
-0.0458267
-0.0429441
-0.0404902
-0.0387151
-0.0378566
-0.0381181
-0.0396193
-0.0423575
-0.0462024
-0.050916
-0.0561793
-0.0616132
-0.0668223
-0.0714318
-0.0751607
-0.0778475
-0.0794724
-0.0801283
-0.0799798
-0.0792259
-0.0780685
-0.0766986
-0.0752711
-0.0738561
-0.0723855
-0.0706457
-0.0683118
-0.0728523
-0.0706198
-0.0701737
-0.068748
-0.0663775
-0.0676545
-0.0698116
-0.0693175
-0.0711752
-0.0709364
-0.0650763
-0.0488506
-0.0458629
-0.0430038
-0.0402056
-0.0378431
-0.036128
-0.0352925
-0.0355429
-0.0370077
-0.039698
-0.0435015
-0.0481924
-0.0534616
-0.0589358
-0.0642249
-0.0689542
-0.0728329
-0.075688
-0.0774847
-0.0783036
-0.0783085
-0.0777008
-0.0766913
-0.075469
-0.0741692
-0.0728175
-0.0712816
-0.0692841
-0.0664192
-0.0705532
-0.0701521
-0.0689214
-0.0683873
-0.0666619
-0.0638984
-0.0653691
-0.0679102
-0.0673201
-0.06977
-0.0692998
-0.0624092
-0.0488749
-0.046076
-0.0432285
-0.0402886
-0.037605
-0.0353336
-0.0336756
-0.0328542
-0.033077
-0.0344796
-0.0370912
-0.0408184
-0.0454513
-0.050693
-0.0561794
-0.0615263
-0.0663603
-0.0703848
-0.0734153
-0.0754011
-0.0764157
-0.0766116
-0.0761911
-0.0753628
-0.0743031
-0.0731122
-0.0717662
-0.0700543
-0.0676474
-0.0640901
-0.0688119
-0.0683169
-0.0668332
-0.0662018
-0.0641453
-0.0609058
-0.0626064
-0.0656282
-0.0649234
-0.0678329
-0.0672648
-0.0591528
-0.0490822
-0.0463246
-0.0434813
-0.0405213
-0.0377114
-0.0351455
-0.0329666
-0.0313621
-0.0305476
-0.0307261
-0.0320436
-0.0345475
-0.038165
-0.0427049
-0.0478856
-0.053355
-0.0587367
-0.0636604
-0.067827
-0.0710405
-0.0732383
-0.0744757
-0.0748987
-0.0746999
-0.0740736
-0.0731692
-0.0720426
-0.0706083
-0.0685842
-0.0655859
-0.0611835
-0.06669
-0.0660951
-0.0643096
-0.0635642
-0.0611008
-0.0572923
-0.0592624
-0.0628626
-0.0620178
-0.0655182
-0.0648286
-0.0552024
-0.0493236
-0.0457824
-0.0472388
-0.040773
-0.0429635
-0.0443548
-0.0379506
-0.035275
-0.0328288
-0.0307424
-0.0291894
-0.028373
-0.0284946
-0.0297087
-0.0320799
-0.0355549
-0.0399676
-0.0450546
-0.0504774
-0.0558693
-0.0608657
-0.0651679
-0.0685729
-0.0710004
-0.0724896
-0.0731701
-0.0732144
-0.0727908
-0.0720105
-0.0708737
-0.0692245
-0.0667263
-0.0629528
-0.0575855
-0.0641166
-0.0634171
-0.0612537
-0.0603632
-0.0574139
-0.0529659
-0.0552416
-0.0595021
-0.0584978
-0.0626996
-0.0618791
-0.050497
-0.0487405
-0.0502588
-0.0455142
-0.046251
-0.046936
-0.0476607
-0.0381994
-0.0402798
-0.041604
-0.0427059
-0.0434088
-0.0440632
-0.0447556
-0.0355189
-0.0329792
-0.030654
-0.0286601
-0.0271561
-0.0263343
-0.0263907
-0.0274852
-0.0296975
-0.0330026
-0.0372567
-0.0422179
-0.0475644
-0.0529436
-0.0579977
-0.062428
-0.0660244
-0.0686946
-0.0704536
-0.0714081
-0.0716994
-0.0714581
-0.0707429
-0.0694871
-0.0674758
-0.064332
-0.0596384
-0.0532168
-0.0609996
-0.0601502
-0.0575504
-0.0564892
-0.0530035
-0.0478849
-0.0504796
-0.0554565
-0.0542617
-0.0592865
-0.0582841
-0.0450529
-0.0484602
-0.0492296
-0.049945
-0.0455943
-0.0463143
-0.0469589
-0.0476619
-0.0357625
-0.0377317
-0.0389878
-0.0400336
-0.0407022
-0.0413254
-0.0419845
-0.0427811
-0.0434684
-0.0440844
-0.0447561
-0.0332254
-0.0308229
-0.0286193
-0.0267177
-0.0252634
-0.0244329
-0.0244161
-0.0253774
-0.027414
-0.0305239
-0.0345905
-0.0393955
-0.044637
-0.0499761
-0.0550684
-0.0596156
-0.0634002
-0.0663153
-0.0683497
-0.069578
-0.0700983
-0.0699906
-0.0692496
-0.0677476
-0.0652121
-0.061268
-0.0555705
-0.0480412
-0.0572298
-0.0562026
-0.0531102
-0.0518706
-0.0478259
-0.0421564
-0.0449685
-0.0506437
-0.0492726
-0.0551667
-0.0539687
-0.0389205
-0.0485469
-0.0492987
-0.0499708
-0.0334623
-0.0353202
-0.0365078
-0.0374969
-0.0381308
-0.0387223
-0.0393484
-0.0401038
-0.0407582
-0.0413453
-0.0419852
-0.0310692
-0.028804
-0.0267215
-0.0249136
-0.0235074
-0.0226673
-0.0225737
-0.0233938
-0.0252403
-0.0281356
-0.0319915
-0.0366139
-0.0417227
-0.0469952
-0.0520992
-0.0567422
-0.0607002
-0.0638484
-0.0661462
-0.0676254
-0.0683326
-0.068281
-0.0674034
-0.0655092
-0.0623001
-0.0574456
-0.0506902
-0.0420865
-0.0527009
-0.0515007
-0.0478964
-0.0464888
-0.0419194
-0.036014
-0.038805
-0.0450755
-0.0435449
-0.050268
-0.0488911
-0.0321221
-0.031298
-0.033045
-0.0341644
-0.0350966
-0.0356953
-0.0362553
-0.0368482
-0.037562
-0.038183
-0.0387408
-0.0393492
-0.0290481
-0.026919
-0.0249579
-0.0232421
-0.0218857
-0.0210353
-0.0208641
-0.0215394
-0.0231883
-0.0258559
-0.0294801
-0.0338936
-0.0388417
-0.0440192
-0.049105
-0.0538137
-0.0579165
-0.06127
-0.0637976
-0.0654822
-0.0663033
-0.0662101
-0.0650672
-0.0626402
-0.0586454
-0.0528034
-0.0450034
-0.0354573
-0.0474
-0.0460234
-0.0419605
-0.040416
-0.0355648
-0.0291349
-0.0326034
-0.0388275
-0.0371682
-0.0446213
-0.0430617
-0.0248738
-0.0292675
-0.030905
-0.0319569
-0.0328323
-0.033396
-0.0339249
-0.0344847
-0.0351564
-0.0357434
-0.0362722
-0.036849
-0.0271591
-0.0251647
-0.0233224
-0.0216991
-0.0203915
-0.0195337
-0.0192863
-0.0198185
-0.0212689
-0.0237017
-0.0270826
-0.0312658
-0.0360232
-0.0410693
-0.0460978
-0.0508308
-0.0550354
-0.0585465
-0.0612484
-0.0630637
-0.0639088
-0.063657
-0.0621189
-0.0590477
-0.0541782
-0.0473531
-0.0386018
-0.0283491
-0.0413974
-0.0398634
-0.0353799
-0.0338046
-0.028933
-0.0217053
-0.0252421
-0.0322897
-0.0310547
-0.038298
-0.0365701
-0.017544
-0.0273681
-0.0288979
-0.0298834
-0.030703
-0.0312321
-0.0317301
-0.032257
-0.0328868
-0.0334399
-0.0339402
-0.0344856
-0.0253984
-0.0235353
-0.02181
-0.0202768
-0.0190195
-0.0181556
-0.0178381
-0.0182353
-0.0194907
-0.0216892
-0.0248158
-0.0287523
-0.0332893
-0.0381639
-0.043088
-0.0477917
-0.0520378
-0.0556394
-0.0584361
-0.0602915
-0.0610486
-0.0605188
-0.0584779
-0.0546726
-0.0489218
-0.0411803
-0.0316694
-0.0210645
-0.0346796
-0.0329583
-0.0289284
-0.0270039
-0.0213491
-0.0143252
-0.0177489
-0.0251435
-0.0232626
-0.0312943
-0.0309759
-0.0104328
-0.0255961
-0.0270208
-0.0279415
-0.0287065
-0.0292016
-0.0296691
-0.0301637
-0.0307522
-0.0312719
-0.0317437
-0.0322577
-0.023761
-0.0220255
-0.0204133
-0.0189685
-0.0177606
-0.016896
-0.0165182
-0.016792
-0.017868
-0.0198371
-0.0227049
-0.0263755
-0.0306603
-0.0353202
-0.0400836
-0.0446914
-0.0489038
-0.0525099
-0.0553053
-0.0570909
-0.0576489
-0.0567373
-0.0541038
-0.0495453
-0.0429566
-0.0344516
-0.0244925
-0.0139065
-0.0279194
-0.026151
-0.0212779
-0.0194651
-0.0139185
-0.0072905
-0.0104733
-0.0176119
-0.0157841
-0.0243975
-0.0225109
-0.0309238
-0.00379567
-0.0239468
-0.0252699
-0.0261278
-0.0268398
-0.0273018
-0.0277393
-0.0282022
-0.0287507
-0.0292373
-0.029681
-0.030164
-0.0222415
-0.0206285
-0.0191252
-0.0177655
-0.0166078
-0.015748
-0.0153227
-0.0154915
-0.0164031
-0.0181548
-0.0207651
-0.0241541
-0.028156
-0.0325512
-0.0370897
-0.0415255
-0.0456157
-0.0491267
-0.0518138
-0.0534221
-0.0536769
-0.052296
-0.0490405
-0.0437495
-0.0364473
-0.0274399
-0.0173607
-0.00715731
-0.0270822
-0.025441
-0.0205583
-0.0187248
-0.0138162
-0.0120813
-0.00680448
-0.000839325
-0.00362239
-0.0102854
-0.00855654
-0.0169214
-0.0150439
-0.0236595
-0.0217912
0.00213328
-0.0224148
-0.0236405
-0.0244381
-0.0250989
-0.0255288
-0.0259373
-0.0263694
-0.026879
-0.0273335
-0.0277494
-0.028202
-0.0208339
-0.0193377
-0.017938
-0.0166595
-0.0155528
-0.0147078
-0.014252
-0.0143361
-0.0151035
-0.0166544
-0.0190095
-0.0221034
-0.0257892
-0.0298669
-0.0341122
-0.0382912
-0.0421628
-0.0454754
-0.0479487
-0.0492783
-0.0491469
-0.047256
-0.0433827
-0.037462
-0.0296509
-0.020423
-0.0105718
-0.0010547
-0.0198351
-0.0180232
-0.0131225
-0.0113445
-0.00666454
-0.00505142
-0.000238764
0.00482865