/*--------------------------------*- C++ -*----------------------------------*\
| =========                 |                                                 |
| \\      /  F ield         | OpenFOAM: The Open Source CFD Toolbox           |
|  \\    /   O peration     | Version:  v1912                                 |
|   \\  /    A nd           | Website:  www.openfoam.com                      |
|    \\/     M anipulation  |                                                 |
\*---------------------------------------------------------------------------*/
FoamFile
{
    version     2.0;
    format      ascii;
    class       volVectorField;
    location    "230";
    object      U;
}
// * * * * * * * * * * * * * * * * * * * * * * * * * * * * * * * * * * * * * //

dimensions      [0 1 -1 0 0 0 0];


internalField   nonuniform List<vector> 
3753
(
(0.0489828 0.0207219 0)
(0.150296 0.0619129 1.99475e-23)
(0.0484854 0.0205182 -9.28176e-24)
(0.25279 0.102091 0)
(0.148799 0.0613059 -9.812e-24)
(0.0480106 0.0203168 9.33724e-24)
(0.352211 0.139444 -7.0223e-21)
(0.25031 0.101097 -7.67699e-24)
(0.147355 0.0607127 -9.47223e-21)
(0.0475496 0.0201199 8.69079e-24)
(0.44226 0.17163 6.1769e-21)
(0.348769 0.138077 -6.74935e-21)
(0.247881 0.100116 7.75198e-21)
(0.145925 0.0601249 8.78273e-24)
(0.0470863 0.0199243 -8.78281e-21)
(0.515342 0.195981 -5.37516e-24)
(0.437897 0.169918 5.9458e-21)
(0.345378 0.136733 0)
(0.245491 0.0991575 7.12483e-24)
(0.144509 0.0595417 -8.80381e-24)
(0.0466381 0.019734 0)
(0.56388 0.210058 2.08875e-25)
(0.510148 0.19397 5.40643e-21)
(0.433596 0.168245 5.46769e-24)
(0.342048 0.135421 -6.2597e-21)
(0.243118 0.098198 -7.13607e-24)
(0.143128 0.0589715 0)
(0.0461867 0.0195429 0)
(0.581927 0.21225 -5.02223e-24)
(0.557975 0.207803 -5.09413e-21)
(0.505044 0.192017 0)
(0.429382 0.166608 5.5031e-21)
(0.338741 0.134108 0)
(0.240776 0.0972496 0)
(0.141754 0.0584052 0)
(0.045734 0.0193513 -7.91996e-21)
(0.566689 0.202261 0)
(0.575454 0.209811 5.07126e-21)
(0.552184 0.205621 0)
(0.500035 0.190101 9.55946e-24)
(0.425196 0.164979 -1.53982e-23)
(0.33546 0.132806 0)
(0.238456 0.0963129 0)
(0.140381 0.0578381 0)
(0.0452919 0.019163 7.31829e-24)
(0.519326 0.181269 5.69921e-24)
(0.559787 0.199691 -5.15583e-21)
(0.569108 0.207463 0)
(0.546499 0.203488 4.7264e-21)
(0.495067 0.188203 -9.56886e-24)
(0.421045 0.163362 3.96238e-25)
(0.332216 0.13152 0)
(0.236155 0.0953795 0)
(0.139019 0.0572764 0)
(0.0448622 0.0189834 -7.3536e-24)
(0.444685 0.151701 3.14438e-24)
(0.512096 0.178607 -2.7923e-24)
(0.553029 0.197247 4.97669e-21)
(0.562919 0.20519 -4.63256e-21)
(0.540903 0.201387 4.55747e-21)
(0.49015 0.186322 0)
(0.416938 0.161761 9.75375e-24)
(0.328992 0.130238 0)
(0.233876 0.0944596 0)
(0.137695 0.0567291 -7.29313e-21)
(0.0444293 0.0188039 0)
(0.350153 0.116701 -3.91541e-21)
(0.437152 0.148952 2.07811e-23)
(0.50506 0.176135 -5.29169e-21)
(0.546535 0.194917 1.90405e-23)
(0.556885 0.202965 -4.45147e-21)
(0.535382 0.199313 0)
(0.485287 0.184458 0)
(0.412856 0.16017 -4.50842e-24)
(0.325814 0.128976 0)
(0.231626 0.0935435 5.93082e-21)
(0.136372 0.0561866 7.01735e-21)
(0.0440045 0.0186243 0)
(0.244258 0.0795195 5.51099e-21)
(0.342099 0.113813 -3.71794e-24)
(0.429903 0.146492 -1.14489e-24)
(0.498472 0.173831 0)
(0.540297 0.192659 0)
(0.55098 0.200788 -1.72143e-23)
(0.52994 0.197267 4.22899e-21)
(0.480465 0.182615 0)
(0.408826 0.158597 4.51312e-24)
(0.322649 0.127716 0)
(0.229401 0.0926474 -5.7003e-21)
(0.135081 0.0556546 3.23645e-24)
(0.0435844 0.0184451 0)
(0.23454 0.0762105 -2.18463e-21)
(0.159316 0.0510639 1.89937e-21)
(0.16347 0.0524655 -1.91791e-21)
(0.334581 0.111337 0)
(0.423471 0.144294 5.80941e-21)
(0.49232 0.171645 -5.03536e-21)
(0.534287 0.190487 0)
(0.545197 0.198656 -4.14391e-21)
(0.524571 0.195253 7.76749e-24)
(0.475707 0.180795 4.12339e-21)
(0.404834 0.157043 0)
(0.319549 0.126488 0)
(0.227219 0.0917623 -1.12259e-25)
(0.133802 0.0551261 -3.24191e-24)
(0.0431719 0.0182689 0)
(0.226294 0.0735085 9.71178e-22)
(0.14642 0.0470627 1.85822e-21)
(0.153019 0.0485986 1.89366e-21)
(0.104701 0.0332726 -1.68928e-21)
(0.108396 0.0343756 4.25987e-22)
(0.328578 0.109287 -6.7746e-21)
(0.417745 0.142297 5.59963e-21)
(0.48653 0.169592 -1.85048e-23)
(0.528469 0.188385 0)
(0.539536 0.196574 -7.99534e-24)
(0.519288 0.193271 -3.90469e-21)
(0.471021 0.179005 0)
(0.400911 0.155514 1.99943e-24)
(0.316491 0.12527 2.19502e-24)
(0.225078 0.0908958 -2.61301e-24)
(0.132544 0.0546043 0)
(0.0427882 0.0181059 0)
(0.221253 0.0716642 2.17435e-21)
(0.139222 0.0444761 -3.59673e-21)
(0.141801 0.045353 0)
(0.087906 0.0280718 -4.28371e-22)
(0.0971175 0.0302668 0)
(0.063114 0.019911 3.41022e-23)
(0.0653729 0.0207149 5.6396e-22)
(0.0667306 0.0210178 -5.90993e-22)
(0.323705 0.10761 2.64502e-23)
(0.412556 0.140492 -7.74331e-25)
(0.481029 0.167648 6.86639e-25)
(0.522833 0.186354 0)
(0.533992 0.194535 0)
(0.514091 0.191324 0)
(0.466407 0.177239 0)
(0.397047 0.154006 -2.00171e-24)
(0.313504 0.124083 4.39031e-21)
(0.222982 0.0900431 -2.39985e-24)
(0.13135 0.0541069 5.95246e-21)
(0.0423944 0.017941 0)
(0.217828 0.0705104 -2.03227e-21)
(0.136286 0.04338 3.48013e-21)
(0.137406 0.0436882 -6.99236e-21)
(0.0818377 0.0257346 2.03441e-21)
(0.0835529 0.0264237 -4.20194e-22)
(0.0420643 0.0135009 5.52026e-22)
(0.0454731 0.0144321 1.88412e-23)
(0.0592396 0.0185685 -1.83103e-23)
(0.0524631 0.0155464 3.39554e-22)
(0.0364949 0.0115186 -5.32431e-22)
(0.0381926 0.012021 8.02336e-24)
(0.039001 0.0122048 8.25968e-24)
(0.3195 0.10619 0)
(0.407743 0.138832 -5.36992e-21)
(0.475775 0.165795 1.79297e-23)
(0.51735 0.18438 0)
(0.52856 0.192542 3.5585e-24)
(0.50899 0.189412 3.62129e-21)
(0.46186 0.175503 -3.65635e-21)
(0.393268 0.152533 -1.15229e-23)
(0.31058 0.122918 0)
(0.220951 0.0892134 -4.82686e-21)
(0.130168 0.0536173 5.70558e-21)
(0.0420205 0.0177838 0)
(0.215055 0.0696498 1.91297e-21)
(0.134473 0.0428395 3.33763e-21)
(0.135232 0.042987 3.42794e-21)
(0.0802751 0.0251977 -3.12382e-21)
(0.0808802 0.0253935 3.99451e-21)
(0.0388952 0.0121345 4.29002e-24)
(0.0391114 0.012193 -1.66376e-21)
(0.0402545 0.0126541 6.03507e-22)
(0.0394307 0.0123767 -2.64348e-23)
(0.0139055 0.00453222 -3.81826e-22)
(0.0154293 0.00507611 0)
(0.0338086 0.0102265 -4.82699e-22)
(0.0230853 0.00553208 -2.49603e-22)
(0.0116809 0.00374639 3.75347e-22)
(0.0123371 0.0038509 0)
(0.0125778 0.00391199 0)
(0.315722 0.104926 6.20404e-21)
(0.4032 0.137268 5.16069e-21)
(0.470703 0.164014 8.31661e-24)
(0.512013 0.182464 3.88991e-21)
(0.523238 0.190588 -3.56322e-21)
(0.503968 0.187535 3.4616e-21)
(0.457421 0.173806 -3.50478e-21)
(0.389578 0.151091 3.68881e-21)
(0.307738 0.12178 0)
(0.218978 0.0884096 -4.62588e-21)
(0.129033 0.0531442 0)
(0.0416546 0.017631 0)
(0.212606 0.0688829 1.87907e-21)
(0.132982 0.0424018 2.94723e-23)
(0.133604 0.0425217 0)
(0.0793488 0.0249327 -7.75868e-22)
(0.0797867 0.0250486 -3.0846e-21)
(0.0384466 0.0119868 4.15982e-24)
(0.0384899 0.0119859 -8.35532e-24)
(0.0387092 0.0120534 -1.08892e-21)
(0.038606 0.012048 4.19829e-24)
(0.0124223 0.00385342 -7.33026e-22)
(0.0124877 0.00387816 -1.78645e-24)
(0.0129322 0.00407128 -4.06458e-22)
(0.0125943 0.00393221 0)
(0.0109449 0.00354903 2.38221e-22)
(0.00641541 0.00148458 5.00572e-23)
(0.3122 0.103755 -1.21341e-20)
(0.398878 0.135792 9.81362e-24)
(0.4658 0.162291 -4.15163e-21)
(0.506794 0.180591 -3.74364e-21)
(0.518017 0.188678 1.64258e-24)
(0.499059 0.185694 -1.6575e-24)
(0.453073 0.172141 -6.72553e-21)
(0.385983 0.149681 -3.53227e-21)
(0.30498 0.120673 0)
(0.217063 0.0876229 0)
(0.127931 0.0526883 -2.495e-24)
(0.0412868 0.0174751 5.14212e-21)
(0.210323 0.0681623 1.06468e-20)
(0.131592 0.0419741 3.03341e-24)
(0.132194 0.0421007 -3.15963e-21)
(0.0785318 0.0246941 -2.93313e-21)
(0.0789257 0.0248085 1.02261e-25)
(0.0380964 0.0118919 -1.02328e-21)
(0.038153 0.0118834 1.02483e-21)
(0.0383188 0.011927 0)
(0.0382397 0.0119334 -1.04369e-21)
(0.0123062 0.00381692 7.06601e-22)
(0.01231 0.003821 -7.11094e-22)
(0.0123711 0.00383783 -7.23584e-22)
(0.0123406 0.00383424 -7.17828e-22)
(0.308891 0.102657 -1.16636e-23)
(0.394714 0.134364 0)
(0.461017 0.160617 3.98773e-21)
(0.501692 0.178765 -3.59818e-21)
(0.512904 0.186802 -1.64407e-24)
(0.494248 0.183891 3.18244e-21)
(0.448838 0.170514 3.216e-21)
(0.382481 0.148302 1.61466e-24)
(0.302297 0.119593 0)
(0.215216 0.0868678 0)
(0.126845 0.0522353 -4.99763e-21)
(0.0409559 0.0173297 -9.93669e-24)
(0.20816 0.0674615 -3.47661e-21)
(0.13025 0.0415564 -3.0176e-21)
(0.130833 0.0416773 -3.05568e-21)
(0.0777372 0.0244537 2.77399e-24)
(0.0781335 0.024572 2.8642e-24)
(0.0377304 0.0117817 0)
(0.0378092 0.0117817 -1.00841e-21)
(0.0379716 0.0118347 0)
(0.037908 0.0118344 3.92251e-24)
(0.0121918 0.00378661 9.17166e-25)
(0.0122207 0.00378842 6.91441e-22)
(0.012267 0.00380106 -7.01059e-22)
(0.0122352 0.00379908 6.92931e-22)
(0.305682 0.101589 5.72869e-21)
(0.390664 0.132985 2.1899e-24)
(0.456357 0.158986 3.83117e-21)
(0.49668 0.176967 0)
(0.507885 0.184962 0)
(0.489547 0.182125 0)
(0.444711 0.168923 3.00726e-24)
(0.379092 0.146964 3.22943e-21)
(0.299719 0.118553 0)
(0.213422 0.0861286 -1.90861e-24)
(0.125796 0.0517926 -9.50021e-21)
(0.0406148 0.0171901 0)
(0.206036 0.0667802 -6.59182e-21)
(0.128963 0.041139 2.91207e-21)
(0.129528 0.0412622 2.94761e-21)
(0.0769606 0.0242159 -7.00562e-22)
(0.0773484 0.0243262 -2.7766e-24)
(0.0373689 0.0116714 0)
(0.0374429 0.0116728 0)
(0.0376016 0.0117205 -9.8618e-22)
(0.0375417 0.0117236 0)
(0.0120751 0.00375036 -6.66834e-22)
(0.0121111 0.00375419 1.34347e-21)
(0.01217 0.00377679 -2.66959e-24)
(0.0121481 0.00377176 -6.75516e-22)
(0.302593 0.100567 0)
(0.386728 0.13164 -2.19352e-24)
(0.451778 0.157383 1.85474e-24)
(0.491762 0.175204 3.31761e-21)
(0.502965 0.183154 0)
(0.484956 0.180393 2.94012e-21)
(0.440699 0.16737 -2.94365e-21)
(0.375821 0.145664 0)
(0.29722 0.117539 1.60069e-24)
(0.211667 0.0854039 3.82899e-21)
(0.124779 0.0513731 2.26507e-24)
(0.04027 0.0170468 -8.49515e-24)
(0.204012 0.0661221 1.61441e-21)
(0.127693 0.0407406 1.66965e-23)
(0.128258 0.0408602 2.85561e-21)
(0.0762027 0.0239728 -2.59711e-24)
(0.0765704 0.0240832 -6.88895e-22)
(0.0370017 0.011557 0)
(0.0370666 0.0115564 9.33596e-22)
(0.0372514 0.0116129 0)
(0.0371835 0.0116061 0)
(0.0119693 0.00371756 -6.48741e-22)
(0.0120006 0.00372157 6.53521e-22)
(0.0120475 0.00373748 6.59791e-22)
(0.0120212 0.00373391 -6.56833e-22)
(0.299578 0.0995608 0)
(0.382861 0.13032 -4.29215e-21)
(0.447264 0.155803 -3.53721e-21)
(0.486917 0.173466 -4.45651e-24)
(0.498138 0.181375 3.22095e-23)
(0.480478 0.178695 0)
(0.436823 0.165856 -2.8175e-21)
(0.372655 0.144399 0)
(0.294786 0.116549 -3.12084e-24)
(0.209961 0.0847039 0)
(0.123768 0.0509544 4.27279e-21)
(0.0399492 0.0169117 8.48679e-21)
(0.202019 0.0654767 -1.55774e-21)
(0.126477 0.0403435 -2.70873e-21)
(0.127012 0.0404619 -2.78715e-21)
(0.0754697 0.0237471 -2.5798e-21)
(0.0758442 0.0238535 2.60017e-24)
(0.0366454 0.0114407 0)
(0.0367135 0.0114462 3.55808e-24)
(0.0368702 0.0114949 9.17449e-22)
(0.0367943 0.0114943 -3.55511e-24)
(0.0118448 0.00367867 -6.29843e-22)
(0.0118675 0.00368092 6.34752e-22)
(0.01194 0.00370453 -6.42902e-22)
(0.0119062 0.0036945 -6.39064e-22)
(0.29661 0.0985748 4.9764e-21)
(0.379037 0.129014 0)
(0.442813 0.154245 0)
(0.482136 0.171746 -2.99313e-21)
(0.493403 0.17962 5.55578e-24)
(0.476124 0.177029 2.66122e-21)
(0.433059 0.164377 1.33837e-24)
(0.369576 0.143166 0)
(0.29242 0.115588 1.51993e-24)
(0.208293 0.0840211 -3.44361e-21)
(0.122783 0.0505472 -2.87571e-23)
(0.0396272 0.0167753 4.01617e-21)
(0.200055 0.0648406 0)
(0.125264 0.0399623 -2.74753e-23)
(0.125809 0.0400804 0)
(0.0747507 0.0235159 -1.26252e-21)
(0.0751063 0.0236185 1.88954e-21)
(0.0362946 0.0113363 -8.74781e-22)
(0.0363546 0.0113337 3.40576e-24)
(0.0365071 0.011381 0)
(0.0364481 0.0113802 0)
(0.0117293 0.00364102 -6.11708e-22)
(0.0117672 0.00364975 6.15979e-22)
(0.0118142 0.00366536 0)
(0.0117845 0.00366165 -6.19894e-22)
(0.293677 0.0975985 0)
(0.375257 0.127722 -7.4765e-24)
(0.438388 0.152692 0)
(0.477407 0.170036 0)
(0.488754 0.17788 0)
(0.471874 0.17539 1.33362e-24)
(0.429404 0.162936 -2.5552e-21)
(0.366586 0.141968 0)
(0.290103 0.114652 2.8682e-21)
(0.206659 0.083353 -3.27007e-21)
(0.12181 0.0501406 -2.7062e-23)
(0.039295 0.0166359 -7.21314e-24)
(0.198121 0.0642133 -1.45193e-21)
(0.124085 0.0395826 2.54297e-21)
(0.124607 0.0396993 0)
(0.0740393 0.023295 2.41555e-21)
(0.0743936 0.0233963 -9.53093e-24)
(0.0359473 0.0112243 8.37536e-22)
(0.0360222 0.0112352 8.44894e-22)
(0.036177 0.0112773 8.56256e-22)
(0.0361039 0.0112714 -3.31589e-24)
(0.0116144 0.00360803 -1.73622e-24)
(0.0116464 0.00361124 5.97892e-22)
(0.0116878 0.00362681 -6.05505e-22)
(0.0116688 0.00362262 -6.01166e-22)
(0.29077 0.0966273 -8.92054e-24)
(0.371479 0.126429 7.48355e-24)
(0.433964 0.151134 -1.20938e-23)
(0.472704 0.16832 5.31418e-24)
(0.484185 0.176155 4.8591e-24)
(0.467739 0.173781 2.41705e-21)
(0.425846 0.161528 0)
(0.363661 0.1408 -2.75136e-24)
(0.287839 0.113737 0)
(0.205034 0.0826842 -3.08519e-21)
(0.120831 0.0497329 3.60149e-21)
(0.0389631 0.0164951 3.59556e-21)
(0.196205 0.0635882 -1.38658e-21)
(0.122924 0.0392121 2.42153e-21)
(0.123446 0.039331 0)
(0.0733414 0.0230755 -2.32232e-21)
(0.0737038 0.0231802 0)
(0.0356131 0.0111217 -8.12207e-22)
(0.0356799 0.0111256 0)
(0.0358157 0.011164 0)
(0.0357694 0.0111647 0)
(0.0115096 0.00357429 -1.11689e-24)
(0.0115406 0.00358278 -5.78116e-22)
(0.0115943 0.00359635 -5.87759e-22)
(0.0115654 0.00358898 0)
(0.287854 0.0956531 4.54774e-21)
(0.367653 0.125119 1.37938e-23)
(0.429493 0.14955 3.07248e-21)
(0.468021 0.166592 2.68946e-21)
(0.479688 0.174432 -4.85092e-24)
(0.463691 0.172201 2.18836e-24)
(0.422363 0.160155 -2.28108e-21)
(0.360797 0.139658 0)
(0.285582 0.112823 0)
(0.203406 0.082014 -2.91376e-21)
(0.119849 0.0493215 -6.80632e-21)
(0.0386395 0.016355 3.35634e-21)
(0.194298 0.0629661 -3.89439e-21)
(0.121767 0.0388407 4.67198e-21)
(0.122285 0.0389558 9.20974e-24)
(0.0726687 0.0228642 -5.61114e-22)
(0.0730161 0.0229653 -8.87358e-24)
(0.0352788 0.011016 -7.80519e-22)
(0.0353524 0.0110275 -3.06279e-24)
(0.0355037 0.0110646 0)
(0.0354467 0.0110678 0)
(0.0114026 0.00354095 -3.77883e-24)
(0.0114263 0.0035452 -5.60209e-22)
(0.0114698 0.00355793 -5.67582e-22)
(0.0114521 0.00355357 5.65246e-22)
(0.284892 0.0946646 8.58244e-24)
(0.363728 0.123771 -3.43164e-21)
(0.424949 0.147919 -2.86498e-21)
(0.463322 0.164826 2.58372e-21)
(0.475248 0.172721 -1.09481e-24)
(0.459718 0.170655 -2.18482e-24)
(0.418947 0.158814 4.0958e-24)
(0.357951 0.138525 -8.49534e-24)
(0.283329 0.111909 0)
(0.201777 0.0813408 2.76465e-23)
(0.118863 0.048904 1.20987e-23)
(0.0383023 0.0162117 3.19152e-21)
(0.192367 0.0623339 1.30575e-21)
(0.120637 0.0384776 -2.23511e-21)
(0.121154 0.0385968 -2.30804e-21)
(0.0719889 0.0226474 -2.15786e-21)
(0.0723385 0.0227478 0)
(0.034957 0.0109173 0)
(0.035025 0.0109259 7.52023e-22)
(0.0351625 0.0109589 7.75005e-22)
(0.0351143 0.0109651 2.97451e-24)
(0.0113014 0.00350808 -1.72511e-24)
(0.011331 0.00351873 -5.41964e-22)
(0.0113797 0.00352758 5.54237e-22)
(0.0113495 0.00352481 -5.46528e-22)
(0.281802 0.0936329 -1.58394e-23)
(0.359615 0.122343 -3.37692e-21)
(0.420253 0.146199 -2.75816e-21)
(0.458598 0.163029 -2.46411e-21)
(0.47086 0.171034 1.09298e-24)
(0.455816 0.169151 0)
(0.415568 0.157494 -1.18283e-23)
(0.355107 0.137391 8.49252e-24)
(0.281071 0.110991 2.29052e-21)
(0.200149 0.0806641 -9.64539e-24)
(0.11786 0.0484791 -8.10216e-25)
(0.0379609 0.0160698 -1.19768e-23)
(0.190359 0.0616766 1.24188e-21)
(0.119499 0.0381087 -4.17602e-24)
(0.120023 0.0382341 -2.17701e-21)
(0.0713391 0.0224442 6.23658e-24)
(0.0716819 0.022543 2.10679e-21)
(0.0346385 0.0108152 0)
(0.0346967 0.0108171 -1.43461e-24)
(0.0348594 0.0108636 -2.89247e-24)
(0.0348003 0.0108649 4.32993e-24)
(0.0111997 0.00347762 -5.21857e-22)
(0.0112204 0.00348445 0)
(0.0112597 0.00349055 -5.31858e-22)
(0.0112367 0.00349063 -5.28575e-22)
(0.278443 0.0925118 -9.66912e-23)
(0.355189 0.120783 0)
(0.415376 0.144369 5.35695e-21)
(0.453859 0.161228 0)
(0.466535 0.169399 7.78701e-24)
(0.451969 0.167678 0)
(0.412205 0.156177 1.50269e-23)
(0.35227 0.136256 0)
(0.27882 0.110068 -2.14737e-21)
(0.198494 0.0799722 9.64983e-24)
(0.116858 0.0480553 -2.18124e-23)
(0.037607 0.0159219 2.74936e-21)
(0.188124 0.0609552 5.87139e-21)
(0.118338 0.0377322 -2.06994e-21)
(0.118901 0.0378725 -2.12615e-21)
(0.0706871 0.0222354 3.34971e-24)
(0.0710168 0.0223341 5.20769e-22)
(0.0343325 0.0107184 1.36845e-24)
(0.0343964 0.0107276 -1.36752e-24)
(0.0345423 0.0107698 0)
(0.0344815 0.0107659 0)
(0.0110867 0.00344138 5.03892e-22)
(0.0111215 0.00344983 -5.06637e-22)
(0.0111699 0.00346198 1.01358e-24)
(0.0111446 0.00346061 -5.12376e-22)
(0.274651 0.0912381 0)
(0.350312 0.118997 -6.19654e-21)
(0.410328 0.142462 1.27018e-24)
(0.449169 0.159492 8.15382e-24)
(0.462301 0.167815 -4.19232e-25)
(0.448171 0.16622 0)
(0.408859 0.154861 -1.83608e-21)
(0.349438 0.135114 1.86412e-21)
(0.276546 0.109133 8.06603e-24)
(0.196836 0.0792756 -8.36769e-24)
(0.115835 0.0476217 -2.56646e-21)
(0.037248 0.0157686 -4.74412e-24)
(0.185457 0.0600983 0)
(0.11702 0.0373095 2.01686e-21)
(0.117681 0.0374815 -2.00879e-21)
(0.0700264 0.0220272 0)
(0.0703772 0.022128 1.46397e-21)
(0.0340263 0.0106239 -2.81681e-24)
(0.0340936 0.0106297 -6.7234e-22)
(0.0342271 0.0106709 -6.85829e-22)
(0.0341829 0.0106736 -1.32832e-24)
(0.0110013 0.00341351 4.87186e-22)
(0.0110228 0.00342111 -4.89864e-22)
(0.0110646 0.00343331 -4.98468e-22)
(0.0110409 0.00342962 -4.94104e-22)
(0.270015 0.0896274 1.78345e-21)
(0.344937 0.116965 -3.02144e-21)
(0.405281 0.140645 0)
(0.444635 0.157845 -4.37523e-25)
(0.458171 0.166266 -1.43558e-23)
(0.44441 0.164769 1.72327e-21)
(0.405517 0.153539 6.86753e-24)
(0.346595 0.133965 1.75277e-21)
(0.274256 0.108184 0)
(0.19516 0.0785712 2.08225e-21)
(0.114793 0.0471767 2.37656e-21)
(0.0368959 0.0156182 1.34255e-23)
(0.181702 0.058894 2.75215e-21)
(0.115285 0.0367682 -1.48761e-23)
(0.116246 0.0370305 1.9701e-21)
(0.0693194 0.0218032 -2.34431e-21)
(0.0696949 0.0219112 1.47376e-23)
(0.0337249 0.0105266 0)
(0.0337942 0.0105395 0)
(0.0339275 0.010577 -1.30235e-24)
(0.0338719 0.0105733 6.55875e-22)
(0.0108921 0.00338076 4.66976e-22)
(0.0109278 0.00338907 -4.73723e-22)
(0.0109672 0.00340296 0)
(0.0109524 0.00340269 0)
(0.264175 0.0874383 3.51422e-21)
(0.33946 0.115055 -2.05994e-23)
(0.40052 0.138975 -2.27281e-21)
(0.440304 0.156259 -7.7322e-24)
(0.454135 0.164741 -1.76004e-21)
(0.440682 0.163324 -6.20087e-24)
(0.402179 0.152215 -1.59419e-21)
(0.34373 0.132801 -6.14211e-24)
(0.271961 0.107232 1.72868e-21)
(0.19347 0.0778565 -1.91174e-21)
(0.113761 0.0467335 -2.18237e-21)
(0.0365266 0.0154607 -8.69043e-24)
(0.174925 0.0564838 1.64961e-23)
(0.112079 0.0357763 4.37748e-23)
(0.113957 0.0363888 -1.88275e-21)
(0.068402 0.0215219 -1.23536e-23)
(0.0689378 0.0216644 -1.80213e-21)
(0.0334339 0.0104359 -5.27889e-24)
(0.0334852 0.0104419 1.22963e-24)
(0.033618 0.0104807 0)
(0.0335688 0.0104793 -1.22961e-24)
(0.0108058 0.0033518 0)
(0.0108353 0.00336279 -4.56719e-22)
(0.0108709 0.00337318 -4.63251e-22)
(0.0108489 0.00336983 -4.60873e-22)
(0.257951 0.0853667 1.35885e-23)
(0.334541 0.113396 2.54362e-21)
(0.396164 0.137419 1.70346e-23)
(0.436166 0.154728 1.81505e-21)
(0.45018 0.163242 0)
(0.436986 0.161888 6.205e-24)
(0.398848 0.150888 1.51312e-21)
(0.340876 0.131634 -1.50617e-21)
(0.269656 0.106269 -5.96624e-24)
(0.191785 0.0771364 1.65279e-23)
(0.112709 0.0462756 1.98521e-21)
(0.0361446 0.0152986 0)
(0.166745 0.0539631 -5.43683e-22)
(0.103152 0.0325973 -1.45236e-23)
(0.1087 0.0346757 -2.92212e-23)
(0.0665564 0.0210034 5.33057e-23)
(0.0676913 0.0213212 4.27855e-22)
(0.0330979 0.0103328 5.97218e-22)
(0.0331869 0.0103472 -1.20379e-21)
(0.0333457 0.0103907 1.20622e-24)
(0.0332769 0.0103787 0)
(0.0107136 0.00332465 8.76269e-22)
(0.0107381 0.00333227 -4.41262e-22)
(0.0107657 0.00334057 -4.48864e-22)
(0.0107503 0.00333992 -4.45029e-22)
(0.252948 0.083693 3.17749e-21)
(0.330358 0.111929 0)
(0.392133 0.135955 0)
(0.432187 0.153253 1.33015e-23)
(0.446306 0.161769 0)
(0.433331 0.160462 -2.90554e-21)
(0.395539 0.149561 0)
(0.338026 0.130463 1.41396e-21)
(0.267355 0.105296 1.46743e-21)
(0.19008 0.0764008 -1.59614e-21)
(0.111629 0.0458068 -1.77674e-21)
(0.0357612 0.0151378 -3.07422e-24)
(0.161918 0.052185 -3.17419e-21)
(0.0932477 0.029828 8.34113e-22)
(0.0968304 0.0308442 9.04801e-22)
(0.0570879 0.0176544 0)
(0.0643109 0.0202638 -2.63459e-22)
(0.0323199 0.010124 0)
(0.0326495 0.0101936 4.53856e-24)
(0.0329614 0.0102816 -6.5359e-24)
(0.0328189 0.0102522 -4.54995e-24)
(0.0106172 0.00329544 -4.23977e-22)
(0.0106464 0.00330177 4.25117e-22)
(0.0106941 0.00331614 -4.33844e-22)
(0.0106676 0.00330909 -4.3067e-22)
(0.249252 0.0823896 -2.39572e-23)
(0.326709 0.110625 0)
(0.388365 0.134589 0)
(0.428351 0.151828 -1.33248e-23)
(0.442509 0.160319 1.44815e-21)
(0.429715 0.159042 3.59326e-25)
(0.392253 0.148234 2.96864e-23)
(0.335183 0.129281 0)
(0.265049 0.104316 1.33336e-21)
(0.188359 0.075657 2.8516e-21)
(0.110552 0.0453388 0)
(0.0353629 0.0149693 4.40169e-24)
(0.159291 0.0511958 8.81065e-22)
(0.0904973 0.0286186 -1.28227e-23)
(0.0914516 0.0289555 -8.04342e-22)
(0.0449698 0.0142031 -1.26003e-21)
(0.0480213 0.0155086 2.58503e-22)
(0.018954 0.00444471 0)
(0.027943 0.00830623 0)
(0.0317555 0.0100129 1.72332e-23)
(0.0305454 0.00947814 2.58865e-22)
(0.0103899 0.00323002 -4.0761e-22)
(0.0105048 0.00325562 4.11862e-22)
(0.0105824 0.00328356 -2.61221e-24)
(0.0105427 0.00327328 -4.15225e-22)
(0.246294 0.0813528 2.98538e-21)
(0.323412 0.109455 0)
(0.384808 0.1333 7.06134e-24)
(0.424634 0.150442 0)
(0.438786 0.158891 0)
(0.426147 0.157631 -1.24096e-21)
(0.388981 0.146902 -1.22075e-21)
(0.332351 0.128096 -1.17056e-21)
(0.262736 0.103324 -1.19327e-21)
(0.186643 0.0749073 1.26182e-21)
(0.109456 0.0448547 -1.3671e-21)
(0.0349538 0.0148001 1.23981e-21)
(0.157455 0.0506123 -4.43654e-21)
(0.089343 0.0282334 -1.57955e-21)
(0.0897853 0.0283249 1.28163e-23)
(0.0437371 0.0136274 -3.79609e-22)
(0.044159 0.0137815 0)
(0.0103458 0.00325754 4.02878e-22)
(0.0106168 0.00335321 -2.08586e-22)
(0.0127087 0.00398731 -2.24779e-22)
(0.0113093 0.00376216 0)
(0.00524126 0.0011809 0)
(0.00906325 0.00291102 1.76312e-22)
(0.0101982 0.0032001 4.03673e-22)
(0.0097314 0.00311618 1.84104e-22)
(0.243743 0.0804813 0)
(0.32038 0.108387 2.22347e-21)
(0.381415 0.132067 -1.37769e-23)
(0.421031 0.149094 -1.51931e-21)
(0.435135 0.15748 -1.33353e-21)
(0.422619 0.156226 1.15122e-21)
(0.38575 0.145574 4.11328e-24)
(0.329533 0.126903 0)
(0.26044 0.102325 -1.05582e-21)
(0.184914 0.0741417 1.10029e-21)
(0.108333 0.0443604 -2.48116e-24)
(0.0345341 0.0146232 0)
(0.1559 0.0501467 8.71679e-22)
(0.0885184 0.0280149 1.50474e-21)
(0.0888574 0.0280694 1.21421e-23)
(0.0432857 0.0134924 0)
(0.0434832 0.0135498 3.73724e-22)
(0.010222 0.0031782 -7.16438e-25)
(0.0102333 0.0031705 -3.9163e-22)
(0.0103053 0.00320372 4.02222e-22)
(0.0102621 0.00319095 0)
(0.241459 0.0797086 -2.61143e-21)
(0.317536 0.107384 0)
(0.378162 0.130881 1.64007e-21)
(0.417524 0.147772 1.36762e-21)
(0.431552 0.156086 1.25114e-21)
(0.419147 0.154827 8.49897e-24)
(0.382542 0.144239 -4.11269e-24)
(0.326734 0.125701 9.76792e-22)
(0.258134 0.101311 9.46243e-22)
(0.183156 0.07336 -8.24455e-25)
(0.107198 0.0438562 -9.46577e-22)
(0.0341069 0.0144417 0)
(0.154523 0.0497168 -8.4845e-22)
(0.0877715 0.0278034 -1.4465e-21)
(0.0880951 0.0278617 0)
(0.0429518 0.0133993 1.37798e-24)
(0.0431186 0.0134505 -3.65752e-22)
(0.0101674 0.00315922 -3.68503e-22)
(0.0101762 0.00315386 -3.72392e-22)
(0.0102065 0.0031633 -3.78159e-22)
(0.0101984 0.00317042 -3.76893e-22)
(0.239343 0.078991 -1.99729e-23)
(0.314834 0.106429 0)
(0.375019 0.12973 -6.00698e-24)
(0.414104 0.146475 -1.27768e-21)
(0.42804 0.154704 0)
(0.415718 0.15343 -7.82507e-24)
(0.37937 0.142901 -1.82659e-21)
(0.323948 0.12449 -8.30309e-22)
(0.255827 0.100285 0)
(0.181387 0.0725641 7.60901e-22)
(0.106036 0.0433346 0)
(0.0336606 0.0142542 0)
(0.153238 0.0493028 -7.97226e-22)
(0.0870757 0.0275832 0)
(0.0873632 0.0276429 2.84129e-21)
(0.0426135 0.0133083 2.70167e-24)
(0.0427962 0.0133588 -4.07506e-24)
(0.0101076 0.00313841 -6.95687e-25)
(0.0101226 0.00313589 -3.57214e-22)
(0.0101471 0.00314637 7.15218e-25)
(0.0101463 0.00315282 -6.52024e-25)
(0.237338 0.0783096 9.74849e-24)
(0.312241 0.10551 -1.90827e-21)
(0.371975 0.128609 3.33218e-25)
(0.41077 0.145196 1.27357e-21)
(0.424591 0.153331 0)
(0.412343 0.152035 8.9182e-22)
(0.376232 0.141557 0)
(0.321176 0.123267 1.53611e-24)
(0.253515 0.0992407 0)
(0.179599 0.0717493 0)
(0.104851 0.0427985 -5.02174e-22)
(0.0331936 0.0140607 0)
(0.151998 0.0489019 -1.53379e-21)
(0.0863769 0.0273597 1.32363e-21)
(0.0866773 0.0274229 -5.24622e-24)
(0.042279 0.0132024 5.17335e-24)
(0.0424467 0.0132556 -1.33026e-21)
(0.0100322 0.00311962 -3.38444e-22)
(0.0100489 0.00311698 -3.44455e-22)
(0.0100844 0.0031262 -3.50342e-22)
(0.01008 0.00313321 0)
(0.235429 0.077658 -1.09233e-22)
(0.309755 0.104622 -1.82376e-21)
(0.369017 0.127506 -1.36371e-21)
(0.407516 0.143934 -1.20425e-21)
(0.421212 0.151964 -1.82927e-24)
(0.409013 0.150635 -1.54551e-24)
(0.373119 0.140202 0)
(0.31841 0.122025 0)
(0.251189 0.0981739 -2.16817e-25)
(0.17778 0.0709108 4.03009e-22)
(0.103626 0.0422447 -2.68286e-22)
(0.0327128 0.0138597 -7.15701e-26)
(0.150814 0.0485117 2.06446e-21)
(0.0857212 0.0271526 1.25503e-21)
(0.0860033 0.0272105 2.58642e-21)
(0.041945 0.0130939 3.16852e-22)
(0.0421169 0.0131485 0)
(0.00995125 0.0030937 -3.27239e-22)
(0.00996631 0.0030906 6.40343e-25)
(0.0100049 0.0031034 -3.36274e-22)
(0.00999859 0.0031082 -3.33446e-22)
(0.2336 0.0770278 -1.08038e-22)
(0.307337 0.103752 -1.72472e-21)
(0.366153 0.126427 1.28651e-21)
(0.404337 0.142681 2.18924e-24)
(0.417894 0.1506 1.82924e-24)
(0.405734 0.149232 1.54562e-24)
(0.370036 0.138834 0)
(0.315655 0.120765 0)
(0.248843 0.0970823 2.16968e-25)
(0.175938 0.0700523 4.56902e-22)
(0.102366 0.0416699 0)
(0.032214 0.0136537 2.87173e-22)
(0.149685 0.0481357 2.67951e-21)
(0.085079 0.0269451 1.19507e-21)
(0.0853577 0.027004 1.22022e-24)
(0.0416386 0.0130038 0)
(0.04179 0.0130461 -1.21231e-21)
(0.00988324 0.00306818 -3.12978e-22)
(0.00989717 0.00306777 -6.20743e-25)
(0.00992541 0.00307807 -3.2256e-22)
(0.00991809 0.00308294 -3.18103e-22)
(0.231825 0.0764144 2.03117e-21)
(0.305007 0.102905 0)
(0.363367 0.12536 -1.29847e-21)
(0.401233 0.141434 0)
(0.414639 0.149235 0)
(0.4025 0.147821 0)
(0.366977 0.13745 -5.70433e-22)
(0.312901 0.119482 4.23373e-22)
(0.246486 0.0959649 -2.02568e-22)
(0.174046 0.0691615 5.35297e-23)
(0.101072 0.0410801 -1.83165e-25)
(0.0316909 0.0134423 2.11918e-25)
(0.148583 0.0477723 -6.61576e-22)
(0.0844736 0.0267435 1.13783e-21)
(0.0847346 0.0268029 -2.34378e-21)
(0.0413256 0.0129055 0)
(0.0414843 0.0129514 0)
(0.00981317 0.00304998 0)
(0.00981949 0.00304598 -3.01893e-22)
(0.00984753 0.00305226 -3.08413e-22)
(0.00984297 0.00305945 -3.06269e-22)
(0.23012 0.0758202 2.02807e-21)
(0.302748 0.10207 1.45921e-21)
(0.360653 0.1243 -2.24393e-24)
(0.398197 0.14019 -1.77491e-24)
(0.411445 0.147868 0)
(0.39931 0.146398 5.39536e-22)
(0.363947 0.136046 -8.61708e-22)
(0.310137 0.118165 0)
(0.244095 0.0948137 -4.48555e-23)
(0.172113 0.068243 0)
(0.0997205 0.0404712 5.01823e-25)
(0.0311584 0.0132326 2.03588e-24)
(0.147528 0.0474242 -3.02328e-21)
(0.0838644 0.0265521 1.07799e-21)
(0.084127 0.026607 4.31278e-24)
(0.0410383 0.0128091 0)
(0.0411916 0.0128587 1.10256e-21)
(0.00973512 0.00302624 -1.11699e-24)
(0.00974323 0.00302211 -2.8871e-22)
(0.00978047 0.00303259 -2.95956e-22)
(0.00976626 0.00303614 -2.92386e-22)
(0.228471 0.0752416 0)
(0.300565 0.101245 0)
(0.358015 0.123244 1.71549e-24)
(0.395237 0.138951 -9.22288e-22)
(0.408314 0.146497 0)
(0.396168 0.144959 4.51139e-22)
(0.360928 0.134613 0)
(0.307362 0.116816 -3.19563e-26)
(0.241659 0.0936248 0)
(0.170128 0.0672954 3.52875e-22)
(0.0983127 0.039854 -3.19055e-25)
(0.0306266 0.0130167 1.19956e-21)
(0.146505 0.0470943 5.93569e-22)
(0.0832886 0.0263674 1.02905e-21)
(0.0835369 0.0264202 0)
(0.0407475 0.0127222 4.10516e-24)
(0.0408995 0.0127663 -4.09941e-24)
(0.00966945 0.00300351 -1.0763e-24)
(0.00968214 0.00300058 -2.75875e-22)
(0.00971058 0.0030117 -2.82094e-22)
(0.00970665 0.00301604 -2.79394e-22)
(0.226889 0.0746718 -1.84139e-21)
(0.298454 0.100419 0)
(0.355447 0.122193 9.93179e-22)
(0.392348 0.137714 0)
(0.405245 0.145115 0)
(0.393064 0.143499 -4.83025e-22)
(0.357922 0.133149 -8.17704e-26)
(0.304579 0.115434 3.19689e-26)
(0.23919 0.0923997 -5.07643e-22)
(0.168067 0.0663133 -5.71529e-22)
(0.0968432 0.0392553 0)
(0.0302399 0.0127185 -1.54815e-21)
(0.145516 0.0467903 2.18181e-21)
(0.0827059 0.0262016 -9.77583e-22)
(0.0829591 0.0262439 -9.99069e-25)
(0.0404678 0.0126344 0)
(0.0406122 0.0126772 0)
(0.00959747 0.00298337 -2.6088e-22)
(0.00961151 0.00298047 -2.63752e-22)
(0.0096435 0.0029901 0)
(0.00964017 0.0029954 -2.67327e-22)
(0.225384 0.0740886 8.17906e-25)
(0.296399 0.0995941 0)
(0.352965 0.121158 -1.02987e-21)
(0.389535 0.136473 0)
(0.402238 0.143719 4.75637e-22)
(0.389998 0.142012 -1.42535e-25)
(0.354931 0.13165 8.1794e-26)
(0.30177 0.114005 1.18423e-22)
(0.236653 0.0911317 4.77714e-22)
(0.16596 0.0653225 0)
(0.0952723 0.0386012 0)
(0.0306318 0.0124572 0)
(0.144696 0.046346 -1.06909e-24)
(0.0821677 0.0261247 3.71009e-24)
(0.0823852 0.0261089 -9.74401e-22)
(0.040184 0.0125494 0)
(0.0403273 0.0125902 0)
(0.00953478 0.00296241 -2.49264e-22)
(0.0095483 0.00296159 -2.51897e-22)
(0.00957532 0.00296966 0)
(0.00956876 0.00297379 -2.54813e-22)
(0.223897 0.0735073 -8.17223e-25)
(0.294423 0.0987949 1.15644e-21)
(0.350556 0.120124 0)
(0.386801 0.135227 0)
(0.399293 0.142303 -5.41974e-22)
(0.386969 0.140492 1.4249e-25)
(0.351941 0.130108 -2.60116e-23)
(0.298917 0.112532 -1.02855e-25)
(0.234104 0.0898265 0)
(0.16353 0.0642723 0)
(0.0953151 0.0378788 0)
(0.0265086 0.0100908 0)
(0.143759 0.0460232 0)
(0.081903 0.0257288 0)
(0.0819556 0.0260914 9.19654e-22)
(0.039822 0.0125047 0)
(0.0400239 0.0125184 9.06531e-22)
(0.00947542 0.00294103 0)
(0.00948222 0.00293929 -2.40606e-22)
(0.0095059 0.00294784 -2.46413e-22)
(0.00950103 0.00295195 4.77811e-25)
(0.222477 0.0729513 0)
(0.292524 0.0980073 0)
(0.348238 0.119092 0)
(0.384142 0.133965 -1.39815e-22)
(0.396405 0.14086 -3.59086e-25)