/*--------------------------------*- C++ -*----------------------------------*\
| =========                 |                                                 |
| \\      /  F ield         | OpenFOAM: The Open Source CFD Toolbox           |
|  \\    /   O peration     | Version:  v1912                                 |
|   \\  /    A nd           | Website:  www.openfoam.com                      |
|    \\/     M anipulation  |                                                 |
\*---------------------------------------------------------------------------*/
FoamFile
{
    version     2.0;
    format      ascii;
    class       surfaceScalarField;
    location    "400";
    object      phi;
}
// * * * * * * * * * * * * * * * * * * * * * * * * * * * * * * * * * * * * * //

dimensions      [0 3 -1 0 0 0 0];
oriented        oriented;


internalField   nonuniform List<scalar> 
7351
(
-3.56039e-06
0.00134736
-1.32626e-05
0.00413273
-2.80414e-06
0.00135017
-3.39093e-05
0.00695063
-1.35423e-05
0.00414347
-3.84209e-06
0.00135401
-6.14372e-05
0.00968819
-3.35989e-05
0.00697068
-1.42288e-05
0.00415385
-2.79215e-06
0.0013568
-9.49235e-05
0.0121659
-6.04346e-05
0.00971503
-3.20608e-05
0.00698851
-1.15665e-05
0.00416263
-2.83008e-06
0.00135963
-0.000143452
0.0141816
-9.47615e-05
0.0122002
-5.59467e-05
0.00973891
-3.04048e-05
0.00700735
-1.15149e-05
0.00417131
-2.8162e-06
0.00136245
-0.000184836
0.0155122
-0.000136889
0.0142238
-9.18252e-05
0.0122361
-5.55497e-05
0.00976406
-2.59534e-05
0.00702179
-1.13556e-05
0.00417985
-1.82039e-06
0.00136427
-0.000236632
0.0160075
-0.000186
0.0155613
-0.000132845
0.0142648
-8.61078e-05
0.0122666
-4.58035e-05
0.00978391
-2.27762e-05
0.00703321
-9.36837e-06
0.0041874
-1.76814e-06
0.00136604
-0.00027671
0.0155681
-0.000230324
0.0160518
-0.000177301
0.0156058
-0.000120618
0.0142993
-7.13259e-05
0.0122921
-4.1547e-05
0.00980268
-1.97772e-05
0.00704362
-7.31253e-06
0.00419294
-1.66702e-06
0.0013677
-0.000311043
0.014246
-0.000279134
0.0156169
-0.000218759
0.0160933
-0.000150713
0.0156359
-9.96196e-05
0.0143276
-6.404e-05
0.0123146
-3.72528e-05
0.00982016
-1.82704e-05
0.00705458
-6.43973e-06
0.00419772
-1.72218e-06
0.00136943
-0.000335467
0.0121651
-0.000322724
0.0142896
-0.000258775
0.0156569
-0.000186204
0.0161287
-0.000130015
0.0156663
-8.27384e-05
0.0143463
-5.23047e-05
0.0123297
-2.77837e-05
0.00982967
-1.53106e-05
0.00706345
-6.95074e-06
0.00420295
-1.74062e-06
0.00137117
-0.000343334
0.00952593
-0.000351975
0.0121944
-0.000277152
0.014308
-0.000206169
0.0156769
-0.000148235
0.016147
-0.000104207
0.0156877
-6.92839e-05
0.0143633
-4.26225e-05
0.0123445
-2.7317e-05
0.00984168
-1.19594e-05
0.00706846
-4.35132e-06
0.00420556
-1.3431e-06
0.00137251
0.00654764
-0.000193727
-0.000114261
-0.000372531
0.00954649
-0.000286785
0.012204
-0.000211548
0.0143133
-0.00015926
0.0156879
-0.000112704
0.0161555
-7.88544e-05
0.0156973
-5.12228e-05
0.0143719
-3.56532e-05
0.0123529
-1.81534e-05
0.00984787
-1.20267e-05
0.00707613
-6.07153e-06
0.00421028
-7.18832e-07
0.00137323
0.0065531
-0.00017715
-0.000200847
-0.00215263
0.00211091
-0.000152009
-8.41644e-05
-0.00025969
0.00951939
-0.000190767
0.0121832
-0.00015082
0.0143049
-0.000110089
0.0156853
-8.71713e-05
0.0161638
-6.48599e-05
0.0157109
-4.5287e-05
0.0143815
-3.07636e-05
0.0123655
-2.27722e-05
0.00985862
-1.15474e-05
0.00708161
-4.84097e-06
0.00421441
-1.45289e-06
0.00137468
0.00648322
-5.96795e-05
-0.000130129
-0.00209328
0.0020695
-0.000153379
-0.000183212
-0.00137941
0.00132152
-6.22975e-05
-3.18255e-05
-2.48937e-05
-0.000141099
0.00946973
-0.000119125
0.0121515
-9.51493e-05
0.01429
-7.90855e-05
0.0156772
-6.23436e-05
0.0161613
-4.5841e-05
0.0157115
-3.94771e-05
0.0143902
-2.56465e-05
0.0123684
-1.7266e-05
0.00986433
-1.24096e-05
0.00708918
-5.61853e-06
0.00421857
-2.23066e-06
0.00137691
0.00639865
-1.07987e-05
-4.57311e-05
-0.0020212
0.00199784
-3.63261e-05
-8.18194e-05
-0.00130385
0.00125963
-3.89394e-05
-7.02225e-05
-8.31251e-05
-8.24171e-05
-0.00041762
0.000390576
-3.52535e-05
-0.000431512
-1.79343e-05
-9.68853e-06
-6.77903e-05
0.00941839
-6.50305e-05
0.0121214
-6.19582e-05
0.0142728
-5.07377e-05
0.0156656
-4.33314e-05
0.0161588
-3.77225e-05
0.0157097
-3.18995e-05
0.0143965
-2.51006e-05
0.0123762
-2.17354e-05
0.00987366
-1.35085e-05
0.00709707
-7.67601e-06
0.00422402
-1.21157e-06
0.00137812
0.00634782
-4.59723e-07
-1.65004e-05
-0.0019693
0.00196469
-6.18878e-06
-1.71874e-05
-0.00120679
0.00117646
-7.97812e-07
-5.20322e-06
-2.19461e-05
-7.03017e-06
-0.000320977
0.000302014
-1.99759e-05
-0.000344236
-4.69641e-05
0.000365387
-5.79361e-05
-6.12653e-05
-0.000238853
0.000213361
-9.76103e-06
-0.000252887
-3.90111e-06
-1.63093e-06
-3.49869e-05
0.00938835
-3.85518e-05
0.012098
-3.70316e-05
0.0142591
-3.79642e-05
0.0156602
-3.19921e-05
0.016153
-3.35403e-05
0.0157114
-2.63909e-05
0.0143978
-2.87214e-05
0.0123832
-2.11063e-05
0.00988126
-1.55244e-05
0.00710492
-7.4423e-06
0.00423025
-2.8873e-06
0.00138101
0.00631567
4.02756e-06
-6.86184e-06
-0.00195164
0.00195221
-1.03244e-06
-3.45096e-06
-0.00116074
0.00115455
1.05001e-06
-1.04697e-06
-1.79032e-06
3.30351e-07
-0.000277133
0.000276739
-4.03169e-07
-0.000281836
-5.00308e-07
0.000286754
-6.68634e-06
-2.11241e-06
-0.000108178
8.82024e-05
-0.000155142
0.000176101
-2.06761e-05
-4.03067e-05
-7.07438e-05
6.09828e-05
-7.46449e-05
-1.45947e-05
0.00936439
-2.35139e-05
0.0120845
-2.47412e-05
0.0142459
-2.24481e-05
0.0156507
-2.92431e-05
0.0161487
-2.59011e-05
0.0157109
-3.69778e-05
0.014406
-3.37328e-05
0.0123958
-2.72122e-05
0.00989295
-1.8597e-05
0.00711607
-1.03565e-05
0.00423772
-1.96075e-06
0.00138297
0.00630161
3.6769e-06
-4.2111e-06
-0.00194605
0.00194919
8.87146e-07
-7.01212e-07
-0.00115111
0.0011498
2.59776e-07
2.53179e-08
-5.00273e-07
4.81581e-07
-0.00027426
0.000275106
2.0346e-07
-0.000275453
1.45994e-07
0.000274989
-4.08918e-08
-1.32969e-07
-7.89034e-05
7.85002e-05
-7.94037e-05
8.15161e-05
4.03067e-05
-6.1764e-06
0.00934705
-6.74484e-06
0.0120665
-1.25137e-05
0.014236
-2.00596e-05
0.0156415
-2.54001e-05
0.0161482
-3.70321e-05
0.0157109
-3.42451e-05
0.0144065
-3.68362e-05
0.0124054
-3.0931e-05
0.00990528
-2.02972e-05
0.00712601
-1.07709e-05
0.00424653
-2.66288e-06
0.00138564
0.00629444
1.8994e-06
-9.05738e-07
-0.00194505
0.00194812
6.04137e-07
-6.97752e-08
-0.00114878
0.00114956
-1.59575e-07
2.71595e-07
-8.76692e-08
4.01573e-07
-0.000275011
0.000275205
6.57696e-08
-0.000275123
1.37048e-07
0.000274831
-2.2522e-07
1.89862e-07
-7.84723e-05
7.86758e-05
-7.83263e-05
7.84593e-05
-1.54613e-07
0.00934046
-6.39507e-06
0.0120604
-1.08392e-05
0.0142268
-1.48104e-05
0.0156309
-2.77854e-05
0.016139
-4.11457e-05
0.0157178
-5.08056e-05
0.0144205
-4.38511e-05
0.0124183
-3.66498e-05
0.00992163
-2.57245e-05
0.00714097
-1.12293e-05
0.0042551
-3.42937e-06
0.00138906
0.00629167
1.98857e-06
6.23164e-07
-0.00194735
0.00194788
1.37115e-06
-1.35225e-07
-0.00114894
0.00114955
1.40799e-07
-1.47567e-07
2.12493e-07
3.32945e-07
-0.000275745
0.000275551
3.46102e-08
-0.00027543
-4.35002e-08
0.000275107
1.10879e-08
7.82843e-08
-7.87775e-05
7.88433e-05
-7.86405e-05
7.84506e-05
-3.29388e-07
0.0093344
4.20174e-07
0.0120491
-6.23636e-06
0.0142182
-2.54159e-05
0.0156285
-3.88594e-05
0.0161367
-4.99021e-05
0.0157169
-5.8604e-05
0.0144353
-5.77681e-05
0.0124395
-4.6645e-05
0.00994255
-2.72127e-05
0.00715695
-1.1286e-05
0.00426295
-2.36779e-06
0.00139143
0.00628895
1.91174e-06
4.83485e-07
-0.00194826
0.00194879
1.45086e-06
2.48238e-07
-0.00114869
0.00115013
2.53481e-07
-3.19083e-07
3.3272e-07
3.91182e-07
-0.000275714
0.000275898
-4.24358e-08
-0.000276021
1.59634e-07
0.000275812
-4.82161e-08
1.23154e-07
-7.88892e-05
7.89238e-05
-7.89327e-05
7.88544e-05
5.51796e-06
0.0093293
6.68826e-07
0.0120422
-1.01289e-05
0.0142029
-2.47069e-05
0.0156144
-4.95353e-05
0.0161363
-6.68388e-05
0.0157252
-7.22832e-05
0.0144498
-6.79193e-05
0.0124607
-4.96318e-05
0.00996497
-2.96637e-05
0.00717533
-1.43015e-05
0.00427489
-3.08152e-06
0.00139451
0.00628996
2.49063e-06
2.01813e-06
-0.00194836
0.00194997
2.95516e-07
9.1924e-07
-0.00115042
0.00115134
1.96778e-07
3.29869e-07
-3.09755e-07
2.72714e-07
-0.000276284
0.000276497
4.02012e-08
-0.000276746
1.43033e-07
0.000276216
1.38279e-08
-1.38579e-07
-7.91584e-05
7.91159e-05
-7.89987e-05
7.88756e-05
2.27711e-06
0.00932769
-2.67656e-06
0.0120348
-1.94112e-05
0.0141976
-4.26989e-05
0.0156075
-6.95805e-05
0.0161391
-9.10463e-05
0.0157439
-9.60849e-05
0.0144779
-7.91731e-05
0.0124903
-5.44721e-05
0.00998978
-3.01263e-05
0.00719115
-1.22495e-05
0.00428405
-3.39856e-06
0.00139791
0.00628986
3.86409e-07
1.99098e-06
-0.0019507
0.00195203
1.15325e-06
1.29729e-06
-0.00115209
0.00115195
2.60795e-07
1.79885e-07
-1.56091e-07
3.24045e-07
-0.0002766
0.000277042
-2.44535e-07
-0.000276431
1.60189e-07
0.000276257
-6.97476e-08
9.95627e-08
-7.91342e-05
7.91744e-05
-7.89912e-05
7.91298e-05
2.1406e-06
0.00932288
-5.91245e-06
0.0120213
-2.3018e-05
0.0141779
-5.86304e-05
0.0155966
-9.06101e-05
0.0161386
-0.000111021
0.0157589
-0.000106573
0.0145053
-8.61567e-05
0.012522
-5.93703e-05
0.010019
-3.2819e-05
0.00721172
-1.35625e-05
0.00429422
-2.85899e-06
0.00140077
0.00628807
1.97342e-06
1.95277e-06
-0.00195381
0.00195284
1.35402e-06
2.13355e-07
-0.00115319
0.00115435
-2.84683e-07
2.75813e-07
-2.75049e-07
3.30815e-07
-0.00027715
0.000277381
2.94659e-08
-0.000277064
9.38224e-08
0.000276885
1.02953e-09
1.45012e-07
-7.93644e-05
7.91199e-05
-7.92042e-05
7.91047e-05
-1.84932e-07
0.00931715
-1.33251e-05
0.0120116
-4.54509e-05
0.0141647
-8.7699e-05
0.0155937
-0.000128092
0.0161557
-0.000138019
0.0157903
-0.000128945
0.0145481
-9.53368e-05
0.0125579
-5.90024e-05
0.0100452
-3.19645e-05
0.00723012
-1.14483e-05
0.00430281
-1.94101e-06
0.00140271
0.00628552
4.91065e-07
1.87121e-06
-0.00195393
0.0019555
4.025e-07
8.68224e-07
-0.00115388
0.00115525
-1.75429e-07
1.60021e-07
3.25201e-07
3.53799e-07
-0.000277492
0.000277471
-2.63965e-07
-0.00027732
1.03854e-07
0.000277098
8.10659e-09
1.08674e-07
-7.93598e-05
7.93893e-05
-7.9266e-05
7.91209e-05
-2.4327e-06
0.00930626
-2.39562e-05
0.0119901
-6.98368e-05
0.0141469
-0.000126225
0.0155918
-0.000162797
0.0161805
-0.000170195
0.0158316
-0.000135706
0.0145885
-9.82972e-05
0.0125972
-6.07218e-05
0.010074
-2.84974e-05
0.00724717
-1.09804e-05
0.00431185
-1.79246e-06
0.00140451
0.00628058
5.6398e-07
1.94883e-06
-0.00195622
0.00195633
3.85915e-07
1.14913e-06
-0.0011556
0.00115605
1.6128e-07
-2.05078e-07
3.44792e-07
1.74782e-07
-0.000278047
0.000277839
3.17899e-08
-0.000277947
6.06172e-08
0.000277769
2.78424e-08
1.75206e-07
-7.96099e-05
7.93459e-05
-7.9506e-05
7.93974e-05
-8.52222e-06
0.00929082
-4.52062e-05
0.0119654
-0.00010942
0.0141301
-0.000170443
0.0155994
-0.000205087
0.0162154
-0.000182815
0.0158787
-0.00014262
0.0146328
-9.59182e-05
0.0126324
-5.14834e-05
0.010097
-2.4105e-05
0.0072603
-8.76558e-06
0.00431882
-1.44294e-06
0.00140595
0.00627093
-8.02691e-07
1.92936e-06
-0.00195728
0.00195746
3.8865e-07
9.90025e-07
-0.00115656
0.00115701
2.65661e-07
-3.37086e-07
3.33735e-07
3.0613e-07
-0.000277947
0.00027835
-2.41849e-07
-0.000278238
8.66007e-08
0.000278121
6.34917e-08
5.73786e-08
-7.96096e-05
7.96414e-05
-7.9549e-05
7.93738e-05
-1.77771e-05
0.00926339
-7.66919e-05
0.0119327
-0.000161577
0.0141212
-0.000228612
0.015623
-0.000230257
0.0162628
-0.000196573
0.0159326
-0.000142144
0.014679
-8.60187e-05
0.012667
-4.67576e-05
0.0101196
-2.06539e-05
0.00727219
-5.8174e-06
0.00432319
-3.87077e-07
0.00140633
0.00625364
-2.51393e-06
2.028e-06
-0.00195812
0.00195721
1.05165e-07
1.26879e-06
-0.00115793
0.00115783
1.54724e-07
3.35089e-07
3.47873e-07
-2.76611e-07
-0.000278396
0.000278687
-2.54183e-08
-0.000278818
8.49896e-08
0.000278625
5.87304e-08
1.12898e-07
-7.98489e-05
7.9607e-05
-7.97623e-05
7.97049e-05
-3.84819e-05
0.00922518
-0.000130429
0.0119016
-0.000234475
0.0141271
-0.000275466
0.0156682
-0.000248696
0.0163149
-0.000187797
0.0159783
-0.000126246
0.0147193
-7.31814e-05
0.0126934
-3.87671e-05
0.0101377
-1.70637e-05
0.00728343
-3.45733e-06
0.00432626
-2.29083e-07
0.00140656
0.0062215
-8.37557e-06
2.02876e-06
-0.00195892
0.00195621
1.90547e-07
3.25036e-07
-0.00115892
0.00115904
-1.47312e-07
1.31542e-07
3.08384e-07
-1.27757e-07
-0.000279047
0.000279133
6.89854e-08
-0.000278568
-1.43974e-07
0.000278965
6.97782e-08
1.20426e-07
-7.98637e-05
7.98382e-05
-7.97787e-05
7.96658e-05
-7.69498e-05
0.0091717
-0.000208148
0.0118752
-0.000299158
0.0141508
-0.000296133
0.0157156
-0.000234434
0.0163616
-0.000168936
0.016021
-0.000107304
0.0147534
-6.32959e-05
0.0127179
-3.24512e-05
0.0101531
-9.90376e-06
0.00728988
-2.65113e-06
0.00432869
7.78476e-07
0.00140579
0.00616425
-1.88558e-05
-8.37476e-07
-0.00195777
0.00195109
-1.69537e-06
4.67307e-07
-0.00115889
0.00115904
-2.90371e-07
3.31301e-07
3.13529e-07
1.63492e-07
-0.000279274
0.000279118
8.07156e-09
-0.000279259
1.16716e-07
0.000279432
9.52967e-09
4.50747e-08
-7.98845e-05
7.99535e-05
-8.00284e-05
7.9908e-05
-0.00014655
0.00911011
-0.000309829
0.0118859
-0.000341506
0.0141961
-0.000284355
0.0157655
-0.000209184
0.0164018
-0.000141209
0.0160549
-8.72286e-05
0.0147773
-4.79613e-05
0.0127334
-1.9896e-05
0.0101631
-5.99177e-06
0.00729322
1.33581e-06
0.00432813
1.16746e-06
0.00140462
0.00607464
-4.62858e-05
-1.06564e-05
-0.00195183
0.00193713
-4.15731e-06
-1.57193e-06
-0.00115928
0.00115755
-1.05777e-07
1.44602e-07
3.19264e-07
-9.66721e-08
-0.000279941
0.000279591
5.98955e-08
-0.000279478
-1.3219e-07
0.000279419
1.25236e-08
1.05097e-07
-8.01248e-05
8.01329e-05
-8.00081e-05
7.9963e-05
-0.00027783
0.00907811
-0.000369768
0.0119142
-0.000318359
0.0142301
-0.000237684
0.015794
-0.000169024
0.0164296
-0.000107439
0.0160751
-6.40615e-05
0.0147934
-3.41131e-05
0.0127476
-1.15011e-05
0.0101686
-1.2021e-06
0.00729576
2.93123e-06
0.00432636
1.5163e-06
0.0014031
0.00597303
-0.000122071
-5.4154e-05
-0.00193377
0.00190372
-1.62458e-05
-7.29264e-06
-0.00115592
0.00115168
-2.34293e-07
3.13362e-07
3.10093e-07
-2.47502e-07
-0.000279768
0.000279856
-1.92874e-07
-0.000279743
1.19318e-07
0.000279893
1.68833e-08
5.36177e-08
-8.01183e-05
8.01782e-05
-8.02505e-05
8.01454e-05
-0.000386355
0.00909469
-0.000337101
0.0119329
-0.000252609
0.0142451
-0.000183093
0.0158081
-0.000123407
0.0164456
-8.00918e-05
0.0160911
-4.26418e-05
0.0148019
-1.7418e-05
0.0127536
-4.94705e-06
0.0101724
2.8984e-06
0.00729579
3.46751e-06
0.00432441
2.81981e-06
0.00140028
0.00596775
-0.000209823
-0.000171252
-0.00187937
0.00182087
-6.35741e-05
-2.97981e-05
-0.00114458
0.00112978
-1.55719e-06
1.17614e-07
3.69942e-07
-5.66415e-07
-0.000280047
0.000279743
7.00714e-08
-0.000279799
6.50768e-08
0.000280151
1.43225e-08
1.05063e-07
-8.0368e-05
8.01752e-05
-8.02487e-05
8.01951e-05
-0.000334035
0.00909163
-0.000238904
0.0119192
-0.000174894
0.0142369
-0.000128823
0.0158135
-8.8526e-05
0.016454
-5.58364e-05
0.0161043
-2.97076e-05
0.0148142
-1.08078e-05
0.0127594
3.67739e-06
0.0101716
6.42246e-06
0.00729283
7.07618e-06
0.00432016
3.37933e-06
0.0013969
0.00591217
-9.7964e-05
-0.000180488
-0.00178353
0.00175159
-0.000177878
-0.000133912
-0.00110406
0.00105335
-1.08991e-05
-1.96753e-06
-4.33487e-07
-3.646e-06
-0.000279553
0.000278243
-2.47092e-07
-0.000279606
1.70478e-07
0.00028006
5.28648e-08
-1.12558e-07
-8.03596e-05
8.04297e-05
-8.02945e-05
8.01895e-05
-0.000182849
0.00903557
-0.000146755
0.0118911
-0.000116404
0.0142244
-8.39264e-05
0.0158089
-5.73034e-05
0.0164555
-3.17044e-05
0.0161063
-1.39098e-05
0.0148173
-3.09333e-07
0.0127634
7.82069e-06
0.0101702
1.28912e-05
0.00728702
9.99607e-06
0.00431354
3.79558e-06
0.00139311
0.00580939
-1.78524e-05
-6.22144e-05
-0.00170694
0.00166674
-5.77708e-05
-0.000135836
-0.000972115
0.000924675
-6.65188e-05
-6.39193e-05
-1.4575e-05
-3.81009e-05
-0.000273217
0.00026413
-1.81208e-06
-0.000274594
-5.90728e-07
0.000278019
-2.09234e-07
-2.21398e-07
-8.05405e-05
8.02934e-05
-8.037e-05
8.04826e-05
-8.52442e-05
0.00897406
-8.116e-05
0.0118558
-6.90199e-05
0.0142095
-5.20988e-05
0.0158037
-3.35338e-05
0.0164573
-1.52168e-05
0.0161076
-5.47907e-07
0.0148176
1.1963e-05
0.0127593
1.5811e-05
0.0101673
1.44795e-05
0.00728254
9.5122e-06
0.00430782
4.81687e-06
0.00138829
0.00574233
1.52814e-07
-1.83383e-05
-0.00162756
0.00161689
-7.18116e-06
-2.30333e-05
-0.000857608
0.000807937
-1.353e-06
-6.7463e-06
-4.90449e-05
-1.97242e-05
-0.000184348
0.000158476
-4.06474e-05
-0.000225734
-2.25334e-05
0.000253624
-4.06894e-06
-1.02102e-05
-7.9272e-05
7.746e-05
-7.98628e-05
8.00842e-05
-4.03482e-05
0.00893325
-4.28181e-05
0.0118296
-3.8099e-05
0.0141955
-2.89707e-05
0.0157992
-1.58042e-05
0.0164579
-2.88294e-06
0.0161099
1.29476e-05
0.0148166
1.58509e-05
0.0127592
2.06612e-05
0.0101611
1.75357e-05
0.00727451
1.35936e-05
0.00429905
5.0668e-06
0.00138322
0.00570594
3.29754e-06
-7.2567e-06
-0.0016022
0.00160271
-3.56895e-07
-3.65313e-06
-0.000785608
0.000778418
2.83252e-07
-2.747e-07
-7.31143e-07
2.65288e-08
-8.29609e-05
8.16079e-05
-8.97072e-05
0.000109431
-4.06474e-05
-6.31809e-05
7.3391e-05
-1.79629e-05
0.00890839
-2.1683e-05
0.0118132
-1.83678e-05
0.0141849
-7.35029e-06
0.0157907
5.07738e-07
0.0164545
1.27458e-05
0.0161101
1.58769e-05
0.0148166
2.5298e-05
0.0127546
2.48867e-05
0.0101537
2.31848e-05
0.00726492
1.5668e-05
0.00428845
5.87908e-06
0.00137734
0.00568845
3.8873e-06
-4.35973e-06
-0.00159646
0.00159864
1.12365e-06
-1.00687e-06
-0.000774689
0.000774272
1.15353e-07
-5.58549e-08
-4.34245e-08
1.19942e-07
-8.06286e-05
8.09119e-05
-8.09033e-05
8.08768e-05
-4.51438e-06
0.00889123
-8.25448e-06
0.0118031
-3.4796e-06
0.0141811
3.48349e-06
0.0157877
1.41894e-05
0.0164531
1.99292e-05
0.0161061
3.18006e-05
0.0148101
3.25776e-05
0.0127469
3.24658e-05
0.0101444
2.77594e-05
0.00725283
1.74123e-05
0.00427691
6.80693e-06
0.00137054
0.00568256
3.47092e-06
-2.09796e-06
-0.00159419
0.00159799
8.02631e-08
9.24008e-08
-0.000773002
0.000774048
1.91779e-07
-1.13439e-07
1.01125e-07
1.61944e-07
-8.09325e-05
8.10479e-05
-8.09884e-05
8.08684e-05
-2.27036e-07
0.0088832
2.25083e-06
0.0117974
5.51861e-06
0.014179
1.18487e-05
0.0157901
2.3975e-05
0.016449
3.06625e-05
0.0161072
3.19406e-05
0.0148107
3.61892e-05
0.0127432
3.49119e-05
0.0101373
3.11477e-05
0.00723909
2.06961e-05
0.00426302
7.79607e-06
0.00136274
0.00568055
2.75384e-06
-9.70619e-07
-0.00159554
0.00159813
8.74023e-07
3.58098e-07
-0.000773979
0.000774172
3.27596e-08
-1.4574e-07
8.70038e-08
7.42979e-08
-8.11975e-05
8.13893e-05
-8.1311e-05
8.1149e-05
2.72043e-06
0.00888273
8.90498e-06
0.011794
1.57571e-05
0.0141751
2.31831e-05
0.0157909
2.70843e-05
0.0164526
4.05451e-05
0.0160986
4.62856e-05
0.0148006
4.84064e-05
0.0127297
4.27604e-05
0.0101257
3.59493e-05
0.00722384
2.31417e-05
0.00424768
8.7666e-06
0.00135397
0.00568043
2.79015e-06
5.68945e-08
-0.00159734
0.00159919
8.98283e-07
-1.72008e-07
-0.000774413
0.000775359
4.70608e-08
-1.19678e-07
5.81716e-08
5.92492e-08
-8.14049e-05
8.14376e-05
-8.15506e-05
8.14763e-05
7.18267e-06
0.00888445
1.39676e-05
0.0117958
1.83225e-05
0.01418
3.22101e-05
0.0157857
4.21658e-05
0.016451
4.7022e-05
0.0160979
4.95995e-05
0.0147994
5.36479e-05
0.0127188
5.06984e-05
0.0101109
4.13589e-05
0.00720562
2.6939e-05
0.0042295
9.64667e-06
0.00134433
0.00568457
2.88549e-06
1.49062e-07
-0.00159859
0.00160077
6.07954e-07
6.58636e-07
-0.000775055
0.000775925
-5.81925e-08
8.57909e-08
6.343e-08
6.93274e-08
-8.14354e-05
8.14824e-05
-8.1555e-05
8.14958e-05
8.48812e-06
0.00888993
1.54113e-05
0.0117987
2.78854e-05
0.0141843
3.53884e-05
0.0157925
4.41618e-05
0.0164539
5.44335e-05
0.0160931
6.17376e-05
0.0147913
6.07162e-05
0.0127088
5.8298e-05
0.010094
4.52339e-05
0.00718733
3.0028e-05
0.00420912
1.09858e-05
0.00133334
0.00568866
3.05926e-06
1.33974e-06
-0.00160023
0.00160247
6.43921e-07
6.93397e-07
-0.000776443
0.00077694
5.15846e-08
5.95593e-08
6.58897e-08
7.52811e-08
-8.1701e-05
8.16428e-05
-8.16152e-05
8.15459e-05
1.04598e-05
0.00889488
1.98687e-05
0.0118067
2.90354e-05
0.0141907
4.19519e-05
0.0157947
5.52567e-05
0.016453
6.28202e-05
0.016092
7.10474e-05
0.014781
7.0199e-05
0.0126969
6.591e-05
0.0100733
5.40146e-05
0.00716334
3.25317e-05
0.00418758
1.18938e-05
0.00132145
0.00569568
3.05931e-06
3.89232e-07
-0.00160308
0.00160534
7.99245e-07
7.29606e-07
-0.000777698
0.000778228
5.59302e-08
5.74346e-08
-1.17657e-07
5.30214e-08
-8.18435e-05
8.18951e-05
-8.1784e-05
8.17087e-05
1.1725e-05
0.00890303
2.18632e-05
0.0118139
3.53197e-05
0.0141973
4.6766e-05
0.0158032
6.17151e-05
0.0164541
7.23229e-05
0.0160907
7.7818e-05
0.0147734
8.4297e-05
0.0126785
7.55069e-05
0.0100518
6.05306e-05
0.00713534
3.78493e-05
0.00416162
1.21901e-05
0.00130926
0.00570281
3.1102e-06
1.47916e-06
-0.00160496
0.00160728
7.43307e-07
7.64174e-07
-0.000778762
0.00077955
9.35257e-08
-8.2467e-08
6.8085e-08
1.27546e-07
-8.18879e-05
8.19438e-05
-8.18305e-05
8.17775e-05
1.17754e-05
0.00891311
2.44585e-05
0.0118247
4.144e-05
0.0142026
5.8828e-05
0.0158061
7.20872e-05
0.0164544
8.57314e-05
0.0160828
9.35287e-05
0.0147641
9.29124e-05
0.0126611
8.61209e-05
0.0100262
6.63474e-05
0.00710685
4.03237e-05
0.00413349
1.06133e-05
0.00129864
0.00571151
2.74886e-06
3.24737e-07
-0.00160798
0.00161034
7.55921e-07
7.75427e-07
-0.000780168
0.000780976
4.90613e-08
-1.13505e-07
7.24349e-08
7.36718e-08
-8.2057e-05
8.21505e-05
-8.21395e-05
8.20119e-05
1.31127e-05
0.00892446
2.84628e-05
0.0118377
4.60395e-05
0.0142154
6.5221e-05
0.015813
8.08821e-05
0.0164592
9.39963e-05
0.0160823
0.000105633
0.0147514
0.000101776
0.0126454
9.52739e-05
0.0099973
7.55254e-05
0.00707164
4.30989e-05
0.004101
1.32079e-05
0.00128544
0.00572262
1.14055e-06
8.65748e-07
-0.00160999
0.00161228
4.61223e-07
6.72243e-07
-0.000781613
0.000782424
-1.12274e-07
5.72714e-08
6.80946e-08
7.05853e-08
-8.21831e-05
8.22322e-05
-8.22966e-05
8.2223e-05
1.62488e-05
0.00893667
3.29361e-05
0.0118508
5.53219e-05
0.0142253
7.16255e-05
0.0158222
9.24908e-05
0.0164607
0.000107942
0.01608
0.00011718
0.014736
0.000120135
0.0126206
0.000106927
0.0099659
8.15111e-05
0.00703323
4.36577e-05
0.00407055
3.17138e-05
0.00125372
0.00573422
2.59717e-06
2.05382e-06
-0.00161328
0.00161623
-1.80694e-06
-1.35192e-07
-0.000782953
0.000783215
1.12625e-07
8.64078e-08
6.34222e-08
7.97465e-08
-8.24282e-05
8.23159e-05
-8.23709e-05
8.23003e-05
1.99632e-05
0.00894965
3.96964e-05
0.0118664
5.8956e-05
0.014238
8.4134e-05
0.0158306
0.000105806
0.0164629
0.000123778
0.0160734
0.000132898
0.0147233
0.000128855
0.0125986
0.000118933
0.00992848
8.68207e-05
0.00699007
7.43007e-05
0.00402797
7.39215e-05
0.00574455
5.46671e-06
4.16192e-06
-0.00162179
0.00161936
-1.47774e-06
6.51274e-06
-3.51218e-06
-0.000783174
0.000781365
1.07363e-08
-8.34057e-09
3.37567e-08
-1.28179e-07
-8.25455e-05
8.26581e-05
-8.24591e-05
8.23793e-05
2.44056e-05
0.00896494
4.17454e-05
0.0118837
6.68708e-05
0.0142552
9.0862e-05
0.0158455
0.000115653
0.016471
0.000134991
0.0160713
0.000146895
0.0147052
0.000148059
0.0125695
0.000127355
0.00988794
0.000114954
0.00694942
0.000135864
0.00575826
5.47393e-06
5.22641e-06
-0.00162208
0.00162382
2.32352e-06
1.40333e-06
1.9998e-06
-5.59231e-07
-0.000486308
0.000491696
-6.86612e-06
-0.000461071
-1.87237e-05
0.000317039
-9.93694e-09
-2.47586e-07
-8.25553e-05
8.25661e-05
-8.25637e-05
8.26918e-05
2.40808e-05
0.0089826
4.88082e-05
0.0119017
7.50103e-05
0.0142711
0.000107867
0.0158533
0.00013553
0.0164705
0.000154987
0.0160632
0.000165341
0.0146879
0.000162219
0.0125346
0.000155161
0.00984774
0.000179262
0.00577365
4.30349e-06
4.38112e-06
-0.00162593
0.00162922
1.41469e-06
7.7315e-07
1.85366e-06
1.25458e-06
-0.000497067
0.000498178
1.21269e-06
-0.000496224
5.59952e-07
-0.000493518
-7.05758e-07
-2.38112e-06
-0.000295247
0.000289745
-1.36472e-06
3.06877e-06
8.25561e-05
8.23086e-05
2.74253e-05
0.00900399
5.34469e-05
0.0119233
8.57367e-05
0.0142932
0.000117228
0.0158716
0.000145912
0.0164795
0.000171649
0.0160569
0.000177983
0.0146722
0.000187263
0.0125025
0.000210923
0.00579072
4.75892e-06
5.59877e-06
-0.00163165
0.00163426
1.04489e-06
6.48344e-07
1.34102e-06
6.15081e-07
-0.000500377
0.000500995
7.97101e-07
-0.000499831
2.26866e-07
-0.000498776
7.98681e-07
6.56353e-07
-0.000288597
0.000289716
9.37993e-08
-0.000288092
5.49849e-08
-0.000288428
-3.70075e-07
-1.06328e-06
-8.53773e-05
8.40126e-05
3.02067e-05
0.00902723
6.17878e-05
0.0119472
9.72827e-05
0.0143132
0.00013479
0.0158827
0.000165932
0.0164853
0.000183318
0.0160516
0.000208194
0.0146512
0.000229296
0.00580961
5.2275e-06
6.08687e-06
-0.00163796
0.00164082
1.15848e-06
7.3556e-07
1.14554e-06
7.5006e-07
-0.00050232
0.000502828
5.37018e-07
-0.000502079
4.07419e-07
-0.000500955
2.16874e-07
6.54571e-07
-0.000290694
0.000291329
1.62449e-07
-0.000290656
1.88528e-07
-0.000290107
2.50089e-07
2.64722e-07
-8.26343e-05
8.27281e-05
-8.25793e-05
-8.29493e-05
3.62445e-05
0.00905277
6.82969e-05
0.0119762
0.000109739
0.0143382
0.000148054
0.0159006
0.000176398
0.0164922
0.000211763
0.016048
0.00023489
0.0058342
5.92851e-06
5.72487e-06
-0.00164484
0.00164806
1.1956e-06
8.14846e-07
1.23493e-06
8.33431e-07
-0.000504217
0.000505164
2.11347e-07
-0.000503948
4.6581e-07
-0.000503255
4.53354e-07
3.23015e-07
-0.000292376
0.000292798
1.15362e-07
-0.000292087
1.17802e-07
-0.000291825
-4.45266e-08
1.58423e-07
-8.34314e-05
8.35939e-05
-8.32429e-05
-8.29928e-05
3.89833e-05
0.00908208
8.07744e-05
0.0120052
0.00012481
0.0143615
0.00016144
0.0159156
0.00020031
0.0165036
0.000223966
0.00585911
6.54092e-06
7.54194e-06
-0.00165135
0.00165522
1.32699e-06
7.31482e-07
1.52328e-06
9.15178e-07
-0.000506686
0.000507278
6.03945e-07
-0.000505952
8.09363e-08
-0.00050522
5.02865e-07
7.77446e-07
-0.000293828
0.000293903
1.36911e-07
-0.000293323
-3.96797e-08
-0.000292999
1.29663e-07
1.21842e-07
-8.38256e-05
8.39409e-05
-8.37078e-05
-8.37523e-05
4.6729e-05
0.00911613
9.14014e-05
0.0120386
0.000134671
0.0143882
0.000175681
0.0159402
0.000199165
0.00588909
7.76094e-06
8.98552e-06
-0.00165999
0.00166407
1.52881e-06
9.30562e-07
1.67729e-06
1.09171e-06
-0.000509023
0.000509676
6.74501e-07
-0.000508797
5.0497e-07
-0.000507417
1.43869e-07
7.7585e-07
-0.000294804
0.00029547
-6.1344e-08
-0.000294847
1.23533e-07
-0.000294494
1.4978e-07
1.86263e-07
-8.41528e-05
8.42897e-05
-8.41924e-05
-8.40628e-05
5.56245e-05
0.0091519
0.000106962
0.0120663
0.00014671
0.0144172
0.0001605
0.00592474
9.89606e-06
1.00748e-05
-0.00166985
0.00167473
1.72451e-06
1.16343e-06
1.90158e-06
1.30255e-06
-0.000511691
0.000512711
5.0908e-07
-0.000511371
6.10617e-07
-0.000510303
6.09567e-07
4.64331e-07
-0.00029643
0.000297132
-2.73646e-08
-0.000296121
1.95396e-07
-0.000296105
1.28404e-07
1.40451e-07
-8.47493e-05
8.46879e-05
-8.46257e-05
-8.4476e-05
7.02018e-05
0.00918867
0.000112036
0.012101
0.000117812
0.0059666
1.46302e-05
1.37115e-05
-0.00168111
0.00168769
1.39338e-06
1.92767e-06
1.57974e-06
2.10814e-06
-0.000515177
0.000515938
9.6366e-07
-0.00051433
3.15707e-07
-0.000513159
7.30664e-07
8.54304e-07
-0.000298323
0.000298654
1.78178e-07
-0.000297887
1.74373e-07
-0.000297443
1.65385e-07
1.53602e-07
-8.51522e-05
8.51248e-05
-8.49568e-05
-8.48284e-05
8.20639e-05
0.00921864
7.40474e-05
0.00600616
2.36156e-05
1.88885e-05
-0.0016964
0.0017047
3.44779e-06
2.88268e-06
2.4874e-06
2.51542e-06
-0.000519392
0.000519748
1.03694e-06
-0.000518271
8.06851e-07
-0.000517102
4.10718e-07
9.44598e-07
-0.00030012
0.000300895
1.88537e-07
-0.000299985
1.81415e-07
-0.000299283
2.84722e-08
2.25155e-07
-8.56182e-05
8.57964e-05
-8.54438e-05
-8.52784e-05
4.44687e-05
1.56997e-05
4.25255e-05
-0.00171536
0.00172656
7.47612e-06
4.93115e-06
4.13872e-06
4.08923e-06
-0.000524688
0.000526195
1.94109e-06
-0.000523033
1.22779e-06
-0.00052118
6.3354e-07
1.08393e-06
-0.000302616
0.000303456
1.96739e-07
-0.000301838
2.92465e-08
-0.000301633
2.04911e-07
2.06996e-07
-8.62314e-05
8.642e-05
-8.605e-05
-8.60215e-05
-0.00174425
8.87523e-06
2.14508e-05
1.48275e-05
1.00148e-05
-0.000532887
0.000536628
3.73484e-06
-0.000530429
2.47319e-06
-0.000528558
2.26795e-06
1.72624e-06
-0.000305631
0.000307189
3.83604e-07
-0.000304705
3.01666e-07
-0.000304313
2.4173e-07
2.26675e-07
-8.68611e-05
8.70578e-05
-8.68319e-05
-8.6627e-05
-0.000550394
1.33586e-05
-0.0005442
1.52572e-05
-0.000539718
1.03448e-05
6.92516e-06
-0.000312023
0.000314769
9.88217e-07
-0.000310152
6.02612e-07
-0.000308487
6.02991e-07
4.27573e-07
-8.78279e-05
8.82115e-05
-8.75262e-05
-8.72845e-05
-0.000330496
2.05872e-05
-0.000325252
1.00128e-05
-0.000319653
4.74571e-06
2.04202e-06
-8.98447e-05
9.08329e-05
-8.92421e-05
-8.86391e-05
-0.000107633
-9.76206e-05
-9.28749e-05
-1.37799e-05
1.37791e-05
7.09704e-06
-2.08759e-05
-5.91011e-05
5.2803e-05
2.00751e-05
1.93801e-05
-7.13832e-05
3.51041e-06
-2.43863e-05
1.63245e-05
3.64754e-05
-0.000117876
0.000111072
2.68763e-05
2.96383e-05
-0.000128133
1.18553e-05
-7.97256e-05
1.55313e-06
-2.59374e-05
2.29484e-05
0.000104445
6.8827e-06
2.959e-05
-0.000409248
6.37011e-05
0.000395368
-1.86241e-05
6.69433e-05
-0.00042793
-0.0001349
6.97424e-06
-8.51434e-05
8.09906e-07
-2.6746e-05
1.47443e-05
9.65805e-05
2.36623e-06
2.7223e-05
-4.13178e-05
-0.00143193
0.00138673
0.000150185
-6.74634e-06
0.00037554
-4.27735e-05
0.000159269
-0.00148148
-1.4432e-05
-0.000448677
-7.59363e-06
-0.000142358
4.03288e-06
-8.83652e-05
2.91023e-07
-2.70376e-05
9.22009e-05
1.05278e-06
2.61716e-05
-2.47823e-05
0.000107937
-0.00200693
0.00195412
0.000202972
-4.38698e-06
-1.84467e-06
0.000214301
-0.00206197
-3.0748e-05
0.000130277
-0.00156202
-1.89982e-05
-0.000469579
-6.35602e-06
-3.49147e-06
-0.000145919
2.25581e-06
-9.03326e-05
3.32333e-07
-2.73714e-05
8.88673e-05
4.81945e-07
2.56912e-05
0.000178444
-0.00233526
0.00227772
0.000260491
8.75051e-05
0.000272642
-0.00239361
0.00020804
-0.00213973
0.000115642
-1.7517e-05
-0.00164428
-1.58813e-05
-0.000482228
-3.82277e-06
-2.53207e-06
-0.00015002
-1.57072e-06
-0.000151941
-9.15714e-05
2.90146e-07
-2.7662e-05
2.12458e-07
0.00024396
-0.00240594
0.00235297
0.000313442
0.000324943
-0.00245825
0.000278442
-0.00246401
0.000205144
-0.00222924
-0.000494175
-2.66054e-06
-2.9136e-06
0.000123013
-1.78966e-05
-0.00172893
-2.05045e-05
-0.000504235
-4.24421e-06
-1.58406e-06
-0.000154264
-1.50074e-06
-0.000155544
-1.2553e-06
-9.27822e-05
2.84871e-07
-2.79484e-05
0.000301094
-0.0022025
0.00216276
0.000353158
0.000362119
-0.00223968
0.000335745
-0.00251554