/*--------------------------------*- C++ -*----------------------------------*\
| =========                 |                                                 |
| \\      /  F ield         | OpenFOAM: The Open Source CFD Toolbox           |
|  \\    /   O peration     | Version:  v1912                                 |
|   \\  /    A nd           | Website:  www.openfoam.com                      |
|    \\/     M anipulation  |                                                 |
\*---------------------------------------------------------------------------*/
FoamFile
{
    version     2.0;
    format      ascii;
    class       volScalarField;
    location    "210";
    object      p;
}
// * * * * * * * * * * * * * * * * * * * * * * * * * * * * * * * * * * * * * //

dimensions      [0 2 -2 0 0 0 0];


internalField   nonuniform List<scalar> 
3673
(
0.00168333
0.00192809
0.00153017
0.00217244
0.00176523
0.00138508
0.00238554
0.00200247
0.00161455
0.00125201
0.00257471
0.00221295
0.00184403
0.00147526
0.00113197
0.00272918
0.00240299
0.00204877
0.00170375
0.00135092
0.00101644
0.00283737
0.00255829
0.00223757
0.00190702
0.00157179
0.00122999
0.000911675
0.00288437
0.00266792
0.00239601
0.00208879
0.00176615
0.00144404
0.00112035
0.000815498
0.00286295
0.00272086
0.00251151
0.00224445
0.00194678
0.00163717
0.00133171
0.00102095
0.00072404
0.0027759
0.00271158
0.00257768
0.00236633
0.0021017
0.00181431
0.00152037
0.00122604
0.000922928
0.000644285
0.00263342
0.00263254
0.0025881
0.00244223
0.0022188
0.00196403
0.001691
0.00140962
0.00112658
0.00083932
0.000568716
0.00245504
0.00248398
0.00253923
0.00247049
0.00229577
0.00207946
0.00183637
0.00157791
0.00130773
0.00103663
0.000759618
0.000500881
0.00229226
0.00225741
0.00243822
0.00245657
0.00232923
0.00214985
0.00194451
0.00171585
0.00146814
0.00120928
0.000954021
0.000686773
0.000433456
0.00221891
0.00196211
0.00228167
0.00240688
0.0023183
0.00217134
0.00200875
0.00181808
0.00160442
0.00136924
0.00112735
0.000876567
0.000618171
0.00037734
0.00169351
0.00198414
0.00224051
0.002029
0.00234003
0.00226809
0.00214624
0.00202361
0.00187747
0.00170624
0.00150179
0.00127981
0.00104135
0.000803023
0.000557811
0.00032624
0.00169796
0.00139651
0.0018598
0.00199972
0.00212137
0.00225328
0.00225165
0.0021837
0.00207222
0.00198732
0.00188754
0.00176034
0.00159416
0.00140303
0.0011901
0.000966673
0.000738635
0.000501359
0.000282468
0.00208756
0.00184921
0.00140433
0.00132673
0.00190684
0.00182823
0.0019763
0.00207064
0.00218235
0.00194155
0.00207726
0.00195441
0.00190465
0.00184803
0.0017651
0.00164403
0.00149282
0.00131277
0.00111258
0.000898105
0.000680149
0.000454689
0.000244088
0.00191262
0.00183012
0.00188428
0.00181339
0.000952458
0.00114582
0.00182543
0.00193584
0.00174862
0.0018023
0.00187534
0.00204765
0.00199163
0.00217096
0.0019019
0.00180655
0.00178303
0.00176485
0.00172098
0.00164623
0.00153899
0.0013994
0.00122947
0.00103791
0.000836834
0.000628399
0.000412325
0.000211867
0.0016417
0.00164936
0.00165985
0.00166476
0.00183722
0.00184025
0.00176212
0.000307431
0.00144494
0.00254965
0.0020373
0.0018213
0.0018379
0.00174096
0.00181515
0.00201084
0.00192708
0.00210265
0.00186974
0.00162799
0.0016434
0.00163372
0.00160029
0.00153647
0.00144133
0.00130981
0.00115175
0.00097287
0.000775373
0.000582965
0.000376593
0.000187109
0.00146302
0.00147222
0.00149583
0.00151228
0.00155587
0.00155242
0.00153525
0.00166322
0.00166271
0.00176687
0.00207108
-0.00100457
0.00287808
0.00227887
0.00169213
0.00170672
0.00173458
0.0019805
0.00204957
0.00149218
0.00151093
0.00150985
0.00148614
0.00143623
0.00134811
0.00122709
0.00107722
0.000905548
0.000730669
0.000543228
0.000348207
0.00016705
0.00132556
0.00131298
0.00135073
0.00136233
0.00142033
0.00142791
0.00143323
0.00147801
0.00147847
0.00148792
0.00151187
0.00160932
0.00156288
-0.00351139
0.00136155
0.00138337
0.00139611
0.00138575
0.00134097
0.0012618
0.00114869
0.00100836
0.000856208
0.00068466
0.000509795
0.000324291
0.000155427
0.0011937
0.00117311
0.00121347
0.00121116
0.00127042
0.00127658
0.00129901
0.00136143
0.00134246
0.00137337
0.00140831
0.00144048
0.00143137
0.00123679
0.00127455
0.00129488
0.00128958
0.00125192
0.00117914
0.0010752
0.000950855
0.000805218
0.000649696
0.000485797
0.000310451
0.000145685
0.00107241
0.00104096
0.00108172
0.00107427
0.00113121
0.00112481
0.00115283
0.00121711
0.00118965
0.00122426
0.00127135
0.00132323
0.00130186
0.00112924
0.00117055
0.00119671
0.00119934
0.00116612
0.00109985
0.0010082
0.000894807
0.000765776
0.000619001
0.000465838
0.000298867
0.000148553
0.000965158
0.000918264
0.000963589
0.000944849
0.000996714
0.000986294
0.0010132
0.00107399
0.00104537
0.00107327
0.00112108
0.00117647
0.00114952
0.00102178
0.00107459
0.00110772
0.0011099
0.00108281
0.00102542
0.000944043
0.000845595
0.000726578
0.000594688
0.000451661
0.000294347
0.000153662
0.000859697
0.000811553
0.000852463
0.000826927
0.000875484
0.000857729
0.000883977
0.000939749
0.000912589
0.000934811
0.000976746
0.00103009
0.00100737
0.000927961
0.000985517
0.00101933
0.00102947
0.00100419
0.000953985
0.000886848
0.000802874
0.000702067
0.00057959
0.000443813
0.000299887
0.000168632
0.000765945
0.000708704
0.000747785
0.000718986
0.00076313
0.000740098
0.000768738
0.000817872
0.000790186
0.000806949
0.000846977
0.000895095
0.000874823
0.000837467
0.000898455
0.00093927
0.000945028
0.000923902
0.000887427
0.000838576
0.000771488
0.000680362
0.000569039
0.000445273
0.000309815
0.000179549
0.000675797
0.00061487
0.000653604
0.000618018
0.000660126
0.000634264
0.000658626
0.000704472
0.000678425
0.000687109
0.000733441
0.000771887
0.000753052
0.000753902
0.000817357
0.000853361
0.00086024
0.000847061
0.000826518
0.000797564
0.000746325
0.000667346
0.000563317
0.000449456
0.000315472
0.000202984
0.000592031
0.000526109
0.000565606
0.000525739
0.000565224
0.000535983
0.000556119
0.000598553
0.0005821
0.000582386
0.000623304
0.000661029
0.000639684
0.000673469
0.000737569
0.000772963
0.000774889
0.000773469
0.000775103
0.000767104
0.000729526
0.000655703
0.000563944
0.000455729
0.000338781
0.000230767
0.000513648
0.000442319
0.000484386
0.000439342
0.000477423
0.000445988
0.000463955
0.000502953
0.00048747
0.000489597
0.000516064
0.000557298
0.000542858
0.000599578
0.000660689
0.000679748
0.000687244
0.000707579
0.000738449
0.000746536
0.000714801
0.000653566
0.000565657
0.000475631
0.000361457
0.000265068
0.000441613
0.000360299
0.000411266
0.000359202
0.000395736
0.000361554
0.000378708
0.000413528
0.000401492
0.00040049
0.000424357
0.000460539
0.000448506
0.000524131
0.000569825
0.000581905
0.000603095
0.000659371
0.000717055
0.000731702
0.000704813
0.000649918
0.00057999
0.000490281
0.000394819
0.000306434
0.000367117
0.000283967
0.000339626
0.000280985
0.000319088
0.000283607
0.000301131
0.000332995
0.000319047
0.000316187
0.000339684
0.000371045
0.000363067
0.000446222
0.000473905
0.000476758
0.000535798
0.000636955
0.000703391
0.000717546
0.00069639
0.000652037
0.000589818
0.000520407
0.000430006
0.000351449
0.000300007
0.000210659
0.000269408
0.000205488
0.000248863
0.000208012
0.00022181
0.000255219
0.000246679
0.000239172
0.00026318
0.000291802
0.000279868
0.000362675
0.000348983
0.000378297
0.000509581
0.000630956
0.000690454
0.000702796
0.000688094
0.000657014
0.000610233
0.000550881
0.000473418
0.000409096
0.00022823
0.000134169
0.000200906
0.00013354
0.000178899
0.000135631
0.000150965
0.000182508
0.000175729
0.000163543
0.000178536
0.000211875
0.000217822
0.000245279
0.000213561
0.000336764
0.000517009
0.00062889
0.000669042
0.000681593
0.000683259
0.000667649
0.000638013
0.000591753
0.000526019
0.000475143
0.000147275
5.29938e-05
0.000133418
6.32872e-05
0.000108164
6.33847e-05
8.44052e-05
0.000116253
0.00010262
9.2792e-05
0.000108804
0.000139278
0.000146705
9.07612e-05
0.000118219
0.000366458
0.00054283
0.000604537
0.000635306
0.000663421
0.000679938
0.000685571
0.000669255
0.000639436
0.000586966
0.000551603
4.2128e-05
-3.67155e-05
7.03649e-05
-1.71253e-05
3.6782e-05
-7.94189e-06
1.49853e-05
4.62046e-05
3.39361e-05
2.10975e-05
4.49511e-05
7.53279e-05
7.21191e-05
-0.000124927
0.000168783
0.000444141
0.00052061
0.000556349
0.000601264
0.000645917
0.000685365
0.000707331
0.000711358
0.000691311
0.000660553
0.000638857
-0.000269186
-0.00013318
3.0629e-06
-9.51077e-05
-3.27981e-05
-8.67842e-05
-5.631e-05
-2.24013e-05
-3.92737e-05
-4.75929e-05
-2.45471e-05
4.76792e-06
6.35672e-06
-0.000123318
0.000346339
0.000426789
0.000452268
0.000504421
0.000568421
0.000634763
0.000691639
0.000734614
0.000751973
0.000765895
0.000742272
0.000738551
-0.000492804
-0.00045969
-0.000110138
-0.000156894
-0.000108186
-0.000174773
-0.000132036
-9.14041e-05
-0.000120317
-0.00012231
-9.34267e-05
-6.42472e-05
-6.59523e-05
0.000253144
0.000336365
0.000333739
0.000382919
0.000455795
0.000538847
0.00062442
0.000703375
0.000767116
0.000817721
0.000834998
0.000838565
0.000851605
0.000126898
-0.000359424
-0.000799305
-0.000189728
-8.99062e-05
-0.00028094
-0.000205022
-0.000173717
-0.000216308
-0.000207955
-0.000171948
-0.000138786
-0.000141178
0.000248506
0.00019859
0.000243987
0.000318846
0.000408519
0.000511202
0.000619022
0.00072315
0.000814003
0.000876814
0.000930814
0.00094221
0.000972252
0.00011362
-3.01774e-05
-1.17164e-05
-0.000462996
-0.00141502
-7.44861e-07
-7.84307e-05
-0.000201538
-0.000279528
-0.000318392
-0.000264541
-0.000218391
-0.000241311
5.5749e-05
9.34485e-05
0.000169871
0.000258851
0.000364733
0.000484769
0.000616087
0.000746981
0.000862268
0.000961625
0.00102048
0.00106236
0.00111902
-8.48336e-05
-0.000130665
-0.00015823
-0.000171913
-1.25768e-07
-5.4583e-05
0.000563539
0.000378221
-0.00226607
-0.000137305
-0.000275516
-0.000303666
-0.000339273
-5.98161e-05
2.11252e-05
0.000103322
0.000199959
0.000317402
0.00046058
0.000617807
0.000778188
0.000925079
0.00104366
0.00113986
0.00120028
0.00127882
-0.000196015
-0.000213532
-0.000221071
-0.000246086
-0.000250872
-0.000283198
-0.000321403
-0.00016197
-0.000201247
8.81598e-05
-0.00448562
-0.000126411
-4.95577e-05
3.15806e-05
0.000136619
0.000273148
0.000439324
0.000626278
0.000818008
0.000997929
0.00114519
0.00126934
0.00135267
0.00145355
-0.000264574
-0.000291603
-0.000287048
-0.000298102
-0.000275095
-0.00029213
-0.000305736
-0.000311314
-0.000292445
-0.000194687
-0.000126272
-4.00965e-05
7.66156e-05
0.00022901
0.00041903
0.000637679
0.000865067
0.00107489
0.00126452
0.00141087
0.00152311
0.00165335
-0.000334411
-0.000365397
-0.000353872
-0.000370969
-0.00034025
-0.000341631
-0.000343456
-0.000310969
-0.000315745
-0.000270128
-0.000202803
-0.00011374
1.07013e-05
0.000182225
0.000401981
0.000655927
0.00091894
0.00117297
0.00139171
0.00157583
0.00171874
0.00187111
-0.000403745
-0.000439502
-0.000419174
-0.000442379
-0.000409619
-0.000423903
-0.000413133
-0.000370285
-0.000385948
-0.000349558
-0.00028358
-0.000191741
-5.76812e-05
0.000136849
0.000389137
0.00067955
0.000986474
0.00128594
0.0015392
0.00176378
0.00192624
0.00210664
-0.000481059
-0.000511631
-0.000486802
-0.000510818
-0.000480298
-0.000494307
-0.000484739
-0.000444582
-0.000459002
-0.000427663
-0.000365847
-0.000275267
-0.000127255
9.28061e-05
0.00037845
0.00071403
0.00107044
0.00140422
0.00171019
0.00195457
0.00216838
0.00236578
-0.00055649
-0.000586153
-0.000560129
-0.000581228
-0.000546338
-0.000567306
-0.00054942
-0.000515716
-0.000530378
-0.000511852
-0.000460437
-0.000366966
-0.000199702
4.75961e-05
0.000374213
0.00075531
0.00115374
0.00154098
0.00188577
0.00219124
0.00243492
0.00268769
-0.000636943
-0.000664306
-0.000632223
-0.000654224
-0.000617501
-0.000633755
-0.000620053
-0.000584414
-0.000598702
-0.000607563
-0.000564417
-0.000463432
-0.000276042
5.99044e-06
0.000373645
0.000802802
0.00125516
0.00169969
0.00209747
0.0024542
0.00275401
0.00303701
-0.000725249
-0.000739806
-0.000707681
-0.000728577
-0.000690675
-0.000706003
-0.000690008
-0.000648055
-0.000667279
-0.00071497
-0.000676683
-0.000560516
-0.000348827
-3.31534e-05
0.000378404
0.000861906
0.00137838
0.0018704
0.00234183
0.00273032
0.00328865
0.00126785
-0.000828021
-0.000821775
-0.000784035
-0.000801074
-0.000764949
-0.000777951
-0.000763584
-0.000725326
-0.000741
-0.00084075
-0.000797935
-0.000657927
-0.000422784
-7.3464e-05
0.000388141
0.000931468
0.00150321
0.00208216
0.00255903
0.00333576
0.00147888
-0.000955677
-0.000912743
-0.000868489
-0.000877774
-0.000840469
-0.000849593
-0.000835914
-0.000797922
-0.00081395
-0.000984422
-0.00090685
-0.000759163
-0.000503913
-0.000113179
0.000404876
0.00100753
0.00166385
0.00223937
0.00312233
0.00153871
-0.001097
-0.00111626
-0.000975501
-0.000943904
-0.000912697
-0.000931632
-0.000911138
-0.000874178
-0.000891686
-0.00110045
-0.00101771
-0.000868249
-0.000586304
-0.000147964
0.000425558
0.0011097
0.00176177
0.00272313
0.00139513
-0.00123532
-0.00114199
-0.00142766
-0.000921948
-0.000942639
-0.00101554
-0.000992226
-0.000951239
-0.000972212
-0.00120251
-0.00114483
-0.000987405
-0.000669176
-0.000182972
0.000466132
0.00115626
0.00215515
0.00112535
-0.00133107
-0.00131199
-0.00122464
-0.00140539
-0.00156082
-0.00212425
-0.00372156
0.00138568
-0.00113876
-0.00110146
-0.0010378
-0.00106582
-0.00133503
-0.00129057
-0.00111198
-0.000754503
-0.000204908
0.00046335
0.00144169
0.000770715
-0.00145709
-0.00141899
-0.0013612
-0.00135361
-0.00135556
-0.00133992
-0.00136446
-0.00138033
-0.00136397
-0.000963325
-0.000688579
-0.00149398
-0.00144568
-0.00123808
-0.000834429
-0.000251296
0.000630878
0.000360598
-0.00161434
-0.00155317
-0.00147972
-0.00145349
-0.0014315
-0.00139747
-0.00137769
-0.0013826
-0.00137677
-0.00137725
-0.00137572
-0.00143915
-0.00144588
-0.0012809
-0.00166811
-0.00160637
-0.00136877
-0.000917534
-0.000204257
-6.51362e-05
-0.00179387
-0.00170834
-0.00162338
-0.00159495
-0.00155616
-0.00151918
-0.00148992
-0.00147308
-0.00144402
-0.00141866
-0.00139722
-0.00140059
-0.00139508
-0.00140716
-0.00141521
-0.00185231
-0.00177713
-0.00148141
-0.000987094
-0.000471956
-0.00198954
-0.00188546
-0.00178663
-0.00174924
-0.00170434
-0.00166724
-0.00162363
-0.00160858
-0.00157554
-0.00153595
-0.00150633
-0.00148597
-0.00145311
-0.00143449
-0.00140892
-0.00205613
-0.00191773
-0.00165496
-0.000826692
-0.0022179
-0.0020807
-0.00196979
-0.00191916
-0.00187395
-0.00182942
-0.00178085
-0.00175955
-0.00172036
-0.00168242
-0.00163922
-0.00161973
-0.00158557
-0.00154987
-0.00151742
-0.00223536
-0.0021775
-0.00110771
-0.00244997
-0.0023156
-0.0021823
-0.00211065
-0.0020631
-0.00201181
-0.00195853
-0.00192711
-0.00188511
-0.00183864
-0.00179767
-0.00176797
-0.00173041
-0.00169115
-0.00165181
-0.00257058
-0.00131247
-0.00290235
-0.00254351
-0.00241385
-0.00233723
-0.00228066
-0.00221803
-0.00216135
-0.00211667
-0.00206662
-0.00201893
-0.00197268
-0.00193317
-0.00189599
-0.00184366
-0.00180597
-0.00145244
-0.00167616
-0.00301845
-0.0027219
-0.00257574
-0.00251211
-0.00245624
-0.00239206
-0.00233471
-0.00227901
-0.0022219
-0.00216852
-0.00211539
-0.00207227
-0.00202288
-0.00197786
-0.00159142
-0.00319531
-0.00298056
-0.00286886
-0.00274055
-0.00264913
-0.00257562
-0.00251109
-0.0024527
-0.00239374
-0.00233113
-0.00227748
-0.00222129
-0.00216756
-0.00136582
-0.00330378
-0.00335134
-0.00310124
-0.00295139
-0.00284827
-0.00274293
-0.00265351
-0.00256021
-0.00250139
-0.00244311
-0.00238708
-0.00133874
-0.003628
-0.00336562
-0.00306716
-0.00293344
-0.00282066
-0.0027211
-0.00263284
-0.00164361
-0.00392877
-0.00334488
-0.00305121
-0.0705779
-0.0708095
-0.069816
-0.0713753
-0.0708441
-0.0700116
-0.0692242
-0.0720264
-0.0715155
-0.0706952
-0.0701522
-0.0693904
-0.0685906
-0.0721925
-0.0726876
-0.0720456
-0.0703751
-0.0693682
-0.0695183
-0.0687307
-0.067917
-0.0728571
-0.0733742
-0.0730846
-0.0734207
-0.0707735
-0.0677624
-0.0680675
-0.0688561
-0.0680561
-0.0672886
-0.073551
-0.0741379
-0.0758566
-0.0734894
-0.0747974
-0.0711524
-0.0681642
-0.0651521
-0.0667505
-0.0681986
-0.0675506
-0.0674145
-0.0666521
-0.0742656
-0.0748534
-0.0786738
-0.0762857
-0.0762107
-0.0738659
-0.0749818
-0.0714941
-0.0685279
-0.0655729
-0.0654603
-0.0626266
-0.0641878
-0.0669085
-0.0662505
-0.0667937
-0.0660021
-0.0755059
-0.0815716
-0.0791225
-0.0790535
-0.0776139
-0.0766631
-0.0763538
-0.0756591
-0.0742061
-0.071795
-0.0688563
-0.0659414
-0.063036
-0.0655965
-0.0649589
-0.0629369
-0.060163
-0.0616698
-0.0643328
-0.0636678
-0.0661366
-0.0653268
-0.0761823
-0.0845676
-0.0820346
-0.0819615
-0.0804944
-0.079514
-0.0792031
-0.0784946
-0.0778028
-0.077075
-0.0769977
-0.0745107
-0.0720641
-0.0691503
-0.0662692
-0.0634031
-0.0605673
-0.0654636
-0.0648291
-0.062999
-0.0622726
-0.0604522
-0.0577646
-0.0592361
-0.0613367
-0.0642115
-0.0635493
-0.0647036
-0.0769484
-0.0876282
-0.0850291
-0.0849475
-0.0834483
-0.0824374
-0.0821195
-0.0813958
-0.0806893
-0.0799449
-0.0798584
-0.0790283
-0.0783391
-0.0776746
-0.0773002
-0.0747834
-0.0722979
-0.0694091
-0.0665598
-0.0637277
-0.0609255
-0.0581554
-0.0628693
-0.0622044
-0.0602007
-0.0580462
-0.0554126
-0.0568471
-0.0590087
-0.0609474
-0.061596
-0.0640726
-0.0634257
-0.0906431
-0.0880565
-0.0880186
-0.0864669
-0.08543
-0.0851125
-0.0843739
-0.0836482
-0.0828853
-0.0827883
-0.0819428
-0.0812387
-0.0805603
-0.0798161
-0.0801658
-0.0775774
-0.0750252
-0.0724941
-0.0696337
-0.0668152
-0.0640163
-0.0612414
-0.0585012
-0.0557836
-0.0627726
-0.0622081
-0.0603283
-0.0597262
-0.0578108
-0.055679
-0.0530896
-0.0545052
-0.0566209
-0.0585386
-0.0591435
-0.0938593
-0.0911136
-0.091057
-0.0895028
-0.0884572
-0.0881818
-0.0874144
-0.0866609
-0.0858909
-0.0857797
-0.0849375
-0.0842171
-0.0835207
-0.0827568
-0.083102
-0.0804439
-0.0778261
-0.0752329
-0.0726468
-0.0698211
-0.0670319
-0.0642699
-0.0615248
-0.0588101
-0.0561255
-0.0534572
-0.0579178
-0.0573264
-0.0554336
-0.0533509
-0.0508511
-0.052205
-0.0542791
-0.0561569
-0.0567531
-0.0969249
-0.0943654
-0.0943115
-0.0926965
-0.0915446
-0.0911614
-0.0904453
-0.0897346
-0.0889662
-0.0888159
-0.0879765
-0.0872417
-0.0865372
-0.0857662
-0.0860924
-0.0833833
-0.0806949
-0.0780422
-0.0753998
-0.0727454
-0.0699612
-0.0672096
-0.0644854
-0.0617751
-0.0590894
-0.0564357
-0.0538025
-0.0512126
-0.0555417
-0.0549472
-0.0531745
-0.0510966
-0.048618
-0.0499703
-0.0520087
-0.0537565
-0.054362
-0.0976382
-0.097622
-0.0959036
-0.0989643
-0.0997965
-0.0947808
-0.0944662
-0.0936843
-0.0929344
-0.0920675
-0.0919214
-0.0894379
-0.0887723
-0.0891376
-0.0863776
-0.0836378
-0.0809188
-0.0782193
-0.0755133
-0.0727845
-0.0700436
-0.0673366
-0.0646586
-0.0619908
-0.059338
-0.0567144
-0.0541159
-0.0515503
-0.0489968
-0.0531592
-0.0527887
-0.0508655
-0.048862
-0.046431
-0.0477647
-0.0497387
-0.0515141
-0.0520732
-0.100996
-0.0981027
-0.0993809
-0.0978084
-0.0969872
-0.0961802
-0.0953187
-0.101291
-0.101158
-0.0951412
-0.092257
-0.0894316
-0.0866398
-0.0838665
-0.0811067
-0.0783463
-0.0755689
-0.0727647
-0.0700652
-0.0674054
-0.064777
-0.0621576
-0.0595493
-0.0569585
-0.0543927
-0.0518575
-0.0493355
-0.0468111
-0.0526816
-0.0509614
-0.0504044
-0.0486387
-0.0466806
-0.0443
-0.0456043
-0.0475486
-0.0493066
-0.0498632
-0.0513726
-0.0518736
-0.101519
-0.0984585
-0.100259
-0.100569
-0.0995592
-0.0986789
-0.10317
-0.101306
-0.102926
-0.0954795
-0.0925654
-0.0897086
-0.0868781
-0.0840645
-0.0812483
-0.0784193
-0.0755666
-0.072692
-0.0700268
-0.0674115
-0.064833
-0.0622687
-0.0597119
-0.0571658
-0.0546349
-0.0521298
-0.0496389
-0.0471494
-0.0446737
-0.0508295
-0.0502837
-0.0487472
-0.048198
-0.0464674
-0.0445457
-0.0422159
-0.0434878
-0.0453962
-0.0471172
-0.0476658
-0.0491841
-0.0497377
-0.101879
-0.098804
-0.101237
-0.100395
-0.10227
-0.103167
-0.0957997
-0.0928566
-0.0899641
-0.087091
-0.0842216
-0.0813392
-0.0784361
-0.0755138
-0.0725733
-0.0699354
-0.067355
-0.0648216
-0.0623144
-0.0598165
-0.0573233
-0.0548387
-0.0523678
-0.0499093
-0.0474514
-0.0450071
-0.0425814
-0.0486204
-0.0480769
-0.0465667
-0.046028
-0.0443351
-0.0424527
-0.0401754
-0.0414113
-0.0432823
-0.0449687
-0.045506
-0.0469927
-0.0475368
-0.102228
-0.0991282
-0.102125
-0.101089
-0.103011
-0.0960993
-0.0931305
-0.0901942
-0.0872667
-0.0843309
-0.081377
-0.0784037
-0.0754146
-0.0724138
-0.0697978
-0.0672444
-0.0647459
-0.06229
-0.0598514
-0.0574184
-0.054988
-0.0525624
-0.0501423
-0.0477201
-0.0453051
-0.0429081
-0.0405274
-0.0464389
-0.0459062
-0.0444295
-0.0439013
-0.0422407
-0.0403979
-0.0381624
-0.0393727
-0.0412054
-0.0428614
-0.0433886
-0.0448442
-0.0453775
-0.102558
-0.0994368
-0.101966
-0.102837
-0.0963847
-0.0933797
-0.0903895
-0.0873957
-0.0843891
-0.0813655
-0.0783251
-0.0752745
-0.0722252
-0.0696206
-0.067087
-0.064615
-0.0621964
-0.0598113
-0.0574415
-0.0550744
-0.0527046
-0.0503319
-0.0479519
-0.0455707
-0.0432
-0.0408461
-0.0385005
-0.0443021
-0.0437798
-0.0423326
-0.041815
-0.0401817
-0.038375
-0.0361868
-0.0373712
-0.0391637
-0.0407945
-0.0413107
-0.0427381
-0.0432615
-0.102871
-0.099734
-0.0966513
-0.0935952
-0.0905413
-0.0874761
-0.0844
-0.0813079
-0.0782049
-0.0751027
-0.0720122
-0.0694149
-0.0668906
-0.0644371
-0.0620457
-0.0597016
-0.0573884
-0.0550864
-0.0527824
-0.050469
-0.0481404
-0.0458016
-0.0434626
-0.0411349
-0.0388186
-0.0365199
-0.0422071
-0.0416955
-0.0402753
-0.0397667
-0.0381641
-0.0363925
-0.0342571
-0.0354097
-0.0371923
-0.0387605
-0.0392694
-0.0406726
-0.0411852
-0.103175
-0.100014
-0.0968867
-0.0937685
-0.090645
-0.0875107
-0.0843654
-0.0812085
-0.0780515
-0.0749045
-0.0717949
-0.0691874
-0.0666674
-0.0642212
-0.0618477
-0.0595332
-0.0572624
-0.0550195
-0.0527825
-0.0505363
-0.048273
-0.045987
-0.0436904
-0.0413937
-0.0391096
-0.036839
-0.0345919
-0.0401523
-0.0396479
-0.0382442
-0.0377378
-0.0362243
-0.0344508
-0.032344
-0.0334822
-0.0352206
-0.0367777
-0.0372508
-0.0386379
-0.0391456
-0.103469
-0.100267
-0.0970821
-0.093895
-0.0907026
-0.0874997
-0.084288
-0.0810751
-0.0778696
-0.0746985
-0.0716
-0.0689597
-0.0664255
-0.0639796
-0.0616119
-0.0593159
-0.0570759
-0.0548772
-0.0527007
-0.0505252
-0.048335
-0.0461155
-0.0438736
-0.0416209
-0.0393706
-0.037132
-0.0349077
-0.0326878
-0.0381148
-0.0375964
-0.0363387
-0.0357786
-0.0342416
-0.0325293
-0.0304809
-0.0315748
-0.0332735
-0.0348092
-0.0353022
-0.0365652
-0.0370729
-0.103742
-0.100484
-0.0972321
-0.0939761
-0.0907145
-0.0874453
-0.0841758
-0.0809115
-0.077678
-0.0745126
-0.071461
-0.068759
-0.0661858
-0.063721
-0.0613516
-0.0590611
-0.0568403
-0.0546731
-0.052543
-0.0504318
-0.0483151
-0.0461728
-0.0439995
-0.0418045
-0.0395978
-0.0373938
-0.0351976
-0.0330052
-0.0308204
-0.0363551
-0.0356086
-0.0343259
-0.033842
-0.0323231
-0.0306348
-0.0286635
-0.0296735
-0.0313744
-0.032894
-0.0333754
-0.0346871
-0.0351548
-0.10398
-0.100657
-0.0973369
-0.0940115
-0.0906826
-0.0873546
-0.0840316
-0.0807354
-0.0775032
-0.0743777
-0.0714101
-0.0686162
-0.0659776
-0.0634677
-0.0610763
-0.0587825
-0.056567
-0.0544197
-0.0523227
-0.0502603
-0.0482091
-0.0461459
-0.0440534
-0.0419298
-0.0397785
-0.037618
-0.0354566
-0.0332943
-0.0311336
-0.029013
-0.0363145
-0.0354583
-0.0342146
-0.0337383
-0.0324156
-0.0319385
-0.0304326
-0.0287038
-0.0268648
-0.0275743
-0.0294901
-0.0309985
-0.0314755
-0.0327915
-0.0332693
-0.0345733
-0.0350261
-0.104177
-0.100787
-0.0973957
-0.0940025
-0.0906135
-0.0872308
-0.083873
-0.0805743
-0.077377
-0.0743274
-0.0714666
-0.0685651
-0.065833
-0.0632491
-0.0608082
-0.0584908
-0.0562711
-0.0541288
-0.0520519
-0.0500236
-0.0480235
-0.0460318
-0.0440205
-0.0419786
-0.0399003
-0.0377982
-0.0356798
-0.0335539
-0.031422
-0.0293076
-0.0272241
-0.0340984
-0.0336296
-0.0323147
-0.0318396
-0.0305228
-0.0300521
-0.028577
-0.0263029
-0.0251208
-0.0276341
-0.0291296
-0.0295921
-0.0308962
-0.0313713
-0.0326791
-0.0331515
-0.104331
-0.10087
-0.0974095
-0.0939549
-0.0905091
-0.087091
-0.0837263
-0.0804593
-0.0773351
-0.074385
-0.0716298
-0.0686252
-0.0657816
-0.0630956
-0.0605774
-0.0582094
-0.0559641
-0.0538165
-0.0517442
-0.0497365
-0.0477729
-0.0458342
-0.0438966
-0.0419386
-0.0399453
-0.0379141
-0.0358549
-0.0337748
-0.0316793
-0.0295889
-0.0275152
-0.0254617
-0.0321969
-0.0317286
-0.030422
-0.0299498
-0.0286778
-0.028274
-0.026661
-0.0247089
-0.0257646
-0.0234054
-0.0275084
-0.0290126
-0.0294838
-0.0307825
-0.0312523
-0.104437
-0.100907
-0.0973833
-0.0938707
-0.0903859
-0.0869606
-0.083624
-0.0804276
-0.0774017
-0.0745533
-0.0718794
-0.0687951
-0.0658416
-0.063039
-0.0604152
-0.0579682
-0.05567
-0.0534945
-0.0514158
-0.0494126
-0.0474705
-0.0455696
-0.0436887
-0.0418065
-0.0398994
-0.0379529
-0.0359686
-0.0339482
-0.0318994
-0.0298416
-0.0277896
-0.0257539
-0.0237338
-0.0303043
-0.0298395
-0.0285256
-0.0279309
-0.026751
-0.0263058
-0.0249181
-0.0230309
-0.0240558
-0.0258689
-0.0254188
-0.0217049
-0.0276476
-0.0271966
-0.0289118
-0.0293698
-0.104496
-0.100902
-0.0973183
-0.0937653
-0.0902695
-0.0868711
-0.0836027
-0.0805048
-0.0775824
-0.0748139
-0.072177
-0.0690534
-0.0660116
-0.0630947
-0.0603523
-0.0577988
-0.055419
-0.0531875
-0.0510803
-0.0490694
-0.0471317
-0.0452529
-0.0434119
-0.0415883
-0.0397593
-0.0379008
-0.0360028
-0.0340578
-0.0320725
-0.0300602
-0.0280372
-0.0260248
-0.0240244
-0.0220251
-0.0284604
-0.0280335
-0.0249752
-0.0245531
-0.0231982
-0.0213708
-0.0223416
-0.0241404
-0.0236975
-0.0200337
-0.104512
-0.100857
-0.0972294
-0.0936627
-0.0901904
-0.0868585
-0.0836892
-0.0806973
-0.0778621
-0.0751354
-0.072472
-0.0693645
-0.0662684
-0.0632572
-0.0604013
-0.0577286
-0.0552421
-0.0529275
-0.0507637
-0.0487211
-0.0467747
-0.0449004
-0.0430829
-0.0413002
-0.0395313
-0.0377527
-0.0359427
-0.0340867
-0.0321801
-0.0302281
-0.0282515
-0.0262691
-0.0242903
-0.0223192
-0.0203494
-0.0232524
-0.022839
-0.0214811
-0.0197209
-0.0206767
-0.0224315
-0.0219907
-0.0183952
-0.104486
-0.100785
-0.0971398
-0.093594
-0.0901864
-0.0869509
-0.0838913
-0.0809904
-0.0782094
-0.0754895
-0.0727581
-0.0696947
-0.0665747
-0.0635018
-0.0605552
-0.0577725
-0.0551697
-0.0527467
-0.0504972
-0.0483939
-0.0464148
-0.0445306
-0.0427173
-0.0409586
-0.0392319
-0.0375152
-0.0357868
-0.0340219
-0.0322056
-0.0303339
-0.0284166
-0.0264766
-0.0245284
-0.0225853
-0.0206449
-0.0187114
-0.0215283
-0.0210855
-0.019905
-0.0180493
-0.0189824
-0.0206495
-0.0202009
-0.016766
-0.10443
-0.100709
-0.0970789
-0.0935948
-0.0902852
-0.0871564
-0.0841907
-0.0813483
-0.0785858
-0.0758582
-0.070023
-0.0722685
-0.0736492
-0.0668927
-0.0637926
-0.060792
-0.0579251
-0.0552137
-0.0526717
-0.0503127
-0.0481208
-0.0460792
-0.0441605
-0.0423363
-0.0405814
-0.0388792
-0.0372062
-0.0355411
-0.0338587
-0.0321358
-0.0303562
-0.0285202
-0.0266402
-0.0247329
-0.0228233
-0.0209117
-0.0190035
-0.017087
-0.0200602
-0.0193794
-0.0181691
-0.01641
-0.0173536
-0.0190145
-0.0186201
-0.0151599
-0.104366
-0.100657
-0.0970849
-0.0936935
-0.0904935
-0.0874578
-0.0845497
-0.0817205
-0.0789378
-0.0752883
-0.0768582
-0.0671824
-0.0694878
-0.0709149
-0.0724407
-0.0736695
-0.0640915
-0.0610784
-0.0581609
-0.0553651
-0.0527141
-0.0502374
-0.0479328
-0.0458013
-0.0438184
-0.0419564
-0.0401894
-0.0384911
-0.0368431
-0.0352224
-0.033605
-0.0319673
-0.0302827
-0.0285395
-0.0267377
-0.0248944
-0.0230272
-0.0211483
-0.0192679
-0.0173794
-0.0154821
-0.0200831
-0.0192428
-0.0182299
-0.0178243
-0.0165498
-0.0148101
-0.0157451
-0.0174303
-0.0170188
-0.0189082
-0.0185284
-0.0135825
-0.104323
-0.100665
-0.0971881
-0.0939036
-0.0907968
-0.0878187
-0.0849203
-0.0820563
-0.0783491
-0.0799388
-0.0754909
-0.0769724
-0.064368
-0.0666519
-0.0680443
-0.0695708
-0.0710409
-0.0722536
-0.0730385
-0.0744497
-0.073259
-0.0613765
-0.058446
-0.0555996
-0.0528664
-0.0502805
-0.0478567
-0.0456131
-0.043537
-0.0416072
-0.0398018
-0.0380898
-0.0364451
-0.0348495
-0.0332782
-0.0317067
-0.0301095
-0.0284636
-0.0267552
-0.0249901
-0.0231835
-0.0213475
-0.0195008
-0.0176429
-0.0157744
-0.0139031
-0.0181174
-0.0177184
-0.0166116
-0.0162107
-0.0149515
-0.0132361
-0.0141552
-0.0158171
-0.01541
-0.0173338
-0.0169218
-0.012028
-0.104336
-0.100767
-0.0973993
-0.0942115
-0.0911617
-0.0881934
-0.0852607
-0.0814724
-0.0830909
-0.0784817
-0.0800435
-0.0752215
-0.0759496
-0.0774145
-0.0766341
-0.061654
-0.0638817
-0.0652419
-0.066749
-0.0681445
-0.0693084
-0.0700087
-0.0714614
-0.0707435
-0.0721897
-0.0729618
-0.072663
-0.0587423
-0.0558821
-0.0531004
-0.0504316
-0.0479018
-0.0455385
-0.0433471
-0.0413231
-0.0394481
-0.0376946
-0.036035
-0.0344429
-0.0328974
-0.0313725
-0.0298449
-0.0282871
-0.0266765
-0.0250043
-0.0232732
-0.0214969
-0.019695
-0.0178728
-0.0160361
-0.014192
-0.0123487
-0.0164959
-0.0161003
-0.0150067
-0.0146114
-0.0133711
-0.0116812
-0.0125846
-0.0142219
-0.0138206
-0.0157164
-0.0153088
-0.0104954
-0.104438
-0.100977
-0.0977085
-0.0945832
-0.0915441
-0.0885442
-0.0846725
-0.086321
-0.0816146
-0.0832107
-0.0781918
-0.0789764
-0.0805078
-0.079722
-0.0590173
-0.0611846
-0.0625167
-0.0639893
-0.065356
-0.0664912
-0.0671868
-0.0685753
-0.0678775
-0.0693541
-0.0700538
-0.0714785
-0.0707706
-0.0561739
-0.0533798
-0.0506637
-0.0480547
-0.0455837
-0.0432738
-0.0411342
-0.0391615
-0.0373361
-0.0356331
-0.0340255
-0.0324827
-0.0309848
-0.0295055
-0.0280173
-0.0264977
-0.0249224
-0.0232822
-0.0215833
-0.0198396
-0.018064
-0.0162628
-0.0144494
-0.0126345
-0.0108171
-0.0148899
-0.0145
-0.0134227
-0.0130326
-0.0118093
-0.0101438
-0.0110319
-0.0126479
-0.0122516
-0.0141207
-0.013719
-0.0089811
-0.104648
-0.10129
-0.0980857
-0.0949754
-0.0919067
-0.0879462
-0.0896291
-0.0848192
-0.0864485
-0.081317
-0.0821154
-0.0836823
-0.0828808
-0.0564445
-0.058555
-0.0598585
-0.0612922
-0.0626291
-0.0637318
-0.0644157
-0.0657774
-0.0650885
-0.0665383
-0.06723
-0.0686239
-0.0679259
-0.0536678
-0.05094
-0.0482858
-0.045736
-0.0433211
-0.0410624
-0.0389732
-0.037049
-0.0352716
-0.0336185
-0.0320582
-0.0305635
-0.0291118
-0.0276738
-0.0262254
-0.0247394
-0.0231964
-0.0215895
-0.0199231
-0.018204
-0.016446
-0.0146676
-0.0128832
-0.0110977
-0.00930326
-0.0133067
-0.0129217
-0.0118579
-0.0114731
-0.0102634
-0.00862155
-0.00949319
-0.011092
-0.0107001
-0.0125468
-0.0121498
-0.00748191
-0.10496
-0.101671
-0.098487
-0.0953502
-0.0912974
-0.0930176
-0.0880966
-0.0897627
-0.0845136
-0.0853289
-0.0869308
-0.0861118
-0.0539336
-0.0559898
-0.0572642
-0.0586602
-0.059966
-0.061038
-0.0617068
-0.0630375
-0.0623625
-0.063776
-0.0644542