/*--------------------------------*- C++ -*----------------------------------*\
| =========                 |                                                 |
| \\      /  F ield         | OpenFOAM: The Open Source CFD Toolbox           |
|  \\    /   O peration     | Version:  v1912                                 |
|   \\  /    A nd           | Website:  www.openfoam.com                      |
|    \\/     M anipulation  |                                                 |
\*---------------------------------------------------------------------------*/
FoamFile
{
    version     2.0;
    format      ascii;
    class       volVectorField;
    location    "210";
    object      U;
}
// * * * * * * * * * * * * * * * * * * * * * * * * * * * * * * * * * * * * * //

dimensions      [0 1 -1 0 0 0 0];


internalField   nonuniform List<vector> 
3673
(
(0.0769099 0.026003 -7.04258e-22)
(0.230868 0.07653 7.3456e-25)
(0.0763957 0.0258312 0)
(0.382445 0.124332 0)
(0.22942 0.076056 -7.34888e-25)
(0.0759075 0.0256667 0)
(0.526616 0.16798 0)
(0.380148 0.123594 0)
(0.228003 0.0755884 0)
(0.0754211 0.0255057 -5.27706e-22)
(0.656708 0.205633 0)
(0.523603 0.167021 0)
(0.377885 0.122864 0)
(0.226601 0.0751313 0)
(0.0749471 0.0253473 5.2449e-22)
(0.765092 0.235228 0)
(0.653039 0.204469 5.66391e-25)
(0.520597 0.166068 0)
(0.375662 0.122154 0)
(0.225238 0.0746825 -5.06334e-22)
(0.0744755 0.0251893 0)
(0.844323 0.25489 0)
(0.760847 0.233879 2.97072e-22)
(0.649414 0.203328 -5.65865e-25)
(0.517638 0.165131 0)
(0.37345 0.121438 0)
(0.223867 0.0742275 0)
(0.0740018 0.0250326 0)
(0.888145 0.263204 -2.96482e-22)
(0.839519 0.253355 -2.78556e-22)
(0.756646 0.232556 0)
(0.645795 0.202191 2.70277e-22)
(0.514689 0.164194 0)
(0.371251 0.120727 -4.51173e-25)
(0.222497 0.0737768 0)
(0.0735354 0.0248777 -7.37316e-22)
(0.892325 0.259446 5.57641e-24)
(0.882725 0.261465 5.33012e-25)
(0.834746 0.251849 0)
(0.752463 0.231248 1.57397e-23)
(0.642204 0.201064 0)
(0.51173 0.163256 0)
(0.369049 0.120016 4.51122e-25)
(0.22114 0.0733284 3.74862e-22)
(0.0730652 0.0247208 0)
(0.85535 0.243774 2.97943e-22)
(0.886203 0.257484 2.74751e-22)
(0.877334 0.259763 -2.66205e-22)
(0.830001 0.250368 -2.45103e-22)
(0.748268 0.229942 -4.49956e-25)
(0.638586 0.199931 0)
(0.508769 0.162316 0)
(0.366848 0.119303 -3.82342e-25)
(0.219761 0.0728737 0)
(0.0725994 0.0245648 0)
(0.77895 0.21735 6.03037e-25)
(0.84845 0.241575 -2.80926e-22)
(0.880098 0.255564 2.65213e-22)
(0.871977 0.258098 2.51427e-22)
(0.825248 0.248895 0)
(0.744073 0.228636 4.49673e-25)
(0.634951 0.19879 0)
(0.5058 0.161371 0)
(0.364647 0.11859 1.08553e-24)
(0.218406 0.0724247 0)
(0.0721376 0.0244081 0)
(0.668125 0.182288 -3.64656e-24)
(0.771245 0.214919 -2.65927e-22)
(0.84154 0.23943 -2.61375e-22)
(0.874059 0.25371 -2.19646e-24)
(0.866653 0.256459 9.50514e-25)
(0.820497 0.247423 -2.24533e-22)
(0.739846 0.227319 0)
(0.631306 0.197643 0)
(0.502832 0.160423 0)
(0.362423 0.117866 -1.02674e-24)
(0.217058 0.0719772 0)
(0.0716775 0.0242508 0)
(0.530585 0.141375 2.71589e-24)
(0.659631 0.179649 3.33818e-23)
(0.763432 0.212545 2.79077e-22)
(0.834766 0.237398 -5.16282e-22)
(0.868135 0.251909 1.921e-24)
(0.861363 0.254829 2.17141e-22)
(0.815732 0.245946 0)
(0.735591 0.225991 0)
(0.627636 0.196486 -3.82398e-22)
(0.499842 0.159467 0)
(0.360235 0.117155 3.46704e-22)
(0.21572 0.071529 3.19501e-22)
(0.0712274 0.0241025 0)
(0.375765 0.0976025 0)
(0.521281 0.138595 2.98164e-22)
(0.650786 0.177024 2.64185e-22)
(0.755903 0.210369 2.7515e-22)
(0.828255 0.235459 -2.44084e-22)
(0.862327 0.250137 -1.67979e-24)
(0.856093 0.253207 0)
(0.810945 0.244465 -7.30881e-25)
(0.731331 0.224664 3.48348e-22)
(0.623973 0.195333 0)
(0.496875 0.158517 -2.94214e-22)
(0.358065 0.116443 -2.60177e-22)
(0.214392 0.0710863 0)
(0.070771 0.0239519 0)
(0.365514 0.0948216 -6.00655e-23)
(0.250407 0.0639258 -2.19013e-24)
(0.253648 0.0648193 -1.42411e-22)
(0.51097 0.135642 -3.10234e-22)
(0.642499 0.174742 2.23924e-24)
(0.748938 0.208352 2.56183e-22)
(0.822034 0.23359 -1.70772e-24)
(0.856625 0.248399 1.68169e-24)
(0.850845 0.251594 1.46022e-24)
(0.806163 0.242986 1.41502e-24)
(0.727054 0.22333 -1.00735e-24)
(0.620302 0.194171 0)
(0.493914 0.157563 0)
(0.355896 0.115731 2.94559e-22)
(0.213079 0.0706482 0)
(0.0703242 0.0238015 0)
(0.351871 0.0912046 6.80635e-23)
(0.238053 0.0606398 9.95465e-23)
(0.245427 0.0627927 0)
(0.16705 0.0421358 2.23979e-24)
(0.169284 0.0426302 1.02758e-22)
(0.256008 0.0652993 0)
(0.501902 0.133222 -5.43101e-26)
(0.635312 0.172724 4.02998e-24)
(0.742503 0.206452 2.29182e-22)
(0.816037 0.231785 3.29834e-24)
(0.851011 0.246691 1.90346e-22)
(0.845626 0.249992 -1.82648e-22)
(0.801377 0.241505 -1.00465e-24)
(0.72279 0.221995 3.20945e-25)
(0.61665 0.193013 3.11352e-22)
(0.490994 0.156622 -2.50375e-22)
(0.353766 0.115031 -2.72392e-22)
(0.211767 0.0702105 -2.41639e-22)
(0.0698877 0.0236551 0)
(0.341783 0.0884255 4.85928e-24)
(0.2198 0.0561633 -2.46789e-22)
(0.228036 0.0578359 7.95317e-23)
(0.155328 0.0391591 0)
(0.1633 0.0412387 2.38777e-23)
(0.103495 0.0258865 -3.88225e-23)
(0.104313 0.0260691 8.02311e-23)
(0.105275 0.0262676 3.30424e-25)
(0.170708 0.0429593 0)
(0.104876 0.0261593 4.1164e-23)
(0.494931 0.13127 2.87666e-22)
(0.62906 0.17091 -2.56233e-22)
(0.736498 0.204677 2.07121e-22)
(0.810244 0.23005 -1.99804e-22)
(0.845487 0.245014 4.1742e-24)
(0.840439 0.248404 0)
(0.79661 0.24003 3.2012e-25)
(0.718537 0.220666 -2.83118e-22)
(0.613023 0.191862 2.91266e-22)
(0.488081 0.15568 2.31547e-22)
(0.351666 0.114341 1.96413e-22)
(0.210497 0.0697848 -2.2151e-22)
(0.0694594 0.0235113 -2.47441e-22)
(0.335941 0.0866173 -3.31413e-22)
(0.211837 0.0537174 1.87599e-24)
(0.214652 0.0546048 0)
(0.130994 0.0330802 1.14463e-22)
(0.14112 0.0352098 -6.75405e-23)
(0.090908 0.022451 2.40192e-24)
(0.0968937 0.0244747 -1.9283e-24)
(0.102302 0.0256978 0)
(0.100307 0.0251769 -1.77821e-25)
(0.0606281 0.0150567 5.41359e-25)
(0.0610856 0.0151421 -3.67936e-23)
(0.105643 0.0263449 -3.30506e-25)
(0.0615776 0.0152487 3.6527e-23)
(0.105938 0.0264235 -4.39266e-23)
(0.0613523 0.0151984 0)
(0.489406 0.129688 -2.45418e-22)
(0.62344 0.169283 -2.30237e-22)
(0.730817 0.20301 0)
(0.80462 0.228371 3.64962e-22)
(0.840047 0.243368 -6.85613e-25)
(0.835291 0.246827 0)
(0.791868 0.238562 1.51105e-22)
(0.714316 0.219341 -2.64882e-22)
(0.609448 0.190722 -2.44155e-25)
(0.48524 0.154758 2.55636e-22)
(0.349581 0.113649 1.80435e-22)
(0.209251 0.0693659 -6.93112e-23)
(0.0690352 0.0233693 0)
(0.332026 0.0855358 2.90393e-22)
(0.208554 0.052714 -1.69758e-24)
(0.20984 0.0530761 -1.87853e-24)
(0.125351 0.0312848 1.61145e-24)
(0.127012 0.0318293 -2.75122e-23)
(0.0621176 0.0156733 3.61476e-23)
(0.064755 0.0163794 -3.96128e-23)
(0.0798587 0.0188038 -6.64036e-24)
(0.0701703 0.0179105 5.87781e-25)
(0.0516558 0.0121054 2.22918e-24)
(0.0562375 0.014072 0)
(0.0599329 0.0149313 0)
(0.0586792 0.0146888 -3.37937e-23)
(0.0195735 0.00481614 -2.03534e-25)
(0.0196927 0.00483985 2.03638e-25)
(0.061766 0.0152993 -3.72363e-23)
(0.0198341 0.00487345 -4.47838e-25)
(0.0619312 0.0153337 4.02121e-23)
(0.0197852 0.00486603 -2.74314e-23)
(0.4847 0.128372 -2.24977e-22)
(0.61828 0.167807 1.97677e-22)
(0.725406 0.201429 -3.69874e-22)
(0.799154 0.226742 -1.66895e-22)
(0.834681 0.241745 -1.55599e-22)
(0.830184 0.245263 -2.94224e-22)
(0.787158 0.237102 -2.80957e-25)
(0.710139 0.218027 0)
(0.605914 0.189589 -2.24677e-22)
(0.482427 0.153837 0)
(0.34756 0.112978 1.65561e-22)
(0.208027 0.0689534 0)
(0.0686215 0.0232305 8.11569e-23)
(0.328868 0.0847543 3.13962e-22)
(0.20653 0.0522581 1.60392e-24)
(0.207373 0.0524517 1.0079e-22)
(0.123645 0.0308203 2.34067e-23)
(0.12432 0.0310051 2.24859e-23)
(0.059966 0.0148378 -3.17462e-23)
(0.0601614 0.0149019 -5.22202e-25)
(0.0610057 0.0151809 3.65871e-23)
(0.0604351 0.014997 -3.31803e-23)
(0.0200912 0.00506847 -2.91109e-23)
(0.0214936 0.00561612 4.20126e-23)
(0.0346592 0.00597974 -1.88498e-24)
(0.0237878 0.00626844 -1.03368e-23)
(0.0168985 0.00433447 -3.63846e-23)
(0.0181051 0.00463445 -2.48757e-23)
(0.0193855 0.00478247 -2.45239e-23)
(0.0190109 0.00472447 -2.47471e-23)
(0.0198836 0.00488917 2.10479e-25)
(0.0199302 0.00489741 3.00181e-23)
(0.480511 0.127223 -2.27327e-22)
(0.613455 0.166435 1.973e-22)
(0.720202 0.19991 3.42224e-22)
(0.793792 0.225148 7.47692e-24)
(0.82938 0.240144 1.48228e-22)
(0.825125 0.243714 0)
(0.782501 0.235654 0)
(0.706022 0.216724 0)
(0.602436 0.18847 2.37794e-22)
(0.479679 0.152937 2.23981e-22)
(0.345583 0.112319 0)
(0.206832 0.0685487 0)
(0.0682143 0.0230944 0)
(0.326095 0.0840687 5.50135e-23)
(0.204827 0.0518739 -8.72967e-23)
(0.205562 0.0520527 -5.34797e-24)
(0.122589 0.0305898 0)
(0.123073 0.0307031 -9.35371e-23)
(0.0594818 0.0147064 2.92107e-23)
(0.0595503 0.0147358 -3.04697e-23)
(0.0597778 0.0147895 3.04274e-23)
(0.0596604 0.014765 -3.14016e-23)
(0.0192423 0.00473015 4.48231e-23)
(0.019302 0.00475197 -2.25626e-23)
(0.0195935 0.00485119 0)
(0.019387 0.00477632 4.7314e-23)
(0.0096144 0.00153162 2.51456e-24)
(0.476664 0.126175 -1.63165e-24)
(0.608862 0.165135 -3.47929e-22)
(0.715151 0.198444 1.64502e-22)
(0.788535 0.22359 0)
(0.824144 0.238565 0)
(0.820118 0.242179 0)
(0.7779 0.234219 1.23534e-22)
(0.701961 0.215437 -9.8528e-23)
(0.599034 0.187368 -1.97008e-22)
(0.476996 0.152052 -2.10173e-22)
(0.343648 0.111671 1.92728e-22)
(0.205659 0.0681536 0)
(0.0678196 0.0229639 -6.76174e-23)
(0.323535 0.0834189 -4.92021e-23)
(0.203257 0.0514932 -8.4346e-23)
(0.203933 0.0516704 -8.17069e-23)
(0.121659 0.0303839 9.97084e-23)
(0.122115 0.030493 -8.44648e-23)
(0.0590927 0.0146194 0)
(0.0591607 0.0146488 -2.68138e-23)
(0.05935 0.0146843 2.79718e-23)
(0.0592644 0.0146679 2.75664e-23)
(0.0191077 0.00469342 -2.2724e-25)
(0.0191233 0.0047045 -2.10396e-23)
(0.0191958 0.00471626 -2.637e-25)
(0.019146 0.00470856 2.13484e-23)
(0.473019 0.125188 1.92391e-22)
(0.604449 0.163895 -1.53806e-22)
(0.710217 0.197015 -1.41149e-22)
(0.783357 0.222056 1.32653e-22)
(0.818971 0.237004 1.2636e-22)
(0.815167 0.240657 8.96653e-25)
(0.773361 0.232798 -1.10524e-22)
(0.697983 0.214164 0)
(0.59571 0.186285 1.8483e-22)
(0.474393 0.151189 -1.63426e-22)
(0.341774 0.111041 -1.54373e-25)
(0.204529 0.0677706 0)
(0.067429 0.0228371 6.34803e-23)
(0.321102 0.0827955 8.23353e-25)
(0.201759 0.0511208 6.84222e-24)
(0.202413 0.0512952 7.21761e-23)
(0.120752 0.0301643 1.66376e-23)
(0.121192 0.0302772 9.26415e-23)
(0.0586852 0.0145263 -2.40884e-23)
(0.0587584 0.0145574 -2.37222e-23)
(0.0589544 0.0145961 8.17373e-25)
(0.0588672 0.0145777 -1.00336e-24)
(0.018993 0.00466579 1.83439e-23)
(0.0190124 0.00467756 1.95552e-25)
(0.0190748 0.00468559 -2.02032e-23)
(0.0190322 0.00467965 -2.86469e-25)
(0.469526 0.124242 1.76091e-22)
(0.60016 0.162687 1.56577e-22)
(0.705379 0.195615 -1.41897e-22)
(0.778247 0.220544 -1.30861e-22)
(0.81385 0.235456 -3.56966e-24)
(0.810274 0.239148 1.12291e-22)
(0.768896 0.23139 0)
(0.694093 0.21291 0)
(0.592483 0.185223 -1.9968e-22)
(0.47184 0.150335 0)
(0.339929 0.110417 1.54278e-25)
(0.203406 0.0673907 -1.53369e-22)
(0.0670302 0.0227018 -6.47515e-23)
(0.318754 0.0821844 3.80124e-23)
(0.2003 0.0507531 -6.0389e-23)
(0.200931 0.050923 6.36114e-23)
(0.11987 0.0299486 6.40145e-23)
(0.120308 0.0300603 -5.17619e-23)
(0.0582667 0.0144238 0)
(0.0583397 0.014454 -4.23465e-23)
(0.0585407 0.0144984 0)
(0.0584492 0.0144779 -1.01592e-24)
(0.0188642 0.00463521 1.23487e-25)
(0.0188881 0.00464764 1.70718e-23)
(0.0189573 0.00465778 3.55569e-23)
(0.0189127 0.00465093 -2.84066e-25)
(0.466145 0.123323 2.79777e-25)
(0.595961 0.161508 -1.27299e-22)
(0.700623 0.19424 1.19794e-22)
(0.773186 0.219044 -1.21533e-22)
(0.808771 0.233917 -1.12511e-22)
(0.805447 0.237649 -1.04346e-22)
(0.764519 0.229997 1.89391e-25)
(0.690292 0.211672 1.81717e-22)
(0.589327 0.184176 0)
(0.469367 0.149504 0)
(0.338142 0.109812 1.24503e-22)
(0.202288 0.0670102 0)
(0.0666434 0.0225711 -6.44738e-26)
(0.31647 0.0815869 -3.18371e-23)
(0.198874 0.0503865 -5.29638e-23)
(0.199496 0.0505569 -6.15608e-23)
(0.119007 0.0297355 4.36054e-23)
(0.119437 0.0298442 -8.59415e-23)
(0.0578471 0.014322 0)
(0.0579245 0.0143523 -1.80589e-23)
(0.0581247 0.0143964 -1.91205e-23)
(0.0580348 0.0143763 -1.9643e-23)
(0.0187287 0.00460162 1.40914e-23)
(0.0187551 0.00461402 2.59381e-25)
(0.0188247 0.00462618 1.53639e-23)
(0.0187795 0.00461918 -3.05805e-23)
(0.462854 0.122429 2.24147e-23)
(0.591835 0.160347 -1.33185e-22)
(0.695903 0.192876 -2.1904e-25)
(0.768166 0.217557 0)
(0.803744 0.232387 1.04203e-22)
(0.800683 0.236158 0)
(0.760231 0.228618 9.36602e-23)
(0.686593 0.210458 -1.81125e-25)
(0.586254 0.183152 0)
(0.466936 0.148685 0)
(0.336353 0.109207 0)
(0.20119 0.0666368 -1.5215e-22)
(0.0662817 0.0224453 0)
(0.314239 0.0809999 1.15402e-22)
(0.197481 0.0500315 5.25321e-23)
(0.198097 0.050198 0)
(0.118165 0.0295221 3.84864e-23)
(0.118585 0.0296302 -1.16794e-23)
(0.0574394 0.014221 0)
(0.0575104 0.0142514 1.64678e-23)
(0.0577074 0.0142936 1.03849e-24)
(0.0576167 0.0142737 3.30643e-23)
(0.0185928 0.00456865 1.21997e-23)
(0.0186203 0.00458095 2.64013e-25)
(0.0186899 0.00459318 2.73137e-23)
(0.0186447 0.00458625 0)
(0.45961 0.121543 0)
(0.587759 0.159201 0)
(0.69121 0.191518 1.8567e-26)
(0.76315 0.216063 1.88353e-25)
(0.798744 0.230852 3.8793e-25)
(0.79599 0.234673 -9.10369e-23)
(0.756032 0.227254 0)
(0.682977 0.20926 0)
(0.58325 0.182145 8.80677e-23)
(0.464553 0.147881 0)
(0.334592 0.108606 1.23416e-22)
(0.200096 0.0662552 1.24644e-25)
(0.0658867 0.0223104 -1.08433e-22)
(0.312062 0.0804248 0)
(0.196126 0.0496822 6.57089e-24)
(0.196726 0.0498459 0)
(0.117338 0.029315 -9.16581e-24)
(0.117752 0.0294212 -1.99794e-23)
(0.0570331 0.01412 0)
(0.057105 0.0141491 8.09678e-25)
(0.0573002 0.0141927 1.51177e-23)
(0.0572121 0.014172 1.37473e-23)
(0.0184632 0.00453656 0)
(0.0184876 0.00454947 0)
(0.0185543 0.00456001 2.36763e-23)
(0.0185077 0.00455332 -2.30576e-23)
(0.456417 0.120672 -9.89118e-23)
(0.583684 0.158053 0)
(0.686506 0.190154 9.13615e-23)
(0.758137 0.214563 -1.88278e-25)
(0.793776 0.229311 0)
(0.791363 0.233189 0)
(0.751921 0.225903 0)
(0.679447 0.208084 -7.99933e-23)
(0.580312 0.181155 0)
(0.462171 0.147072 0)
(0.332845 0.108004 0)
(0.198988 0.0658709 1.00901e-22)
(0.065473 0.0221744 -2.08035e-22)
(0.309894 0.0798513 1.14298e-22)
(0.194791 0.0493394 3.32594e-23)
(0.195388 0.0495006 1.4748e-25)
(0.116531 0.0291114 2.90866e-23)
(0.116936 0.0292148 -8.29968e-24)
(0.0566329 0.0140225 0)
(0.0567066 0.0140485 1.20478e-23)
(0.0568947 0.0140923 8.8313e-25)
(0.0568234 0.0140761 9.76746e-25)
(0.0183302 0.00450399 0)
(0.0183559 0.00451633 2.53499e-25)
(0.0184237 0.00452827 0)
(0.01838 0.00452104 -2.7752e-25)
(0.453221 0.119798 -5.71881e-25)
(0.579587 0.156902 -1.01418e-22)
(0.681754 0.188776 0)
(0.753085 0.213037 0)
(0.788821 0.227752 2.97289e-25)
(0.786799 0.231706 0)
(0.747889 0.224568 0)
(0.675978 0.206922 1.579e-25)
(0.577389 0.180169 -8.40541e-23)
(0.459817 0.146268 0)
(0.331058 0.10739 1.68963e-22)
(0.197862 0.0654845 1.10506e-22)
(0.0650593 0.0220333 1.01742e-22)
(0.307761 0.0792863 -1.8928e-23)
(0.193477 0.0490025 2.77267e-23)
(0.194069 0.0491616 -3.04337e-23)
(0.115739 0.0289121 -3.12908e-23)
(0.11614 0.0290131 -1.39433e-23)
(0.0562481 0.0139267 0)
(0.0563196 0.0139517 1.01234e-23)
(0.0565017 0.013994 0)
(0.0564343 0.0139786 9.71904e-25)
(0.0181982 0.00447303 0)
(0.0182372 0.00448615 -7.86702e-24)
(0.0182909 0.00449624 2.96162e-25)
(0.0182507 0.00448938 8.54778e-24)
(0.450001 0.11892 3.66745e-25)
(0.575426 0.155731 0)
(0.676895 0.187353 5.64911e-25)
(0.747971 0.211469 0)
(0.783866 0.226168 -6.7506e-23)
(0.782289 0.230225 7.13314e-23)
(0.743923 0.22325 -1.51643e-25)
(0.672552 0.205774 7.64376e-23)
(0.574475 0.179181 -3.14429e-25)
(0.457444 0.145455 -1.42972e-22)
(0.329273 0.106771 0)
(0.196695 0.0650758 0)
(0.0646406 0.0218921 -2.61829e-22)
(0.305622 0.0787163 -1.58949e-23)
(0.192177 0.0486634 -1.04227e-25)
(0.192764 0.0488234 5.61575e-23)
(0.11496 0.028718 -3.12957e-23)
(0.115355 0.0288152 1.72936e-23)
(0.0558666 0.0138324 0)
(0.0559376 0.0138566 0)
(0.0561176 0.0138976 9.13086e-25)
(0.0560492 0.0138826 9.53362e-25)
(0.0180762 0.00444311 6.12297e-24)
(0.0181137 0.00445575 5.21196e-26)
(0.0181657 0.0044651 7.02334e-24)
(0.0181266 0.00445833 1.39245e-23)
(0.446707 0.118019 0)
(0.571099 0.154511 0)
(0.671872 0.185866 -6.10247e-23)
(0.74275 0.209837 1.27184e-22)
(0.778899 0.224558 -7.15213e-23)
(0.777823 0.228756 -6.89553e-23)
(0.740001 0.221947 -1.45438e-25)
(0.669132 0.204625 7.93877e-23)
(0.571552 0.178187 -8.23748e-23)
(0.455046 0.144625 0)
(0.327442 0.10613 0)
(0.195523 0.0646644 1.34562e-22)
(0.0642186 0.0217467 1.34887e-22)
(0.303431 0.0781327 0)
(0.190901 0.048328 -1.68381e-23)
(0.191492 0.0484919 2.57539e-23)
(0.114201 0.0285242 -3.92014e-24)
(0.114589 0.0286219 -2.81659e-23)
(0.0554974 0.0137422 0)
(0.055564 0.0137649 6.69572e-24)
(0.0557421 0.0138045 7.39168e-24)
(0.0556747 0.013789 7.20579e-24)
(0.0179518 0.00441274 4.84678e-24)
(0.0179897 0.00442518 0)
(0.018042 0.00443441 1.16544e-23)
(0.0180012 0.00442754 5.83581e-24)
(0.443263 0.117085 -5.51207e-23)
(0.566515 0.153213 6.73757e-23)
(0.666596 0.184269 -6.17467e-23)
(0.737381 0.208127 0)
(0.773927 0.222941 6.9262e-23)
(0.773396 0.227304 0)
(0.7361 0.220655 -1.48486e-22)
(0.665714 0.203475 7.44504e-23)
(0.568605 0.177175 -8.25524e-23)
(0.452604 0.143774 0)
(0.325576 0.105471 0)
(0.194325 0.0642384 2.00011e-22)
(0.0637646 0.0215947 2.68756e-23)
(0.301166 0.0775315 5.36624e-23)
(0.189611 0.0479918 1.18996e-23)
(0.190219 0.0481593 0)
(0.113452 0.028333 1.05724e-23)
(0.113828 0.0284269 -6.56858e-24)
(0.0551307 0.0136492 0)
(0.0552007 0.013671 5.04612e-24)
(0.0553708 0.0137136 5.81614e-24)
(0.0553056 0.0136999 -4.87957e-24)
(0.0178354 0.0043842 3.70278e-24)
(0.017869 0.00439609 3.25948e-26)
(0.0179218 0.00440508 4.47374e-24)
(0.0178808 0.00439755 4.26309e-24)
(0.439511 0.11607 7.02709e-25)
(0.561489 0.151761 -3.78842e-23)
(0.660945 0.182515 0)
(0.731888 0.206367 4.48254e-23)
(0.768966 0.221341 -1.26202e-25)
(0.769008 0.225878 1.38467e-22)
(0.732209 0.219364 5.80375e-25)
(0.662267 0.202305 1.51556e-22)
(0.565621 0.176143 0)
(0.45011 0.142897 -3.40727e-25)
(0.323668 0.104794 -1.61676e-22)
(0.193086 0.0638001 4.89874e-23)
(0.0632859 0.0214337 2.05891e-22)
(0.298677 0.0768755 2.28252e-24)
(0.18831 0.0476478 0)
(0.188922 0.0478183 2.68572e-23)
(0.112714 0.0281448 -1.09644e-23)
(0.113085 0.0282367 2.08006e-24)
(0.0547734 0.0135613 3.3225e-24)
(0.0548456 0.0135824 3.53311e-24)
(0.055009 0.0136216 9.67842e-25)
(0.0549472 0.0136089 4.15396e-24)
(0.0177141 0.00435265 2.51986e-24)
(0.0177509 0.00436411 0)
(0.0177978 0.0043763 3.22938e-24)
(0.017768 0.00437303 2.09723e-25)
(0.435194 0.1149 4.32438e-23)
(0.555816 0.150075 -1.65103e-25)
(0.654934 0.180617 -4.81653e-23)
(0.726334 0.204612 4.67087e-23)
(0.764066 0.219789 -1.26335e-22)
(0.764664 0.224467 0)
(0.728312 0.218062 -7.10521e-23)
(0.65879 0.201115 0)
(0.562573 0.17508 0)
(0.447575 0.141999 3.40648e-25)
(0.321722 0.104099 -3.84987e-22)
(0.191795 0.0633415 -1.91056e-22)
(0.0627989 0.0212679 -2.09477e-22)
(0.295696 0.0761193 0)
(0.18687 0.0472725 7.72919e-24)
(0.187595 0.0474704 -1.14178e-23)
(0.111964 0.0279519 -7.63986e-25)
(0.112352 0.0280483 -8.95903e-24)
(0.0544335 0.0134751 1.81427e-24)
(0.0544998 0.0134964 -2.10485e-24)
(0.054659 0.0135351 0)
(0.0545994 0.0135204 -2.67684e-24)
(0.0175975 0.00432489 1.42306e-24)
(0.0176355 0.00433569 0)
(0.017679 0.00434665 4.60645e-24)
(0.0176511 0.0043439 -2.26424e-24)
(0.429914 0.113433 0)
(0.549277 0.148048 1.64638e-25)
(0.648687 0.178684 -5.05585e-23)
(0.720886 0.202948 6.19231e-23)
(0.759283 0.218281 -9.5213e-25)
(0.760362 0.223059 0)
(0.724405 0.216745 -1.08367e-24)
(0.655265 0.199898 5.9375e-25)
(0.559483 0.173991 0)
(0.444994 0.141076 3.68131e-22)
(0.319741 0.103384 3.96994e-25)
(0.190458 0.0628601 4.4317e-25)
(0.0623004 0.0211006 2.40899e-23)
(0.291674 0.0750832 3.19086e-24)
(0.185049 0.0468317 4.55475e-27)
(0.186039 0.0470828 -4.55145e-27)
(0.111173 0.0277491 -6.97222e-25)
(0.111608 0.0278533 1.82558e-25)
(0.0540941 0.0133896 9.3428e-25)
(0.0541651 0.0134119 7.71992e-25)
(0.0543182 0.0134488 -1.39614e-24)
(0.0542614 0.0134357 0)
(0.0174924 0.00429804 0)
(0.0175247 0.00430895 6.95006e-25)
(0.017568 0.00432014 -1.15322e-24)
(0.0175403 0.00431582 -1.1158e-24)
(0.422924 0.111371 2.91085e-23)
(0.542103 0.14586 0)
(0.642612 0.176916 3.59977e-25)
(0.71569 0.201369 0)
(0.754634 0.216798 8.83763e-25)
(0.756094 0.221648 0)
(0.720476 0.21541 5.34571e-25)
(0.651704 0.198657 -5.93659e-25)
(0.556354 0.172876 2.74624e-24)
(0.442385 0.140129 3.76615e-25)
(0.317684 0.102635 0)
(0.189113 0.0623791 -2.47184e-22)
(0.0617882 0.020926 2.28925e-23)
(0.28464 0.07323 -3.38131e-23)
(0.181947 0.0461051 -5.23009e-24)
(0.183787 0.0465782 7.03449e-26)
(0.110219 0.0275193 -1.95014e-24)
(0.110771 0.0276404 1.47573e-24)
(0.0537597 0.0133071 0)
(0.0538315 0.0133288 9.0208e-25)
(0.0539841 0.0133635 5.99894e-26)
(0.0539285 0.0133494 -2.94523e-25)
(0.0173828 0.00427138 -1.17956e-24)
(0.0174189 0.00428283 -4.71431e-25)
(0.0174584 0.00429254 7.38118e-26)
(0.0174327 0.00428968 -9.85772e-26)
(0.414243 0.108795 -4.52846e-23)
(0.535243 0.143983 0)
(0.637065 0.175307 6.76996e-25)
(0.710787 0.199851 -4.16209e-23)
(0.750105 0.215336 -4.22295e-25)
(0.751857 0.220235 0)
(0.716535 0.214055 0)
(0.648106 0.197387 -2.29001e-22)
(0.553179 0.171729 -1.76247e-22)
(0.439706 0.13915 4.27996e-25)
(0.31561 0.101874 0)
(0.187742 0.0618774 -2.81393e-22)
(0.0612597 0.0207462 3.49511e-22)
(0.272437 0.0699024 2.28386e-23)
(0.174218 0.0440409 1.36646e-24)
(0.179109 0.0455545 6.96153e-24)
(0.108521 0.0271594 0)
(0.109573 0.0273657 -2.47388e-24)
(0.0533986 0.0132179 4.01377e-24)
(0.0534873 0.013243 2.49606e-24)
(0.0536416 0.0132759 0)
(0.0535907 0.0132615 8.41635e-25)
(0.017281 0.00424654 -1.90203e-24)
(0.0173144 0.00425723 -1.45103e-24)
(0.0173526 0.0042658 -1.00362e-24)
(0.0173265 0.00426237 0)
(0.406279 0.106731 -5.80774e-25)
(0.529481 0.142389 -3.73292e-23)
(0.632094 0.173811 1.38119e-23)
(0.706156 0.198394 -5.81615e-25)
(0.745686 0.213896 0)
(0.747651 0.218817 0)
(0.712585 0.212682 6.88004e-23)
(0.64449 0.196095 1.60082e-22)
(0.549966 0.170559 3.78272e-25)
(0.437007 0.138146 -4.27903e-25)
(0.313473 0.101079 -2.82856e-22)
(0.186346 0.0613659 -3.22445e-22)
(0.0607152 0.0205564 3.97921e-22)
(0.262552 0.0673652 6.54988e-25)
(0.155786 0.0396528 -1.4509e-23)
(0.165217 0.0413658 8.6529e-23)
(0.103388 0.0259403 -1.10713e-24)
(0.106893 0.0268332 -5.98147e-24)
(0.0528006 0.0130893 0)
(0.0530214 0.0131352 -4.92335e-24)
(0.0532646 0.0131872 -9.50193e-25)
(0.0531612 0.013157 -4.78895e-24)
(0.0171718 0.00422008 -6.20912e-24)
(0.0172125 0.00423128 -2.67594e-24)
(0.0172503 0.00423997 0)
(0.0172238 0.00423634 1.53464e-25)
(0.400549 0.10514 1.71993e-23)
(0.524713 0.140976 3.38433e-23)
(0.627562 0.172417 0)
(0.701733 0.196988 5.82471e-25)
(0.741364 0.212472 -3.43717e-23)
(0.743481 0.217395 -3.9516e-25)
(0.708635 0.211291 2.52258e-25)
(0.640847 0.194775 0)
(0.546726 0.169355 -3.7812e-25)
(0.43425 0.137111 4.81512e-22)
(0.311346 0.100277 2.84769e-25)
(0.184897 0.0608218 -3.65757e-22)
(0.0601296 0.020364 0)
(0.257686 0.0657632 3.35111e-23)
(0.147477 0.0371362 -7.18203e-24)
(0.150005 0.0379656 -4.66734e-26)
(0.07766 0.0200912 1.40099e-23)
(0.0919249 0.0225618 -3.59778e-23)
(0.0491282 0.0119866 -8.12803e-25)
(0.0511386 0.0128524 -5.18522e-26)
(0.0525257 0.0130483 3.91229e-26)
(0.052024 0.0129566 6.46164e-24)
(0.0170113 0.0041801 0)
(0.0170848 0.00419686 -4.39169e-25)
(0.0171471 0.004216 3.04862e-24)
(0.0171021 0.00420395 -1.84285e-25)
(0.396445 0.103918 2.17598e-24)
(0.520614 0.13974 2.45719e-24)
(0.623383 0.171126 -2.45101e-25)
(0.697494 0.19563 1.62333e-23)
(0.737141 0.211064 5.80859e-25)
(0.739349 0.215965 3.9534e-25)
(0.704693 0.209879 -5.04115e-25)
(0.637185 0.193425 0)
(0.543464 0.168126 -2.12892e-22)
(0.43147 0.136048 2.73251e-25)
(0.309133 0.0994331 -3.40859e-22)
(0.183381 0.0602634 0)
(0.0595196 0.0201597 -1.01357e-21)
(0.254979 0.064964 5.24457e-24)
(0.145179 0.0363158 -3.60211e-24)
(0.146015 0.0365624 1.46718e-23)
(0.0715684 0.0177284 6.99036e-24)
(0.0726992 0.0182813 -1.82055e-25)
(0.0183845 0.00494191 -2.10631e-24)
(0.0205759 0.00508178 2.30872e-24)
(0.0447744 0.0102245 -1.07126e-24)
(0.0301588 0.00506164 0)
(0.0157526 0.00401476 3.25129e-24)
(0.0164693 0.00411803 7.4211e-26)
(0.0169317 0.00416536 4.72836e-24)
(0.0167682 0.0041398 3.66475e-25)
(0.393129 0.102953 -2.75899e-24)
(0.51694 0.138642 6.79861e-24)
(0.619469 0.169911 1.79845e-23)
(0.693416 0.194306 0)
(0.732999 0.209662 -2.72395e-25)
(0.735257 0.214525 0)
(0.700761 0.208446 5.54682e-23)
(0.633521 0.192051 0)
(0.540178 0.166863 0)
(0.428655 0.134957 3.17103e-24)
(0.306886 0.0985685 0)
(0.181828 0.0596849 9.78403e-22)
(0.0589085 0.0199493 -5.69534e-22)
(0.252988 0.0644909 1.17625e-23)
(0.144066 0.0360954 1.22056e-25)
(0.14451 0.0361798 -1.27695e-23)
(0.0706544 0.017447 6.8709e-26)
(0.0710021 0.0175456 -1.38056e-23)
(0.0166988 0.00410681 4.8513e-24)
(0.0167695 0.00414127 5.48928e-24)
(0.0172517 0.00435619 -2.9178e-24)
(0.0168308 0.00420777 -3.47223e-24)
(0.0146694 0.00369419 -3.88459e-26)
(0.00830088 0.001284 -7.22448e-23)
(0.39031 0.102155 -7.56859e-24)
(0.513617 0.137646 1.91827e-23)
(0.615765 0.168746 0)
(0.689473 0.193009 0)
(0.728939 0.208266 -1.78754e-23)
(0.731205 0.213073 -5.36672e-23)
(0.696837 0.206988 2.57728e-25)
(0.629849 0.190645 0)
(0.536865 0.165568 2.49825e-22)
(0.425778 0.133824 -3.10123e-22)
(0.304578 0.0976703 -4.08233e-22)
(0.180228 0.0590793 0)
(0.0582443 0.0197277 -6.48049e-22)
(0.251285 0.0640867 -1.47895e-23)
(0.143201 0.03593 0)
(0.143563 0.0360082 -1.8455e-23)
(0.0702413 0.0173744 0)
(0.0704241 0.0174137 -5.12886e-24)
(0.0166349 0.00408526 -4.91864e-24)
(0.0166426 0.0040874 -5.22848e-24)
(0.0166773 0.00410064 0)
(0.016664 0.00409687 4.96319e-24)
(0.387799 0.101443 -1.84482e-23)
(0.510528 0.136715 2.55263e-25)
(0.612239 0.167624 -1.4e-23)
(0.685645 0.191728 2.05952e-23)
(0.724955 0.206869 -1.22447e-23)
(0.727196 0.211605 -1.62717e-25)
(0.692933 0.205505 -5.45078e-23)
(0.626179 0.189206 0)
(0.533506 0.164229 2.74104e-23)
(0.422865 0.132657 0)
(0.302196 0.0967326 0)
(0.17857 0.0584551 0)
(0.0575661 0.0195041 -7.38314e-22)
(0.24979 0.0637093 0)
(0.142408 0.0357454 0)
(0.142745 0.0358324 2.3282e-23)
(0.0698818 0.0173005 -6.9836e-24)
(0.0700631 0.0173478 0)
(0.0165853 0.00407663 0)
(0.0165871 0.00407778 -5.83373e-24)
(0.0166141 0.0040842 1.04129e-23)
(0.0166134 0.00408323 -4.15672e-26)
(0.385522 0.100795 -2.75614e-25)
(0.507611 0.135824 1.5567e-23)
(0.608845 0.166525 2.07512e-23)
(0.681918 0.190455 1.27629e-23)
(0.721039 0.205463 0)
(0.723229 0.210117 8.0207e-23)
(0.68905 0.203993 -5.4509e-23)
(0.622488 0.18773 3.1014e-22)
(0.530126 0.162854 2.68568e-25)
(0.419913 0.131456 -3.7392e-22)
(0.299769 0.0957672 0)
(0.17687 0.0578117 0)
(0.0568692 0.0192726 8.49006e-22)
(0.248418 0.0633496 3.08833e-25)
(0.141656 0.0355574 0)
(0.141969 0.0356424 0)
(0.0695193 0.0172151 -7.96532e-24)
(0.0697011 0.017265 1.02929e-25)
(0.0165082 0.00405606 -2.77847e-25)
(0.0165198 0.00406136 0)
(0.016555 0.00407279 6.29048e-24)
(0.0165491 0.00406861 6.55806e-24)
(0.383371 0.100174 4.60804e-25)
(0.504831 0.134963 -2.57206e-23)
(0.605577 0.165447 0)
(0.678294 0.189188 1.95062e-26)
(0.717193 0.204047 -2.75369e-23)
(0.719305 0.208607 5.29695e-23)
(0.685179 0.202449 -1.38499e-22)
(0.618788 0.186215 -9.43873e-23)
(0.526737 0.161444 3.27665e-22)
(0.416903 0.130209 0)
(0.297319 0.0947716 0)
(0.175085 0.0571282 -7.78673e-22)
(0.0561281 0.0190391 9.43271e-22)
(0.247116 0.0630002 -1.27731e-25)
(0.140943 0.0353735 1.39764e-25)
(0.141239 0.0354583 -1.39807e-25)
(0.0691758 0.0171319 0)
(0.0693432 0.0171762 0)
(0.0164269 0.00403707 0)
(0.016439 0.00404211 8.02984e-24)
(0.0164755 0.00405207 7.56339e-24)
(0.0164703 0.00404934 7.80988e-24)
(0.381341 0.0995821 -4.60595e-25)
(0.502183 0.134129 0)
(0.602413 0.164378 4.23371e-23)
(0.674756 0.187916 2.62862e-23)
(0.713417 0.202616 3.17619e-26)
(0.715423 0.20707 5.35985e-23)
(0.681326 0.200869 8.86235e-23)
(0.6151 0.184659 0)
(0.523306 0.159981 0)
(0.413862 0.128913 -4.54378e-22)
(0.294734 0.0937141 0)
(0.173221 0.0564391 0)
(0.0553426 0.0187589 1.07625e-21)
(0.245877 0.0626606 2.71939e-26)
(0.140251 0.0351949 -1.60311e-25)
(0.140549 0.0352815 1.60365e-25)
(0.0688327 0.0170474 0)
(0.069006 0.0170927 0)
(0.016357 0.00401913 0)
(0.0163589 0.00402282 -9.36715e-24)
(0.0163967 0.00403217 -8.78558e-24)
(0.0163887 0.00402935 9.03578e-24)
(0.379405 0.0990081 -8.71016e-23)
(0.499634 0.133306 -1.16358e-22)
(0.599356 0.163312 -2.84208e-23)
(0.671306 0.186635 0)
(0.709703 0.201164 1.39793e-26)
(0.711583 0.205503 0)
(0.677488 0.199246 0)
(0.61139 0.183053 0)
(0.51982 0.158459 3.98325e-22)
(0.410719 0.127563 0)
(0.29207 0.0926198 0)
(0.171254 0.0557307 -9.87414e-22)
(0.0547157 0.0183291 1.22182e-21)
(0.244695 0.0623364 1.0214e-22)
(0.139599 0.035021 -1.70609e-25)
(0.139875 0.0351033 3.6242e-25)
(0.0684996 0.0169643 0)
(0.0686667 0.0170114 0)
(0.0162732 0.00400049 1.08225e-23)
(0.0162874 0.0040051 -1.05072e-23)
(0.016324 0.00401396 -9.89464e-24)
(0.0163173 0.00401101 1.00585e-23)
(0.377568 0.0984553 8.09155e-23)
(0.497195 0.132493 -2.58619e-25)
(0.596397 0.162242 0)
(0.667937 0.18534 0)
(0.706052 0.19969 -1.74613e-23)
(0.707784 0.203901 -1.72305e-23)
(0.673667 0.197581 -6.15167e-23)
(0.607651 0.181394 0)
(0.516306 0.15689 -3.87472e-25)
(0.407488 0.126148 0)
(0.289344 0.0914888 0)
(0.169135 0.0548689 -1.12081e-21)
(0.0552144 0.0179743 1.42316e-21)
(0.243571 0.062037 2.37453e-25)
(0.138966 0.0348591 4.04072e-25)
(0.139222 0.0349322 -5.95783e-25)
(0.0681812 0.0168824 0)
(0.0683455 0.0169263 -1.22524e-23)
(0.0161992 0.00398097 1.20673e-23)
(0.0162092 0.0039863 -1.17924e-23)
(0.0162474 0.00399808 0)
(0.0162373 0.00399294 0)
(0.375816 0.0979159 1.16571e-22)
(0.494862 0.131679 9.79515e-23)
(0.593542 0.161164 0)
(0.66465 0.184033 1.81971e-23)
(0.702471 0.198192 1.73277e-23)
(0.704027 0.202261 4.4322e-23)
(0.669859 0.195867 0)
(0.603913 0.179679 0)
(0.512709 0.155247 4.1307e-22)
(0.40425 0.124676 0)
(0.286202 0.0902277 0)
(0.1692 0.0537729 6.1562e-23)
(0.0492228 0.0151375 -5.95452e-23)
(0.242509 0.0617689 -1.37336e-22)
(0.138347 0.0347186 0)
(0.138607 0.0347812 5.80006e-23)