/*--------------------------------*- C++ -*----------------------------------*\
| =========                 |                                                 |
| \\      /  F ield         | OpenFOAM: The Open Source CFD Toolbox           |
|  \\    /   O peration     | Version:  v1912                                 |
|   \\  /    A nd           | Website:  www.openfoam.com                      |
|    \\/     M anipulation  |                                                 |
\*---------------------------------------------------------------------------*/
FoamFile
{
    version     2.0;
    format      ascii;
    class       volScalarField;
    location    "300";
    object      p;
}
// * * * * * * * * * * * * * * * * * * * * * * * * * * * * * * * * * * * * * //

dimensions      [0 2 -2 0 0 0 0];


internalField   nonuniform List<scalar> 
3675
(
0.255678
0.253262
0.262143
0.248584
0.25919
0.280551
0.241953
0.253523
0.276074
0.313849
0.233774
0.245596
0.267639
0.306094
0.368117
0.224494
0.235981
0.256186
0.291864
0.352889
0.454863
0.214557
0.225272
0.242785
0.273317
0.326454
0.422376
0.564904
0.546244
0.204374
0.214017
0.228423
0.252734
0.2942
0.371603
0.512879
0.457687
0.663486
0.635175
0.194306
0.20269
0.21389
0.231921
0.261222
0.311538
0.400042
0.581432
0.521731
0.737
0.72301
0.661689
0.698917
0.184657
0.191676
0.199766
0.211977
0.230608
0.258091
0.288687
0.366494
0.26639
0.623992
0.555027
0.465833
0.77017
0.751532
0.651581
0.70413
0.175677
0.181283
0.186458
0.193495
0.203309
0.214966
0.2144
0.111777
0.188973
0.225269
0.0439909
0.62515
0.524735
0.274454
0.293907
0.167567
0.171751
0.174248
0.176787
0.179468
0.179892
0.163897
0.0691373
-0.295642
-0.237383
-0.0124338
-0.00446608
-0.237379
-0.216874
0.597692
0.394475
0.215415
0.160488
0.163264
0.163318
0.161991
0.158972
0.151275
0.126535
0.04642
-0.257139
-0.508563
-0.346135
-0.431921
-0.151327
-0.256059
0.154565
0.155963
0.153787
0.149139
0.141565
0.128055
0.0984702
0.0286852
-0.18277
-0.409269
-0.484794
-0.553745
-0.499205
-0.444536
-0.51912
0.149899
0.149956
0.145733
0.138203
0.126942
0.109242
0.0771826
0.0143429
-0.136005
-0.321912
-0.371354
-0.44474
-0.522942
-0.455856
-0.518282
0.146572
0.145328
0.13921
0.12913
0.114812
0.0939862
0.0606894
0.0035143
-0.109
-0.252688
-0.325593
-0.343674
-0.391791
-0.408561
-0.422243
-0.463117
-0.481403
0.14465
0.142147
0.134256
0.12187
0.104925
0.0816313
0.0476391
-0.00489099
-0.0936136
-0.207336
-0.283261
-0.319288
-0.328143
-0.357562
-0.371392
-0.395795
-0.439291
-0.426395
0.144188
0.140472
0.130906
0.116383
0.0970779
0.0716788
0.0371366
-0.0118078
-0.0850428
-0.177187
-0.24944
-0.291976
-0.316018
-0.314675
-0.331283
-0.340772
-0.361288
-0.379898
-0.403151
-0.399441
0.145233
0.140353
0.129195
0.112648
0.0911275
0.0637659
0.0285644
-0.017814
-0.080793
-0.157364
-0.223558
-0.267681
-0.297673
-0.3081
-0.304031
-0.314926
-0.321441
-0.3331
-0.343818
-0.35834
-0.366813
-0.387872
-0.377541
-0.404466
-0.392751
0.147821
0.141837
0.129166
0.11067
0.0869789
0.0576406
0.0215049
-0.0232773
-0.079465
-0.144982
-0.204864
-0.248502
-0.279953
-0.297154
-0.299835
-0.296081
-0.30389
-0.308597
-0.31626
-0.323237
-0.331479
-0.336593
-0.348704
-0.342089
-0.35911
-0.367324
-0.388082
-0.378074
0.151977
0.144963
0.130867
0.110476
0.0845941
0.0531373
0.0156682
-0.0284453
-0.0802644
-0.138026
-0.192226
-0.234326
-0.265663
-0.285819
-0.293519
-0.293261
-0.289566
-0.295792
-0.299527
-0.304973
-0.309873
-0.315351
-0.318703
-0.326228
-0.322146
-0.331991
-0.336927
-0.349156
-0.342673
0.157713
0.149762
0.134358
0.112131
0.08399
0.0501787
0.0108652
-0.033497
-0.0827608
-0.135184
-0.184562
-0.224541
-0.255008
-0.276156
-0.286803
-0.289547
-0.287587
-0.283633
-0.289147
-0.292442
-0.296712
-0.300487
-0.304465
-0.306852
-0.311994
-0.309237
-0.315779
-0.318998
-0.326545
-0.322575
0.165019
0.156257
0.139703
0.115729
0.085244
0.0487655
0.00698445
-0.0385669
-0.0867684
-0.135674
-0.181101
-0.218657
-0.247755
-0.268771
-0.280908
-0.285654
-0.285403
-0.282076
-0.27763
-0.283165
-0.286317
-0.289988
-0.293217
-0.296416
-0.298295
-0.302135
-0.300096
-0.304855
-0.30714
-0.312292
-0.309618
0.173853
0.164447
0.146975
0.121402
0.0884975
0.0489827
0.00398419
-0.0437638
-0.0922551
-0.139092
-0.181342
-0.216345
-0.243688
-0.263861
-0.276456
-0.282325
-0.283324
-0.280846
-0.276503
-0.271837
-0.277008
-0.280443
-0.28401
-0.28698
-0.28978
-0.291434
-0.294624
-0.292941
-0.296793
-0.298586
-0.302429
-0.300459
0.184132
0.174307
0.156244
0.12932
0.0939703
0.0510046
0.00188611
-0.0491885
-0.099334
-0.145326
-0.185026
-0.217392
-0.242643
-0.261444
-0.27374
-0.280035
-0.281743
-0.280005
-0.276019
-0.271352
-0.268481
-0.272483
-0.273548
-0.278091
-0.281257
-0.283761
-0.285382
-0.288266
-0.28671
-0.290154
-0.291723
-0.294918
-0.2933
0.195717
0.185764
0.167567
0.13969
0.101973
0.055122
0.000791815
-0.0549372
-0.108277
-0.154526
-0.192107
-0.221706
-0.244512
-0.261491
-0.27287
-0.279006
-0.28094
-0.279639
-0.276012
-0.271348
-0.26755
-0.26314
-0.267895
-0.270595
-0.273554
-0.273333
-0.278186
-0.279867
-0.282471
-0.280929
-0.28412
-0.285638
-0.288547
-0.287068
0.208393
0.198684
0.180974
0.152759
0.112928
0.0617606
0.000917218
-0.061095
-0.119569
-0.167137
-0.202768
-0.229307
-0.249258
-0.263974
-0.273899
-0.279342
-0.281064
-0.279858
-0.276428
-0.271732
-0.267132
-0.262396
-0.257219
-0.26234
-0.265005
-0.268361
-0.271312
-0.273806
-0.275185
-0.276172
-0.271492
-0.27921
-0.280144
-0.28266
-0.281258
0.221848
0.212846
0.196435
0.168786
0.127394
0.0715344
0.00263795
-0.067726
-0.133993
-0.183944
-0.217428
-0.240353
-0.256911
-0.268891
-0.276863
-0.281117
-0.282203
-0.280748
-0.277294
-0.272521
-0.267365
-0.262086
-0.256514
-0.251429
-0.256632
-0.259385
-0.262842
-0.265518
-0.26813
-0.269363
-0.272195
-0.27097
-0.274378
-0.278537
-0.279192
-0.269017
0.235665
0.227911
0.213833
0.188028
0.146048
0.0853515
0.00659151
-0.0748999
-0.152828
-0.206188
-0.236765
-0.255125
-0.267574
-0.276269
-0.281791
-0.284381
-0.284426
-0.282382
-0.27865
-0.273702
-0.268159
-0.262371
-0.256344
-0.250722
-0.244861
-0.250834
-0.253697
-0.257213
-0.259985
-0.262639
-0.263962
-0.266598
-0.265343
-0.268421
-0.269703
-0.272592
-0.271178
-0.274112
-0.278132
-0.265523
0.249308
0.243384
0.232886
0.210703
0.169621
0.104451
0.0139493
-0.082821
-0.178253
-0.235745
-0.26174
-0.274026
-0.28141
-0.286171
-0.288711
-0.289171
-0.287777
-0.284817
-0.280547
-0.275271
-0.269385
-0.263182
-0.256739
-0.25051
-0.244822
-0.239579
-0.240231
-0.247516
-0.25165
-0.254343
-0.256972
-0.258374
-0.261129
-0.25977
-0.262963
-0.264299
-0.266963
-0.265666
-0.268715
-0.269983
-0.272781
-0.271405
0.262153
0.258596
0.253015
0.236807
0.199057
0.13032
0.0267034
-0.0921311
-0.214088
-0.275505
-0.293649
-0.297575
-0.298639
-0.298682
-0.297656
-0.295508
-0.292287
-0.288093
-0.283028
-0.277243
-0.270968
-0.264397
-0.257605
-0.250871
-0.244541
-0.238815
-0.240127
-0.233275
-0.250384
-0.248402
-0.25129
-0.252699
-0.255466
-0.254064
-0.257284
-0.258682
-0.261471
-0.260095
-0.263273
-0.264582
-0.267264
-0.265966
0.273538
0.272721
0.273215
0.265705
0.235693
0.165862
0.0469213
-0.104715
-0.26683
-0.329835
-0.334235
-0.32642
-0.319529
-0.31391
-0.308657
-0.303401
-0.297965
-0.292229
-0.286122
-0.279642
-0.272877
-0.265924
-0.25882
-0.251711
-0.244866
-0.238493
-0.232705
-0.233847
-0.239137
-0.24282
-0.227607
-0.247456
-0.249176
-0.244819
-0.251667
-0.252967
-0.255774
-0.254363
-0.257573
-0.258939
-0.261756
-0.260389
0.282836
0.284869
0.292045
0.29578
0.279942
0.217844
0.0771947
-0.12537
-0.347414
-0.404435
-0.385671
-0.361342
-0.344436
-0.331984
-0.321739
-0.312844
-0.304805
-0.297231
-0.289844
-0.282486
-0.275108
-0.267713
-0.260288
-0.252881
-0.245656
-0.238803
-0.232488
-0.226919
-0.228438
-0.233286
-0.236138
-0.238708
-0.24051
-0.242206
-0.243824
-0.221952
-0.245668
-0.247578
-0.252675
-0.250295
-0.251848
-0.253169
-0.256028
-0.254627
0.289528
0.294232
0.307879
0.324208
0.328966
0.289757
0.131312
-0.160595
-0.471341
-0.505277
-0.449653
-0.402985
-0.373753
-0.353062
-0.336923
-0.323813
-0.31278
-0.303081
-0.29419
-0.285778
-0.277661
-0.269741
-0.26195
-0.254263
-0.246745
-0.239518
-0.232741
-0.226607
-0.221159
-0.222922
-0.227818
-0.230619
-0.233012
-0.2345
-0.235757
-0.23711
-0.215989
-0.250085
-0.250109
0.29326
0.300207
0.31932
0.34739
0.376099
0.371117
0.234268
-0.206958
-0.640335
-0.633294
-0.523758
-0.450904
-0.40746
-0.377225
-0.354209
-0.336273
-0.321847
-0.309744
-0.299141
-0.289511
-0.280529
-0.271997
-0.263777
-0.255788
-0.248017
-0.240507
-0.233359
-0.226742
-0.22077
-0.215267
-0.217144
-0.222143
-0.225089
-0.227517
-0.229014
-0.23027
-0.231555
-0.209759
0.293864
0.302473
0.32549
0.362474
0.412086
0.455645
0.335487
0.432272
-0.0432208
0.0252975
0.357872
-0.692372
-0.409907
-0.823977
-0.760862
-0.836531
-0.593573
-0.500452
-0.443974
-0.403941
-0.373437
-0.350146
-0.331946
-0.31717
-0.304658
-0.293662
-0.283701
-0.274468
-0.265754
-0.25742
-0.249394
-0.241657
-0.23424
-0.227247
-0.220819
-0.214946
-0.209513
-0.21005
-0.216482
-0.21943
-0.221745
-0.223346
-0.224669
-0.226019
-0.20566
0.291356
0.300999
0.326154
0.368191
0.431035
0.516125
0.506021
0.572672
0.463246
0.204524
0.0619004
-0.295727
-0.236463
0.244091
-0.6644
-0.589118
-0.482426
-1.03279
-0.745441
-0.821405
-0.823727
-0.639546
-0.797522
-0.916342
-0.537767
-0.478132
-0.430875
-0.393783
-0.365165
-0.342968
-0.32529
-0.310692
-0.298195
-0.287153
-0.277141
-0.267868
-0.25914
-0.250834
-0.242883
-0.235263
-0.228011
-0.221223
-0.214975
-0.209309
-0.204779
-0.206644
-0.210555
-0.211327
-0.216551
-0.217871
-0.218822
-0.220208
-0.200129
0.285898
0.295988
0.321639
0.364865
0.432237
0.53693
0.615952
0.650767
0.557372
0.640549
0.437674
0.287978
0.0210916
-0.00461665
-0.924319
-0.876291
-0.86753
-0.69629
-0.553077
-0.642743
-0.820514
-0.782653
-0.500893
-0.453025
-0.412924
-0.380454
-0.354597
-0.333978
-0.317173
-0.303061
-0.29085
-0.27999
-0.270104
-0.260936
-0.252317
-0.244139
-0.236339
-0.228901
-0.221862
-0.215297
-0.209298
-0.204178
-0.199379
-0.200883
-0.205714
-0.208447
-0.210674
-0.212563
-0.209527
-0.214747
-0.194184
0.277761
0.287814
0.312673
0.354089
0.418008
0.522543
0.65357
0.625246
0.698911
0.675711
0.764913
0.445565
0.542346
0.728187
0.714932
0.63836
0.413479
0.124834
-0.906014
-0.880167
-0.71664
-0.68371
-0.581142
-0.509346
-0.547348
-0.656707
-0.625753
-0.82362
-0.783216
-0.465478
-0.427084
-0.394061
-0.365983
-0.342905
-0.323968
-0.308194
-0.294749
-0.282987
-0.272441
-0.262793
-0.253829
-0.245404
-0.237422
-0.229828
-0.222615
-0.215817
-0.209513
-0.203899
-0.198784
-0.193555
-0.194896
-0.199923
-0.202728
-0.205233
-0.206595
-0.208004
-0.209224
-0.210421
-0.212795
-0.207047
-0.188593
0.267273
0.276926
0.300132
0.337954
0.39372
0.478061
0.603086
0.754434
0.716815
0.777884
0.815348
0.822367
0.776838
-0.711006
-0.681616
-0.591306
-0.569258
-0.519388
-0.469651
-0.497553
-0.555609
-0.538583
-0.653803
-0.623596
-0.434083
-0.403503
-0.375542
-0.351321
-0.330773
-0.313468
-0.298789
-0.286092
-0.274853
-0.264695
-0.255358
-0.246664
-0.238487
-0.230744
-0.223394
-0.216431
-0.209897
-0.203904
-0.198422
-0.193063
-0.187953
-0.189305
-0.194119
-0.196919
-0.199503
-0.200971
-0.202342
-0.203678
-0.205474
-0.206825
-0.208081
-0.209254
-0.183185
0.254788
0.263793
0.284857
0.318327
0.364775
0.426626
0.497219
0.572312
0.487576
0.787807
0.759774
0.670241
0.721494
0.80866
-0.589645
-0.567361
-0.523172
-0.508401
-0.477001
-0.435995
-0.458892
-0.495709
-0.555724
-0.537654
-0.408034
-0.381683
-0.358031
-0.33696
-0.318608
-0.302855
-0.289255
-0.277309
-0.266619
-0.256889
-0.247907
-0.239522
-0.231626
-0.224152
-0.217066
-0.210368
-0.20411
-0.198305
-0.192751
-0.187457
-0.182547
-0.183873
-0.188521
-0.191273
-0.193717
-0.195169
-0.196523
-0.19791
-0.199754
-0.201209
-0.202516
-0.203832
-0.177857
0.240656
0.248861
0.26757
0.296606
0.334387
0.378829
0.41636
0.333493
0.594848
0.367313
0.388977
0.273581
0.734818
0.625786
-0.561178
-0.521875
-0.512918
-0.47539
-0.44198
-0.409057
-0.428138
-0.45798
-0.489742
-0.500897
-0.552372
-0.535805
-0.384283
-0.36211
-0.341677
-0.323109
-0.306712
-0.292375
-0.279764
-0.268539
-0.258403
-0.249121
-0.240516
-0.232459
-0.224864
-0.217673
-0.210857
-0.204424
-0.198379
-0.192625
-0.187139
-0.182032
-0.177232
-0.178522
-0.183059
-0.185769
-0.188115
-0.189534
-0.190852
-0.192213
-0.193941
-0.195371
-0.196669
-0.198033
-0.172625
0.225201
0.232532
0.248841
0.273757
0.304195
0.336061
0.355727
0.290764
0.0934425
0.120834
0.530666
0.279629
0.102667
0.105621
-0.52028
-0.511318
-0.478538
-0.469492
-0.440563
-0.414476
-0.384416
-0.401552
-0.427527
-0.453845
-0.46137
-0.363721
-0.344433
-0.326362
-0.309968
-0.295263
-0.282135
-0.270416
-0.259881
-0.250293
-0.24146
-0.233236
-0.225517
-0.218228
-0.21132
-0.20477
-0.198565
-0.192648
-0.186994
-0.181682
-0.176713
-0.172011
-0.173271
-0.177704
-0.18037
-0.182654
-0.184045
-0.185338
-0.18667
-0.188329
-0.189721
-0.19098
-0.192311
-0.1675
0.208728
0.215143
0.229085
0.250398
0.275002
0.298016
0.307442
0.259
0.110518
0.0613828
0.0551456
0.072313
0.106449
0.067762
-0.44271
-0.437306
-0.413219
-0.389249
-0.36362
-0.377689
-0.400602
-0.423009
-0.430312
-0.34552
-0.328096
-0.312212
-0.297631
-0.284268
-0.27218
-0.261288
-0.251405
-0.242342
-0.233947
-0.226102
-0.218718
-0.211731
-0.205099
-0.198789
-0.192759
-0.186979
-0.181493
-0.17634
-0.171486
-0.166895
-0.168123
-0.172453
-0.175075
-0.177301
-0.178666
-0.179936
-0.181246
-0.182861
-0.184226
-0.185459
-0.18676
-0.162476
0.191527
0.196958
0.208554
0.226874
0.247127
0.264195
0.2681
0.231811
0.130261
0.0715966
0.0635989
0.0422007
0.0527831
0.0711881
0.0435923
-0.439247
-0.436239
-0.415389
-0.408915
-0.38831
-0.367586
-0.344869
-0.357819
-0.376738
-0.396689
-0.402949
-0.422177
-0.429236
-0.328641
-0.313307
-0.299226
-0.28595
-0.273707
-0.262568
-0.252431
-0.243149
-0.234585
-0.226613
-0.219136
-0.212076
-0.20538
-0.199001
-0.192898
-0.187035
-0.181428
-0.176113
-0.171091
-0.166363
-0.16188
-0.163076
-0.167306
-0.169883
-0.172053
-0.173391
-0.174639
-0.175926
-0.1775
-0.178839
-0.180051
-0.18133
-0.157549
0.173706
0.178215
0.187301
0.203311
0.220596
0.233975
0.235446
0.208223
0.139095
0.087783
0.0704162
0.0596662
0.051963
0.0570463
0.0519542
0.0348688
-0.414399
-0.408286
-0.390293
-0.384513
-0.366812
-0.348155
-0.328108
-0.33672
-0.357237
-0.373019
-0.379091
-0.396064
-0.402099
-0.313496
-0.300004
-0.287013
-0.274843
-0.263631
-0.253327
-0.24386
-0.235136
-0.227042
-0.219473
-0.212346
-0.205596
-0.19917
-0.193021
-0.18711
-0.18143
-0.175999
-0.170833
-0.165949
-0.161344
-0.156955
-0.15813
-0.16226
-0.164795
-0.166909
-0.168221
-0.169446
-0.170711
-0.172244
-0.173557
-0.174747
-0.176004
-0.152708
0.155154
0.159087
0.165189
0.179657
0.195269
0.206715
0.207703
0.187734
0.139859
0.0987323
0.0799375
0.065548
0.0590149
0.0624376
0.0454613
0.0574714
0.0515044
0.0525527
0.0470846
-0.389362
-0.384022
-0.368543
-0.363576
-0.347453
-0.326401
-0.312919
-0.341196
-0.354073
-0.358924
-0.372292
-0.379247
-0.300154
-0.287446
-0.275477
-0.264371
-0.254027
-0.244439
-0.235586
-0.22738
-0.219724
-0.212534
-0.205738
-0.199276
-0.193099
-0.187164
-0.181448
-0.17595
-0.170682
-0.165663
-0.160914
-0.156412
-0.152106
-0.153283
-0.15731
-0.159808
-0.161867
-0.163154
-0.164358
-0.1656
-0.167093
-0.16838
-0.169548
-0.170784
-0.14794
0.138944
0.138951
0.142079
0.155784
0.170958
0.181845
0.1836
0.169615
0.136374
0.104135
0.0860246
0.0703276
0.0596832
0.058392
0.0605876
0.0562806
0.0536802
0.0536392
0.0485074
0.0492594
-0.368704
-0.363072
-0.348696
-0.343039
-0.330028
-0.311663
-0.321689
-0.299796
-0.33928
-0.353493
-0.358271
-0.370035
-0.287366
-0.275612
-0.264734
-0.254462
-0.244841
-0.23591
-0.227617
-0.219884
-0.212634
-0.205798
-0.19931
-0.193115
-0.18717
-0.181442
-0.175916
-0.170592
-0.165479
-0.160602
-0.155972
-0.151564
-0.147327
-0.148571
-0.152446
-0.15492
-0.156921
-0.158186
-0.159369
-0.160591
-0.162044
-0.163306
-0.164454
-0.165667
-0.143136
0.137615
0.116089
0.118177
0.131855
0.147636
0.15897
0.162271
0.153345
0.130545
0.105976
0.0895573
0.0745282
0.0619534
0.0549553
0.0557447
0.0580386
0.0566701
0.0575903
0.0540143
0.054135
0.0514888
0.0517823
-0.367515
-0.362351
-0.34846
-0.345619
-0.330962
-0.326976
-0.313902
-0.298936
-0.307732
-0.323264
-0.31995
-0.286856
-0.340224
-0.335648
-0.352911
-0.357541
-0.275329
-0.264761
-0.254611
-0.245021
-0.236076
-0.227735
-0.219943
-0.212643
-0.20577
-0.199262
-0.193059
-0.187113
-0.181387
-0.175859
-0.170515
-0.165354
-0.160392
-0.15565
-0.151129
-0.146809
-0.142633
-0.143714
-0.147718
-0.150141
-0.152057
-0.153309
-0.154475
-0.15568
-0.157093
-0.158333
-0.15946
-0.160653
-0.13866
0.154506
0.0934631
0.0943416
0.109159
0.125862
0.138083
0.143239
0.138641
0.123513
0.105285
0.0911776
0.0777299
0.0649225
0.0563248
0.0503701
0.0522124
0.0546606
0.0547551
0.0564238
0.0553521
0.0556508
0.055503
0.0556067
0.0526232
0.0527132
-0.347798
-0.34453
-0.314508
-0.312467
-0.301215
-0.285971
-0.294585
-0.309059
-0.305593
-0.274663
-0.264516
-0.254506
-0.244971
-0.236066
-0.227721
-0.219891
-0.212553
-0.205653
-0.199129
-0.192923
-0.186983
-0.18127
-0.175755
-0.170416
-0.165243
-0.160241
-0.155424
-0.150807
-0.146397
-0.142191
-0.13824
-0.139078
-0.142842
-0.145434
-0.147305
-0.148552
-0.149668
-0.15086
-0.152228
-0.153451
-0.154562
-0.155737
-0.134694
0.0846754
0.0729133
0.090628
0.107335
0.119879
0.12653
0.125452
0.11607
0.102939
0.0912486
0.0796098
0.0677281
0.0584359
0.0514683
0.0451796
0.0481624
0.0508189
0.0515935
0.0536084
0.0536868
0.0544392
0.0555379
0.0550609
0.0546641
0.0549304
0.0543812
0.0546903
-0.312385
-0.311732
-0.302084
-0.298897
-0.288151
-0.273697
-0.281935
-0.295771
-0.292404
-0.308676
-0.305261
-0.264036
-0.254184
-0.244717
-0.235891
-0.227573
-0.219726
-0.212362
-0.205442
-0.19891
-0.192704
-0.186775
-0.181081
-0.175587
-0.17027
-0.165111
-0.160103
-0.155252
-0.150574
-0.146086
-0.141813
-0.137809
-0.134136
-0.135239
-0.138638
-0.140336
-0.142503
-0.143841
-0.144972
-0.146152
-0.147464
-0.148677
-0.149754
-0.15091
-0.130371
0.0580143
0.0785713
0.0944943
0.10583
0.11278
0.114036
0.108823
0.0996886
0.0902645
0.0803446
0.0697732
0.0606618
0.0532582
0.0470152
0.0445119
0.0425509
0.0459909
0.0481883
0.0501253
0.0505587
0.0515828
0.0532563
0.0523979
0.0532862
0.0540007
0.0549301
0.0545713
-0.301398
-0.298393
-0.288983
-0.285939
-0.275606
-0.26332
-0.270272
-0.283121
-0.279962
-0.295479
-0.292156
-0.253666
-0.244277
-0.235586
-0.227314
-0.219459
-0.212072
-0.205139
-0.198603
-0.192401
-0.186485
-0.180814
-0.175348
-0.170061
-0.16493
-0.159943
-0.155094
-0.150391
-0.145853
-0.14151
-0.137419
-0.133619
-0.129874
-0.130829
-0.134415
-0.136589
-0.138344
-0.139369
-0.140505
-0.140567
-0.143489
-0.144117
-0.145086
-0.146166
-0.126048
0.0718677
0.0878778
0.0971639
0.10295
0.104967
0.102339
0.0961336
0.0886704
0.0802877
0.0710458
0.0625138
0.0551871
0.0488882
0.0451933
0.0414304
0.0432558
0.0446655
0.0402619
0.0461419
0.0471474
0.0483118
0.0499788
0.0488967
0.0502798
0.0512331
0.0528282
0.0520827
-0.288311
-0.285462
-0.276658
-0.273384
-0.265199
-0.25291
-0.259547
-0.271307
-0.268606
-0.282785
-0.279771
-0.243653
-0.235157
-0.226977
-0.21911
-0.211698
-0.204755
-0.198217
-0.192018
-0.186116
-0.180468
-0.175034
-0.169783
-0.164689
-0.159735
-0.154912
-0.150216
-0.145661
-0.14127
-0.137096
-0.133172
-0.129387
-0.125588
-0.126492
-0.130049
-0.132171
-0.133991
-0.13506
-0.136167
-0.137209
-0.138466
-0.1397
-0.141324
-0.140148
-0.121914
0.0853937
0.0932039
0.0973204
0.0987749
0.0971748
0.0927796
0.0868227
0.0797337
0.0717001
0.0638846
0.0568674
0.0505909
0.0460041
0.0420447
0.0379802
0.0397863
0.0413309
0.0429532
0.0448515
0.0445969
0.0369536
0.0468357
0.0469539
0.0468883
0.0478441
0.0495875
0.0486368
-0.276692
-0.272721
-0.265917
-0.263191
-0.254583
-0.242846
-0.249546
-0.260278
-0.256629
-0.271603
-0.268402
-0.234592
-0.226566
-0.218704
-0.21127
-0.204317
-0.197766
-0.191563
-0.185671
-0.180046
-0.174644
-0.169431
-0.164379
-0.159468
-0.154683
-0.150017
-0.145472
-0.141065
-0.136832
-0.132808
-0.12895
-0.125145
-0.121458
-0.122357
-0.125794
-0.127874
-0.129668
-0.130741
-0.131793
-0.132841
-0.134104
-0.135182
-0.136227
-0.137296
-0.138503
-0.139584
-0.141047
-0.138654
-0.117908
0.0920099
0.0948491
0.0952947
0.09364
0.0900249
0.0850202
0.0789163
0.0718967
0.0647948
0.0581822
0.0520714
0.046996
0.0426529
0.0384721
0.0349612
0.0367563
0.038213
0.0393757
0.0408713
0.0420154
0.042808
0.0449299
0.0442283
0.0334777
0.0458305
0.0475818
-0.271315
-0.265452
-0.262785
-0.253782
-0.244643
-0.233885
-0.239649
-0.248994
-0.260265
-0.25857
-0.270956
-0.267931
-0.226051
-0.218242
-0.210806
-0.203853
-0.197284
-0.19106
-0.185165
-0.179553
-0.174181
-0.169005
-0.163996
-0.159132
-0.154394
-0.14977
-0.145257
-0.140861
-0.136603
-0.132512
-0.128579
-0.124744
-0.121022
-0.117458
-0.11834
-0.121669
-0.123707
-0.12543
-0.126485
-0.127507
-0.128549
-0.129786
-0.130862
-0.131885
-0.132945
-0.134205
-0.13527
-0.136321
-0.13737
-0.113998
0.0939983
0.0936204
0.0915162
0.0880237
0.0834689
0.0780171
0.0717819
0.0653162
0.0591185
0.0532644
0.0480416
0.043421
0.0390841
0.0354107
0.0322514
0.0339596
0.0353406
0.0364591
0.0379033
0.0388369
0.0394889
0.0409655
0.040228
-0.265022
-0.262476
-0.254725
-0.252095
-0.244123
-0.235414
-0.225366
-0.231075
-0.238995
-0.247348
-0.249852
-0.259901
-0.25785
-0.2177
-0.210296
-0.203383
-0.196805
-0.190542
-0.18462
-0.179007
-0.173653
-0.16851
-0.163543
-0.158726
-0.154038
-0.149464
-0.144995
-0.140631
-0.136378
-0.132256
-0.128272
-0.124397
-0.120632
-0.117026
-0.113561
-0.114417
-0.117653
-0.119648
-0.12131
-0.122341
-0.123336
-0.124357
-0.125543
-0.126595
-0.127595
-0.128644
-0.129881
-0.130942
-0.131989
-0.133041
-0.110189
0.092733
0.0902127
0.0866104
0.0822051
0.0771339
0.0714648
0.0655283
0.0597149
0.0541391
0.0489717
0.0442559
0.0398275
0.0359555
0.0326755
0.0298779
0.0300922
0.0326918
0.0337985
0.0350923
0.0359472
0.0365988
0.0380645
0.0373269
-0.244752
-0.242443
-0.235022
-0.226811
-0.217024
-0.22254
-0.230624
-0.237301
-0.240309
-0.20971
-0.202896
-0.19634
-0.190037
-0.184069
-0.178434
-0.17308
-0.167956
-0.163023
-0.15825
-0.153613
-0.149092
-0.144675
-0.140354
-0.136131
-0.132013
-0.128006
-0.124102
-0.120298
-0.116641
-0.113137
-0.109758
-0.110604
-0.113736
-0.115687
-0.117301
-0.118308
-0.119277
-0.120274
-0.12142
-0.122444
-0.123418
-0.12444
-0.12563
-0.126665
-0.127691
-0.128729
0.0891821
0.0854361
0.0811002
0.0762576
0.0709924
0.0654866
0.0600173
0.0547111
0.0496909
0.0450164
0.0405978
0.0365974
0.0331425
0.0301854
0.0276814
0.0289625
0.0301024
0.0289772
0.0267407
0.0330023
0.0332754
0.0338569
0.0352249
0.0345344
-0.235863
-0.233476
-0.22624
-0.218438
-0.20903
-0.214367
-0.222046
-0.22914
-0.231317
-0.236179
-0.20236
-0.195884
-0.189554
-0.183541
-0.177868
-0.172493
-0.167365
-0.162449
-0.157712
-0.153121
-0.148654
-0.144291
-0.140022
-0.135841
-0.131751
-0.127751
-0.123838
-0.120014
-0.116312
-0.112755
-0.10934
-0.111827
-0.113388
-0.114375
-0.115321
-0.116295
-0.117408
-0.118407
-0.119355
-0.120351
-0.121504
-0.12251
-0.123508
-0.124517
0.0842639
0.0799466
0.075307
0.0703465
0.065201
0.0600495
0.0550063
0.0501718
0.0456134
0.0412878
0.0372698
0.033695
0.0305862
0.0279472
0.0256163
0.0267632
0.0279626
0.0285403
0.029006
0.0295163
0.0298006
0.0298987
0.0359247
0.0328228
0.0322084
-0.235392
-0.233035
-0.226849
-0.224759
-0.217907
-0.210432
-0.201739
-0.206471
-0.213951
-0.220655
-0.222749
-0.228834
-0.230966
-0.19543
-0.189079
-0.183042
-0.177339
-0.171928
-0.166768
-0.161841
-0.157121
-0.152568
-0.14815
-0.143841
-0.139627
-0.135499
-0.13145
-0.127479
-0.123582
-0.119759
-0.116032
-0.112428
-0.108963
-0.111449
-0.11241
-0.113494
-0.114471
-0.115396
-0.116369
-0.117489
-0.11847
-0.119442
-0.120425
0.0786664
0.0741555
0.069486
0.0646533
0.0598086
0.0550339
0.0504083
0.0460076
0.0418215
0.0378798
0.0342712
0.0310446
0.0282354
0.0257482
0.0234577
0.0247026
0.0259128
0.026387
0.0269308
0.0274722
0.0280762
0.0284544
0.0288804
0.0293136
0.0295875
0.0296414
0.0326481
-0.226509
-0.224489
-0.218509
-0.216488
-0.209999
-0.202919
-0.194639
-0.199287
-0.206017
-0.212597
-0.214614
-0.220389
-0.222432
-0.188619
-0.182551
-0.176852
-0.171414
-0.1662
-0.161231
-0.1565
-0.151968
-0.147588
-0.14333
-0.13917
-0.135097
-0.1311
-0.127172
-0.12331
-0.119509
-0.115781
-0.11215
-0.108638
-0.111527
-0.112481
-0.113573
-0.114533
-0.115482
-0.11644
0.0728106
0.0683394
0.0638353
0.059283
0.0547845
0.0503956
0.0461812
0.04216
0.0383493
0.0347947
0.0315307
0.0285989
0.0259643
0.0234548
0.0203566
0.0227757
0.0239517
0.0242973
0.024887
0.025381
0.0259909
0.0263371
0.0268505
0.0273655
0.0279412
0.0283831
0.0287788
0.029198
0.0294153
-0.218178
-0.216232
-0.210587
-0.208631
-0.202516
-0.195562
-0.188002
-0.190871
-0.198973
-0.204632
-0.206749
-0.212327
-0.214287
-0.182047
-0.176381
-0.170955
-0.165684
-0.160653
-0.155883
-0.151344
-0.146982
-0.142762
-0.138653
-0.134635
-0.130694
-0.126818
-0.123002
-0.119241
-0.115535
-0.111902
-0.108362
-0.111608
-0.11255
0.066969
0.062703
0.0584766
0.0542526
0.0501216
0.0461222
0.0422867
0.0386339
0.0351936
0.0319798
0.0290155
0.0263081
0.0237746
0.021285
0.0209002
0.0193854
0.0212984
0.0224805
0.023107
0.0233576
0.023983
0.0242626
0.024803
0.0252755
0.0258447
0.0262815
0.0267684
0.0273135
0.0278601
-0.210238
-0.208418
-0.203052
-0.201301
-0.195421
-0.186982
-0.18145
-0.192899
-0.197785
-0.19955
-0.204278
-0.206824
-0.175881
-0.170526
-0.165225
-0.160128
-0.1553
-0.150726
-0.146356
-0.142155
-0.138084
-0.134116
-0.13023
-0.126411
-0.122649
-0.118937
-0.115273
-0.111662
-0.108119
0.0613369
0.0573566
0.0534557
0.0495813
0.0458188
0.0421903
0.0387151
0.0354219
0.0323171
0.0294066
0.0267053
0.0242197
0.02204
0.0211101
0.019686
0.0204513
0.0207175
0.0205198
0.0181172
0.0209154
0.0221349
0.0225954
0.0229588
0.0232554
0.0238022
0.0242137
0.024726
0.0252275
0.0257602
-0.203144
-0.201083
-0.195905
-0.194213
-0.188276
-0.18072
-0.184947
-0.175286
-0.190552
-0.192824
-0.197509
-0.199287
-0.203277
-0.170087
-0.164794
-0.159655
-0.154771
-0.150149
-0.145743
-0.14153
-0.137476
-0.133546
-0.129711
-0.125949
-0.122245
-0.118589
-0.114976
-0.111405
-0.107885
0.0560151
0.052364
0.0487953
0.0452732
0.0418642
0.0385859
0.0354592
0.0324951
0.0296943
0.0270658
0.0246397
0.022535
0.0212203
0.0198508
0.0178434
0.0188859
0.0195525
0.0199867
0.0202249
0.0206897
0.0208672
0.0226972
0.015652
0.0232038
0.0222358
0.0224836
0.0227919
0.0231928
0.0237085
-0.202651
-0.200748
-0.195659
-0.193957
-0.191399
-0.188852
-0.187144
-0.181788
-0.174609
-0.178643
-0.185607
-0.183863
-0.169584
-0.19241
-0.19724
-0.198975
-0.164348
-0.159206
-0.154294
-0.149632
-0.145173
-0.14092
-0.136852
-0.132941
-0.129146
-0.125434
-0.121787
-0.11819
-0.114635
-0.111116
-0.107635
0.0510638
0.0477357
0.0445062
0.0413164
0.0382457
0.0352998
0.0324938
0.0298304
0.0273165
0.0249749
0.0228951
0.0213298
0.0198909
0.0180262
0.0163374
0.0172813
0.0179806
0.0185736
0.0188489
0.019206
0.0195337
0.0198376
0.0201167
0.0205614
0.0212018
0.0126908
0.0230205
0.0217709
-0.195375
-0.193743
-0.190839
-0.182125
-0.180607
-0.175436
-0.168981
-0.172757
-0.17919
-0.177882
-0.163834
-0.192145
-0.158749
-0.153839
-0.149172
-0.144665
-0.140354
-0.136244
-0.132324
-0.128547
-0.124874
-0.121278
-0.11774
-0.114244
-0.110784
-0.107355
0.0464871
0.0434858
0.0405711
0.0377026
0.0349454
0.0323092
0.0297951
0.0274148
0.0251824
0.0231515
0.0214578
0.0199335
0.0181854
0.0165332
0.0150683
0.015848
0.0165023
0.0170223
0.0173228
0.017695
0.0181088
0.0185434
0.0188141
0.019139
0.0194789
-0.175704
-0.174747
-0.169889
-0.163196
-0.16696
-0.173264
-0.171771
-0.158248
-0.153366
-0.148743
-0.144218
-0.139849
-0.135681
-0.131724
-0.127937
-0.124284
-0.120727
-0.11724
-0.113804
-0.110404
-0.107035
0.0422933
0.0395961
0.0369807
0.0344088
0.0319448
0.0295871
0.0273488
0.025238
0.0232852
0.0215569
0.0199813
0.0183192
0.0167117
0.0152785
0.0139016
0.0145811
0.0151868
0.0156062
0.0158791
0.0162207
0.01661
0.0169894
0.0172797
0.0176453
0.0180783
-0.17475
-0.174377
-0.170252
-0.16884
-0.164083
-0.157674
-0.161266
-0.16743
-0.165949
-0.173054
-0.171576
-0.152828
-0.148304
-0.143803
-0.139398
-0.135175
-0.131168
-0.127348
-0.123686
-0.120146
-0.116699
-0.113315
-0.109975
-0.106666
0.0384644
0.0360488
0.0337144
0.0314157
0.0292147
0.0271209
0.0251359
0.0232807
0.021582
0.0200045
0.0184129
0.0168608
0.0154503
0.0141097
0.0128166
0.013428
0.0139954
0.0143438
0.014611
0.0149107
0.0152615
0.015563
0.0158261
0.0161606
0.0165579
-0.169945
-0.168587
-0.164447
-0.163072
-0.158531
-0.152226
-0.155811
-0.161739
-0.1603
-0.167262
-0.165787
-0.147822
-0.143383
-0.138978
-0.134724
-0.130671
-0.126807
-0.12311
-0.11956
-0.11613
-0.112786
-0.109501
-0.106252
0.034978
0.0328279
0.030745
0.028696
0.0267425
0.0248848
0.0231351
0.0215048
0.0199703
0.0184518
0.0169647
0.0155822
0.0142735
0.013018
0.0118133
0.0123562
0.0129001
0.0132073
0.0134522
0.0137212
0.0140571
0.0143016
0.0145562
0.0148501
0.0152005
-0.164148
-0.162832
-0.158867
-0.157524
-0.153079
-0.147295
-0.15043
-0.156259
-0.154864
-0.161567
-0.160138
-0.142918
-0.138554
-0.134302
-0.130227
-0.126326
-0.122582
-0.118993
-0.115554
-0.11223
-0.108987
-0.105792
0.0318158
0.0299017
0.0280541
0.0262331
0.0244994
0.0228575
0.0213144
0.0198505
0.018418
0.0170095
0.0156709
0.0143959
0.0131727
0.0120085
0.0108817
0.0113612
0.0118859
0.0121507
0.012378
0.0126417
0.0129403
0.0131687
0.0133996
0.0136578
0.0139949
-0.158569
-0.157285
-0.153437
-0.152121
-0.148075
-0.142369
-0.145556
-0.150747
-0.149664
-0.156066
-0.154684
-0.138093
-0.133877
-0.129811
-0.1259
-0.122113
-0.118471
-0.114998
-0.111667
-0.108446
-0.105295
0.0289484
0.0272552
0.0256136
0.0239987
0.022464
0.0210145
0.0196339
0.0182948
0.0169786
0.0157057
0.014476
0.0132849
0.0121479
0.0110616
0.00999412
0.0104196
0.0109418
0.0111643
0.011388
0.0116329
0.0119139
0.0121153
0.0123265
0.0125801
0.0128755
-0.15316
-0.152102
-0.148421
-0.147173
-0.143109
-0.137553
-0.140585
-0.145933
-0.144666
-0.150578
-0.149689
-0.133423
-0.129386
-0.125505
-0.121696
-0.118007
-0.114484
-0.111123
-0.1079
-0.104773
0.0263562
0.0248535
0.0234039
0.0219729
0.0206149
0.0193237
0.018077
0.0168583
0.0156684
0.0145032
0.0133569
0.0122458