/*--------------------------------*- C++ -*----------------------------------*\
| =========                 |                                                 |
| \\      /  F ield         | OpenFOAM: The Open Source CFD Toolbox           |
|  \\    /   O peration     | Version:  v1912                                 |
|   \\  /    A nd           | Website:  www.openfoam.com                      |
|    \\/     M anipulation  |                                                 |
\*---------------------------------------------------------------------------*/
FoamFile
{
    version     2.0;
    format      ascii;
    class       volScalarField;
    location    "160";
    object      p;
}
// * * * * * * * * * * * * * * * * * * * * * * * * * * * * * * * * * * * * * //

dimensions      [0 2 -2 0 0 0 0];


internalField   nonuniform List<scalar> 
3754
(
0.251567
0.248274
0.285288
0.241931
0.278188
0.391876
0.233151
0.265024
0.36949
0.569356
0.554447
0.222722
0.248688
0.327671
0.521416
0.465873
0.679924
0.688209
0.629233
0.657832
0.211376
0.231361
0.280288
0.399851
0.333181
0.530056
0.583157
0.475328
0.51884
0.199677
0.214235
0.237836
0.254246
0.394425
0.442734
0.236584
0.220767
0.392618
0.188046
0.197794
0.202956
0.19221
-0.304626
-0.247689
0.15108
0.13911
-0.186092
-0.205173
0.176787
0.182318
0.174501
0.150102
-0.320754
-0.503336
-0.447995
-0.464687
-0.151501
-0.43512
0.166133
0.168015
0.150991
0.119045
-0.252767
-0.399863
-0.420561
-0.528443
-0.511461
-0.418604
-0.533316
0.156259
0.155043
0.1313
0.0917984
-0.203034
-0.358884
-0.32888
-0.406122
-0.445288
-0.407091
-0.422089
-0.536233
0.147305
0.143493
0.114699
0.0685013
-0.169296
-0.320555
-0.315629
-0.29656
-0.329764
-0.353678
-0.446765
-0.357488
-0.401815
-0.415862
-0.427161
0.139372
0.133413
0.100679
0.049393
-0.145683
-0.288909
-0.30163
-0.292807
-0.286849
-0.294489
-0.307898
-0.333052
-0.368881
-0.352494
-0.405901
-0.418044
0.132545
0.124826
0.0888538
0.0338701
-0.12976
-0.263265
-0.288373
-0.286985
-0.285169
-0.275445
-0.28476
-0.290897
-0.294878
-0.309659
-0.328292
-0.340177
-0.368311
-0.353994
0.126888
0.117755
0.0789172
0.0213253
-0.11982
-0.243746
-0.277262
-0.281028
-0.282443
-0.274925
-0.264873
-0.27154
-0.279138
-0.285523
-0.292115
-0.290871
-0.300823
-0.314928
-0.306459
-0.329219
-0.339928
0.122462
0.112212
0.0706515
0.0113054
-0.114397
-0.229856
-0.268916
-0.276296
-0.279655
-0.273879
-0.263837
-0.265848
-0.253291
-0.277701
-0.279797
-0.284513
-0.28746
-0.294824
-0.29049
-0.289201
-0.303078
-0.314366
-0.307194
0.119313
0.108208
0.0639043
0.00341996
-0.112466
-0.220897
-0.263283
-0.273099
-0.277418
-0.273008
-0.263158
-0.252612
-0.254425
-0.263623
-0.269819
-0.242446
-0.273313
-0.277517
-0.281346
-0.278934
-0.284876
-0.287678
-0.297258
-0.290628
-0.288109
0.117495
0.105757
0.0585719
-0.0026321
-0.113402
-0.216364
-0.260223
-0.271425
-0.275954
-0.272432
-0.262933
-0.252359
-0.242337
-0.242688
-0.252853
-0.257958
-0.262601
-0.265871
-0.268342
-0.271504
-0.277269
-0.236218
-0.276978
-0.281592
-0.279185
-0.285211
-0.287806
-0.296837
-0.290673
0.117055
0.104878
0.05459
-0.00702597
-0.116873
-0.215943
-0.259684
-0.271253
-0.275383
-0.272226
-0.263004
-0.252406
-0.242287
-0.235134
-0.237314
-0.243029
-0.244545
-0.252363
-0.255125
-0.256811
-0.259175
-0.276063
-0.226312
-0.277072
-0.281788
-0.27953
0.118052
0.105591
0.0519587
-0.00982256
-0.122822
-0.219473
-0.26166
-0.272568
-0.275763
-0.27247
-0.263332
-0.252634
-0.242346
-0.234257
-0.225488
-0.227125
-0.235602
-0.23986
-0.242558
-0.245464
-0.241641
-0.248901
-0.216028
0.120537
0.107928
0.0507385
-0.0110073
-0.131496
-0.226946
-0.266144
-0.275341
-0.277104
-0.273214
-0.263911
-0.253002
-0.242482
-0.233615
-0.224702
-0.215254
-0.2168
-0.225221
-0.23021
-0.234731
-0.237204
-0.239159
-0.240731
-0.242475
-0.245995
-0.240285
-0.206448
0.124578
0.111918
0.0510717
-0.0105172
-0.143443
-0.238509
-0.273147
-0.279547
-0.279398
-0.274478
-0.264738
-0.253484
-0.242664
-0.233154
-0.223979
-0.214522
-0.205651
-0.207288
-0.214973
-0.219897
-0.224331
-0.227029
-0.229257
-0.231548
-0.235229
-0.237547
-0.239279
-0.240659
-0.196829
0.130224
0.117606
0.053199
-0.00828507
-0.159545
-0.254456
-0.282684
-0.285167
-0.282629
-0.276275
-0.265805
-0.254065
-0.242868
-0.232811
-0.223317
-0.213827
-0.204915
-0.196335
-0.19731
-0.205494
-0.210163
-0.214111
-0.2167
-0.218885
-0.221224
-0.224824
-0.22735
-0.229382
-0.231426
-0.18918
0.13753
0.125039
0.0575098
-0.00435428
-0.181121
-0.275238
-0.29479
-0.292186
-0.286776
-0.278598
-0.26711
-0.254733
-0.243084
-0.232534
-0.222702
-0.213135
-0.204186
-0.195759
-0.188453
-0.189878
-0.195215
-0.200528
-0.204638
-0.207129
-0.209124
-0.211343
-0.214552
-0.216979
-0.218968
-0.221071
-0.181113
0.146502
0.134307
0.064611
0.0010956
-0.2101
-0.301457
-0.309507
-0.300595
-0.291809
-0.281428
-0.268638
-0.25548
-0.243302
-0.232285
-0.222112
-0.212426
-0.203422
-0.195078
-0.187662
-0.180429
-0.181683
-0.188284
-0.192413
-0.193534
-0.197602
-0.1996
-0.201917
-0.205047
-0.207358
-0.209182
-0.211185
-0.172832
0.157127
0.145537
0.0754232
0.0076654
-0.249279
-0.333814
-0.326891
-0.310384
-0.297696
-0.284727
-0.27037
-0.256288
-0.243514
-0.232032
-0.221525
-0.211689
-0.202608
-0.194284
-0.186795
-0.179638
-0.17223
-0.173359
-0.179942
-0.184046
-0.187428
-0.189572
-0.191536
-0.193905
-0.192967
-0.198856
-0.199795
-0.201739
-0.165039
0.169326
0.158994
0.0910255
0.014143
-0.301977
-0.373093
-0.346919
-0.321542
-0.30439
-0.288446
-0.272271
-0.257142
-0.243705
-0.23175
-0.220913
-0.210912
-0.20174
-0.193389
-0.185841
-0.178735
-0.171534
-0.164468
-0.165544
-0.171444
-0.175802
-0.179125
-0.18123
-0.183144
-0.185098
-0.187676
-0.189778
-0.191579
-0.194949
-0.192156
-0.15769
0.182901
0.175271
0.112346
0.0178333
-0.370489
-0.419632
-0.369334
-0.333969
-0.311812
-0.292516
-0.274301
-0.258013
-0.243861
-0.231418
-0.220254
-0.21008
-0.200813
-0.192411
-0.184806
-0.177724
-0.170711
-0.163805
-0.157134
-0.158165
-0.164002
-0.167746
-0.169787
-0.172745
-0.174897
-0.176863
-0.179401
-0.181421
-0.183212
-0.185076
-0.187855
-0.189833
-0.191569
-0.194677
-0.150604
0.197373
0.195289
0.140788
0.0194369
-0.457502
-0.471638
-0.393333
-0.347308
-0.319775
-0.296827
-0.276404
-0.258872
-0.24396
-0.231015
-0.219528
-0.209178
-0.199816
-0.191358
-0.183701
-0.176622
-0.169759
-0.16303
-0.156498
-0.150065
-0.151094
-0.156681
-0.160317
-0.164273
-0.167834
-0.172456
-0.173067
-0.174982
-0.176835
-0.179594
-0.181496
-0.183362
-0.185125
-0.143673
0.212127
0.217829
0.181214
0.0311231
-0.57346
-0.523842
-0.417109
-0.360675
-0.327866
-0.301187
-0.278501
-0.259682
-0.243978
-0.23052
-0.218714
-0.20819
-0.19874
-0.190231
-0.182533
-0.17545
-0.168696
-0.162137
-0.155769
-0.149484
-0.143242
-0.144095
-0.149638
-0.153165
-0.156949
-0.160434
-0.163571
-0.165407
-0.169003
-0.166957
-0.171874
-0.173055
-0.175119
-0.176876
-0.137257
0.226211
0.239112
0.239558
0.0486975
-0.715078
-0.569704
-0.437251
-0.372608
-0.335302
-0.305268
-0.280468
-0.260394
-0.243887
-0.229912
-0.217792
-0.207101
-0.19757
-0.189023
-0.181301
-0.174221
-0.167548
-0.161135
-0.154937
-0.148832
-0.142768
-0.136915
-0.137565
-0.142602
-0.1462
-0.149892
-0.153252
-0.156246
-0.158045
-0.161401
-0.159617
-0.131606
0.238684
0.26086
0.253327
0.286335
0.194267
0.253871
0.332168
-0.701127
-0.181509
-0.838411
-0.603703
-0.841757
-0.44877
-0.381415
-0.341035
-0.308597
-0.282129
-0.260947
-0.243667
-0.229177
-0.21675
-0.205897
-0.196296
-0.187724
-0.179998
-0.172936
-0.166332
-0.160045
-0.154002
-0.148086
-0.142217
-0.136499
-0.131153
-0.132014
-0.136733
-0.13901
-0.142983
-0.146384
-0.149185
-0.150942
-0.154178
-0.152445
-0.125583
0.248686
0.27991
0.312957
0.338958
0.362931
0.323501
0.0530056
0.0643393
-0.721866
-0.691402
-0.3976
-1.00683
-0.890572
-0.868359
-0.657992
-0.450756
-0.581647
-0.83071
-0.385795
-0.344343
-0.310715
-0.28328
-0.261272
-0.243302
-0.228318
-0.215589
-0.204575
-0.194908
-0.186322
-0.178612
-0.171586
-0.165058
-0.158883
-0.152982
-0.147242
-0.141575
-0.136008
-0.130679
-0.125221
-0.12591
-0.130693
-0.133732
-0.13712
-0.138841
-0.142851
-0.144019
-0.14725
-0.14556
-0.119688
0.255422
0.292848
0.360724
0.37802
0.405756
0.449248
0.394516
0.343611
0.0635695
-0.00719567
0.372603
-0.151661
-0.919268
-0.833852
-0.65156
-0.481725
-0.385811
-0.431953
-0.581798
-0.345443
-0.311522
-0.283813
-0.261324
-0.242804
-0.227368
-0.214337
-0.20315
-0.193409
-0.184815
-0.177133
-0.170162
-0.163719
-0.15766
-0.151891
-0.146316
-0.140838
-0.135441
-0.13018
-0.124835
-0.119373
-0.119998
-0.124652
-0.127608
-0.130828
-0.133819
-0.136479
-0.138002
-0.138809
-0.139579
-0.114086
0.258218
0.30013
0.38398
0.382775
0.482181
0.507376
0.447063
0.489489
0.549053
0.516177
0.428195
0.0998198
-0.835173
-0.687081
-0.624885
-0.476489
-0.382867
-0.344963
-0.435199
-0.553633
-0.604259
-0.311359
-0.283812
-0.261125
-0.24222
-0.226397
-0.213064
-0.201673
-0.19183
-0.183211
-0.17556
-0.168656
-0.16231
-0.156371
-0.150739
-0.145319
-0.14002
-0.134796
-0.129649
-0.124429
-0.119067
-0.113798
-0.114377
-0.118819
-0.121681
-0.12482
-0.12771
-0.130233
-0.131699
-0.134606
-0.13313
-0.136488
-0.13795
-0.137891
-0.139617
-0.108699
0.256782
0.297091
0.44921
0.528345
0.538782
0.57728
0.602024
0.634086
0.619858
0.490906
0.475897
0.594044
0.527349
0.16739
-0.487824
-0.460097
-0.394137
-0.343138
-0.369677
-0.310487
-0.423177
-0.444551
-0.550165
-0.596117
-0.283408
-0.260749
-0.241621
-0.225498
-0.211876
-0.20024
-0.19024
-0.181554
-0.17391
-0.167068
-0.160824
-0.155016
-0.149526
-0.144262
-0.139133
-0.134083
-0.129077
-0.124005
-0.118773
-0.113545
-0.108442
-0.108974
-0.113231
-0.115997
-0.11899
-0.121793
-0.124231
-0.125685
-0.128528
-0.127071
-0.130351
-0.131734
-0.1346
-0.133208
-0.103494
0.251409
0.287037
0.414182
0.626324
0.567939
0.641578
0.640288
0.612426
0.630913
0.639918
0.682021
0.72794
0.70715
0.408429
-0.480101
-0.460034
-0.422552
-0.398401
-0.384616
-0.350619
-0.309072
-0.332415
-0.375162
-0.365245
-0.282604
-0.444169
-0.260208
-0.241042
-0.22474
-0.210875
-0.198966
-0.188747
-0.179925
-0.172235
-0.165423
-0.159269
-0.153589
-0.148249
-0.143145
-0.138188
-0.133311
-0.128467
-0.123558
-0.118487
-0.11334
-0.108241
-0.103257
-0.103757
-0.107857
-0.110535
-0.113396
-0.116102
-0.118418
-0.119825
-0.122588
-0.121163
-0.12434
-0.125714
-0.128544
-0.12716
-0.0984358
0.242528
0.272005
0.371604
0.436627
0.70321
0.482035
0.547239
0.393918
0.736028
0.731373
0.718608
-0.420517
-0.353308
-0.344459
-0.315206
-0.281374
-0.300352
-0.336602
-0.327587
-0.364305
-0.259432
-0.439394
-0.240442
-0.224111
-0.210103
-0.197944
-0.187471
-0.17844
-0.170624
-0.163779
-0.157674
-0.152103
-0.146909
-0.14197
-0.137188
-0.132491
-0.127818
-0.123087
-0.118199
-0.113181
-0.108122
-0.103105
-0.0982173
-0.0986976
-0.102671
-0.105276
-0.108018
-0.110634
-0.112845
-0.114203
-0.116863
-0.11549
-0.118518
-0.119848
-0.122597
-0.121243
-0.0934975
0.230569
0.253276
0.328864
0.361334
0.0186314
0.0425306
0.639755
0.0745956
0.0792207
-0.350502
-0.343309
-0.317667
-0.30962
-0.286393
-0.258339
-0.274179
-0.299664
-0.336542
-0.328485
-0.239713
-0.22353
-0.209509
-0.197187
-0.186485
-0.177209
-0.169193
-0.16223
-0.156103
-0.150593
-0.145521
-0.140739
-0.136135
-0.131621
-0.127133
-0.122589
-0.117903
-0.113053
-0.10809
-0.103077
-0.0981183
-0.0933002
-0.0937749
-0.0976329
-0.100179
-0.102831
-0.105371
-0.10749
-0.1088
-0.111366
-0.110042
-0.112941
-0.114226
-0.116872
-0.115567
-0.0886421
0.215959
0.231901
0.288584
0.302455
-0.00677614
-0.0504136
-0.0358238
-0.046509
-0.0322531
-0.317033
-0.30912
-0.284874
-0.26264
-0.238652
-0.252135
-0.273745
-0.295768
-0.303009
-0.222878
-0.208983
-0.196617
-0.185777
-0.176285
-0.168039
-0.160887
-0.154652
-0.149127
-0.144123
-0.139471
-0.135033
-0.130706
-0.126409
-0.122065
-0.117589
-0.112941
-0.108125
-0.10318
-0.098187
-0.0932686
-0.0885193
-0.0888836
-0.0927334
-0.0952268
-0.0977908
-0.100269
-0.10232
-0.103595
-0.10608
-0.104799
-0.107583
-0.108824
-0.111377
-0.110118
-0.084068
0.199061
0.208691
0.25097
0.254856
0.0134128
-0.0130637
-0.0182943
-0.0507244
-0.0531473
-0.0174537
-0.0556259
-0.315117
-0.308636
-0.287111
-0.281371
-0.261359
-0.242328
-0.221954
-0.232931
-0.251697
-0.270226
-0.276239
-0.2084
-0.196115
-0.185258
-0.175635
-0.167193
-0.159829
-0.153422
-0.147797
-0.142785
-0.138206
-0.133904
-0.129751
-0.125649
-0.12151
-0.117255
-0.112825
-0.108203
-0.103389
-0.0984325
-0.093448
-0.0885809
-0.0839988
-0.084251
-0.0878514
-0.0903485
-0.0928988
-0.0953077
-0.0972942
-0.0985398
-0.10096
-0.0997109
-0.102411
-0.103619
-0.106092
-0.104872
-0.0798212
0.180197
0.184243
0.215792
0.213117
0.0266527
-0.00638672
0.000303441
-0.0185034
-0.0271099
-0.0217328
-0.0210495
-0.280549
-0.263086
-0.257964
-0.241311
-0.220653
-0.207656
-0.233033
-0.248924
-0.253651
-0.269935
-0.275382
-0.195564
-0.184807
-0.175161
-0.166606
-0.15907
-0.152474
-0.146693
-0.141593
-0.137012
-0.132787
-0.128778
-0.124858
-0.120925
-0.116894
-0.112697
-0.108295
-0.103668
-0.0988246
-0.0938466
-0.0888781
-0.0841176
-0.0797168
-0.0800448
-0.0834603
-0.0854772
-0.0880248
-0.0904861
-0.092402
-0.0936325
-0.0959863
-0.0947593
-0.0973825
-0.0985642
-0.100974
-0.0997838
-0.0754401
0.159622
0.159008
0.182902
0.17661
0.0324715
-0.00190427
0.00313801
-0.00619411
-0.00537336
-0.00535136
-0.00727313
-0.022611
-0.0245935
-0.262141
-0.257694
-0.242868
-0.238257
-0.223821
-0.206716
-0.216248
-0.194881
-0.232589
-0.249338
-0.253231
-0.184317
-0.174746
-0.166178
-0.158551
-0.151808
-0.145863
-0.140625
-0.135968
-0.131748
-0.127823
-0.124054
-0.120315
-0.116508
-0.112549
-0.108387
-0.103982
-0.0993187
-0.0944308
-0.0894306
-0.0845029
-0.0798415
-0.0753813
-0.0756262
-0.0790933
-0.0813149
-0.083666
-0.0854941
-0.0876146
-0.088791
-0.0911557
-0.0899534
-0.0924838
-0.0936509
-0.0960005
-0.0948314
-0.0710992
0.137542
0.133334
0.152206
0.14503
0.0346563
0.00173418
0.00538611
-0.00497546
-0.010336
-0.00970874
-0.00467953
-0.00692655
-0.00912852
-0.0119319
-0.00725222
-0.0038565
-0.242093
-0.23796
-0.224876
-0.221475
-0.20916
-0.194051
-0.202692
-0.217829
-0.214185
-0.183709
-0.234191
-0.229843
-0.248312
-0.174295
-0.165804
-0.158174
-0.151356
-0.145291
-0.139912
-0.135136
-0.130852
-0.126945
-0.123271
-0.119696
-0.116098
-0.112376
-0.108464
-0.104306
-0.0998662
-0.0951472
-0.0902071
-0.0851892
-0.0802858
-0.0755701
-0.0710706
-0.0712835
-0.0747088
-0.0768804
-0.0792016
-0.0814219
-0.0832462
-0.0843202
-0.0856991
-0.0854877
-0.0881881
-0.0888597
-0.0911504
-0.0900408
-0.0669103
0.114103
0.10756
0.123649
0.117727
0.0344676
0.00493618
0.0072936
-0.00337029
-0.0098028
-0.0142625
-0.0120366
-0.00959384
-0.0134034
-0.00663805
-0.00586952
-0.00459154
-0.00724901
-0.00587451
-0.241165
-0.23792
-0.220731
-0.210048
-0.206829
-0.196312
-0.182949
-0.190382
-0.203925
-0.201017
-0.217573
-0.214253
-0.173742
-0.165397
-0.157838
-0.151027
-0.144908
-0.139429
-0.134535
-0.130154
-0.126201
-0.122559
-0.119094
-0.115676
-0.112181
-0.108519
-0.104621
-0.100435
-0.095938
-0.0911483
-0.0861466
-0.08109
-0.0761099
-0.0713237
-0.0668945
-0.0670933
-0.0704227
-0.0725473
-0.074838
-0.0769842
-0.0787679
-0.0798455
-0.0820221
-0.0809319
-0.0832895
-0.0844089
-0.0854647
-0.0859591
-0.0628468
0.0897095
0.0821021
0.0973395
0.0941786
0.0326122
0.0072951
0.0084351
-0.00184636
-0.00930698
-0.0138136
-0.0178844
-0.0159762
-0.0139201
-0.0128671
-0.0119572
-0.0107686
-0.00845589
-0.0159215
-0.00501996
-0.00617502
-0.00509894
-0.00761056
-0.209184
-0.206379
-0.197148
-0.194166
-0.184836
-0.17306
-0.179794
-0.189887
-0.203812
-0.201562
-0.164896
-0.157471
-0.15073
-0.144627
-0.139106
-0.134134
-0.129658
-0.12563
-0.121964
-0.11855
-0.115262
-0.111966
-0.108548
-0.104915
-0.101
-0.0967622
-0.0921876
-0.0873099
-0.0822226
-0.0770552
-0.0719704
-0.0671893
-0.0628396
-0.063027
-0.0662603
-0.0683382
-0.0705635
-0.0726646
-0.0744142
-0.0754873
-0.0776048
-0.07653
-0.0788353
-0.0798957
-0.0820721
-0.0809875
-0.0833368
-0.0843552
-0.0848207
-0.0858581
-0.0588904
0.0656799
0.057678
0.0736746
0.0741316
0.0298489
0.00882267
0.00879841
-0.000735045
-0.0087669
-0.0134254
-0.0176574
-0.0223287
-0.0190396
-0.0174236
-0.0166011
-0.0159432
-0.0149545
-0.0137884
-0.0130193
-0.0121223
-0.0110196
-0.00662022
-0.0165186
-0.0054487
-0.0065526
-0.00560232
-0.196321
-0.193531
-0.184121
-0.174772
-0.164276
-0.170186
-0.179569
-0.188295
-0.191166
-0.200914
-0.157024
-0.150403
-0.144365
-0.138864
-0.133868
-0.129331
-0.125234
-0.121515
-0.118101
-0.114888
-0.111744
-0.108546
-0.105175
-0.101544
-0.0975882
-0.0932747
-0.0886005
-0.0836074
-0.0783806
-0.0730698
-0.0679237
-0.0631703
-0.0588754
-0.0589472
-0.0622036
-0.0642376
-0.0664061
-0.0684566
-0.0701491
-0.0712027
-0.0732803
-0.0722177
-0.0744848
-0.0755378
-0.0776644
-0.0766028
-0.0789066
-0.0799306
-0.0821034
-0.0810557
-0.0550088
0.0431201
0.0357485
0.0534558
0.0576125
0.02683
0.00975065
0.00863113
-5.60044e-05
-0.00818677
-0.0129251
-0.0171543
-0.021047
-0.0199191
-0.0221644
-0.0229477
-0.0192561
-0.018779
-0.0183799
-0.017346
-0.0166185
-0.0160849
-0.0151855
-0.0140447
-0.195648
-0.193554
-0.184829
-0.182403
-0.174108
-0.165781
-0.156458
-0.161738
-0.169837
-0.177672
-0.181025
-0.149999
-0.144066
-0.138631
-0.133664
-0.12911
-0.124974
-0.121206
-0.117767
-0.114578
-0.111535
-0.108513
-0.105388
-0.102041
-0.0983884
-0.094369
-0.0899566
-0.0851543
-0.080003
-0.0746017
-0.0691692
-0.0639849
-0.0592392
-0.0550006
-0.055173
-0.0574056
-0.0601571
-0.0623807
-0.0643595
-0.0660044
-0.0670342
-0.0690583
-0.06802
-0.0702194
-0.0712507
-0.0733379
-0.072291
-0.074557
-0.0755724
-0.0777041
-0.0766751
-0.0512404
0.0182187
0.0189168
0.0378231
0.0449046
0.0240768
0.0102737
0.00814142
0.000256573
-0.00763717
-0.0123633
-0.0164952
-0.0199882
-0.0197155
-0.0216868
-0.0206635
-0.020575
-0.022235
-0.0214952
-0.0264294
-0.01941
-0.019229
-0.0190502
-0.0186342
-0.017606
-0.174776
-0.172579
-0.165251
-0.157831
-0.149456
-0.154003
-0.161481
-0.16845
-0.170685
-0.17734
-0.18056
-0.143692
-0.138357
-0.133459
-0.128933
-0.124796
-0.121005
-0.11754
-0.114349
-0.111356
-0.108463
-0.105543
-0.10247
-0.0991291
-0.0954334
-0.091327
-0.0867878
-0.0818206
-0.0764783
-0.0709054
-0.0653645
-0.0601306
-0.0554036
-0.0512529
-0.0552677
-0.051424
-0.0590894
-0.0603307
-0.0619782
-0.062976
-0.0649452
-0.0639316
-0.0660743
-0.0670818
-0.0691139
-0.068093
-0.0702905
-0.0712844
-0.0733765
-0.0723628
-0.0476148
-0.0112123
0.0103592
0.0277242
0.0362794
0.0219509
0.0105245
0.00746031
0.000266833
-0.00719852
-0.0118436
-0.0158342
-0.0191771
-0.0196709
-0.0218959
-0.0228001
-0.0225076
-0.0216129
-0.026543
-0.021027
-0.0209745
-0.02081
-0.0211466
-0.0274926
-0.0191462
-0.174346
-0.172422
-0.165853
-0.163834
-0.157368
-0.148728
-0.143222
-0.153579
-0.160029
-0.162434
-0.168274
-0.170411
-0.138012
-0.133211
-0.128745
-0.124646
-0.120861
-0.11739
-0.114192
-0.111224
-0.108407
-0.105644
-0.102809
-0.0997758
-0.0964214
-0.0926627
-0.0884436
-0.0837453
-0.0785821
-0.0730384
-0.0672959
-0.0616412
-0.0563653
-0.0516772
-0.0476249
-0.0516211
-0.0545953
-0.0566252
-0.0478127
-0.0588131
-0.0608451
-0.0594599
-0.062051
-0.0630186
-0.0650003
-0.0640022
-0.0661438
-0.0671149
-0.0691517
-0.0681636
-0.0440861
0.0110684
0.022793
0.0314857
0.0205594
0.0105693
0.00667621
4.23804e-05
-0.00691462
-0.011443
-0.0152601
-0.0185011
-0.0195966
-0.0217738
-0.025239
-0.0251155
-0.0262402
-0.0250292
-0.0229977
-0.0225296
-0.0222722
-0.0221097
-0.0215772
-0.0262353
-0.165472
-0.163573
-0.157942
-0.156167
-0.149804
-0.14266
-0.146932
-0.13758
-0.153407
-0.159712
-0.16258
-0.132897
-0.128513
-0.124478
-0.12073
-0.117277
-0.114087
-0.111132
-0.108358
-0.105698
-0.103052
-0.100295
-0.0972851
-0.093903
-0.0900591
-0.0856999
-0.0808134
-0.075437
-0.0696827
-0.0637664
-0.0579976
-0.052692
-0.0480546
-0.0440884
-0.0480656
-0.0509509
-0.0527434
-0.0542498
-0.0552445
-0.0561614
-0.0571319
-0.044291
-0.0582078
-0.0592229
-0.0605533
-0.0609974
-0.0621092
-0.0630485
-0.0650379
-0.0640708
-0.0406434
0.0207156
0.0294282
0.0196457
0.0103872
0.00583884
-0.000356421
-0.00679869
-0.0111987
-0.0148355
-0.0179537
-0.0194665
-0.0215343
-0.0242155
-0.0247886
-0.0254995
-0.0265366
-0.0260825
-0.025629
-0.0234533
-0.0252025
-0.157605
-0.155628
-0.150184
-0.148611
-0.143626
-0.137058
-0.140755
-0.147292
-0.146407
-0.13251
-0.154102
-0.15232
-0.159456
-0.162191
-0.128219
-0.124267
-0.120576
-0.117164
-0.114001
-0.111063
-0.108317
-0.105723
-0.103209
-0.100673
-0.0979796
-0.0949847
-0.0915583
-0.087607
-0.083081
-0.0779852
-0.0723809
-0.0664056
-0.0603083
-0.0544336
-0.0491106
-0.0445202
-0.0406355
-0.0445545
-0.0473999
-0.049158
-0.0506345
-0.0515515
-0.0523471
-0.0532238
-0.040859
-0.0603041
-0.0609932
-0.037293
0.0287223
0.0187373
0.00989544
0.00495763
-0.000892536
-0.00685593
-0.011122
-0.01459
-0.017563
-0.0193188
-0.021288
-0.0236702
-0.0243811
-0.0247587
-0.0253116
-0.0258224
-0.0254419
-0.025742
-0.0266739
-0.0262842
-0.0256202
-0.157325
-0.155702
-0.143855
-0.142543
-0.137904
-0.132055
-0.135358
-0.141299
-0.139877
-0.14631
-0.12785
-0.123997
-0.120378
-0.117024
-0.113906
-0.110997
-0.108278
-0.105728
-0.1033
-0.100921
-0.0984875
-0.0958516
-0.0928621
-0.0893737
-0.0852919
-0.0805773
-0.0752535
-0.0694043
-0.0631961
-0.0569203
-0.0509468
-0.0456106
-0.0410693
-0.037277
-0.0411262
-0.0439043
-0.0456313
-0.0470857
-0.0479885
-0.0487749
-0.0496299
-0.0375276
-0.0340452
0.0176141
0.00901487
0.00401498
-0.00155119
-0.00709406
-0.0112159
-0.0145281
-0.0173445
-0.0192052
-0.0210555
-0.0231518
-0.0239662
-0.024226
-0.0239249
-0.0245614
-0.0256459
-0.0260495
-0.0263184
-0.025393
-0.0255871
-0.0258445
-0.026846
-0.0263935
-0.143313
-0.142336
-0.138234
-0.136943
-0.132885
-0.127394
-0.130474
-0.135801
-0.134486
-0.141217
-0.139842
-0.123663
-0.120125
-0.116841
-0.113779
-0.110914
-0.108229
-0.105716
-0.103343
-0.101068
-0.0988223
-0.0964828
-0.093902
-0.0909041
-0.0873352
-0.0831028
-0.0781794
-0.0726069
-0.066495
-0.0600495
-0.0535948
-0.0475317
-0.0421894
-0.0377146
-0.0340341
-0.0378076
-0.0404967
-0.0421822
-0.0435967
-0.0444806
-0.0452533
-0.0460955
-0.0342873
-0.0309387
0.00789642
0.00296442
-0.0023359
-0.00751754
-0.0114805
-0.0146405
-0.0172958
-0.0191658
-0.0208742
-0.0226762
-0.0235113
-0.0237539
-0.0236151
-0.0240137
-0.0242789
-0.0243039
-0.0246251
-0.0262648
-0.0279049
-0.0250194
-0.0242378
-0.0257556
-0.0259774
-0.137888
-0.136725
-0.133386
-0.131835
-0.128056
-0.123269
-0.125948
-0.130904
-0.129809
-0.135683
-0.134292
-0.119808
-0.116603
-0.113608
-0.110798
-0.108155
-0.105683
-0.103351
-0.101143
-0.0990202
-0.0968961
-0.0946554
-0.0921183
-0.0890983
-0.0854324
-0.0810295
-0.075873
-0.0700311
-0.0636444
-0.056955
-0.0503293
-0.0441851
-0.0388598
-0.0344776
-0.0309485
-0.0346061
-0.037191
-0.0388342
-0.0401987
-0.0410588
-0.0418127
-0.0426353
-0.0311257
-0.0280888
0.00189892
-0.00328347
-0.00812555
-0.0119047
-0.014911
-0.0174023
-0.019223
-0.0207805
-0.0223096
-0.0231118
-0.0233712
-0.0233692
-0.0237085
-0.0240609
-0.0243416
-0.0243258
-0.024534
-0.0245058
-0.0246652
-0.024824
-0.0293673
-0.0239773
-0.0244216
-0.0260451
-0.133476
-0.131492
-0.127637
-0.123869
-0.119426
-0.122012
-0.125691
-0.130757
-0.129298
-0.116305
-0.113387
-0.110638
-0.108045
-0.105621
-0.103329
-0.10117
-0.0991226
-0.0971411
-0.0951456
-0.092991
-0.0904904
-0.0874354
-0.0836541
-0.0790547
-0.0736426
-0.0675134
-0.06084
-0.0539076
-0.0471175
-0.0409154
-0.0356376
-0.0313916
-0.0280587
-0.0313707
-0.0340058
-0.0355941
-0.0369033
-0.0377406
-0.038474
-0.0392747
-0.0283222
-0.00429801
-0.00894018
-0.0124793
-0.0153173
-0.017645
-0.0193813
-0.0207907
-0.0220793
-0.0228141
-0.0230845
-0.0231632
-0.0234588
-0.023797
-0.0240762
-0.024341
-0.0243211
-0.024546
-0.0245244
-0.024672
-0.0247631
-0.024746
-0.02471
-0.0248452
-0.0247918
-0.0300679
-0.133262
-0.131351
-0.127976
-0.126944
-0.123543
-0.119999
-0.115945
-0.118205
-0.121896
-0.12501
-0.126073
-0.130617
-0.129377
-0.113112
-0.110431
-0.107895
-0.105524
-0.103275
-0.101159
-0.0991645
-0.0972695
-0.0954317
-0.0935545
-0.0914851
-0.0890094
-0.085903
-0.0819806
-0.0771621
-0.0714729
-0.0650389
-0.058072
-0.0508997
-0.0439652
-0.0377369
-0.0325465
-0.0284629
-0.0286016
-0.0308484
-0.0322691
-0.033746
-0.0345439
-0.0352295
-0.0360153
-0.00984314
-0.013214
-0.0158396
-0.018
-0.0196335
-0.0209047
-0.0219881
-0.0226334
-0.0228923
-0.0230002
-0.0232408
-0.0235391
-0.0238064
-0.0243007
-0.0242897
-0.024252
-0.0245223
-0.0245153
-0.0246778
-0.0247049
-0.0246779
-0.0246706
-0.024771
-0.0248502
-0.024858
-0.0248403
-0.123732
-0.122749
-0.119668
-0.116454
-0.112789
-0.114836
-0.117987
-0.120888
-0.122565
-0.110178
-0.107698
-0.105387
-0.103188
-0.101116
-0.0991647
-0.0973242
-0.0955805
-0.0938802
-0.0921224
-0.0901273
-0.0876626
-0.0844819
-0.0803963
-0.0753339
-0.069346
-0.0625934
-0.0553297
-0.0479289
-0.0408782
-0.0346626
-0.0295854
-0.0280447
-0.0294853
-0.0306049
-0.0313804
-0.0318759
-0.0328738
-0.0139993
-0.0164894
-0.0184549
-0.0199672
-0.0211116
-0.0220239
-0.0225732
-0.022798
-0.0228927
-0.0230616
-0.0232821
-0.0234763
-0.0236953
-0.0225948
-0.0249488
-0.0242931
-0.0243434
-0.0244319
-0.0246713
-0.0246673
-0.0246568
-0.0246728
-0.0247642
-0.0247835
-0.0247581
-0.0247529
-0.119871
-0.119023
-0.116185
-0.113297
-0.109895
-0.111746
-0.114624
-0.117408
-0.118276
-0.120695
-0.122472
-0.107449
-0.105209
-0.103063
-0.101041
-0.0991326
-0.0973331
-0.0956455
-0.0940475
-0.0924869
-0.0908374
-0.0889056
-0.086433
-0.083156
-0.0788809
-0.073549
-0.0672442
-0.0601638
-0.052608
-0.0449989
-0.0378626
-0.0316862
-0.0277873
-0.0285074
-0.0291892
-0.0298885
-0.0306617
-0.0314074
-0.0316077
-0.0171701
-0.0190179
-0.0203722
-0.0213935
-0.0221664
-0.0226237
-0.0228014
-0.0228537
-0.0229366
-0.023056
-0.0231466
-0.0231704
-0.0223303
-0.0222728
-0.022723
-0.0230084
-0.0258372
-0.0241536
-0.0245282
-0.0245035
-0.0245914
-0.024625
-0.0247572
-0.0247519
-0.0247429
-0.0247505
-0.119691
-0.118937
-0.116403
-0.115598
-0.113117
-0.110337
-0.10712
-0.108964
-0.111555
-0.114045
-0.114841
-0.117309
-0.118145
-0.104987
-0.102899
-0.100931
-0.0990692
-0.09731
-0.0956615
-0.0941208
-0.0926703
-0.0912381
-0.0896894
-0.0878054
-0.0853026
-0.0819029
-0.0774116
-0.0717878
-0.0651502
-0.057737
-0.0498997
-0.0421093
-0.0349162
-0.0278786
-0.0270472
-0.0285798
-0.0292121
-0.0298852
-0.0196018
-0.0208621
-0.0217419
-0.0223924
-0.0227657
-0.0228909
-0.022888
-0.0228778
-0.0228856
-0.0228655
-0.0227648
-0.0221111
-0.0219623
-0.0220427
-0.0224872
-0.0226996
-0.0229161
-0.0228995
-0.0240522
-0.0273775
-0.024282
-0.0237174
-0.0246387
-0.0246374
-0.0246936
-0.024714
-0.116242
-0.115498
-0.113145
-0.112735
-0.110133
-0.106677
-0.104736
-0.108425
-0.111041
-0.111765
-0.113904
-0.114704
-0.102694
-0.100786
-0.0989758
-0.0972577
-0.0956457
-0.0941417
-0.092749
-0.091436
-0.0901269
-0.0886656
-0.0868072
-0.08425
-0.0807016
-0.0759673
-0.0700309
-0.0630489
-0.0553046
-0.0472006
-0.0392515
-0.0270527
-0.0213595
-0.0221647
-0.0226867
-0.0229764
-0.0230483
-0.0229882
-0.0228888
-0.0227861
-0.022657
-0.0224609
-0.0219254
-0.0217095
-0.0217403
-0.0216703
-0.022169
-0.0223687
-0.0226873
-0.0228878
-0.0230696
-0.0231624
-0.023198
-0.0229296
-0.0281536
-0.0246384
-0.0234779
-0.112862
-0.112906
-0.110334
-0.109759
-0.10707
-0.104474
-0.105862
-0.102439
-0.108399
-0.11093
-0.111467
-0.100598
-0.09885
-0.0971786
-0.0956037
-0.0941318
-0.0927717
-0.0915183
-0.090339
-0.0891401
-0.0877457
-0.0858915
-0.083255
-0.0795293
-0.074525
-0.0682576
-0.0609249
-0.0528585
-0.0445058
-0.0225889
-0.0230497
-0.02324
-0.0232534
-0.02314
-0.0229633
-0.0227619
-0.0225308
-0.0222508
-0.0217735
-0.0215002
-0.0214637
-0.0213551
-0.0211376
-0.0222547
-0.0219214
-0.0223442
-0.022521
-0.0227508
-0.0228847
-0.0230515
-0.0229558
-0.112877
-0.110164
-0.109193
-0.107231
-0.106616
-0.104879
-0.102133
-0.103566
-0.106037
-0.105424
-0.100366
-0.108685
-0.108026
-0.11086
-0.111311
-0.0986915
-0.0970719
-0.0955393
-0.0940978
-0.0927647
-0.091541
-0.0904228
-0.0893643
-0.0882588
-0.0869123
-0.0850385
-0.0822926
-0.0783612
-0.0730632
-0.0664519
-0.0587659
-0.0503852
-0.0234092
-0.0235568
-0.0234948
-0.0233277
-0.0230882
-0.0228053
-0.0224864
-0.0221303
-0.0216663
-0.0213382
-0.0212197
-0.0210805
-0.0208767
-0.020648
-0.0212775
-0.0215195
-0.0225381
-0.0234447
-0.0218948
-0.0224129
-0.0225491
-0.0226774
-0.0225909
-0.110046
-0.109306
-0.104744
-0.104679
-0.102399
-0.100087
-0.101394
-0.103626
-0.103139
-0.0985021
-0.0969308
-0.0954504
-0.0940446
-0.0927368
-0.091534
-0.0904427
-0.0894482
-0.0884963
-0.0874665
-0.0861441
-0.084222
-0.0813416
-0.0771746
-0.071565
-0.064599
-0.056561
-0.0238613
-0.0237736
-0.0235427
-0.0232479
-0.0229021
-0.0225132
-0.0220916
-0.021612
-0.0212266
-0.021016
-0.020826
-0.0206166
-0.020434
-0.0204561
-0.0207888
-0.0209865
-0.0213429
-0.0214818
-0.0215862
-0.0218155
-0.0224732
-0.0207605
-0.0221571
-0.0220183
-0.104685
-0.102503
-0.101997
-0.100346
-0.0982943
-0.0994043
-0.101544
-0.101043
-0.103497
-0.103119
-0.0967514
-0.0953305
-0.0939701
-0.0926939
-0.0915089
-0.090433
-0.0894629
-0.0885788
-0.0877176
-0.0867409
-0.0854192
-0.0834242
-0.0803788
-0.0759494
-0.0700092
-0.0626814
-0.0240313
-0.0237872
-0.0234342
-0.0230367
-0.0225951
-0.0221203
-0.0216118
-0.0211667
-0.0208615
-0.0206042
-0.0203602
-0.0201794
-0.0201467
-0.0199478
-0.020614
-0.0205669
-0.0208646
-0.0209618
-0.0210937
-0.0211717
-0.0214327
-0.02157
-0.0216873
-0.0219231
-0.0225609
-0.0216745
-0.102359
-0.1019
-0.100453
-0.0999818
-0.0984933
-0.0965266
-0.0976915
-0.0995296
-0.099066
-0.101489
-0.100993
-0.0951675
-0.0938648
-0.0926341
-0.0914721
-0.0904073
-0.0894468
-0.088586
-0.0877975
-0.0870068
-0.0860635
-0.0847164
-0.0826228
-0.0793797
-0.0746669
-0.068381
-0.0240074
-0.0236476
-0.023199
-0.0227135
-0.0221992
-0.0216587
-0.0211576
-0.0207628
-0.0204275
-0.020129
-0.0199037
-0.0197739
-0.0194459
-0.0185318
-0.0196756
-0.0207038
-0.0205178
-0.0206022
-0.0206599
-0.02069
-0.0209409
-0.0210553
-0.021172
-0.0212557
-0.0215063
-0.0216423
-0.0217664
-0.0220221
-0.100322
-0.099885
-0.0985575
-0.0981076
-0.0967355
-0.0949667
-0.0959468
-0.09794
-0.0972359
-0.0994763
-0.0990024
-0.0937231
-0.0925495
-0.0914215
-0.0903728
-0.0894162
-0.0885604
-0.0877948
-0.0870848
-0.0863457
-0.0854116