/*--------------------------------*- C++ -*----------------------------------*\
| =========                 |                                                 |
| \\      /  F ield         | OpenFOAM: The Open Source CFD Toolbox           |
|  \\    /   O peration     | Version:  v1912                                 |
|   \\  /    A nd           | Website:  www.openfoam.com                      |
|    \\/     M anipulation  |                                                 |
\*---------------------------------------------------------------------------*/
FoamFile
{
    version     2.0;
    format      ascii;
    class       volScalarField;
    location    "220";
    object      p;
}
// * * * * * * * * * * * * * * * * * * * * * * * * * * * * * * * * * * * * * //

dimensions      [0 2 -2 0 0 0 0];


internalField   nonuniform List<scalar> 
3673
(
0.00169238
0.00193723
0.00153896
0.00218166
0.00177412
0.00139363
0.00239483
0.00201144
0.0016232
0.00126032
0.00258406
0.00222199
0.00185275
0.00148366
0.00114004
0.00273859
0.00241209
0.00205756
0.00171223
0.00135909
0.00102428
0.00284683
0.00256745
0.00224642
0.00191557
0.00158004
0.00123792
0.000919279
0.00289387
0.00267713
0.00240492
0.0020974
0.00177447
0.00145205
0.00112805
0.000822874
0.00287247
0.0027301
0.00252046
0.00225312
0.00195516
0.00164525
0.00133948
0.00102842
0.00073119
0.00278545
0.00272085
0.00258668
0.00237505
0.00211014
0.00182246
0.00152822
0.00123359
0.000930173
0.000651211
0.00264299
0.00264183
0.00259712
0.00245098
0.00222728
0.00197223
0.00169891
0.00141724
0.0011339
0.000846341
0.00057542
0.00246463
0.00249329
0.00254828
0.00247928
0.00230429
0.00208771
0.00184434
0.00158559
0.00131512
0.00104373
0.000766418
0.000507367
0.00230188
0.00226674
0.0024473
0.00246539
0.00233779
0.00215813
0.00195253
0.00172359
0.0014756
0.00121645
0.000960897
0.000693353
0.000439724
0.00222858
0.00197146
0.00229077
0.00241574
0.00232688
0.00217966
0.00201681
0.00182587
0.00161194
0.00137648
0.0011343
0.000883224
0.000624534
0.000383393
0.00170289
0.00199377
0.00225028
0.00203814
0.00234893
0.00227671
0.00215459
0.0020317
0.00188529
0.0017138
0.00150908
0.00128682
0.00104808
0.000809462
0.000563959
0.000332081
0.00170712
0.00140585
0.0018693
0.00200938
0.00213117
0.00226317
0.00226059
0.00219236
0.00208061
0.00199544
0.0018954
0.00176794
0.00160149
0.0014101
0.0011969
0.000973182
0.000744859
0.000507294
0.000288098
0.00209654
0.00185838
0.00141356
0.00133609
0.00191637
0.00183787
0.00198602
0.00208049
0.00219227
0.00195132
0.00208597
0.00196283
0.0019128
0.00185592
0.00177273
0.0016514
0.00149993
0.00131962
0.00111915
0.000904399
0.00068616
0.000460414
0.000249509
0.00192136
0.00183906
0.00189335
0.00182259
0.000961679
0.00115515
0.00183489
0.00194542
0.00175813
0.00181195
0.00188506
0.00205755
0.00200148
0.00218093
0.00191169
0.00181501
0.00179121
0.00177277
0.00172865
0.00165364
0.00154614
0.00140629
0.0012361
0.00104427
0.000842915
0.000634199
0.000417841
0.000217082
0.0016502
0.00165807
0.00166867
0.00167371
0.00184631
0.00184944
0.00177137
0.000316647
0.00145421
0.00255911
0.00204679
0.0018309
0.00184743
0.00175063
0.00182489
0.00202075
0.00193694
0.00211263
0.00187953
0.00163622
0.00165136
0.00164142
0.00160773
0.00154365
0.00144826
0.00131649
0.00115816
0.000979016
0.000781243
0.000588556
0.000381901
0.000192118
0.00147128
0.00148069
0.00150442
0.00152101
0.00156471
0.00156136
0.00154425
0.00167235
0.00167178
0.00177607
0.00208036
-0.000995457
0.00288748
0.00228833
0.00170161
0.00171632
0.00174413
0.00199043
0.00205956
0.00150018
0.00151866
0.00151732
0.00149336
0.00144319
0.00135482
0.00123355
0.00108342
0.000911482
0.00073633
0.000548612
0.000353311
0.000171856
0.0013336
0.00132122
0.00135909
0.00137083
0.00142894
0.00143663
0.001442
0.00148689
0.0014873
0.00149687
0.00152088
0.00161845
0.00157196
-0.00350246
0.00136932
0.00139088
0.00140336
0.00139275
0.00134772
0.0012683
0.00115493
0.00101435
0.000861933
0.000690114
0.000514974
0.000329191
0.000160032
0.00120151
0.00118112
0.0012216
0.00121943
0.00127879
0.00128506
0.00130755
0.00137009
0.00135106
0.00138209
0.00141709
0.00144937
0.0014402
0.00124434
0.00128184
0.00130191
0.00129636
0.00125845
0.00118542
0.00108124
0.000956635
0.000810736
0.000654945
0.000490772
0.000315151
0.000150091
0.00108
0.00104875
0.00108962
0.0010823
0.00113936
0.00113306
0.00116114
0.00122553
0.00119801
0.00123276
0.0012799
0.00133189
0.00131047
0.00113657
0.00117762
0.00120352
0.0012059
0.00117244
0.00110593
0.00101403
0.000900379
0.000771088
0.000624046
0.000470612
0.000303368
0.000152762
0.000972525
0.000925828
0.000971267
0.000952659
0.00100464
0.000994318
0.00102129
0.00108219
0.0010535
0.00108153
0.0011294
0.0011849
0.0011579
0.00102888
0.00108143
0.00111432
0.00111625
0.00108891
0.00103128
0.000949659
0.00085096
0.000731686
0.000599532
0.000456236
0.000298651
0.000157676
0.000866844
0.000818896
0.000859919
0.000834514
0.000883183
0.000865527
0.000891834
0.000947717
0.000920498
0.000942848
0.00098484
0.0010383
0.00101552
0.000934849
0.000992149
0.00102571
0.00103561
0.00101009
0.000959637
0.000892257
0.000808035
0.000706973
0.000584234
0.00044819
0.000303995
0.000172453
0.000772875
0.000715827
0.000755021
0.000726352
0.000770606
0.000747674
0.000776372
0.000825616
0.000797871
0.00081476
0.000854845
0.000903075
0.000882746
0.000844139
0.000904874
0.000945439
0.000950953
0.000929585
0.000892872
0.000843781
0.000776447
0.000685068
0.000573484
0.000449455
0.00031373
0.00018318
0.000682512
0.000621777
0.000660623
0.000625166
0.000667383
0.000641619
0.000666038
0.000711994
0.000685889
0.000694697
0.000741086
0.000779642
0.000760751
0.000760361
0.000823564
0.00085932
0.000865955
0.000852536
0.000831757
0.000802566
0.000751083
0.000671854
0.000567567
0.000453445
0.000319196
0.000206425
0.000598532
0.000532801
0.000572409
0.00053267
0.000572264
0.00054312
0.000563313
0.000605855
0.000589345
0.000589754
0.000630728
0.000668562
0.000647162
0.000679716
0.000743565
0.000778712
0.000780395
0.000778737
0.000780138
0.000771904
0.000734085
0.000660014
0.000568
0.000459526
0.000342315
0.000234021
0.000519938
0.000448799
0.000490976
0.000446058
0.000484246
0.000452908
0.000470931
0.000510036
0.000494498
0.000496747
0.000523268
0.000564611
0.000550116
0.000605616
0.000666476
0.000685286
0.000692541
0.000712643
0.000743283
0.000751138
0.000719164
0.000657683
0.000569521
0.000479239
0.000364805
0.000268138
0.000447695
0.000366568
0.000417645
0.000365706
0.000402347
0.00036826
0.000385469
0.000420395
0.000408304
0.000407423
0.000431344
0.000467634
0.000455547
0.00052996
0.000575403
0.000587235
0.000608185
0.000664232
0.000721689
0.000736107
0.000708981
0.000653843
0.000583664
0.0004937
0.000397981
0.000309321
0.00037299
0.000290025
0.000345795
0.000287278
0.000325487
0.000290101
0.00030768
0.000339649
0.000325646
0.000322906
0.000346457
0.000377924
0.000369894
0.000451843
0.000479273
0.000481878
0.000540684
0.000641617
0.000707829
0.000721756
0.000700364
0.000655771
0.000593303
0.000523641
0.000432984
0.000354155
0.000305673
0.000216509
0.000275369
0.000211571
0.000255052
0.000214295
0.000228148
0.000261661
0.000253067
0.000245679
0.00026974
0.000298467
0.00028648
0.000368089
0.000354139
0.00038321
0.000514269
0.000635423
0.000694697
0.000706812
0.000691877
0.000660558
0.000613532
0.000553931
0.000476215
0.000411624
0.000233691
0.000139813
0.00020666
0.000139415
0.00018488
0.000141705
0.000157094
0.00018874
0.000181907
0.000169839
0.000184885
0.000218328
0.000224224
0.000250481
0.000218506
0.000341477
0.000521503
0.000633164
0.000673092
0.000685416
0.000686853
0.000671007
0.000641128
0.000594621
0.000528638
0.000477495
0.00015253
5.84317e-05
0.000138967
6.89561e-05
0.000113937
6.92514e-05
9.03261e-05
0.000122277
0.00010859
9.88794e-05
0.000114943
0.000145522
0.000152898
9.57479e-05
0.000122959
0.000370981
0.000547135
0.000608616
0.000639162
0.000667054
0.000683344
0.000688744
0.000672188
0.000642125
0.000589408
0.000553782
4.71722e-05
-3.14835e-05
7.57096e-05
-1.16625e-05
4.235e-05
-2.28149e-06
2.06997e-05
5.20213e-05
3.96996e-05
2.69773e-05
5.08834e-05
8.13633e-05
7.81035e-05
-0.00012016
0.000173337
0.000448481
0.000524721
0.000560235
0.000604929
0.000649361
0.000688585
0.00071032
0.00071411
0.000693822
0.000662821
0.000640865
-0.000264376
-0.000128156
8.2034e-06
-8.98493e-05
-2.74344e-05
-8.13297e-05
-5.08012e-05
-1.67904e-05
-3.37162e-05
-4.19192e-05
-1.88213e-05
1.05961e-05
1.21347e-05
-0.000118741
0.000350724
0.000430938
0.000456183
0.000508113
0.000571895
0.000638021
0.000694676
0.000737422
0.000754547
0.000768232
0.000744369
0.000740391
-0.000488209
-0.000454902
-0.00010521
-0.000151838
-0.000103026
-0.000169524
-0.000126732
-8.59978e-05
-0.000114965
-0.000116842
-8.79062e-05
-5.8625e-05
-6.03801e-05
0.00025758
0.000340559
0.000337688
0.000386639
0.000459295
0.000542134
0.000627493
0.000706229
0.000769745
0.00082012
0.000837162
0.000840493
0.000853279
0.000131383
-0.000354797
-0.000794645
-0.00018488
-8.49438e-05
-0.000275899
-0.000199922
-0.000168515
-0.000211162
-0.000202693
-0.000166633
-0.000133369
-0.00013581
0.000252753
0.000202577
0.000247738
0.000322373
0.00041183
0.000514302
0.000621911
0.000725823
0.000816455
0.000879038
0.000932809
0.000943971
0.000973763
0.000117913
-2.57129e-05
-7.14261e-06
-0.000458348
-0.0014104
4.12094e-06
-7.352e-05
-0.000196538
-0.000274588
-0.000313338
-0.000259432
-0.000213179
-0.00023615
5.97781e-05
9.72339e-05
0.000173427
0.000262186
0.000367855
0.000487684
0.000618793
0.000749475
0.000864544
0.000963679
0.00102231
0.00106396
0.00112037
-8.0758e-05
-0.000126409
-0.000153876
-0.000167433
4.47726e-06
-4.98848e-05
0.000568349
0.000383079
-0.00226153
-0.000132437
-0.000270609
-0.000298661
-0.000334322
-5.59915e-05
2.47156e-05
0.000106685
0.000203103
0.000320337
0.00046331
0.000620332
0.000780505
0.000927183
0.00104555
0.00114152
0.00120172
0.00128001
-0.000192143
-0.000209475
-0.000216916
-0.00024181
-0.0002465
-0.000278732
-0.000316889
-0.000157338
-0.000196673
9.30023e-05
-0.00448129
-0.000122781
-4.61611e-05
3.47512e-05
0.000139573
0.000275896
0.00044187
0.000628622
0.000820149
0.000999863
0.00114691
0.00127084
0.00135395
0.00145459
-0.000260898
-0.000287744
-0.000283091
-0.000294022
-0.000270916
-0.000287858
-0.000301416
-0.000306898
-0.000288079
-0.000191251
-0.00012307
-3.71181e-05
7.93804e-05
0.000231571
0.000421393
0.000639846
0.000867036
0.00107666
0.00126608
0.00141221
0.00152423
0.00165424
-0.000330931
-0.000361734
-0.000350111
-0.000367087
-0.000336268
-0.000337555
-0.00033933
-0.000306745
-0.000311572
-0.000266887
-0.000199794
-0.000110954
1.32769e-05
0.0001846
0.000404163
0.000657919
0.000920739
0.00117457
0.0013931
0.00157701
0.00171971
0.00187185
-0.000400458
-0.000436034
-0.000415608
-0.000438693
-0.000405835
-0.000420026
-0.000409205
-0.000366258
-0.000381972
-0.000346511
-0.000280763
-0.000189146
-5.52944e-05
0.000139039
0.00039114
0.000681369
0.000988107
0.00128738
0.00154044
0.00176481
0.00192706
0.00210724
-0.000477966
-0.000508357
-0.00048343
-0.000507327
-0.000476709
-0.000490626
-0.000481007
-0.000440753
-0.000455224
-0.000424809
-0.000363223
-0.000272864
-0.000125056
9.48142e-05
0.000380276
0.000715679
0.00107191
0.0014055
0.00171127
0.00195546
0.00216906
0.00236624
-0.00055359
-0.000583073
-0.000556951
-0.00057793
-0.000542942
-0.00056382
-0.000545883
-0.000512082
-0.000526795
-0.000509191
-0.000458006
-0.000364753
-0.00019769
4.94232e-05
0.000375866
0.000756791
0.00115504
0.00154211
0.0018867
0.00219197
0.00243546
0.00268802
-0.000634236
-0.000661419
-0.000629237
-0.00065112
-0.000614299
-0.000630461
-0.000616709
-0.000580974
-0.000595313
-0.000605097
-0.000562181
-0.00046141
-0.000274215
7.63878e-06
0.000375126
0.000804119
0.00125631
0.00170066
0.00209825
0.00245479
0.00275441
0.00303722
-0.000722736
-0.000737111
-0.000704888
-0.000725666
-0.000687667
-0.000702903
-0.000686858
-0.000644808
-0.000664083
-0.000712699
-0.00067464
-0.000558682
-0.000347184
-3.16824e-05
0.000379716
0.000863061
0.00137937
0.00187122
0.00234246
0.00273076
0.00328891
0.0012679
-0.000825705
-0.000819273
-0.000781435
-0.000798355
-0.000762133
-0.000775044
-0.000760627
-0.000722273
-0.000737997
-0.000838676
-0.000796086
-0.000656282
-0.000421324
-7.2168e-05
0.000389286
0.000932464
0.00150405
0.00208282
0.0025595
0.00333605
0.00147894
-0.00095356
-0.000910436
-0.000866082
-0.000875246
-0.000837845
-0.000846877
-0.000833149
-0.000795061
-0.000811139
-0.000982545
-0.000905191
-0.000757707
-0.000502635
-0.000112055
0.000405859
0.00100837
0.00166453
0.00223987
0.00312265
0.00153878
-0.00109508
-0.00111417
-0.000973294
-0.000941567
-0.000910265
-0.00092911
-0.000908565
-0.00087151
-0.000889068
-0.00109876
-0.00101625
-0.000866982
-0.000585207
-0.00014701
0.000426382
0.00111038
0.00176229
0.00272347
0.0013952
-0.0012336
-0.00114007
-0.0014257
-0.000919795
-0.000940392
-0.00101321
-0.000989846
-0.000948763
-0.000969786
-0.00120101
-0.00114355
-0.000986328
-0.000668257
-0.000182181
0.000466803
0.00115678
0.00215552
0.00112543
-0.00132954
-0.00131027
-0.00122282
-0.00140351
-0.00155891
-0.00212237
-0.00371982
0.00138803
-0.00113665
-0.00109928
-0.00103552
-0.00106359
-0.00133373
-0.0012895
-0.00111109
-0.000753756
-0.000204274
0.000463864
0.00144209
0.000770797
-0.00145575
-0.00141746
-0.00135957
-0.00135189
-0.0013538
-0.00133812
-0.00136262
-0.00137844
-0.00136203
-0.000961303
-0.000686469
-0.00149289
-0.00144481
-0.00123737
-0.000833847
-0.000250817
0.000631268
0.000360694
-0.0016132
-0.00155184
-0.00147828
-0.00145196
-0.00142993
-0.00139585
-0.00137602
-0.00138087
-0.001375
-0.00137544
-0.00137386
-0.00143725
-0.00144394
-0.0012789
-0.00166722
-0.0016057
-0.00136824
-0.00091711
-0.000203901
-6.5027e-05
-0.00179295
-0.00170721
-0.00162215
-0.00159362
-0.00155478
-0.00151775
-0.00148844
-0.00147154
-0.00144243
-0.00141703
-0.00139554
-0.00139885
-0.0013933
-0.00140533
-0.00141334
-0.00185164
-0.00177665
-0.00148105
-0.000986798
-0.000471844
-0.00198883
-0.00188455
-0.0017856
-0.00174812
-0.00170317
-0.00166602
-0.00162236
-0.00160724
-0.00157415
-0.00153452
-0.00150484
-0.00148442
-0.00145151
-0.00143284
-0.00140722
-0.00205566
-0.00191742
-0.00165474
-0.000826593
-0.00221742
-0.00208
-0.00196898
-0.00191825
-0.00187299
-0.0018284
-0.00177978
-0.00175842
-0.00171917
-0.00168118
-0.00163793
-0.00161838
-0.00158416
-0.00154841
-0.00151592
-0.00223509
-0.00217736
-0.00110764
-0.0024497
-0.00231513
-0.0021817
-0.00210995
-0.00206235
-0.00201101
-0.00195767
-0.00192618
-0.00188413
-0.00183761
-0.00179659
-0.00176682
-0.00172921
-0.0016899
-0.00165051
-0.00257051
-0.00131243
-0.00290231
-0.00254327
-0.00241349
-0.00233676
-0.00228013
-0.00221745
-0.00216071
-0.00211596
-0.00206585
-0.00201811
-0.0019718
-0.00193222
-0.001895
-0.00184262
-0.00180487
-0.00145243
-0.00167619
-0.00301847
-0.00272177
-0.0025755
-0.00251181
-0.00245588
-0.00239165
-0.00233422
-0.00227846
-0.0022213
-0.00216786
-0.00211466
-0.00207149
-0.00202205
-0.00197697
-0.00159149
-0.00319544
-0.00298057
-0.0028688
-0.00274043
-0.00264894
-0.00257536
-0.00251077
-0.00245232
-0.00239331
-0.00233062
-0.00227692
-0.00222067
-0.00216688
-0.0013659
-0.003304
-0.00335151
-0.00310132
-0.00295138
-0.00284819
-0.00274279
-0.00265331
-0.00255993
-0.00250105
-0.00244271
-0.00238663
-0.00133879
-0.00362824
-0.00336577
-0.00306722
-0.00293339
-0.00282055
-0.00272093
-0.00263261
-0.00164368
-0.00392903
-0.00334499
-0.00305123
-0.0702671
-0.0704914
-0.0694911
-0.0710469
-0.070523
-0.0696853
-0.0689017
-0.0716995
-0.0711906
-0.0703727
-0.0698287
-0.0690669
-0.0682695
-0.0718662
-0.0723604
-0.07172
-0.0700517
-0.0690455
-0.0691956
-0.068409
-0.0675972
-0.0725298
-0.0730464
-0.0727566
-0.0730923
-0.070448
-0.0674418
-0.0677469
-0.0685341
-0.0677359
-0.0669702
-0.0732227
-0.0738091
-0.075524
-0.0731597
-0.0744671
-0.0708249
-0.0678421
-0.0648364
-0.0664323
-0.0678781
-0.0672312
-0.0670956
-0.0663349
-0.0739365
-0.0745235
-0.0783377
-0.0759517
-0.0758783
-0.0735345
-0.0746516
-0.0711654
-0.0682041
-0.0652554
-0.0651449
-0.0623162
-0.0638748
-0.0665906
-0.0659337
-0.0664761
-0.0656861
-0.0751752
-0.0812321
-0.0787849
-0.0787176
-0.0772799
-0.0763277
-0.0760216
-0.075328
-0.0738737
-0.0714665
-0.0685315
-0.0656221
-0.0627236
-0.0652812
-0.0646449
-0.0626277
-0.0598579
-0.061362
-0.0640203
-0.063357
-0.0658203
-0.0650122
-0.0758505
-0.0842244
-0.0816935
-0.0816222
-0.0801568
-0.0791749
-0.0788672
-0.0781597
-0.0774688
-0.0767419
-0.0766614
-0.0741785
-0.0717383
-0.0688257
-0.0659486
-0.0630889
-0.0602602
-0.0651487
-0.0645155
-0.0626915
-0.0619721
-0.0601471
-0.057465
-0.0589337
-0.0610293
-0.0638992
-0.0632384
-0.0643904
-0.0766156
-0.0872825
-0.0846847
-0.0846048
-0.0831071
-0.0820949
-0.0817802
-0.0810573
-0.0803518
-0.0796081
-0.0795184
-0.0786928
-0.0780045
-0.0773409
-0.0769643
-0.0744539
-0.0719789
-0.0690872
-0.0662395
-0.0634121
-0.0606166
-0.0578538
-0.0625588
-0.0618872
-0.0598964
-0.0577465
-0.0551189
-0.0565503
-0.0587072
-0.0606417
-0.0612887
-0.0637609
-0.0631153
-0.0902975
-0.0877098
-0.0876729
-0.0861222
-0.0850844
-0.08477
-0.084032
-0.0833073
-0.0825451
-0.082445
-0.0816039
-0.0809005
-0.0802231
-0.0794797
-0.0798263
-0.0772444
-0.0747026
-0.0721876
-0.0693186
-0.0664975
-0.0637008
-0.0609311
-0.0581978
-0.055488
-0.0624632
-0.0618976
-0.0600241
-0.0594233
-0.0575121
-0.0553848
-0.0528027
-0.0542144
-0.056325
-0.0582384
-0.0588418
-0.0935098
-0.0907658
-0.0907109
-0.0891591
-0.0881094
-0.0878353
-0.0870688
-0.0863167
-0.0855473
-0.0854334
-0.0845953
-0.0838756
-0.08318
-0.0824169
-0.0827593
-0.0801074
-0.0775
-0.0749229
-0.0723598
-0.0695183
-0.0667209
-0.0639569
-0.0612144
-0.0585052
-0.0558279
-0.0531678
-0.057619
-0.0570291
-0.0551402
-0.0530646
-0.0505692
-0.0519205
-0.0539885
-0.0558624
-0.056457
-0.096573
-0.0940148
-0.0939624
-0.0923481
-0.0911952
-0.0908144
-0.090097
-0.0893942
-0.0886178
-0.0884675
-0.0876303
-0.0868968
-0.0861934
-0.0854231
-0.0857469
-0.0830437
-0.0803655
-0.0777288
-0.0751091
-0.0724852
-0.0696781
-0.0669109
-0.064179
-0.0614671
-0.0587844
-0.0561365
-0.0535108
-0.0509287
-0.0552485
-0.0546555
-0.0528907
-0.0508147
-0.0483427
-0.0496914
-0.0517248
-0.0534664
-0.054071
-0.0972853
-0.0972706
-0.0955537
-0.098618
-0.0994367
-0.0944292
-0.0941176
-0.0933361
-0.0925862
-0.0917198
-0.0915712
-0.0891033
-0.0884244
-0.0887898
-0.0860352
-0.0833054
-0.0806022
-0.0779251
-0.0752495
-0.0725568
-0.069787
-0.0670577
-0.0643644
-0.0616892
-0.0590351
-0.0564148
-0.0538224
-0.0512642
-0.0487192
-0.0528702
-0.0525084
-0.0505839
-0.0485868
-0.0461631
-0.0474928
-0.0494609
-0.0512298
-0.0517871
-0.100643
-0.097749
-0.0990263
-0.0974576
-0.0966369
-0.0958305
-0.0949696
-0.100939
-0.100805
-0.0947889
-0.0919073
-0.089087
-0.0863047
-0.0835469
-0.0808094
-0.0780791
-0.0753376
-0.0725744
-0.0698414
-0.0671529
-0.0645026
-0.0618683
-0.0592527
-0.056661
-0.0540988
-0.0515697
-0.0490557
-0.0465407
-0.0524091
-0.0506797
-0.0501244
-0.0483645
-0.0464125
-0.0440394
-0.0453398
-0.0472779
-0.0490304
-0.0495855
-0.0510898
-0.051588
-0.101163
-0.0981042
-0.0999118
-0.100209
-0.0992067
-0.0983273
-0.102815
-0.100955
-0.102571
-0.0951279
-0.0922188
-0.0893713
-0.0865558
-0.0837643
-0.0809778
-0.0781845
-0.0753726
-0.0725422
-0.0698404
-0.0671918
-0.0645849
-0.0619991
-0.0594279
-0.0568745
-0.054343
-0.0518418
-0.0493573
-0.0468766
-0.0444106
-0.0505485
-0.0500046
-0.0484729
-0.0479253
-0.0462003
-0.044285
-0.041963
-0.0432309
-0.0451329
-0.0468482
-0.047395
-0.0489085
-0.0494604
-0.101522
-0.0984504
-0.100884
-0.10004
-0.101917
-0.102813
-0.0954511
-0.0925172
-0.0896394
-0.086788
-0.0839478
-0.081101
-0.0782384
-0.07536
-0.0724654
-0.0697896
-0.0671728
-0.0646062
-0.0620709
-0.0595517
-0.0570446
-0.0545531
-0.0520818
-0.0496273
-0.0471766
-0.0447416
-0.0423259
-0.0483467
-0.0478048
-0.0462995
-0.0457626
-0.0440755
-0.0421996
-0.0399305
-0.0411622
-0.0430265
-0.044707
-0.0452425
-0.0467241
-0.0472665
-0.101873
-0.0987777
-0.101771
-0.100736
-0.102658
-0.0957579
-0.0928038
-0.0898889
-0.0869901
-0.0840895
-0.0811756
-0.0782459
-0.0753025
-0.0723486
-0.0696942
-0.0671029
-0.064568
-0.0620792
-0.0596126
-0.0571586
-0.0547147
-0.0522826
-0.0498624
-0.0474448
-0.0450376
-0.0426502
-0.0402799
-0.0461723
-0.0456413
-0.0441697
-0.0436434
-0.0419888
-0.0401526
-0.0379261
-0.0391316
-0.0409575
-0.0426073
-0.0431325
-0.0445831
-0.0451145
-0.102206
-0.0990935
-0.101614
-0.102484
-0.0960559
-0.0930722
-0.0901102
-0.0871512
-0.0841842
-0.0812037
-0.0782087
-0.0752047
-0.0722022
-0.0695598
-0.0669878
-0.0644779
-0.062023
-0.059605
-0.0572077
-0.0548199
-0.0524369
-0.0500582
-0.0476786
-0.0453024
-0.04294
-0.040596
-0.0382615
-0.0440429
-0.0435224
-0.0420805
-0.041565
-0.0399377
-0.038138
-0.0359591
-0.0371389
-0.0389236
-0.0405484
-0.0410625
-0.0424845
-0.043006
-0.102526
-0.0994033
-0.0963416
-0.0933135
-0.0902939
-0.0872678
-0.0842344
-0.0811872
-0.0781304
-0.0750748
-0.0720303
-0.0693966
-0.0668343
-0.0643423
-0.061913
-0.0595328
-0.057187
-0.0548577
-0.0525333
-0.0502071
-0.0478731
-0.0455351
-0.0432017
-0.0408827
-0.0385767
-0.0362892
-0.0419555
-0.041446
-0.0400312
-0.0395247
-0.037928
-0.0361651
-0.0340372
-0.0351855
-0.0369613
-0.0385225
-0.0390291
-0.040427
-0.0409376
-0.102843
-0.0997026
-0.0966027
-0.0935184
-0.0904334
-0.0873413
-0.0842404
-0.0811294
-0.0780188
-0.0749177
-0.0718519
-0.0692103
-0.0666537
-0.0641693
-0.0617573
-0.0594049
-0.0570982
-0.054823
-0.0525591
-0.0502929
-0.0480173
-0.0457266
-0.0434311
-0.0411404
-0.0388654
-0.0366054
-0.0343693
-0.0399087
-0.0394065
-0.0380079
-0.0375037
-0.0359988
-0.0342309
-0.0321332
-0.0332666
-0.0349973
-0.0365486
-0.0370187
-0.0384005
-0.0389061
-0.103156
-0.099981
-0.0968293
-0.0936803
-0.0905296
-0.0873705
-0.0842042
-0.0810374
-0.0778776
-0.0747504
-0.0716919
-0.0690214
-0.0664531
-0.0639703
-0.0615645
-0.0592299
-0.0569522
-0.0547177
-0.0525092
-0.0503073
-0.0480976
-0.0458664
-0.0436203
-0.0413692
-0.0391253
-0.0368959
-0.0346822
-0.0324741
-0.0378793
-0.0373627
-0.0361147
-0.0355531
-0.0340226
-0.0323187
-0.0302796
-0.031369
-0.0330593
-0.0345873
-0.0350785
-0.0363321
-0.0368403
-0.103453
-0.100229
-0.0970144
-0.0937995
-0.0905811
-0.0873568
-0.0841329
-0.0809142
-0.0777247
-0.0745996
-0.0715824
-0.0688556
-0.0662521
-0.063753
-0.0613466
-0.0590179
-0.0567587
-0.0545539
-0.0523883
-0.0502456
-0.0481029
-0.0459416
-0.0437572
-0.0415585
-0.0393539
-0.0371565
-0.0349697
-0.0327885
-0.0306161
-0.0361341
-0.0353801
-0.0341069
-0.0336251
-0.0321138
-0.0304342
-0.0284728
-0.0294784
-0.0311698
-0.032682
-0.0331612
-0.0344657
-0.0349302
-0.103722
-0.100437
-0.0971566
-0.093874
-0.0905893
-0.0873066
-0.0840289
-0.0807766
-0.077585
-0.0744944
-0.0715541
-0.068742
-0.0660785
-0.0635382
-0.0611124
-0.0587817
-0.0565281
-0.0543424
-0.052208
-0.0501106
-0.0480282
-0.0459396
-0.0438288
-0.0416945
-0.03954
-0.037382
-0.0352276
-0.0330751
-0.0309262
-0.0288179
-0.0361031
-0.035232
-0.0339961
-0.0335222
-0.0322063
-0.0317314
-0.0302327
-0.0285159
-0.0266825
-0.0273999
-0.0292948
-0.0307962
-0.0312709
-0.0325802
-0.0330557
-0.0343529
-0.0348031
-0.103954
-0.100603
-0.097254
-0.0939045
-0.0905602
-0.0872225
-0.0839085
-0.0806506
-0.0774887
-0.0744671
-0.0716262
-0.0687132
-0.0659626
-0.0633538
-0.0608826
-0.058531
-0.0562744
-0.0540941
-0.0519791
-0.0499137
-0.0478789
-0.0458565
-0.0438202
-0.0417607
-0.0396723
-0.0375673
-0.0354518
-0.0333335
-0.0312119
-0.0291096
-0.0270387
-0.0338806
-0.0334143
-0.0321059
-0.0316332
-0.0303231
-0.0298547
-0.0283862
-0.0261238
-0.0249478
-0.027437
-0.0289378
-0.0293974
-0.0306947
-0.0311673
-0.0324686
-0.0329386
-0.104143
-0.100724
-0.0973067
-0.0938963
-0.090495
-0.0871206
-0.0837969
-0.0805657
-0.0774702
-0.0745406
-0.0717986
-0.0687886
-0.0659332
-0.0632287
-0.0606857
-0.0582875
-0.056008
-0.0538237
-0.0517136
-0.0496679
-0.0476676
-0.0456947
-0.043727
-0.0417447
-0.0397342
-0.0376935
-0.0356319
-0.0335553
-0.0314678
-0.0293882
-0.0273268
-0.0252859
-0.0319888
-0.031523
-0.030223
-0.0297532
-0.0284906
-0.028096
-0.0264808
-0.0245392
-0.0255897
-0.0232422
-0.0273205
-0.0288205
-0.0292896
-0.0305817
-0.0310491
-0.104287
-0.100799
-0.0973193
-0.0938508
-0.0904095
-0.0870253
-0.0837248
-0.0805577
-0.0775531
-0.0747184
-0.0720523
-0.0689675
-0.0660082
-0.0631935
-0.0605513
-0.0580797
-0.0557516
-0.053542
-0.0514268
-0.0493859
-0.0474063
-0.045469
-0.0435544
-0.0416427
-0.039712
-0.0377489
-0.0357557
-0.0337334
-0.0316887
-0.0296394
-0.0275984
-0.0255752
-0.0235679
-0.0301061
-0.0296438
-0.0283344
-0.027732
-0.0265711
-0.026128
-0.0247478
-0.0228705
-0.0238904
-0.0256934
-0.0252459
-0.0215525
-0.0274621
-0.027014
-0.0287207
-0.0291765
-0.104384
-0.100832
-0.0972925
-0.0937826
-0.0903279
-0.0869661
-0.0837276
-0.0806516
-0.0777436
-0.0749832
-0.0723508
-0.0692299
-0.0661869
-0.0632637
-0.0605093
-0.0579376
-0.0555334
-0.0532722
-0.0511312
-0.0490841
-0.047109
-0.045193
-0.0433161
-0.0414594
-0.0396016
-0.0377201
-0.0358061
-0.0338528
-0.0318663
-0.0298586
-0.0278444
-0.0258433
-0.0238555
-0.0218695
-0.028271
-0.0278435
-0.0248047
-0.0243849
-0.0230374
-0.0212214
-0.0221859
-0.0239745
-0.0235341
-0.0198922
-0.104437
-0.100825
-0.0972403
-0.0937146
-0.0902791
-0.0869777
-0.0838312
-0.0808543
-0.0780279
-0.0753058
-0.0726447
-0.0695423
-0.0664478
-0.0634346
-0.0605722
-0.0578876
-0.0553831
-0.0530445
-0.0508512
-0.0487752
-0.0467929
-0.0448815
-0.0430272
-0.0412092
-0.0394078
-0.037601
-0.0357688
-0.0338976
-0.0319833
-0.0300308
-0.0280592
-0.0260858
-0.0241187
-0.0221605
-0.0202042
-0.0230915
-0.0226807
-0.0213301
-0.0195832
-0.0205324
-0.0222756
-0.0218376
-0.0182633
-0.104448
-0.100789
-0.0971849
-0.0936761
-0.0902996
-0.0870876
-0.0840439
-0.0811525
-0.0783766
-0.0756594
-0.072929
-0.0698721
-0.0667553
-0.0636829
-0.0607339
-0.0579448
-0.0553303
-0.0528896
-0.0506164
-0.048484
-0.0464718
-0.0445521
-0.0427022
-0.0409071
-0.0391457
-0.0373972
-0.0356414
-0.033855
-0.0320243
-0.0301456
-0.0282284
-0.0262939
-0.024355
-0.0224238
-0.0204965
-0.0185763
-0.0213776
-0.0209372
-0.0197689
-0.01792
-0.0188469
-0.0205029
-0.0200542
-0.0166451
-0.104428
-0.100747
-0.0971543
-0.0937015
-0.0904161
-0.087304
-0.0843485
-0.081512
-0.0787528
-0.0760273
-0.0701997
-0.0724412
-0.0738174
-0.0670729
-0.0639745
-0.0609741
-0.0581049
-0.0553871
-0.0528336
-0.0504571
-0.0482418
-0.0461715
-0.0442201
-0.0423608
-0.0405698
-0.0388318
-0.0371248
-0.0354287
-0.0337196
-0.031976
-0.0301828
-0.0283406
-0.0264612
-0.02456
-0.02266
-0.0207604
-0.0188652
-0.0169627
-0.0199262
-0.0192386
-0.0180391
-0.0162923
-0.0172294
-0.0188776
-0.0184865
-0.0150505
-0.104397
-0.100725
-0.097185
-0.0938183
-0.0906357
-0.0876109
-0.0847094
-0.081884
-0.079104
-0.0754573
-0.0770262
-0.0673616
-0.0696647
-0.0710901
-0.0726135
-0.0738346
-0.0642729
-0.0612612
-0.0583439
-0.0555455
-0.0528881
-0.0504
-0.0480783
-0.0459238
-0.0439126
-0.0420184
-0.0402168
-0.038483
-0.0367999
-0.0351458
-0.0334982
-0.0318348
-0.0301303
-0.0283743
-0.026567
-0.0247249
-0.0228641
-0.0209952
-0.0191269
-0.017252
-0.0153693
-0.0199596
-0.0191044
-0.0180999
-0.0176969
-0.0164318
-0.0147041
-0.0156326
-0.0173062
-0.0168974
-0.0187727
-0.0183962
-0.0134846
-0.104384
-0.100758
-0.0973063
-0.0940399
-0.0909447
-0.0879737
-0.0850797
-0.0822188
-0.0785151
-0.0801034
-0.0756606
-0.0771404
-0.0645483
-0.0668306
-0.0682219
-0.0697471
-0.0712163
-0.0724292
-0.0732143
-0.0746219
-0.0734206
-0.0615587
-0.0586295
-0.0557829
-0.053047
-0.0504547
-0.0480196
-0.0457593
-0.0436606
-0.041703
-0.039866
-0.0381199
-0.0364403
-0.0348103
-0.0332065
-0.0316055
-0.0299835
-0.0283187
-0.0265983
-0.0248285
-0.0230236
-0.0211945
-0.019358
-0.0175127
-0.0156583
-0.013802
-0.0179884
-0.017592
-0.0164934
-0.0160951
-0.0148449
-0.0131415
-0.0140542
-0.0157043
-0.0153001
-0.0172104
-0.0168013
-0.0119417
-0.104422
-0.100878
-0.0975293
-0.0943538
-0.0913117
-0.0883482
-0.085419
-0.0816349
-0.0832516
-0.0786474
-0.0802075
-0.075393
-0.0761193
-0.0775814
-0.0768018
-0.0618353
-0.0640617
-0.065421
-0.0669272
-0.0683216
-0.0694846
-0.070184
-0.0716361
-0.0709189
-0.0723635
-0.0731374
-0.0728147
-0.0589252
-0.0560659
-0.0532836
-0.0506119
-0.0480757
-0.0457014
-0.0434935
-0.0414474
-0.0395452
-0.0377606
-0.0360676
-0.0344412
-0.0328621
-0.0313056
-0.0297495
-0.0281677
-0.0265392
-0.0248559
-0.0231208
-0.0213468
-0.0195522
-0.0177408
-0.0159173
-0.0140877
-0.0122593
-0.0163785
-0.0159856
-0.0148998
-0.0145074
-0.0132759
-0.0115981
-0.0124951
-0.0141206
-0.0137222
-0.0156044
-0.0151998
-0.0104207
-0.104542
-0.101101
-0.0978448
-0.0947277
-0.0916939
-0.0886979
-0.0848309
-0.0864774
-0.0817766
-0.0833708
-0.0783575
-0.0791414
-0.0806711
-0.0798861
-0.0591992
-0.0613657
-0.0626971
-0.0641689
-0.0655349
-0.0666694
-0.0673644
-0.0687518
-0.0680548
-0.0695301
-0.070229
-0.0716527
-0.0709454
-0.056357
-0.0535634
-0.0508465
-0.0482344
-0.045757
-0.0434362
-0.0412805
-0.0392862
-0.0374342
-0.0357007
-0.0340603
-0.032484
-0.0309534
-0.0294433
-0.0279275
-0.0263851
-0.0247928
-0.0231425
-0.0214403
-0.0196996
-0.0179318
-0.0161421
-0.0143424
-0.0125422
-0.0107397
-0.0147839
-0.0143968
-0.0133272
-0.01294
-0.0117255
-0.0100721
-0.0109539
-0.012558
-0.0121646
-0.0140202
-0.0136214
-0.00891802
-0.104764
-0.10142
-0.0982243
-0.0951198
-0.0920555
-0.0881001
-0.0897808
-0.0849772
-0.0866044
-0.0814792
-0.0822767
-0.0838417
-0.0830412
-0.0566267
-0.0587366
-0.0600398
-0.0614728
-0.0628092
-0.0639115
-0.0645949
-0.065956
-0.0652675
-0.0667164
-0.0674076
-0.0688004
-0.068103
-0.0538507
-0.051123
-0.0484676
-0.0459145
-0.0434932
-0.0412238
-0.0391189
-0.0371736
-0.0353702
-0.0336874
-0.0320951
-0.0305678
-0.0290841
-0.0276163
-0.0261414
-0.0246336
-0.0230746
-0.0214586
-0.0197897
-0.0180743
-0.0163249
-0.0145586
-0.0127883
-0.0110177
-0.00923794
-0.0132122
-0.0128299
-0.0117739
-0.0113919
-0.0101909
-0.00856115
-0.00942653
-0.0110136
-0.0106246
-0.0124578
-0.0120637
-0.00743039
-0.105083
-0.101804
-0.0986256
-0.0954936
-0.0914465
-0.0931642
-0.0882501
-0.0899139
-0.0846718
-0.0854861
-0.0870859
-0.0862679
-0.0541156
-0.0561716
-0.0574459
-0.0588415
-0.0601471
-0.0612186
-0.0618871
-0.0632174
-0.0625427
-0.0639555
-0.0646334
-0.0659998