/*--------------------------------*- C++ -*----------------------------------*\
| =========                 |                                                 |
| \\      /  F ield         | OpenFOAM: The Open Source CFD Toolbox           |
|  \\    /   O peration     | Version:  v1912                                 |
|   \\  /    A nd           | Website:  www.openfoam.com                      |
|    \\/     M anipulation  |                                                 |
\*---------------------------------------------------------------------------*/
FoamFile
{
    version     2.0;
    format      ascii;
    class       surfaceScalarField;
    location    "220";
    object      phi;
}
// * * * * * * * * * * * * * * * * * * * * * * * * * * * * * * * * * * * * * //

dimensions      [0 3 -1 0 0 0 0];
oriented        oriented;


internalField   nonuniform List<scalar> 
7191
(
-1.95688e-06
0.00132117
-9.08124e-06
0.00396687
-2.10879e-06
0.00132328
-2.41659e-05
0.00657219
-9.46527e-06
0.00397422
-2.11222e-06
0.0013254
-4.4775e-05
0.00905029
-2.40317e-05
0.00658675
-9.46792e-06
0.00398158
-1.99341e-06
0.00132739
-7.49817e-05
0.0112894
-4.80376e-05
0.0090743
-2.35526e-05
0.00660084
-9.34168e-06
0.00398893
-2.0354e-06
0.00132942
-0.000115651
0.0131528
-7.90063e-05
0.0113204
-4.53296e-05
0.00909608
-2.41664e-05
0.00661566
-9.72487e-06
0.00399662
-1.71927e-06
0.00133114
-0.000161967
0.014513
-0.000119313
0.0131931
-7.88966e-05
0.011354
-4.63116e-05
0.00911822
-2.17477e-05
0.00662768
-8.08385e-06
0.00400298
-1.59547e-06
0.00133274
-0.000206329
0.0152569
-0.000164884
0.0145586
-0.00011766
0.0132319
-7.3221e-05
0.0113809
-4.13895e-05
0.00913786
-1.9552e-05
0.00663915
-7.26484e-06
0.00400865
-1.49182e-06
0.00133423
-0.000249311
0.0153183
-0.000215162
0.0153071
-0.000162227
0.0146031
-0.000112369
0.0132711
-7.06224e-05
0.0114101
-3.7751e-05
0.00915606
-1.82152e-05
0.0066501
-6.64248e-06
0.0040138
-1.16614e-06
0.0013354
-0.000279649
0.0146578
-0.000258229
0.0153614
-0.000211274
0.0153562
-0.000155732
0.0146465
-0.000100864
0.0133013
-6.16607e-05
0.011434
-3.35233e-05
0.00917137
-1.55242e-05
0.00665898
-4.57346e-06
0.00401721
-1.1801e-06
0.00133658
-0.000292342
0.0133134
-0.000300527
0.0147001
-0.000258161
0.0154083
-0.000197632
0.0153981
-0.000136897
0.0146825
-9.19821e-05
0.0133316
-5.4246e-05
0.0114548
-2.99106e-05
0.00918576
-1.41715e-05
0.00666858
-5.19937e-06
0.00402123
-8.47684e-07
0.00133742
-0.000285625
0.0113699
-0.000331635
0.0133445
-0.000297327
0.0147393
-0.000237135
0.0154478
-0.000174194
0.0154354
-0.000122431
0.014713
-7.83837e-05
0.0133558
-4.74929e-05
0.0114723
-2.56422e-05
0.00919723
-1.08947e-05
0.00667428
-4.5786e-06
0.00402496
-7.53224e-07
0.00133818
-0.00024581
0.00895948
-0.000352076
0.0113903
-0.000326802
0.013374
-0.000263538
0.0147657
-0.000200885
0.0154745
-0.000148299
0.0154613
-0.000102303
0.0147369
-6.5713e-05
0.013374
-3.94408e-05
0.0114861
-2.14352e-05
0.00920777
-1.13754e-05
0.00668107
-4.17307e-06
0.00402838
-7.89384e-07
0.00133897
0.00623461
-0.000110032
-5.03147e-05
-0.000357139
0.00896455
-0.000343467
0.011407
-0.000276915
0.0133874
-0.0002165
0.0147813
-0.000166472
0.0154926
-0.000119474
0.0154784
-8.41059e-05
0.0147553
-5.79085e-05
0.0133924
-3.63096e-05
0.011501
-2.06345e-05
0.00921703
-1.02444e-05
0.00668715
-4.01202e-06
0.0040316
-7.74082e-07
0.00133974
0.00622034
-0.000200948
-0.000141919
-0.00211604
0.00206959
-6.35849e-05
-3.2662e-05
-0.00213369
-0.00034932
0.0089704
-0.000268905
0.011399
-0.000210726
0.0133816
-0.000166814
0.0147816
-0.000129377
0.0155025
-0.000101084
0.0154954
-7.35209e-05
0.0147709
-4.77338e-05
0.0134039
-3.0242e-05
0.0115106
-1.74171e-05
0.0092242
-8.69161e-06
0.00669183
-3.8896e-06
0.00403472
-8.41922e-07
0.00134058
0.0062064
-0.000139892
-0.000195493
-0.00203893
0.00201176
-0.000173783
-0.000111252
-0.00139496
0.00135177
-1.5496e-05
-4.90201e-06
-9.11454e-07
-0.00142007
-6.64506e-06
-2.00768e-05
-0.00022806
0.00892955
-0.000183559
0.0113718
-0.000153899
0.0133687
-0.000128543
0.0147808
-0.000105089
0.0155065
-8.05595e-05
0.0155024
-5.74049e-05
0.0147806
-4.22934e-05
0.0134159
-2.77008e-05
0.0115209
-1.88002e-05
0.00923431
-1.02257e-05
0.00669816
-3.4336e-06
0.00403731
-1.08377e-06
0.00134167
0.00612034
-4.1862e-05
-0.000100132
-0.00198774
0.00195703
-0.000109185
-0.000171473
-0.00129713
0.00126314
-8.68612e-05
-5.29352e-05
-1.69702e-05
-3.96344e-05
-0.000438331
0.00042832
-5.48565e-06
-0.000440593
-2.6393e-06
0.000445483
-0.000445627
-7.67382e-07
-3.6028e-06
-6.04751e-08
-1.75537e-06
-0.000125083
0.00887108
-0.000116966
0.0113349
-0.000107385
0.0133475
-9.59089e-05
0.0147716
-7.99259e-05
0.0155059
-6.375e-05
0.0155088
-5.20302e-05
0.0147903
-3.83822e-05
0.0134266
-2.70809e-05
0.0115292
-1.71549e-05
0.00924124
-1.07624e-05
0.00670549
-4.98904e-06
0.00404121
-1.14439e-06
0.00134281
0.00603997
-8.22601e-06
-3.64939e-05
-0.00191131
0.00189374
-2.42927e-05
-5.44073e-05
-0.00123509
0.00118329
-1.69992e-05
-4.03841e-05
-7.99231e-05
-6.35022e-05
-0.000379374
0.000352393
-5.98805e-05
-0.000399146
-3.31634e-05
0.00042053
-9.18027e-06
-1.82497e-05
-0.000257196
0.000252472
-7.61209e-07
-0.000259422
-4.13166e-07
-0.000448168
-1.06141e-06
0.000260902
-0.000261607
-6.21344e-08
-1.88022e-08
-2.75427e-07
-6.69899e-05
0.0088211
-7.45876e-05
0.0113021
-7.60452e-05
0.0133277
-7.23294e-05
0.014764
-6.4823e-05
0.015507
-5.78692e-05
0.0155146
-4.67154e-05
0.0147986
-3.66964e-05
0.0134362
-2.91237e-05
0.0115411
-2.05372e-05
0.00925101
-1.06055e-05
0.00671111
-5.31177e-06
0.00404538
-1.21129e-06
0.00134402
0.00598891
-6.211e-07
-1.5302e-05
-0.00186978
0.00186698
-5.42907e-06
-1.25333e-05
-0.00114184
0.00112086
-1.75139e-07
-3.13498e-06
-1.03916e-05
-2.56889e-06
-0.000289063
0.000278371
-6.30707e-06
-0.000310794
-1.86529e-05
0.000330831
-5.83614e-05
-4.34652e-05
-0.000207096
0.000168486
-2.12704e-05
-0.000230542
-9.7178e-06
0.000245015
-1.72313e-06
-3.77701e-06
-7.4873e-05
7.41118e-05
-7.52862e-05
-0.000262555
-1.13822e-07
7.55616e-05
-7.56238e-05
-4.48707e-08
-3.72069e-05
0.00878372
-4.88495e-05
0.0112749
-5.41499e-05
0.0133095
-5.45121e-05
0.0147537
-5.40168e-05
0.0155031
-4.89075e-05
0.0155168
-4.30761e-05
0.014805
-3.79418e-05
0.013445
-2.94931e-05
0.0115501
-2.03376e-05
0.00926074
-1.36174e-05
0.00671941
-6.1566e-06
0.00405033
-1.53465e-06
0.00134556
0.00595862
9.58651e-07
-7.87518e-06
-0.00185521
0.00185559
-1.00162e-06
-3.53147e-06
-0.00110931
0.00110397
5.497e-07
-6.37414e-07
-1.20007e-06
2.16944e-07
-0.000265597
0.000265515
-9.27302e-08
-0.000268357
-3.74604e-07
0.000270256
-2.27609e-06
-6.70717e-07
-8.56302e-05
7.93232e-05
-0.000104283
0.000147748
-3.76235e-05
-5.88939e-05
3.76235e-05
-6.86117e-05
7.23887e-05
-7.57376e-05
-2.19807e-05
0.00875685
-3.34018e-05
0.0112542
-4.04965e-05
0.0132955
-4.65949e-05
0.0147463
-4.75029e-05
0.0155017
-4.66054e-05
0.0155203
-4.58047e-05
0.0148129
-4.05737e-05
0.0134561
-3.25488e-05
0.0115623
-2.5078e-05
0.00927221
-1.5106e-05
0.00672836
-6.92279e-06
0.00405572
-1.5726e-06
0.00134713
0.00593997
1.6529e-06
-4.98927e-06
-0.00184913
0.00185071
-6.23841e-07
-1.41241e-06
-0.00110055
0.00109946
4.03191e-07
-3.2256e-07
-3.33838e-07
2.24483e-07
-0.000263986
0.000264476
5.93827e-08
-0.00026468
5.65519e-08
0.000264487
-1.72907e-07
2.47057e-08
-7.60018e-05
7.5909e-05
-7.63764e-05
7.70471e-05
-1.39827e-05
0.00873743
-2.48359e-05
0.0112385
-3.19089e-05
0.0132808
-3.76658e-05
0.0147364
-4.43072e-05
0.0154994
-4.75831e-05
0.0155221
-4.92111e-05
0.0148215
-4.5275e-05
0.0134688
-3.93132e-05
0.0115765
-2.84965e-05
0.0092856
-1.69923e-05
0.00673843
-7.76786e-06
0.00406191
-1.9351e-06
0.00134906
0.00592816
9.67841e-07
-3.139e-06
-0.00184638
0.00184806
-2.83404e-08
-6.54044e-07
-0.00109809
0.00109736
2.63658e-07
-1.61105e-07
-1.88054e-07
1.51914e-07
-0.000263994
0.000264364
3.30776e-08
-0.000264397
8.0583e-08
0.000264228
-8.62014e-08
5.56599e-08
-7.58174e-05
7.58767e-05
-7.57608e-05
7.57361e-05
-1.0128e-05
0.00872272
-1.7194e-05
0.0112238
-2.73611e-05
0.0132705
-3.54261e-05
0.0147276
-4.36611e-05
0.0154955
-5.32976e-05
0.0155262
-5.56352e-05
0.0148319
-5.41389e-05
0.0134837
-4.515e-05
0.0115932
-3.39668e-05
0.00930257
-2.04057e-05
0.00675107
-9.33314e-06
0.00406931
-2.03529e-06
0.0013511
0.00591915
7.42535e-07
-1.85657e-06
-0.00184546
0.0018462
2.25926e-07
-5.42917e-07
-0.00109681
0.00109663
2.52967e-07
-9.54177e-08
-1.51753e-07
4.71613e-08
-0.000264137
0.00026439
1.07198e-08
-0.000264364
6.57081e-08
0.000264244
-6.84276e-08
3.26962e-08
-7.59268e-05
7.59599e-05
-7.58462e-05
7.57905e-05
-7.0378e-06
0.00871257
-1.42283e-05
0.0112106
-2.48911e-05
0.01326
-3.62278e-05
0.0147201
-4.90829e-05
0.0154913
-5.89688e-05
0.0155295
-6.57263e-05
0.0148435
-6.33948e-05
0.0135019
-5.33046e-05
0.0116125
-3.58473e-05
0.00931801
-2.07371e-05
0.00676247
-8.87469e-06
0.00407615
-1.84724e-06
0.00135295
0.00591242
1.16389e-06
-1.47492e-06
-0.00184473
0.00184529
1.81939e-07
-3.87363e-07
-0.00109614
0.00109631
1.64379e-07
-1.07852e-07
-8.76468e-08
3.4887e-08
-0.000264181
0.000264426
8.36851e-09
-0.000264348
7.10139e-08
0.000264317
-7.94349e-08
1.6848e-08
-7.59898e-05
7.60005e-05
-7.59241e-05
7.58914e-05
-5.89736e-06
0.00870424
-1.29543e-05
0.0111987
-2.39036e-05
0.0132476
-4.19922e-05
0.014713
-6.07528e-05
0.0154931
-7.54964e-05
0.0155393
-7.93816e-05
0.0148594
-7.30595e-05
0.0135217
-5.86118e-05
0.0116353
-4.10573e-05
0.00933833
-2.2882e-05
0.00677648
-8.78075e-06
0.00408308
-1.9169e-06
0.00135486
0.00590672
9.7356e-07
-1.1726e-06
-0.00184403
0.00184497
2.26893e-07
-2.09777e-07
-0.00109598
0.00109604
1.62707e-07
-4.30704e-08
-1.99523e-08
-4.41887e-08
-0.000264263
0.000264425
2.22004e-09
-0.000264439
6.83179e-08
0.000264419
-8.02973e-08
1.40991e-08
-7.6009e-05
7.60173e-05
-7.5938e-05
7.59211e-05
-4.08375e-06
0.00869537
-1.26796e-05
0.0111875
-2.83777e-05
0.013234
-4.72047e-05
0.0146995
-7.07106e-05
0.0154883
-8.93351e-05
0.0155493
-9.72435e-05
0.0148836
-8.67691e-05
0.0135498
-6.63371e-05
0.0116606
-4.33494e-05
0.0093588
-2.23813e-05
0.00679008
-9.47814e-06
0.00409064
-2.49627e-06
0.00135736
0.00590245
8.27251e-07
-6.40892e-07
-0.00184398
0.00184471
2.35601e-07
-1.82438e-07
-0.00109589
0.00109598
1.66413e-07
-3.12477e-08
-1.8493e-08
-3.8304e-08
-0.000264292
0.00026445
5.61489e-09
-0.000264433
9.70553e-08
0.000264485
-7.99622e-08
8.57626e-09
-7.60195e-05
7.60217e-05
-7.59511e-05
7.5937e-05
-4.65124e-06
0.00868734
-1.5063e-05
0.0111742
-3.48131e-05
0.0132216
-6.48327e-05
0.0146936
-9.40295e-05
0.015493
-0.000112828
0.0155649
-0.000113031
0.0149099
-9.71676e-05
0.0135807
-7.13207e-05
0.0116886
-4.45724e-05
0.00938099
-2.27226e-05
0.00680333
-7.72328e-06
0.00409587
-7.23166e-07
0.00135808
0.00589769
4.44142e-07
-3.35875e-07
-0.00184406
0.00184462
2.70102e-07
1.32901e-08
-0.00109586
0.00109595
1.65077e-07
-2.21068e-08
-1.12961e-08
-4.85111e-08
-0.000264363
0.000264523
6.17824e-09
-0.00026446
6.53978e-08
0.000264514
-8.34132e-08
1.62962e-08
-7.60473e-05
7.6053e-05
-7.59503e-05
7.59417e-05
-4.70577e-06
0.00867698
-2.02922e-05
0.0111596
-4.73478e-05
0.0132041
-8.45931e-05
0.0146842
-0.000118476
0.0154986
-0.000136557
0.0155884
-0.000129888
0.0149426
-0.000106618
0.013616
-7.49554e-05
0.0117189
-4.19753e-05
0.00940024
-2.13129e-05
0.00681691
-6.70199e-06
0.00410185
-6.53724e-07
0.00135874
0.00589355
-7.45261e-07
1.8493e-07
-0.00184422
0.00184453
1.38551e-07
6.03066e-08
-0.00109601
0.00109613
1.68811e-07
-1.62884e-08
-6.63056e-09
-3.84099e-08
-0.000264434
0.000264606
-6.37941e-09
-0.000264443
-1.33637e-08
0.0002646
-8.78613e-08
1.08523e-07
-7.60512e-05
7.60574e-05
-7.59858e-05
7.59695e-05
-7.52392e-06
0.00866421
-2.77209e-05
0.01114
-6.48028e-05
0.0131843
-0.000113555
0.0146792
-0.000151217
0.0155133
-0.000163391
0.0156219
-0.000144773
0.0149808
-0.000110892
0.0136519
-7.21653e-05
0.0117491
-4.10525e-05
0.00941998
-1.74122e-05
0.00682762
-6.19564e-06
0.00410739
-4.02902e-07
0.00135914
0.005886
-1.03765e-06
1.06024e-06
-0.00184461
0.00184372
1.4618e-07
9.91002e-08
-0.00109622
0.0010962
1.70656e-07
-1.28206e-08
3.50288e-09
-3.25064e-08
-0.00026449
0.000264665
-5.35842e-09
-0.000264495
-1.14801e-08
0.000264646
-4.64208e-08
1.11872e-07
-7.60647e-05
7.60583e-05
-7.60781e-05
7.59696e-05
-1.11714e-05
0.00864766
-4.05548e-05
0.0111158
-9.51857e-05
0.013166
-0.000151574
0.0146796
-0.000188898
0.0155388
-0.000185604
0.0156627
-0.000154844
0.0150247
-0.000110208
0.0136899
-6.81014e-05
0.0117762
-3.63489e-05
0.00943892
-1.5952e-05
0.00683738
-2.98968e-06
0.00410998
-1.81704e-07
0.00135932
0.00587543
-2.00142e-06
1.39495e-06
-0.00184461
0.00184376
-1.89401e-07
1.72207e-07
-0.00109632
0.00109632
1.65647e-07
-1.99456e-08
3.77732e-09
-2.34651e-08
-0.000264599
0.000264775
-5.26975e-09
-0.000264602
-1.0033e-08
0.000264747
-7.88186e-08
1.12662e-07
-7.61123e-05
7.6107e-05
-7.61238e-05
7.60119e-05
-1.82975e-05
0.00862541
-6.45951e-05
0.0110852
-0.000135463
0.0131499
-0.000199381
0.0146901
-0.000222505
0.0155757
-0.000197424
0.0157053
-0.000153514
0.015068
-0.000102461
0.0137243
-6.09356e-05
0.0118008
-3.09199e-05
0.00945389
-1.0675e-05
0.00684507
-2.733e-06
0.00411253
1.91584e-07
0.00135913
0.00585967
-3.44617e-06
9.09696e-07
-0.00184469
0.0018431
-4.10212e-07
4.65332e-07
-0.00109652
0.00109615
1.79232e-07
2.91643e-09
-4.34758e-10
-2.97158e-08
-0.000264677
0.000264851
-8.21248e-09
-0.000264719
2.21757e-08
0.000264822
-4.35687e-08
7.975e-08
-7.61308e-05
7.61255e-05
-7.61408e-05
7.60281e-05
-3.0835e-05
0.00859165
-0.000100842
0.0110506
-0.000191776
0.0131423
-0.000248926
0.0147165
-0.000241198
0.0156195
-0.000199931
0.0157517
-0.000142581
0.0151081
-9.26492e-05
0.013756
-5.17698e-05
0.0118216
-2.28241e-05
0.00946604
-6.47856e-06
0.00684881
7.61061e-07
0.00411196
1.74353e-06
0.00135739
0.0058331
-5.89092e-06
1.63296e-06
-0.00184347
0.00184066
-6.41382e-07
5.43207e-07
-0.00109661
0.00109608
1.08555e-07
7.06104e-09
1.81856e-08
-1.18312e-08
-0.000264807
0.000264983
2.62909e-09
-0.000264813
9.44903e-09
0.000264934
-8.38761e-08
9.12618e-08
-7.61839e-05
7.61756e-05
-7.61617e-05
7.60819e-05
-5.54124e-05
0.00854622
-0.000161267
0.0110201
-0.000260048
0.0131534
-0.000281224
0.0147565
-0.000244818
0.0156644
-0.000185278
0.0157944
-0.000126472
0.015142
-7.71163e-05
0.0137814
-4.12326e-05
0.01184
-1.56657e-05
0.00947522
-3.03494e-06
0.00685261
1.66292e-06
0.00411204
2.07553e-06
0.00135531
0.00578993
-1.20524e-05
-1.8846e-07
-0.00184234
0.00183739
-9.48365e-07
-4.08313e-08
-0.0010966
0.00109582
5.0423e-08
8.08395e-08
9.36729e-08
-6.32053e-08
-0.000264966
0.000265076
-1.54696e-09
-0.000264971
1.18625e-08
0.000265079
-7.76492e-08
9.65676e-08
-7.61925e-05
7.61951e-05
-7.6183e-05
7.60918e-05
-0.000104378
0.00848933
-0.000243221
0.0110032
-0.000310809
0.013183
-0.000287876
0.0147996
-0.000224946
0.015704
-0.000158723
0.0158267
-0.000103674
0.0151685
-6.15016e-05
0.0138016
-2.86542e-05
0.011853
-9.32523e-06
0.00948151
1.02069e-06
0.00685325
5.27385e-06
0.00410884
2.47345e-06
0.00135284
0.00571852
-2.776e-05
-5.21434e-06
-0.00183801
0.00182884
-2.87875e-06
-8.08055e-07
-0.00109573
0.00109468
-1.67842e-10
9.89634e-08
1.77152e-07
-1.26123e-07
-0.000265118
0.000265163
5.66014e-09
-0.000265083
4.55068e-08
0.000265215
-4.52259e-08
6.90129e-08
-7.62259e-05
7.62244e-05
-7.6214e-05
7.61175e-05
-0.000192377
0.00843848
-0.000329273
0.0110217
-0.000322601
0.0132177
-0.000255533
0.0148302
-0.000188645
0.0157339
-0.000130658
0.0158536
-8.22754e-05
0.0151893
-4.37108e-05
0.0138167
-1.84056e-05
0.0118621
-2.32347e-06
0.00948486
3.68572e-06
0.00685484
7.32203e-06
0.00410399
2.8544e-06
0.00134998
0.00562326
-7.162e-05
-2.54918e-05
-0.00182692
0.00180791
-8.75015e-06
-3.2938e-06
-0.00109385
0.00109119
-3.12946e-07
9.77218e-08
1.92344e-07
-1.70491e-07
-0.000265268
0.000265297
-2.97524e-08
-0.000265184
1.52879e-08
0.000265413
-7.26698e-08
1.02553e-07
-7.62937e-05
7.62993e-05
-7.62481e-05
7.61791e-05
-0.000323378
0.00843259
-0.000349201
0.0110483
-0.000275656
0.0132378
-0.000207079
0.0148486
-0.000147324
0.0157506
-9.89039e-05
0.0158703
-5.86668e-05
0.0152043
-2.91977e-05
0.0138275
-8.5079e-06
0.0118683
4.01932e-06
0.00948452
1.08439e-05
0.00685132
7.64965e-06
0.0040992
3.32936e-06
0.00134665
0.00557043
-0.000175003
-9.55426e-05
-0.00179648
0.0017559
-3.10435e-05
-1.40638e-05
-0.00108794
0.00107984
-8.05608e-07
1.58309e-07
4.46107e-07
-4.90729e-07
-0.000265315
0.000265037
-3.42612e-08
-0.000265269
5.16361e-08
0.000265517
-2.77112e-08
7.77691e-08
-7.63445e-05
7.63147e-05
-7.63292e-05
7.62266e-05
-0.000362779
0.00844617
-0.000275408
0.011048
-0.000206201
0.0132369
-0.000154072
0.0148554
-0.000108421
0.0157601
-7.02708e-05
0.0158819
-3.93331e-05
0.0152144
-1.38024e-05
0.0138328
2.8827e-06
0.0118694
1.15214e-05
0.00948385
1.1984e-05
0.00684698
9.21098e-06
0.00409331
3.86759e-06
0.00134279
0.00556406
-0.000160738
-0.000195674
-0.00171977
0.00167115
-0.000126385
-5.94051e-05
-0.00106707
0.00103988
-3.5911e-06
-2.54963e-07
1.39311e-07
-1.43781e-06
-0.000265095
0.000264366
-7.67025e-08
-0.000264961
2.48889e-08
0.00026553
-4.70987e-08
7.78568e-08
-7.64164e-05
7.63822e-05
-7.63648e-05
7.6287e-05
-0.00023958
0.00841034
-0.000179047
0.0110209
-0.000139275
0.0132221
-0.000103723
0.0148507
-7.41133e-05
0.015764
-4.67895e-05
0.0158893
-2.06329e-05
0.0152212
-3.60974e-06
0.0138393
1.08565e-05
0.0118701
1.53952e-05
0.00948044
1.95127e-05
0.00683668
1.07509e-05
0.00408643
4.59751e-06
0.00133819
0.0054738
-4.26671e-05
-0.000106652
-0.00164386
0.00161012
-0.000126993
-0.000168385
-0.000993124
0.00091806
-3.70318e-05
-1.42897e-05
-2.09983e-06
-1.05531e-05
-0.00026301
0.000259942
-5.23309e-07
-0.000263195
-6.97565e-08
0.000264606
-1.0126e-07
-2.65823e-08
-7.64379e-05
7.63612e-05
-7.6413e-05
7.63351e-05
-0.000121169
0.00835246
-0.000106567
0.0109882
-8.96193e-05
0.013208
-6.94873e-05
0.014846
-4.85547e-05
0.0157657
-2.48457e-05
0.0158935
-6.02082e-06
0.0152236
8.33867e-06
0.0138418
1.81355e-05
0.0118673
2.16188e-05
0.00947833
1.75147e-05
0.00682992
1.51931e-05
0.00407584
6.31426e-06
0.00133187
0.00538963
-5.2969e-06
-3.17041e-05
-0.00155824
0.00153565
-2.00729e-05
-5.47783e-05
-0.000872643
0.000809169
-1.86309e-05
-4.48878e-05
-5.9409e-05
-6.35601e-05
-0.000239148
0.000212074
-9.95764e-06
-0.000249593
-3.84527e-06
0.000258446
-6.04101e-07
-1.69909e-06
-7.61636e-05
7.56403e-05
-7.62333e-05
7.62599e-05
-5.69268e-05
0.00830282
-5.94749e-05
0.010958
-5.31541e-05
0.0131917
-4.10962e-05
0.0148386
-2.32817e-05
0.0157642
-7.14488e-06
0.0158947
6.02011e-06
0.015226
2.06336e-05
0.0138393
2.5783e-05
0.0118632
2.8284e-05
0.00946756
2.55655e-05
0.00681954
1.53509e-05
0.0040668
5.77449e-06
0.0013261
0.00534197
1.76155e-06
-1.10339e-05
-0.00151241
0.00150971
-2.59499e-06
-8.46982e-06
-0.000761986
0.000742693
9.81977e-08
-8.77604e-07
-6.35358e-06
-1.24229e-06
-0.000103751
8.51203e-05
-0.000148639
0.000174713
-2.2048e-05
-3.74862e-05
-6.94918e-05
5.95342e-05
-7.33371e-05
7.50362e-05
-2.69828e-05
0.00827033
-3.24187e-05
0.0109373
-2.84126e-05
0.013179
-1.93691e-05
0.0148347
-8.97167e-06
0.015766
4.37455e-06
0.0158963
1.70359e-05
0.0152295
2.73741e-05
0.0138377
3.1568e-05
0.0118599
3.27984e-05
0.00946033
2.79793e-05
0.00680692
1.912e-05
0.00405345
6.59482e-06
0.0013195
0.00531685
3.14442e-06
-5.00116e-06
-0.00150004
0.0015017
1.00069e-07
-1.36405e-06
-0.000734272
0.000731616
1.45863e-07
-8.4057e-08
-1.94614e-07
1.45241e-07
-7.66469e-05
7.67451e-05
-7.75245e-05
7.87668e-05
3.74862e-05
-1.13085e-05
0.00824922
-1.38599e-05
0.0109227
-1.22003e-05
0.0131719
-4.0625e-06
0.0148298
6.71249e-06
0.0157637
1.82968e-05
0.0158951
2.92495e-05
0.0152277
3.53976e-05
0.0138339
3.98027e-05
0.0118529
4.12288e-05
0.00944708
3.18425e-05
0.00679419
2.15131e-05
0.00403854
8.51312e-06
0.00131099
0.00530545
2.89313e-06
-2.80739e-06
-0.00149684
0.00149955
4.26486e-07
-1.34224e-07
-0.000730145
0.00073018
9.52745e-08
-3.05756e-08
-1.85635e-08
1.25331e-07
-7.66116e-05
7.67575e-05
-7.66957e-05
7.65505e-05
-3.36674e-06
0.00823872
-3.24868e-06
0.0109138
1.00004e-06
0.0131668
8.66789e-06
0.0148278
1.92114e-05
0.0157627
2.8432e-05
0.0158959
3.84884e-05
0.0152246
4.40558e-05
0.0138296
4.84824e-05
0.0118456
4.3562e-05
0.00943536
3.72644e-05
0.00677844
2.15848e-05
0.00402546
8.07092e-06
0.00130292
0.00530056
2.72038e-06
-1.19354e-06
-0.00149663
0.001499
5.25463e-07
1.12281e-07
-0.000729986
0.000730369
6.37136e-08
-1.97016e-08
-3.06623e-08
8.99183e-08
-7.68337e-05
7.69289e-05
-7.68643e-05
7.67389e-05
1.84713e-06
0.00823363
3.80924e-06
0.010911
9.43792e-06
0.013166
1.67747e-05
0.0148302
2.67702e-05
0.0157644
3.84252e-05
0.0158959
4.56399e-05
0.015223
5.40175e-05
0.0138241
5.5552e-05
0.0118336
4.9654e-05
0.00942297
4.08069e-05
0.00675922
2.4385e-05
0.00400915
8.97418e-06
0.00129395
0.00529961
3.0644e-06
-2.65288e-07
-0.00149748
0.00149962
5.83522e-07
3.27873e-07
-0.000730403
0.000730903
5.27762e-08
-2.7711e-08
-4.28169e-09
8.25918e-08
-7.69685e-05
7.70322e-05
-7.69882e-05
7.68983e-05
4.29106e-06
0.00823315
9.07748e-06
0.0109113
1.68977e-05
0.0131659
2.62449e-05
0.0148308
3.61537e-05
0.0157667
4.69269e-05
0.0158946
5.62456e-05
0.0152208
6.08113e-05
0.0138188
5.76651e-05
0.0118256
5.50737e-05
0.0094087
4.2507e-05
0.0067411
2.99052e-05
0.00398822
9.38252e-06
0.00128456
0.00530105
2.95729e-06
-1.03373e-07
-0.00149893
0.0015014
5.96751e-07
4.243e-07
-0.000731153
0.000731626
3.30959e-08
7.74865e-08
2.8199e-08
4.94253e-08
-7.70828e-05
7.71356e-05
-7.71105e-05
7.70279e-05
7.48897e-06
0.00823474
1.43621e-05
0.0109139
2.25039e-05
0.0131696
3.3849e-05
0.0148331
4.60661e-05
0.0157675
5.54791e-05
0.0158954
6.35985e-05
0.015218
6.92435e-05
0.0138072
7.20428e-05
0.0118087
6.28098e-05
0.0093884
5.28534e-05
0.00671815
3.05501e-05
0.00396705
9.96599e-06
0.0012746
0.00530522
2.50302e-06
8.15281e-07
-0.00150086
0.00150319
6.23813e-07
4.36694e-07
-0.000731964
0.000732542
2.04503e-08
-9.92295e-10
3.12035e-08
5.49851e-08
-7.72907e-05
7.73238e-05
-7.72132e-05
7.71638e-05
8.97957e-06
0.00824012
1.70418e-05
0.0109193
2.74273e-05
0.0131761
4.08027e-05
0.0148383
5.21545e-05
0.0157709
6.48671e-05
0.0158941
7.5231e-05
0.015212
7.91592e-05
0.0138001
8.15284e-05
0.0117899
7.24212e-05
0.00936883
5.44441e-05
0.00669426
3.43345e-05
0.00394268
1.34515e-05
0.00126115
0.00531053
2.5734e-06
1.09463e-06
-0.00150339
0.00150522
6.71589e-07
6.14781e-07
-0.000732928
0.000733498
2.44242e-08
2.92236e-08
7.21602e-09
4.28712e-08
-7.7409e-05
7.74294e-05
-7.741e-05
7.7355e-05
1.04079e-05
0.00824675
2.0993e-05
0.0109258
3.34825e-05
0.0131834
4.66722e-05
0.0148438
6.09314e-05
0.0157748
7.44185e-05
0.015895
8.31323e-05
0.015208
8.75157e-05
0.0137941
8.46971e-05
0.0117777
8.01437e-05
0.00934313
6.13881e-05
0.0066672
3.77891e-05
0.00391835
2.77027e-05
0.00123344
0.00531736
2.32036e-06
1.25678e-06
-0.00150565
0.00150729
9.381e-07
6.60514e-07
-0.000734022
0.000734661
2.79295e-08
5.06028e-09
3.32619e-08
5.76379e-08
-7.75088e-05
7.75332e-05
-7.74795e-05
7.74367e-05
1.15205e-05
0.00825622
2.48925e-05
0.0109344
4.12894e-05
0.0131888
5.54662e-05
0.0148493
7.17639e-05
0.0157775
8.23211e-05
0.0158958
9.27811e-05
0.0152028
9.78128e-05
0.013781
9.62284e-05
0.0117616
8.60158e-05
0.0093185
6.8046e-05
0.00663695
5.83048e-05
0.00388774
5.46282e-05
0.00532614
1.60748e-06
1.13348e-06
-0.00150779
0.00150956
5.49163e-07
7.53307e-07
-0.000735228
0.000736054
1.05585e-07
5.94162e-09
3.46853e-08
5.89648e-08
-7.76291e-05
7.76571e-05
-7.76241e-05
7.75664e-05
1.30291e-05
0.00826809
2.79488e-05
0.0109477
4.50121e-05
0.0131992
6.32352e-05
0.0148578
7.90995e-05
0.0157807
9.39341e-05
0.0158946
0.000102983
0.0151976
0.000106558
0.0137707
0.000103962
0.0117436
9.14435e-05
0.00929511
8.77964e-05
0.00660745
9.95963e-05
0.00533727
1.1365e-06
7.58751e-07
-0.0015104
0.00151221
-2.05308e-07
3.00567e-07
-0.000736704
0.000737196
3.10554e-08
2.65433e-08
7.17025e-08
3.1491e-08
-7.77567e-05
7.78623e-05
-7.77507e-05
7.76918e-05
1.71475e-05
0.00827889
3.38213e-05
0.0109589
5.11477e-05
0.0132113
6.94768e-05
0.0148674
8.68418e-05
0.0157878
0.00010282
0.0158948
0.00011247
0.0151917
0.000119786
0.0137549
0.000116815
0.0117183
0.000114096
0.00926881
0.000129592
0.00534783
5.11825e-06
1.47334e-06
-0.00151431
0.00151738
-1.93744e-06
-1.34051e-06
-0.000737432
0.000737278
-9.70649e-10
-5.00346e-08
1.5748e-08
4.8966e-08
-7.7992e-05
7.80231e-05
-7.79655e-05
7.7934e-05
2.07711e-05
0.00829194
3.69172e-05
0.0109731
5.79236e-05
0.0132229
7.84574e-05
0.0148758
9.82104e-05
0.0157924
0.000110927
0.0158963
0.00012304
0.0151884
0.000128342
0.0137433
0.000133935
0.0116984
0.000151179
0.00535808
5.21013e-06
5.30699e-06
-0.00151539
0.00151969
1.22643e-06
-4.05031e-07
-1.73355e-06
5.1983e-06
-0.000735892
0.00043528
0.000298899
-2.20363e-07
-4.59361e-09
2.29447e-08
2.20319e-08
-7.80378e-05
7.80368e-05
-7.80878e-05
7.80388e-05
2.2327e-05
0.00830653
4.23129e-05
0.0109887
6.31153e-05
0.0132382
8.67428e-05
0.0148873
0.000104588
0.0157987
0.000121391
0.015898
0.000130294
0.0151865
0.000143181
0.0137341
0.000159857
0.00537134
4.47211e-06
4.59904e-06
-0.00152194
0.00152442
1.50268e-06
1.23551e-06
1.81663e-06
1.23579e-06
-0.000463913
0.000466064
-9.24586e-07
-0.000461253
-3.06524e-06
-0.000456183
-6.80294e-06
-1.57045e-05
0.000280357
2.83718e-06
-7.80772e-05
7.78568e-05
-7.80818e-05
7.80597e-05
2.42206e-05
0.00832462
4.66103e-05
0.0110052
7.13078e-05
0.0132536
9.45387e-05
0.0148973
0.000113654
0.0158065
0.000130035
0.0158982
0.000146245
0.0151834
0.000164578
0.00538621
4.52133e-06
4.83014e-06
-0.00152672
0.00152935
1.07397e-06
7.64365e-07
1.28137e-06
1.01631e-06
-0.000468885
0.000469576
8.11365e-07
-0.00046829
6.40793e-07
-0.000466998
5.23939e-07
3.02132e-07
-0.000272422
0.000272012
-5.14651e-07
-0.000274441
-1.04548e-06
-8.8685e-07
8.0694e-05
2.76298e-05
0.0083436
5.13606e-05
0.0110252
7.90756e-05
0.0132691
0.000100801
0.0149102
0.000120568
0.0158159
0.000138849
0.0159056
0.000157988
0.00540369
4.95172e-06
5.19435e-06
-0.00153241
0.00153505
8.1886e-07
1.05417e-06
9.9827e-07
7.7685e-07
-0.000471214
0.000471723
5.65885e-07
-0.000470861
4.11036e-07
-0.000469997
4.17743e-07
5.9508e-07
-0.000273214
0.00027388
1.45933e-07
-0.000272734
1.6063e-07
-0.000272314
1.04397e-07
-6.10547e-10
-7.87617e-05
7.8247e-05
-7.98071e-05
3.04596e-05
0.0083645
5.78845e-05
0.0110464
8.43038e-05
0.0132856
0.000106682
0.0149241
0.00012722
0.0158276
0.000141272
0.0054229
5.36535e-06
5.88429e-06
-0.0015384
0.00154145
7.91936e-07
1.11747e-06
8.03227e-07
1.04163e-06
-0.0004733
0.000473748
3.71151e-07
-0.000472622
3.75408e-07
-0.000472084
4.60934e-07
4.15145e-07
-0.000274888
0.000275355
9.88788e-08
-0.000274574
9.75035e-08
-0.00027429
1.34018e-07
1.84402e-07
-7.85114e-05
7.86574e-05
-7.83508e-05
-7.82464e-05
3.49933e-05
0.00838739
6.4573e-05
0.0110661
9.01524e-05
0.0133021
0.000110171
0.0149411
0.000117565
0.00544507
6.19042e-06
6.62866e-06
-0.0015452
0.00154847
8.82587e-07
1.2164e-06
8.97451e-07
1.22881e-06
-0.000475418
0.000475808
4.01872e-07
-0.000474633
3.3257e-07
-0.000474211
3.81334e-07
5.78941e-07
-0.00027633
0.000276609
9.20766e-08
-0.00027601
5.62218e-08
-0.000275676
1.26422e-07
9.36716e-08
-7.90733e-05
7.91722e-05
-7.89758e-05
-7.88418e-05
4.05505e-05
0.00841142
7.14148e-05
0.0110849
9.10198e-05
0.0133213
9.14892e-05
0.0054705
7.09464e-06
8.02647e-06
-0.00155245
0.00155623
1.28513e-06
1.12557e-06
1.28319e-06
1.36293e-06
-0.000477745
0.000478015
6.12518e-07
-0.0004769
3.70578e-07
-0.000476416
4.13804e-07
6.20534e-07
-0.000277588
0.000277889
1.00527e-07
-0.000277352
9.64956e-08
-0.000277063
9.26004e-08
1.24658e-07
-7.94485e-05
7.95405e-05
-7.93923e-05
-7.92658e-05
4.92733e-05
0.00843356
7.25223e-05
0.0111033
6.48452e-05
0.00549907
1.0228e-05
1.04763e-05
-0.00156148
0.00156567
1.49157e-06
1.42075e-06
1.46757e-06
1.30616e-06
-0.00048031
0.000480914
6.80962e-07
-0.000479673
4.8856e-07
-0.000478863
4.73665e-07
5.14943e-07
-0.000278909
0.000279411
1.11411e-07
-0.000278621
8.21211e-08
-0.000278414
2.07019e-07
9.55318e-08
-7.98543e-05
7.99548e-05
-7.97578e-05
-7.96652e-05
5.39842e-05
0.0084521
4.21768e-05
0.00552272
1.57883e-05
1.45534e-05
-0.00157246
0.00157816
2.36352e-06
2.16519e-06
1.95615e-06
1.72928e-06
-0.000483447
0.000484099
8.39982e-07
-0.000482543
5.16022e-07
-0.000481635
5.60295e-07
5.85014e-07
-0.000280511
0.000281113
7.87093e-08
-0.00028014
1.17297e-07
-0.000279782
1.16059e-07
1.43533e-07
-8.03395e-05
8.04509e-05
-8.02574e-05
-8.00504e-05
2.81146e-05
1.23368e-05
3.11011e-05
-0.00158657
0.00159358
4.96551e-06
3.81869e-06
3.36677e-06
2.76977e-06
-0.00048753
0.000488576
1.31704e-06
-0.000486321
9.56321e-07
-0.000485108
7.43762e-07
7.19789e-07
-0.00028235
0.000283046
1.43358e-07
-0.000281972
1.37913e-07
-0.000281546
1.34501e-07
1.52294e-07
-8.08278e-05
8.09065e-05
-8.07105e-05
-8.05944e-05
-0.00160585
7.83449e-06
1.60944e-05
1.07767e-05
8.05162e-06
-0.000493715
0.000495856
2.82468e-06
-0.000491702
1.8058e-06
-0.000489939
1.60308e-06
1.40723e-06
-0.000284887
0.000285913
2.913e-07
-0.000284148
2.17194e-07
-0.00028358
1.75236e-07
1.86364e-07
-8.13312e-05
8.14746e-05
-8.11933e-05
-8.10588e-05
-0.000506666
1.12485e-05
-0.000502275
1.17042e-05
-0.00049899
7.49092e-06
4.91813e-06
-0.000289511
0.000291607
7.28706e-07
-0.000288188
4.82936e-07
-0.00028697
3.84301e-07
3.5075e-07
-8.20534e-05
8.23447e-05
-8.18362e-05
-8.16609e-05
-0.000303417
1.53035e-05
-0.000299158
7.44482e-06
-0.000295048
3.38107e-06
1.47761e-06
-8.35627e-05
8.42914e-05
-8.30797e-05
-8.26954e-05
-9.65949e-05
-8.91501e-05
-8.5769e-05
1.42487e-06
-1.42501e-06
5.10632e-06
7.00065e-07
-4.38209e-06
8.63559e-07
-2.2887e-06
3.9022e-06
1.20375e-06
3.28757e-06
1.14649e-08
-2.59969e-06
9.32068e-07
-4.45096e-06
5.08079e-07
-2.79695e-06
7.35541e-07
3.16645e-06
3.84892e-06
6.41856e-07
-1.91673e-07
-1.75542e-05
-3.90319e-06
2.16572e-05
-1.85949e-06
9.60719e-07
-4.90395e-06
3.20083e-07
-3.11718e-06
6.85733e-07
3.89813e-06
2.91319e-07
2.87485e-06
-1.97931e-06
-1.42491e-05
1.04472e-06
-0.000299341
-1.29117e-05
0.000307296
-6.90622e-07
2.42676e-05
-8.7625e-07
-1.58958e-06
8.10964e-07
-5.39517e-06
1.2007e-07
-3.23742e-06
5.00948e-07
3.68805e-06
7.33719e-08
2.8012e-06
-9.62995e-07
-0.000293141
-7.22567e-06
-3.88831e-07
-1.43235e-05
-0.00109608
-1.01891e-05
0.00109335
-2.07203e-06
5.36849e-06
0.000308418
-4.42665e-06
2.40307e-05
-8.59764e-07
-9.76699e-07