/*--------------------------------*- C++ -*----------------------------------*\
| =========                 |                                                 |
| \\      /  F ield         | OpenFOAM: The Open Source CFD Toolbox           |
|  \\    /   O peration     | Version:  v1912                                 |
|   \\  /    A nd           | Website:  www.openfoam.com                      |
|    \\/     M anipulation  |                                                 |
\*---------------------------------------------------------------------------*/
FoamFile
{
    version     2.0;
    format      ascii;
    class       volVectorField;
    location    "220";
    object      U;
}
// * * * * * * * * * * * * * * * * * * * * * * * * * * * * * * * * * * * * * //

dimensions      [0 1 -1 0 0 0 0];


internalField   nonuniform List<vector> 
3673
(
(0.0769159 0.0260049 -7.08036e-22)
(0.230884 0.0765354 7.38129e-25)
(0.0764017 0.0258332 0)
(0.38247 0.12434 0)
(0.229436 0.0760614 -7.38458e-25)
(0.0759134 0.0256686 0)
(0.526648 0.16799 0)
(0.380173 0.123602 0)
(0.228019 0.0755938 0)
(0.0754269 0.0255076 -5.31203e-22)
(0.656746 0.205644 0)
(0.523635 0.167031 0)
(0.37791 0.122872 0)
(0.226617 0.0751366 0)
(0.0749529 0.0253492 5.27915e-22)
(0.765133 0.23524 0)
(0.653076 0.204481 5.68565e-25)
(0.520628 0.166078 0)
(0.375687 0.122161 0)
(0.225254 0.0746877 -5.09633e-22)
(0.0744812 0.0251912 0)
(0.844367 0.254902 0)
(0.760888 0.233891 2.98107e-22)
(0.64945 0.203339 -5.68036e-25)
(0.517669 0.16514 0)
(0.373474 0.121446 0)
(0.223883 0.0742327 0)
(0.0740075 0.0250345 0)
(0.88819 0.263217 -2.97454e-22)
(0.839562 0.253367 -2.79526e-22)
(0.756686 0.232568 0)
(0.645831 0.202202 2.71347e-22)
(0.51472 0.164203 0)
(0.371275 0.120735 -4.53726e-25)
(0.222512 0.0737819 0)
(0.073541 0.0248796 -7.43603e-22)
(0.89237 0.259459 5.57375e-24)
(0.88277 0.261478 5.34829e-25)
(0.834789 0.251861 0)
(0.752502 0.23126 1.57449e-23)
(0.64224 0.201075 0)
(0.511761 0.163266 0)
(0.369072 0.120024 4.53674e-25)
(0.221155 0.0733335 3.77884e-22)
(0.0730708 0.0247227 0)
(0.855395 0.243786 2.98941e-22)
(0.886248 0.257496 2.75696e-22)
(0.877378 0.259775 -2.67125e-22)
(0.830043 0.25038 -2.46019e-22)
(0.748307 0.229953 -4.51782e-25)
(0.638622 0.199942 0)
(0.508799 0.162325 0)
(0.366871 0.11931 -3.84747e-25)
(0.219777 0.0728787 0)
(0.072605 0.0245666 0)
(0.778994 0.217362 6.05143e-25)
(0.848496 0.241587 -2.81892e-22)
(0.880143 0.255577 2.66129e-22)
(0.872021 0.25811 2.52317e-22)
(0.82529 0.248907 0)
(0.744112 0.228647 4.51499e-25)
(0.634986 0.1988 0)
(0.50583 0.16138 0)
(0.36467 0.118598 1.0926e-24)
(0.218421 0.0724297 0)
(0.0721431 0.0244099 0)
(0.668166 0.182298 -3.6604e-24)
(0.771289 0.214931 -2.66963e-22)
(0.841585 0.239442 -2.62318e-22)
(0.874103 0.253722 -2.20361e-24)
(0.866697 0.256471 9.53948e-25)
(0.820538 0.247435 -2.25404e-22)
(0.739884 0.22733 0)
(0.631341 0.197653 0)
(0.502861 0.160432 0)
(0.362446 0.117874 -1.03366e-24)
(0.217073 0.0719821 0)
(0.0716829 0.0242526 0)
(0.53062 0.141384 2.72658e-24)
(0.659671 0.179659 3.33829e-23)
(0.763476 0.212556 2.80084e-22)
(0.834811 0.23741 -5.18124e-22)
(0.868179 0.251921 1.92787e-24)
(0.861406 0.254841 2.17983e-22)
(0.815772 0.245958 0)
(0.735629 0.226002 0)
(0.62767 0.196497 -3.8425e-22)
(0.499871 0.159476 0)
(0.360258 0.117162 3.48997e-22)
(0.215735 0.0715338 3.22199e-22)
(0.0712327 0.0241042 0)
(0.375791 0.0976092 0)
(0.521316 0.138604 2.99474e-22)
(0.650826 0.177035 2.65294e-22)
(0.755947 0.21038 2.76141e-22)
(0.8283 0.235471 -2.44991e-22)
(0.862371 0.250149 -1.68631e-24)
(0.856135 0.253219 0)
(0.810986 0.244476 -7.34042e-25)
(0.731368 0.224675 3.50035e-22)
(0.624007 0.195343 0)
(0.496904 0.158526 -2.96159e-22)
(0.358087 0.11645 -2.62373e-22)
(0.214407 0.0710911 0)
(0.0707763 0.0239537 0)
(0.36554 0.0948282 -6.04389e-23)
(0.250425 0.0639304 -2.20015e-24)
(0.253666 0.064824 -1.43047e-22)
(0.511004 0.135651 -3.11536e-22)
(0.642539 0.174752 2.24788e-24)
(0.748981 0.208363 2.57135e-22)
(0.822078 0.233602 -1.71446e-24)
(0.856669 0.24841 1.68821e-24)
(0.850887 0.251606 1.46637e-24)
(0.806203 0.242997 1.42125e-24)
(0.727092 0.223341 -1.01217e-24)
(0.620335 0.194181 0)
(0.493942 0.157571 0)
(0.355918 0.115738 2.96706e-22)
(0.213093 0.0706529 0)
(0.0703294 0.0238032 0)
(0.351897 0.091211 6.84096e-23)
(0.238071 0.0606442 1.00167e-22)
(0.245445 0.0627973 0)
(0.167062 0.042139 2.25737e-24)
(0.169297 0.0426334 1.03206e-22)
(0.256026 0.0653039 0)
(0.501936 0.133231 -5.38304e-26)
(0.635351 0.172734 4.04647e-24)
(0.742546 0.206463 2.3013e-22)
(0.816081 0.231797 3.31167e-24)
(0.851055 0.246702 1.91142e-22)
(0.845668 0.250004 -1.83432e-22)
(0.801416 0.241516 -1.00921e-24)
(0.722826 0.222006 3.22521e-25)
(0.616683 0.193023 3.1304e-22)
(0.491022 0.15663 -2.52199e-22)
(0.353788 0.115038 -2.74468e-22)
(0.211781 0.0702151 -2.44077e-22)
(0.0698928 0.0236568 0)
(0.341808 0.0884317 4.88241e-24)
(0.219816 0.0561674 -2.48032e-22)
(0.228053 0.0578402 8.01522e-23)
(0.15534 0.039162 0)
(0.163312 0.0412418 2.40049e-23)
(0.103503 0.0258885 -3.90208e-23)
(0.104321 0.0260711 8.0629e-23)
(0.105283 0.0262696 3.32006e-25)
(0.17072 0.0429624 0)
(0.104884 0.0261613 4.13648e-23)
(0.494964 0.131278 2.88912e-22)
(0.629099 0.17092 -2.57293e-22)
(0.73654 0.204688 2.08032e-22)
(0.810288 0.230062 -2.0064e-22)
(0.84553 0.245026 4.18005e-24)
(0.84048 0.248415 0)
(0.796649 0.240041 3.21609e-25)
(0.718574 0.220676 -2.84653e-22)
(0.613055 0.191871 2.92899e-22)
(0.488109 0.155689 2.33311e-22)
(0.351688 0.114348 1.98394e-22)
(0.210511 0.0697894 -2.23862e-22)
(0.0694645 0.023513 -2.52147e-22)
(0.335966 0.0866235 -3.32852e-22)
(0.211853 0.0537214 1.8855e-24)
(0.214668 0.0546089 0)
(0.131004 0.0330827 1.15032e-22)
(0.141131 0.0352126 -6.80303e-23)
(0.0909152 0.0224527 2.42008e-24)
(0.0969013 0.0244766 -1.94045e-24)
(0.10231 0.0256998 0)
(0.100315 0.0251789 -1.77716e-25)
(0.0606329 0.0150579 5.44209e-25)
(0.0610904 0.0151433 -3.69793e-23)
(0.105651 0.0263469 -3.32089e-25)
(0.0615825 0.0152498 3.67108e-23)
(0.105946 0.0264255 -4.41315e-23)
(0.0613572 0.0151996 0)
(0.48944 0.129696 -2.46618e-22)
(0.623479 0.169293 -2.31248e-22)
(0.730859 0.203021 0)
(0.804664 0.228382 3.66585e-22)
(0.84009 0.243379 -6.88613e-25)
(0.835332 0.246838 0)
(0.791907 0.238573 1.51836e-22)
(0.714352 0.219351 -2.66367e-22)
(0.60948 0.190732 -2.45666e-25)
(0.485267 0.154766 2.57355e-22)
(0.349602 0.113655 1.8235e-22)
(0.209265 0.0693704 -6.93444e-23)
(0.0690403 0.023371 0)
(0.332051 0.0855419 2.91813e-22)
(0.20857 0.0527179 -1.70688e-24)
(0.209856 0.0530801 -1.88806e-24)
(0.125361 0.0312872 1.62034e-24)
(0.127022 0.0318318 -2.76577e-23)
(0.0621226 0.0156745 3.6332e-23)
(0.0647602 0.0163807 -3.98033e-23)
(0.079865 0.0188053 -6.7519e-24)
(0.0701759 0.0179119 5.93976e-25)
(0.05166 0.0121064 2.25119e-24)
(0.056242 0.0140732 0)
(0.0599377 0.0149325 0)
(0.0586839 0.01469 -3.3973e-23)
(0.0195751 0.00481653 -2.04645e-25)
(0.0196943 0.00484023 2.04748e-25)
(0.0617708 0.0153005 -3.74214e-23)
(0.0198357 0.00487384 -4.47762e-25)
(0.061936 0.0153349 4.03998e-23)
(0.0197868 0.00486642 -2.75751e-23)
(0.484734 0.12838 -2.26168e-22)
(0.618319 0.167817 1.98676e-22)
(0.725448 0.20144 -3.71613e-22)
(0.799197 0.226754 -1.67689e-22)
(0.834723 0.241756 -1.56335e-22)
(0.830225 0.245274 -2.95641e-22)
(0.787197 0.237112 -2.82356e-25)
(0.710174 0.218037 0)
(0.605945 0.189598 -2.26188e-22)
(0.482453 0.153845 0)
(0.347581 0.112985 1.67403e-22)
(0.208041 0.0689578 0)
(0.0686264 0.0232321 8.33289e-23)
(0.328893 0.0847604 3.15664e-22)
(0.206546 0.0522621 1.61311e-24)
(0.207389 0.0524557 1.01382e-22)
(0.123655 0.0308227 2.35469e-23)
(0.12433 0.0310075 2.26182e-23)
(0.0599708 0.014839 -3.19332e-23)
(0.0601663 0.0149031 -5.2515e-25)
(0.0610106 0.0151821 3.67807e-23)
(0.06044 0.0149982 -3.33671e-23)
(0.0200929 0.00506889 -2.9259e-23)
(0.0214954 0.00561658 4.22049e-23)
(0.034662 0.00598022 -1.9036e-24)
(0.0237897 0.00626895 -1.03758e-23)
(0.0168999 0.00433482 -3.6452e-23)
(0.0181066 0.00463483 -2.50149e-23)
(0.0193871 0.00478285 -2.46619e-23)
(0.0190125 0.00472485 -2.48833e-23)
(0.0198852 0.00488955 2.10376e-25)
(0.0199318 0.00489779 3.01644e-23)
(0.480544 0.127232 -2.28475e-22)
(0.613494 0.166445 1.9826e-22)
(0.720244 0.199921 3.43916e-22)
(0.793836 0.225159 7.47331e-24)
(0.829422 0.240155 1.48939e-22)
(0.825166 0.243725 0)
(0.782539 0.235665 0)
(0.706057 0.216734 0)
(0.602467 0.188479 2.39268e-22)
(0.479705 0.152945 2.25581e-22)
(0.345604 0.112325 0)
(0.206846 0.068553 0)
(0.0682192 0.023096 0)
(0.326119 0.0840748 5.53706e-23)
(0.204843 0.0518779 -8.7866e-23)
(0.205578 0.0520566 -5.34507e-24)
(0.122598 0.0305922 0)
(0.123083 0.0307055 -9.40878e-23)
(0.0594866 0.0147076 2.93927e-23)
(0.0595552 0.014737 -3.06524e-23)
(0.0597827 0.0147907 3.06128e-23)
(0.0596653 0.0147662 -3.15859e-23)
(0.0192439 0.00473054 4.509e-23)
(0.0193036 0.00475236 -2.26971e-23)
(0.0195951 0.00485159 0)
(0.0193886 0.00477671 4.75845e-23)
(0.00961518 0.00153174 2.48113e-24)
(0.476697 0.126183 -1.6406e-24)
(0.608901 0.165145 -3.49811e-22)
(0.715194 0.198455 1.65321e-22)
(0.788578 0.223601 0)
(0.824187 0.238576 0)
(0.820158 0.24219 0)
(0.777937 0.234229 1.24196e-22)
(0.701996 0.215446 -9.91929e-23)
(0.599065 0.187377 -1.98416e-22)
(0.477022 0.15206 -2.11715e-22)
(0.343668 0.111677 1.94456e-22)
(0.205672 0.0681578 0)
(0.0678244 0.0229655 -6.96204e-23)
(0.323559 0.083425 -4.95499e-23)
(0.203273 0.0514972 -8.48974e-23)
(0.203949 0.0516744 -8.22727e-23)
(0.121669 0.0303863 1.00371e-22)
(0.122125 0.0304955 -8.5002e-23)
(0.0590976 0.0146206 0)
(0.0591656 0.01465 -2.69921e-23)
(0.0593549 0.0146855 2.81523e-23)
(0.0592693 0.0146691 2.77458e-23)
(0.0191092 0.00469381 -2.26139e-25)
(0.0191249 0.00470489 -2.11708e-23)
(0.0191974 0.00471665 -2.6362e-25)
(0.0191476 0.00470895 2.14802e-23)
(0.473052 0.125196 1.93489e-22)
(0.604488 0.163905 -1.54734e-22)
(0.710259 0.197026 -1.41951e-22)
(0.7834 0.222067 1.33373e-22)
(0.819013 0.237015 1.27031e-22)
(0.815207 0.240668 9.00234e-25)
(0.773398 0.232808 -1.11158e-22)
(0.698017 0.214174 0)
(0.59574 0.186294 1.86185e-22)
(0.474419 0.151197 -1.64891e-22)
(0.341794 0.111047 -1.5595e-25)
(0.204542 0.0677748 0)
(0.0674338 0.0228386 6.53997e-23)
(0.321127 0.0828016 8.28556e-25)
(0.201775 0.0511247 6.84187e-24)
(0.202429 0.0512992 7.27242e-23)
(0.120762 0.0301668 1.67673e-23)
(0.121202 0.0302796 9.32948e-23)
(0.0586901 0.0145276 -2.42608e-23)
(0.0587633 0.0145586 -2.38957e-23)
(0.0589593 0.0145974 8.16928e-25)
(0.0588721 0.0145789 -1.0033e-24)
(0.0189946 0.00466618 1.84711e-23)
(0.019014 0.00467796 1.95467e-25)
(0.0190764 0.00468598 -2.03336e-23)
(0.0190338 0.00468004 -2.86373e-25)
(0.469559 0.124251 1.77154e-22)
(0.600199 0.162697 1.57466e-22)
(0.705421 0.195625 -1.42668e-22)
(0.77829 0.220555 -1.31555e-22)
(0.813892 0.235466 -3.56625e-24)
(0.810314 0.239159 1.12914e-22)
(0.768933 0.2314 0)
(0.694127 0.212919 0)
(0.592513 0.185231 -2.00997e-22)
(0.471865 0.150342 0)
(0.339948 0.110423 1.55854e-25)
(0.203418 0.0673948 -1.55221e-22)
(0.067035 0.0227033 -6.65859e-23)
(0.318779 0.0821905 3.83278e-23)
(0.200316 0.0507571 -6.09122e-23)
(0.200947 0.050927 6.41422e-23)
(0.11988 0.029951 6.45166e-23)
(0.120318 0.0300628 -5.21434e-23)
(0.0582716 0.014425 0)
(0.0583446 0.0144552 -4.26838e-23)
(0.0585456 0.0144997 0)
(0.0584541 0.0144791 -1.01586e-24)
(0.0188658 0.0046356 1.24454e-25)
(0.0188897 0.00464804 1.71968e-23)
(0.0189589 0.00465818 3.58097e-23)
(0.0189143 0.00465132 -2.83969e-25)
(0.466178 0.123332 2.81774e-25)
(0.596 0.161518 -1.28167e-22)
(0.700666 0.194251 1.20546e-22)
(0.773228 0.219055 -1.22205e-22)
(0.808813 0.233927 -1.13135e-22)
(0.805486 0.237659 -1.04947e-22)
(0.764555 0.230007 1.90526e-25)
(0.690325 0.211681 1.82916e-22)
(0.589356 0.184184 0)
(0.469391 0.149511 0)
(0.338161 0.109818 1.26005e-22)
(0.2023 0.0670142 0)
(0.066648 0.0225726 -6.62279e-26)
(0.316494 0.081593 -3.21357e-23)
(0.19889 0.0503905 -5.34718e-23)
(0.199513 0.050561 -6.20735e-23)
(0.119017 0.029738 4.3971e-23)
(0.119447 0.0298466 -8.66846e-23)
(0.0578521 0.0143232 0)
(0.0579295 0.0143535 -1.82231e-23)
(0.0581297 0.0143976 -1.92869e-23)
(0.0580397 0.0143775 -1.98082e-23)
(0.0187303 0.00460201 1.42125e-23)
(0.0187567 0.00461442 2.59299e-25)
(0.0188263 0.00462657 1.54863e-23)
(0.0187811 0.00461958 -3.08256e-23)
(0.462887 0.122437 2.24058e-23)
(0.591874 0.160356 -1.34022e-22)
(0.695945 0.192887 -2.20436e-25)
(0.768209 0.217568 0)
(0.803785 0.232397 1.04803e-22)
(0.800722 0.236168 0)
(0.760267 0.228628 9.42304e-23)
(0.686625 0.210467 -1.82276e-25)
(0.586283 0.18316 0)
(0.46696 0.148692 0)
(0.336372 0.109213 0)
(0.201202 0.0666408 -1.5384e-22)
(0.0662862 0.0224468 0)
(0.314264 0.081006 1.16276e-22)
(0.197498 0.0500355 5.30247e-23)
(0.198114 0.050202 0)
(0.118175 0.0295246 3.88417e-23)
(0.118595 0.0296327 -1.18003e-23)
(0.0574444 0.0142222 0)
(0.0575153 0.0142527 1.66269e-23)
(0.0577123 0.0142948 1.03931e-24)
(0.0576217 0.0142749 3.33842e-23)
(0.0185944 0.00456904 1.23177e-23)
(0.0186219 0.00458135 2.63931e-25)
(0.0186915 0.00459358 2.75543e-23)
(0.0186463 0.00458665 0)
(0.459644 0.121551 0)
(0.587798 0.15921 0)
(0.691252 0.191528 1.86137e-26)
(0.763193 0.216074 1.8956e-25)
(0.798785 0.230862 3.90246e-25)
(0.796028 0.234683 -9.15911e-23)
(0.756067 0.227264 0)
(0.683009 0.209269 0)
(0.583278 0.182153 8.86495e-23)
(0.464577 0.147888 0)
(0.33461 0.108612 1.24786e-22)
(0.200109 0.0662591 1.26164e-25)
(0.0658912 0.0223118 -1.10043e-22)
(0.312087 0.080431 0)
(0.196142 0.0496862 6.57049e-24)
(0.196743 0.0498499 0)
(0.117348 0.0293175 -9.27998e-24)
(0.117762 0.0294237 -2.02157e-23)
(0.0570381 0.0141212 0)
(0.05711 0.0141503 8.09225e-25)
(0.0573051 0.0141939 1.52744e-23)
(0.057217 0.0141732 1.39034e-23)
(0.0184648 0.00453696 0)
(0.0184893 0.00454987 0)
(0.018556 0.00456041 2.39108e-23)
(0.0185094 0.00455371 -2.32905e-23)
(0.456451 0.12068 -9.98606e-23)
(0.583723 0.158062 0)
(0.686548 0.190165 9.20445e-23)
(0.758179 0.214574 -1.89485e-25)
(0.793817 0.229321 0)
(0.791401 0.233199 0)
(0.751956 0.225913 0)
(0.679479 0.208092 -8.05217e-23)
(0.580339 0.181163 0)
(0.462195 0.147079 0)
(0.332864 0.10801 0)
(0.199 0.0658747 1.02398e-22)
(0.0654774 0.0221758 -2.11076e-22)
(0.309919 0.0798574 1.15394e-22)
(0.194807 0.0493434 3.37209e-23)
(0.195404 0.0495046 1.49301e-25)
(0.116541 0.0291139 2.94216e-23)
(0.116946 0.0292173 -8.41327e-24)
(0.0566379 0.0140237 0)
(0.0567116 0.0140497 1.21977e-23)
(0.0568997 0.0140935 8.82694e-25)
(0.0568283 0.0140774 9.76677e-25)
(0.0183318 0.00450438 0)
(0.0183576 0.00451673 2.53415e-25)
(0.0184254 0.00452866 0)
(0.0183816 0.00452144 -2.77422e-25)
(0.453254 0.119806 -5.77223e-25)
(0.579626 0.156912 -1.02176e-22)
(0.681796 0.188786 0)
(0.753127 0.213047 0)
(0.788862 0.227762 2.99353e-25)
(0.786837 0.231716 0)
(0.747923 0.224577 0)
(0.676009 0.20693 1.58872e-25)
(0.577417 0.180176 -8.45838e-23)
(0.45984 0.146274 0)
(0.331076 0.107395 1.70226e-22)
(0.197873 0.0654883 1.11927e-22)
(0.0650636 0.0220348 1.03177e-22)
(0.307786 0.0792925 -1.91972e-23)
(0.193494 0.0490066 2.81753e-23)
(0.194085 0.0491657 -3.08896e-23)
(0.115749 0.0289146 -3.1725e-23)
(0.11615 0.0290156 -1.41643e-23)
(0.0562531 0.013928 0)
(0.0563246 0.013953 1.02688e-23)
(0.0565067 0.0139952 0)
(0.0564393 0.0139798 9.71834e-25)
(0.0181998 0.00447343 0)
(0.0182388 0.00448655 -7.97685e-24)
(0.0182926 0.00449664 2.9608e-25)
(0.0182523 0.00448978 8.6582e-24)
(0.450034 0.118928 3.70269e-25)
(0.575465 0.15574 0)
(0.676937 0.187363 5.69755e-25)
(0.748013 0.211479 0)
(0.783907 0.226178 -6.80265e-23)
(0.782326 0.230235 7.18239e-23)
(0.743957 0.223259 -1.52563e-25)
(0.672583 0.205782 7.69193e-23)
(0.574502 0.179189 -3.16445e-25)
(0.457466 0.145462 -1.44041e-22)
(0.329291 0.106777 0)
(0.196706 0.0650795 0)
(0.0646449 0.0218934 -2.6455e-22)
(0.305647 0.0787225 -1.61555e-23)
(0.192194 0.0486674 -1.05933e-25)
(0.19278 0.0488275 5.7039e-23)
(0.11497 0.0287206 -3.18242e-23)
(0.115365 0.0288177 1.75082e-23)
(0.0558717 0.0138336 0)
(0.0559426 0.0138578 0)
(0.0561226 0.0138988 9.12655e-25)
(0.0560542 0.0138838 9.53289e-25)
(0.0180778 0.00444351 6.22897e-24)
(0.0181153 0.00445615 5.29573e-26)
(0.0181674 0.00446551 7.13153e-24)
(0.0181283 0.00445873 1.41386e-23)
(0.446741 0.118027 0)
(0.571139 0.154521 0)
(0.671913 0.185876 -6.16398e-23)
(0.742792 0.209848 1.28263e-22)
(0.77894 0.224568 -7.20149e-23)
(0.77786 0.228765 -6.94266e-23)
(0.740035 0.221956 -1.46276e-25)
(0.669162 0.204633 7.98531e-23)
(0.571579 0.178195 -8.2856e-23)
(0.455068 0.144631 0)
(0.327459 0.106135 0)
(0.195534 0.064668 1.3583e-22)
(0.0642228 0.021748 1.36157e-22)
(0.303456 0.0781389 0)
(0.190918 0.0483321 -1.72559e-23)
(0.191509 0.048496 2.61763e-23)
(0.114211 0.0285267 -4.02272e-24)
(0.114599 0.0286244 -2.86841e-23)
(0.0555025 0.0137434 0)
(0.055569 0.0137661 6.83221e-24)
(0.0557472 0.0138057 7.53033e-24)
(0.0556797 0.0137902 7.34383e-24)
(0.0179535 0.00441314 4.94978e-24)
(0.0179913 0.00442559 0)
(0.0180437 0.00443482 1.18647e-23)
(0.0180028 0.00442794 5.9402e-24)
(0.443297 0.117093 -5.59524e-23)
(0.566555 0.153223 6.80557e-23)
(0.666638 0.18428 -6.23282e-23)
(0.737423 0.208138 0)
(0.773967 0.222951 6.97353e-23)
(0.773433 0.227314 0)
(0.736133 0.220664 -1.49365e-22)
(0.665744 0.203482 7.48854e-23)
(0.568631 0.177182 -8.30134e-23)
(0.452626 0.14378 0)
(0.325593 0.105476 0)
(0.194336 0.0642419 2.01237e-22)
(0.0637687 0.021596 2.68955e-23)
(0.301191 0.0775378 5.43792e-23)
(0.189627 0.0479959 1.23047e-23)
(0.190236 0.0481634 0)
(0.113463 0.0283355 1.07687e-23)
(0.113839 0.0284295 -6.76974e-24)
(0.0551357 0.0136505 0)
(0.0552058 0.0136722 5.1782e-24)
(0.0553759 0.0137148 5.95142e-24)
(0.0553107 0.0137011 -5.01431e-24)
(0.0178371 0.00438461 3.80356e-24)
(0.0178707 0.00439649 3.33855e-26)
(0.0179235 0.00440549 4.57593e-24)
(0.0178825 0.00439795 4.3638e-24)
(0.439545 0.116078 7.14946e-25)
(0.561528 0.15177 -3.85433e-23)
(0.660987 0.182526 0)
(0.73193 0.206377 4.53217e-23)
(0.769006 0.221351 -1.27107e-25)
(0.769045 0.225887 1.39325e-22)
(0.732242 0.219373 5.83719e-25)
(0.662296 0.202313 1.52397e-22)
(0.565646 0.17615 0)
(0.450131 0.142903 -3.4247e-25)
(0.323684 0.104799 -1.62666e-22)
(0.193096 0.0638036 4.90194e-23)
(0.0632899 0.021435 2.07022e-22)
(0.298702 0.0768818 2.28558e-24)
(0.188327 0.0476519 0)
(0.188938 0.0478224 2.76507e-23)
(0.112724 0.0281473 -1.13449e-23)
(0.113095 0.0282392 2.17705e-24)
(0.0547785 0.0135626 3.44953e-24)
(0.0548507 0.0135837 3.6608e-24)
(0.0550141 0.0136229 9.68429e-25)
(0.0549523 0.0136102 4.28215e-24)
(0.0177158 0.00435306 2.61687e-24)
(0.0177526 0.00436452 0)
(0.0177995 0.00437671 3.32779e-24)
(0.0177697 0.00437344 2.09618e-25)
(0.435227 0.114908 4.39961e-23)
(0.555855 0.150084 -1.69912e-25)
(0.654976 0.180627 -4.86985e-23)
(0.726376 0.204622 4.71838e-23)
(0.764105 0.219799 -1.27198e-22)
(0.764701 0.224476 0)
(0.728345 0.218071 -7.14447e-23)
(0.658819 0.201122 0)
(0.562598 0.175086 0)
(0.447595 0.142005 3.42391e-25)
(0.321738 0.104104 -3.86876e-22)
(0.191806 0.0633449 -1.92104e-22)
(0.0628029 0.0212692 -2.10512e-22)
(0.295721 0.0761255 0)
(0.186887 0.0472766 8.10557e-24)
(0.187611 0.0474745 -1.1799e-23)
(0.111974 0.0279544 -9.48858e-25)
(0.112362 0.0280509 -9.23929e-24)
(0.0544387 0.0134763 1.93695e-24)
(0.054505 0.0134977 -2.22817e-24)
(0.0546641 0.0135363 0)
(0.0546046 0.0135217 -2.80169e-24)
(0.0175991 0.0043253 1.51635e-24)
(0.0176372 0.0043361 0)
(0.0176807 0.00434706 4.79876e-24)
(0.0176528 0.0043443 -2.35982e-24)
(0.429948 0.113442 0)
(0.549316 0.148058 1.69434e-25)
(0.648729 0.178695 -5.10727e-23)
(0.720928 0.202958 6.23741e-23)
(0.759323 0.218291 -9.58587e-25)
(0.760398 0.223068 0)
(0.724437 0.216753 -1.08957e-24)
(0.655293 0.199906 5.96616e-25)
(0.559508 0.173998 0)
(0.445014 0.141082 3.69758e-22)
(0.319757 0.103389 3.98776e-25)
(0.190468 0.0628634 4.45177e-25)
(0.0623043 0.0211018 2.41096e-23)
(0.291699 0.0750894 2.9748e-24)
(0.185066 0.0468359 5.98414e-27)
(0.186056 0.047087 -5.97981e-27)
(0.111183 0.0277517 -6.09161e-25)
(0.111618 0.0278559 1.83134e-25)
(0.0540993 0.0133909 9.3419e-25)
(0.0541703 0.0134131 7.71547e-25)
(0.0543233 0.0134501 -1.51726e-24)
(0.0542666 0.0134369 0)
(0.0174941 0.00429846 0)
(0.0175264 0.00430937 7.86726e-25)
(0.0175697 0.00432055 -1.2457e-24)
(0.017542 0.00431623 -1.20839e-24)
(0.422958 0.111379 2.84019e-23)
(0.542143 0.14587 0)
(0.642654 0.176927 3.63899e-25)
(0.715732 0.201379 0)
(0.754674 0.216808 8.89916e-25)
(0.756131 0.221657 0)
(0.720508 0.215418 5.37446e-25)
(0.651732 0.198664 -5.96525e-25)
(0.556378 0.172882 2.75894e-24)
(0.442405 0.140135 3.78157e-25)
(0.317699 0.102639 0)
(0.189123 0.0623823 -2.48087e-22)
(0.061792 0.0209272 2.2912e-23)
(0.284664 0.0732362 -3.29924e-23)
(0.181964 0.0461093 -4.8753e-24)
(0.183803 0.0465824 6.48417e-26)
(0.110229 0.0275219 -1.86392e-24)
(0.110782 0.0276429 1.38987e-24)
(0.0537649 0.0133084 0)
(0.0538367 0.0133301 7.87413e-25)
(0.0539892 0.0133647 -5.77069e-26)
(0.0539337 0.0133506 -1.77442e-25)
(0.0173845 0.00427179 -1.00427e-24)
(0.0174206 0.00428325 -2.94044e-25)
(0.0174601 0.00429295 1.64037e-25)
(0.0174343 0.00429009 -1.8818e-25)
(0.414277 0.108803 -4.46073e-23)
(0.535283 0.143993 0)
(0.637107 0.175317 6.84176e-25)
(0.710829 0.199861 -4.20357e-23)
(0.750145 0.215346 -4.25297e-25)
(0.751892 0.220244 0)
(0.716567 0.214063 0)
(0.648134 0.197394 -2.30006e-22)
(0.553202 0.171735 -1.76937e-22)
(0.439725 0.139155 4.29341e-25)
(0.315625 0.101878 0)
(0.187752 0.0618805 -2.82224e-22)
(0.0612634 0.0207474 3.50343e-22)
(0.272461 0.0699084 2.2249e-23)
(0.174234 0.0440449 1.35616e-24)
(0.179125 0.0455586 6.61683e-24)
(0.108532 0.027162 0)
(0.109583 0.0273683 -2.38924e-24)
(0.0534038 0.0132191 3.90403e-24)
(0.0534925 0.0132443 2.38572e-24)
(0.0536468 0.0132772 0)
(0.0535959 0.0132628 8.41546e-25)
(0.0172828 0.00424696 -1.81699e-24)
(0.0173161 0.00425765 -1.36529e-24)
(0.0173543 0.00426621 -9.15705e-25)
(0.0173283 0.00426278 0)
(0.406312 0.106739 -5.90801e-25)
(0.52952 0.142399 -3.78661e-23)
(0.632136 0.173821 1.38e-23)
(0.706198 0.198404 -5.87598e-25)
(0.745726 0.213905 0)
(0.747687 0.218825 0)
(0.712616 0.21269 6.9118e-23)
(0.644517 0.196101 1.60708e-22)
(0.549989 0.170565 3.79478e-25)
(0.437026 0.138152 -4.29249e-25)
(0.313488 0.101083 -2.83575e-22)
(0.186356 0.0613689 -3.23209e-22)
(0.0607188 0.0205575 3.9868e-22)
(0.262576 0.067371 6.7887e-25)
(0.1558 0.0396565 -1.43447e-23)
(0.165232 0.0413696 8.60496e-23)
(0.103398 0.0259428 -1.04684e-24)
(0.106904 0.0268358 -5.67711e-24)
(0.0528059 0.0130906 0)
(0.0530267 0.0131364 -4.817e-24)
(0.0532698 0.0131885 -9.49778e-25)
(0.0531664 0.0131583 -4.68139e-24)
(0.0171735 0.00422049 -6.04588e-24)
(0.0172142 0.0042317 -2.59321e-24)
(0.017252 0.00424039 0)
(0.0172255 0.00423675 1.53353e-25)
(0.400582 0.105148 1.72013e-23)
(0.524752 0.140986 3.43428e-23)
(0.627604 0.172427 0)
(0.701775 0.196998 5.88462e-25)
(0.741404 0.212481 -3.47123e-23)
(0.743517 0.217403 -3.97534e-25)
(0.708666 0.211298 2.53394e-25)
(0.640873 0.194782 0)
(0.546748 0.169361 -3.79326e-25)
(0.434268 0.137116 4.82742e-22)
(0.31136 0.100281 2.85433e-25)
(0.184906 0.0608247 -3.66451e-22)
(0.0601332 0.0203652 0)
(0.25771 0.065769 3.40503e-23)
(0.147491 0.0371397 -6.87186e-24)
(0.15002 0.0379692 -3.66224e-26)
(0.0776678 0.0200932 1.38514e-23)
(0.091934 0.022564 -3.58434e-23)
(0.0491331 0.0119878 -7.67665e-25)
(0.0511437 0.0128537 -4.54566e-26)
(0.0525309 0.0130495 3.83143e-26)
(0.0520291 0.0129579 6.35901e-24)
(0.017013 0.00418052 0)
(0.0170865 0.00419728 -4.391e-25)
(0.0171488 0.00421642 2.9681e-24)
(0.0171038 0.00420437 -1.84177e-25)
(0.396478 0.103926 1.56643e-24)
(0.520654 0.13975 2.95463e-24)
(0.623425 0.171136 -2.51297e-25)
(0.697536 0.19564 1.62299e-23)
(0.73718 0.211074 5.85824e-25)
(0.739384 0.215973 3.97716e-25)
(0.704724 0.209886 -5.06311e-25)
(0.637211 0.193432 0)
(0.543486 0.168132 -2.13437e-22)
(0.431488 0.136053 2.73781e-25)
(0.309147 0.0994372 -3.41464e-22)
(0.18339 0.0602663 0)
(0.059523 0.0201608 -1.01479e-21)
(0.255002 0.0649698 5.78047e-24)
(0.145194 0.0363193 -3.29516e-24)
(0.146029 0.0365659 1.43588e-23)
(0.0715756 0.0177302 6.67921e-24)
(0.0727065 0.0182832 -1.72489e-25)
(0.0183864 0.00494241 -2.15352e-24)
(0.020578 0.0050823 2.35234e-24)
(0.0447789 0.0102256 -1.04541e-24)
(0.0301619 0.00506216 0)
(0.0157542 0.00401517 3.09342e-24)
(0.016471 0.00411845 7.30209e-26)
(0.0169335 0.00416578 4.65042e-24)
(0.0167699 0.00414022 3.67592e-25)
(0.393162 0.102961 -3.32485e-24)
(0.51698 0.138651 6.33239e-24)
(0.619511 0.169921 1.79864e-23)
(0.693458 0.194317 0)
(0.733038 0.209672 -2.74804e-25)
(0.735292 0.214533 0)
(0.700791 0.208453 5.57325e-23)
(0.633546 0.192057 0)
(0.540199 0.166869 0)
(0.428672 0.134962 3.15603e-24)
(0.306899 0.0985725 0)
(0.181837 0.0596877 9.79557e-22)
(0.0589119 0.0199503 -5.70062e-22)
(0.253011 0.0644967 1.15819e-23)
(0.14408 0.0360989 1.19748e-25)
(0.144524 0.0361832 -1.24703e-23)
(0.0706616 0.0174488 6.75936e-26)
(0.0710093 0.0175473 -1.35112e-23)
(0.0167006 0.00410723 4.77483e-24)
(0.0167713 0.0041417 5.41197e-24)
(0.0172535 0.00435664 -2.83275e-24)
(0.0168325 0.0042082 -3.39375e-24)
(0.0146709 0.00369457 -2.97679e-26)
(0.00830174 0.00128413 -7.2175e-23)
(0.390343 0.102163 -7.03445e-24)
(0.513656 0.137656 1.91805e-23)
(0.615807 0.168756 0)
(0.689514 0.193019 0)
(0.728978 0.208275 -1.81565e-23)
(0.73124 0.213081 -5.39228e-23)
(0.696867 0.206995 2.58641e-25)
(0.629874 0.190651 0)
(0.536886 0.165573 2.50287e-22)
(0.425795 0.133829 -3.10603e-22)
(0.304591 0.0976741 -4.0871e-22)
(0.180237 0.059082 0)
(0.0582476 0.0197287 -6.48509e-22)
(0.251309 0.0640926 -1.46171e-23)
(0.143216 0.0359335 0)
(0.143577 0.0360117 -1.81724e-23)
(0.0702486 0.0173762 0)
(0.0704313 0.0174155 -5.05667e-24)
(0.0166366 0.00408568 -4.8467e-24)
(0.0166443 0.00408783 -5.15458e-24)
(0.016679 0.00410106 0)
(0.0166657 0.00409729 4.88909e-24)
(0.387832 0.101452 -1.79289e-23)
(0.510568 0.136724 2.48773e-25)
(0.612281 0.167634 -1.36544e-23)
(0.685687 0.191738 2.05912e-23)
(0.724994 0.206878 -1.25066e-23)
(0.72723 0.211613 -1.63612e-25)
(0.692962 0.205512 -5.4734e-23)
(0.626204 0.189212 0)
(0.533526 0.164235 2.73996e-23)
(0.422881 0.132661 0)
(0.302209 0.0967363 0)
(0.178578 0.0584577 0)
(0.0575692 0.0195051 -7.38706e-22)
(0.249814 0.0637151 0)
(0.142423 0.035749 0)
(0.14276 0.0358359 2.30136e-23)
(0.0698891 0.0173023 -6.91704e-24)
(0.0700704 0.0173496 0)
(0.016587 0.00407705 0)
(0.0165888 0.00407821 -5.76365e-24)
(0.0166159 0.00408463 1.02692e-23)
(0.0166152 0.00408366 -4.10102e-26)
(0.385555 0.100803 -2.71641e-25)
(0.507651 0.135833 1.51816e-23)
(0.608888 0.166535 2.07473e-23)
(0.68196 0.190465 1.3039e-23)
(0.721078 0.205472 0)
(0.723263 0.210125 8.06475e-23)
(0.689079 0.204 -5.47158e-23)
(0.622512 0.187735 3.10729e-22)
(0.530146 0.162859 2.68964e-25)
(0.419929 0.131461 -3.74308e-22)
(0.299782 0.0957707 0)
(0.176878 0.0578142 0)
(0.0568722 0.0192736 8.49351e-22)
(0.248442 0.0633555 3.06594e-25)
(0.14167 0.0355609 0)
(0.141984 0.0356459 0)
(0.0695266 0.0172169 -7.90247e-24)
(0.0697084 0.0172668 1.01917e-25)
(0.0165099 0.00405649 -2.77873e-25)
(0.0165216 0.0040618 0)
(0.0165567 0.00407322 6.22206e-24)
(0.0165508 0.00406904 6.49051e-24)
(0.383405 0.100182 4.57283e-25)
(0.504871 0.134973 -2.53567e-23)
(0.605619 0.165458 0)
(0.678336 0.189198 1.74423e-26)
(0.717231 0.204056 -2.77598e-23)
(0.719339 0.208615 5.31702e-23)
(0.685208 0.202455 -1.38874e-22)
(0.618812 0.186221 -9.4567e-23)
(0.526757 0.161449 3.28005e-22)
(0.416919 0.130213 0)
(0.297331 0.094775 0)
(0.175093 0.0571306 -7.78983e-22)
(0.0561311 0.01904 9.43534e-22)
(0.24714 0.0630061 -1.26545e-25)
(0.140958 0.035377 1.38831e-25)
(0.141254 0.0354619 -1.38874e-25)
(0.0691832 0.0171337 0)
(0.0693506 0.017178 0)
(0.0164287 0.0040375 0)
(0.0164407 0.00404255 7.96655e-24)
(0.0164773 0.0040525 7.49823e-24)
(0.0164721 0.00404977 7.74558e-24)
(0.381374 0.0995904 -4.57075e-25)
(0.502223 0.134139 0)
(0.602456 0.164389 4.2057e-23)
(0.674798 0.187926 2.60504e-23)
(0.713456 0.202625 3.2215e-26)
(0.715457 0.207078 5.37814e-23)
(0.681354 0.200875 8.8792e-23)
(0.615123 0.184665 0)
(0.523325 0.159986 0)
(0.413877 0.128917 -4.54677e-22)
(0.294746 0.0937173 0)
(0.173228 0.0564414 0)
(0.0553455 0.0187598 1.07647e-21)
(0.245901 0.0626665 2.72602e-26)
(0.140265 0.0351985 -1.59433e-25)
(0.140563 0.035285 1.59487e-25)
(0.0688401 0.0170492 0)
(0.0690134 0.0170945 0)
(0.0163588 0.00401957 0)
(0.0163606 0.00402326 -9.30683e-24)
(0.0163985 0.00403261 -8.72366e-24)
(0.0163905 0.00402978 8.97472e-24)
(0.379439 0.0990164 -8.66904e-23)
(0.499674 0.133316 -1.15724e-22)
(0.599399 0.163323 -2.81657e-23)
(0.671348 0.186645 0)
(0.709741 0.201173 1.43605e-26)
(0.711616 0.20551 0)
(0.677516 0.199252 0)
(0.611413 0.183058 0)
(0.519838 0.158463 3.98587e-22)
(0.410734 0.127567 0)
(0.292081 0.0926229 0)
(0.171262 0.0557329 -9.87606e-22)
(0.0547184 0.0183299 1.22198e-21)
(0.24472 0.0623424 1.01658e-22)
(0.139613 0.0350246 -1.69758e-25)
(0.13989 0.0351069 3.60772e-25)
(0.0685071 0.0169661 0)
(0.0686742 0.0170133 0)
(0.016275 0.00400093 1.07662e-23)
(0.0162892 0.00400554 -1.04505e-23)
(0.0163258 0.0040144 -9.83639e-24)
(0.0163191 0.00401144 1.00015e-23)
(0.377602 0.0984637 8.05406e-23)
(0.497235 0.132503 -2.57428e-25)
(0.59644 0.162252 0)
(0.667979 0.18535 0)
(0.706091 0.199699 -1.7293e-23)
(0.707817 0.203909 -1.73793e-23)
(0.673695 0.197587 -6.16518e-23)
(0.607673 0.181399 0)
(0.516324 0.156894 -3.87714e-25)
(0.407502 0.126152 0)
(0.289354 0.0914917 0)
(0.169142 0.0548709 -1.12094e-21)
(0.055217 0.017975 1.42326e-21)
(0.243595 0.0620429 2.36533e-25)
(0.13898 0.0348627 4.02532e-25)
(0.139236 0.0349358 -5.93446e-25)
(0.0681887 0.0168842 0)
(0.068353 0.0169281 -1.22015e-23)
(0.016201 0.00398141 1.20143e-23)
(0.016211 0.00398675 -1.17386e-23)
(0.0162492 0.00399852 0)
(0.0162391 0.00399337 0)
(0.375851 0.0979243 1.16219e-22)
(0.494903 0.131688 9.76809e-23)
(0.593585 0.161175 0)
(0.664692 0.184043 1.80217e-23)
(0.702509 0.198201 1.74772e-23)
(0.70406 0.202269 4.43216e-23)
(0.669886 0.195873 0)
(0.603935 0.179684 0)
(0.512726 0.155251 4.13264e-22)
(0.404264 0.12468 0)
(0.286213 0.0902305 0)
(0.169207 0.0537748 6.15787e-23)
(0.0492249 0.0151381 -5.95498e-23)
(0.242534 0.0617749 -1.36922e-22)
(0.138362 0.0347222 0)
(0.138622 0.0347848 5.78129e-23)