/*--------------------------------*- C++ -*----------------------------------*\
| =========                 |                                                 |
| \\      /  F ield         | OpenFOAM: The Open Source CFD Toolbox           |
|  \\    /   O peration     | Version:  v1912                                 |
|   \\  /    A nd           | Website:  www.openfoam.com                      |
|    \\/     M anipulation  |                                                 |
\*---------------------------------------------------------------------------*/
FoamFile
{
    version     2.0;
    format      ascii;
    class       volScalarField;
    location    "80";
    object      p;
}
// * * * * * * * * * * * * * * * * * * * * * * * * * * * * * * * * * * * * * //

dimensions      [0 2 -2 0 0 0 0];


internalField   nonuniform List<scalar> 
3673
(
0.173151
0.155846
0.103787
0.156437
0.112343
0.0778436
0.171797
0.134437
0.0926128
0.0922966
0.189454
0.15657
0.113659
0.0989312
0.106366
0.206314
0.175887
0.13687
0.110766
0.108801
0.113558
0.222464
0.194128
0.160042
0.128847
0.115314
0.114695
0.116126
0.237788
0.211897
0.182365
0.150975
0.127908
0.118606
0.116911
0.115394
0.251985
0.229008
0.203615
0.174281
0.146098
0.127181
0.119357
0.116211
0.112292
0.264752
0.245209
0.223904
0.197461
0.167498
0.141116
0.124992
0.117874
0.113253
0.107709
0.275762
0.260232
0.243347
0.220325
0.190393
0.159221
0.134875
0.121417
0.114552
0.108819
0.102327
0.284674
0.273731
0.261875
0.242967
0.214192
0.180005
0.148752
0.127765
0.116762
0.10999
0.103556
0.0965731
0.291142
0.285307
0.279221
0.265415
0.238885
0.202733
0.165654
0.137115
0.120494
0.111487
0.104708
0.0978807
0.0907321
0.294856
0.294517
0.294958
0.287512
0.264627
0.227379
0.184908
0.148942
0.125999
0.113677
0.105886
0.0990355
0.0920799
0.0850113
0.295563
0.300909
0.308511
0.308885
0.291516
0.254308
0.206452
0.162656
0.132978
0.116749
0.107313
0.100052
0.0932355
0.0863695
0.0795285
0.293131
0.304048
0.319162
0.328882
0.319474
0.284048
0.230743
0.177994
0.140869
0.120555
0.109133
0.101068
0.094156
0.0875174
0.0808755
0.0743565
0.287571
0.303596
0.326085
0.346515
0.348112
0.317185
0.258627
0.195036
0.149114
0.124694
0.111316
0.102178
0.0949209
0.0883901
0.0820174
0.0756747
0.0695132
0.279084
0.299379
0.32844
0.360372
0.376548
0.354249
0.291347
0.214122
0.157149
0.128663
0.113651
0.103397
0.095582
0.0890374
0.0828751
0.0767953
0.0707905
0.0650157
0.26805
0.291472
0.325549
0.368617
0.403044
0.395605
0.330595
0.235866
0.16426
0.131883
0.115839
0.104625
0.0961617
0.0894754
0.0834852
0.0776423
0.0718852
0.0662465
0.0608556
0.255016
0.28023
0.317145
0.369224
0.424327
0.441283
0.378554
0.261113
0.169427
0.13364
0.117528
0.105678
0.0966128
0.0897263
0.0838494
0.0782482
0.0727215
0.0673078
0.0620338
0.0570169
0.240625
0.266294
0.303529
0.360712
0.435038
0.489447
0.438618
0.290538
0.170935
0.133107
0.118289
0.106324
0.0968237
0.0897793
0.0839826
0.0785996
0.0733287
0.068126
0.0630548
0.058141
0.0534874
0.225557
0.250496
0.285643
0.342884
0.42999
0.529166
0.518039
0.325613
0.165203
0.129319
0.117646
0.106275
0.0966467
0.0895778
0.083888
0.078705
0.0736892
0.0687338
0.0638526
0.0591236
0.0545587
0.0502427
0.210438
0.233747
0.264928
0.317152
0.407179
0.53742
0.619191
0.373257
0.149391
0.120404
0.115248
0.105184
0.0959195
0.0890399
0.0835411
0.0785746
0.0738104
0.0691124
0.0644596
0.0598995
0.0554997
0.05126
0.0472672
0.195808
0.216877
0.243039
0.286466
0.367659
0.510205
0.632018
0.654814
0.521743
0.729105
0.605747
0.163976
0.323162
0.140859
0.106504
0.112696
0.110435
0.102859
0.0944808
0.088089
0.0828938
0.0781991
0.0737057
0.0692618
0.0648531
0.0605003
0.0562499
0.0521613
0.0482342
0.044531
0.182077
0.200558
0.221418
0.254483
0.317555
0.443943
0.647059
0.606423
0.759566
0.694043
0.743213
0.630771
0.436755
0.414049
0.153043
0.156636
0.33016
0.103134
0.103827
0.108274
0.102243
0.0952311
0.0995397
0.0923224
0.0866938
0.0819033
0.0775514
0.0733803
0.0691951
0.0650269
0.0609029
0.0568436
0.0528894
0.049094
0.045449
0.0420219
0.169553
0.185274
0.20106
0.224001
0.266271
0.355088
0.558341
0.486907
0.762374
0.662233
0.688747
0.803019
0.776874
0.659511
0.569223
0.116374
0.158855
0.0845751
0.101654
0.0974296
0.0960582
0.0954706
0.0912941
0.0931329
0.0899575
0.0849357
0.0805687
0.0766118
0.0728385
0.0689256
0.0649894
0.0611004
0.0572569
0.0534755
0.049795
0.0462727
0.0428931
0.0397095
0.158438
0.17136
0.182524
0.196583
0.220374
0.271255
0.409822
0.3096
0.618748
0.530107
0.822818
0.822002
0.768903
0.711983
0.756599
0.0891819
0.0918579
0.0780801
0.0901899
0.0915903
0.0915728
0.0881218
0.0883822
0.088888
0.0874591
0.0896004
0.0832522
0.0789827
0.0754011
0.0721044
0.0684702
0.0647536
0.0610955
0.057478
0.0538967
0.0503712
0.0469526
0.0436791
0.0405374
0.0375827
0.148869
0.159024
0.166073
0.172812
0.18255
0.197856
0.204477
0.432811
0.325026
0.691343
0.606904
0.40088
0.503181
0.799434
0.761235
0.0858409
0.0857304
0.0885451
0.0875787
0.0888337
0.0871379
0.0821915
0.0840983
0.0868571
0.086446
0.0873078
0.0847134
0.0865212
0.0774973
0.0739619
0.0712605
0.0678651
0.0643362
0.0608971
0.0575074
0.0541385
0.0507991
0.0475202
0.044336
0.0412903
0.0383698
0.0356145
0.140916
0.148392
0.151803
0.152656
0.152221
0.145084
0.102045
-0.0285501
-0.0933957
0.395706
0.238418
0.159073
0.195237
0.0864974
0.085886
0.0872179
0.0866847
0.0856727
0.0823623
0.0766272
0.0793435
0.083238
0.0853953
0.0862127
0.0851852
0.0859811
0.0723198
0.0704635
0.0671913
0.0637734
0.0605245
0.0573526
0.0541994
0.0510615
0.047954
0.044896
0.0419264
0.0390884
0.0363634
0.0337948
0.134614
0.139523
0.13973
0.135858
0.127944
0.109195
0.0492625
-0.259819
0.00420597
-0.30223
-0.368619
-0.480219
0.368119
0.0635631
-0.0427793
0.0861702
0.0858596
0.0850967
0.0841746
0.0814116
0.0774356
0.0706595
0.0743232
0.0788171
0.0820625
0.0831861
0.0847831
0.0855437
0.0698198
0.0665725
0.0631364
0.0600206
0.0570351
0.0540853
0.0511515
0.048235
0.0453374
0.0424784
0.0397024
0.0370525
0.0345084
0.0321038
0.129963
0.132437
0.129809
0.122137
0.108719
0.0831489
0.0202077
-0.203958
-0.899023
-0.759176
-0.0649571
-0.559001
-0.737661
-0.661917
0.0845328
0.0837429
0.0812821
0.0800989
0.0768194
0.0717467
0.0692694
0.0679404
0.0744155
0.0777013
0.0790048
0.081714
0.0827832
0.0660991
0.0625247
0.0594602
0.0566002
0.0538175
0.0510723
0.048353
0.0456413
0.0429289
0.040247
0.0376465
0.0351658
0.0327845
0.030535
0.126948
0.127122
0.121972
0.111208
0.0937869
0.0639417
0.000821455
-0.162664
-0.700814
-1.117
-0.888144
-0.810537
-0.9017
0.0808856
0.0798245
0.0768451
0.0755113
0.0719395
0.0696638
0.0656008
0.0679347
0.0657164
0.0733134
0.0746989
0.0774615
0.0786822
0.0620293
0.0589286
0.0561169
0.0534435
0.0508448
0.0483077
0.0457943
0.04326
0.0407051
0.0381783
0.0357349
0.0334155
0.031185
0.0290723
0.125535
0.123552
0.116137
0.102813
0.0824447
0.0500526
-0.0112836
-0.137994
-0.52248
-0.816741
-0.981258
-0.989189
-0.882019
0.0764798
0.0752836
0.0727767
0.0726726
0.0698923
0.0657205
0.061636
0.0638944
0.0676812
0.0699482
0.0625441
0.073087
0.0742564
0.0584901
0.0556605
0.0530346
0.0505169
0.0481121
0.0457895
0.0434563
0.0410596
0.0386342
0.0362508
0.0339646
0.0317886
0.0296954
0.0277059
0.125685
0.121684
0.112225
0.0967296
0.0741166
0.0402165
-0.0180978
-0.122702
-0.390778
-0.685485
-0.688842
-0.852639
-0.936533
-0.966341
-0.925341
0.0718058
0.0733368
0.0700917
0.0692189
0.0653036
0.0620551
0.0581357
0.0603482
0.0635257
0.0667039
0.0676473
0.0591369
0.0552879
0.0526538
0.0501669
0.0478085
0.045634
0.0435106
0.0413014
0.0390008
0.0366999
0.0344632
0.0323167
0.0302741
0.0283017
0.0264349
0.127344
0.121477
0.110162
0.0927807
0.0683666
0.0335182
-0.021615
-0.111595
-0.304671
-0.552137
-0.642149
-0.599654
-0.691562
-0.747359
-0.836472
-0.87623
-0.937932
0.0654931
0.0646114
0.0617816
0.0586887
0.0549565
0.0570803
0.0600878
0.0629501
0.0637345
0.0523334
0.0498701
0.0474695
0.0453529
0.0434272
0.0414285
0.0392705
0.0370669
0.0348992
0.0327994
0.03078
0.028859
0.0270078
0.0252406
0.130455
0.122878
0.109884
0.0908244
0.064877
0.0293407
-0.0229937
-0.102444
-0.248197
-0.446199
-0.569837
-0.584183
-0.554095
-0.593155
-0.628257
-0.673885
-0.705947
-0.73392
-0.76818
-0.836921
-0.879146
0.0620295
0.0611644
0.0584752
0.0555842
0.0521018
0.0527682
0.0569531
0.0595451
0.0603139
0.0496482
0.0471846
0.0449884
0.0432227
0.0414526
0.0394417
0.0373404
0.0352591
0.0332237
0.0312453
0.0293496
0.0275426
0.0257902
0.0241241
0.134948
0.125833
0.111336
0.0907624
0.0634198
0.0272608
-0.0228553
-0.0943706
-0.209845
-0.36756
-0.492133
-0.545527
-0.54561
-0.512743
-0.541609
-0.564364
-0.58403
-0.601631
-0.615936
-0.638479
-0.671567
-0.702852
-0.731607
-0.762105
0.0586869
0.0578815
0.0559401
0.0525004
0.0494527
0.0511249
0.0495847
0.0516378
0.0564013
0.0570896
0.0470306
0.0445999
0.0429173
0.0414032
0.0395267
0.0375178
0.0355305
0.0335761
0.0316585
0.0297998
0.0280134
0.0263062
0.0246534
0.0230725
0.140739
0.130279
0.114472
0.0925256
0.0638511
0.0269866
-0.0215601
-0.0870621
-0.182671
-0.310253
-0.424779
-0.493404
-0.522177
-0.508619
-0.477668
-0.501466
-0.520307
-0.539634
-0.553109
-0.568232
-0.583056
-0.60155
-0.614122
-0.636513
0.0558229
0.0551092
0.0586545
0.0522982
0.0518815
0.0498943
0.0469614
0.0484812
0.0512534
0.0506752
0.0525703
0.0443355
0.042481
0.0413254
0.0395547
0.0376056
0.0357078
0.0338461
0.0320048
0.0301979
0.028447
0.0267619
0.0251505
0.0235829
0.0220866
0.147725
0.136146
0.119254
0.0960824
0.0660886
0.0283462
-0.0193123
-0.0803847
-0.162577
-0.268317
-0.370624
-0.442699
-0.486262
-0.495832
-0.475844
-0.449465
-0.469305
-0.483893
-0.500453
-0.518546
-0.533431
-0.557258
-0.545012
-0.5668
-0.581156
-0.598075
-0.607901
0.055429
0.0521062
0.0516964
0.0500906
0.0493756
0.0474111
0.0443909
0.0459983
0.048726
0.0480802
0.0511484
0.0506103
0.0523327
0.0417908
0.0412679
0.0395597
0.0376218
0.0357958
0.0340276
0.0322713
0.0305317
0.0288332
0.0271833
0.0255924
0.0240649
0.0225791
0.0211526
0.155778
0.143346
0.125644
0.101425
0.0701149
0.0312543
-0.0162017
-0.0742396
-0.147223
-0.237138
-0.327923
-0.398627
-0.447471
-0.472518
-0.468653
-0.448557
-0.423745
-0.441548
-0.455052
-0.468583
-0.4824
-0.49599
-0.503915
-0.521794
-0.512355
-0.555759
-0.565135
0.0519514
0.0515996
0.0499729
0.0492838
0.0475694
0.046855
0.0450321
0.0409247
0.0436555
0.0462573
0.0455711
0.0486655
0.0480502
0.0510617
0.0505572
0.0412106
0.0395723
0.0375855
0.0358091
0.0341244
0.0324534
0.0307908
0.0291567
0.0275579
0.0260017
0.0244929
0.0230435
0.0216274
0.0202725
0.164737
0.151771
0.133602
0.108575
0.0759654
0.0357125
-0.0122416
-0.0685098
-0.135234
-0.213666
-0.29436
-0.361731
-0.411588
-0.44381
-0.453706
-0.44391
-0.423705
-0.401933
-0.416652
-0.428724
-0.440514
-0.45368
-0.463838
-0.471451
-0.484801
-0.478682
0.0499077
0.0492492
0.0474411
0.046765
0.0451442
0.0444179
0.0419822
0.0410608
0.0399002
0.0440609
0.0433389
0.0461938
0.0455564
0.0485986
0.0480129
0.0395938
0.0375137
0.035766
0.0341502
0.0325555
0.0309689
0.0294052
0.0278701
0.0263655
0.0248924
0.0234601
0.022079
0.0207325
0.0194339
0.1744
0.161276
0.143074
0.11757
0.0837352
0.041798
-0.00738297
-0.0630825
-0.125763
-0.19592
-0.268079
-0.331301
-0.380428
-0.415226
-0.433196
-0.433908
-0.421028
-0.402128
-0.382275
-0.395763
-0.406038
-0.415651
-0.427682
-0.436395
-0.442944
-0.455925
-0.449156
-0.462972
-0.470317
-0.481332
-0.477539
0.0473732
0.0467349
0.044983
0.0443324
0.042884
0.0415728
0.0410185
0.0394933
0.0405782
0.0387136
0.0409916
0.0439366
0.0434748
0.0461326
0.0455263
0.0374188
0.0356801
0.0341236
0.0325897
0.0310712
0.0295739
0.0281078
0.0266697
0.0252526
0.0238534
0.0224864
0.0211676
0.019879
0.0186376
0.184514
0.17168
0.153981
0.12846
0.0935681
0.0496787
-0.00150995
-0.0578392
-0.118284
-0.182589
-0.247705
-0.306467
-0.354008
-0.389391
-0.411277
-0.419239
-0.414474
-0.400473
-0.383011
-0.364673
-0.373817
-0.385671
-0.395099
-0.405164
-0.411793
-0.418013
-0.429706
-0.42366
-0.435725
-0.442038
-0.454872
-0.448488
0.0449067
0.0442886
0.0430044
0.0438416
0.0412396
0.0409753
0.0395041
0.0373021
0.0386643
0.0404267
0.0401048
0.0362922
0.0431504
0.0437881
0.0433848
0.0355688
0.0340566
0.0325738
0.0311111
0.0296685
0.0282649
0.0268998
0.0255556
0.0242099
0.0228715
0.0215601
0.0203016
0.0190695
0.0178763
0.194777
0.182738
0.166204
0.141297
0.105668
0.0596077
0.00557088
-0.052664
-0.112497
-0.172837
-0.232223
-0.286516
-0.33187
-0.366901
-0.390568
-0.402636
-0.404074
-0.39607
-0.38189
-0.365293
-0.36281
-0.348734
-0.378066
-0.38489
-0.391767
-0.39686
-0.406937
-0.401715
-0.411147
-0.418041
-0.428709
-0.423103
0.0425675
0.0436921
0.0415895
0.0408664
0.0395567
0.0391409
0.0375779
0.0354397
0.0367044
0.0386977
0.038338
0.0403401
0.0399791
0.0334042
0.0339516
0.0325174
0.0311037
0.0297059
0.0283476
0.027046
0.025784
0.0245157
0.0232257
0.0219359
0.0206837
0.0194797
0.0182969
0.0171477
0.204824
0.194145
0.179561
0.156114
0.120289
0.0719519
0.0141547
-0.0474132
-0.108272
-0.166185
-0.220914
-0.270887
-0.313603
-0.34764
-0.371992
-0.386317
-0.391583
-0.388679
-0.378875
-0.364717
-0.349377
-0.347366
-0.357834
-0.366539
-0.334849
-0.376166
-0.386193
-0.380377
-0.391149
-0.396155
-0.406955
-0.401165
-0.408912
0.0395167
0.039088
0.0377764
0.0372744
0.0357427
0.0338099
0.0349133
0.0368158
0.0364309
0.038682
0.0383292
0.0324224
0.0310576
0.0297047
0.0283732
0.0271092
0.025926
0.0247538
0.0235376
0.0222872
0.0210475
0.0198486
0.0186952
0.0175578
0.0164486
0.214245
0.205513
0.193772
0.17288
0.137724
0.0872127
0.0246638
-0.0419036
-0.10563
-0.162457
-0.213326
-0.259144
-0.298901
-0.331406
-0.355701
-0.371276
-0.378811
-0.37933
-0.373594
-0.36276
-0.349153
-0.335288
-0.333855
-0.343096
-0.349725
-0.355917
-0.359433
-0.363318
-0.367514
-0.321213
-0.372417
-0.377198
-0.382702
-0.385885
-0.390529
-0.395375
-0.405701
-0.400418
0.0377608
0.0372391
0.0359214
0.0354434
0.0340681
0.0322828
0.0332874
0.0350148
0.0346571
0.0367925
0.03642
0.0309706
0.0296735
0.0283649
0.027108
0.0259777
0.0249099
0.0237942
0.0226016
0.0213855
0.0201975
0.0190522
0.0179484
0.0168494
0.0157786
0.222591
0.216368
0.208428
0.19146
0.158283
0.106052
0.0377176
-0.0358816
-0.104749
-0.161754
-0.209254
-0.250979
-0.287517
-0.31804
-0.341665
-0.357795
-0.366732
-0.369396
-0.366601
-0.359023
-0.347861
-0.335122
-0.321797
-0.320208
-0.329222
-0.336212
-0.340811
-0.344462
-0.348014
-0.350467
-0.308364
-0.381674
-0.385182
0.035885
0.0353982
0.0342145
0.0337747
0.032517
0.0308381
0.0317742
0.0333877
0.0330358
0.0349822
0.0346363
0.029603
0.0283435
0.0270701
0.0259457
0.0249738
0.0239839
0.0228709
0.0216904
0.0205201
0.019388
0.0182969
0.0172314
0.0161697
0.0151351
0.229414
0.226158
0.222952
0.211543
0.182225
0.129324
0.054214
-0.0289821
-0.106058
-0.164469
-0.208728
-0.246216
-0.279265
-0.307411
-0.329837
-0.34593
-0.355691
-0.359751
-0.3589
-0.353819
-0.345192
-0.33417
-0.321864
-0.309097
-0.307295
-0.315908
-0.322452
-0.326911
-0.330456
-0.333741
-0.337115
-0.340463
-0.344052
-0.347219
-0.348346
-0.297083
0.0341697
0.0337292
0.0326507
0.0322258
0.0310618
0.0294767
0.0303433
0.0318691
0.0315393
0.0333532
0.0330158
0.0282986
0.0270296
0.0258515
0.0249389
0.024101
0.0230911
0.021955
0.0208068
0.0196931
0.0186192
0.0175714
0.0165435
0.015518
0.0145187
0.234305
0.234288
0.236551
0.232541
0.209674
0.158029
0.0755104
-0.0206286
-0.110362
-0.171383
-0.211997
-0.244818
-0.274024
-0.299414
-0.320174
-0.335698
-0.345786
-0.35076
-0.351233
-0.347877
-0.34131
-0.332192
-0.32127
-0.30937
-0.297639
-0.296249
-0.303595
-0.309282
-0.313796
-0.317118
-0.320092
-0.323311
-0.32664
-0.330135
-0.333196
-0.336375
-0.2861
0.0326046
0.0321775
0.0311742
0.0307862
0.0296889
0.0281882
0.0289904
0.0304353
0.0301232
0.0318366
0.0315228
0.0270109
0.0257435
0.024797
0.0241412
0.0232641
0.0221752
0.0210503
0.0199592
0.0189072
0.0178837
0.0168773
0.0158852
0.0148927
0.0139306
0.236952
0.240181
0.248236
0.253359
0.240497
0.193237
0.1036
-0.00989187
-0.119076
-0.183819
-0.219558
-0.246866
-0.27175
-0.293972
-0.31263
-0.327107
-0.337062
-0.34255
-0.343946
-0.341803
-0.336723
-0.329256
-0.319865
-0.309084
-0.297884
-0.286692
-0.28523
-0.292221
-0.298191
-0.301791
-0.304664
-0.30695
-0.310327
-0.313562
-0.316747
-0.319573
-0.322588
-0.275509
0.0311256
0.0307398
0.0297888
0.0294188
0.0283875
0.0269457
0.027693
0.029087
0.028779
0.0304039
0.0301098
0.0257212
0.0245313
0.0240991
0.0234
0.0223533
0.0212467
0.0201786
0.0191511
0.0181567
0.0171821
0.0162132
0.0152528
0.0142954
0.0133658
0.243379
0.25693
0.272188
0.273755
0.236567
0.14101
0.00430895
-0.134727
-0.20381
-0.232182
-0.252565
-0.272469
-0.291043
-0.30716
-0.320151
-0.329548
-0.335177
-0.337177
-0.33592
-0.331917
-0.325697
-0.317667
-0.308138
-0.297721
-0.287016
-0.276202
-0.274599
-0.281624
-0.28695
-0.289204
-0.292991
-0.296042
-0.298937
-0.301552
-0.304882
-0.306316
-0.310272
-0.265872
0.0297382
0.0293733
0.0284739
0.0281203
0.027138
0.0258143
0.0264187
0.0277965
0.0274875
0.0290603
0.0287662
0.024186
0.0239383
0.0235141
0.0224937
0.0213962
0.0203488
0.0193448
0.0183805
0.0174435
0.0165118
0.0155751
0.0146459
0.0137229
0.0128296
0.261688
0.286738
0.306371
0.290339
0.191596
0.0218092
-0.162181
-0.23427
-0.250956
-0.262239
-0.276279
-0.290621
-0.303722
-0.314811
-0.323262
-0.328679
-0.330984
-0.330359
-0.327173
-0.321885
-0.31491
-0.306524
-0.297069
-0.287
-0.276644
-0.266507
-0.265061
-0.271178
-0.27644
-0.281005
-0.286059
-0.291014
-0.292934
-0.295598
-0.298423
-0.301051
-0.304188
-0.30492
-0.256765
0.0284271
0.0280749
0.0272096
0.0268597
0.0259777
0.024013
0.0253121
0.0265342
0.026203
0.0277737
0.0274818
0.0235308
0.0236326
0.0225965
0.0215004
0.020472
0.0194866
0.0185483
0.0176506
0.016766
0.0158678
0.0149604
0.0140669
0.0131773
0.294841
0.33324
0.350895
0.266109
0.044143
-0.209678
-0.280131
-0.277024
-0.276381
-0.28334
-0.292723
-0.302279
-0.311054
-0.318202
-0.323084
-0.32541
-0.325184
-0.322615
-0.318056
-0.311887
-0.304412
-0.295882
-0.286584
-0.276787
-0.266941
-0.257357
-0.255969
-0.262011
-0.266646
-0.27048
-0.275845
-0.279245
-0.281898
-0.287039
-0.284267
-0.290316
-0.29254
-0.295259
-0.297953
-0.247857
0.0271558
0.0268185
0.0259791
0.0256349
0.0248598
0.0228617
0.0236255
0.0254015
0.0250267
0.0265171
0.0262068
0.0237577
0.0226606
0.0215563
0.0205554
0.0195805
0.0186563
0.0177957
0.0169634
0.0161167
0.0152501
0.0143752
0.0135111
0.348947
0.402306
0.378075
0.0863558
-0.285179
-0.350179
-0.311147
-0.295603
-0.293867
-0.297375
-0.302787
-0.308837
-0.314348
-0.3184
-0.320485
-0.320432
-0.318302
-0.314321
-0.308797
-0.30203
-0.294267
-0.285727
-0.276583
-0.267147
-0.257782
-0.248476
-0.247073
-0.252911
-0.257467
-0.261496
-0.266182
-0.268719
-0.271772
-0.276485
-0.274031
-0.239316
0.0259114
0.0255904
0.0248843
0.0245056
0.0218825
0.0237501
0.0235536
0.024456
0.0245634
0.0253568
0.0250165
0.0226819
0.0215568
0.0206063
0.0196382
0.0187074
0.0178744
0.017096
0.0163096
0.0154964
0.0146577
0.0138128
0.0129806
0.435534
0.436649
0.492478
0.242006
0.342521
0.500175
-0.26586
0.0169102
-0.325122
-0.438619
-0.461948
-0.353942
-0.320025
-0.308092
-0.304553
-0.305187
-0.308102
-0.311665
-0.314618
-0.316224
-0.316135
-0.31427
-0.310731
-0.305735
-0.299542
-0.292394
-0.284501
-0.276004
-0.267082
-0.258029
-0.248956
-0.23998
-0.238532
-0.244187
-0.248534
-0.252354
-0.256827
-0.259893
-0.262215
-0.267022
-0.2645
-0.267592
-0.231422
0.0246948
0.0243852
0.0203588
0.024157
0.02357
0.0226062
0.0232124
0.0237754
0.0234792
0.0240717
0.024891
0.021508
0.02063
0.0196759
0.0187123
0.017885
0.0171612
0.0164389
0.015686
0.0148985
0.014087
0.013275
0.526435
0.545748
0.56057
0.44249
0.19917
0.162838
-0.26671
-0.246278
-0.0404549
-0.539485
-0.376233
-0.474422
-0.400281
-0.474425
-0.347566
-0.325823
-0.314059
-0.309364
-0.308771
-0.310102
-0.311711
-0.312622
-0.31231
-0.310547
-0.307317
-0.302747
-0.297035
-0.290396
-0.283033
-0.275099
-0.266715
-0.258059
-0.249281
-0.240512
-0.232043
-0.230694
-0.235754
-0.239982
-0.243707
-0.247935
-0.250846
-0.253082
-0.257456
-0.255222
-0.259557
-0.261828
-0.266495
-0.26403
-0.223957
0.0178532
0.0233357
0.0232862
0.0226011
0.0214182
0.0221504
0.0230881
0.0229769
0.020631
0.0197031
0.0186958
0.0178263
0.0171598
0.0165028
0.0158132
0.0150853
0.0143237
0.0135465
0.615161
0.64439
0.602559
0.532898
0.268114
0.248669
0.501493
-0.032544
-0.285622
-0.180362
-0.584924
-0.515077
-0.53024
-0.437845
-0.372233
-0.420895
-0.485611
-0.344256
-0.325296
-0.315025
-0.310735
-0.309585
-0.309636
-0.309663
-0.308961
-0.307152
-0.304104
-0.299859
-0.294549
-0.288347
-0.281432
-0.273965
-0.266063
-0.257843
-0.249416
-0.240908
-0.232563
-0.224499
-0.22304
-0.228005
-0.231926
-0.235246
-0.239484
-0.242235
-0.24439
-0.248555
-0.246394
-0.250548
-0.252729
-0.257079
-0.254922
-0.216632
0.0226754
0.0224403
0.0215464
0.0205741
0.0211043
0.0222023
0.0219943
0.0197695
0.0186528
0.0177266
0.0170875
0.0165071
0.0158774
0.0152105
0.0145079
0.0137804
0.640792
0.678668
0.718156
0.70344
0.603071
0.369528
0.18894
-0.550359
-0.553613
-0.548729
-0.451632
-0.400253
-0.356459
-0.386248
-0.424908
-0.492859
-0.511369
-0.336217
-0.321561
-0.313776
-0.310025
-0.308331
-0.307312
-0.306078
-0.304096
-0.301113
-0.297092
-0.292107
-0.286281
-0.279759
-0.272691
-0.265199
-0.257387
-0.249341
-0.241139
-0.232972
-0.224989
-0.217181
-0.215896
-0.218967
-0.223993
-0.22763
-0.231462
-0.233758
-0.235987
-0.240081
-0.237993
-0.241931
-0.244027
-0.248187
-0.246107
-0.209585
0.0216558
0.0213735
0.0206276
0.0199208
0.0202423
0.0211468
0.0209546
0.0185759
0.017654
0.0169393
0.0164578
0.0158858
0.0152732
0.0146297
0.0139603
0.629824
0.6832
0.751225
0.731691
0.574821
-0.468788
-0.45578
-0.408826
-0.369226
-0.342774
-0.359601
-0.389979
-0.432313
-0.428568
-0.327773
-0.317437
-0.311282
-0.307724
-0.305524
-0.303643
-0.301379
-0.298355
-0.294463
-0.289724
-0.284216
-0.278044
-0.27133
-0.264194
-0.25674
-0.249051
-0.241181
-0.23325
-0.225402
-0.217698
-0.210169
-0.214724
-0.208884
-0.221
-0.22379
-0.226322
-0.228233
-0.232015
-0.23012
-0.233398
-0.23602
-0.239691
-0.237739
-0.202955
0.0206897
0.0204494
0.0198538
0.0191569
0.0195071
0.0202567
0.0200827
0.0169205
0.0168601
0.0163334
0.015853
0.0152806
0.0146871
0.014078
-0.416858
-0.406417
-0.372287
-0.349605
-0.331919
-0.34298
-0.361414
-0.386978
-0.395547
-0.433619
-0.421822
-0.321006
-0.3131
-0.307742
-0.304253
-0.301633
-0.299001
-0.29584
-0.291985
-0.287417
-0.282167
-0.276301
-0.26991
-0.263095
-0.255957
-0.248584
-0.24103
-0.233371
-0.22571
-0.218136
-0.210696
-0.203535
-0.208039
-0.212513
-0.21605
-0.202258
-0.218515
-0.220946
-0.224297
-0.222461
-0.22601
-0.22793
-0.232062
-0.229864
-0.232364
-0.196696
0.0198738
0.0196628
0.0191358
0.0136767
0.018664
0.02143
0.0194949
0.0193467
0.0169078
0.0157352
0.016177
0.0157711
0.0152517
0.0146898
0.014129
-0.41706
-0.40694
-0.377216
-0.370521
-0.351411
-0.33653
-0.323763
-0.331723
-0.344314
-0.35976
-0.364937
-0.387745
-0.396058
-0.315116
-0.308303
-0.303474
-0.300035
-0.296969
-0.293578
-0.289669
-0.285197
-0.280146
-0.274541
-0.268441
-0.261925
-0.255077
-0.247984
-0.240714
-0.233325
-0.225889
-0.218476
-0.211152
-0.204038
-0.197212
-0.201476
-0.205782
-0.20914
-0.211348
-0.213205
-0.214833
-0.216647
-0.219344
-0.196094
-0.220491
-0.224015
-0.222174
-0.225708
-0.22758
-0.23152
-0.229493
-0.19048
0.0191544
0.0189494
0.0190713
0.0186397
0.0182599
0.0163886
0.0164844
0.0161203
0.016329
0.0156318
0.0151985
0.0146539
0.014118
-0.377669
-0.371101
-0.354431
-0.350293
-0.337815
-0.327254
-0.317027
-0.323415
-0.33281
-0.343382
-0.346783
-0.360268
-0.365271
-0.309357
-0.303193
-0.298876
-0.295319
-0.291594
-0.28753
-0.283075
-0.278163
-0.272774
-0.266931
-0.26069
-0.254117
-0.247287
-0.24027
-0.233128
-0.225923
-0.2187
-0.211522
-0.204478
-0.197672
-0.191004
-0.195383
-0.199438
-0.202344
-0.204946
-0.206342
-0.207858
-0.209488
-0.218759
-0.189866
-0.220195
-0.223696
-0.22193
-0.184402
0.0204672
0.0139485
0.0180692
0.0178777
0.0153709
0.0162485
0.0160257
0.0155172
0.015767
0.0161313
0.0151084
0.0146007
0.0140593
-0.354748
-0.350719
-0.339962
-0.337159
-0.328223
-0.319955
-0.310845
-0.316546
-0.324343
-0.332287
-0.334717
-0.34381
-0.347079
-0.303498
-0.298201
-0.294151
-0.289951
-0.285601
-0.28107
-0.276231
-0.271009
-0.26539
-0.259398
-0.253083
-0.246505
-0.239727
-0.232812
-0.22582
-0.218797
-0.211787
-0.20485
-0.198087
-0.19147
-0.184937
-0.189118
-0.193158
-0.196332
-0.198353
-0.199968
-0.201568
-0.202642
-0.183806
-0.178541
0.0164002
0.0180212
0.0159727
0.0159466
0.0158825
0.0155368
0.0150012
0.0152622
0.0156602
0.0158722
0.0159689
0.0145397
0.0139871
-0.340263
-0.33754
-0.3299
-0.327817
-0.320741
-0.313596
-0.304558
-0.310313
-0.317398
-0.324033
-0.325959
-0.332678
-0.33501
-0.29803
-0.293632
-0.288766
-0.283954
-0.279222
-0.274372
-0.269259
-0.263824
-0.258058
-0.251984
-0.245646
-0.239097
-0.232398
-0.225606
-0.218771
-0.211934
-0.205135
-0.198448
-0.19189
-0.185423
-0.179091
-0.183129
-0.186987
-0.190046
-0.192049
-0.193652
-0.195175
-0.19671
-0.198134
-0.19973
-0.201157
-0.201633
-0.17791
-0.173012
0.0159517
0.01617
0.0158624
0.0158096
0.0157137
0.0154414
0.0150346
0.0144581
0.0147299
0.0151881
0.0155341
0.0156324
0.0157794
0.0158385
0.0139279
-0.3302
-0.328183
-0.322183
-0.320451
-0.314273
-0.307457
-0.298449
-0.303871
-0.311175
-0.317177
-0.318884
-0.324416
-0.326257
-0.293881
-0.288196
-0.282713
-0.277618
-0.272633
-0.267549
-0.262247
-0.256675
-0.250824
-0.244714
-0.238388
-0.231897
-0.225296
-0.218639
-0.211968
-0.205318
-0.198739
-0.19226
-0.185864
-0.179584
-0.173521
-0.177209
-0.181071
-0.184024
-0.185926
-0.187485
-0.18893
-0.190426
-0.191866
-0.19346
-0.194892
-0.196366
-0.172441
-0.167623
0.0158038
0.0157329
0.015732
0.0156573
0.0154298
0.0153121
0.0149452
0.014504
0.0138822
0.0141736
0.014663
0.0150681
0.0151997
0.0154858
0.0155791
0.0157014
0.0157308
-0.322485
-0.320816
-0.3156
-0.313988
-0.308289
-0.300253
-0.294753
-0.299032
-0.304978
-0.310911
-0.312594
-0.31756
-0.319182
-0.28834
-0.282037
-0.276407
-0.271111
-0.265932
-0.260685
-0.255263
-0.249609
-0.243715
-0.237604
-0.231316
-0.224902
-0.218416
-0.211902
-0.205399
-0.198944
-0.192562
-0.186252
-0.180034
-0.173986
-0.168109
-0.171821
-0.175231
-0.178109
-0.180028
-0.18154
-0.182912
-0.184374
-0.185743
-0.18729
-0.188661
-0.190092
-0.16707
-0.162328
0.015669
0.0156128
0.0153849
0.0152723
0.0149509
0.0148155
0.0144134
0.0139606
0.0141192
0.0145433
0.0146889
0.0150299
0.0151571
0.0154469
0.0155427
-0.315891
-0.314354
-0.309551
-0.307943
-0.300055
-0.29697
-0.289027
-0.294078
-0.300129
-0.305058
-0.306812
-0.31128
-0.31286
-0.282045
-0.275773
-0.269954
-0.264513
-0.259195
-0.253849
-0.248354
-0.242656
-0.23675
-0.23066
-0.22443
-0.218111
-0.21175
-0.205388
-0.199057
-0.192787
-0.186577
-0.180438
-0.174421
-0.168556
-0.162814
-0.166418
-0.169883
-0.172652
-0.174389
-0.175565
-0.177057
-0.178481
-0.179822
-0.181321
-0.182644
-0.184041
-0.161779
-0.157195
0.01535
0.0152466
0.0149098
0.0147807
0.0144245
0.0142768
0.0138633
0.0139952
0.0141508
0.0145114
0.0146478
0.0150004
0.0151261
-0.30975
-0.308281
-0.302964
-0.298184
-0.297704
-0.290997
-0.282698
-0.288134
-0.294561
-0.300354
-0.301827
-0.306097
-0.307098
-0.27583
-0.269364
-0.263439
-0.257889
-0.252493
-0.247087
-0.24155
-0.235833
-0.229934
-0.223883
-0.217729
-0.211519
-0.205293
-0.199087
-0.192928
-0.186826
-0.180782
-0.174823
-0.168978
-0.163262
-0.15768
-0.161136
-0.164409
-0.1672
-0.16889
-0.170285
-0.171646
-0.173021
-0.174407
-0.175372
-0.177031
-0.178167
-0.156655
-0.152252
0.0148777
0.0147574
0.014379
0.0142495
0.0138789
0.0137107
0.0139654
0.0141059
0.0144861
0.0146189
-0.306017
-0.295711
-0.298645
-0.297329
-0.291527
-0.28498
-0.276488
-0.282021
-0.288656
-0.294303
-0.295627
-0.300938
-0.305211
-0.2695
-0.262875
-0.256922
-0.25131
-0.24587
-0.240427
-0.23487
-0.229147
-0.223267
-0.217273
-0.211212
-0.205122
-0.199039
-0.192991
-0.186995
-0.181053
-0.175176
-0.169378
-0.163684
-0.158124
-0.152743
-0.156054
-0.15929
-0.161862
-0.162861
-0.16469
-0.16613
-0.167507
-0.168705
-0.170096
-0.171394
-0.172789
-0.174033
-0.174611
-0.151688
-0.147519
0.0143394
0.014233
0.0138359
0.0136845
0.0139434
0.0140762
-0.292189
-0.299054
-0.297548
-0.292672
-0.291323
-0.285601
-0.278879
-0.269494
-0.275801
-0.282624
-0.288426
-0.289845
-0.294607
-0.295981
-0.300678
-0.304803
-0.263063
-0.256429
-0.250465
-0.244815
-0.239349
-0.23389
-0.228316
-0.222592
-0.216748
-0.210831
-0.204877
-0.198918
-0.192981
-0.187088
-0.181249
-0.175464
-0.169737
-0.164084
-0.158544
-0.153182
-0.147993
-0.151063
-0.154281
-0.1568
-0.158898
-0.161333
-0.163669
-0.16465
-0.165917
-0.167253
-0.168485
-0.169851
-0.171172
-0.172466
-0.146988
-0.142863
0.0138024
0.0136697
-0.299253
-0.297788
-0.293052
-0.291661
-0.286813
-0.285356
-0.279546
-0.272268
-0.263785
-0.264763
-0.276639
-0.282355
-0.283857
-0.288766
-0.290197
-0.294915
-0.296273
-0.256527
-0.250103
-0.244082
-0.238419
-0.232957
-0.227479
-0.221876
-0.216162
-0.21038
-0.204558
-0.198724
-0.192901
-0.187111
-0.18137
-0.175679
-0.170038
-0.16445
-0.158943
-0.153589
-0.148417
-0.143343
-0.146405
-0.149382
-0.15174
-0.153949
-0.156393
-0.158013
-0.159295
-0.161806
-0.160467
-0.16333
-0.164436
-0.165723
-0.167017
-0.14232
-0.138265
-0.293366
-0.291975
-0.28717
-0.285695
-0.280741
-0.279235
-0.273176
-0.264347
-0.257072
-0.274915
-0.276248
-0.277764
-0.282682
-0.284181
-0.28909
-0.290493
-0.250306
-0.243816
-0.237776
-0.232168
-0.226704
-0.22116
-0.215534
-0.209866
-0.204169
-0.198457
-0.192749
-0.187065
-0.181421
-0.175824
-0.170272
-0.164764
-0.159311
-0.153976
-0.148807
-0.143774
-0.138763
-0.1417
-0.144696
-0.147086
-0.149091
-0.15133
-0.153017
-0.154268
-0.156685
-0.155434
-0.137721
-0.133781
-0.287469
-0.286005
-0.281065
-0.27955
-0.274024
-0.269572
-0.267218
-0.257672
-0.263326
-0.250977
-0.272038
-0.27664
-0.278048
-0.282987
-0.284451
-0.244105
-0.23754
-0.23164
-0.226097
-0.220515
-0.214904
-0.209308
-0.203716
-0.19812
-0.192525
-0.186948
-0.181403
-0.175899
-0.170438
-0.165016
-0.159635
-0.154336
-0.149175
-0.144167
-0.139219
-0.134286
-0.137108
-0.140034
-0.142354
-0.144315
-0.146717
-0.148227
-0.149472
-0.151751
-0.150416
-0.133247
-0.129415
-0.281332
-0.279829
-0.275153
-0.277394
-0.268291
-0.266577
-0.260117
-0.251841
-0.257058
-0.264783
-0.262871