/*--------------------------------*- C++ -*----------------------------------*\
| =========                 |                                                 |
| \\      /  F ield         | OpenFOAM: The Open Source CFD Toolbox           |
|  \\    /   O peration     | Version:  v1912                                 |
|   \\  /    A nd           | Website:  www.openfoam.com                      |
|    \\/     M anipulation  |                                                 |
\*---------------------------------------------------------------------------*/
FoamFile
{
    version     2.0;
    format      ascii;
    class       volScalarField;
    location    "10";
    object      p;
}
// * * * * * * * * * * * * * * * * * * * * * * * * * * * * * * * * * * * * * //

dimensions      [0 2 -2 0 0 0 0];


internalField   nonuniform List<scalar> 
3753
(
0.223708
0.234093
0.208773
0.248782
0.219078
0.194723
0.265866
0.233756
0.204992
0.181406
0.280786
0.25065
0.219689
0.191687
0.169114
0.293243
0.265383
0.236426
0.206414
0.179422
0.158126
0.30447
0.277565
0.250929
0.223072
0.194145
0.168425
0.148346
0.315927
0.288702
0.262884
0.237467
0.210734
0.183147
0.15858
0.139496
0.327692
0.299913
0.273852
0.249329
0.225113
0.199714
0.17325
0.149531
0.13119
0.340579
0.311541
0.284868
0.260233
0.23703
0.214102
0.189807
0.164026
0.140879
0.123189
0.354251
0.324116
0.296336
0.271188
0.248021
0.226095
0.204229
0.180507
0.155058
0.13242
0.115344
0.36737
0.337434
0.308666
0.282589
0.259042
0.237199
0.216282
0.194877
0.171326
0.146126
0.124113
0.107523
0.378455
0.350026
0.321879
0.294902
0.270492
0.248329
0.227438
0.206903
0.185522
0.162018
0.137274
0.115957
0.0995896
0.360457
0.383247
0.391766
0.334279
0.308058
0.282782
0.259838
0.238574
0.218018
0.197388
0.175884
0.15262
0.128586
0.107874
0.0915829
0.3449
0.365166
0.372162
0.389041
0.399244
0.320672
0.296074
0.272159
0.250022
0.229056
0.208333
0.187461
0.165989
0.143296
0.120089
0.0998267
0.0836903
0.33151
0.350792
0.356934
0.370506
0.377824
0.392081
0.396678
0.403158
0.308719
0.285254
0.262119
0.240312
0.219162
0.198146
0.177172
0.156063
0.134201
0.111782
0.091926
0.0761387
0.319643
0.338036
0.343599
0.357182
0.363378
0.373491
0.376499
0.385125
0.37966
0.395861
0.401285
0.407364
0.297823
0.275015
0.252154
0.230174
0.20873
0.187543
0.166779
0.146391
0.125454
0.103746
0.0843243
0.0690542
0.308373
0.32613
0.331397
0.344565
0.350418
0.36083
0.363521
0.369754
0.366772
0.376483
0.379961
0.389453
0.381336
0.398371
0.404129
0.410201
0.287036
0.264521
0.241651
0.219481
0.197854
0.176817
0.156654
0.137179
0.117138
0.0960685
0.0771453
0.0623552
0.297148
0.31445
0.319608
0.332296
0.337997
0.348197
0.350843
0.357041
0.354134
0.364053
0.366766
0.37285
0.369798
0.391978
0.382734
0.276205
0.253752
0.230738
0.208382
0.186896
0.16637
0.147073
0.128534
0.109274
0.0887884
0.0703533
0.0559276
0.285844
0.302915
0.307964
0.320271
0.325842
0.335695
0.338267
0.344366
0.341546
0.351301
0.354062
0.36034
0.357246
0.264931
0.242451
0.219408
0.19725
0.176229
0.156513
0.138121
0.12039
0.101785
0.0818532
0.0638818
0.0497493
0.274368
0.291318
0.29639
0.308519
0.313989
0.323532
0.326041
0.331975
0.329195
0.338634
0.341319
0.347539
0.344506
0.253548
0.231094
0.208196
0.186441
0.166159
0.147297
0.129685
0.112606
0.094597
0.0752316
0.0577026
0.0439028
0.262801
0.279749
0.284772
0.29678
0.302258
0.311682
0.31415
0.319936
0.317266
0.326385
0.328984
0.335013
0.332042
0.241947
0.21968
0.197242
0.176201
0.156701
0.138582
0.121594
0.105093
0.08769
0.0689371
0.0518911
0.038584
0.251221
0.268071
0.273163
0.285155
0.290584
0.299872
0.302325
0.308101
0.305422
0.31445
0.317051
0.322892
0.32006
0.230645
0.208776
0.186909
0.166533
0.147723
0.130189
0.11376
0.0978699
0.0811609
0.0630787
0.0465898
0.0338891
0.239862
0.256567
0.261557
0.273469
0.27894
0.288214
0.290645
0.296332
0.293747
0.302591
0.305162
0.311008
0.308138
0.219557
0.198227
0.177017
0.157293
0.139033
0.122065
0.106264
0.0910916
0.0751458
0.0577581
0.0418754
0.0297868
0.228826
0.245231
0.25018
0.262011
0.267364
0.276565
0.278977
0.284677
0.282059
0.290904
0.293483
0.299205
0.296447
0.209076
0.188272
0.16757
0.14833
0.130638
0.114322
0.0992654
0.0849034
0.0697429
0.0530127
0.0376975
0.026176
0.218236
0.234296
0.239065
0.250679
0.255988
0.265157
0.267551
0.273118
0.27057
0.279286
0.281801
0.287544
0.284734
0.19887
0.178537
0.158333
0.139676
0.122657
0.107123
0.0929208
0.0793913
0.0649548
0.0487802
0.0339385
0.0228805
0.207999
0.223695
0.228365
0.239747
0.244857
0.253836
0.2562
0.261751
0.259174
0.267891
0.270436
0.276016
0.273294
0.189109
0.169167
0.149452
0.13145
0.11524
0.100606
0.0873003
0.0745493
0.0606986
0.0449268
0.0304223
0.0197347
0.198082
0.213496
0.217985
0.229085
0.234094
0.242907
0.245213
0.250562
0.248093
0.256567
0.25904
0.264639
0.261875
0.179462
0.159984
0.140957
0.123796
0.108516
0.0948557
0.0823931
0.0702635
0.0568208
0.0412682
0.0270034
0.0165547
0.188375
0.203515
0.207954
0.218862
0.223655
0.232201
0.234452
0.239706
0.237259
0.245602
0.248064
0.253431
0.250821
0.170203
0.151304
0.133055
0.116813
0.102577
0.089852
0.0780762
0.066362
0.0531155
0.0376224
0.0235352
0.0132361
0.178955
0.193829
0.198128
0.208844
0.213574
0.221981
0.224142
0.229149
0.226836
0.234856
0.237222
0.242522
0.239915
0.161201
0.143052
0.12577
0.110636
0.0974323
0.0854848
0.0741472
0.0625997
0.0493468
0.0338657
0.01994
0.00972625
0.169858
0.184384
0.188619
0.199186
0.203738
0.211982
0.214103
0.219014
0.216716
0.224612
0.226908
0.231931
0.229494
0.152783
0.135501
0.119311
0.105286
0.0929633
0.0815139
0.0703394
0.0587345
0.045374
0.0299351
0.0161785
0.00605258
0.161195
0.175289
0.179376
0.189752
0.194216
0.202403
0.204456
0.209163
0.20697
0.214632
0.216845
0.22178
0.219337
0.144803
0.128682
0.113727
0.100678
0.0889381
0.07767
0.0663991
0.0545801
0.0411342
0.0258251
0.0122878
0.00226071
0.152944
0.166502
0.170493
0.180649
0.184954
0.193021
0.195044
0.199662
0.197469
0.205091
0.207247
0.211952
0.209658
0.137704
0.122931
0.108936
0.0965619
0.0850572
0.0736799
0.0621231
0.0500806
0.03666
0.0215972
0.00831684
-0.00158018
0.145253
0.157923
0.161894
0.171745
0.175978
0.183958
0.185947
0.190418
0.188298
0.195745
0.197837
0.202464
0.20016
0.131766
0.117943
0.104687
0.0926388
0.0810427
0.0693301
0.057441
0.0452827
0.0320383
0.017317
0.00432371
-0.00540016
0.139319
0.149439
0.153371
0.162858
0.167195
0.175024
0.176993
0.181393
0.17927
0.186697
0.188782
0.193254
0.191059
0.126772
0.113573
0.100699
0.0886155
0.0766629
0.0645407
0.0524129
0.040301
0.0273679
0.0130497
0.000368782
-0.00914854
0.134351
0.144241
0.146723
0.1531
0.15808
0.165808
0.167976
0.172537
0.170422
0.177802
0.179807
0.184214
0.182007
0.122253
0.109471
0.096648
0.0842245
0.0718102
0.0593595
0.0471668
0.0352673
0.0227328
0.00884242
-0.00350572
-0.0127734
0.129874
0.139572
0.141879
0.148455
0.150644
0.15398
0.157895
0.162982
0.160582
0.168452
0.170804
0.175392
0.173199
0.118112
0.105384
0.0922454
0.0793513
0.0665533
0.0539483
0.0418619
0.0302729
0.0181736
0.00471873
-0.00726791
-0.0162173
0.125611
0.135282
0.137476
0.144051
0.146124
0.150316
0.151538
0.15418
0.152498
0.154738
0.160011
0.165519
0.162802
0.11386
0.100895
0.0873421
0.0740549
0.061041
0.0484609
0.0365972
0.0253725
0.0136927
0.000684602
-0.0108669
-0.0193957
0.121206
0.130843
0.133087
0.139704
0.141838
0.146195
0.147277
0.149321
0.148115
0.109302
0.0959718
0.0820428
0.0685171
0.0554713
0.0430337
0.0314355
0.0205474
0.00927166
-0.00323176
-0.0142347
-0.0222192
0.116485
0.12623
0.128514
0.135062
0.13732
0.141751
0.142885
0.145105
0.143904
0.104272
0.090639
0.0765047
0.0629198
0.0499529
0.0376923
0.0263431
0.0157564
0.00490535
-0.00698439
-0.0172836
-0.0245616
0.111438
0.121351
0.123732
0.130318
0.13262
0.136988
0.138125
0.140484
0.139256
0.0989893
0.0851725
0.0709574
0.0574037
0.0445374
0.032432
0.021267
0.0109664
0.000612415
-0.0104968
-0.0198995
-0.026291
0.106191
0.116299
0.118722
0.125397
0.127792
0.132213
0.133349
0.135701
0.134509
0.093538
0.0796483
0.0654628
0.0519677
0.0391738
0.0271573
0.0161379
0.00616655
-0.00354848
-0.0136656
-0.0219626
-0.0272599
0.100875
0.111126
0.113596
0.120382
0.122804
0.127267
0.128412
0.130848
0.129641
0.0881733
0.0742884
0.0601046
0.0465988
0.0338093
0.0218103
0.0109373
0.00140521
-0.00747971
-0.0163717
-0.0233359
-0.0273306
0.0955994
0.105953
0.108402
0.115299
0.117754
0.122284
0.123439
0.125876
0.124675
0.0828392
0.0689467
0.0547471
0.0411975
0.0283405
0.0163277
0.0056861
-0.0032266
-0.0110634
-0.0184925
-0.0238936
-0.0263579
0.0904275
0.100827
0.103255
0.110222
0.112647
0.117255
0.118405
0.120879
0.119657
0.0776926
0.0637553
0.0494284
0.0357255
0.0227258
0.0107336
0.000481759
-0.00760027
-0.0141726
-0.0199056
-0.0235202
-0.0242175
0.0853292
0.0957723
0.0981625
0.105168
0.107584
0.112238
0.113379
0.115835
0.114609
0.072484
0.0584441
0.0439783
0.0300805
0.0169263
0.00510046
-0.00453957
-0.0115689
-0.0166661
-0.0205013
-0.0221109
-0.0208512
0.0802649
0.0907429
0.0931265
0.100141
0.102538
0.107204
0.10835
0.110824
0.109578
0.0673553
0.053179
0.0384517
0.0242534
0.0110365
-0.00040154
-0.00919562
-0.0149674
-0.018401
-0.0201572
-0.0195719
-0.016282
0.0751492
0.085728
0.0880918
0.0951014
0.0975164
0.10219
0.103326
0.105791
0.10455
0.062065
0.0477279
0.0326912
0.0182477
0.00520107
-0.00558614
-0.0133034
-0.017614
-0.0191991
-0.0187435
-0.0157267
-0.0107797
0.0698613
0.0806863
0.0830775
0.0900452
0.0924645
0.0971101
0.0982687
0.100761
0.0995092
0.0568467
0.042244
0.0267821
0.0122597
-0.00033909
-0.010225
-0.0166499
-0.0192797
-0.0188107
-0.0160105
-0.0101856
-0.00432882
0.0645695
0.0746036
0.0778085
0.0850891
0.0874398
0.0919748
0.093133
0.0956569
0.0944143
0.0515152
0.0365016
0.020781
0.00650031
-0.00537371
-0.0141193
-0.0189744
-0.0196135
-0.0168671
-0.0110974
-0.00401504
0.0593732
0.069505
0.0720092
0.0782153
0.0786819
0.0827734
0.0868655
0.087974
0.0904977
0.0892644
0.0462
0.0307981
0.0150195
0.00122681
-0.00969694
-0.0170086
-0.0198815
-0.0181117
-0.0122787
-0.00477003
0.0542871
0.064353
0.0668335
0.0737142
0.0748529
0.0760866
0.0771967
0.0819924
0.0838427
0.0855492
0.0846847
0.0408687
0.0252082
0.00964524
-0.00343685
-0.0131209
-0.0185036
-0.0187609
-0.0135424
-0.00532202
0.0494839
0.0595164
0.0618512
0.0687706
0.0698913
0.0711151
0.0723694
0.0774211
0.078546
0.0796778
0.0807896
0.083945
0.0847823
0.0358706
0.0200686
0.00481482
-0.00734875
-0.0152969
-0.0179525
-0.0143083
-0.00572652
0.0451159
0.0552103
0.0573203
0.0642507
0.0652774
0.0663602
0.0675533
0.0726913
0.0737854
0.0749339
0.0761604
0.0796176
0.0807129
0.0818146
0.0828889
0.0311893
0.0152445
0.000479072
-0.0102893
-0.0155803
-0.0140099
-0.00597664
0.0411897
0.0515355
0.053392
0.0603559
0.0612494
0.0621494
0.0632244
0.068408
0.0693746
0.07039
0.0715281
0.0750234
0.0760749
0.0772003
0.0783877
0.0268596
0.0107752
-0.00322049
-0.0117006
-0.0126459
-0.00586404
0.0375925
0.0484373
0.0500764
0.0571626
0.0579239
0.0586277
0.0595702
0.0647777
0.0655676
0.0664197
0.0674024
0.0708811
0.0717925
0.0727857
0.0738747
0.0226125
0.00651367
-0.00588445
-0.0102763
-0.00541708
0.0341641
0.0458914
0.0473093
0.0546972
0.0553011
0.0557772
0.0565961
0.061869
0.0624841
0.0631582
0.0639732
0.0673976
0.0681266
0.0689562
0.0698826
0.0183778
0.00274034
-0.00649118
-0.00467948
0.0306075
0.0438558
0.045109
0.0531184
0.0535518
0.0537547
0.0544017
0.0598672
0.0602164
0.0606434
0.0612691
0.0646485
0.0651939
0.0658387
0.0665849
0.0139277
-0.000224566
-0.00346661
0.0264765
0.042005
0.0432722
0.0523939
0.0526818
0.0526253
0.0531189
0.0590125
0.0590711
0.0592022
0.0595444
0.0629249
0.0631658
0.0635364
0.0640603
0.00898821
-0.00105922
0.0202814
0.0395862
0.0413383
0.0522438
0.0524903
0.0522279
0.0526324
0.0592842
0.0590719
0.058912
0.058981
0.0625041
0.0624087
0.0624507
0.0626472
0.00324576
0.00934153
0.0331369
0.0375994
0.0516361
0.0522293
0.0520687
0.0525924
0.0605108
0.0600914
0.0596794
0.0595119
0.0633709
0.062954
0.0626682
0.0625394
0.0105768
0.024232
0.045298
0.0481809
0.0497869
0.0513112
0.0614774
0.0613702
0.0610609
0.0608849
0.0654849
0.064766
0.0641647
0.0637181
0.00909753
0.020763
0.0328053
0.0401208
0.0552064
0.0583529
0.0601108
0.0611635
0.0677132
0.0672237
0.0666266
0.0660571
0.0100521
0.0255204
0.0398403
0.0493337
0.0621288
0.0653752
0.0669967
0.0676655
0.00933456
0.0274918
0.0447061
0.0556786
0.116638
0.107028
0.118368
0.109263
0.100885
0.121249
0.121547
0.113092
0.103847
0.0940987
0.124503
0.125789
0.127865
0.115752
0.108945
0.097563
0.0881048
0.128895
0.129407
0.13612
0.133829
0.118677
0.108211
0.10278
0.0920606
0.0822686
0.131868
0.134053
0.150174
0.142671
0.143166
0.126174
0.0999095
0.0958208
0.0987289
0.0859263
0.0779527
0.137441
0.137266
0.15617
0.150595
0.139976
0.134819
0.10836
0.082227
0.0884463
0.0913172
0.0876476
0.0815943
0.0735912
0.140995
0.163625
0.158798
0.143835
0.143422
0.117615
0.0912833
0.0774046
0.0675998
0.070385
0.0826944
0.0788569
0.0770471
0.0690663
0.171629
0.166318
0.151116
0.126613
0.100853
0.0767901
0.0727496
0.0692681
0.0612322
0.0577619
0.0563227
0.0650828
0.0621648
0.072568
0.0642198
0.179169
0.173321
0.158173
0.134531
0.110023
0.0862666
0.0662496
0.0674968
0.0637007
0.0543452
0.0516653
0.052285
0.0483701
0.050095
0.0598044
0.0553097
0.0603442
0.186227
0.180129
0.164955
0.141665
0.117989
0.0952461
0.0751586
0.0597904
0.0516006
0.0496952
0.0461775
0.0466283
0.0506211
0.0451855
0.0433381
0.0454643
0.0474576
0.0566576
0.0530944
0.193115
0.186835
0.171603
0.148426
0.125079
0.10298
0.0836532
0.0679451
0.0569319
0.0435266
0.0417667
0.0420597
0.0459614
0.0508832
0.0453492
0.0414187
0.0396554
0.0408615
0.199856
0.193414
0.178112
0.155002
0.131746
0.109837
0.0909738
0.0758451
0.0642023
0.0563025
0.0396825
0.0388105
0.042747
0.0467096
0.052064
0.0469099
0.0424716
0.038943
0.0393771
0.206487
0.199825
0.18446
0.161427
0.138208
0.116286
0.0974836
0.0827206
0.0714653
0.0627359
0.0566586
0.040238
0.0412602
0.0436263
0.0483475
0.0526211
0.0484467
0.0443261
0.0403101
0.0404857
0.21292
0.206045
0.190626
0.167693
0.144516
0.12255
0.103636
0.0888789
0.0779128
0.0693905
0.062296
0.0567576
0.0409611
0.0413992
0.041374
0.0453859
0.0492225
0.0520896
0.0490516
0.0458058
0.0420391
0.0420829
0.039339
0.0390401
0.219186
0.212062
0.196597
0.173786
0.150676
0.128684
0.109633
0.0947235
0.0837531
0.075444
0.0683741
0.0618388
0.0559405
0.0398413
0.0399317
0.0428891
0.0429404
0.0464144
0.0491204
0.0505909
0.0486727
0.0465432
0.0435718
0.0435084
0.0405075
0.0403844
0.225216
0.217846
0.202342
0.179692
0.156673
0.134689
0.115531
0.100437
0.0893158
0.0809975
0.0740432
0.067429
0.0606887
0.0541614
0.0410943
0.0413293
0.0441855
0.0441889
0.0466497
0.0480798
0.048368
0.0473281
0.0463821
0.0445157
0.044545
0.0420748
0.0417895
0.231036
0.223381
0.207842
0.185388
0.162496
0.140553
0.121328
0.106068
0.0947584
0.0863034
0.0793075
0.0727116
0.0659105
0.0586392
0.0516296
0.0425549
0.0427599
0.0447681
0.0446573
0.0459526
0.0462693
0.0457375
0.045367
0.0452495
0.0445296
0.0446904
0.043207
0.0430687
0.236582
0.228654
0.213085
0.19085
0.168128
0.146261
0.12701
0.111617
0.100123
0.0914951
0.084362
0.0776658
0.0708377
0.0635616
0.0558115
0.0485973
0.0434109
0.0434011
0.0444098
0.0441431
0.0444741
0.0441894
0.0425951
0.0432426
0.0435996
0.0435638
0.043852
0.0433467
0.0434246
0.241887
0.233663
0.218064
0.196064
0.173545
0.151798
0.132561
0.117075
0.105415
0.0966111
0.089317
0.0824596
0.0754819
0.068178
0.0604399
0.0524398
0.0451809
0.0432396
0.0430182
0.0432175
0.0429189
0.0429488
0.0416022
0.0393088
0.0403145
0.0421531
0.0423157
0.0425424
0.0425305
0.0427792
0.246903
0.238391
0.22276
0.201013
0.178726
0.15714
0.137965
0.122425
0.110632
0.101662
0.0942044
0.0871827
0.0800142
0.0725423
0.064781
0.0567672
0.0487298
0.0416796
0.0422608
0.0419784
0.0421281
0.0418814
0.0406868
0.0383791
0.0357322
0.0368952
0.039125
0.0411976
0.0420655
0.041543
0.0417073
0.251662
0.242837
0.22717
0.20568
0.183649
0.162271
0.1432
0.127657
0.115761
0.106646
0.0990347
0.0918567
0.0845124
0.0768335
0.0689034
0.0608589
0.0527839
0.0449134
0.0380857
0.041424
0.0409666
0.0402908
0.0396887
0.037249
0.0345059
0.031537
0.0326953
0.035152
0.0376954
0.0385447
0.0404186
0.042293
0.256114
0.246976
0.231281
0.210054
0.1883
0.167163
0.14825
0.132752
0.120794
0.111554
0.103806
0.0964848
0.0889862
0.0811221
0.0729833
0.0647702
0.0566582
0.0487223
0.0411445
0.0341922
0.039841
0.038975
0.0361967
0.0352603
0.0327461
0.0299232
0.0264381
0.028253
0.0302796
0.0326265
0.0337315
0.0364553
0.0377544
0.0402151
0.0428264
0.260275
0.250794
0.235075
0.214131
0.192665
0.171805
0.153091
0.137694
0.125717
0.116383
0.108511
0.101063
0.093429
0.0854096
0.0770824
0.0686604
0.0603687
0.0523603
0.0446867
0.0372908
0.0297714
0.0396312
0.038567
0.0350411
0.0336726
0.0310565
0.0300532
0.027686
0.0230245
0.0220159
0.0240748
0.0275319
0.0285066
0.0307357
0.0321961
0.0357639
0.0372218
0.264101
0.254277
0.238531
0.217904
0.196742
0.176185
0.157716
0.142458
0.130517
0.12112
0.113144
0.105582
0.0978298
0.0896813
0.0811974
0.0725837
0.0640746
0.0558623
0.0480731
0.0406757
0.033212
0.0252778
0.0342666
0.0327422
0.0293611
0.0280887
0.0261905
0.0258892
0.0219785
0.0193132
0.0206953
0.0175103
0.0229777
0.0255848
0.0267618
0.0296675
0.0312161
0.267641
0.257452
0.241655
0.221353
0.200533
0.180306
0.162113
0.147039
0.135173
0.125755
0.117697
0.110037
0.102179
0.0939204
0.0853087
0.0765327
0.0678172
0.0593529
0.0512959
0.0437353
0.0364562
0.0288385
0.0207109
0.0282889
0.02693
0.0244594
0.0228259
0.021458
0.0209309
0.0184974
0.0151269
0.0167726
0.0199362
0.0192593
0.013287
0.0224402
0.022165
0.0245047
0.0256517
0.270887
0.260343
0.244469
0.224487
0.204043
0.184176
0.166288
0.151423
0.139671
0.130265
0.122159
0.114417
0.106471
0.0981144
0.0893969
0.0804895
0.0716016
0.0629114
0.0545641
0.0466937
0.0392758
0.0319293
0.0241613
0.0161731
0.0235623
0.0226069
0.0179559
0.0171905
0.0144153
0.0112925
0.0127824
0.0160145
0.0152381
0.00961128
0.2739
0.262999
0.247014
0.227318
0.207275
0.187805
0.170249
0.155621
0.143997
0.134639
0.126507
0.118711
0.110691
0.102254
0.0934459
0.084431
0.0753987
0.0665106
0.057897
0.0496851
0.0419463
0.0345096
0.0270032
0.0192642
0.0119209
0.0139158
0.0132142
0.0107586
0.00821979
0.00940486
0.0121347
0.0114781
0.00603019
0.276674
0.26545
0.249313
0.229857
0.210231
0.191209
0.17402
0.159636
0.148151
0.138855
0.130727
0.122898
0.114829
0.106327
0.0974445
0.0883414
0.0791953
0.0701501
0.0613204
0.0528218
0.0447233
0.0369788
0.0293934
0.0218129
0.014483
0.00797734
0.0104349
0.0098449
0.00817955
0.00468832
0.00641424
0.00897669
0.00827691
0.00286711
0.279283
0.26776
0.251396
0.232113
0.212923
0.194399
0.177604
0.163478
0.152138
0.142912
0.134801
0.126961
0.118864
0.110321
0.101381
0.0922053
0.0829654
0.0737874
0.0647734
0.0560307
0.0476453
0.0395841
0.0317364
0.0240463
0.0166989
0.0101091
0.00451899
0.00754023
0.00777166
0.00442677
0.00169368
0.0032285
0.00591823
0.00527219
-3.49865e-05
0.281735
0.26991
0.253227
0.234098
0.215336
0.197354
0.181005
0.167161
0.15597
0.146804
0.138718
0.130879
0.122778
0.114216
0.105242
0.0960128
0.0867003
0.0774236
0.0682695
0.0593358
0.0506965
0.0423517
0.0342259
0.0263081
0.0187812
0.0120368
0.00635658
0.00154982
0.00781724
0.00421639
0.00357418
0.00136386
-0.0013133
1.93062e-05
0.00258302
0.00183684
0.00544844
0.00488134
-0.0029098
0.284087
0.271821
0.254674
0.235756
0.217464
0.20007
0.184226
0.170691
0.159638
0.150526
0.142466
0.134644
0.126551
0.117995
0.10901
0.0997495
0.0903814
0.0810212
0.0717474
0.0626537
0.0538261
0.0452552
0.0368846
0.0287296
0.020969
0.0139568
0.00805587
0.00324851
-0.00114355
0.00383144
0.00288026
0.00061544
-0.000104787
-0.00198452
-0.0044827
-0.00342567
-0.00111689
-0.00187953
0.00178457
0.000783802
-0.0057739
0.286205
0.273156
0.255487
0.236981
0.219285
0.202548
0.187247
0.174041
0.163137
0.154079
0.146043
0.138239
0.130167
0.121637
0.112666
0.103401
0.0940014
0.0845845
0.0752252
0.0660109
0.057016
0.0482539
0.0396776
0.0313095
0.0233291
0.0160495
0.00981535
0.00478481
0.000585381
-0.00374038
-0.000350125
-0.0012903
-0.00308363
-0.00382274
-0.00545589
-0.0076216
-0.00688678
-0.00481492
-0.0055735
-0.00230868
-0.00324493
-0.00853906
0.288006
0.273662
0.255482
0.237654
0.220728
0.204778
0.19006
0.177209
0.166466
0.157455
0.149426
0.141642
0.133612
0.125127
0.116193
0.106946
0.0975403
0.0880829
0.0786506
0.0693363
0.0602273
0.0513166
0.0425669
0.0340164
0.0258461
0.0183418
0.0117939
0.00639194
0.0020444
-0.00186953
-0.0062821
-0.00428862
-0.00519007
-0.00672617
-0.00744309
-0.00879126
-0.0105529
-0.0101341
-0.00838042
-0.00909971
-0.00613848
-0.0070299
-0.0110969
0.289289
0.26985
0.276793
0.237808
0.251415
0.258553
0.22173
0.206702
0.192684
0.180197
0.169601
0.160619
0.152595
0.144844
0.13687
0.128447
0.119573
0.11037
0.100984
0.0915205
0.0820511
0.072664
0.0634441
0.0544111
0.045523
0.0368179
0.0284854
0.0207976
0.0140008
0.00824668
0.00353923
-0.000399265
-0.00425001
-0.00872003
-0.00801486
-0.008849
-0.0101386
-0.0108036
-0.0118365
-0.0131678
-0.0130422
-0.0116542
-0.0123052
-0.00973816
-0.0105508
-0.0133462
0.287408
0.293004
0.266856
0.270292
0.275075
0.278555
0.222352
0.234513
0.241117
0.248939
0.2523
0.256827
0.260391
0.208221
0.195039
0.182996
0.172524
0.16356
0.155545
0.147824
0.13991
0.13157
0.122788
0.113656
0.104314
0.0948601
0.0853693
0.0759311
0.0666431
0.0575174
0.0485174
0.0396879
0.0312188
0.0233814
0.0163936
0.0103611
0.00528417
0.0010376
-0.00271913
-0.00657282
-0.0109493
-0.0114447
-0.0122017
-0.0132044
-0.0138047
-0.0145046
-0.0153945
-0.0155479
-0.0145415
-0.0151223
-0.0129889
-0.0137191
-0.0151652
0.285116
0.288255
0.292627
0.265923
0.269871
0.274344
0.278468
0.209257
0.219862
0.225738
0.23277
0.235866
0.239915
0.243248
0.248526
0.252245
0.256393
0.260356
0.196939
0.185511
0.175236
0.166264
0.158234
0.15054
0.142705
0.134483
0.12582
0.116789
0.107513
0.0981039
0.0886251
0.0791666
0.0698188
0.0606186
0.0515309
0.0426012
0.0340243
0.0260638
0.0189274
0.0126848
0.00730591
0.00270342
-0.00128985
-0.00497606
-0.00876515
-0.0128445
-0.0144846
-0.0151575
-0.0158656
-0.0163891
-0.0167461
-0.0171096
-0.0175979
-0.0170075
-0.0174952
-0.0158355
-0.0164714
-0.0163879
0.284171
0.288091
0.292478
0.198168
0.207288
0.212466
0.218537
0.221316
0.224895
0.22792
0.232754
0.23615
0.239897
0.243517
0.187504
0.177627
0.168701
0.160631
0.152969
0.145241
0.137159
0.128637
0.119734
0.110566
0.101219
0.0917677
0.0823091
0.072946
0.063696
0.0545454
0.0455407
0.0368793
0.0288237
0.0215687
0.0151677
0.00955802
0.00464692
0.000330791
-0.00352938
-0.00713503
-0.01071
-0.0142835
-0.0171159
-0.0176793
-0.018078
-0.0185107
-0.0184564
-0.0180374
-0.0190411
-0.0189874
-0.0193597
-0.0182498
-0.0187634
-0.0170986
0.188692
0.196511
0.20105
0.206184
0.208645
0.211752
0.214441
0.218618
0.221656
0.225017
0.228312
0.179448
0.170775
0.162723
0.155089
0.147472
0.139551
0.131209
0.122484
0.113456
0.104207
0.0948144
0.0853827
0.0760097
0.0667372
0.0575446
0.0484881
0.0397668
0.0316399
0.0242943
0.0177698
0.0119859
0.00682962
0.00221355
-0.00193067
-0.00567679
-0.0091026
-0.0122964
-0.0152594
-0.0192792
-0.0197256
-0.0197231
-0.0200196
-0.0192924
-0.0184598
-0.0193555
-0.0202714
-0.0204342
-0.0201508
-0.0205259
-0.0172855
0.18043
0.187199
0.191197
0.195536
0.197702
0.200382
0.202745
0.206267
0.208928
0.211857
0.214765
0.172276
0.164425
0.156859
0.149357
0.141634
0.133526
0.125012
0.116153
0.107023
0.0977155
0.088339
0.0789996
0.0697235
0.0605123
0.0514298
0.0426701
0.0344953
0.0270822
0.0204633
0.0145451
0.00919811
0.00433162
-9.61496e-05
-0.00409551
-0.00766136
-0.0107759
-0.0134778
-0.0157716
-0.020838
-0.0211016
-0.0203679
-0.0203799
-0.0192089
-0.0183442
-0.0193886
-0.0201323
-0.0197942
-0.0212694
-0.021341
-0.0169777
0.172987
0.178994
0.182567
0.186287
0.188214
0.190552
0.192625
0.19559
0.197906
0.200438
0.202967
0.165576
0.158224
0.150885
0.143384
0.135538
0.127274
0.118628
0.109677
0.100495
0.0911987
0.0818977
0.0726447
0.0634375
0.0543497
0.0455777
0.037374
0.0299164
0.023225
0.0172029
0.0117072
0.00663865
0.00196197
-0.00230285
-0.00611352
-0.00940185
-0.0121021
-0.0142455
-0.015826
-0.0212296
-0.0211121
-0.0195848
-0.0198003
-0.0190117
-0.0177586
-0.0189775
-0.0197924
-0.0199277
-0.0209216
-0.0196137
-0.0163792
0.166035
0.171546
0.174816
0.178109
0.179839
0.181921
0.18376
0.1863
0.188345
0.190557
0.192756
0.159083
0.152009
0.144761
0.137203
0.129248
0.120879
0.112127
0.103089
0.0939041
0.0846918
0.0754859
0.0663093
0.0572369
0.0484721
0.0402659
0.0327815
0.0260389
0.0199337
0.014322
0.00909082
0.00420592
-0.000303831
-0.0043745
-0.00792185
-0.0108416
-0.01306
-0.0146014
-0.0155234
-0.0202557
-0.0202374
-0.0197305
-0.0198277
-0.0185143
-0.0169777
-0.0183897
-0.019784
-0.0198352
-0.0203083
-0.0204857
-0.0189225
-0.0155484
0.159355
0.164579
0.16764
0.170666
0.172263
0.174173
0.175834
0.178072
0.179906
0.181876
0.183823
0.15267
0.145738
0.138516
0.13091
0.122859
0.114368
0.105526
0.0964818
0.0873657
0.0782359
0.0691054
0.0600751
0.0513457
0.0431555
0.0356666
0.0288893
0.0227211
0.0170146
0.0116545
0.00659806
0.00187576
-0.00243932
-0.00625491
-0.00946572
-0.011962
-0.0136665
-0.0146038
-0.0149311
-0.0203829
-0.0204142
-0.0205904
-0.0207175
-0.0195676
-0.0195803
-0.0177992
-0.0159872
-0.0175286
-0.0193923
-0.0193337
-0.0207905
-0.0208135
-0.0206322
-0.020914
-0.0144684
0.152835
0.157898
0.160824
0.163711
0.165207
0.167004
0.168539
0.170591
0.172286
0.174091
0.175849
0.1463
0.139446
0.132224
0.124541
0.116362
0.107758
0.0988874
0.0899026
0.0808647
0.0718125
0.0628538
0.0541831
0.0460334
0.0385572
0.0317657
0.0255506
0.0197686
0.0143034
0.00910781
0.00420575
-0.000327326
-0.00439681
-0.00790011
-0.0107303
-0.0127758
-0.0139473
-0.0142928
-0.014099
-0.0211553
-0.0213528
-0.0207344
-0.0206654
-0.0189116
-0.0188073
-0.0167603
-0.0147209
-0.0163102
-0.0184617
-0.0182685
-0.0205373
-0.0203565
-0.0214753
-0.0215176
-0.0132342
0.14643
0.151408
0.154231
0.157047
0.158485
0.160215
0.161663
0.163608
0.165204
0.166899
0.168533
0.139985
0.133163
0.125899
0.118104
0.109801
0.101136
0.0922852
0.0833657
0.0744172
0.0655503
0.0569678
0.0488845
0.0414453
0.0346553
0.0284115
0.0225703
0.0170204
0.0117098
0.0066589
0.00193755
-0.00236023
-0.00613592
-0.00929002
-0.0117165
-0.013294
-0.0139141
-0.0137043
-0.013103
-0.0214827
-0.021414
-0.0200756
-0.0198088
-0.0176966
-0.0174677
-0.0152222
-0.0133058
-0.0147592
-0.0169881
-0.0166207
-0.0194818
-0.0191101
-0.0212755
-0.0210693
-0.0119781
0.14013
0.145058
0.147804
0.150594
0.151977
0.153657
0.155045
0.156936
0.158476
0.160104
0.161651
0.133736
0.1269
0.119546
0.111611
0.103207
0.0945274
0.0857231
0.0768966
0.0681494
0.0596797
0.0516949
0.0443154
0.0375476
0.0312907
0.0254096
0.0197915
0.014387
0.0092116
0.00433137
-0.000166823
-0.00418844
-0.00763996
-0.0104253
-0.0124284
-0.0134978
-0.0135749
-0.0129552
-0.0121346
-0.0207922
-0.0204896
-0.018649
-0.0182323
-0.0157186
-0.0147409
-0.0137896
-0.0118149
-0.0131485
-0.0148613
-0.0177632
-0.0172421
-0.0201185
-0.0196984
-0.010873
0.13393
0.138842
0.141511
0.14429
0.145636
0.14728
0.148619
0.150481
0.151971
0.153551
0.155045
0.127539
0.120637
0.113167
0.105096
0.0966125
0.0879372
0.079233
0.0706318
0.0623055
0.0544411
0.047149
0.0404247
0.0341764
0.0282718
0.0226049
0.017125
0.0118474
0.00683302
0.0021633
-0.00207547
-0.00579487
-0.0089045
-0.0112964
-0.0128268
-0.013376
-0.0130342
-0.0122048
-0.011272
-0.0192198
-0.0187514
-0.0166199
-0.0165255
-0.0139603
-0.0120786
-0.0104269
-0.0112934
-0.0131216
-0.0149638
-0.0153117
-0.018223
-0.017623
-0.00982567
0.1278
0.13274
0.135343
0.138138
0.139437
0.141043
0.14234
0.144186
0.145642
0.147185
0.148633
0.121375
0.114411
0.106811
0.0985844
0.0900236
0.0814307
0.0729842
0.0648218
0.0571029
0.0499217
0.043268
0.037048
0.0311409
0.0254447
0.0199113
0.0145519
0.00942625
0.00461028
0.000182725
-0.00377626
-0.00717836
-0.00991654
-0.0118531
-0.0128768
-0.013005
-0.0124378
-0.0115196
-0.0104668
-0.0169293
-0.0162637
-0.0143195
-0.0140521
-0.0120623
-0.0102717
-0.0090615
-0.00956706
-0.0110168
-0.0130956
-0.0134204
-0.00866926
0.121694
0.126724
0.129267
0.132105
0.133372
0.13495
0.136204
0.138043
0.139457
0.140965
0.142374
0.115232
0.108185
0.100384
0.091999
0.0834971
0.0751942
0.0672105
0.059657
0.052611
0.04605
0.039883
0.0339947
0.0282925
0.0227275
0.0173099
0.0120951
0.00715654
0.002566
-0.00160447
-0.00526824
-0.00831372
-0.0106085
-0.0120513
-0.0126498
-0.012519
-0.0118457
-0.0108533
-0.00950721
-0.0123001
-0.011908
-0.00995056
-0.00866318
-0.00761479
-0.00793602
-0.00904326
-0.0107089
-0.0111594
-0.00712095
0.115647
0.120711
0.123237
0.126162
0.127396
0.128956
0.13017
0.132025
0.133408
0.134888
0.136255
0.109307
0.102103
0.0939167
0.08548
0.0772819
0.0694615
0.0620862
0.0551895
0.0487441
0.0426543
0.0368108
0.0311249
0.0255525
0.0201008
0.0148227
0.00978581
0.00505736
0.000702365
-0.00319586
-0.00651678
-0.00912465
-0.010934
-0.0119572
-0.0122768
-0.0119974
-0.0112263
-0.0100035
-0.00810342
-0.00994972
-0.00959772
-0.00812701
-0.00700753
-0.00586352
-0.00619563
-0.00722867
-0.00861493
-0.00901376
-0.00474085
0.109735
0.114676
0.117203
0.120182
0.121426
0.123009
0.124192
0.126088
0.127448
0.128912
0.130246
0.103378
0.0956237
0.0873885
0.0792701
0.0715742
0.064367
0.0576334
0.0513216
0.0453347
0.039561
0.0339167
0.0283614
0.0229027
0.0175874
0.0124792
0.00763966
0.00312834
-0.000977945
-0.00455316
-0.00746125
-0.00962007
-0.011016
-0.0117135
-0.0118232
-0.0113951
-0.0103902
-0.00864432
-0.00568479
-0.00802425
-0.00770435
-0.00623267
-0.00517464
-0.00349804
-0.00419686
-0.00522595
-0.00669481
-0.00711405
-0.00195955
0.104379
0.108767
0.111252
0.114126
0.11538
0.116994
0.118168
0.120106
0.121489
0.122971
0.124287
0.0972191
0.089276
0.0812399
0.0735859
0.0664985
0.0599227
0.0537594
0.047894
0.0422154
0.0366397
0.0311294
0.0256895
0.0203643
0.0152143
0.0102954
0.00565802
0.00137295
-0.00243678
-0.00562521
-0.00809463
-0.00982384
-0.0108772
-0.0113458
-0.0112525
-0.0105329
-0.00898171
-0.00615562
-0.00234826
-0.00602031
-0.00561112
-0.00413549
-0.00292409
-0.00133056
-0.00161433
-0.00306226
-0.00445206
-0.004943
0.0983591
0.104076
0.105933
0.108318
0.109515
0.111043
0.112179
0.114049
0.115453
0.116952
0.11828
0.0908516
0.0831402
0.0755274
0.0684812