/*--------------------------------*- C++ -*----------------------------------*\
| =========                 |                                                 |
| \\      /  F ield         | OpenFOAM: The Open Source CFD Toolbox           |
|  \\    /   O peration     | Version:  v1912                                 |
|   \\  /    A nd           | Website:  www.openfoam.com                      |
|    \\/     M anipulation  |                                                 |
\*---------------------------------------------------------------------------*/
FoamFile
{
    version     2.0;
    format      ascii;
    class       surfaceScalarField;
    location    "10";
    object      phi;
}
// * * * * * * * * * * * * * * * * * * * * * * * * * * * * * * * * * * * * * //

dimensions      [0 3 -1 0 0 0 0];
oriented        oriented;


internalField   nonuniform List<scalar> 
7351
(
2.64319e-05
0.00251132
3.55337e-05
0.00583297
4.38082e-05
0.00247457
-1.14494e-05
0.00813211
5.54476e-05
0.00582963
3.68149e-05
0.00244032
-3.7283e-05
0.00990072
3.17406e-05
0.00815501
3.47913e-05
0.00583207
4.24017e-05
0.00238743
-0.000102294
0.011231
2.75171e-06
0.00993255
2.22324e-06
0.00817919
4.32084e-05
0.00582551
4.90131e-05
0.00232572
-0.000145837
0.0121291
-4.74832e-05
0.0112704
-3.43477e-05
0.00996531
4.94167e-06
0.00820689
5.90598e-05
0.00580477
3.92039e-05
0.0022641
-0.00022325
0.0126503
-9.10255e-05
0.0121738
-8.17375e-05
0.0113094
-3.59006e-05
0.0100008
3.34937e-05
0.0082172
5.7276e-05
0.00577613
2.32183e-05
0.00222824
-0.000270661
0.0129013
-0.000153105
0.0126999
-0.000124774
0.0122105
-8.15758e-05
0.0113434
5.09895e-06
0.0100234
4.5438e-05
0.00821759
4.07878e-05
0.00575292
-6.92679e-07
0.00221632
-0.00035796
0.0128821
-0.000202621
0.0129513
-0.000170953
0.0127388
-0.000115412
0.0122435
-2.92747e-05
0.0113724
2.85191e-05
0.0100393
3.57679e-05
0.00821285
1.26738e-05
0.00573804
-1.62628e-05
0.00223031
-0.000393436
0.0125395
-0.000270411
0.0129412
-0.00021254
0.0129905
-0.000146611
0.0127645
-5.57073e-05
0.0122698
5.32339e-06
0.0113908
2.80949e-05
0.0100476
1.20073e-05
0.00820994
-1.00005e-05
0.00573252
-2.92946e-05
0.00225176
-0.00045708
0.0117031
-0.000340285
0.012594
-0.000263859
0.0129896
-0.00017761
0.0130245
-8.49739e-05
0.012794
-4.61284e-06
0.0122858
2.29326e-05
0.0113976
2.03679e-05
0.010042
-1.02146e-05
0.00820371
-3.0359e-05
0.00573074
-3.46083e-05
0.00228204
-0.000427283
0.0101897
-0.000384489
0.0117477
-0.000298918
0.0126305
-0.000202882
0.0130145
-0.000101287
0.0130458
-2.15387e-05
0.0128144
1.81925e-05
0.0122953
2.09931e-05
0.0113949
-2.45411e-06
0.0100336
-2.37066e-05
0.00819191
-3.73911e-05
0.00572854
-3.8065e-05
0.00230742
0.00766888
-0.000360842
1.25496e-05
-0.000424162
0.0102122
-0.000344359
0.0117749
-0.00023237
0.0126508
-0.000117964
0.0130356
-2.56189e-05
0.0130578
1.66365e-05
0.0128201
3.32655e-05
0.0122881
1.21403e-05
0.0113787
-9.6954e-06
0.0100156
-3.82247e-05
0.0081824
-4.9139e-05
0.00573333
-3.00345e-05
0.00232776
0.00769533
-0.00040703
-3.39039e-05
-0.00273632
0.00258268
-0.000198886
-6.4232e-05
-0.000335272
0.0102126
-0.000230043
0.0117816
-0.000121027
0.0126627
-2.70508e-05
0.0130424
1.56662e-05
0.0130653
3.4498e-05
0.0128201
2.54437e-05
0.0122721
-1.42544e-06
0.0113614
-3.03869e-05
0.0100018
-5.0092e-05
0.00817574
-4.60341e-05
0.00574024
-2.2163e-05
0.00232889
0.00764169
-0.000285726
1.19595e-05
-0.00273451
0.00258828
-0.000251647
-0.00018296
-0.00176742
0.00168004
-0.00010173
-6.01962e-06
-5.55368e-05
-0.000203583
0.0101741
-0.000121283
0.0117689
-3.11645e-05
0.0126611
2.19497e-05
0.0130409
4.80725e-05
0.0130547
4.40719e-05
0.0127986
1.70673e-05
0.0122505
-9.36982e-06
0.0113349
-3.76486e-05
0.00998569
-5.63537e-05
0.00817403
-4.14785e-05
0.00574811
-8.19584e-06
0.0023232
0.0075502
-0.000198296
9.76159e-05
-0.00267999
0.00250517
-0.000100917
-7.49075e-05
-0.00171969
0.00163622
-9.94014e-05
-6.14456e-05
-6.99199e-05
-0.000149847
-0.000566764
0.000514081
-4.71975e-05
-0.000558433
-1.40501e-05
-1.98676e-05
-7.59976e-05
0.0101433
-1.15016e-05
0.0117608
3.31029e-05
0.0126573
6.31086e-05
0.0130273
6.13911e-05
0.0130367
4.15606e-05
0.0127694
1.21073e-05
0.0122249
-2.39173e-05
0.0113135
-5.20523e-05
0.0099763
-5.5703e-05
0.00817861
-3.25164e-05
0.00576096
1.17783e-06
0.00230478
0.00750617
-0.000149416
0.000127044
-0.00259642
0.00245739
-5.08881e-05
9.05306e-06
-0.00160847
0.00152652
-3.24911e-05
2.00988e-05
2.70788e-06
-4.67548e-05
-0.000472163
0.000410766
-3.46734e-05
-0.000467248
-6.40914e-05
0.00051826
-7.25272e-05
-9.75984e-05
-0.000329566
0.000294974
-1.1712e-05
-0.000339209
-4.31543e-06
-3.48928e-06
-3.97707e-06
0.010125
3.00758e-05
0.0117492
6.32015e-05
0.0126468
7.18841e-05
0.0130155
6.47438e-05
0.0130122
3.40624e-05
0.0127437
5.51169e-06
0.0121951
-3.60246e-05
0.0112946
-5.47026e-05
0.00996957
-5.43888e-05
0.0081854
-2.31552e-05
0.00577448
3.19596e-06
0.00229691
0.00749268
-0.000117686
0.00013803
-0.00256051
0.00245381
-3.22987e-05
2.90484e-05
-0.00154041
0.00149851
-2.44494e-05
2.18391e-05
2.48562e-05
-2.73528e-05
-0.000401125
0.000374674
-3.80368e-06
-0.000383878
4.6167e-06
0.00041884
-3.4123e-06
-1.06138e-05
-0.00015608
0.000122453
-0.0002196
0.000256077
-3.25374e-05
-6.02817e-05
-0.000104191
9.26883e-05
-0.000108542
3.88279e-05
0.010129
6.60045e-05
0.0117557
8.27143e-05
0.01264
8.2853e-05
0.0129963
5.82188e-05
0.0129881
3.187e-05
0.0127158
-1.5848e-05
0.0121726
-5.14114e-05
0.0112825
-6.42595e-05
0.00997129
-5.03196e-05
0.0082037
-1.81528e-05
0.00579035
2.98445e-06
0.00228627
0.0075182
-0.000109711
0.00013046
-0.00255928
0.00247173
-2.21936e-05
3.5402e-05
-0.00153117
0.00150667
-2.29164e-05
2.21842e-05
2.34287e-05
-2.38852e-05
-0.000395125
0.000375337
-2.2149e-06
-0.000376288
4.68839e-06
0.000396296
4.77115e-06
-6.32892e-06
-0.000113748
0.00011056
-0.000108784
0.000119398
6.02817e-05
4.70692e-05
0.0101335
6.85709e-05
0.011751
7.94484e-05
0.0126309
7.44119e-05
0.0129795
5.27353e-05
0.0129679
1.01522e-05
0.0126879
-2.49614e-05
0.0121446
-6.07009e-05
0.011273
-6.58708e-05
0.00997885
-4.59771e-05
0.00822096
-1.49046e-05
0.00580612
6.56683e-06
0.00227728
0.00755467
-0.000106237
0.000126302
-0.00257393
0.00249557
-2.20304e-05
3.29579e-05
-0.00154292
0.00152701
-2.23349e-05
2.22584e-05
2.36573e-05
-2.2078e-05
-0.000399266
0.000380918
-2.11383e-06
-0.000379474
4.30926e-06
0.000396822
3.8042e-06
-5.32237e-06
-0.000114294
0.000112769
-0.000109303
0.000115632
4.80693e-05
0.0101661
7.16218e-05
0.0117679
8.0735e-05
0.0126289
7.24886e-05
0.0129593
3.87114e-05
0.0129395
-7.98778e-06
0.0126673
-5.47622e-05
0.012131
-7.3267e-05
0.0112684
-6.80784e-05
0.00999446
-4.42961e-05
0.00824644
-9.21655e-06
0.0058146
9.29973e-06
0.00224794
0.00759907
-0.000107868
0.000117362
-0.00259457
0.00251565
-2.04882e-05
2.94542e-05
-0.00156284
0.0015483
-2.07991e-05
1.97046e-05
2.20268e-05
-2.18279e-05
-0.000405994
0.000388008
-1.97461e-06
-0.000386125
4.03919e-06
0.000402084
4.101e-06
-5.10008e-06
-0.000116301
0.000114882
-0.00011162
0.000116942
3.45654e-05
0.0101863
5.77665e-05
0.0117705
6.796e-05
0.0126214
4.80955e-05
0.0129492
1.31574e-05
0.0129165
-3.32032e-05
0.0126399
-7.0019e-05
0.0121223
-8.44438e-05
0.011279
-7.08892e-05
0.0100162
-3.9251e-05
0.00826591
-1.75428e-06
0.00581462
2.36235e-05
0.00220886
0.00763366
-0.000106894
0.00011601
-0.00261238
0.00253606
-2.29155e-05
2.49344e-05
-0.00157887
0.00156456
-1.99676e-05
1.90414e-05
2.13626e-05
-2.05346e-05
-0.000410339
0.000393827
-2.00994e-06
-0.000392646
3.9258e-06
0.000408349
3.56932e-06
-4.9191e-06
-0.00011856
0.000117292
-0.000114201
0.000119301
3.87902e-05
0.0102182
6.23631e-05
0.0117854
6.02916e-05
0.0126125
3.44126e-05
0.0129256
-1.72257e-05
0.0128967
-6.00621e-05
0.0126233
-8.41267e-05
0.0121146
-8.86551e-05
0.0112879
-6.55601e-05
0.010037
-3.07324e-05
0.00828634
5.77411e-06
0.00581578
2.60262e-05
0.00215661
0.00767126
-0.000110495
0.000117625
-0.00262922
0.00255277
-2.38353e-05
2.47021e-05
-0.00159506
0.00157968
-1.98152e-05
1.83142e-05
1.82108e-05
-2.09716e-05
-0.000415018
0.000398822
-1.77365e-06
-0.000398433
3.78384e-06
0.000413065
3.48323e-06
-5.08071e-06
-0.000120642
0.000119305
-0.000116328
0.000121247
2.58657e-05
0.0102366
3.52121e-05
0.0117883
2.56458e-05
0.0126072
-4.64257e-06
0.0129095
-4.68266e-05
0.0128793
-8.35743e-05
0.0126174
-9.87922e-05
0.0121226
-8.63988e-05
0.0113053
-5.70357e-05
0.0100562
-2.04374e-05
0.00829753
1.64411e-05
0.00581017
2.697e-05
0.0021157
0.00769893
-0.000113387
0.000120207
-0.00265004
0.00257312
-2.43941e-05
2.49055e-05
-0.00160746
0.00158956
-2.00748e-05
1.94372e-05
1.88653e-05
-2.02503e-05
-0.000417595
0.000402209
-2.27088e-06
-0.000400864
3.42148e-06
0.00041595
2.82954e-06
-4.76212e-06
-0.000122032
0.000120886
-0.000117977
0.000123058
2.13644e-05
0.0102634
2.94962e-05
0.011795
1.23433e-05
0.0125936
-2.89432e-05
0.0128887
-6.7619e-05
0.0128612
-9.37169e-05
0.0126096
-9.52482e-05
0.0121272
-8.04768e-05
0.0113202
-5.0203e-05
0.0100781
-1.28118e-05
0.00831736
1.77219e-05
0.00580703
1.75642e-05
0.00208302
0.00772252
-0.000116063
0.000117346
-0.00267086
0.00258646
-2.29405e-05
2.43869e-05
-0.00162036
0.00160515
-2.11715e-05
1.86588e-05
1.84331e-05
-2.12867e-05
-0.000421587
0.000405407
-1.86703e-06
-0.000404394
3.46512e-06
0.000419348
2.95428e-06
-4.56333e-06
-0.000123133
0.000121518
-0.000119331
0.000124093
1.86854e-06
0.0102702
-8.19e-06
0.0117909
-2.94029e-05
0.0125792
-5.89513e-05
0.0128775
-9.17512e-05
0.0128578
-0.000104034
0.0126158
-0.00010019
0.0121452
-7.27023e-05
0.0113393
-3.76279e-05
0.0100967
-1.01183e-05
0.00833457
1.31277e-05
0.00580449
5.65491e-06
0.00207392
0.00773691
-0.000117529
0.000113516
-0.00268385
0.00260218
-2.67547e-05
2.39218e-05
-0.00163143
0.00161457
-2.0928e-05
1.97393e-05
2.0328e-05
-2.04827e-05
-0.000424884
0.00040853
-2.39108e-06
-0.000407522
3.38183e-06
0.00042282
2.94747e-06
-4.75016e-06
-0.00012388
0.000122677
-0.000120161
0.000124724
-6.22876e-06
0.0102847
-1.10714e-05
0.0117883
-3.99609e-05
0.0125685
-8.12767e-05
0.0128686
-0.000108198
0.0128638
-0.000114322
0.01263
-8.9373e-05
0.0121595
-6.40255e-05
0.0113595
-3.63104e-05
0.0101185
-9.80126e-06
0.00835471
1.17256e-07
0.00580823
-1.31251e-05
0.00208433
0.00774576
-0.00012018
0.000107446
-0.00269399
0.00260798
-2.67861e-05
2.28855e-05
-0.00164272
0.00162437
-2.03723e-05
1.74786e-05
1.99313e-05
-2.15248e-05
-0.000429182
0.000411955
-1.91659e-06
-0.00041171
3.4238e-06
0.000427014
3.13963e-06
-4.45421e-06
-0.000125133
0.000123499
-0.00012131
0.000126061
-2.30246e-05
0.0102739
-4.43183e-05
0.0117676
-7.7732e-05
0.0125522
-0.000109371
0.0128694
-0.000127996
0.0128768
-0.000108872
0.0126471
-8.35135e-05
0.0121781
-5.58989e-05
0.0113789
-2.84476e-05
0.0101361
-1.78727e-05
0.00837006
-1.69227e-05
0.0058122
-3.02407e-05
0.00211575
0.00774228
-0.000118061
0.00010846
-0.0026995
0.0026149
-2.87798e-05
1.94877e-05
-0.00164891
0.001628
-1.97742e-05
1.77004e-05
1.98096e-05
-2.02315e-05
-0.00043085
0.000414876
-2.40528e-06
-0.000414744
3.19255e-06
0.000430494
3.11018e-06
-4.69866e-06
-0.000126134
0.000124835
-0.000122446
0.000126901
-1.80317e-05
0.0102698
-4.58596e-05
0.0117583
-9.98999e-05
0.0125559
-0.000139863
0.0128846
-0.000131731
0.0129019
-0.000107482
0.0126723
-7.71344e-05
0.012199
-5.02539e-05
0.0113984
-3.67621e-05
0.0101552
-3.01483e-05
0.00838549
-3.22582e-05
0.00581704
-4.14301e-05
0.0021584
0.00773382
-0.000120347
0.000113468
-0.00270413
0.00261744
-2.69388e-05
2.01525e-05
-0.0016528
0.00163175
-2.00911e-05
1.72954e-05
1.87041e-05
-2.18244e-05
-0.000432719
0.000416313
-2.06515e-06
-0.000417336
3.14193e-06
0.000432631
3.05075e-06
-4.40815e-06
-0.00012724
0.000125487
-0.000123645
0.000128344
-3.48777e-05
0.0102358
-0.000102747
0.0117358
-0.000164176
0.0125666
-0.000169852
0.0129208
-0.00013881
0.0129316
-9.71798e-05
0.0126908
-6.68053e-05
0.0122168
-4.78175e-05
0.0114129
-4.43578e-05
0.0101729
-4.34568e-05
0.00839876
-4.64183e-05
0.00582448
-4.68723e-05
0.00220685
0.00770834
-0.000123994
0.000124145
-0.00271368
0.00262523
-2.53356e-05
2.09918e-05
-0.00165454
0.00163318
-2.05347e-05
1.87471e-05
1.90718e-05
-2.07076e-05
-0.000433546
0.000417098
-1.9465e-06
-0.000417185
2.48819e-06
0.000433644
2.79794e-06
-4.47063e-06
-0.000127674
0.000126094
-0.00012433
0.000128738
-5.57913e-05
0.0102126
-0.000148942
0.0117436
-0.00020033
0.0126085
-0.000179427
0.0129631
-0.000124403
0.0129611
-8.4352e-05
0.0127117
-6.04178e-05
0.0122324
-5.6021e-05
0.0114269
-5.37011e-05
0.0101866
-4.97331e-05
0.00840528
-5.55954e-05
0.0058363
-4.35008e-05
0.00225274
0.00766017
-0.000137985
0.000130025
-0.00272405
0.00262716
-2.41696e-05
2.5768e-05
-0.00165795
0.00163916
-2.10211e-05
1.91361e-05
1.97417e-05
-2.13201e-05
-0.000434881
0.000417655
-2.09986e-06
-0.000418571
3.14832e-06
0.000434325
2.69805e-06
-4.50589e-06
-0.000127607
0.000126235
-0.000124769
0.000129239
-0.000128997
0.0101647
-0.000263454
0.0117767
-0.000254387
0.0126682
-0.000174771
0.0130125
-0.000108979
0.0129873
-7.26363e-05
0.0127269
-5.98676e-05
0.0122414
-5.67027e-05
0.0114357
-5.27825e-05
0.0101945
-5.52613e-05
0.00840791
-5.27331e-05
0.00584857
-3.58511e-05
0.00229189
0.00758075
-0.000172686
0.000129005
-0.00273301
0.00262419
-2.53708e-05
2.7198e-05
-0.0016646
0.00164251
-2.09956e-05
2.14259e-05
2.17111e-05
-2.09372e-05
-0.000437734
0.00042001
-1.99145e-06
-0.000419949
2.82737e-06
0.000435946
2.87581e-06
-4.46089e-06
-0.000127932
0.000126304
-0.000124605
0.000129111
-0.000263337
0.0101861
-0.000320344
0.0118627
-0.000232336
0.0127355
-0.000138298
0.0130453
-8.43237e-05
0.0130038
-5.88559e-05
0.0127316
-5.50805e-05
0.0122452
-5.60395e-05
0.0114435
-5.36066e-05
0.0101969
-5.36123e-05
0.00841217
-4.52957e-05
0.00586248
-2.50175e-05
0.00232229
0.00749948
-0.000272966
8.77091e-05
-0.00272758
0.00259537
-4.02115e-05
2.44341e-05
-0.00167056
0.0016464
-2.10544e-05
2.19726e-05
2.31604e-05
-2.23485e-05
-0.000440849
0.000422925
-2.48347e-06
-0.000422741
3.587e-06
0.00043901
3.18076e-06
-4.45898e-06
-0.000128251
0.000126725
-0.00012507
0.000129531
-0.000425778
0.0102585
-0.000329792
0.0119301
-0.00018937
0.0127765
-0.000100172
0.0130658
-5.83809e-05
0.0130096
-5.10689e-05
0.0127341
-4.69898e-05
0.0122428
-4.76871e-05
0.0114431
-5.08741e-05
0.0101987
-4.69895e-05
0.00841799
-3.4133e-05
0.00587691
-1.26386e-05
0.0023414
0.00755586
-0.000436692
-4.33572e-05
-0.00268733
0.00252064
-0.000103064
-1.31727e-06
-0.00166633
0.00162733
-2.44174e-05
2.37694e-05
2.54027e-05
-2.20132e-05
-0.0004455
0.000426393
-1.9856e-06
-0.00042622
3.65725e-06
0.000443609
3.57138e-06
-4.34538e-06
-0.000129208
0.000127013
-0.000125533
0.000129992
-0.000404058
0.0103493
-0.000223466
0.0119795
-0.000112608
0.0127966
-5.95538e-05
0.0130711
-4.31473e-05
0.0130065
-4.12446e-05
0.0127332
-4.42892e-05
0.0122442
-4.60117e-05
0.0114433
-4.18636e-05
0.0101986
-3.51103e-05
0.00842421
-1.5972e-05
0.00588753
-1.63614e-06
0.00235136
0.00756188
-0.000319703
-9.63031e-05
-0.00261955
0.00248444
-0.000303513
-0.00014386
-0.00163211
0.00154979
-3.95596e-05
2.16386e-05
2.45462e-05
-2.84788e-05
-0.000448665
0.000427115
-2.77133e-06
-0.000429575
4.01459e-06
0.000447267
3.8985e-06
-4.69601e-06
-0.000130419
0.000128475
-0.0001265
0.000130845
-0.000239317
0.0103365
-0.000141615
0.0119855
-6.48292e-05
0.0127981
-2.92985e-05
0.013065
-2.43428e-05
0.0129973
-2.69814e-05
0.0127233
-3.38978e-05
0.012239
-3.72613e-05
0.0114446
-3.26988e-05
0.0102021
-1.54545e-05
0.0084302
2.08303e-06
0.00589158
8.62808e-06
0.00235106
0.00746404
-0.000196502
5.88204e-05
-0.00257964
0.00239329
-0.000130543
-0.000189648
-0.00147582
0.00138329
-0.000142987
-6.91115e-05
1.10455e-05
-8.18924e-05
-0.000446258
0.000412559
-5.00648e-06
-0.000426549
3.59535e-06
0.000449381
3.76479e-06
-4.73319e-06
-0.000131366
0.000128755
-0.000127515
0.000132211
-0.000109441
0.0103149
-5.36226e-05
0.0119801
-1.89296e-05
0.0127894
-7.41151e-06
0.0130502
-1.16139e-05
0.0129854
-1.89229e-05
0.0127127
-2.53546e-05
0.0122328
-2.4464e-05
0.0114436
-1.65034e-05
0.0102107
-1.02617e-07
0.00843993
1.6284e-05
0.00589282
2.1853e-05
0.00233777
0.00739725
-0.00015331
0.00010945
-0.00245843
0.00230781
-4.53195e-05
-7.18679e-06
-0.00131156
0.00119848
-2.82372e-05
1.29624e-05
-5.38223e-05
-6.22278e-05
-0.000326863
0.000255098
-7.13102e-05
-0.000362927
-3.38617e-05
0.000423699
-4.94362e-07
-2.14839e-05
-0.000132188
0.000127538
-0.000128189
0.000132923
-4.58355e-05
0.0102861
-1.66345e-05
0.0119628
8.50175e-06
0.0127744
1.06935e-05
0.0130371
4.7605e-07
0.0129757
-1.0981e-05
0.0127087
-1.40432e-05
0.0122321
-1.56319e-05
0.0114509
-1.17644e-06
0.0102197
1.91646e-05
0.00844475
3.96351e-05
0.00588266
3.66133e-05
0.00230785
0.00736232
-0.000125756
0.000117875
-0.00239881
0.00228238
-3.07896e-05
2.12934e-05
-0.00118894
0.00114736
-2.05886e-05
1.91067e-05
2.24065e-05
-2.13067e-05
-0.000152973
0.000124952
-0.000139575
0.000201803
-7.14197e-05
-0.00010541
0.000126893
-4.49837e-06
0.0102765
1.62458e-05
0.0119532
2.69716e-05
0.0127571
2.31041e-05
0.0130181
7.05794e-06
0.0129638
-3.83236e-06
0.0127057
-1.24211e-05
0.0122375
-1.66719e-06
0.011461
1.69124e-05
0.0102307
4.54191e-05
0.00844617
6.62683e-05
0.00586008
5.78166e-05
0.00225562
0.00735623
-0.000113356
0.000116252
-0.00237647
0.00227659
-2.29577e-05
2.44959e-05
-0.00116788
0.00114425
-1.86457e-05
1.69312e-05
2.01679e-05
-1.8106e-05
-0.000144742
0.000124155
-0.000125844
0.000147151
1.62297e-05
0.010264
2.97141e-05
0.0119449
3.83585e-05
0.0127506
2.88487e-05
0.0130115
1.29608e-05
0.0129625
-4.90865e-07
0.0127091
3.21116e-06
0.0122455
1.40965e-05
0.0114734
4.19845e-05
0.0102416
7.79164e-05
0.00843994
0.000100072
0.00582192
8.3524e-05
0.0021752
0.00736678
-0.000106327
0.000115091
-0.00236975
0.0022859
-2.20548e-05
2.57401e-05
-0.00116632
0.00114752
-1.70384e-05
1.60101e-05
1.86347e-05
-1.63602e-05
-0.000143872
0.000125542
-0.000126578
0.000144684
2.3404e-05
0.0102688
3.78233e-05
0.0119421
3.70279e-05
0.012745
2.27327e-05
0.0130114
1.01981e-05
0.0129633
1.58587e-06
0.0127219
5.01376e-06
0.0122647
2.96636e-05
0.0114935
6.94265e-05
0.0102556
0.000118686
0.00842512
0.000145562
0.00576317
0.000115289
0.00206214
0.00738658
-0.000106757
0.000115169
-0.00237808
0.00229592
-1.92687e-05
2.48628e-05
-0.00117262
0.00115795
-1.66442e-05
1.51173e-05
1.75357e-05
-1.57185e-05
-0.000143811
0.000126794
-0.000127809
0.000144169
2.2812e-05
0.0102853
3.90318e-05
0.0119513
3.95257e-05
0.0127502
2.36367e-05
0.0130223
4.38862e-06
0.0129812
7.71668e-06
0.0127347
2.4113e-05
0.0122804
6.13788e-05
0.0115073
0.000113188
0.0102644
0.000172285
0.00840019
0.000199074
0.00568002
0.000150524
0.00191189
0.0074093
-0.000109544
0.000115129
-0.00239033
0.00231096
-1.97786e-05
2.29626e-05
-0.00118213
0.00116792
-1.59676e-05
1.47876e-05
1.66036e-05
-1.50327e-05
-0.000144436
0.000128397
-0.000128964
0.000144682
1.66697e-05
0.0103036
2.46839e-05
0.0119599
1.78497e-05
0.0127603
1.07489e-05
0.013028
3.76886e-06
0.0129958
9.92299e-06
0.0127563
3.93796e-05
0.0123073
9.75435e-05
0.0115259
0.000170499
0.0102676
0.000239594
0.00836018
0.000263201
0.00556784
0.000188579
0.00172319
0.0074445
-0.000116263
0.000113925
-0.00240616
0.00232698
-2.1694e-05
2.29418e-05
-0.00119051
0.00117809
-1.64266e-05
1.51052e-05
1.63124e-05
-1.49237e-05
-0.000145203
0.000129502
-0.000130191
0.000145224
9.84509e-06
0.0103414
1.84076e-05
0.0119906
1.70671e-05
0.0127865
2.13577e-06
0.0130548
-4.92875e-07
0.0130216
2.2595e-05
0.012781
7.47166e-05
0.0123341
0.000149863
0.0115479
0.000241524
0.0102655
0.000315621
0.00830684
0.000331376
0.00542341
0.000224522
0.00149662
0.00747813
-0.000123236
0.000109557
-0.00242321
0.00234504
-2.42445e-05
2.1347e-05
-0.00120157
0.00118817
-1.65869e-05
1.52337e-05
1.62813e-05
-1.51647e-05
-0.000146633
0.000130988
-0.000131208
0.000146132
-1.29448e-05
0.0103612
-1.35484e-05
0.0120037
-1.70599e-05
0.0127997
-1.55324e-05
0.0130712
1.39609e-06
0.0130443
4.38081e-05
0.012813
0.000122056
0.0123627
0.000220512
0.0115696
0.000325703
0.0102548
0.000404755
0.00823179
0.000398836
0.00524748
0.000251111
0.00124379
0.00751915
-0.000128207
0.000101671
-0.00244257
0.00236353
-2.65782e-05
1.85326e-05
-0.00121105
0.00120009
-1.7344e-05
1.53768e-05
1.61712e-05
-1.57123e-05
-0.000148226
0.000132491
-0.000132547
0.000147712
-2.07794e-05
0.0104072
-1.84883e-05
0.0120434
-1.86847e-05
0.0128302
-1.62681e-05
0.0131043
1.62773e-05
0.0130809
8.61039e-05
0.0128548
0.000188057
0.0123974
0.000311456
0.0115826
0.000421088
0.0102363
0.000492318
0.00813588
0.000461157
0.00503473
0.000255979
0.000985933
0.00754618
-0.000132143
9.31426e-05
-0.0024557
0.00237669
-2.88319e-05
1.55677e-05
-0.00122223
0.00121225
-1.74367e-05
1.47192e-05
1.62054e-05
-1.58624e-05
-0.000149518
0.00013392
-0.000133544
0.000149256
-5.45811e-05
0.01042
-5.58479e-05
0.0120502
-4.36285e-05
0.012841
-1.57246e-05
0.0131321
4.5599e-05
0.0131209
0.00014907
0.0128928
0.000278227
0.0124295
0.000410016
0.0115927
0.00052259
0.0102043
0.000572212
0.00802289
0.000499419
0.00479119
0.000216413
0.000772983
0.00756779
-0.000135257
8.37022e-05
-0.00246648
0.00238547
-3.01973e-05
1.21513e-05
-0.0012317
0.00122218
-1.76295e-05
1.43074e-05
1.58498e-05
-1.60353e-05
-0.000151138
0.00013576
-0.000135338
0.000151201
-5.81197e-05
0.0104581
-4.85188e-05
0.0120872
-3.74162e-05
0.012886
9.79795e-06
0.0131826
0.000103204
0.0131765
0.000235272
0.0129415
0.000385162
0.0124554
0.000517444
0.0115959
0.000618773
0.0101557
0.000638152
0.00788408
0.000496562
0.00451404
7.01669e-05
0.000707342
0.00757438
-0.000142274
7.14846e-05
-0.00246527
0.00237967
-3.26388e-05
9.0985e-06
-0.00124084
0.00122934
-1.71447e-05
1.3656e-05
1.49208e-05
-1.57387e-05
-0.000151976
0.000137067
-0.000136619
0.000152654
-7.23092e-05
0.0104403
-8.32263e-05
0.0120946
-4.15095e-05
0.012923
4.66819e-05
0.0132379
0.000184132
0.0132265
0.000344161
0.0129792
0.000503392
0.0124682
0.000638029
0.0115781
0.000708371
0.0100876
0.00066594
0.00771864
0.00040918
0.00418104
-0.000256364
0.00096789
0.00753318
-0.000119843
9.29578e-05
-0.00245586
0.00236388
-3.86974e-05
2.47317e-06
-0.00124235
0.00122507
-1.57676e-05
1.28894e-05
1.42635e-05
-1.49502e-05
-0.000153008
0.000138275
-0.000137796
0.000153535
-7.59321e-05
0.0104675
-6.58011e-05
0.012157
1.93839e-06
0.0129943
0.000131244
0.013304
0.000299864
0.0132789
0.000480777
0.0130079
0.000640363
0.0124687
0.000748913
0.01154
0.000774977
0.00998235
0.000637632
0.0074943
0.00018717
0.00374153
-0.000666659
0.00750092
-0.000154259
9.45083e-05
-0.00243805
0.00231365
-2.52498e-05
2.69287e-05
1.75604e-05
-0.00123408
0.00120555
-1.2641e-05
8.55137e-06
1.20298e-05
-1.34532e-05
-0.000152332
0.000139076
-0.000138513
0.000153463
-0.000106258
0.0104699
-7.46949e-05
0.0121986
5.10189e-05
0.0130613
0.000229293
0.0133724
0.000435269
0.0133268
0.000632112
0.0130221
0.000786086
0.0124369
0.000862443
0.0114567
0.000800843
0.00982434
0.000557633
0.00712766
-0.000309489
0.00748548
-0.000171962
9.15605e-05
-0.00240755
0.00228514
-3.63346e-05
7.24798e-06
-2.07025e-05
2.41217e-05
-0.000769438
0.000756729
-1.23742e-05
-0.000687302
-5.68754e-05
0.000534275
6.76764e-06
-8.01999e-06
-0.000148951
0.000137452
-0.000139024
0.000152477
-9.26352e-05
0.0105313
-4.02236e-06
0.0122943
0.000162035
0.013155
0.000383586
0.0134416
0.000616553
0.0133568
0.000817161
0.0130005
0.000944557
0.0123575
0.000950786
0.0113068
0.0008181
0.00956496
0.000292279
0.00745227
-0.000181136
0.000105842
-0.00239132
0.00225903
-4.26579e-05
4.57112e-06
-3.12278e-05
1.98897e-05
-0.000780067
0.000755156
-5.79848e-06
-0.0007689
-1.59597e-06
-0.000778692
-8.31429e-06
2.97912e-06
-0.000476531
0.000461431
1.63528e-06
-1.47993e-07
0.000143445
0.000134765
-7.55974e-05
0.010568
5.14906e-05
0.0123744
0.000284249
0.0132476
0.000557169
0.0135071
0.00082024
0.0133607
0.00102326
0.0129263
0.00109908
0.0122124
0.00104865
0.0110783
0.000784515
0.007431
-0.000182387
0.000137495
-0.00237676
0.00222866
-4.2509e-05
9.47047e-06
-3.20187e-05
2.29641e-05
-0.00077253
0.000742727
-7.85909e-06
-0.000761527
-5.19061e-06
-0.000776774
-1.21032e-05
-2.4072e-07
-0.000460531
0.000457597
-4.73197e-07
-0.000458649
-8.46626e-07
-0.000463638
-1.54504e-06
1.17296e-06
-0.000134617
0.000135878
-1.13926e-05
0.0106769
0.000185455
0.0125212
0.000478803
0.0133633
0.000799358
0.0135433
0.00107762
0.0132976
0.00123939
0.0127713
0.00127201
0.0119832
0.00116669
0.00742369
-0.000186487
0.000166734
-0.0023656
0.00220744
-4.20112e-05
1.58949e-05
-2.96722e-05
3.13671e-05
-0.000762873
0.000730996
-6.72391e-06
-0.0007497
-2.93851e-06
-0.000766094
-1.22202e-05
7.59944e-07
-0.000452198
0.000446011
-1.10217e-06
-0.000452361
-1.79922e-06
-0.000459039
-3.07811e-06
-7.33578e-07
-0.000135624
0.000136466
-0.00013577
-0.000137051
4.75322e-05
0.0107825
0.000312931
0.0126612
0.000702006
0.0134534
0.00109064
0.013519
0.00136958
0.0131541
0.00149037
0.01255
0.00148558
0.00747462
-0.000191437
0.000200823
-0.00236619
0.00219828
-4.22108e-05
2.11813e-05
-2.87569e-05
3.84987e-05
-0.000758913
0.000726151
-5.95022e-06
-0.000742558
-5.91753e-07
-0.000759988
-1.01085e-05
3.12309e-06
-0.000442591
0.000436336
-7.94419e-07
-0.000441152
-1.46656e-06
-0.000448204
-3.40196e-06
-9.07288e-07
-0.000132177
0.000132087
-0.000133291
-0.000135732
0.000153058
0.0109902
0.000543488
0.0128496
0.00103323
0.0134978
0.00145945
0.0133968
0.00169578
0.0129323
0.00176218
0.00758393
-0.000207001
0.000238494
-0.00237924
0.00220167
-4.49044e-05
2.85437e-05
-2.73988e-05
4.70603e-05
-0.000762804
0.000727127
-4.4533e-06
-0.000741965
4.45544e-07
-0.000759354
-8.91177e-06
6.12258e-06
-0.000436771
0.000430663
-3.3854e-07
-0.000433829
-1.30086e-06
-0.000440077
-2.72605e-06
-3.88414e-07
-0.000127157
0.000127108
-0.000128137
-0.00013118
0.000274475
0.0112179
0.000829388
0.012993
0.00146008
0.0134492
0.00188515
0.0131865
0.0020199
0.0078108
-0.000221384
0.000281572
-0.0024162
0.00222862
-5.15443e-05
3.43268e-05
-3.07126e-05
5.61595e-05
-0.00077324
0.000734553
-4.30171e-06
-0.00074838
2.81846e-06
-0.000766166
-8.85375e-06
8.19037e-06
-0.000435081
0.000429794
-6.44091e-07
-0.000431572
-8.2479e-07
-0.000436802
-2.40554e-06
2.4823e-07
-0.000123162
0.000123454
-0.000124154
-0.00012672
0.000512831
0.0115535
0.00133302
0.0131184
0.0020413
0.0132863
0.00228795
0.00820035
-0.00022459
0.00034118
-0.00248351
0.00228613
-5.94824e-05
4.08109e-05
-3.55333e-05
6.50845e-05
-0.000792813
0.000750679
-5.71229e-06
-0.000761588
3.79537e-06
-0.000781857
-8.70237e-06
9.4185e-06
-0.000436338
0.00043163
-5.84575e-07
-0.000431543
-7.48673e-07
-0.000437538
-2.69267e-06
2.30926e-07
-0.000121014
0.000120618
-0.000121484
-0.000123702
0.000932628
0.0119289
0.00204617
0.013095
0.00259305
0.00886396
-0.00017066
0.000465016
-0.00259346
0.00239053
-6.68798e-05
5.43851e-05
-4.09221e-05
7.86873e-05
-0.00082284
0.000775452
-6.24387e-06
-0.000783371
3.68452e-06
-0.000805861
-1.00062e-05
1.10911e-05
-0.000442441
0.000438063
-4.40474e-07
-0.000435854
-9.18272e-07
-0.000440741
-2.82897e-06
4.38779e-07
-0.000117256
0.000116991
-0.000118001
-0.000120849
0.0017378
0.0122693
0.00287837
0.00982034
6.01519e-05
0.000754048
-0.00279328
0.00260267
-5.54239e-05
8.92185e-05
-3.72874e-05
0.000104318
-0.000868397
0.000813963
-5.82116e-06
-0.000817387
6.71858e-06
-0.000842672
-1.1619e-05
1.30895e-05
-0.000453274
0.00045052
-7.90942e-07
-0.000445141
-1.18872e-06
-0.000449349
-3.53958e-06
5.2277e-07
-0.000114101
0.000114656
-0.000114697
-0.00011743
0.00288318
0.000695919
0.00138869
-0.00319364
0.00309562
9.76526e-06
0.000179478
-2.61603e-06
0.000171662
-0.00094813
0.000888931
1.03585e-05
-0.000875003
2.02114e-05
-0.000900459
-7.24298e-06
2.00544e-05
-0.000472401
0.000472424
-6.57137e-07
-0.000459849
-1.62356e-06
-0.000464454
-4.01862e-06
2.47178e-07
-0.000111799
0.000112758
-0.000112175
-0.000115178
-0.00401634
0.000344169
0.000441546
0.000157435
0.000323556
-0.00109781
0.0010385
8.13942e-05
-0.000988005
7.47411e-05
-0.00101207
2.62668e-05
5.02722e-05
-0.000516644
0.000526658
4.57371e-06
-0.000493399
1.29367e-06
-0.000493135
-3.22197e-06
1.20667e-06
-0.000109233
0.000111398
-0.000109817
-0.000113005
-0.00138711
0.000361331
-0.0012077
0.000275436
-0.00120544
0.000164287
0.000160233
-0.000643189
0.000690991
4.05645e-05
-0.000587565
2.31889e-05
-0.000568052
1.00042e-05
1.01733e-05
-0.000113672
0.000120547
-0.000110825
-0.000112605
-0.000974747
0.000286589
-0.000860761
0.000166854
-0.000788092
9.79176e-05
6.55715e-05
-0.000166069
0.000209897
-0.000141747
-0.000130721
-0.000544337
-0.000375372
-0.000275469
5.07955e-05
-5.03717e-05
-2.61063e-05
7.62615e-05
0.000194071
-0.000177575
-6.56774e-05
-6.32671e-05
0.000230236
-1.28138e-05
8.84681e-05
-6.30751e-05
-0.00011449
0.000360308
-0.000350592
-7.47495e-05
-0.000102881
0.0004002
-3.99294e-05
0.000256424
-5.90747e-06
9.34107e-05
-8.85732e-05
-0.000323888
-2.06561e-05
-9.39197e-05
0.00131644
-0.000166889
-0.00131024
6.31606e-05
-0.000282864
0.00143226
0.000422986
-2.96452e-05
0.000278838
-1.67171e-06
9.459e-05
-3.84852e-05
-0.000306304
-6.52832e-06
-8.78038e-05
0.000169908
0.00498217
-0.00483531
-0.000475403
2.99094e-05
-0.00120917
8.31897e-05
-0.000438519
0.00505733
6.35878e-05
0.00143813
1.2424e-05
0.000456657
-1.07708e-05
0.000287509
3.70449e-06
9.13225e-05
-0.000282941
-4.18819e-06
-8.35237e-05
7.38936e-05
-0.000412015
0.00720204
-0.0070831
-0.00058102
1.38057e-05
1.08792e-05
-0.000503896
0.00727436
0.000205247
-0.000266722
0.00520502
-8.22042e-05
0.00160707
4.13914e-05
-5.48458e-06
0.000458543
-3.97727e-06
0.000295874
5.08697e-07
9.12944e-05
-0.000273219
-3.21536e-06
-7.99298e-05
-0.000615197
0.00891372
-0.00883073
-0.000649517
-0.00026534
-0.00054952
0.00896785
-0.000398757
0.00740944
-8.04416e-05
0.00019156
0.00529362
-0.000186765
0.00152867
2.92394e-05
-3.14034e-05
0.000496066
-1.74904e-06
0.000492637
0.000294752
-2.15303e-06
9.37158e-05
-9.76896e-08
-0.000724816
0.0102071
-0.0101711
-0.000668535
-0.000564357
0.0102277
-0.000481313
0.00905774
-0.000224527
0.00756426
0.00170751
4.01593e-05
-2.52836e-05
3.50097e-05
0.000245692
0.00530945
-0.000262221
0.00156523
2.4439e-05
-6.45374e-05
0.00051182
1.04522e-05
0.000487665
-5.69224e-06
0.000303325
1.03491e-06
9.37386e-05
-0.000764313
0.0111116
-0.0111203
-0.000646497
-0.000544704
0.0111013
-0.000523098
0.0102739
-0.000340392
0.00918428
-7.46133e-05
0.00769032