/*--------------------------------*- C++ -*----------------------------------*\
| =========                 |                                                 |
| \\      /  F ield         | OpenFOAM: The Open Source CFD Toolbox           |
|  \\    /   O peration     | Version:  v1912                                 |
|   \\  /    A nd           | Website:  www.openfoam.com                      |
|    \\/     M anipulation  |                                                 |
\*---------------------------------------------------------------------------*/
FoamFile
{
    version     2.0;
    format      ascii;
    class       volVectorField;
    location    "460";
    object      U;
}
// * * * * * * * * * * * * * * * * * * * * * * * * * * * * * * * * * * * * * //

dimensions      [0 1 -1 0 0 0 0];


internalField   nonuniform List<vector> 
3754
(
(0.995633 0.00295997 9.16053e-23)
(0.996038 0.0086169 0)
(0.950798 0.01183 1.43683e-22)
(0.996666 0.0135892 0)
(0.955793 0.0334311 0)
(0.812858 0.0379897 -1.89739e-21)
(0.997174 0.0174493 0)
(0.965268 0.0511746 -1.10721e-20)
(0.842227 0.0991449 1.25853e-22)
(0.515389 0.0518804 1.04164e-21)
(0.532007 0.146982 8.97265e-22)
(0.997538 0.0199979 -1.497e-22)
(0.977298 0.0634109 1.10147e-20)
(0.893078 0.145285 0)
(0.578832 0.237845 8.10801e-22)
(0.646662 0.306596 -3.41393e-21)
(0.11781 0.102266 -2.12069e-22)
(0.111641 0.0344341 2.17481e-22)
(0.158628 0.226511 0)
(0.132327 0.167247 0)
(0.997873 0.0213442 0)
(0.988774 0.0707987 4.6228e-22)
(0.935281 0.166938 0)
(0.719255 0.356806 2.56253e-21)
(0.802337 0.380853 -3.75018e-21)
(0.250685 0.31361 -1.09036e-22)
(0.198158 0.277151 2.18668e-21)
(0.479259 0.477556 -6.46075e-22)
(0.345732 0.411236 0)
(0.998254 0.0217406 0)
(0.997902 0.0742117 0)
(0.964817 0.167212 -1.48763e-22)
(0.955573 0.447596 -9.4466e-21)
(0.663116 0.551201 8.349e-22)
(0.576447 0.518638 -7.71072e-22)
(0.780194 0.506317 0)
(0.296359 0.331719 -2.49565e-21)
(0.132983 0.204044 5.46691e-21)
(0.998675 0.0214375 0)
(1.00445 0.0744174 -6.1486e-23)
(0.987887 0.157957 0)
(1.06425 0.423551 1.19671e-20)
(0.891249 0.319165 -1.18561e-21)
(1.06414 0.388564 3.66134e-21)
(0.557566 0.401536 9.96432e-22)
(0.399262 0.343434 -9.0459e-22)
(0.757658 0.378781 -2.00236e-21)
(0.534444 0.272089 1.71434e-21)
(0.999086 0.0206198 -1.32176e-23)
(1.00893 0.0720929 0)
(1.00693 0.146269 5.49048e-23)
(1.10775 0.371782 0)
(1.19032 0.30962 -2.2398e-21)
(0.631123 0.0925985 -7.09764e-21)
(0.54558 0.146021 2.12776e-21)
(0.922489 0.143582 7.67802e-21)
(0.240979 0.150324 0)
(0.250433 0.0825075 0)
(0.999447 0.0194047 2.48062e-20)
(1.01204 0.067855 1.43447e-23)
(1.02261 0.134145 1.74688e-23)
(1.12066 0.314966 -5.80325e-21)
(1.28813 0.299655 0)
(1.01838 0.142155 1.53652e-20)
(0.424741 0.0225078 -4.32626e-22)
(0.272144 0.0193271 1.75343e-22)
(0.375924 0.048417 -1.38789e-22)
(0.726794 0.0702474 0)
(0.133703 0.00951583 -2.98203e-23)
(0.999738 0.0178739 -2.4433e-20)
(1.01428 0.0622496 0)
(1.03474 0.12176 0)
(1.12355 0.265552 1.06342e-20)
(1.30493 0.275476 8.85091e-24)
(1.27022 0.177913 -1.45161e-20)
(0.828272 0.0511818 -1.54902e-20)
(0.581373 0.0533785 4.03361e-21)
(0.202114 0.00144028 1.68632e-22)
(0.324141 0.0206549 -3.61208e-21)
(0.18707 0.00516031 3.3638e-22)
(0.0827424 0.00206346 7.04872e-23)
(0.99996 0.0160941 0)
(1.01599 0.0556981 -2.20735e-20)
(1.04356 0.109 0)
(1.12452 0.223667 -4.74083e-21)
(1.29073 0.246115 0)
(1.35969 0.186377 -2.29142e-20)
(1.15948 0.103388 4.08196e-20)
(0.738338 0.0232877 -3.0805e-20)
(0.465824 0.014748 0)
(0.495653 0.0169007 1.62803e-23)
(0.0585016 -0.000852518 -1.56783e-22)
(0.26854 0.00405108 -2.0325e-22)
(0.139604 0.00727321 6.64183e-22)
(0.159437 0.003944 -1.69781e-22)
(0.0578592 0.00022706 -9.75305e-23)
(1.00012 0.0141159 2.32637e-24)
(1.01734 0.048481 4.14259e-20)
(1.04979 0.0958587 1.45443e-20)
(1.12534 0.1875 0)
(1.27016 0.215116 -3.77503e-24)
(1.37076 0.179955 2.0743e-21)
(1.32176 0.129834 -2.49363e-20)
(1.06895 0.0677941 2.78484e-20)
(0.7021 0.020112 -3.85025e-21)
(0.452288 0.00910489 4.37383e-22)
(0.447771 0.00336379 -4.40297e-22)
(0.254201 0.00303149 -4.12645e-22)
(0.121462 -0.00125012 -6.11543e-22)
(0.119449 0.00210129 1.05282e-21)
(0.0413808 0.000820981 1.50877e-24)
(0.0497324 0.000176935 -1.49451e-24)
(1.00022 0.0119768 0)
(1.01848 0.0407705 -1.94269e-20)
(1.0542 0.0824446 -1.43111e-20)
(1.12603 0.155786 2.03243e-21)
(1.2521 0.185468 0)
(1.35474 0.165765 2.19034e-20)
(1.3744 0.137137 0)
(1.26846 0.0985139 -5.95096e-24)
(1.00714 0.052198 2.81523e-20)
(0.672951 0.0212038 3.86427e-21)
(0.454956 0.00969112 6.66831e-21)
(0.456243 0.00644115 0)
(0.270759 0.00285391 -5.75108e-21)
(0.251914 -0.000600705 -3.1377e-24)
(0.114419 0.00192229 2.87201e-22)
(0.115729 -0.000754815 5.82741e-22)
(0.035536 -0.000506761 8.72238e-23)
(0.0361845 0.0002614 -1.69152e-22)
(1.00027 0.00970324 0)
(1.0195 0.0326723 1.61225e-24)
(1.05741 0.0688378 0)
(1.12662 0.127395 -2.1527e-21)
(1.23827 0.157937 4.54386e-24)
(1.33435 0.149547 0)
(1.37718 0.133945 -5.51958e-24)
(1.35485 0.113497 0)
(1.21985 0.0814662 -2.51643e-20)
(0.9582 0.0466808 0)
(0.641805 0.0211089 1.64862e-20)
(0.439054 0.00828625 -4.24167e-22)
(0.445423 0.0082515 -6.2085e-21)
(0.296314 0.00361816 -1.03525e-21)
(0.293162 0.00179388 -3.384e-22)
(0.151577 0.00413468 1.6733e-20)
(0.131798 -0.0016114 0)
(0.113459 -0.00160344 0)
(0.120479 0.000342977 -2.22809e-21)
(0.0346538 0.000271271 -1.61854e-22)
(0.0352757 -0.000243089 0)
(1.00027 0.00730913 0)
(1.02051 0.0242462 0)
(1.05984 0.0550749 -8.81752e-21)
(1.12736 0.101364 0)
(1.22841 0.132178 0)
(1.3169 0.133324 -3.92081e-20)
(1.36444 0.126683 0)
(1.37692 0.117598 2.27722e-20)
(1.32941 0.100066 0)
(1.17453 0.0732144 2.48719e-20)
(0.916118 0.0437636 0)
(0.346752 0.00539693 -2.0123e-20)
(0.614184 0.020681 -1.61328e-20)
(0.285817 0.0020291 -1.05497e-21)
(0.292457 0.00358679 -3.45984e-22)
(0.181336 0.00176139 0)
(0.180918 0.000944807 3.13335e-21)
(0.172309 -0.000316904 1.90609e-24)
(0.17926 0.00102742 -1.23243e-22)
(0.0674851 0.00386279 -1.61178e-20)
(0.0447141 -0.000526647 1.56981e-21)
(0.0347391 -0.000378065 0)
(0.0387001 -7.51887e-05 7.01924e-24)
(1.00023 0.00479938 4.59396e-25)
(1.02157 0.0155206 0)
(1.06181 0.0411866 8.52536e-21)
(1.12854 0.0768971 0)
(1.22219 0.107777 2.15292e-20)
(1.30387 0.117407 3.96196e-20)
(1.35027 0.118185 -4.48098e-20)
(1.37291 0.116207 -6.91129e-20)
(1.36834 0.108643 0)
(1.29982 0.093101 -2.34382e-20)
(1.13262 0.0687844 0)
(0.879601 0.0423847 2.70471e-20)
(0.328765 0.00514862 1.83243e-20)
(0.127587 0.00188772 3.11152e-21)
(0.130069 -0.000677668 -9.18386e-22)
(0.595985 0.0223329 -3.11517e-20)
(0.172215 0.000444037 1.04497e-21)
(0.174083 0.00115394 5.1203e-22)
(0.179007 0.00112421 -1.26222e-22)
(0.177989 0.00170876 1.144e-21)
(0.104741 0.000513664 0)
(0.104906 0.000315444 -8.62325e-22)
(0.0980224 -0.000300997 3.28641e-21)
(0.103187 0.00026596 -8.43201e-22)
(0.0187255 0.00102462 4.36002e-21)
(1.00016 0.00216623 0)
(1.02277 0.00650459 -1.40749e-20)
(1.06352 0.027175 -6.61827e-21)
(1.13044 0.0532576 -2.89102e-24)
(1.21946 0.0843706 -2.05537e-20)
(1.29537 0.101875 -9.91789e-24)
(1.33895 0.109437 4.43318e-20)
(1.36236 0.112645 1.31808e-22)
(1.37291 0.111119 0)
(1.35314 0.10427 0)
(1.26853 0.0892772 0)
(1.09454 0.0663358 -2.38957e-20)
(0.849088 0.0427426 2.64531e-20)
(0.333292 0.00671155 -1.70758e-23)
(0.123271 0.00167974 0)
(0.121753 -0.000518225 -1.03535e-22)
(0.0291809 0.000420279 1.59719e-22)
(0.029395 3.23891e-05 0)
(0.0299489 8.24209e-05 8.0397e-23)
(0.0300252 -0.000502148 0)
(0.099103 -0.000411098 0)
(0.579066 0.0212346 -1.55443e-20)
(0.101093 0.000635507 -4.37879e-22)
(0.103405 0.00036604 2.16633e-22)
(0.102675 0.000525433 0)
(0.0332484 2.3703e-05 0)
(0.033455 9.04527e-06 0)
(0.0315539 -0.000574589 -2.23207e-21)
(0.0328464 -8.42103e-05 5.66237e-22)
(1.00008 -0.000607172 3.08161e-20)
(1.02416 -0.00278912 2.74874e-20)
(1.06505 0.0130046 6.41035e-21)
(1.13331 0.0297 -2.95185e-24)
(1.22029 0.0616021 9.66035e-24)
(1.29136 0.0867705 -1.64238e-23)
(1.33146 0.100856 4.31887e-20)
(1.35265 0.108473 4.52231e-20)
(1.36584 0.11087 -4.61667e-20)
(1.36618 0.109224 0)
(1.33378 0.102167 2.66776e-24)
(1.23761 0.0868916 2.66077e-24)
(1.06053 0.0652124 0)
(0.821681 0.0407686 3.23034e-24)
(0.331991 0.0074498 1.28184e-20)
(0.159655 0.000882213 -3.72023e-22)
(0.138109 0.00103891 6.76394e-21)
(0.0296743 0.000428275 -1.39738e-21)
(0.0276771 -0.000132347 8.17243e-23)
(0.0279923 2.25417e-05 -7.91231e-23)
(0.0279617 -0.000390012 7.93108e-23)
(0.0311845 -0.00028344 -1.83779e-23)
(0.557261 0.0201808 -1.51758e-20)
(0.0320921 6.80677e-05 1.8207e-23)
(0.0328283 8.73085e-06 -1.54096e-22)
(0.032609 3.69835e-05 9.1191e-24)
(1.00001 -0.00354501 -3.03472e-20)
(1.02582 -0.0123344 -4.07818e-20)
(1.06635 -0.00140612 0)
(1.13738 0.00549395 0)
(1.22481 0.039135 -3.96154e-24)
(1.29194 0.0721327 3.57783e-20)
(1.32802 0.0926361 -4.21397e-20)
(1.3459 0.10433 0)
(1.3573 0.109744 4.55879e-20)
(1.3629 0.111088 2.73813e-24)
(1.35484 0.108886 0)
(1.31271 0.10086 -2.15166e-20)
(1.20825 0.0852781 -2.68068e-24)
(1.0296 0.0626342 2.28568e-20)
(0.793764 0.0387672 0)
(0.317076 0.00700058 1.90326e-20)
(0.157616 0.00300158 0)
(0.160611 0.00114304 6.81981e-21)
(0.0775543 0.000249688 0)
(0.0724638 0.000121731 5.52764e-23)
(0.0497157 0.00291801 -5.67594e-21)
(0.0336235 -0.000600674 1.62001e-21)
(0.535318 0.0190899 0)
(1.00001 -0.00666933 0)
(1.02773 -0.0220645 2.67067e-20)
(1.06723 -0.0161863 0)
(1.14289 -0.020114 0)
(1.23333 0.016674 -6.86537e-24)
(1.29725 0.058022 -7.05103e-20)
(1.32882 0.0849111 4.24382e-20)
(1.34272 0.100499 -1.08887e-23)
(1.35078 0.108541 0)
(1.35565 0.111848 5.53204e-24)
(1.35549 0.112177 -2.73238e-24)
(1.34125 0.108847 2.13126e-20)
(1.2914 0.0997546 0)
(1.18054 0.0826454 -2.10424e-20)
(0.999714 0.0598723 -2.2259e-20)
(0.766995 0.0369488 0)
(0.301352 0.00623273 -7.9748e-24)
(0.147451 0.00276841 -2.85044e-21)
(0.151166 0.000709155 -3.77787e-22)
(0.0740442 0.00102511 1.18287e-22)
(0.0753656 0.000423776 2.37198e-22)
(0.0772067 0.000618496 -2.34866e-22)
(0.077474 0.000141717 -9.32416e-22)
(0.0245211 -4.48609e-05 0)
(0.0232762 -0.000502806 0)
(0.0137766 0.000832703 0)
(0.516581 0.0178709 0)
(1.00016 -0.0099825 -3.24212e-20)
(1.02977 -0.0318607 -2.84581e-20)
(1.06734 -0.0315582 1.06077e-20)
(1.1502 -0.0479812 -6.26558e-21)
(1.2464 -0.00606662 2.23943e-20)
(1.30764 0.0445183 3.4729e-20)
(1.33407 0.0778217 -4.13636e-20)
(1.34339 0.0971593 1.04985e-23)
(1.34743 0.107611 1.08884e-23)
(1.34938 0.112448 0)
(1.3497 0.114086 -2.62633e-24)
(1.3459 0.113141 -4.2525e-20)
(1.3268 0.108574 4.10549e-20)
(1.27035 0.0977076 2.00809e-20)
(1.15359 0.0796533 4.07927e-20)
(0.971378 0.0573353 0)
(0.743218 0.0351088 2.41179e-20)
(0.288735 0.00566981 4.07835e-21)
(0.138855 0.00246645 0)
(0.141705 0.000377075 1.87598e-22)
(0.0685532 0.000941599 0)
(0.0696311 0.000258442 1.1615e-22)
(0.0710956 0.000552097 0)
(0.0718318 -6.22612e-05 -2.34075e-22)
(0.0231361 0.000114534 -6.84573e-23)
(0.02382 -5.59351e-06 -1.02697e-22)
(0.0245226 7.44127e-05 1.02827e-22)
(0.0247105 -4.10905e-06 0)
(0.504019 0.0178284 -2.77511e-20)
(1.00051 -0.0134463 3.19235e-20)
(1.03162 -0.0415664 2.78077e-20)
(1.06626 -0.0479314 9.03223e-22)
(1.16006 -0.0791421 5.95528e-21)
(1.26501 -0.0293463 -6.89676e-20)
(1.32373 0.0317097 0)
(1.3442 0.0715171 9.40956e-25)
(1.34823 0.0944766 0)
(1.34773 0.107156 4.50531e-20)
(1.34587 0.1133 4.4773e-20)
(1.34375 0.115699 0)
(1.3417 0.115774 4.2137e-20)
(1.33544 0.113553 -8.15874e-20)
(1.31196 0.10734 -1.97605e-20)
(1.24926 0.0950878 -1.94267e-20)
(1.12769 0.0767722 0)
(0.94553 0.054875 -2.10517e-20)
(0.723406 0.0341136 2.34317e-20)
(0.286064 0.00599884 0)
(0.132653 0.00238236 -5.92963e-21)
(0.134185 0.000270994 0)
(0.0643002 0.000847456 0)
(0.0651129 0.000180151 -1.14797e-22)
(0.0662372 0.000470616 -1.15121e-22)
(0.0667667 -0.000165904 0)
(0.0212998 0.000104325 0)
(0.0218575 -3.06933e-05 6.74585e-23)
(0.0223741 7.75403e-05 0)
(0.0225005 -4.05789e-05 1.35653e-22)
(0.495337 0.017027 2.70326e-20)
(1.00109 -0.0169667 -3.56131e-20)
(1.03274 -0.0510346 -3.13448e-20)
(1.0638 -0.0659971 -1.08326e-20)
(1.17396 -0.114854 3.76587e-21)
(1.29075 -0.0533605 -6.23304e-21)
(1.34657 0.019721 -7.90628e-20)
(1.3599 0.0661682 -4.36277e-20)
(1.35776 0.0926188 -1.05722e-23)
(1.35211 0.107341 -4.42511e-20)
(1.34585 0.114611 -4.41717e-20)
(1.34014 0.117508 1.03648e-23)
(1.33616 0.11794 -4.19668e-20)
(1.33299 0.116639 -4.39721e-23)
(1.32456 0.112984 -2.43573e-24)
(1.29668 0.105374 0)
(1.22847 0.0923608 0)
(1.10347 0.0739378 0)
(0.922502 0.0529179 0)
(0.706705 0.0325762 2.2748e-20)
(0.290798 0.00595017 -2.96768e-20)
(0.140912 0.00307843 3.54102e-22)
(0.132562 -0.000185546 2.55262e-21)
(0.0611338 0.000796848 -4.49453e-22)
(0.0614456 0.000159786 0)
(0.0623993 0.00045097 0)
(0.0627889 -0.0001659 -1.12492e-22)
(0.0199417 9.47837e-05 0)
(0.0203867 -3.65968e-05 0)
(0.0207788 7.30426e-05 3.3294e-23)
(0.0208184 -5.16473e-05 -3.30892e-23)
(0.484416 0.0163327 2.63669e-20)
(1.00182 -0.0204062 3.5046e-20)
(1.03255 -0.0602023 -2.76453e-21)
(1.06034 -0.0867088 2.75102e-24)
(1.19388 -0.156486 -3.545e-21)
(1.32527 -0.0781437 4.89831e-20)
(1.3771 0.00877801 -7.37461e-21)
(1.38188 0.0619898 4.23169e-20)
(1.37258 0.091783 3.21721e-23)
(1.36109 0.108328 -4.4956e-20)
(1.34986 0.116523 4.43497e-20)
(1.33991 0.119741 4.31535e-20)
(1.33254 0.12022 8.32088e-20)
(1.328 0.119092 4.01133e-20)
(1.32402 0.116478 3.86806e-20)
(1.31328 0.111597 -4.46854e-24)
(1.28124 0.103092 0)
(1.20852 0.0895555 0)
(1.08117 0.0713531 0)
(0.901978 0.0506463 -3.96667e-20)
(0.69031 0.0309605 -2.22241e-20)
(0.286209 0.00618772 -7.02334e-24)
(0.156392 0.00277218 0)
(0.152959 0.000669953 -2.62559e-21)
(0.0777561 0.00265978 -6.92497e-21)
(0.0683153 -0.00027568 0)
(0.0635478 0.000192889 -7.22173e-21)
(0.0609109 -0.000472153 0)
(0.0188552 8.28471e-05 2.59819e-22)
(0.0191821 -3.66771e-05 0)
(0.0195302 7.3616e-05 -3.26444e-23)
(0.0195452 -4.66498e-05 9.75682e-23)
(0.471664 0.0156304 -6.14252e-24)
(1.00256 -0.0235968 0)
(1.0306 -0.0691123 3.28894e-20)
(1.05689 -0.111042 3.6733e-24)
(1.22113 -0.205174 -2.28988e-24)
(1.36859 -0.103488 6.4289e-20)
(1.4144 -0.000656646 8.02282e-20)
(1.40944 0.0593027 0)
(1.39254 0.092219 2.1671e-23)
(1.37489 0.110311 8.8989e-20)
(1.35829 0.119177 -4.36109e-20)
(1.34367 0.122533 -4.25986e-20)
(1.3322 0.122879 -4.12004e-20)
(1.32445 0.121574 -3.97975e-20)
(1.31973 0.119144 -3.83428e-20)
(1.31485 0.115456 0)
(1.30179 0.109756 4.45072e-24)
(1.26609 0.100592 0)
(1.18966 0.086792 0)
(1.06071 0.0685793 7.91733e-23)
(0.882697 0.0482802 0)
(0.673902 0.0295267 0)
(0.277308 0.00600987 7.15148e-24)
(0.152519 0.00306879 9.16714e-24)
(0.154628 0.00116073 -1.30956e-21)
(0.0939849 0.0012834 0)
(0.0936804 0.000619384 1.04089e-22)
(0.0922174 0.000529725 -1.01889e-22)
(0.0884992 -0.00017707 3.23984e-21)
(0.0339785 0.00233769 4.44465e-21)
(0.0229801 -0.000223371 0)
(0.0205388 -8.29121e-05 2.11585e-21)
(0.0189201 -0.00012755 1.30772e-22)
(0.459111 0.0148563 -1.246e-20)
(1.0031 -0.0263343 -1.65204e-22)
(1.02674 -0.0777911 0)
(1.05418 -0.139764 2.06606e-20)
(1.25389 -0.26176 -2.25179e-22)
(1.41589 -0.128169 -6.11757e-20)
(1.45245 -0.00784068 -1.96613e-23)
(1.43764 0.0585871 9.41342e-20)
(1.41457 0.0942266 -2.1652e-23)
(1.39203 0.113499 -1.34211e-19)
(1.37071 0.122727 4.39814e-20)
(1.35153 0.126005 -2.11198e-23)
(1.33576 0.12606 3.99075e-23)
(1.32408 0.12439 3.93514e-20)
(1.31639 0.121722 -3.79087e-20)
(1.31147 0.118293 0)
(1.30562 0.113894 0)
(1.29043 0.107599 -3.39334e-20)
(1.25149 0.0979719 0)
(1.17198 0.0838624 1.67248e-20)
(1.04155 0.065727 1.72416e-20)
(0.864303 0.0461349 0)
(0.658378 0.0281864 0)
(0.268277 0.00554496 1.22109e-20)
(0.146831 0.00270427 0)
(0.148658 0.00102555 -3.29574e-22)
(0.0904429 0.00138206 4.12385e-22)
(0.0914658 0.000771014 4.14252e-22)
(0.0926202 0.000903073 4.1399e-22)
(0.0930914 0.000306585 8.27255e-22)
(0.0534234 0.000368683 -8.65478e-23)
(0.0536259 0.000198725 2.6772e-22)
(0.0524665 0.00014839 0)
(0.049708 -4.2859e-05 2.12357e-23)
(0.0093827 0.000625028 -4.6781e-22)
(0.447923 0.014132 0)
(1.00328 -0.028351 -4.62738e-20)
(1.0207 -0.0857472 1.5623e-22)
(1.05056 -0.173173 -1.98884e-20)
(1.28441 -0.326483 2.17917e-22)
(1.45336 -0.148174 -1.63183e-23)
(1.47559 -0.0115145 -2.34613e-23)
(1.45298 0.0604165 5.80613e-21)
(1.42909 0.0980452 2.19579e-23)
(1.40663 0.118031 8.86548e-20)
(1.38401 0.127285 -1.30969e-19)
(1.36221 0.130262 0)
(1.34297 0.12987 4.04909e-20)
(1.32744 0.127697 -9.31187e-25)
(1.31603 0.124574 7.49517e-20)
(1.30847 0.12092 9.01279e-24)
(1.30334 0.116846 8.2855e-24)
(1.29658 0.111958 3.35195e-20)
(1.27939 0.105217 -3.88028e-24)
(1.23755 0.0951584 -3.18047e-20)
(1.15524 0.0808436 -1.60819e-20)
(1.02345 0.0630709 0)
(0.847181 0.0441789 0)
(0.644433 0.026956 0)
(0.260266 0.00515149 6.81449e-24)
(0.140936 0.0027333 0)
(0.143332 0.000736007 2.88277e-21)
(0.0862717 0.00034093 0)
(0.0872876 0.000432857 0)
(0.0882363 0.00079268 0)
(0.088992 0.000255684 8.15445e-22)
(0.0510895 0.000399515 0)
(0.0520055 0.000275627 -2.6654e-22)
(0.0527359 0.000276863 0)
(0.0529488 0.000140712 1.7565e-22)
(0.0166568 2.27005e-05 1.21808e-22)
(0.0168832 1.71287e-06 -2.11859e-22)
(0.0164645 -6.15746e-05 -2.96274e-23)
(0.0158438 -0.000338944 9.26589e-22)
(0.438937 0.0134972 1.16561e-20)
(1.0032 -0.0292931 9.5371e-20)
(1.01169 -0.0912781 -1.70711e-22)
(1.04027 -0.209097 0)
(1.29582 -0.39504 1.65307e-21)
(1.4553 -0.157878 0)
(1.45422 -0.00933139 -2.87405e-23)
(1.42956 0.0651485 -9.87412e-20)
(1.41621 0.10354 0)
(1.40485 0.123689 -2.27555e-23)
(1.38949 0.132736 8.67993e-20)
(1.37081 0.135293 -3.96442e-23)
(1.35148 0.134356 -3.99473e-20)
(1.33378 0.131582 0)
(1.31913 0.127875 -8.07427e-23)
(1.30819 0.12375 -8.89819e-24)
(1.30082 0.119476 3.4156e-20)
(1.2955 0.114992 -8.2364e-24)
(1.28784 0.109748 3.1751e-20)
(1.26875 0.102615 3.10503e-20)
(1.22419 0.092227 0)
(1.13934 0.0779628 0)
(1.0066 0.0606392 0)
(0.831634 0.0424077 0)
(0.632534 0.0258966 0)
(0.254141 0.00487184 -1.32524e-20)
(0.136018 0.00253887 0)
(0.137792 0.000716794 1.41467e-21)
(0.0643691 0.000512098 2.1981e-22)
(0.0657876 2.93797e-05 -2.12254e-22)
(0.048888 -0.000479929 -8.94157e-23)
(0.0498634 3.28758e-05 -1.19791e-25)
(0.0500323 0.000212141 8.74375e-23)
(0.0503427 0.000123555 -4.38469e-22)
(0.0158089 2.90905e-05 -3.0221e-23)
(0.016209 1.54221e-05 -3.0339e-23)
(0.0164693 1.65396e-05 0)
(0.0164788 -3.9471e-06 -1.21397e-22)
(0.43332 0.0131749 0)
(1.00292 -0.0287465 -4.85346e-20)
(0.999329 -0.0926681 0)
(1.01343 -0.238823 4.24136e-20)
(1.25963 -0.454448 -1.60542e-21)
(1.38337 -0.158425 2.96054e-23)
(1.34323 0.000821145 -1.35732e-19)
(1.32928 0.0721228 8.17614e-23)
(1.34527 0.109609 -5.19955e-23)
(1.36316 0.129417 0)
(1.37021 0.138349 8.95856e-20)
(1.36615 0.1407 -3.9659e-23)
(1.35462 0.13936 -7.95114e-20)
(1.33961 0.136023 3.79498e-20)
(1.32432 0.131693 -7.64097e-23)
(1.31094 0.126981 0)
(1.30064 0.122243 -3.3803e-20)
(1.29354 0.117599 3.60754e-25)
(1.28803 0.112842 -3.14347e-20)
(1.27945 0.10731 3.78295e-24)
(1.25847 0.0998732 2.94806e-20)
(1.21138 0.0893672 0)
(1.12441 0.0752909 0)
(0.991095 0.0584302 0)
(0.817836 0.0408772 -1.65694e-20)
(0.623041 0.0251915 -1.85364e-20)
(0.252623 0.0046646 3.20268e-21)
(0.13271 0.00243078 3.07507e-21)
(0.133504 0.000613365 -3.42393e-22)
(0.0618231 0.00045954 0)
(0.0629187 0.000141393 -1.21443e-21)
(0.0145242 0.000198046 -3.20361e-23)
(0.014669 -0.000120044 6.37737e-23)
(0.014777 -0.000249007 -6.50301e-23)
(0.0148925 0.000150676 -4.85132e-26)
(0.0151102 -0.000217692 5.89885e-23)
(0.015533 -2.98007e-05 2.96452e-23)
(0.0155358 1.37773e-05 -5.9399e-23)
(0.0155695 -5.79724e-06 5.96411e-23)
(0.430789 0.0132801 2.14578e-20)
(1.00197 -0.0265395 0)
(0.984724 -0.0899882 -5.81452e-20)
(0.95816 -0.249323 -6.68014e-20)
(1.13958 -0.498487 -5.34355e-21)
(1.18151 -0.150735 5.03719e-21)
(1.08914 0.0167146 1.56076e-19)
(1.11191 0.078399 -7.11794e-23)
(1.1828 0.113301 -5.92105e-23)
(1.25251 0.132753 4.82887e-23)
(1.30201 0.142282 -9.24542e-20)
(1.32963 0.145287 -4.03831e-23)
(1.33932 0.144206 7.96885e-20)
(1.33663 0.140701 3.76709e-20)
(1.32695 0.135927 -3.59801e-20)
(1.31469 0.130655 0)
(1.30293 0.12536 1.58207e-23)
(1.29346 0.120281 0)
(1.28668 0.115418 3.07762e-20)
(1.28094 0.11047 0)
(1.27137 0.104728 -2.90099e-20)
(1.24854 0.0971511 -3.51721e-24)
(1.1992 0.086671 0)
(1.11049 0.0728366 0)
(0.976986 0.0564854 1.48014e-20)
(0.805832 0.0396819 1.59907e-20)
(0.615572 0.0248083 1.7886e-20)
(0.257894 0.00509988 -3.00354e-20)
(0.135266 0.00226549 1.04678e-20)
(0.132322 0.000355502 -5.34712e-21)
(0.0599806 0.000428364 -2.22615e-21)
(0.0606541 0.000126889 -7.02288e-23)
(0.0138931 0.000188171 -3.13096e-23)
(0.0140157 -0.000125773 3.12041e-23)
(0.0142317 -0.000174471 6.32223e-23)
(0.0142413 0.000149983 0)
(0.427669 0.0130211 0)
(1.00046 -0.0225969 0)
(0.967392 -0.0807046 -5.08003e-21)
(0.944406 -0.182569 2.10634e-20)
(0.921115 -0.182785 2.40803e-20)
(0.970861 -0.574512 9.2697e-21)
(0.866099 -0.563401 1.90753e-20)
(0.870874 -0.308309 2.57648e-20)
(1.07453 -0.205151 1.43325e-19)
(0.912553 -0.483126 5.67877e-23)
(0.789763 -0.138742 -8.91597e-20)
(0.657575 0.032518 0)
(0.635941 0.00912964 -6.91029e-20)
(0.763011 0.0794913 1.53958e-22)
(0.913775 0.109393 1.27985e-22)
(1.05256 0.129625 -5.45896e-23)
(1.16181 0.141323 -3.9214e-24)
(1.23888 0.146697 4.23718e-23)
(1.28659 0.147323 -8.17713e-20)
(1.31047 0.144683 -7.41181e-23)
(1.31729 0.140098 0)
(1.31362 0.134589 3.39839e-20)
(1.3049 0.128841 0)
(1.29511 0.123259 -1.57309e-23)
(1.28665 0.118008 -3.04289e-20)
(1.28019 0.113025 2.92317e-20)
(1.27417 0.107964 -6.79365e-24)
(1.26357 0.102139 2.74672e-20)
(1.23903 0.0945469 0)
(1.18771 0.0841629 0)
(1.0976 0.0706353 0)
(0.964235 0.0548497 -1.41648e-20)
(0.795349 0.0387502 -1.54186e-20)
(0.608456 0.0241677 0)
(0.259642 0.00531453 0)
(0.149075 0.00221569 0)
(0.142516 0.00156639 9.8182e-21)
(0.0628455 4.49268e-05 -1.33679e-20)
(0.0597767 -8.53922e-06 0)
(0.0133686 0.000175669 -3.06919e-23)
(0.0134512 -0.000124011 -2.83576e-25)
(0.013634 -0.000169552 6.18288e-23)
(0.0136572 0.000146355 3.06408e-23)
(0.422125 0.0128525 0)
(0.998787 -0.0169577 -5.11804e-22)
(0.952806 -0.0643237 6.48919e-20)
(0.896463 -0.168269 -2.40692e-20)
(0.874243 -0.151716 -2.91534e-20)
(0.828737 -0.283543 4.63949e-22)
(0.765457 -0.548428 -2.9019e-20)
(0.654444 -0.511261 -8.49538e-22)
(0.835152 -0.616399 1.08219e-21)
(0.594242 -0.189854 2.50167e-20)
(0.263187 -0.101684 -2.0364e-21)
(0.44974 -0.268037 3.4849e-21)
(0.221457 -0.00735315 -4.11289e-21)
(0.275749 0.0264678 -3.29171e-20)
(0.476275 0.0146558 3.71271e-20)
(0.301871 0.0545459 1.11608e-19)
(0.344806 0.0714079 5.11656e-20)
(0.199633 0.0113165 -1.07715e-19)
(0.27852 0.0120708 -1.04081e-22)
(0.573393 0.0922727 -1.85034e-22)
(0.774383 0.115284 -1.44053e-22)
(0.944007 0.131477 5.90719e-23)
(1.07873 0.141583 -9.64388e-23)
(1.17754 0.146108 8.64645e-20)
(1.24291 0.146137 -7.82578e-20)
(1.28033 0.143056 0)
(1.29686 0.138154 -3.40442e-20)
(1.29967 0.132414 -8.12074e-25)
(1.29496 0.126512 0)
(1.28745 0.120836 0)
(1.28013 0.11553 -2.89398e-20)
(1.27403 0.110514 0)
(1.26768 0.105443 -2.71344e-20)
(1.25609 0.0996378 3.27571e-24)
(1.22998 0.0920993 0)
(1.17692 0.0818799 3.06853e-24)
(1.08569 0.0687158 -1.29312e-20)
(0.952678 0.0534635 0)
(0.785601 0.0377443 0)
(0.600463 0.0236515 0)
(0.256168 0.00534515 0)
(0.150302 0.00292479 2.39659e-21)
(0.150521 0.00119032 0)
(0.0834036 0.000559229 2.02955e-21)
(0.0749784 0.000676046 6.29031e-23)
(0.0160733 0.000510519 4.77026e-21)
(0.0141894 -0.000332169 -6.65197e-23)
(0.013141 -0.000198124 -3.03804e-23)
(0.0134354 0.000115697 9.24269e-23)
(0.415227 0.0126637 0)
(0.997114 -0.00998559 6.23808e-20)
(0.942946 -0.0414092 5.25556e-22)
(0.854405 -0.12716 2.95008e-20)
(0.838618 -0.10021 6.10642e-22)
(0.777331 -0.265825 -3.47712e-20)
(0.727947 -0.23489 7.294e-20)
(0.694471 -0.447788 4.19563e-23)
(0.741982 -0.461327 9.21451e-21)
(0.470718 -0.456886 -1.38681e-21)
(0.529042 -0.451244 5.86024e-23)
(0.617316 -0.578962 9.64864e-21)
(0.281654 -0.249371 0)
(0.0709537 0.0212787 -2.14485e-20)
(0.12268 0.0115876 9.2113e-23)
(0.0634047 0.0247709 -9.76675e-20)
(0.11887 0.0472045 9.65461e-20)
(0.261465 0.0599027 0)
(0.128652 0.0266978 -9.15544e-20)
(0.0472627 0.000619678 8.57146e-20)
(0.474892 0.0872291 0)
(0.676085 0.109885 0)
(0.855654 0.126809 0)
(1.00487 0.137504 1.3858e-22)
(1.11935 0.142452 -3.94446e-23)
(1.19944 0.142832 0)
(1.24934 0.140035 0)
(1.27551 0.135313 3.2361e-23)
(1.28512 0.12968 -1.53414e-23)
(1.28481 0.12384 -2.92448e-20)
(1.27986 0.118207 0)
(1.27383 0.112946 0)
(1.26813 0.10799 -6.35783e-24)
(1.26148 0.102997 -6.17415e-24)
(1.24895 0.0972718 0)
(1.2214 0.0898469 0)
(1.16681 0.079847 2.46049e-20)
(1.07468 0.0670394 0)
(0.941929 0.0521386 0)
(0.775847 0.036881 0)
(0.591841 0.0232591 -1.62581e-20)
(0.250937 0.00516042 1.38713e-21)
(0.147256 0.00285374 2.33903e-21)
(0.148689 0.00135961 0)
(0.0837939 0.000897884 -2.24914e-21)
(0.0843774 0.000475946 -2.83881e-22)
(0.0396163 0.000322194 0)
(0.0386584 -1.27314e-05 -1.34332e-21)
(0.0246562 0.00169404 -1.61463e-20)
(0.0362366 0.000134081 0)
(0.407913 0.0124786 9.49855e-21)
(0.995677 -0.00236932 -1.2513e-19)
(0.934013 -0.0132002 -3.04638e-21)
(0.827305 -0.0728505 0)
(0.820222 -0.0517534 -4.31252e-20)
(0.688746 -0.186396 -4.01524e-20)
(0.660527 -0.128509 -6.40287e-22)
(0.637445 -0.423284 -1.19507e-20)
(0.581401 -0.394291 1.06185e-20)
(0.488883 -0.318659 1.41447e-20)
(0.530521 -0.358418 -1.27784e-20)
(0.543298 -0.57002 -2.46882e-22)
(0.412501 -0.452245 1.60554e-21)
(0.0201208 0.00682793 -4.67775e-20)
(-0.00230807 0.0102131 1.43914e-21)
(0.00608214 -0.00330419 -1.74661e-21)
(0.0194313 0.0147082 -5.65581e-20)
(0.0718046 0.0214803 -1.26277e-22)
(0.230094 0.0500556 0)
(0.0457097 0.0135884 1.75778e-20)
(-0.000416829 -0.00937321 -5.47982e-20)
(0.00785477 0.000343841 2.40966e-20)
(0.413642 0.0778919 0)
(0.60381 0.101639 1.26613e-22)
(0.783254 0.11951 1.03651e-22)
(0.939313 0.131102 -4.99008e-23)
(1.06452 0.136978 4.05281e-23)
(1.15662 0.13823 -7.16319e-20)
(1.21781 0.136111 0)
(1.25337 0.131879 2.92653e-23)
(1.26997 0.126574 5.82359e-20)
(1.27437 0.120952 0)
(1.27226 0.115476 0)
(1.26767 0.110353 0)
(1.26245 0.105539 6.30665e-24)
(1.25555 0.100678 2.30765e-25)
(1.24215 0.0950807 0)
(1.21328 0.0878164 0)
(1.15734 0.0780475 0)
(1.06439 0.0655066 0)
(0.931564 0.0509916 0)
(0.766039 0.0362221 3.47681e-23)
(0.583072 0.0229428 -7.86741e-21)
(0.245394 0.00503068 1.34654e-21)
(0.143508 0.00268211 -2.2815e-21)
(0.145099 0.00122395 0)
(0.0815491 0.000831193 -2.20552e-21)
(0.0827158 0.000522588 0)
(0.0388407 0.000436422 0)
(0.0391624 -5.64307e-06 3.38958e-22)
(0.0394734 -0.000111097 6.80273e-22)
(0.0395614 0.000343994 -3.40066e-22)
(0.0122527 4.66891e-05 -2.55013e-23)
(0.0120313 -6.81857e-05 -8.08234e-22)
(0.00676711 0.000471456 6.35365e-21)
(0.0115517 -0.00026707 0)
(0.400628 0.0123585 0)
(0.994528 0.00518773 6.26269e-20)
(0.935672 0.0185407 -7.84997e-20)
(0.752279 0.0619341 3.53884e-20)
(0.641081 -0.0609429 0)
(0.636542 0.0220148 0)
(0.455548 -0.269535 0)
(0.427114 -0.21603 1.83772e-20)
(0.384399 -0.102036 0)
(0.403431 -0.159661 -1.85131e-20)
(0.404563 -0.50189 2.24296e-20)
(0.317075 -0.405041 -1.94201e-20)
(0.208115 -0.329181 -1.84764e-20)
(0.262703 -0.375534 -4.15374e-22)
(0.341149 -0.445282 1.23262e-21)
(-0.0106606 0.00434251 -2.56698e-20)
(0.00195442 0.000112667 0)
(0.00671691 0.00900291 7.40983e-23)
(0.0723369 0.0178168 -5.39625e-20)
(0.0145235 0.000345857 1.811e-20)
(0.204768 0.0431582 2.03644e-19)
(0.0158225 0.00241579 -8.74484e-23)
(0.0115702 0.0068283 1.5967e-22)
(-0.0072917 -0.00233868 1.30453e-20)
(0.000324404 -0.000251195 9.28862e-22)
(0.369567 0.0697459 0)
(0.547479 0.0930536 -1.32658e-22)
(0.722284 0.111187 1.06451e-19)
(0.880549 0.123596 -2.78441e-24)
(1.01286 0.130564 7.77286e-20)
(1.11462 0.132853 1.84975e-24)
(1.18594 0.131617 0)
(1.23051 0.128059 -2.94379e-20)
(1.2542 0.123236 0)
(1.26356 0.117954 0)
(1.26454 0.112736 -2.55449e-20)
(1.2616 0.107833 0)
(1.25697 0.103212 5.78811e-24)
(1.24988 0.0985247 5.84856e-24)
(1.23568 0.0930935 0)
(1.20561 0.0860086 -2.25441e-20)
(1.14843 0.0764353 0)
(1.05458 0.0641841 0)
(0.921469 0.0500969 3.27374e-23)
(0.756374 0.0357255 0)
(0.574452 0.0227272 0)
(0.239892 0.0049838 0)
(0.139753 0.00261328 -2.21894e-21)
(0.141339 0.00117049 0)
(0.0791867 0.000755124 -3.60531e-22)
(0.0803125 0.000451937 2.39321e-22)
(0.0374913 0.000413256 0)
(0.0378234 -2.45008e-05 4.14521e-22)
(0.0383557 -0.000102445 -8.34255e-23)
(0.0382344 0.000337012 7.66601e-25)
(0.0119376 5.71508e-05 0)
(0.0121123 -2.46061e-05 0)
(0.0122042 -3.91799e-05 2.57768e-23)
(0.0122415 4.79405e-05 0)
(0.393708 0.0123149 0)
(0.993748 0.0122229 0)
(0.942219 0.0458875 3.46139e-21)
(0.803608 0.134243 9.49239e-22)
(0.384481 0.261431 -1.98809e-20)
(0.507583 0.349654 -2.12358e-21)
(0.372088 -0.0428523 0)
(0.371293 0.0143665 0)
(0.414143 0.126713 1.89481e-21)
(0.384103 0.0728919 0)
(0.1661 -0.269488 -1.59281e-21)
(0.134883 -0.202742 -1.60979e-21)
(0.0983196 -0.0674745 -2.64398e-20)
(0.112581 -0.134848 2.52099e-20)
(0.155611 -0.267193 -1.36664e-21)
(-0.00944299 -0.000867704 -1.49607e-20)
(-0.00292986 -0.00185868 0)
(0.00313253 2.41644e-05 -1.46759e-22)
(-0.00125193 0.00242512 1.29476e-20)
(-6.77024e-05 3.84329e-07 -1.41936e-20)
(0.0160496 0.00800099 -1.56608e-20)
(0.0659897 0.0153341 -2.03746e-19)
(0.0172634 -1.44651e-05 8.31204e-20)
(0.000913987 0.000227598 -1.27526e-20)
(0.00249603 -0.00193756 -1.99496e-20)
(0.184741 0.0383246 0)
(0.000777001 -0.00112772 -1.6269e-20)
(0.334701 0.0625799 0)
(0.500918 0.0846685 -2.52261e-19)
(0.669417 0.102685 4.9031e-23)
(0.82722 0.115767 8.67795e-20)
(0.96403 0.123698 0)
(1.07354 0.12705 3.33487e-23)
(1.15385 0.126781 0)
(1.20699 0.124007 -5.48762e-23)
(1.23778 0.119779 0)
(1.25233 0.114939 2.29281e-22)
(1.25665 0.110063 0)
(1.25555 0.105437 1.13803e-23)
(1.25164 0.10105 -2.30006e-20)
(1.24444 0.0965677 -5.39232e-24)
(1.22952 0.091322 2.20472e-20)
(1.19834 0.0844082 0)
(1.13993 0.0750529 -2.16825e-20)
(1.04513 0.0631398 2.22705e-20)
(0.911696 0.0494332 0)
(0.747003 0.0353921 0)
(0.566259 0.0226339 0)
(0.234627 0.00498124 0)
(0.13606 0.00258637 0)
(0.137613 0.00117443 -1.09115e-21)
(0.076906 0.000733018 1.16843e-22)
(0.0780036 0.000434248 1.17382e-22)