/*--------------------------------*- C++ -*----------------------------------*\
| =========                 |                                                 |
| \\      /  F ield         | OpenFOAM: The Open Source CFD Toolbox           |
|  \\    /   O peration     | Version:  v1912                                 |
|   \\  /    A nd           | Website:  www.openfoam.com                      |
|    \\/     M anipulation  |                                                 |
\*---------------------------------------------------------------------------*/
FoamFile
{
    version     2.0;
    format      ascii;
    class       volVectorField;
    location    "20";
    object      U;
}
// * * * * * * * * * * * * * * * * * * * * * * * * * * * * * * * * * * * * * //

dimensions      [0 1 -1 0 0 0 0];


internalField   nonuniform List<vector> 
3754
(
(0.994908 0.00194 -2.19395e-22)
(0.995221 0.00796437 0)
(0.94832 0.00675075 -1.68095e-22)
(0.995746 0.0133338 0)
(0.953238 0.0288055 0)
(0.809197 0.0328853 1.74675e-21)
(0.996136 0.0175987 0)
(0.962519 0.0469262 2.85291e-20)
(0.838895 0.094004 -1.7128e-22)
(0.513698 0.0525023 -7.66876e-22)
(0.530844 0.148275 -6.95605e-22)
(0.996364 0.0205987 4.59169e-22)
(0.974225 0.0595212 -2.83817e-20)
(0.889948 0.139826 0)
(0.578281 0.239378 -6.41669e-22)
(0.64667 0.307998 3.41153e-21)
(0.117504 0.105413 6.08492e-23)
(0.111202 0.0374579 -6.24171e-23)
(0.158703 0.229567 0)
(0.132222 0.170417 0)
(0.996536 0.0223979 0)
(0.985409 0.0672754 -1.38095e-21)
(0.932957 0.161582 0)
(0.719936 0.358001 -2.71516e-21)
(0.804039 0.382521 7.27845e-21)
(0.251358 0.316283 -1.08605e-22)
(0.198514 0.280049 -1.27454e-21)
(0.481419 0.481203 1.1126e-21)
(0.347112 0.414264 0)
(0.996739 0.0232891 0)
(0.994291 0.0710341 0)
(0.96319 0.16177 3.89227e-22)
(0.958418 0.449068 3.18134e-20)
(0.666471 0.555989 -9.39835e-22)
(0.579262 0.522747 8.68241e-22)
(0.783465 0.509663 0)
(0.297971 0.333997 3.21944e-21)
(0.133833 0.205357 -1.11762e-20)
(0.996955 0.0234914 0)
(1.00062 0.0716113 2.49491e-22)
(0.98659 0.152316 0)
(1.06855 0.424369 -3.72717e-20)
(0.893115 0.320389 -3.6221e-21)
(1.06836 0.391098 1.44732e-20)
(0.559916 0.404268 -5.6996e-21)
(0.401253 0.346173 5.17779e-21)
(0.759595 0.380312 -1.01418e-20)
(0.535546 0.272704 8.68202e-21)
(0.997137 0.0232205 5.94023e-23)
(1.00493 0.0696156 0)
(1.00586 0.140374 -2.22324e-22)
(1.11296 0.37153 0)
(1.19518 0.312212 -8.82974e-21)
(0.630045 0.0927801 -1.91751e-20)
(0.545362 0.146229 6.50168e-21)
(0.923233 0.145005 2.06773e-20)
(0.241589 0.150717 0)
(0.250034 0.0823079 0)
(0.997241 0.0225492 -1.22333e-19)
(1.00796 0.0656301 -6.36714e-23)
(1.02171 0.127885 -1.24329e-22)
(1.12629 0.313404 4.9152e-20)
(1.29709 0.303077 0)
(1.01922 0.14415 4.80211e-20)
(0.423907 0.0218854 -1.28509e-21)
(0.271258 0.0191107 4.55441e-22)
(0.375282 0.0483621 -3.60072e-22)
(0.727539 0.07081 0)
(0.133298 0.00939948 -7.70058e-23)
(0.997267 0.0215717 1.20626e-19)
(1.01026 0.0600956 0)
(1.03412 0.115023 0)
(1.12959 0.262817 -1.06668e-19)
(1.31622 0.278516 3.55818e-23)
(1.27944 0.182894 -4.50826e-20)
(0.824238 0.0536851 -5.35178e-20)
(0.5788 0.0537222 1.20284e-20)
(0.20177 0.00111969 4.79068e-22)
(0.321366 0.0205883 -1.08395e-20)
(0.186469 0.00465046 9.85864e-22)
(0.082397 0.00198503 1.86636e-22)
(0.997209 0.0203195 0)
(1.0121 0.0534241 1.29903e-19)
(1.04329 0.101573 0)
(1.13111 0.219847 5.79056e-20)
(1.30328 0.248425 0)
(1.37457 0.192466 -8.22961e-20)
(1.16551 0.10985 1.42536e-19)
(0.728257 0.0275193 -1.11827e-19)
(0.460786 0.0162259 0)
(0.49464 0.0164457 5.11052e-23)
(0.0583273 -0.000992154 -4.35253e-22)
(0.266503 0.00279598 -6.76965e-22)
(0.137984 0.00709387 1.99685e-21)
(0.158436 0.00371536 -5.00032e-22)
(0.0575285 4.04627e-05 -2.84932e-22)
(0.99708 0.018859 -1.48952e-23)
(1.01365 0.0458327 -2.54437e-19)
(1.05019 0.0875228 -1.41148e-19)
(1.13255 0.182512 0)
(1.28377 0.216634 -6.31665e-23)
(1.38846 0.186068 1.99496e-21)
(1.33692 0.138999 -8.74636e-20)
(1.06824 0.0766777 9.9523e-20)
(0.682749 0.0257406 -1.39118e-20)
(0.442784 0.0128964 1.58112e-21)
(0.444181 0.00345955 -1.55796e-21)
(0.24989 0.00341093 -1.37672e-21)
(0.120328 -0.00214895 -1.95177e-21)
(0.118399 0.0013046 3.41505e-21)
(0.0407218 0.000739988 4.47876e-24)
(0.0492578 9.57027e-05 -4.43717e-24)
(0.996885 0.0171857 0)
(1.01503 0.037481 1.24729e-19)
(1.05556 0.0728482 1.36322e-19)
(1.13401 0.14937 -1.39349e-19)
(1.26693 0.186076 0)
(1.37425 0.171526 8.41951e-20)
(1.39507 0.147441 0)
(1.27955 0.111692 -2.13488e-23)
(0.996153 0.0631531 1.00955e-19)
(0.639055 0.0287 1.37784e-20)
(0.436831 0.013855 2.41436e-20)
(0.445848 0.00765013 0)
(0.262741 0.00530736 -2.09799e-20)
(0.247661 -0.00152167 -1.07878e-23)
(0.112005 0.00193933 9.74596e-22)
(0.11432 -0.00109807 1.94507e-21)
(0.0350024 -0.000833799 2.76256e-22)
(0.0356231 -4.71458e-05 -5.50583e-22)
(0.996644 0.0153308 0)
(1.01636 0.0284575 -1.54984e-23)
(1.05994 0.0576493 0)
(1.13565 0.119296 1.45737e-19)
(1.25441 0.157417 7.0792e-23)
(1.35569 0.154827 0)
(1.40099 0.14442 -2.06518e-23)
(1.37491 0.129257 0)
(1.22244 0.098033 -8.91258e-20)
(0.932771 0.0583123 0)
(0.587905 0.0300032 5.90403e-20)
(0.410446 0.0167021 -1.51515e-21)
(0.424864 0.00917275 -2.21397e-20)
(0.280438 0.00622878 -3.72673e-21)
(0.282845 0.00204033 -1.21348e-21)
(0.145925 0.00596154 6.08436e-20)
(0.128441 -0.000573019 0)
(0.111221 -0.00256285 0)
(0.117968 0.000105972 -7.85564e-21)
(0.0336475 0.000204789 -5.49455e-22)
(0.0346229 -0.000393304 0)
(0.996362 0.0132739 0)
(1.01771 0.0188092 0)
(1.06355 0.0419341 1.31391e-19)
(1.13797 0.0912772 0)
(1.24609 0.130149 0)
(1.34033 0.138011 -1.74779e-19)
(1.39073 0.136965 0)
(1.40232 0.134343 8.42955e-20)
(1.34446 0.120798 0)
(1.16426 0.0907556 8.76805e-20)
(0.872552 0.055646 0)
(0.295555 0.0123462 -7.24252e-20)
(0.545222 0.0300383 -5.84861e-20)
(0.261976 0.00893049 -3.77518e-21)
(0.274456 0.00367101 -1.24146e-21)
(0.170035 0.00392647 0)
(0.171267 0.00148921 1.11978e-20)
(0.16578 -0.000595336 6.82585e-24)
(0.171301 0.00125132 -4.41571e-22)
(0.0644248 0.00498216 -5.86072e-20)
(0.0429352 0.000189014 5.52706e-21)
(0.0337019 -0.000734578 0)
(0.0373719 -9.68836e-05 2.16684e-23)
(0.996061 0.0110302 -3.63134e-24)
(1.01919 0.00854598 0)
(1.06679 0.0257904 -1.26729e-19)
(1.14109 0.0645341 0)
(1.24185 0.103818 1.6241e-19)
(1.3297 0.121181 1.76766e-19)
(1.37924 0.128249 -1.78132e-19)
(1.40163 0.133101 -2.567e-19)
(1.39165 0.131578 0)
(1.3053 0.116178 -8.16111e-20)
(1.10497 0.0861494 0)
(0.81575 0.055438 9.6237e-20)
(0.269098 0.0113254 6.7047e-20)
(0.106263 0.00657381 1.09433e-20)
(0.111117 0.00109847 -3.21724e-21)
(0.509939 0.032872 -1.14008e-19)
(0.156397 0.00678852 3.70346e-21)
(0.159244 0.00362624 1.81207e-21)
(0.1676 5.85447e-05 -4.48265e-22)
(0.165567 0.00267213 4.06454e-21)
(0.0971121 0.00208138 0)
(0.0980272 0.000472091 -3.07844e-21)
(0.093688 -0.000779283 1.15907e-20)
(0.0973285 0.000260079 -3.01389e-21)
(0.0178784 0.00110571 1.58422e-20)
(0.995762 0.00851431 0)
(1.02089 -0.00234518 1.16475e-19)
(1.0697 0.00922343 1.24398e-19)
(1.14505 0.0383412 -3.51859e-23)
(1.24166 0.0781989 -1.5448e-19)
(1.3239 0.104352 -4.25205e-23)
(1.37096 0.119198 1.77615e-19)
(1.39395 0.129521 -2.7999e-22)
(1.40077 0.134965 0)
(1.3704 0.131218 0)
(1.25957 0.112977 0)
(1.04504 0.08481 -8.34039e-20)
(0.762361 0.0582599 9.4003e-20)
(0.264258 0.0124016 -6.31529e-23)
(0.0963366 0.00663694 0)
(0.0989021 -0.000457626 -3.60147e-22)
(0.0237133 0.00132381 5.624e-22)
(0.0259377 0.000703352 0)
(0.027196 0.000825706 2.80979e-22)
(0.0258274 0.000399067 0)
(0.0881188 0.00385211 0)
(0.475359 0.0320263 -5.57454e-20)
(0.0907098 0.0019333 -1.54852e-21)
(0.0957888 -0.000617398 7.6994e-22)
(0.0938435 0.00105387 0)
(0.0302595 0.000567346 0)
(0.0306145 9.14386e-05 0)
(0.0297972 -0.000985502 -7.86528e-21)
(0.0304568 -0.00015276 2.01997e-21)
(0.99553 0.00567463 -2.32961e-19)
(1.02293 -0.0139014 -2.27067e-19)
(1.07253 -0.00781179 -1.20176e-19)
(1.15007 0.0120185 -3.38225e-23)
(1.24515 0.0531061 7.23155e-23)
(1.32276 0.0876779 -7.96907e-23)
(1.36665 0.110134 1.74093e-19)
(1.3873 0.125469 1.75226e-19)
(1.39666 0.135226 -1.6836e-19)
(1.39007 0.13854 0)
(1.3409 0.131334 9.066e-24)
(1.20925 0.112093 9.09777e-24)
(0.986162 0.0864749 0)
(0.712809 0.0577539 1.15104e-23)
(0.251175 0.0116914 4.58914e-20)
(0.124007 0.00594805 -1.31263e-21)
(0.108719 0.00123276 2.38222e-20)
(0.0221282 0.00202864 -4.84561e-21)
(0.0227758 0.000562825 2.83973e-22)
(0.0238011 0.000545875 -2.74882e-22)
(0.0222582 -0.00023443 2.75051e-22)
(0.0264195 0.00123719 -6.47292e-23)
(0.439081 0.0292149 -5.49983e-20)
(0.0278232 0.000528561 6.41294e-23)
(0.0298239 -0.000398612 -5.47069e-22)
(0.0289776 0.000159011 3.2371e-23)
(0.995432 0.00238466 2.29184e-19)
(1.02535 -0.0261229 3.32418e-19)
(1.07505 -0.0254722 0)
(1.15646 -0.0152408 0)
(1.25276 0.0282298 -3.94529e-24)
(1.3265 0.0713681 1.61773e-19)
(1.36637 0.101234 -1.6954e-19)
(1.38378 0.121515 0)
(1.39076 0.134757 1.70393e-19)
(1.39028 0.142109 9.56465e-24)
(1.37202 0.142161 0)
(1.30534 0.132617 -7.29134e-20)
(1.15699 0.113459 -9.22701e-24)
(0.930984 0.0859989 7.95487e-20)
(0.666119 0.0546781 0)
(0.227262 0.00956919 6.86087e-20)
(0.115326 0.0060725 0)
(0.121716 0.000186934 2.34178e-20)
(0.0591726 0.00277675 0)
(0.0584937 0.001364 1.92195e-22)
(0.0407922 0.00362913 -1.98639e-20)
(0.0247767 0.00026793 5.61649e-21)
(0.405584 0.0259904 0)
(0.995561 -0.0014048 0)
(1.02815 -0.03909 -2.15848e-19)
(1.07719 -0.0439216 0)
(1.16454 -0.0442323 0)
(1.26482 0.00328547 -3.55528e-23)
(1.33554 0.0555831 -3.1363e-19)
(1.37067 0.0926971 1.67523e-19)
(1.38388 0.117737 -4.11694e-23)
(1.38713 0.134334 0)
(1.3854 0.144561 2.01706e-23)
(1.37775 0.148695 -9.42719e-24)
(1.34872 0.14609 7.15471e-20)
(1.26588 0.135168 0)
(1.10577 0.113396 -7.15841e-20)
(0.879601 0.0829466 -7.81225e-20)
(0.623722 0.050484 0)
(0.204885 0.00768638 -2.89846e-23)
(0.101957 0.00508855 -9.80914e-21)
(0.107984 -0.00117353 -1.29943e-21)
(0.0528771 0.0025833 4.03736e-22)
(0.0568765 0.000676954 8.09459e-22)
(0.059419 0.000782349 -8.01478e-22)
(0.0581156 -0.00087769 -3.17638e-21)
(0.0178863 0.000618814 0)
(0.0186586 -0.000253469 0)
(0.0115782 0.000915679 0)
(0.376616 0.0234403 0)
(0.996008 -0.00587549 2.22883e-19)
(1.03112 -0.0527525 2.10258e-19)
(1.07851 -0.0635152 -2.21175e-19)
(1.17503 -0.0757857 -2.26672e-19)
(1.2824 -0.021942 1.3509e-19)
(1.35055 0.0405124 1.52062e-19)
(1.38011 0.0847678 -1.62912e-19)
(1.38824 0.114276 4.11253e-23)
(1.38695 0.134081 4.17107e-23)
(1.38153 0.146849 0)
(1.37463 0.153601 -9.17765e-24)
(1.36141 0.154892 -1.43938e-19)
(1.32143 0.150519 1.37156e-19)
(1.22477 0.136475 6.74836e-20)
(1.05666 0.110904 1.40041e-19)
(0.832556 0.0783266 0)
(0.586457 0.0463006 8.87245e-20)
(0.185599 0.00696062 1.50305e-20)
(0.0910988 0.004375 0)
(0.0961151 -0.00200841 6.44147e-22)
(0.0463745 0.00215382 0)
(0.0498161 0.000207863 3.96111e-22)
(0.0516831 0.000358544 0)
(0.0506132 -0.00147609 -7.93636e-22)
(0.0156365 0.000521213 -2.33037e-22)
(0.0176791 1.9692e-05 -3.48857e-22)
(0.0185995 7.79148e-05 3.49872e-22)
(0.0176454 -0.00032252 0)
(0.354007 0.0222618 -1.05859e-19)
(0.99683 -0.0110238 -2.19014e-19)
(1.03389 -0.0671671 -2.0478e-19)
(1.07905 -0.084798 -1.72081e-22)
(1.18929 -0.110867 2.14656e-19)
(1.30696 -0.0475489 -3.9127e-19)
(1.37268 0.0263895 0)
(1.3956 0.0777833 4.90525e-25)
(1.39756 0.111416 0)
(1.39097 0.13409 1.6784e-19)
(1.38079 0.149142 1.66428e-19)
(1.37088 0.158082 0)
(1.36107 0.161601 1.45011e-19)
(1.34206 0.16099 -2.73116e-19)
(1.29127 0.153767 -6.52925e-20)
(1.18326 0.135427 -6.51242e-20)
(1.01038 0.106518 0)
(0.79026 0.0730092 -7.57796e-20)
(0.554603 0.0428705 8.7236e-20)
(0.174803 0.00748059 0)
(0.0820207 0.00477615 -2.04002e-20)
(0.0862245 -0.00237891 0)
(0.0413791 0.00185409 0)
(0.0444824 -0.000126076 -3.89692e-22)
(0.0459794 7.03206e-05 -3.89826e-22)
(0.0447446 -0.00175381 0)
(0.0135637 0.000407528 0)
(0.0153345 -8.83839e-05 2.28289e-22)
(0.0159672 -1.01419e-05 0)
(0.0149693 -0.000461584 4.58368e-22)
(0.334645 0.0203847 1.02027e-19)
(0.997988 -0.0168954 2.14349e-19)
(1.03596 -0.0822926 1.98917e-19)
(1.0791 -0.108801 2.06286e-19)
(1.20961 -0.150697 2.0199e-19)
(1.34074 -0.0734162 -7.32773e-21)
(1.40343 0.0135959 -2.986e-19)
(1.41824 0.0721461 -1.59598e-19)
(1.41285 0.109546 -4.00589e-23)
(1.39997 0.134654 -1.64702e-19)
(1.38434 0.151637 -1.64006e-19)
(1.36968 0.162429 3.78043e-23)
(1.35795 0.167671 -1.47528e-19)
(1.34549 0.168915 -8.28308e-22)
(1.31997 0.166038 -8.13681e-24)
(1.25907 0.154744 0)
(1.14238 0.132103 0)
(0.967454 0.100732 0)
(0.752584 0.0675638 0)
(0.526495 0.038979 8.44162e-20)
(0.170389 0.00691528 -1.08807e-19)
(0.084155 0.0070002 1.23099e-21)
(0.0806658 -0.0021564 8.72672e-21)
(0.0371218 0.00217796 -1.5203e-21)
(0.0399403 -7.30541e-06 0)
(0.041394 3.48565e-05 0)
(0.0400201 -0.00190873 -3.79239e-22)
(0.0119985 0.000327167 0)
(0.0136189 -0.000172778 0)
(0.0141133 -7.62301e-05 1.12376e-22)
(0.013105 -0.000517662 -1.11684e-22)
(0.31365 0.0181573 9.72971e-20)
(0.999309 -0.0233493 -2.10302e-19)
(1.03694 -0.0983891 -8.31635e-22)
(1.07988 -0.136665 -9.99938e-23)
(1.23833 -0.196924 -1.89242e-19)
(1.38515 -0.0994833 2.42506e-19)
(1.44346 0.00272507 -8.52768e-21)
(1.44875 0.0683689 1.54187e-19)
(1.43492 0.109208 1.17118e-22)
(1.41492 0.136272 -1.64289e-19)
(1.39296 0.154664 1.63817e-19)
(1.37263 0.166899 1.60119e-19)
(1.35665 0.173614 2.98483e-19)
(1.34361 0.176002 1.39333e-19)
(1.32782 0.175224 1.31682e-19)
(1.29545 0.168996 -1.48205e-23)
(1.22575 0.153102 0)
(1.10286 0.126683 0)
(0.927825 0.0939548 0)
(0.718749 0.061487 -1.43749e-19)
(0.4998 0.0348455 -8.09123e-20)
(0.157279 0.00563182 -2.46805e-23)
(0.0926233 0.00585237 0)
(0.0926747 -0.00184749 -8.82167e-21)
(0.0470204 0.00529934 -2.37023e-20)
(0.0428637 0.00133624 0)
(0.0402078 0.000786555 -2.43543e-20)
(0.0366319 -0.00177413 0)
(0.0105661 0.000439836 8.75015e-22)
(0.0121524 -0.000118701 0)
(0.0126305 -7.66341e-05 -1.09768e-22)
(0.0116284 -0.000552676 3.2781e-22)
(0.293692 0.015815 -2.17466e-23)
(1.00059 -0.0303614 0)
(1.03662 -0.115401 -1.89096e-19)
(1.08236 -0.169583 -9.5723e-23)
(1.27599 -0.251289 8.32097e-23)
(1.4389 -0.125709 2.49333e-19)
(1.49037 -0.00565088 2.82101e-19)
(1.48527 0.0671387 0)
(1.46312 0.111044 7.80311e-23)
(1.43595 0.139518 3.22852e-19)
(1.40737 0.158732 -1.60767e-19)
(1.3807 0.17182 -1.59518e-19)
(1.35923 0.179761 -1.50471e-19)
(1.34251 0.183024 -1.42067e-19)
(1.32767 0.183147 -1.32378e-19)
(1.30799 0.17963 0)
(1.26901 0.16916 1.49384e-23)
(1.19195 0.148712 0)
(1.06483 0.119443 0)
(0.891177 0.0861555 2.65329e-22)
(0.687526 0.0551656 0)
(0.475412 0.0305697 0)
(0.142737 0.00556635 2.51974e-23)
(0.0864761 0.0055922 3.30938e-23)
(0.0897887 -0.00430071 -4.27649e-21)
(0.0573831 0.00350087 0)
(0.0597606 0.000596984 3.44202e-22)
(0.0595029 0.000600898 -3.37755e-22)
(0.0549824 -0.00173023 1.07041e-20)
(0.0195401 0.00367841 1.50571e-20)
(0.0134097 0.00092838 0)
(0.0123533 0.0003308 7.08009e-21)
(0.0104132 -0.000446672 4.37167e-22)
(0.276822 0.0132984 -4.3507e-20)
(1.00155 -0.0376253 7.72743e-22)
(1.03502 -0.133359 0)
(1.08652 -0.207947 -1.77085e-19)
(1.31852 -0.315023 1.653e-19)
(1.4945 -0.15131 -2.36649e-19)
(1.53537 -0.0109498 -6.11773e-23)
(1.52053 0.0690021 3.0672e-19)
(1.49275 0.115606 -7.52725e-23)
(1.46086 0.144994 -4.79206e-19)
(1.42692 0.164359 1.60767e-19)
(1.3943 0.177749 -7.90671e-23)
(1.36668 0.186364 1.49103e-22)
(1.34486 0.190429 1.42733e-19)
(1.32692 0.190856 -1.34936e-19)
(1.30989 0.188437 0)
(1.28619 0.181216 0)
(1.24103 0.166088 -1.14325e-19)
(1.1579 0.14176 0)
(1.02829 0.110651 5.77413e-20)
(0.856956 0.0779024 6.03711e-20)
(0.659098 0.0488426 0)
(0.454531 0.0260755 0)
(0.129264 0.00515862 4.12168e-20)
(0.0789332 0.00770392 0)
(0.0819315 -0.004758 -1.04801e-21)
(0.0543131 0.00347014 1.31969e-21)
(0.0578163 3.33091e-05 1.33051e-21)
(0.0590921 -0.000902948 1.33638e-21)
(0.0566775 -0.00410564 2.66441e-21)
(0.0313401 0.00160035 -2.82778e-22)
(0.0336918 0.000133109 8.80974e-22)
(0.0333464 -1.40036e-05 0)
(0.0300959 -0.000909927 7.08204e-23)
(0.00550239 0.000841459 -1.55892e-21)
(0.263648 0.00991551 0)
(1.00208 -0.0448856 1.91531e-19)
(1.03169 -0.151105 -6.9563e-22)
(1.0888 -0.251473 1.69404e-19)
(1.35583 -0.387367 -1.53979e-19)
(1.53561 -0.172535 -9.4572e-23)
(1.56009 -0.0124588 -7.01762e-23)
(1.53835 0.0742393 6.7987e-21)
(1.5121 0.123023 7.48311e-23)
(1.48227 0.153022 3.1483e-19)
(1.44787 0.172054 -4.7635e-19)
(1.41192 0.185074 0)
(1.37903 0.193893 1.54516e-19)
(1.3517 0.198393 -3.0669e-24)
(1.32895 0.19903 2.7194e-19)
(1.30953 0.196644 3.1933e-23)
(1.2903 0.190873 2.83181e-23)
(1.26253 0.179292 1.1319e-19)
(1.21165 0.159856 -1.29166e-23)
(1.12378 0.1327 -1.07846e-19)
(0.993199 0.10103 -5.51584e-20)
(0.825272 0.0696587 0)
(0.634112 0.0424564 0)
(0.437734 0.0212073 0)
(0.11936 0.00244505 2.27195e-23)
(0.0651483 0.00684856 0)
(0.0689154 -0.00272668 8.94601e-21)
(0.0499512 0.00538094 0)
(0.053178 0.000995512 0)
(0.054802 -0.000832944 0)
(0.0529559 -0.00455568 2.55192e-21)
(0.0296286 0.00162535 0)
(0.0326222 -0.000189894 -8.53044e-22)
(0.0332659 -0.000930136 0)
(0.0311941 -0.00259956 5.67776e-22)
(0.00858339 0.000442596 3.97265e-22)
(0.00974714 1.35028e-05 -6.93413e-22)
(0.00973211 -0.000132052 -9.72473e-23)
(0.00876719 -0.000820768 3.08987e-21)
(0.254972 0.00636452 3.82102e-20)
(1.00235 -0.0514831 -3.74056e-19)
(1.0252 -0.166297 6.72918e-22)
(1.08121 -0.297201 0)
(1.36888 -0.462443 -1.48907e-19)
(1.53477 -0.183666 0)
(1.53359 -0.00817812 -8.2199e-23)
(1.51146 0.0824779 -3.09899e-19)
(1.49989 0.132695 0)
(1.48533 0.163146 -7.8853e-23)
(1.46085 0.181803 3.14813e-19)
(1.42864 0.194095 -1.49712e-22)
(1.39432 0.202567 -1.53788e-19)
(1.36264 0.207283 0)
(1.3349 0.207831 6.37335e-22)
(1.31099 0.205142 -3.22412e-23)
(1.29035 0.199437 1.2032e-19)
(1.26894 0.189657 -2.8459e-23)
(1.23702 0.173839 1.07161e-19)
(1.18107 0.151024 1.04253e-19)
(1.08988 0.122385 0)
(0.959852 0.0912513 0)
(0.796583 0.0614509 0)
(0.613042 0.0359129 0)
(0.425834 0.0162124 0)
(0.112123 0.000313146 -4.22804e-20)
(0.0579747 0.00537366 0)
(0.0617798 -0.00512815 4.25173e-21)
(0.0246185 0.00249432 6.69532e-22)
(0.0267829 -0.00151827 -6.44897e-22)
(0.0269225 0.00261533 -2.75567e-22)
(0.029999 0.000381445 -2.15116e-24)
(0.0308516 -0.000807601 2.72647e-22)
(0.029064 -0.00275742 -1.37338e-21)
(0.00791731 0.000433994 -9.59751e-23)
(0.00923174 -0.000129259 -9.69447e-23)
(0.0094739 -0.000383612 0)
(0.00853656 -0.000883277 -3.91076e-22)
(0.251737 0.00235233 0)
(1.00267 -0.0565698 1.80669e-19)
(1.01341 -0.176375 0)
(1.05046 -0.334596 -1.43656e-19)
(1.32775 -0.527291 1.44835e-19)
(1.45154 -0.184264 7.38165e-23)
(1.41053 0.0039627 -3.47838e-19)
(1.40233 0.092498 2.45096e-22)
(1.42572 0.142751 -1.65376e-22)
(1.44661 0.173608 0)
(1.44929 0.192578 3.20615e-19)
(1.43393 0.204489 -1.49929e-22)
(1.40678 0.212546 -3.0885e-19)
(1.37527 0.217097 1.47138e-19)
(1.34406 0.217539 6.5649e-22)
(1.31558 0.214174 0)
(1.291 0.207919 -1.20847e-19)
(1.26947 0.198469 1.87205e-24)
(1.24576 0.184731 -1.06763e-19)
(1.20978 0.165469 1.28365e-23)
(1.14967 0.140559 9.78417e-20)
(1.0567 0.111633 0)
(0.928731 0.0815309 0)
(0.771254 0.0532447 0)
(0.5964 0.0293546 -5.33333e-20)
(0.418334 0.0110076 -5.76258e-20)
(0.110802 -0.00235245 9.94204e-21)
(0.053371 0.00444683 8.90416e-21)
(0.0558372 -0.00591978 -9.92185e-22)
(0.0203234 0.00177809 0)
(0.0226268 -0.00284261 -3.61004e-21)
(0.00485378 0.000895071 -9.55486e-23)
(0.00588548 -2.71781e-05 1.89822e-22)
(0.00558798 -0.000918741 -1.96239e-22)
(0.00628535 -1.45666e-05 -6.10206e-25)
(0.00671938 0.00070604 1.79807e-22)
(0.00820067 2.30723e-05 9.1992e-23)
(0.00856973 -0.00034934 -1.84492e-22)
(0.00773971 -0.00095565 1.86476e-22)
(0.252173 -0.000738538 6.43061e-20)
(1.00235 -0.0592109 0)
(0.99539 -0.181476 1.54653e-19)
(0.986828 -0.347296 1.96631e-19)
(1.19709 -0.575467 3.27194e-20)
(1.22848 -0.172362 4.88019e-21)
(1.13499 0.0230914 4.02301e-19)
(1.17111 0.101294 -1.97194e-22)
(1.25709 0.149663 -1.83105e-22)
(1.33778 0.18116 1.65099e-22)
(1.39005 0.20178 -3.29172e-19)
(1.41079 0.214905 -1.52192e-22)
(1.40545 0.223212 3.08568e-19)
(1.38341 0.227777 1.48942e-19)
(1.35366 0.227938 -1.38108e-19)
(1.32248 0.223964 0)
(1.29382 0.216725 5.70796e-23)
(1.26927 0.206776 0)
(1.24699 0.193737 1.05607e-19)
(1.22082 0.176772 0)
(1.18117 0.155191 -9.59356e-20)
(1.11809 0.129392 -1.17431e-23)
(1.02485 0.100878 0)
(0.900175 0.0719288 0)
(0.749596 0.0451786 4.75799e-20)
(0.583448 0.0228987 4.97408e-20)
(0.413174 0.0066767 5.31525e-20)
(0.118809 -0.00410595 -8.86397e-20)
(0.0540942 0.00350015 2.99902e-20)
(0.0533999 -0.0066983 -1.50831e-20)
(0.0176667 0.0014814 -6.35261e-21)
(0.0192241 -0.00304071 -2.02555e-22)
(0.00381098 0.00082331 -9.04796e-23)
(0.00466185 -0.000206194 9.01774e-23)
(0.00443922 -0.0012102 1.85051e-22)
(0.0051026 -0.000220032 0)
(0.252285 -0.00222566 0)
(1.00141 -0.0587945 0)
(0.971908 -0.177948 -5.42553e-21)
(0.970141 -0.275942 -5.71189e-20)
(0.944089 -0.277209 -4.89429e-20)
(1.0255 -0.681633 -5.68136e-20)
(0.910953 -0.665507 -4.26717e-20)
(0.900716 -0.413339 -5.16066e-20)
(1.12403 -0.232384 3.24992e-19)
(0.958852 -0.532588 2.17456e-21)
(0.823511 -0.154977 -2.00625e-19)
(0.671003 0.0439439 0)
(0.647672 0.00635421 -1.51553e-19)
(0.799947 0.104899 4.59559e-22)
(0.977775 0.148155 4.08715e-22)
(1.13751 0.18127 -1.84186e-22)
(1.25952 0.205332 -8.22696e-24)
(1.3378 0.222308 1.58261e-22)
(1.37379 0.232945 -3.16386e-19)
(1.37626 0.238357 1.36314e-21)
(1.35741 0.23869 0)
(1.32863 0.234205 1.29916e-19)
(1.29802 0.226046 0)
(1.27017 0.215149 -5.72027e-23)
(1.24612 0.201902 -1.05757e-19)
(1.223 0.185983 9.83944e-20)
(1.19439 0.166803 -2.19515e-23)
(1.15176 0.144024 8.88184e-20)
(1.08699 0.118128 0)
(0.994707 0.0902997 0)
(0.874386 0.0626122 0)
(0.731041 0.0375152 -4.35785e-20)
(0.572671 0.0173739 -4.60065e-20)
(0.408763 0.00379686 0)
(0.123336 -0.00425488 0)
(0.0680908 0.00248811 0)
(0.0636288 -0.00734033 2.66772e-20)
(0.0176461 0.00153061 -3.73132e-20)
(0.0172696 -0.00308895 0)
(0.00317337 0.000774123 -8.57303e-23)
(0.00388602 -0.000249311 -1.37102e-24)
(0.00355527 -0.00125051 1.75142e-22)
(0.00423462 -0.000249523 8.61559e-23)
(0.252793 -0.00329718 0)
(1.00003 -0.0550999 1.24533e-21)
(0.949641 -0.165597 -1.52492e-19)
(0.916255 -0.265103 4.88568e-20)
(0.891456 -0.251271 4.50082e-20)
(0.852672 -0.390956 -6.229e-22)
(0.802558 -0.652927 5.92524e-20)
(0.693597 -0.573062 2.12353e-20)
(0.88167 -0.687328 -2.69019e-20)
(0.620733 -0.204967 5.7099e-20)
(0.277286 -0.110562 -4.97844e-21)
(0.4759 -0.292737 1.1771e-20)
(0.229417 -0.00920822 -8.40118e-21)
(0.280018 0.0265547 -6.99089e-20)
(0.48658 0.0122796 7.85731e-20)
(0.300007 0.0687742 2.73055e-19)
(0.352499 0.0961527 1.50272e-19)
(0.196749 0.0245684 -2.73118e-19)
(0.277185 0.0128353 -1.02207e-22)
(0.618114 0.132215 -5.52901e-22)
(0.852594 0.168904 -4.60232e-22)
(1.0474 0.19859 1.99467e-22)
(1.19637 0.22238 -3.48976e-22)
(1.29266 0.238425 3.29323e-19)
(1.33837 0.246831 -3.03319e-19)
(1.34499 0.24849 0)
(1.32793 0.24431 -1.30231e-19)
(1.30049 0.235589 -4.58991e-24)
(1.27151 0.223787 0)
(1.24523 0.209866 0)
(1.22176 0.194126 -9.85462e-20)
(1.19768 0.176265 0)
(1.1669 0.155857 -8.78508e-20)
(1.12217 0.132666 1.06403e-23)
(1.05681 0.107085 0)
(0.966491 0.080158 9.46337e-24)
(0.851131 0.0539296 -3.92049e-20)
(0.71461 0.0308961 0)
(0.563206 0.013292 0)
(0.40538 0.00191584 0)
(0.126065 -0.00482957 0)
(0.0713409 0.00190965 6.18191e-21)
(0.0708023 -0.00748537 0)
(0.0356652 0.00117293 5.3945e-21)
(0.0303452 -0.00352413 1.71974e-22)
(0.00247532 0.00285417 1.29442e-20)
(0.00311796 -3.00955e-05 -1.81189e-22)
(0.00290856 -0.00124505 -8.31656e-23)
(0.0035387 -0.000159378 2.52084e-22)
(0.254458 -0.00391848 0)
(0.998308 -0.048935 -1.63903e-19)
(0.934572 -0.143623 -1.23124e-21)
(0.868255 -0.229715 -4.56492e-20)
(0.84855 -0.205878 -5.8639e-22)
(0.795114 -0.374243 3.68782e-20)
(0.738706 -0.345253 -7.03746e-20)
(0.718612 -0.550815 3.76338e-23)
(0.771564 -0.566543 -1.61632e-20)
(0.501446 -0.515739 2.27684e-20)
(0.56061 -0.508086 -6.13969e-22)
(0.654146 -0.68262 -1.60186e-20)
(0.301929 -0.272856 0)
(0.0702475 0.0224846 -4.4971e-20)
(0.117804 0.0130546 9.20451e-23)
(0.0515935 0.0344919 -2.38124e-19)
(0.121068 0.0701325 2.68544e-19)
(0.279632 0.0952475 0)
(0.136375 0.0441526 -2.70174e-19)
(0.0411298 0.00855167 2.22268e-19)
(0.535511 0.140007 0)
(0.774118 0.177842 0)
(0.984126 0.210635 0)
(1.14769 0.235063 5.12624e-22)
(1.253 0.249574 -1.48612e-22)
(1.3024 0.254925 0)
(1.31074 0.252722 0)
(1.29546 0.244583 1.22383e-22)
(1.27033 0.232447 -5.67969e-23)
(1.24385 0.217899 -1.03013e-19)
(1.21939 0.201853 0)
(1.19637 0.184518 0)
(1.17133 0.165595 -2.00662e-23)
(1.13889 0.1447 -1.90776e-23)
(1.09293 0.121591 0)
(1.02784 0.0965897 0)
(0.940168 0.0708006 7.54034e-20)
(0.829834 0.0464 0)
(0.699765 0.0257839 0)
(0.555052 0.0105297 0)
(0.40325 0.000806613 -4.27677e-20)
(0.129591 -0.00504976 3.55301e-21)
(0.0732506 0.00096074 5.80548e-21)
(0.0728344 -0.00749202 0)
(0.0371825 0.000540156 -5.70101e-21)
(0.0369334 -0.0042135 -7.35109e-22)
(0.0171681 0.00175997 0)
(0.0175304 -0.000564518 -3.49586e-21)
(0.00905962 0.00126522 -4.35599e-20)
(0.0165221 -5.5913e-05 0)
(0.257138 -0.00398953 2.40881e-20)
(0.996984 -0.0415467 3.26424e-19)
(0.924878 -0.111906 3.94613e-21)
(0.830059 -0.182174 0)
(0.808077 -0.165943 4.75404e-20)
(0.692765 -0.297916 3.5014e-20)
(0.657998 -0.240331 6.07274e-22)
(0.658091 -0.527636 1.06399e-20)
(0.599231 -0.501051 -9.71086e-21)
(0.499479 -0.430081 -9.12155e-21)
(0.545032 -0.467302 8.22425e-21)
(0.57908 -0.67977 -2.84364e-22)
(0.444138 -0.514532 -2.63191e-20)
(0.0161664 0.00781706 -1.01862e-19)
(-0.0066476 0.0128741 3.48867e-21)
(0.00352496 -0.00122239 -4.24074e-21)
(0.0164812 0.0288685 -1.59832e-19)
(0.0732355 0.0428564 -3.80538e-22)
(0.265884 0.0947501 0)
(0.0490184 0.0227846 5.16474e-20)
(-0.00343045 -0.00461831 -1.43475e-19)
(0.0062627 0.00242112 6.10831e-20)
(0.49272 0.141816 0)
(0.726652 0.184055 4.40992e-22)
(0.941175 0.218307 3.67669e-22)
(1.1091 0.241776 -1.77835e-22)
(1.21531 0.254199 1.48218e-22)
(1.26471 0.256797 -2.63221e-19)
(1.27411 0.251394 0)
(1.26126 0.240307 1.03366e-22)
(1.23928 0.2258 2.05057e-19)
(1.2156 0.209499 0)
(1.19286 0.192201 0)
(1.17018 0.174088 0)
(1.14437 0.154797 2.02925e-23)
(1.11082 0.133899 1.49955e-24)
(1.06435 0.111157 0)
(1.00018 0.0869681 0)
(0.91549 0.0626702 0)
(0.810161 0.0404244 0)
(0.686397 0.0221574 0)
(0.548211 0.00880773 2.13004e-22)
(0.402193 0.000343993 -2.0122e-20)
(0.133929 -0.00477828 3.33902e-21)
(0.0761354 0.000552693 -5.49346e-21)
(0.0752912 -0.00701826 0)
(0.0385315 0.000142869 -5.3827e-21)
(0.037966 -0.00413057 0)
(0.0175223 0.00124778 0)
(0.0183806 -0.0011245 8.4632e-22)
(0.0171541 -0.00316304 1.7277e-21)
(0.0184093 -0.000874906 -8.60714e-22)
(0.00438993 0.000499856 -6.52774e-23)
(0.00495584 -0.000239551 -2.10207e-21)
(0.00334873 0.000473181 1.70831e-20)
(0.00500909 -0.000367815 0)
(0.26053 -0.00370091 0)
(0.996155 -0.0339503 -1.61945e-19)
(0.926147 -0.0755651 1.54328e-19)
(0.717006 -0.0558999 -3.82839e-20)
(0.630907 -0.174203 0)
(0.616642 -0.0947734 0)
(0.461949 -0.382144 0)
(0.429461 -0.329369 -6.86839e-21)
(0.38065 -0.216383 0)
(0.402566 -0.273383 6.92729e-21)
(0.437243 -0.607379 -1.99915e-20)
(0.344592 -0.504371 1.73677e-20)
(0.228447 -0.43539 7.56086e-21)
(0.287238 -0.479379 2.9423e-22)
(0.372873 -0.511133 -5.294e-21)
(-0.0141727 0.0128564 -7.17881e-20)
(0.000934577 0.00726322 0)
(0.00922123 0.0193433 2.22522e-22)
(0.0867406 0.044919 -1.76946e-19)
(0.0200409 0.0120083 5.76025e-20)
(0.256401 0.0943981 6.74947e-19)
(0.0196209 0.00814811 -2.64531e-22)
(0.0123448 0.012213 -2.49338e-23)
(-0.00896615 -0.000341229 3.45558e-20)
(0.000356141 0.00078969 2.39724e-21)
(0.470094 0.143002 0)
(0.698405 0.185487 -4.43355e-22)
(0.910956 0.219112 3.59807e-19)
(1.07529 0.24165 -1.16056e-23)
(1.17773 0.252814 2.72616e-19)
(1.22576 0.253347 1.08385e-23)
(1.23648 0.245761 0)
(1.22663 0.232802 -1.023e-19)
(1.20805 0.216903 0)
(1.18708 0.199706 0)
(1.16586 0.181954 -8.21322e-20)
(1.14348 0.163692 0)
(1.11718 0.144454 1.74274e-23)
(1.08305 0.123836 1.80585e-23)
(1.0366 0.101683 0)
(0.973756 0.0785905 -6.63184e-20)
(0.89227 0.0560621 0)
(0.791989 0.0359901 0)
(0.674436 0.0197595 2.19671e-22)
(0.542521 0.00788932 0)
(0.402014 0.000303747 0)
(0.138751 -0.00430743 0)
(0.0795021 0.000420462 -5.18537e-21)
(0.0785947 -0.0062617 0)
(0.0408232 5.25737e-05 -8.5314e-22)
(0.0397972 -0.00367111 5.6757e-22)
(0.0182535 0.00104071 0)
(0.0188618 -0.00113061 9.97912e-22)
(0.017605 -0.00303709 -2.03202e-22)
(0.0186348 -0.000929503 3.47251e-24)
(0.00457112 0.000322925 0)
(0.00519795 -0.000386622 0)
(0.00434959 -0.000951979 6.59806e-23)
(0.00518462 -0.000277369 0)
(0.264724 -0.00357191 0)
(0.995828 -0.0266502 0)
(0.932166 -0.043853 3.89136e-22)
(0.76304 0.0194336 -1.28644e-21)
(0.348917 0.143888 3.53084e-21)
(0.466676 0.220815 1.30313e-21)
(0.366012 -0.158008 0)
(0.362785 -0.102518 0)
(0.394077 0.00484784 -4.07346e-22)
(0.371896 -0.0469034 0)
(0.181957 -0.376212 -2.08634e-21)
(0.146461 -0.308496 -1.64471e-21)
(0.101319 -0.1667 2.42966e-21)
(0.12013 -0.237846 -4.9227e-21)
(0.176089 -0.317827 3.69671e-21)
(-0.011757 0.00204818 -4.21461e-20)
(-0.0044868 -0.000277112 0)
(0.00513494 0.00249054 -4.33423e-22)
(-0.000295876 0.00504983 3.96308e-20)
(0.00219846 0.00336678 -4.44281e-20)
(0.0251532 0.0238834 -5.02846e-20)
(0.0912201 0.0442428 -6.78813e-19)
(0.0293371 0.0133026 2.72577e-19)
(0.00336492 0.00421563 -4.02276e-20)
(0.00488532 0.00201203 -6.38275e-20)
(0.251854 0.0928912 0)
(0.000294759 -0.00122821 -4.73766e-20)
(0.456739 0.138489 0)
(0.680827 0.179873 -8.17026e-19)
(0.887016 0.213812 1.56936e-22)
(1.04329 0.236654 2.81955e-19)
(1.14018 0.246988 0)
(1.18675 0.246287 1.13844e-22)
(1.19914 0.237405 0)
(1.1924 0.223435 -1.82721e-22)
(1.17703 0.206933 0)
(1.15852 0.189584 1.40022e-21)
(1.13861 0.171952 0)
(1.11659 0.153901 3.4212e-23)
(1.0901 0.134961 -6.89199e-20)
(1.05579 0.11479 -1.57473e-23)
(1.0097 0.0934091 6.51372e-20)
(0.948489 0.0716469 0)
(0.870419 0.050977 -6.09885e-20)
(0.775254 0.032879 6.10485e-20)
(0.663726 0.0182816 0)
(0.537781 0.00750132 0)
(0.402794 0.000376181 0)
(0.143777 -0.00422094 0)
(0.0832738 0.000205382 0)
(0.0821916 -0.00548978 -2.49214e-21)
(0.0432511 -4.00234e-05 2.67941e-22)