/*--------------------------------*- C++ -*----------------------------------*\
| =========                 |                                                 |
| \\      /  F ield         | OpenFOAM: The Open Source CFD Toolbox           |
|  \\    /   O peration     | Version:  v1912                                 |
|   \\  /    A nd           | Website:  www.openfoam.com                      |
|    \\/     M anipulation  |                                                 |
\*---------------------------------------------------------------------------*/
FoamFile
{
    version     2.0;
    format      ascii;
    class       volScalarField;
    location    "180";
    object      p;
}
// * * * * * * * * * * * * * * * * * * * * * * * * * * * * * * * * * * * * * //

dimensions      [0 2 -2 0 0 0 0];


internalField   nonuniform List<scalar> 
3675
(
0.252932
0.250504
0.259395
0.245816
0.256431
0.277801
0.239175
0.250752
0.273311
0.311095
0.230987
0.242815
0.264863
0.303324
0.365359
0.221699
0.233191
0.253399
0.289079
0.350109
0.452099
0.211755
0.222473
0.239986
0.270518
0.323654
0.419579
0.562144
0.543455
0.201567
0.211212
0.225615
0.249922
0.291383
0.368778
0.510065
0.454846
0.66072
0.632367
0.191495
0.199879
0.211074
0.229099
0.25839
0.308691
0.397162
0.578589
0.51886
0.73424
0.720214
0.658836
0.69609
0.181843
0.18886
0.196944
0.209146
0.227764
0.255228
0.285783
0.363522
0.26341
0.621118
0.552127
0.462879
0.7674
0.748719
0.648679
0.701264
0.172861
0.178464
0.183631
0.190656
0.200455
0.212091
0.211488
0.108763
0.185915
0.222202
0.0409028
0.622241
0.521773
0.271398
0.290843
0.164752
0.168931
0.171417
0.173942
0.176606
0.177007
0.160979
0.0661449
-0.29878
-0.240482
-0.0155601
-0.00759827
-0.240523
-0.220024
0.594752
0.391442
0.212342
0.157674
0.160444
0.160485
0.159141
0.156103
0.148382
0.12361
0.043439
-0.260216
-0.511696
-0.349291
-0.435034
-0.15447
-0.259204
0.151755
0.153144
0.150953
0.146286
0.138689
0.125154
0.0955378
0.0257079
-0.185819
-0.412336
-0.487882
-0.556885
-0.502354
-0.447617
-0.522279
0.147095
0.147141
0.142901
0.135347
0.124061
0.106333
0.0742426
0.0113638
-0.139038
-0.324968
-0.374371
-0.447798
-0.526049
-0.458916
-0.52137
0.143776
0.142519
0.136381
0.126274
0.111927
0.0910707
0.0577412
0.000529701
-0.112027
-0.255738
-0.328617
-0.34665
-0.394801
-0.411594
-0.425279
-0.466174
-0.484474
0.141865
0.139347
0.131432
0.119014
0.102036
0.0787089
0.0446818
-0.00788411
-0.0966435
-0.210388
-0.286296
-0.322277
-0.331077
-0.360527
-0.37438
-0.398809
-0.442334
-0.429426
0.141417
0.137683
0.128089
0.11353
0.0941874
0.0687498
0.0341694
-0.0148119
-0.0880814
-0.180247
-0.25249
-0.294987
-0.318967
-0.317563
-0.334205
-0.343717
-0.364255
-0.382886
-0.406157
-0.402468
0.142479
0.137579
0.126388
0.1098
0.0882359
0.0608306
0.0255865
-0.0208314
-0.0838447
-0.160437
-0.226627
-0.270716
-0.30065
-0.311002
-0.306866
-0.317801
-0.324341
-0.336025
-0.346765
-0.361304
-0.369787
-0.390867
-0.380525
-0.407472
-0.395777
0.145087
0.13908
0.126372
0.107828
0.0840876
0.0546992
0.0185155
-0.0263101
-0.0825338
-0.148074
-0.207956
-0.251566
-0.282963
-0.300087
-0.302683
-0.298857
-0.306711
-0.311448
-0.319138
-0.326139
-0.3344
-0.339526
-0.351657
-0.345032
-0.362075
-0.3703
-0.391078
-0.38106
0.149268
0.142227
0.128088
0.107644
0.0817045
0.0501901
0.0126664
-0.0314957
-0.083354
-0.141141
-0.195344
-0.237421
-0.268711
-0.288792
-0.2964
-0.296049
-0.292276
-0.298553
-0.30232
-0.307797
-0.312726
-0.318225
-0.32159
-0.329138
-0.325044
-0.334913
-0.33986
-0.352111
-0.345617
0.155033
0.147052
0.131598
0.109311
0.0811038
0.0472263
0.0078501
-0.0365671
-0.0858748
-0.138326
-0.187711
-0.227672
-0.258095
-0.279175
-0.28973
-0.292369
-0.290309
-0.28627
-0.291841
-0.295171
-0.299477
-0.303283
-0.307286
-0.309687
-0.314855
-0.312084
-0.318655
-0.321886
-0.329456
-0.325475
0.162372
0.153576
0.136967
0.112923
0.0823631
0.0458084
0.00395487
-0.0416595
-0.0899105
-0.138848
-0.184285
-0.221827
-0.250886
-0.271838
-0.283888
-0.288526
-0.288159
-0.284725
-0.280188
-0.285784
-0.288975
-0.292686
-0.29595
-0.299176
-0.301071
-0.304941
-0.302887
-0.307677
-0.309976
-0.315154
-0.312467
0.171245
0.161802
0.144267
0.118615
0.0856244
0.0460214
0.000938887
-0.0468819
-0.0954298
-0.142303
-0.184566
-0.219558
-0.246866
-0.266979
-0.279492
-0.285256
-0.286133
-0.283529
-0.279073
-0.274311
-0.279548
-0.283024
-0.286634
-0.289641
-0.292472
-0.294144
-0.297368
-0.295668
-0.299555
-0.301363
-0.305236
-0.303252
0.181569
0.171702
0.15357
0.126556
0.0911078
0.0480399
-0.00117664
-0.0523358
-0.102547
-0.14858
-0.188296
-0.220654
-0.245872
-0.264618
-0.276835
-0.283029
-0.284616
-0.282744
-0.278623
-0.273836
-0.270857
-0.274932
-0.27605
-0.280636
-0.283842
-0.286379
-0.288019
-0.29094
-0.289366
-0.292849
-0.294435
-0.297663
-0.296029
0.193205
0.183206
0.164933
0.136955
0.0991251
0.0521549
-0.00229026
-0.0581182
-0.111534
-0.15783
-0.19543
-0.225021
-0.247796
-0.264723
-0.276026
-0.282066
-0.283884
-0.282447
-0.278674
-0.273866
-0.269938
-0.265416
-0.270248
-0.272998
-0.276006
-0.275842
-0.280723
-0.282425
-0.285069
-0.283507
-0.286741
-0.288277
-0.291223
-0.289726
0.205939
0.196179
0.178386
0.150058
0.110098
0.0587923
-0.00218668
-0.0643158
-0.122879
-0.1705
-0.206151
-0.232683
-0.252603
-0.267268
-0.277121
-0.282471
-0.284081
-0.282743
-0.279164
-0.27431
-0.269556
-0.264684
-0.259392
-0.264593
-0.267311
-0.270719
-0.273717
-0.276247
-0.277651
-0.27869
-0.273998
-0.281748
-0.282704
-0.28526
-0.283838
0.219459
0.210403
0.193901
0.166127
0.124588
0.0685669
-0.000490516
-0.0709942
-0.137368
-0.187378
-0.220881
-0.243797
-0.260323
-0.272251
-0.280154
-0.284318
-0.285296
-0.283713
-0.280113
-0.275178
-0.269853
-0.264411
-0.258699
-0.253493
-0.25878
-0.261588
-0.2651
-0.267828
-0.27048
-0.271738
-0.274615
-0.273366
-0.276821
-0.280995
-0.281705
-0.271538
0.233347
0.225537
0.211362
0.18542
0.143274
0.0823876
0.00343513
-0.078226
-0.156283
-0.209708
-0.2403
-0.258646
-0.27106
-0.279703
-0.285154
-0.287657
-0.287597
-0.28543
-0.281557
-0.276449
-0.270731
-0.264764
-0.258568
-0.252799
-0.24682
-0.252872
-0.255792
-0.259365
-0.262192
-0.264888
-0.266237
-0.268924
-0.267643
-0.270773
-0.27208
-0.275014
-0.273577
-0.276559
-0.280591
-0.268052
0.247069
0.241088
0.230488
0.208157
0.166888
0.101495
0.0107618
-0.0862201
-0.181813
-0.239371
-0.265372
-0.277636
-0.284979
-0.289684
-0.292153
-0.292527
-0.29103
-0.28795
-0.283543
-0.278112
-0.272053
-0.265663
-0.259032
-0.252628
-0.246791
-0.241424
-0.242179
-0.249499
-0.253691
-0.256441
-0.259115
-0.260544
-0.263352
-0.261967
-0.265216
-0.266577
-0.269291
-0.267969
-0.27107
-0.272362
-0.275206
-0.273807
0.26
0.256384
0.250701
0.234337
0.196378
0.12738
0.0234817
-0.0956275
-0.217787
-0.279266
-0.297398
-0.301287
-0.302301
-0.302283
-0.301183
-0.298948
-0.295625
-0.291314
-0.286116
-0.280181
-0.273738
-0.266981
-0.259992
-0.25306
-0.246551
-0.240675
-0.241973
-0.235016
-0.252281
-0.250389
-0.253321
-0.254759
-0.257582
-0.256151
-0.25943
-0.260855
-0.263697
-0.262294
-0.265528
-0.266862
-0.269594
-0.268272
0.271476
0.270602
0.270996
0.263326
0.233086
0.16295
0.0436597
-0.108348
-0.270725
-0.333772
-0.338127
-0.330251
-0.323297
-0.317607
-0.312276
-0.306931
-0.301393
-0.295543
-0.289306
-0.28268
-0.275752
-0.268618
-0.261317
-0.253999
-0.24695
-0.240394
-0.234457
-0.235595
-0.240977
-0.244712
-0.229233
-0.249385
-0.251182
-0.246815
-0.253701
-0.25503
-0.257893
-0.256454
-0.259723
-0.261115
-0.263984
-0.262592
0.280869
0.282848
0.28993
0.293511
0.277434
0.214988
0.0738794
-0.129201
-0.35159
-0.408603
-0.389738
-0.365313
-0.348323
-0.335788
-0.325457
-0.316469
-0.308328
-0.300639
-0.293125
-0.285626
-0.278091
-0.270521
-0.262903
-0.255286
-0.247843
-0.240779
-0.234278
-0.228556
-0.23007
-0.235018
-0.237925
-0.240542
-0.242372
-0.244091
-0.245732
-0.22346
-0.247599
-0.249534
-0.254623
-0.252298
-0.253886
-0.255235
-0.258149
-0.256721
0.287659
0.292314
0.305878
0.322065
0.326592
0.287
0.127947
-0.164715
-0.475913
-0.509745
-0.453935
-0.407122
-0.377777
-0.356986
-0.34075
-0.327541
-0.316403
-0.306589
-0.297573
-0.289023
-0.280753
-0.272664
-0.264686
-0.256794
-0.249055
-0.241601
-0.234607
-0.228283
-0.222678
-0.224434
-0.229432
-0.232292
-0.234736
-0.236253
-0.237536
-0.238914
-0.217378
-0.252059
-0.252118
0.29149
0.298394
0.317437
0.345388
0.373893
0.368522
0.230919
-0.211477
-0.645388
-0.638109
-0.528285
-0.455232
-0.411642
-0.381284
-0.358156
-0.340111
-0.325576
-0.313357
-0.30263
-0.292864
-0.283734
-0.275037
-0.266637
-0.258449
-0.250461
-0.24272
-0.235336
-0.228495
-0.222329
-0.216666
-0.218538
-0.223638
-0.226642
-0.229123
-0.230651
-0.231934
-0.233246
-0.211031
0.292194
0.300767
0.323729
0.36062
0.410074
0.453295
0.332394
0.429377
-0.047572
0.0208599
0.354446
-0.697696
-0.415176
-0.829673
-0.765968
-0.841947
-0.598319
-0.504976
-0.448327
-0.408149
-0.377516
-0.354104
-0.335789
-0.320894
-0.308258
-0.297127
-0.287021
-0.277629
-0.26874
-0.260213
-0.251977
-0.244011
-0.236352
-0.229115
-0.222456
-0.216384
-0.210789
-0.21134
-0.217855
-0.220863
-0.223233
-0.224863
-0.226213
-0.227591
-0.206781
0.289784
0.299397
0.324513
0.366487
0.429227
0.514082
0.50332
0.570217
0.459994
0.200475
0.0573207
-0.301001
-0.241511
0.239994
-0.669983
-0.594658
-0.487936
-1.03887
-0.750849
-0.82688
-0.828966
-0.644407
-0.802655
-0.92182
-0.542434
-0.482644
-0.435237
-0.398003
-0.369253
-0.346932
-0.329131
-0.314407
-0.301776
-0.290592
-0.280424
-0.270982
-0.262068
-0.253558
-0.245385
-0.237525
-0.23002
-0.222978
-0.216493
-0.210623
-0.205916
-0.207767
-0.211796
-0.212675
-0.217908
-0.219262
-0.220247
-0.221662
-0.201119
0.284421
0.294488
0.320114
0.363306
0.43063
0.535213
0.613755
0.648869
0.55432
0.637773
0.433958
0.283923
0.0163333
-0.00938304
-0.929798
-0.881619
-0.872784
-0.701243
-0.55779
-0.647598
-0.825674
-0.787737
-0.505505
-0.457516
-0.417281
-0.384677
-0.35869
-0.337943
-0.321009
-0.306764
-0.294411
-0.2834
-0.273348
-0.264
-0.255185
-0.246793
-0.238759
-0.231068
-0.223765
-0.216937
-0.210694
-0.205361
-0.200384
-0.201878
-0.206816
-0.209616
-0.211896
-0.213813
-0.210886
-0.216078
-0.195054
0.276375
0.28641
0.311258
0.352663
0.416584
0.521137
0.651927
0.623865
0.696743
0.673331
0.763127
0.441808
0.538848
0.725723
0.712145
0.635213
0.409557
0.120241
-0.911362
-0.885422
-0.721616
-0.688627
-0.585894
-0.513983
-0.55204
-0.661574
-0.63057
-0.828772
-0.788292
-0.470038
-0.431548
-0.39841
-0.370206
-0.347
-0.327932
-0.312024
-0.298438
-0.286526
-0.275819
-0.265997
-0.256843
-0.24821
-0.240001
-0.232161
-0.224684
-0.21761
-0.211035
-0.205169
-0.199836
-0.194436
-0.195772
-0.2009
-0.203769
-0.206327
-0.207724
-0.209163
-0.210417
-0.211655
-0.214044
-0.208436
-0.189339
0.265973
0.275614
0.298819
0.33665
0.392453
0.476892
0.602141
0.752987
0.715687
0.775787
0.813987
0.820667
0.774427
-0.715967
-0.686522
-0.596066
-0.573985
-0.524031
-0.474226
-0.502162
-0.560307
-0.543255
-0.658661
-0.628404
-0.438597
-0.407942
-0.379881
-0.355542
-0.334868
-0.31743
-0.302611
-0.289767
-0.278369
-0.268041
-0.258519
-0.249625
-0.241229
-0.233248
-0.225639
-0.2184
-0.211579
-0.205305
-0.199565
-0.19399
-0.188711
-0.190058
-0.194975
-0.197838
-0.200472
-0.201972
-0.203373
-0.20474
-0.206573
-0.207957
-0.209244
-0.210449
-0.183805
0.253568
0.262566
0.283638
0.31713
0.363637
0.425625
0.49651
0.572158
0.487484
0.786772
0.758847
0.669663
0.720786
0.806567
-0.594396
-0.572084
-0.527817
-0.513024
-0.481578
-0.440519
-0.463443
-0.50031
-0.560416
-0.542321
-0.412514
-0.3861
-0.362361
-0.34118
-0.322703
-0.306814
-0.293068
-0.280968
-0.270111
-0.260202
-0.251025
-0.242428
-0.234302
-0.226578
-0.21922
-0.212234
-0.205678
-0.199583
-0.193769
-0.188259
-0.183178
-0.184501
-0.189253
-0.192068
-0.194564
-0.196047
-0.19743
-0.198848
-0.200727
-0.202213
-0.203548
-0.204895
-0.178352
0.239511
0.247713
0.266436
0.295503
0.333354
0.377942
0.415738
0.333663
0.594781
0.367759
0.389444
0.27415
0.734149
0.625605
-0.565892
-0.526516
-0.517541
-0.47996
-0.446506
-0.413545
-0.432648
-0.462525
-0.494331
-0.505501
-0.557057
-0.540467
-0.388735
-0.366511
-0.346
-0.327328
-0.310807
-0.296331
-0.283569
-0.272182
-0.261871
-0.2524
-0.243589
-0.23531
-0.227473
-0.220018
-0.212919
-0.206185
-0.199833
-0.193782
-0.188033
-0.182708
-0.177738
-0.179026
-0.183667
-0.186439
-0.188838
-0.190289
-0.191637
-0.193027
-0.194792
-0.196254
-0.197578
-0.198972
-0.172996
0.224125
0.231455
0.247783
0.272735
0.303248
0.335254
0.35515
0.290749
0.0939984
0.121219
0.530773
0.280251
0.103329
0.106311
-0.524916
-0.515938
-0.483109
-0.47405
-0.445083
-0.418966
-0.388875
-0.406028
-0.432031
-0.458382
-0.465915
-0.368153
-0.348822
-0.330681
-0.314187
-0.299359
-0.28609
-0.274214
-0.263508
-0.253736
-0.244703
-0.236264
-0.228311
-0.220767
-0.213584
-0.206738
-0.20022
-0.193986
-0.18803
-0.182451
-0.177263
-0.172392
-0.173651
-0.178187
-0.180916
-0.183253
-0.184676
-0.185998
-0.18736
-0.189057
-0.190481
-0.191767
-0.193128
-0.167748
0.207715
0.214133
0.228095
0.249447
0.274126
0.29727
0.306895
0.258855
0.110744
0.0617557
0.0557709
0.072628
0.107186
0.0683854
-0.447229
-0.441821
-0.417704
-0.393708
-0.368058
-0.382135
-0.405071
-0.427505
-0.434816
-0.349938
-0.332476
-0.316529
-0.301854
-0.288368
-0.276134
-0.265078
-0.255017
-0.24576
-0.237155
-0.229084
-0.221453
-0.2142
-0.207279
-0.200661
-0.194306
-0.1882
-0.182407
-0.176983
-0.171912
-0.167152
-0.16838
-0.172814
-0.175497
-0.177776
-0.179172
-0.180472
-0.181812
-0.183464
-0.184861
-0.186122
-0.187452
-0.162603
0.190572
0.196007
0.207625
0.225985
0.246309
0.263495
0.267571
0.231579
0.130321
0.0717046
0.0638317
0.0426022
0.053262
0.0713806
0.0441084
-0.44376
-0.440751
-0.419874
-0.413391
-0.392764
-0.372022
-0.349292
-0.36225
-0.381179
-0.401151
-0.407417
-0.42667
-0.433738
-0.333048
-0.317682
-0.303545
-0.290177
-0.277811
-0.266522
-0.256214
-0.246745
-0.237977
-0.229785
-0.222069
-0.214752
-0.207776
-0.201097
-0.194672
-0.188475
-0.182533
-0.176904
-0.17161
-0.166664
-0.162016
-0.163213
-0.167545
-0.170183
-0.172405
-0.173775
-0.175052
-0.176369
-0.17798
-0.17935
-0.180589
-0.181898
-0.157556
0.172804
0.177319
0.186427
0.202475
0.219827
0.23331
0.234927
0.207929
0.139025
0.0877925
0.0704169
0.0598079
0.0522654
0.0572076
0.052197
0.0353013
-0.418881
-0.41276
-0.394746
-0.38896
-0.371245
-0.352575
-0.332521
-0.341125
-0.361663
-0.377452
-0.383532
-0.400523
-0.406564
-0.317898
-0.304381
-0.291337
-0.279076
-0.267739
-0.257282
-0.247637
-0.238717
-0.230408
-0.222608
-0.215231
-0.208211
-0.201493
-0.195031
-0.188787
-0.182761
-0.176987
-0.171502
-0.166345
-0.161523
-0.156971
-0.158147
-0.162378
-0.164973
-0.167139
-0.168482
-0.169737
-0.171031
-0.172601
-0.173945
-0.175162
-0.176449
-0.152598
0.154301
0.15824
0.164364
0.178868
0.19454
0.206077
0.20719
0.187395
0.139695
0.0986529
0.0798814
0.0654875
0.0590385
0.062506
0.0457842
0.0575604
0.0516627
0.0527491
0.0473431
-0.393813
-0.388468
-0.372975
-0.368005
-0.35187
-0.330808
-0.317325
-0.345624
-0.358494
-0.363348
-0.376719
-0.38369
-0.304559
-0.291828
-0.279805
-0.268611
-0.258141
-0.248395
-0.239357
-0.230945
-0.223064
-0.215632
-0.208573
-0.201829
-0.195348
-0.189087
-0.183025
-0.177171
-0.171552
-0.16621
-0.161187
-0.156471
-0.152005
-0.153183
-0.157311
-0.159867
-0.161977
-0.163295
-0.164527
-0.165798
-0.167328
-0.168646
-0.169841
-0.171105
-0.147718
0.138138
0.13815
0.141299
0.155036
0.170262
0.181228
0.183089
0.169243
0.136142
0.103985
0.0859132
0.0702371
0.0595829
0.0583392
0.0605654
0.0563166
0.0537964
0.0537235
0.0486748
0.0494649
-0.373138
-0.367499
-0.35311
-0.347443
-0.33443
-0.316062
-0.326087
-0.304207
-0.343694
-0.357912
-0.362693
-0.374455
-0.291774
-0.28
-0.269071
-0.258713
-0.248962
-0.239868
-0.231381
-0.223433
-0.215947
-0.208857
-0.202095
-0.195606
-0.189344
-0.183277
-0.177394
-0.171703
-0.166232
-0.161029
-0.156125
-0.151504
-0.147113
-0.148355
-0.152331
-0.154862
-0.156914
-0.158209
-0.159419
-0.160669
-0.162158
-0.163451
-0.164626
-0.165868
-0.142807
0.136847
0.115329
0.117439
0.131145
0.14697
0.158371
0.161762
0.152948
0.130262
0.105772
0.0893982
0.0744015
0.0618367
0.0548281
0.0556451
0.0579583
0.0566241
0.0575786
0.054045
0.0541905
0.0516109
0.0518722
-0.371947
-0.366775
-0.352874
-0.350042
-0.33536
-0.331372
-0.318291
-0.303346
-0.312133
-0.327659
-0.324349
-0.29127
-0.344633
-0.340052
-0.357327
-0.36196
-0.279741
-0.269159
-0.25896
-0.249282
-0.240206
-0.231695
-0.223702
-0.216176
-0.209057
-0.202283
-0.195793
-0.18954
-0.183485
-0.177606
-0.171893
-0.166355
-0.161028
-0.155957
-0.151163
-0.146634
-0.142308
-0.143398
-0.147489
-0.149967
-0.151935
-0.153215
-0.154408
-0.155642
-0.15709
-0.15836
-0.159513
-0.160734
-0.138216
0.153761
0.0927325
0.0936384
0.108482
0.125222
0.137498
0.142729
0.138224
0.123192
0.105037
0.0909782
0.0775679
0.0647822
0.0561875
0.0502265
0.0520846
0.0545445
0.0546591
0.0563488
0.0553017
0.0556163
0.0555071
0.0555901
0.0526581
0.0527725
-0.352209
-0.348943
-0.318885
-0.316867
-0.305617
-0.290382
-0.298989
-0.313457
-0.309993
-0.27908
-0.26894
-0.258916
-0.249331
-0.240338
-0.231859
-0.223853
-0.216307
-0.20917
-0.202389
-0.195905
-0.189666
-0.183633
-0.177776
-0.172074
-0.16652
-0.161133
-0.155944
-0.150996
-0.146315
-0.141902
-0.137796
-0.138652
-0.142513
-0.145149
-0.147071
-0.148344
-0.149488
-0.150707
-0.15211
-0.153362
-0.154498
-0.155701
-0.134113
0.0839587
0.0722325
0.0899783
0.106717
0.119306
0.12602
0.125019
0.11572
0.102657
0.0910158
0.0794169
0.0675629
0.0582833
0.0513182
0.0450275
0.0480183
0.0506814
0.0514676
0.0534951
0.0535878
0.0543498
0.0554719
0.0549822
0.0546157
0.0548977
0.0543881
0.0546765
-0.316752
-0.316131
-0.306483
-0.303297
-0.292555
-0.278109
-0.286342
-0.30017
-0.296805
-0.313072
-0.309658
-0.268468
-0.25862
-0.249138
-0.240264
-0.231857
-0.223873
-0.216327
-0.209189
-0.202411
-0.195936
-0.189717
-0.183712
-0.177885
-0.172213
-0.166678
-0.161279
-0.156034
-0.15098
-0.146159
-0.141614
-0.137402
-0.133565
-0.134664
-0.138168
-0.139964
-0.142165
-0.143522
-0.144678
-0.145886
-0.147234
-0.148474
-0.149577
-0.15076
-0.12968
0.0573427
0.0779366
0.0938944
0.105269
0.112272
0.113592
0.10845
0.0993785
0.0900043
0.0801254
0.0695849
0.0604922
0.053098
0.0468582
0.0443515
0.0423987
0.045842
0.0480449
0.0499893
0.050431
0.0514606
0.0531481
0.0522822
0.0531882
0.0539121
0.0548653
0.0544939
-0.305796
-0.30279
-0.293384
-0.290341
-0.280008
-0.267752
-0.274687
-0.287524
-0.284367
-0.299877
-0.296555
-0.25811
-0.248724
-0.24002
-0.231702
-0.223755
-0.216228
-0.209107
-0.202344
-0.195886
-0.18969
-0.183716
-0.177927
-0.172294
-0.166796
-0.16142
-0.156169
-0.151064
-0.146145
-0.141467
-0.137103
-0.133091
-0.129191
-0.130148
-0.133825
-0.136057
-0.13786
-0.138921
-0.14008
-0.140246
-0.14311
-0.143789
-0.144791
-0.145903
-0.12526
0.0712394
0.0872873
0.0966136
0.102446
0.104517
0.10195
0.0958021
0.0883878
0.0800464
0.0708374
0.0623278
0.0550153
0.0487242
0.0450306
0.0412677
0.0430948
0.0445071
0.0401112
0.0459932
0.0470029
0.0481705
0.0498456
0.0487592
0.0501526
0.0511114
0.0527206
0.0519676
-0.29271
-0.289862
-0.281062
-0.27778
-0.269623
-0.257353
-0.263973
-0.275718
-0.273024
-0.287187
-0.284177
-0.248106
-0.23962
-0.231427
-0.223513
-0.216007
-0.208919
-0.202187
-0.195753
-0.189583
-0.183644
-0.177896
-0.172308
-0.166856
-0.161522
-0.156299
-0.151191
-0.146225
-0.141449
-0.136937
-0.132739
-0.128747
-0.124806
-0.125716
-0.129357
-0.131533
-0.133397
-0.134496
-0.135628
-0.1367
-0.137987
-0.139242
-0.140859
-0.139874
-0.121028
0.0848089
0.0926604
0.0968207
0.0983231
0.0967756
0.0924327
0.0865228
0.0794746
0.0714746
0.0636839
0.056684
0.050419
0.0458377
0.0418807
0.0378185
0.0396239
0.0411691
0.0427923
0.0446929
0.0444423
0.036806
0.0466882
0.0468034
0.046744
0.047703
0.0494547
0.0484995
-0.281104
-0.277106
-0.270337
-0.267613
-0.259018
-0.247296
-0.253986
-0.264697
-0.261038
-0.276023
-0.27282
-0.239063
-0.231046
-0.22317
-0.215687
-0.208639
-0.201939
-0.195535
-0.189399
-0.183496
-0.177791
-0.172251
-0.16685
-0.161568
-0.156391
-0.151313
-0.146346
-0.141522
-0.136899
-0.132534
-0.128404
-0.124401
-0.120576
-0.121482
-0.125003
-0.127135
-0.12897
-0.130071
-0.131147
-0.132222
-0.133515
-0.134622
-0.135692
-0.13679
-0.138031
-0.139138
-0.140598
-0.138451
-0.116925
0.0914727
0.094355
0.0948451
0.0932368
0.0896685
0.0847078
0.0786433
0.0716573
0.0645816
0.0579883
0.0518915
0.0468251
0.042487
0.03831
0.034802
0.0365948
0.0380509
0.0392133
0.0407095
0.0418541
0.0426477
0.0447723
0.0440689
0.0333325
0.0456835
0.0474312
-0.275687
-0.269871
-0.267205
-0.258216
-0.249087
-0.238354
-0.244095
-0.253431
-0.264687
-0.263018
-0.275375
-0.272346
-0.230541
-0.222737
-0.215287
-0.208285
-0.201619
-0.195241
-0.189138
-0.183274
-0.177613
-0.172123
-0.166775
-0.161549
-0.156427
-0.151399
-0.146463
-0.141635
-0.136952
-0.132466
-0.128194
-0.124092
-0.120178
-0.116479
-0.117368
-0.12078
-0.122868
-0.124632
-0.125713
-0.126759
-0.127826
-0.129093
-0.130195
-0.131242
-0.132328
-0.13362
-0.134712
-0.135791
-0.136867
-0.112923
0.0935112
0.0931757
0.0911139
0.0876634
0.083149
0.0777344
0.0715319
0.0650929
0.0589158
0.0530774
0.0478658
0.0432525
0.038921
0.0352517
0.032096
0.0338007
0.0351803
0.0362974
0.037741
0.0386743
0.0393264
0.0408038
0.0400659
-0.26944
-0.266894
-0.259154
-0.256525
-0.248567
-0.239874
-0.229854
-0.235547
-0.243431
-0.251783
-0.254284
-0.264321
-0.262282
-0.222204
-0.214806
-0.20788
-0.201253
-0.194889
-0.188808
-0.182982
-0.177367
-0.171924
-0.166631
-0.161462
-0.1564
-0.15143
-0.146545
-0.141746
-0.137052
-0.132499
-0.128117
-0.123905
-0.119878
-0.116084
-0.112488
-0.113353
-0.116669
-0.118712
-0.120415
-0.121472
-0.122489
-0.123534
-0.12475
-0.125827
-0.126851
-0.127923
-0.129191
-0.130277
-0.131349
-0.132427
-0.109024
0.0922958
0.0898152
0.086251
0.0818824
0.0768456
0.0712075
0.0652975
0.0595052
0.0539461
0.0487913
0.0440846
0.0396631
0.0357962
0.0325206
0.0297272
0.0299384
0.0325347
0.0336392
0.0349317
0.0357855
0.0364367
0.0379019
0.0371645
-0.249192
-0.246889
-0.239482
-0.23129
-0.221527
-0.227028
-0.235094
-0.241726
-0.244758
-0.214227
-0.207424
-0.200855
-0.194499
-0.188428
-0.182629
-0.177056
-0.171661
-0.166419
-0.161308
-0.156306
-0.151399
-0.146573
-0.141824
-0.137156
-0.132588
-0.128144
-0.123841
-0.119702
-0.115788
-0.1121
-0.108596
-0.10945
-0.112661
-0.114658
-0.116312
-0.117343
-0.118335
-0.119355
-0.120529
-0.121579
-0.122575
-0.12362
-0.12484
-0.1259
-0.126949
-0.128012
0.0887921
0.0850815
0.0807788
0.0759676
0.0707312
0.0652507
0.0598027
0.0545136
0.0495069
0.0448427
0.0404319
0.0364377
0.0329878
0.0300352
0.0275355
0.0288124
0.0299499
0.0288244
0.0265889
0.0328443
0.0331163
0.033697
0.0350638
0.0343739
-0.240327
-0.237941
-0.230717
-0.222931
-0.213544
-0.218869
-0.22653
-0.23361
-0.235782
-0.240588
-0.206898
-0.200432
-0.194084
-0.188016
-0.182237
-0.176695
-0.171341
-0.166145
-0.161088
-0.156147
-0.151303
-0.146541
-0.141852
-0.137232
-0.132686
-0.128228
-0.123873
-0.119649
-0.115615
-0.111805
-0.108212
-0.110708
-0.112308
-0.113318
-0.114286
-0.115282
-0.116423
-0.117446
-0.118416
-0.119435
-0.120616
-0.121647
-0.122668
-0.123701
0.0839168
0.07963
0.0750187
0.0700847
0.0649628
0.0598318
0.0548057
0.0499852
0.0454377
0.0411207
0.0371096
0.0335404
0.0304364
0.027802
0.0254755
0.0266181
0.0278149
0.0283906
0.0288552
0.0293644
0.0296478
0.0297449
0.0357652
0.0326644
0.0320509
-0.239859
-0.237496
-0.231321
-0.229234
-0.222398
-0.21494
-0.206276
-0.210985
-0.218451
-0.225138
-0.227228
-0.233302
-0.23543
-0.199989
-0.193641
-0.187585
-0.181828
-0.176308
-0.170977
-0.165816
-0.160807
-0.155924
-0.151144
-0.146447
-0.141822
-0.137261
-0.132761
-0.128325
-0.123963
-0.119694
-0.115567
-0.111632
-0.10792
-0.110324
-0.111307
-0.112418
-0.113417
-0.114364
-0.115359
-0.116507
-0.117512
-0.118506
-0.119512
0.0783569
0.0738717
0.069226
0.0644152
0.0595899
0.0548318
0.0502201
0.0458308
0.0416537
0.0377193
0.0341168
0.0308953
0.0280908
0.0256082
0.0233224
0.0245628
0.0257702
0.0262424
0.0267848
0.027325
0.0279277
0.0283045
0.0287294
0.0291616
0.0294347
0.0294875
0.032491
-0.230979
-0.228964
-0.222996
-0.220978
-0.214504
-0.207444
-0.199193
-0.203827
-0.210524
-0.217095
-0.219108
-0.22487
-0.22691
-0.193192
-0.187126
-0.18141
-0.175917
-0.17059
-0.165445
-0.160473
-0.155644
-0.150923
-0.146291
-0.141731
-0.137235
-0.132793
-0.128404
-0.124067
-0.119795
-0.115617
-0.111586
-0.107748
-0.110406
-0.111381
-0.1125
-0.113482
-0.114453
-0.115433
0.0725335
0.0680838
0.0635993
0.059065
0.0545824
0.050207
0.046004
0.041992
0.038189
0.0346407
0.0313821
0.028455
0.025825
0.0233203
0.0202278
0.0226414
0.0238143
0.0241579
0.0247462
0.0252389
0.0258475
0.0261922
0.0267043
0.0272181
0.0277926
0.028233
0.0286277
0.0290458
0.0292624
-0.222663
-0.220721
-0.215091
-0.213138
-0.207042
-0.200105
-0.192576
-0.195395
-0.203513
-0.209131
-0.211257
-0.216824
-0.218779
-0.18663
-0.180971
-0.175529
-0.1702
-0.165051
-0.1601
-0.155314
-0.150646
-0.146075
-0.141581
-0.137151
-0.132774
-0.128444
-0.124155
-0.119911
-0.115727
-0.111642
-0.107703
-0.110491
-0.111453
0.0667194
0.0624711
0.0582609
0.0540516
0.0499336
0.0459453
0.0421191
0.0384741
0.0350402
0.0318319
0.0288725
0.0261697
0.0236407
0.0211559
0.0207729
0.0192576
0.0211673
0.0223465
0.0229715
0.0232209
0.0238449
0.0241229
0.024662
0.0251333
0.0257012
0.0261364
0.026622
0.027166
0.0277113
-0.21474
-0.212927
-0.207573
-0.205832
-0.199971
-0.191554
-0.18603
-0.197493
-0.202326
-0.204084
-0.208758
-0.211347
-0.18048
-0.175135
-0.169813
-0.164654
-0.159706
-0.154946
-0.150322
-0.145806
-0.141374
-0.137009
-0.132699
-0.128434
-0.124206
-0.120012
-0.115856
-0.111761
-0.107764
0.0611104
0.0571446
0.0532571
0.0493948
0.045643
0.0420237
0.0385562
0.0352694
0.0321702
0.0292646
0.0265677
0.0240864
0.0219108
0.0209833
0.0195624
0.0203245
0.0205892
0.0203908
0.0179901
0.020785
0.0220023
0.022461
0.0228231
0.0231186
0.023664
0.0240738
0.0245848
0.0250851
0.0256165
-0.207682
-0.205615
-0.200447
-0.198759
-0.192837
-0.185292
-0.189508
-0.17988
-0.195086
-0.197378
-0.202046
-0.20382
-0.207735
-0.174708
-0.169417
-0.164254
-0.159305
-0.154561
-0.149964
-0.14549
-0.141113
-0.136812
-0.132569
-0.128372
-0.12421
-0.120078
-0.115972
-0.111903
-0.107893
0.0558079
0.0521689
0.0486111
0.0450991
0.0416989
0.0384283
0.035308
0.0323495
0.0295535
0.0269294
0.0245073
0.0224064
0.0210943
0.0197278
0.0177247
0.0187634
0.0194279
0.0198604
0.0200977
0.0205615
0.0207384
0.022566
0.0155269
0.0230712
0.0221028
0.022349
0.0226561
0.0230557
0.0235701
-0.207187
-0.205275
-0.200198
-0.1985
-0.195989
-0.193406
-0.191698
-0.186355
-0.179194
-0.183214
-0.190163
-0.18842
-0.174206
-0.19696
-0.201775
-0.203507
-0.168983
-0.16384
-0.158902
-0.154175
-0.14959
-0.14514
-0.140805
-0.136562
-0.132386
-0.128256
-0.124163
-0.120098
-0.116055
-0.112036
-0.108048
0.0508729
0.0475547
0.0443343
0.041153
0.0380896
0.0351501
0.0323496
0.029691
0.0271814
0.0248436
0.0227674
0.021205
0.0197689
0.0179081
0.0162233
0.0171634
0.0178604
0.0184515
0.0187257
0.0190818
0.0194086
0.0197112
0.0199895
0.0204333
0.0210725
0.0125682
0.0228877
0.021638
-0.199914
-0.198284
-0.195403
-0.186686
-0.185172
-0.180001
-0.1736
-0.177359
-0.183762
-0.182472
-0.168468
-0.196693
-0.163392
-0.158482
-0.15379
-0.149216
-0.144774
-0.140463
-0.136268
-0.132151
-0.128087
-0.124063
-0.120068
-0.116093
-0.112137
-0.108198
0.0463099
0.0433168
0.0404098
0.0375483
0.0347974
0.0321667
0.0296573
0.0272812
0.0250524
0.023025
0.0213342
0.0198127
0.0180681
0.0164196
0.0149582
0.0157346
0.0163867
0.0169048
0.0172042
0.0175753
0.0179879
0.0184211
0.0186908
0.0190148
0.0193536
-0.180241
-0.17935
-0.1745
-0.167824
-0.171576
-0.177864
-0.176375
-0.16289
-0.158017
-0.153397
-0.148846
-0.144404
-0.140101
-0.135938
-0.131871
-0.127869
-0.123912
-0.119987
-0.116083
-0.112195
-0.108319
0.0421277
0.0394374
0.0368284
0.0342626
0.0318039
0.029451
0.0272167
0.0251096
0.02316
0.0214346
0.0198618
0.0182028
0.0165988
0.0151689
0.0137955
0.0144718
0.0150754
0.0154931
0.015765
0.0161055
0.0164936
0.0168716
0.0171609
0.0175254
0.0179572
-0.179258
-0.17898
-0.174858
-0.173449
-0.168701
-0.16231
-0.165889
-0.172039
-0.170563
-0.177651
-0.176176
-0.157474
-0.152969
-0.148467
-0.144031
-0.139732
-0.135587
-0.131557
-0.127607
-0.123712
-0.119855
-0.116023
-0.112206
-0.108398
0.0383087
0.0358989
0.0335701
0.0312766
0.0290802
0.0269904
0.025009
0.023157
0.0214613
0.0198864
0.0182977
0.0167487
0.0153414
0.0140041
0.0127142
0.0133227
0.0138881
0.0142349
0.0145011
0.0147998
0.0151495
0.0154497
0.0157119
0.0160453
0.0164415
-0.174549
-0.173194
-0.169062
-0.167688
-0.163159
-0.15686
-0.160443
-0.166357
-0.16492
-0.17187
-0.170399
-0.152486
-0.148059
-0.143646
-0.139358
-0.135227
-0.131223
-0.127311
-0.123467
-0.119674
-0.115911
-0.112169
-0.108433
0.0348308
0.0326857
0.0306076
0.0285631
0.0266137
0.0247595
0.0230131
0.0213856
0.0198537
0.018338
0.0168536
0.0154741
0.0141684
0.0129161
0.0117144
0.0122546
0.0127966
0.0131023
0.0133462
0.0136143
0.0139491
0.0141925
0.0144462
0.0147391
0.0150885
-0.168762
-0.167447
-0.163489
-0.162148
-0.157707
-0.151953
-0.155061
-0.160886
-0.159494
-0.166184
-0.164757
-0.147593
-0.143233
-0.138971
-0.134862
-0.130882
-0.126994
-0.123184
-0.119445
-0.11575
-0.112081
-0.108419
0.031676
0.0297663
0.0279228
0.0261059
0.0243757
0.022737
0.0211969
0.0197355
0.0183055
0.0168997
0.0155637
0.0142915
0.0130712
0.0119101
0.0107863
0.0112631
0.0117859
0.0120494
0.0122757
0.0125386
0.0128362
0.0130636
0.0132935
0.0135509
0.0138869
-0.16319
-0.161907
-0.158067
-0.156751
-0.152724
-0.147038
-0.150215
-0.155357
-0.154311
-0.160692
-0.159314
-0.142769
-0.138556
-0.134481
-0.130536
-0.126666
-0.122875
-0.119176
-0.11554
-0.111941
-0.108355
0.0288152
0.0271258
0.0254879
0.0238766
0.0223451
0.0208985
0.0195205
0.0181839
0.0168701
0.0155997
0.0143725
0.0131842
0.01205
0.0109665
0.00990193
0.0103249
0.0108453
0.0110665
0.0112893
0.0115334
0.0118134
0.0120138
0.0122242
0.012477
0.0127714
-0.157794
-0.156756
-0.153071
-0.151827
-0.147769
-0.142222
-0.145237
-0.150585
-0.149321
-0.155164
-0.154357
-0.138098
-0.134064
-0.130177
-0.12633
-0.122553
-0.118877
-0.115287
-0.111752
-0.108241
0.0262288
0.0247294
0.0232832
0.0218554
0.0205003
0.0192117
0.0179675
0.0167512
0.0155636
0.0144008