/*--------------------------------*- C++ -*----------------------------------*\
| =========                 |                                                 |
| \\      /  F ield         | OpenFOAM: The Open Source CFD Toolbox           |
|  \\    /   O peration     | Version:  v1912                                 |
|   \\  /    A nd           | Website:  www.openfoam.com                      |
|    \\/     M anipulation  |                                                 |
\*---------------------------------------------------------------------------*/
FoamFile
{
    version     2.0;
    format      ascii;
    class       surfaceScalarField;
    location    "410";
    object      phi;
}
// * * * * * * * * * * * * * * * * * * * * * * * * * * * * * * * * * * * * * //

dimensions      [0 3 -1 0 0 0 0];
oriented        oriented;


internalField   nonuniform List<scalar> 
7354
(
-3.5621e-06
0.00134719
-1.32677e-05
0.00413252
-2.80554e-06
0.00135
-3.39202e-05
0.00695053
-1.35474e-05
0.00414327
-3.84175e-06
0.00135384
-6.14543e-05
0.00968823
-3.36092e-05
0.00697059
-1.42318e-05
0.00415366
-2.78988e-06
0.00135663
-9.49458e-05
0.012166
-6.04505e-05
0.00971507
-3.20692e-05
0.00698843
-1.15658e-05
0.00416244
-2.82641e-06
0.00135946
-0.000143476
0.0141818
-9.47823e-05
0.0122003
-5.5961e-05
0.00973897
-3.04083e-05
0.00700727
-1.15106e-05
0.00417112
-2.813e-06
0.00136227
-0.000184857
0.0155124
-0.000136913
0.014224
-9.18453e-05
0.0122362
-5.55581e-05
0.00976412
-2.59515e-05
0.00702171
-1.13498e-05
0.00417966
-1.81816e-06
0.00136409
-0.000236637
0.0160077
-0.000186024
0.0155615
-0.000132871
0.014265
-8.61211e-05
0.0122668
-4.5805e-05
0.00978397
-2.27708e-05
0.00703314
-9.3626e-06
0.0041872
-1.76739e-06
0.00136586
-0.000276658
0.0155682
-0.000230348
0.016052
-0.000177333
0.015606
-0.000120635
0.0142995
-7.13305e-05
0.0122923
-4.15435e-05
0.00980274
-1.97702e-05
0.00704354
-7.308e-06
0.00419274
-1.66732e-06
0.00136753
-0.000314305
0.0142478
-0.000279173
0.0156171
-0.000218796
0.0160935
-0.000150733
0.0156361
-9.96267e-05
0.0143278
-6.40386e-05
0.0123148
-3.72461e-05
0.00982022
-1.82631e-05
0.0070545
-6.43663e-06
0.00419751
-1.72281e-06
0.00136925
-0.000339562
0.0121636
-0.000321143
0.0142898
-0.000258817
0.0156571
-0.000186225
0.016129
-0.000130023
0.0156665
-8.27387e-05
0.0143465
-5.22987e-05
0.0123299
-2.7775e-05
0.00982973
-1.53039e-05
0.00706336
-6.94858e-06
0.00420274
-1.74017e-06
0.00137099
-0.00034344
0.00952595
-0.000352011
0.0121945
-0.000277179
0.0143081
-0.000206189
0.015677
-0.000148245
0.0161472
-0.000104209
0.015688
-6.92787e-05
0.0143635
-4.2613e-05
0.0123447
-2.73075e-05
0.00984173
-1.19531e-05
0.00706837
-4.34863e-06
0.00420535
-1.34107e-06
0.00137233
-0.00011426
0.00654758
-0.000193755
-0.000372581
0.00954652
-0.00028681
0.0122041
-0.000211565
0.0143135
-0.000159272
0.0156881
-0.000112708
0.0161557
-7.88502e-05
0.0156975
-5.12126e-05
0.0143721
-3.56414e-05
0.012353
-1.81432e-05
0.00984792
-1.20202e-05
0.00707604
-6.06718e-06
0.00421007
-7.15689e-07
0.00137305
0.00215264
-8.41594e-05
-0.000200858
0.00655304
-0.000177181
0.00211093
-0.000152046
-0.000259693
0.0095194
-0.000190785
0.0121833
-0.000150833
0.0143051
-0.000110096
0.0156855
-8.71688e-05
0.016164
-6.48498e-05
0.0157112
-4.52733e-05
0.0143817
-3.07502e-05
0.0123656
-2.27616e-05
0.00985867
-1.15399e-05
0.00708151
-4.83525e-06
0.00421419
-1.45045e-06
0.0013745
0.00137943
-2.49742e-05
0.00209326
-0.000183187
-0.000130132
0.00648316
-5.96836e-05
0.00206949
-0.000153406
0.00132135
-6.22297e-05
-3.17366e-05
-0.000141108
0.00946972
-0.000119141
0.0121516
-9.51577e-05
0.0142901
-7.90852e-05
0.0156774
-6.23345e-05
0.0161615
-4.58262e-05
0.0157117
-3.94607e-05
0.0143904
-2.56317e-05
0.0123685
-1.72545e-05
0.00986438
-1.24013e-05
0.00708908
-5.61326e-06
0.00421836
-2.22973e-06
0.00137673
0.00043153
-9.70601e-06
0.00130414
-8.3412e-05
-8.25614e-05
0.00202118
-8.18282e-05
-4.57263e-05
0.00639858
-1.0804e-05
0.00199783
-3.6328e-05
0.00125963
-3.89254e-05
-6.9976e-05
-0.00041771
0.000390728
-3.52485e-05
-1.79165e-05
-6.78022e-05
0.00941838
-6.50385e-05
0.0121215
-6.19588e-05
0.014273
-5.07303e-05
0.0156658
-4.33169e-05
0.016159
-3.77042e-05
0.01571
-3.18812e-05
0.0143967
-2.50852e-05
0.0123763
-2.1724e-05
0.0098737
-1.35009e-05
0.00709697
-7.67265e-06
0.0042238
-1.21205e-06
0.00137794
0.000252808
-1.55752e-06
0.000365263
-5.79466e-05
0.000343977
-6.12756e-05
0.00120678
-2.19441e-05
-7.03045e-06
0.00196929
-1.71858e-05
-1.64985e-05
0.00634774
-4.66657e-07
0.00196467
-6.19031e-06
0.00117645
-7.99313e-07
-5.20283e-06
-0.000320962
0.000302011
-1.99749e-05
-4.69608e-05
-0.000238856
0.000213372
-9.76418e-06
-3.96514e-06
-3.49945e-05
0.00938834
-3.85545e-05
0.0120981
-3.70271e-05
0.0142593
-3.79519e-05
0.0156604
-3.19736e-05
0.0161532
-3.35196e-05
0.0157116
-2.63717e-05
0.014398
-2.87064e-05
0.0123833
-2.10962e-05
0.0098813
-1.55191e-05
0.00710481
-7.44131e-06
0.00423003
-2.88768e-06
0.00138083
7.47161e-05
0.000176104
-2.06784e-05
0.000155137
-4.03083e-05
0.000286753
-6.68572e-06
0.000281835
-2.11241e-06
0.00116073
-1.78944e-06
3.29818e-07
0.00195162
-3.45047e-06
-6.85974e-06
0.00631559
4.02187e-06
0.00195219
-1.03513e-06
0.00115453
1.04911e-06
-1.0464e-06
-0.000277132
0.000276737
-4.03606e-07
-5.00271e-07
-0.000108176
8.82009e-05
-7.07509e-05
6.09868e-05
-1.45964e-05
0.00936438
-2.35106e-05
0.0120846
-2.47311e-05
0.0142461
-2.24312e-05
0.0156509
-2.92219e-05
0.0161489
-2.58793e-05
0.0157111
-3.69593e-05
0.0144062
-3.37198e-05
0.0123959
-2.72049e-05
0.00989298
-1.85944e-05
0.00711597
-1.03567e-05
0.0042375
-1.96043e-06
0.00138279
4.03083e-05
8.15152e-05
7.94028e-05
0.000274988
-4.06919e-08
0.000275451
-1.33062e-07
0.0011511
-4.99426e-07
4.8106e-07
0.00194603
-7.00969e-07
-4.20775e-06
0.00630152
3.67332e-06
0.00194917
8.85055e-07
0.00114978
2.58586e-07
2.56711e-08
-0.000274258
0.000275104
2.03181e-07
1.46109e-07
-7.89025e-05
7.84989e-05
-6.17501e-06
0.00934704
-6.73871e-06
0.0120666
-1.25006e-05
0.0142361
-2.00403e-05
0.0156417
-2.53776e-05
0.0161484
-3.70109e-05
0.0157112
-3.42286e-05
0.0144067
-3.68262e-05
0.0124056
-3.09269e-05
0.00990532
-2.0297e-05
0.00712591
-1.07712e-05
0.00424631
-2.6616e-06
0.00138545
7.84582e-05
7.83251e-05
0.000274829
-2.25009e-07
0.000275121
1.898e-07
0.00114877
-8.69192e-08
4.01004e-07
0.00194503
-6.87317e-08
-9.01474e-07
0.00629435
1.89667e-06
0.0019481
6.03081e-07
0.00114954
-1.60516e-07
2.71959e-07
-0.000275009
0.000275203
6.54279e-08
1.37128e-07
-7.84712e-05
7.86744e-05
-1.50105e-07
0.00934046
-6.38495e-06
0.0120605
-1.08228e-05
0.0142269
-1.47893e-05
0.0156311
-2.77632e-05
0.0161392
-4.11265e-05
0.015718
-5.07925e-05
0.0144207
-4.38449e-05
0.0124185
-3.66489e-05
0.00992167
-2.57257e-05
0.00714086
-1.12291e-05
0.00425488
-3.42818e-06
0.00138888
7.84494e-05
7.86392e-05
0.000275104
1.12714e-08
0.000275427
7.81801e-08
0.00114892
2.13309e-07
3.32592e-07
0.00194733
-1.33693e-07
6.27852e-07
0.00629159
1.9868e-06
0.00194786
1.37051e-06
0.00114953
1.39954e-07
-1.47044e-07
-0.000275742
0.000275547
3.42976e-08
-4.3432e-08
-7.87763e-05
7.88417e-05
-3.23525e-07
0.00933439
4.31271e-07
0.0120492
-6.2193e-06
0.0142184
-2.53951e-05
0.0156287
-3.88388e-05
0.0161369
-4.98859e-05
0.0157171
-5.85949e-05
0.0144354
-5.77658e-05
0.0124396
-4.66468e-05
0.00994259
-2.72147e-05
0.00715685
-1.1286e-05
0.00426274
-2.36705e-06
0.00139125
7.8853e-05
7.89311e-05
0.000275809
-4.80174e-08
0.000276018
1.23121e-07
0.00114868
3.33585e-07
3.90893e-07
0.00194824
2.50071e-07
4.88463e-07
0.00628886
1.91006e-06
0.00194877
1.45062e-06
0.00115011
2.52821e-07
-3.18568e-07
-0.000275711
0.000275894
-4.26922e-08
1.59755e-07
-7.88877e-05
7.8922e-05
5.52532e-06
0.0093293
6.81946e-07
0.0120423
-1.01107e-05
0.0142031
-2.46867e-05
0.0156146
-4.95172e-05
0.0161365
-6.68266e-05
0.0157254
-7.22786e-05
0.01445
-6.79209e-05
0.0124609
-4.96358e-05
0.00996501
-2.96665e-05
0.00717523
-1.43019e-05
0.00427467
-3.08139e-06
0.00139433
7.8874e-05
7.89971e-05
0.000276213
1.40416e-08
0.000276743
-1.38614e-07
0.0011504
-3.08881e-07
2.72533e-07
0.00194834
9.21128e-07
2.0229e-06
0.00628988
2.48944e-06
0.00194995
2.95307e-07
0.00115132
1.96091e-07
3.3044e-07
-0.000276281
0.000276494
3.99643e-08
1.43137e-07
-7.91568e-05
7.91141e-05
2.28461e-06
0.0093277
-2.66393e-06
0.0120349
-1.93942e-05
0.0141978
-4.26809e-05
0.0156077
-6.95661e-05
0.0161393
-9.10389e-05
0.0157441
-9.60852e-05
0.0144781
-7.91781e-05
0.0124904
-5.4478e-05
0.00998982
-3.013e-05
0.00719106
-1.22506e-05
0.00428384
-3.39875e-06
0.00139773
7.91282e-05
7.89895e-05
0.000276254
-6.9536e-08
0.000276427
9.95696e-08
0.00115207
-1.55223e-07
3.23833e-07
0.00195068
1.29914e-06
1.99561e-06
0.00628978
3.85307e-07
0.00195201
1.15316e-06
0.00115193
2.60205e-07
1.80387e-07
-0.000276598
0.000277038
-2.44744e-07
1.60324e-07
-7.91327e-05
7.91726e-05
2.1489e-06
0.00932288
-5.899e-06
0.0120214
-2.30016e-05
0.0141781
-5.86151e-05
0.0155968
-9.06e-05
0.0161388
-0.000111019
0.0157591
-0.000106578
0.0145055
-8.61649e-05
0.0125221
-5.93776e-05
0.0100191
-3.28234e-05
0.00721163
-1.35641e-05
0.004294
-2.85971e-06
0.00140058
7.91031e-05
7.92026e-05
0.000276882
1.24328e-09
0.000277061
1.44994e-07
0.00115317
-2.74239e-07
3.30661e-07
0.00195379
2.15103e-07
1.95721e-06
0.006288
1.97284e-06
0.00195283
1.35397e-06
0.00115433
-2.85302e-07
2.76317e-07
-0.000277147
0.000277378
2.92525e-08
9.39271e-08
-7.9363e-05
7.91182e-05
-1.76941e-07
0.00931716
-1.33133e-05
0.0120117
-4.54374e-05
0.0141649
-8.76872e-05
0.0155939
-0.000128088
0.0161559
-0.000138023
0.0157905
-0.000128954
0.0145483
-9.53469e-05
0.0125581
-5.90109e-05
0.0100453
-3.19698e-05
0.00723004
-1.14507e-05
0.00430259
-1.94219e-06
0.00140253
7.91194e-05
7.92644e-05
0.000277095
8.3019e-09
0.000277317
1.08687e-07
0.00115387
3.25955e-07
3.5363e-07
0.00195391
8.69977e-07
1.87565e-06
0.00628546
4.90552e-07
0.00195548
4.02654e-07
0.00115524
-1.75919e-07
1.60466e-07
-0.00027749
0.000277469
-2.64157e-07
1.03975e-07
-7.93583e-05
7.93876e-05
-2.42472e-06
0.00930627
-2.3945e-05
0.0119902
-6.98243e-05
0.0141471
-0.00012622
0.015592
-0.000162798
0.0161807
-0.000170205
0.0158318
-0.000135717
0.0145887
-9.8309e-05
0.0125974
-6.07316e-05
0.010074
-2.85033e-05
0.00724709
-1.09833e-05
0.00431164
-1.79382e-06
0.00140432
7.93959e-05
7.95046e-05
0.000277766
2.80297e-08
0.000277945
1.75194e-07
0.00115559
3.45514e-07
1.74697e-07
0.00195621
1.15086e-06
1.95312e-06
0.00628051
5.63613e-07
0.00195631
3.86155e-07
0.00115603
1.6077e-07
-2.04595e-07
-0.000278044
0.000277837
3.15993e-08
6.07104e-08
-7.96085e-05
7.93444e-05
-8.51533e-06
0.00929084
-4.51988e-05
0.0119656
-0.000109414
0.0141303
-0.000170439
0.0155996
-0.000205101
0.0162156
-0.000182825
0.0158789
-0.000142633
0.014633
-9.59319e-05
0.0126326
-5.14939e-05
0.010097
-2.41113e-05
0.00726021
-8.76902e-06
0.00431861
-1.44394e-06
0.00140576
7.93724e-05
7.95476e-05
0.000278119
6.36637e-08
0.000278236
5.74008e-08
0.00115654
3.3443e-07
3.06028e-07
0.00195727
9.91771e-07
1.93358e-06
0.00627087
-8.03291e-07
0.00195745
3.88853e-07
0.001157
2.65265e-07
-3.36637e-07
-0.000277945
0.000278347
-2.42017e-07
8.67151e-08
-7.96083e-05
7.96398e-05
-1.77748e-05
0.00926342
-7.66806e-05
0.0119328
-0.000161555
0.0141214
-0.000228637
0.0156232
-0.000230265
0.016263
-0.000196586
0.0159328
-0.00014216
0.0146792
-8.60331e-05
0.0126671
-4.6768e-05
0.0101197
-2.06603e-05
0.00727211
-5.82073e-06
0.00432299
-3.87261e-07
0.00140615
7.97035e-05
7.97609e-05
0.000278623
5.89002e-08
0.000278816
1.12899e-07
0.00115792
3.48559e-07
-2.76656e-07
0.00195811
1.27039e-06
2.03041e-06
0.00625358
-2.51601e-06
0.0019572
1.05455e-07
0.00115782
1.5424e-07
3.3554e-07
-0.000278394
0.000278685
-2.55776e-08
8.50861e-08
-7.98476e-05
7.96056e-05
-3.84727e-05
0.00922521
-0.000130426
0.0119017
-0.000234559
0.0141273
-0.000275466
0.0156684
-0.000248706
0.0163151
-0.000187815
0.0159785
-0.000126263
0.0147195
-7.31953e-05
0.0126935
-3.87772e-05
0.0101378
-1.70699e-05
0.00728335
-3.45988e-06
0.00432606
-2.28336e-07
0.00140638
7.96645e-05
7.97773e-05
0.000278963
6.99426e-08
0.000278566
1.20458e-07
0.00115891
3.0903e-07
-1.27873e-07
0.00195891
3.26051e-07
2.0336e-06
0.00622145
-8.37444e-06
0.0019562
1.89373e-07
0.00115903
-1.47678e-07
1.31966e-07
-0.000279046
0.000279131
6.88254e-08
-1.43864e-07
-7.98624e-05
7.98368e-05
-7.69937e-05
0.00917178
-0.000205009
0.0118722
-0.000299106
0.0141509
-0.000296142
0.0157158
-0.000234453
0.0163618
-0.000168954
0.0160212
-0.00010732
0.0147536
-6.33089e-05
0.0127181
-3.24604e-05
0.0101532
-9.90902e-06
0.0072898
-2.65244e-06
0.00432848
7.79803e-07
0.0014056
7.99068e-05
8.00272e-05
0.00027943
9.68864e-09
0.000279257
4.50759e-08
0.00115888
3.14098e-07
1.63369e-07
0.00195777
4.68735e-07
-8.4429e-07
0.00616416
-1.88684e-05
0.00195108
-1.6931e-06
0.00115903
-2.91073e-07
3.3144e-07
-0.000279273
0.000279117
7.93256e-09
1.16811e-07
-7.98834e-05
7.99522e-05
-0.000146462
0.00911323
-0.000312971
0.011886
-0.000341526
0.0141963
-0.000284378
0.0157657
-0.000209203
0.016402
-0.000141225
0.0160551
-8.7243e-05
0.0147775
-4.79729e-05
0.0127336
-1.99038e-05
0.0101632
-5.99574e-06
0.00729315
1.3355e-06
0.00432793
1.16899e-06
0.00140443
7.99619e-05
8.00069e-05
0.000279418
1.26682e-08
0.000279477
1.05126e-07
0.00115927
3.19708e-07
-9.67768e-08
0.00195181
-1.57382e-06
-1.06466e-05
0.00607462
-4.6272e-05
0.00193711
-4.16578e-06
0.00115754
-1.05611e-07
1.4535e-07
-0.00027994
0.00027959
5.96616e-08
-1.32155e-07
-8.01237e-05
8.01317e-05
-0.00027788
0.00907814
-0.000369808
0.0119143
-0.000318387
0.0142303
-0.000237702
0.0157942
-0.000169039
0.0164298
-0.000107453
0.0160753
-6.40739e-05
0.0147936
-3.41228e-05
0.0127478
-1.15073e-05
0.0101687
-1.20468e-06
0.00729569
2.9317e-06
0.00432617
1.51791e-06
0.00140292
8.01444e-05
8.02495e-05
0.000279892
1.69827e-08
0.000279742
5.35866e-08
0.00115591
3.10489e-07
-2.47828e-07
0.00193376
-7.29122e-06
-5.41493e-05
0.00597297
-0.000122076
0.00190372
-1.62369e-05
0.00115166
-2.36216e-07
3.12257e-07
-0.000279768
0.000279855
-1.92818e-07
1.19501e-07
-8.01173e-05
8.0177e-05
-0.000386388
0.00909472
-0.000337123
0.011933
-0.000252626
0.0142452
-0.000183107
0.0158083
-0.00012342
0.0164458
-8.01037e-05
0.0160913
-4.26517e-05
0.0148021
-1.74253e-05
0.0127537
-4.9514e-06
0.0101724
2.89693e-06
0.00729572
3.46842e-06
0.00432422
2.82148e-06
0.0014001
8.0194e-05
8.02475e-05
0.000280151
1.44627e-08
0.000279798
1.05104e-07
0.00114457
3.69842e-07
-5.66642e-07
0.00187936
-2.97933e-05
-0.000171263
0.00596768
-0.000209837
0.00182086
-6.35765e-05
0.00112977
-1.55594e-06
1.19099e-07
-0.000280045
0.00027974
6.94249e-08
6.48011e-08
-8.0367e-05
8.01742e-05
-0.000334046
0.00909164
-0.000238918
0.0119193
-0.000174907
0.014237
-0.000128835
0.0158137
-8.85363e-05
0.0164542
-5.58453e-05
0.0161045
-2.97147e-05
0.0148144
-1.08128e-05
0.0127596
3.67464e-06
0.0101716
6.42187e-06
0.00729277
7.07743e-06
0.00431996
3.38112e-06
0.00139671
8.01887e-05
8.02938e-05
0.000280057
5.27794e-08
0.000279603
-1.127e-07
0.00110405
-4.32135e-07
-3.64518e-06
0.00178352
-0.000133918
-0.000180492
0.00591209
-9.79672e-05
0.00175157
-0.000177885
0.00105334
-1.08997e-05
-1.96743e-06
-0.000279551
0.000278241
-2.46757e-07
1.70833e-07
-8.03586e-05
8.0428e-05
-0.000182858
0.00903558
-0.000146768
0.0118912
-0.000116414
0.0142246
-8.39349e-05
0.0158091
-5.73103e-05
0.0164557
-3.17099e-05
0.0161065
-1.39141e-05
0.0148175
-3.12197e-07
0.0127636
7.81927e-06
0.0101703
1.28913e-05
0.00728696
9.99756e-06
0.00431335
3.79729e-06
0.00139292
8.04808e-05
8.0368e-05
0.000278018
-2.0884e-07
0.000274594
-2.21086e-07
0.000972102
-1.45755e-05
-3.81017e-05
0.00170691
-0.000135839
-6.22128e-05
0.0058093
-1.78545e-05
0.00166672
-5.77714e-05
0.000924655
-6.65193e-05
-6.39197e-05
-0.000273217
0.00026413
-1.81222e-06
-5.9066e-07
-8.05389e-05
8.02921e-05
-8.52527e-05
0.00897406
-8.11684e-05
0.0118559
-6.90263e-05
0.0142097
-5.21035e-05
0.0158039
-3.35373e-05
0.0164575
-1.52192e-05
0.0161078
-5.49543e-07
0.0148178
1.1962e-05
0.0127594
1.58106e-05
0.0101673
1.44799e-05
0.00728247
9.51374e-06
0.00430763
4.81804e-06
0.0013881
8.00832e-05
7.98621e-05
0.000253623
-4.06901e-06
0.000225731
-1.02102e-05
0.000857585
-4.90441e-05
-1.97241e-05
0.00162754
-2.30325e-05
-1.83374e-05
0.00574223
1.49558e-07
0.00161686
-7.18155e-06
0.000807912
-1.35324e-06
-6.74592e-06
-0.000184345
0.000158472
-4.06467e-05
-2.25332e-05
-7.92715e-05
7.74592e-05
-4.03548e-05
0.00893325
-4.28235e-05
0.0118297
-3.81021e-05
0.0141957
-2.89719e-05
0.0157993
-1.58042e-05
0.0164581
-2.88235e-06
0.0161101
1.29484e-05
0.0148168
1.58514e-05
0.0127594
2.06614e-05
0.0101612
1.75363e-05
0.00727445
1.35946e-05
0.00429885
5.06713e-06
0.00138303
7.33902e-05
6.31799e-05
0.000109428
8.9704e-05
0.000785584
-7.30857e-07
2.63695e-08
0.00160218
-3.65299e-06
-7.2558e-06
0.00570584
3.2944e-06
0.00160268
-3.57922e-07
0.000778393
2.83003e-07
-2.74512e-07
-8.2958e-05
8.16047e-05
-4.06467e-05
-1.79659e-05
0.00890839
-2.16844e-05
0.0118133
-1.83672e-05
0.0141851
-7.34805e-06
0.0157909
5.10937e-07
0.0164547
1.27492e-05
0.0161103
1.58796e-05
0.0148168
2.52995e-05
0.0127547
2.48872e-05
0.0101538
2.31848e-05
0.00726486
1.56678e-05
0.00428825
5.87837e-06
0.00137715
8.08738e-05
8.09002e-05
0.000774663
-4.31785e-08
1.1976e-07
0.00159643
-1.00686e-06
-4.35795e-06
0.00568834
3.88498e-06
0.00159861
1.12268e-06
0.000774246
1.15049e-07
-5.56795e-08
-8.06256e-05
8.09086e-05
-4.5154e-06
0.00889122
-8.25372e-06
0.0118032
-3.4762e-06
0.0141812
3.48891e-06
0.0157879
1.41956e-05
0.0164533
1.99349e-05
0.0161063
3.18047e-05
0.0148103
3.25794e-05
0.0127471
3.24657e-05
0.0101445
2.77582e-05
0.00725277
1.74105e-05
0.00427672
6.80524e-06
0.00137035
8.08654e-05
8.09851e-05
0.000772975
1.01377e-07
1.61735e-07
0.00159416
9.27002e-08
-2.09549e-06
0.00568245
3.46894e-06
0.00159796
7.97012e-08
0.00077402
1.91472e-07
-1.13252e-07
-8.09295e-05
8.10444e-05
-2.25788e-07
0.00888319
2.25467e-06
0.0117975
5.52526e-06
0.0141792
1.18572e-05
0.0157903
2.39839e-05
0.0164492
3.067e-05
0.0161074
3.19451e-05
0.0148109
3.61904e-05
0.0127433
3.49103e-05
0.0101374
3.11446e-05
0.00723904
2.06925e-05
0.00426283
7.79351e-06
0.00136255
8.11458e-05
8.13075e-05
0.000773951
8.72853e-08
7.40935e-08
0.00159551
3.58694e-07
-9.67682e-07
0.00568044
2.75225e-06
0.0015981
8.73638e-07
0.000774143
3.24523e-08
-1.45496e-07
-8.11942e-05
8.13856e-05
2.72291e-06
0.00888272
8.91075e-06
0.0117941
1.57665e-05
0.0141753
2.31946e-05
0.015791
2.70953e-05
0.0164528
4.05534e-05
0.0160988
4.62897e-05
0.0148008
4.84061e-05
0.0127298
4.27567e-05
0.0101258
3.59439e-05
0.00722379
2.31361e-05
0.00424749
8.76329e-06
0.00135379
8.14729e-05
8.1547e-05
0.000774384
5.84894e-08
5.90504e-08
0.0015973
-1.71225e-07
6.01335e-08
0.00568032
2.7887e-06
0.00159916
8.98066e-07
0.00077533
4.67736e-08
-1.1943e-07
-8.14015e-05
8.14339e-05
7.18707e-06
0.00888444
1.39762e-05
0.0117959
1.8335e-05
0.0141801
3.22241e-05
0.0157859
4.2178e-05
0.0164512
4.70299e-05
0.0160981
4.9602e-05
0.0147996
5.36453e-05
0.0127189
5.06922e-05
0.010111
4.13509e-05
0.00720557
2.69315e-05
0.00422932
9.64265e-06
0.00134415
8.14923e-05
8.15513e-05
0.000775026
6.37668e-08
6.91254e-08
0.00159856
6.59517e-07
1.52698e-07
0.00568447
2.88437e-06
0.00160074
6.07834e-07
0.000775896
-5.84963e-08
8.60698e-08
-8.14319e-05
8.14786e-05
8.49377e-06
0.00888992
1.54222e-05
0.0117988
2.79004e-05
0.0141845
3.5404e-05
0.0157927
4.41738e-05
0.016454
5.44397e-05
0.0160932
6.17375e-05
0.0147915
6.07106e-05
0.0127089
5.82886e-05
0.0100941
4.52231e-05
0.00718728
3.00187e-05
0.00420895
1.0981e-05
0.00133317
8.15423e-05
8.16114e-05
0.000776414
6.62425e-08
7.50764e-08
0.0016002
6.94405e-07
1.34361e-06
0.00568856
3.05832e-06
0.00160244
6.43955e-07
0.00077691
5.12968e-08
5.98303e-08
-8.16975e-05
8.16389e-05
1.04677e-05
0.00889488
1.98828e-05
0.0118068
2.90529e-05
0.0141908
4.19678e-05
0.0157949
5.52671e-05
0.0164532
6.28235e-05
0.0160921
7.1044e-05
0.0147812
7.019e-05
0.012697
6.58973e-05
0.0100734
5.40009e-05
0.0071633
3.25207e-05
0.00418741
1.1888e-05
0.00132128
8.17051e-05
8.17802e-05
0.000777669
-1.17281e-07
5.28164e-08
0.00160305
7.30719e-07
3.93557e-07
0.00569557
3.05885e-06
0.00160531
7.99371e-07
0.000778199
5.56206e-08
5.77449e-08
-8.184e-05
8.18912e-05
1.17352e-05
0.00890302
2.18802e-05
0.011814
3.53384e-05
0.0141974
4.67804e-05
0.0158034
6.17223e-05
0.0164543
7.23228e-05
0.0160909
7.78107e-05
0.0147735
8.42844e-05
0.0126786
7.54904e-05
0.0100519
6.05145e-05
0.0071353
3.7836e-05
0.00416146
1.21826e-05
0.0013091
8.17739e-05
8.18267e-05
0.000778734
6.8464e-08
1.27336e-07
0.00160493
7.65433e-07
1.48398e-06
0.00570271
3.11042e-06
0.00160725
7.43641e-07
0.000779522
9.32377e-08
-8.21683e-08
-8.18845e-05
8.194e-05
1.17901e-05
0.00891312
2.44791e-05
0.0118248
4.14582e-05
0.0142028
5.88396e-05
0.0158063
7.20908e-05
0.0164545
8.57264e-05
0.016083
9.35181e-05
0.0147643
9.28955e-05
0.0126612
8.60996e-05
0.0100263
6.6329e-05
0.00710681
4.03071e-05
0.00413333
1.06e-05
0.0012985
8.20084e-05
8.21357e-05
0.000780141
7.28244e-08
7.34695e-08
0.00160796
7.76907e-07
3.31046e-07
0.00571142
2.75119e-06
0.00161031
7.56595e-07
0.000780948
4.87595e-08
-1.13164e-07
-8.20536e-05
8.21467e-05
1.31332e-05
0.00892446
2.84838e-05
0.0118378
4.60543e-05
0.0142156
6.52272e-05
0.0158131
8.08768e-05
0.0164594
9.39901e-05
0.0160825
0.000105617
0.0147516
0.000101753
0.0126456
9.52518e-05
0.0099974
7.55122e-05
0.00707161
4.30662e-05
0.00410087
1.31986e-05
0.0012853
8.22195e-05
8.2293e-05
0.000781586
6.84954e-08
7.03847e-08
0.00160997
6.7436e-07
8.75897e-07
0.00572253
1.14814e-06
0.00161225
4.63016e-07
0.000782397
-1.12537e-07
5.75977e-08
-8.21798e-05
8.22285e-05
1.6274e-05
0.00893667
3.29539e-05
0.0118509
5.53307e-05
0.0142255
7.16302e-05
0.0158224
9.24992e-05
0.0164609
0.000107928
0.0160802
0.000117157
0.0147362
0.000120114
0.0126207
0.000106881
0.00996603
8.14306e-05
0.00703324
4.364e-05
0.00407043
3.16989e-05
0.0012536
8.2297e-05
8.23673e-05
0.000782928
6.38497e-08
7.95758e-08
0.00161326
-1.3083e-07
2.07115e-06
0.00573412
2.60838e-06
0.00161621
-1.80102e-06
0.000783192
1.12379e-07
8.68063e-08
-8.24249e-05
8.23123e-05
1.99824e-05
0.00894964
3.97068e-05
0.0118665
5.89633e-05
0.0142381
8.28585e-05
0.015832
0.000105787
0.016463
0.000123757
0.0160736
0.000132875
0.0147234
0.000128801
0.0125988
0.000116254
0.00993121
8.68278e-05
0.00699005
7.42767e-05
0.00402785
7.38964e-05
8.23762e-05
8.24557e-05
0.000783155
3.43008e-08
-1.28235e-07
0.00162178
-3.50063e-06
4.17411e-06
0.00574446
5.47136e-06
0.00161935
6.51854e-06
-1.47409e-06
0.000781351
1.07036e-08
-7.78689e-09
-8.25425e-05
8.26549e-05
2.44169e-05
0.00896493
4.1753e-05
0.0118837
6.68649e-05
0.0142541
9.21102e-05
0.0158457
0.000115634
0.0164711
0.000134969
0.0160715
0.000146857
0.0147054
0.000148067
0.012567
0.000129969
0.00988806
0.000114918
0.00694941
0.000135822
8.26891e-05
8.25609e-05
0.00046107
-9.32402e-09
-2.47583e-07
0.000317037
0.00162207
-5.55355e-07
2.0026e-06
5.23278e-06
0.00575817
5.47469e-06
0.00162381
1.4057e-06
2.32465e-06
0.00048631
-1.87211e-05
0.0004917
-6.86429e-06
-8.25531e-05
8.25637e-05
2.40865e-05
0.0089826
4.88077e-05
0.0119018
7.50139e-05
0.0142712
0.000107864
0.0158535
0.00013551
0.0164706
0.000154956
0.0160634
0.00016531
0.0146881
0.000162153
0.0125348
0.000155121
0.00984786
0.00017921
8.25544e-05
8.23069e-05
0.000295247
3.06897e-06
0.000493524
-2.37917e-06
0.000496231
-7.04085e-07
0.00162594
1.25635e-06
1.85455e-06
4.38456e-06
0.00577357
4.30255e-06
0.00162922
7.74017e-07
1.41455e-06
0.000497075
5.61201e-07
0.000498186
1.21338e-06
0.000289747
-1.36452e-06
2.74266e-05
0.00900398
5.34449e-05
0.0119234
8.5726e-05
0.0142933
0.000117214
0.0158718
0.000145885
0.0164797
0.000171614
0.0160571
0.000177943
0.0146723
0.000187207
0.0125027
0.000210872
8.53758e-05
0.00028843
-1.06284e-06
0.000288096
-3.69604e-07
0.000498785
6.57204e-07
0.000499841
7.9934e-07
0.00163165
6.15873e-07
1.34115e-06
5.60086e-06
0.00579064
4.75702e-06
0.00163426
6.48742e-07
1.04445e-06
0.000500387
2.27257e-07
0.000501005
7.97066e-07
0.000288602
5.53697e-08
0.000289721
9.3993e-08
8.40113e-05
3.0205e-05
0.00902722
6.17838e-05
0.0119473
9.72662e-05
0.0143133
0.000134766
0.0158829
0.000165898
0.0164854
0.000183277
0.0160517
0.000208137
0.0146514
0.000229242
8.29485e-05
8.25788e-05
0.000290113
2.64965e-07
0.000290662
2.50296e-07
0.000500966
6.54867e-07
0.00050209
2.17097e-07
0.00163796
7.50586e-07
1.14546e-06
6.08813e-06
0.00580953
5.22529e-06
0.00164083
7.3569e-07
1.15781e-06
0.000502331
4.07542e-07
0.000502839
5.36815e-07
0.000290701
1.88664e-07
0.000291336
1.6243e-07
8.26342e-05
8.27282e-05
3.62421e-05
0.00905276
6.82864e-05
0.0119763
0.000109719
0.0143383
0.000148023
0.0159007
0.000176357
0.0164923
0.000211711
0.0160482
0.00023483
8.29931e-05
8.32434e-05
0.000291832
1.58498e-07
0.000292093
-4.44532e-08
0.000503266
3.23176e-07
0.000503958
4.53478e-07
0.00164485
8.3373e-07
1.23472e-06
5.72596e-06
0.00583412
5.92637e-06
0.00164806
8.14919e-07
1.19498e-06
0.000504228
4.65818e-07
0.000505175
2.11018e-07
0.000292383
1.17853e-07
0.000292805
1.15291e-07
8.34321e-05
8.35945e-05
3.89771e-05
0.00908207
8.07589e-05
0.0120053
0.000124783
0.0143616
0.000161402
0.0159157
0.000200261
0.0165038
0.000223905
8.3753e-05
8.37085e-05
0.000293006
1.21875e-07
0.00029333
1.2971e-07
0.000505231
7.77503e-07
0.000505963
5.02909e-07
0.00165135
9.15496e-07
1.52312e-06
7.5424e-06
0.00585901
6.5385e-06
0.00165522
7.31515e-07
1.32634e-06
0.000506697
8.08996e-08
0.000507288
6.03641e-07
0.000293835
-3.96641e-08
0.000293909
1.3681e-07
8.38264e-05
8.39417e-05
4.67206e-05
0.00911611
9.1382e-05
0.0120387
0.000134638
0.0143883
0.000175634
0.0159403
0.000199106
8.40636e-05
8.41933e-05
0.000294501
1.86266e-07
0.000294854
1.49803e-07
0.000507428
7.75932e-07
0.000508807
1.43938e-07
0.00165999
1.09189e-06
1.67707e-06
8.98537e-06
0.00588899
7.75826e-06
0.00166407
9.30531e-07
1.52822e-06
0.000509034
5.04945e-07
0.000509686
6.74183e-07
0.000294811
1.2354e-07
0.000295476
-6.1448e-08
8.41536e-05
8.42904e-05
5.56133e-05
0.00915188
0.000106935
0.0120664
0.000146666
0.0144173
0.000160442
8.44767e-05
8.46265e-05
0.000296112
1.40457e-07
0.000296127
1.28436e-07
0.000510313
4.64347e-07
0.000511381
6.09598e-07
0.00166985
1.30267e-06
1.90136e-06
1.00738e-05
0.00592464
9.89289e-06
0.00167472
1.16326e-06
1.72381e-06
0.000511701
6.10564e-07
0.00051272
5.08771e-07
0.000296437
1.95407e-07
0.000297138
-2.74681e-08
8.47501e-05
8.46886e-05
7.01906e-05
0.00918862
0.000111998
0.012101
0.000117755
8.48291e-05
8.49575e-05
0.000297449
1.53598e-07
0.000297893
1.65407e-07
0.000513169
8.54328e-07
0.000514339
7.30704e-07
0.00168111
2.10809e-06
1.57946e-06
1.37072e-05
0.0059665
1.46216e-05
0.00168768
1.92758e-06
1.39287e-06
0.000515187
3.15607e-07
0.000515947
9.63292e-07
0.00029833
1.74375e-07
0.00029866
1.78079e-07
8.51529e-05
8.51255e-05
8.20371e-05
0.00921858
7.3991e-05
8.52791e-05
8.54445e-05
0.000299289
2.2515e-07
0.000299992
2.84957e-08
0.000517111
9.44525e-07
0.00051828
4.10717e-07
0.00169639
2.51523e-06
2.48696e-06
1.91876e-05
0.00600603
2.33145e-05
0.00170468
2.88163e-06
3.44624e-06
0.0005194
8.06792e-07
0.000519757
1.03671e-06
0.000300126
1.81409e-07
0.000300901
1.88414e-07
8.56189e-05
8.57969e-05
4.44127e-05
8.60221e-05
8.60506e-05
0.000301638
2.06971e-07
0.000301844
2.04917e-07
0.000521188
1.08392e-06
0.000523041
6.33567e-07
0.00171564
4.0891e-06
4.13847e-06
4.24994e-05
1.5684e-05
0.00172656
4.92648e-06
7.47047e-06
0.000524696
1.22734e-06
0.000526202
1.93987e-06
0.000302622
2.92506e-08
0.000303462
1.96664e-07
8.6232e-05
8.64204e-05
8.66274e-05
8.68323e-05
0.000304319
2.26692e-07
0.000304711
2.41783e-07
0.000528566
1.7255e-06
0.000530436
2.26806e-06
0.00174422
1.00114e-05
1.48252e-05
2.14453e-05
8.87016e-06
0.00053289
2.47209e-06
0.000536628
3.7323e-06
0.000305636
3.01606e-07
0.000307193
3.83194e-07
8.68615e-05
8.70582e-05
8.72849e-05
8.75267e-05
0.000308491
4.27276e-07
0.000310156
6.03094e-07
0.000539717
6.92298e-06
0.000544199
1.03432e-05
0.00055039
1.52543e-05
1.33539e-05
0.000312026
6.02529e-07
0.000314771
9.87539e-07
8.78283e-05
8.82115e-05
8.86388e-05
8.92419e-05
0.000319652
2.04138e-06
0.00032525
4.74511e-06
0.000330493
1.00114e-05
2.05838e-05
8.98444e-05
9.08319e-05
9.28733e-05
9.76184e-05
0.00010763
1.38021e-05
-1.38021e-05
-5.92128e-05
2.01333e-05
5.2882e-05
7.12346e-06
-2.09253e-05
-7.15691e-05
1.94802e-05
-0.000118094
2.69867e-05
0.000111242
1.63669e-05
3.65156e-05
3.52614e-06
-2.4451e-05
1.19241e-05
-7.99664e-05
-0.000128449
2.98354e-05
-2.30511e-05
-0.000409697
6.41868e-05
0.000395552
0.000104558
6.90489e-06
2.96112e-05
1.5606e-06
-2.60113e-05
1.87615e-05
-0.000135286
7.02049e-06
-8.5426e-05
6.77213e-05
-0.000428821
-4.17986e-05
-0.0014324
0.0013854
0.000152983
-1.48129e-05
0.000375386
-6.8177e-06
9.66502e-05
2.38742e-06
2.72248e-05
8.13921e-07
-2.68254e-05
1.45586e-05
-0.000142823
4.06378e-06
-8.8676e-05
-4.3291e-05
0.00016268
-0.00148406
-7.66767e-06
-0.000449886
-2.50273e-05
0.000109922
-1.18592e-05
-0.00200836
0.00195327
0.000208076
0.000356649
-4.41047e-06
-1.87641e-06
9.22205e-05
1.05576e-06
2.61703e-05
3.08729e-07
-2.71346e-05
-0.000146427
2.32461e-06
-9.0693e-05
0.000220261
-0.00206594
-3.15117e-05
0.000133919
-0.001567
-1.94699e-05
-6.51247e-06
-0.00047129
-3.59655e-06
0.000182448
-1.46373e-06
-0.00233752
0.00227784
0.000267759
8.88662e-05
-4.85491e-07
8.74762e-05
2.56849e-05
3.43717e-07
-2.74793e-05
-0.000150616
1.62008e-06
-9.197e-05
0.000281328
-0.00239859
0.000214527
-0.00214655
0.00011931
-0.00165176
-1.62629e-05
-1.82779e-05
-0.000484226
-2.59936e-06
-3.93598e-06
-0.000152592
0.000250243
-2.20299e-07
-0.00240888
0.00235345
0.000323186
2.98158e-07
-2.77778e-05
1.54201e-06
-9.32143e-05
0.000336281
-0.00246383
0.000288075
-0.00247214
0.000211926
-0.00223917
0.000126504
-0.00173883
-2.08716e-05
-1.85564e-05
0.000496667
-0.000506965
-1.6051e-06
-4.36211e-06
-3.01938e-06
-2.8192e-06
0.000154986
-1.28683e-06
-0.0001563
0.000309158
-0.00220582
0.00216406
0.000364944
2.91412e-07
-2.80701e-05
-9.42101e-05
0.000375692
-0.00224523
0.000348087
-0.00252384
0.000295706
-0.00255591
0.000223684
-0.00233634
0.000150568
-0.00183578
-3.21112e-05
-2.14934e-05
0.000518618
-0.000531487
-8.00373e-06
-6.90468e-06
0.000159953
-0.000151624
-9.93492e-06
0.000159324
-3.73404e-06