/*--------------------------------*- C++ -*----------------------------------*\
| =========                 |                                                 |
| \\      /  F ield         | OpenFOAM: The Open Source CFD Toolbox           |
|  \\    /   O peration     | Version:  v1912                                 |
|   \\  /    A nd           | Website:  www.openfoam.com                      |
|    \\/     M anipulation  |                                                 |
\*---------------------------------------------------------------------------*/
FoamFile
{
    version     2.0;
    format      ascii;
    class       volScalarField;
    location    "60";
    object      p;
}
// * * * * * * * * * * * * * * * * * * * * * * * * * * * * * * * * * * * * * //

dimensions      [0 2 -2 0 0 0 0];


internalField   nonuniform List<scalar> 
3673
(
0.00749824
0.00780022
0.00718625
0.00809878
0.0074817
0.00688533
0.00835691
0.00777765
0.00717806
0.00659545
0.00858021
0.00803591
0.00747122
0.00688429
0.00631458
0.00875811
0.008259
0.00772833
0.00718075
0.00660065
0.00603304
0.00887621
0.00843407
0.00795137
0.00744138
0.00689284
0.00631444
0.0057573
0.00891455
0.00855082
0.00812709
0.00766051
0.00714942
0.00660156
0.00603372
0.00548714
0.00886446
0.00859518
0.00824608
0.00783294
0.0073715
0.00686035
0.00631805
0.00575931
0.00522143
0.00873621
0.00855943
0.00830133
0.00795561
0.00754518
0.00708353
0.00657402
0.00603556
0.00548531
0.00497002
0.00855511
0.00844162
0.00828512
0.00801876
0.00766346
0.00725601
0.00679468
0.00628608
0.0057567
0.00522759
0.00472785
0.00835469
0.00825568
0.00819831
0.00802064
0.00772782
0.00737543
0.00696821
0.00650721
0.00600229
0.00548819
0.00497864
0.00449976
0.00819086
0.00800862
0.00805988
0.0079703
0.00773664
0.00743624
0.00708622
0.00667929
0.00621694
0.00572129
0.00523154
0.00474317
0.00427849
0.00812566
0.00771673
0.00788062
0.00788481
0.00769337
0.00743753
0.00714676
0.0067991
0.00639297
0.00593496
0.00545989
0.00498728
0.00451898
0.00407361
0.00746224
0.00786982
0.00820201
0.00762994
0.00779476
0.00761305
0.00738621
0.00714787
0.00686328
0.00652109
0.00611195
0.00566389
0.00520195
0.00475553
0.00430897
0.00387708
0.00731864
0.00714612
0.00766424
0.00789889
0.00810607
0.00830818
0.00770344
0.00751291
0.00728987
0.00709284
0.00686844
0.00659054
0.00623997
0.00583482
0.00539868
0.00496464
0.00454071
0.00410702
0.00368944
0.00755661
0.00743708
0.00707776
0.00708812
0.00772356
0.00772856
0.0079116
0.00809323
0.00825759
0.00792572
0.00741106
0.00716491
0.00699538
0.00681909
0.00660148
0.00631684
0.0059682
0.00556964
0.00515427
0.0047434
0.00433777
0.00391669
0.00350769
0.00726847
0.00730424
0.00741074
0.00741563
0.00665612
0.00690723
0.00759408
0.00778411
0.00756521
0.00771581
0.00782921
0.00812016
0.00803065
0.00828321
0.00789931
0.00702994
0.00687308
0.00672935
0.00655814
0.00633723
0.00605239
0.00570563
0.00531826
0.0049234
0.00453779
0.00414471
0.00373108
0.00333262
0.00689041
0.00701245
0.00708036
0.00716409
0.00738455
0.00744533
0.00739563
0.00605912
0.00712046
0.00826451
0.00781128
0.00768872
0.00766208
0.00767023
0.00778425
0.00809625
0.00798088
0.00823017
0.00788116
0.0067361
0.00661376
0.00647349
0.0063032
0.00608036
0.00579537
0.00545121
0.00508146
0.00471194
0.00433772
0.00395863
0.00355204
0.00316652
0.00659969
0.0067236
0.00680297
0.0068999
0.00700114
0.00705797
0.00706862
0.00724722
0.00721973
0.00738673
0.00770323
0.0048
0.00850142
0.00801983
0.00749301
0.00759177
0.00757611
0.00807934
0.00819076
0.00648458
0.00636329
0.00622493
0.0060537
0.00583212
0.00554435
0.00520967
0.00485771
0.00450635
0.00415604
0.00377742
0.00338109
0.00300852
0.00634933
0.0064531
0.00654467
0.00663764
0.006752
0.00682133
0.00685391
0.00695556
0.00692823
0.00700656
0.00705706
0.00720622
0.00713391
0.00240547
0.00623987
0.0061181
0.00598531
0.00581619
0.00558849
0.00530342
0.0049803
0.0046483
0.00432247
0.00397278
0.00360188
0.00321728
0.00286407
0.00610573
0.00620267
0.00629531
0.00637538
0.00649017
0.00655838
0.00660678
0.00672548
0.0066797
0.00677974
0.00684186
0.00693081
0.00689349
0.0060014
0.00589006
0.00575643
0.00558185
0.00535216
0.0050712
0.00476381
0.00445632
0.00413842
0.00379866
0.00343658
0.00306817
0.00272816
0.00587302
0.00596102
0.00605279
0.00612839
0.00623998
0.00629627
0.00634927
0.00646906
0.00641579
0.00651867
0.00659222
0.00670058
0.0066512
0.00577911
0.00566582
0.00552952
0.0053531
0.00512175
0.00484876
0.00456102
0.00426946
0.00396442
0.00362803
0.00327887
0.00292789
0.00261177
0.00565416
0.00572945
0.00582461
0.00589024
0.005996
0.00604879
0.00609993
0.00621538
0.00616175
0.00625733
0.00633099
0.00644198
0.00638767
0.00555678
0.00544858
0.00531089
0.00512663
0.00489843
0.0046379
0.00436658
0.0040902
0.00378938
0.00346521
0.0031328
0.00280189
0.00250431
0.0054374
0.00551386
0.00560415
0.00566447
0.00576627
0.00581274
0.00586261
0.00597225
0.00592071
0.00601019
0.00607756
0.00618555
0.00613594
0.00534741
0.00523796
0.00509375
0.00491195
0.00468536
0.00443656
0.00418232
0.00391675
0.00362838
0.00331571
0.0030003
0.00269269
0.00241219
0.00523222
0.0053024
0.00539056
0.0054491
0.00554621
0.00558859
0.00564034
0.00574285
0.0056913
0.00577535
0.00584036
0.00594228
0.00589562
0.0051416
0.00502994
0.00488687
0.00469819
0.00447724
0.00424519
0.00400823
0.00375386
0.00347264
0.00317728
0.0028843
0.00259374
0.00232062
0.00503086
0.00509973
0.00518746
0.00524075
0.00533572
0.00537644
0.00542386
0.00552287
0.00547316
0.00554966
0.00562048
0.00571234
0.00566749
0.00494307
0.00482924
0.00467802
0.00448941
0.00427821
0.00406284
0.00384177
0.00359796
0.00333007
0.00305101
0.00277749
0.00249534
0.00224442
0.0048359
0.00490175
0.0049904
0.0050406
0.00513314
0.00517157
0.00521492
0.00531059
0.00527025
0.00533918
0.00540467
0.00549558
0.00544845
0.00474839
0.00463206
0.00447829
0.00428535
0.0040868
0.00389136
0.00368582
0.00345277
0.00319517
0.00293783
0.0026779
0.00241742
0.0021744
0.00464623
0.00470809
0.00479964
0.00484548
0.00493702
0.00497407
0.00501554
0.00510817
0.00506863
0.00514011
0.00519166
0.00528606
0.00524564
0.00456088
0.00444005
0.00427007
0.00408305
0.00390508
0.00373432
0.00354016
0.00331366
0.00307582
0.00283151
0.00259521
0.00234122
0.00211149
0.0044625
0.00451529
0.00461608
0.00465539
0.00474599
0.00478082
0.00482188
0.004911
0.00487448
0.00494374
0.00499303
0.00508294
0.00504468
0.00437274
0.00423649
0.00405975
0.00388585
0.00374028
0.00359127
0.00340145
0.0031838
0.0029609
0.00274171
0.00251027
0.00227659
0.00205548
0.00427598
0.00432705
0.00443311
0.00446584
0.00455864
0.00459237
0.0046343
0.00472126
0.0046824
0.00475064
0.00479998
0.0048859
0.00485124
0.00418242
0.0040285
0.00384283
0.00370395
0.00359822
0.0034548
0.00326557
0.00306012
0.00285632
0.00265098
0.00244195
0.00221419
0.00200212
0.00409581
0.00414069
0.00425052
0.00427763
0.00437624
0.0044046
0.00444343
0.00453268
0.00449858
0.00456295
0.00461325
0.00469735
0.00465837
0.00398572
0.00379157
0.00363028
0.00355806
0.00346915
0.00331854
0.00313175
0.00294096
0.00275825
0.00257269
0.00237503
0.00215958
0.00196034
0.0039097
0.00395012
0.00406851
0.00409173
0.00419287
0.0042185
0.00425934
0.00434748
0.00431456
0.00437488
0.0044168
0.00450638
0.00448447
0.00375422
0.00354136
0.00346781
0.00344029
0.00334143
0.00317473
0.00299499
0.00282894
0.00266881
0.0025039
0.00231935
0.0021133
0.00192387
0.00371236
0.0037534
0.00388616
0.00390642
0.00400769
0.00403139
0.00407827
0.00416724
0.0041271
0.00419002
0.00423333
0.00432088
0.00429999
0.00348301
0.00332473
0.00336849
0.00333654
0.00319145
0.0030208
0.00286454
0.00272264
0.00258983
0.00243973
0.00226908
0.00207248
0.00189494
0.00348777
0.00354586
0.00370592
0.00370969
0.00382073
0.00384432
0.00389352
0.00398227
0.00394309
0.00400315
0.00405446
0.00414243
0.00411077
0.0031479
0.00324248
0.00331125
0.00318546
0.00301934
0.00286973
0.00273932
0.00262806
0.00251627
0.00238645
0.0022214
0.00204122
0.00187299
0.00305785
0.00332845
0.00351833
0.00351279
0.00363347
0.00364855
0.00370582
0.00379784
0.00375369
0.00381861
0.00386934
0.00395656
0.00392941
0.00301574
0.00327843
0.00316252
0.00299138
0.00284651
0.00272328
0.00262338
0.00253759
0.00244928
0.00232897
0.00219127
0.00201446
0.00186123
0.00270519
0.00288221
0.0032826
0.00332836
0.00343732
0.00344092
0.00351109
0.00361124
0.00355451
0.00362701
0.00368399
0.00377155
0.00374094
0.00324313
0.00313579
0.00294321
0.00279792
0.00267924
0.00258382
0.00251167
0.00245246
0.00238473
0.00229278
0.00215372
0.00199993
0.00186035
0.00317061
0.00284355
0.00247602
0.00316987
0.00333013
0.00321118
0.00331502
0.00340811
0.00333681
0.00342158
0.00348644
0.00357955
0.00354751
0.00310593
0.00287272
0.00272815
0.00261205
0.00251639
0.00244761
0.00240467
0.00237487
0.00233183
0.00224597
0.0021382
0.00199073
0.00186659
0.00302572
0.00302894
0.00311254
0.00276406
0.00189119
0.00336197
0.00331247
0.0032543
0.00314761
0.00318711
0.00327082
0.00337898
0.00332553
0.00278996
0.00264258
0.00252968
0.00243054
0.00235693
0.00231407
0.00230092
0.0022983
0.00227568
0.00222135
0.00211621
0.00199732
0.0018979
0.00270385
0.00279839
0.00283573
0.00291681
0.00315211
0.0031734
0.00382091
0.00370258
0.001053
0.00323731
0.00313074
0.00316782
0.00310057
0.00254903
0.00244297
0.00233719
0.0022507
0.00219572
0.00218205
0.00219926
0.00222651
0.00223098
0.00219096
0.00212106
0.00202108
0.00194352
0.00246604
0.00258682
0.0026432
0.00271216
0.00277293
0.00281032
0.00280451
0.00302968
0.00295667
0.00342908
-0.00112768
0.00235357
0.00224412
0.00213972
0.00206561
0.00203614
0.00205299
0.00210305
0.00215877
0.0021917
0.00217867
0.00213677
0.00206034
0.00200544
0.00226785
0.00237979
0.00244842
0.0025302
0.00261788
0.00267045
0.00268842
0.00274801
0.0027347
0.00215453
0.00203663
0.0019398
0.00188363
0.00187734
0.00192288
0.00200602
0.00209566
0.00215518
0.00218185
0.00216391
0.00211863
0.00209581
0.0020651
0.00217479
0.00225138
0.00232739
0.00242333
0.00249111
0.00252053
0.00261731
0.00258094
0.0019453
0.00182788
0.00173786
0.00169492
0.00171438
0.00179514
0.001914
0.00203528
0.00213593
0.0021935
0.00221611
0.00220487
0.00220816
0.00186024
0.00196614
0.00205266
0.00212365
0.00222301
0.00227854
0.00232067
0.00242827
0.00238128
0.00173036
0.00161282
0.00153009
0.00150456
0.0015535
0.00166884
0.00182317
0.00198628
0.00213095
0.00222452
0.00229177
0.00230657
0.00234424
0.0016454
0.00175722
0.00184893
0.00191995
0.00201831
0.00207508
0.00211638
0.00222273
0.00217654
0.00151482
0.0013966
0.00131852
0.00131265
0.00139221
0.00154374
0.00174125
0.00195009
0.00212988
0.00228011
0.00237459
0.00244746
0.00251045
0.00143194
0.00154509
0.00163826
0.00171283
0.00181603
0.0018665
0.00191638
0.00201749
0.00197051
0.00129381
0.00116855
0.00109946
0.00111986
0.00123067
0.00142203
0.00166264
0.00191327
0.00214779
0.00234177
0.00250519
0.00261794
0.00274679
0.00121357
0.0013297
0.0014287
0.00150299
0.00160801
0.00166352
0.00170934
0.00181275
0.00176591
0.00106231
0.000934713
0.000879502
0.000923819
0.00107075
0.00130315
0.00158976
0.00189249
0.00218681
0.00244201
0.00266713
0.0028472
0.00301907
0.000988911
0.00111767
0.00121643
0.0012924
0.00139827
0.001455
0.00150307
0.00161267
0.00156092
0.00082269
0.000695537
0.000660426
0.000732761
0.000913833
0.00118756
0.00152622
0.0018937
0.00224084
0.002577
0.00284717
0.00329153
0.00123884
0.00075142
0.000900322
0.00100433
0.00108457
0.00118825
0.00124744
0.00129374
0.00139936
0.00135128
0.000569047
0.00045302
0.000444542
0.000540214
0.000754495
0.0010773
0.00147419
0.00189787
0.00233604
0.00269095
0.00335054
0.00145316
0.000493745
0.000674774
0.00078524
0.000873707
0.000978026
0.00104095
0.00108639
0.00119143
0.00114316
0.000304534
0.000224958
0.000224891
0.000342258
0.000597297
0.000973747
0.0014292
0.00193897
0.00238374
0.00314096
0.00151545
0.000230824
0.000338218
0.000544672
0.000674733
0.000772285
0.000825182
0.000877125
0.000980642
0.000931138
7.07205e-05
-3.0406e-06
-5.62202e-07
0.000143
0.000444833
0.000876663
0.00141232
0.00192346
0.00274516
0.00137456
-2.2146e-05
0.000190803
-3.75919e-05
0.000569189
0.000610436
0.000609254
0.000663653
0.000770287
0.000717602
-0.00014848
-0.000247592
-0.000236207
-5.46678e-05
0.000295644
0.000801006
0.00134511
0.0021905
0.00110863
-0.000235005
-9.43692e-05
4.80666e-05
-5.84758e-05
-0.000185227
-0.000713456
-0.0022695
0.00282554
0.000353858
0.000425073
0.000552695
0.000493107
-0.000398568
-0.00050922
-0.000475107
-0.000252983
0.000161791
0.000687927
0.00150758
0.000762278
-0.00047849
-0.000316915
-0.000204092
-0.000124737
-0.000100125
-5.38271e-05
-5.016e-05
-1.36273e-05
3.12903e-05
0.000457052
0.000767243
-0.000674262
-0.000780933
-0.000714973
-0.000441309
9.49353e-06
0.000741919
0.000368658
-0.000753609
-0.000567285
-0.000438564
-0.000340675
-0.000292143
-0.000227883
-0.000180208
-0.000134557
-0.000100006
-7.11337e-05
-3.95988e-05
-5.70966e-05
-3.56612e-05
0.00015398
-0.000966396
-0.00105705
-0.000954333
-0.000628156
-4.5282e-05
-3.22841e-05
-0.00105152
-0.000839401
-0.000698768
-0.00059834
-0.000532975
-0.000465822
-0.00040856
-0.000341896
-0.000284398
-0.00023006
-0.000178994
-0.00013718
-0.000102668
-8.51756e-05
-6.32579e-05
-0.0012691
-0.00134115
-0.00117219
-0.000790184
-0.000409879
-0.00136759
-0.00113441
-0.00097931
-0.000869208
-0.000797563
-0.000730209
-0.00065854
-0.000593913
-0.000532535
-0.000464065
-0.000404929
-0.000339934
-0.000278401
-0.000230576
-0.000175275
-0.00159142
-0.00159159
-0.00143568
-0.000737689
-0.00171773
-0.0014493
-0.00128105
-0.00115631
-0.00108415
-0.00100924
-0.000932391
-0.000861265
-0.000793707
-0.000726919
-0.000654245
-0.000590438
-0.000527749
-0.000462983
-0.000401009
-0.00188768
-0.00194734
-0.000999714
-0.00207378
-0.00180651
-0.00161407
-0.00146648
-0.00139142
-0.00130941
-0.00122745
-0.00114551
-0.00107501
-0.000999545
-0.00092907
-0.000854968
-0.000788967
-0.000720707
-0.000651969
-0.00233086
-0.00119508
-0.0026475
-0.00216234
-0.0019697
-0.00181411
-0.00172925
-0.00163535
-0.00154925
-0.00145307
-0.00137407
-0.00129706
-0.00122091
-0.00113658
-0.00107089
-0.000989424
-0.000922341
-0.00133198
-0.00155114
-0.00277411
-0.00240841
-0.00217848
-0.00208446
-0.00199634
-0.00190148
-0.00179109
-0.00170588
-0.00161893
-0.0015351
-0.00143634
-0.00136437
-0.00128554
-0.00121081
-0.00149991
-0.00301529
-0.00272394
-0.00257434
-0.00241103
-0.00228524
-0.00215478
-0.00205979
-0.0019709
-0.00188076
-0.00177138
-0.00168837
-0.0016023
-0.00151839
-0.00129242
-0.00316965
-0.00317728
-0.0028818
-0.00266488
-0.00252528
-0.00238663
-0.00226412
-0.00212083
-0.00203245
-0.00194404
-0.00185749
-0.00125006
-0.00348454
-0.00316949
-0.0028214
-0.00262032
-0.00247378
-0.00234284
-0.00222356
-0.00155047
-0.00378113
-0.00312218
-0.00277676
-0.131072
-0.131402
-0.129988
-0.132178
-0.13146
-0.130296
-0.129123
-0.133035
-0.132352
-0.131252
-0.130489
-0.129397
-0.128219
-0.133279
-0.133936
-0.133065
-0.130758
-0.129329
-0.129596
-0.128441
-0.127251
-0.134174
-0.134875
-0.134485
-0.134951
-0.131377
-0.127032
-0.127511
-0.128611
-0.127478
-0.126343
-0.135128
-0.135907
-0.1382
-0.135104
-0.136764
-0.13202
-0.127684
-0.123224
-0.125526
-0.127708
-0.126732
-0.126542
-0.125422
-0.136067
-0.13688
-0.141907
-0.138841
-0.138686
-0.13573
-0.137051
-0.132652
-0.128327
-0.123934
-0.123697
-0.119479
-0.121728
-0.125818
-0.124819
-0.125648
-0.124475
-0.137753
-0.145655
-0.142557
-0.142427
-0.140497
-0.139456
-0.138894
-0.137946
-0.136353
-0.133264
-0.128952
-0.12461
-0.120209
-0.12391
-0.122923
-0.119897
-0.115814
-0.117962
-0.122012
-0.120968
-0.124681
-0.123491
-0.138661
-0.149466
-0.146306
-0.146184
-0.144251
-0.143177
-0.142645
-0.141694
-0.140797
-0.139816
-0.140069
-0.136979
-0.133876
-0.129551
-0.125258
-0.12091
-0.116552
-0.123704
-0.122755
-0.119994
-0.118801
-0.116213
-0.112171
-0.114364
-0.117473
-0.121844
-0.120836
-0.122571
-0.139671
-0.153296
-0.150102
-0.149974
-0.148034
-0.146928
-0.146409
-0.145456
-0.144557
-0.143573
-0.143798
-0.142415
-0.141505
-0.140636
-0.1407
-0.13761
-0.134488
-0.130133
-0.125865
-0.121584
-0.117254
-0.112908
-0.119798
-0.1188
-0.115833
-0.112578
-0.1085
-0.110695
-0.114036
-0.116951
-0.117895
-0.121636
-0.120661
-0.156994
-0.153872
-0.153812
-0.151834
-0.150706
-0.150203
-0.149249
-0.148341
-0.147351
-0.147548
-0.146182
-0.145271
-0.1444
-0.14343
-0.144437
-0.141351
-0.138249
-0.135123
-0.13072
-0.126434
-0.122212
-0.117927
-0.113607
-0.109224
-0.119657
-0.118776
-0.116062
-0.11514
-0.112204
-0.108881
-0.104759
-0.107003
-0.110339
-0.113324
-0.114272
-0.160894
-0.157611
-0.157533
-0.155598
-0.154458
-0.154032
-0.153051
-0.152126
-0.151143
-0.151304
-0.149984
-0.149068
-0.14819
-0.147213
-0.148184
-0.145091
-0.142007
-0.138899
-0.135795
-0.131341
-0.126989
-0.122785
-0.118561
-0.114278
-0.109939
-0.105491
-0.112386
-0.111441
-0.108461
-0.105156
-0.10098
-0.103252
-0.106613
-0.109589
-0.110558
-0.16455
-0.161542
-0.161471
-0.159499
-0.15822
-0.157673
-0.156801
-0.15593
-0.154968
-0.155048
-0.153769
-0.152851
-0.151981
-0.151013
-0.151916
-0.148827
-0.145745
-0.142662
-0.139573
-0.136524
-0.132019
-0.127573
-0.123316
-0.119133
-0.114907
-0.110623
-0.106235
-0.101742
-0.108625
-0.107648
-0.104815
-0.101368
-0.097078
-0.0993732
-0.102897
-0.105754
-0.106721
-0.165436
-0.165413
-0.163344
-0.166875
-0.16799
-0.162114
-0.161679
-0.160722
-0.15983
-0.158755
-0.15882
-0.155559
-0.154738
-0.155651
-0.152537
-0.14946
-0.146387
-0.143319
-0.140281
-0.137316
-0.132769
-0.12822
-0.123847
-0.119651
-0.115474
-0.111254
-0.106941
-0.102507
-0.0979069
-0.104845
-0.104188
-0.100908
-0.0974481
-0.0931659
-0.0954608
-0.0989224
-0.102012
-0.103041
-0.169388
-0.166057
-0.167483
-0.165655
-0.164669
-0.163717
-0.162668
-0.169731
-0.169566
-0.16268
-0.15943
-0.156263
-0.153147
-0.150071
-0.147016
-0.143994
-0.141036
-0.138166
-0.133596
-0.128955
-0.124425
-0.120143
-0.115975
-0.111808
-0.107576
-0.103229
-0.0987087
-0.0940257
-0.103946
-0.10104
-0.10004
-0.0969779
-0.0935379
-0.0892708
-0.0915519
-0.0950223
-0.0981035
-0.099105
-0.101711
-0.102649
-0.170091
-0.166609
-0.168445
-0.168924
-0.167711
-0.166656
-0.171914
-0.169756
-0.171654
-0.163279
-0.160042
-0.156861
-0.153727
-0.150663
-0.147649
-0.144705
-0.14184
-0.139068
-0.134493
-0.129786
-0.125094
-0.120669
-0.116443
-0.11229
-0.108123
-0.103869
-0.099453
-0.0948519
-0.0901452
-0.10076
-0.099799
-0.0971285
-0.0961329
-0.0930735
-0.0896307
-0.0853827
-0.0876424
-0.0911121
-0.0941919
-0.0951952
-0.0978629
-0.0988447
-0.170638
-0.1672
-0.169687
-0.168692
-0.170873
-0.171962
-0.163878
-0.160622
-0.157411
-0.154282
-0.151253
-0.148311
-0.145456
-0.142686
-0.140002
-0.135448
-0.130703
-0.125878
-0.121284
-0.116936
-0.112731
-0.108586
-0.104409
-0.100107
-0.0956163
-0.0909806
-0.086262
-0.0968666
-0.0958929
-0.0932107
-0.0922153
-0.0891589
-0.0857199
-0.0814982
-0.0837329
-0.0871909
-0.0902709
-0.0912737
-0.0939434
-0.094929
-0.17121
-0.167772
-0.170727
-0.169512
-0.171779
-0.164424
-0.161132
-0.157911
-0.154828
-0.151867
-0.149011
-0.146249
-0.143564
-0.140966
-0.136443
-0.131698
-0.12678
-0.122027
-0.117517
-0.113191
-0.108996
-0.104851
-0.100644
-0.0962825
-0.0917523
-0.0870992
-0.0823637
-0.0929427
-0.0919677
-0.0892878
-0.0882915
-0.0852328
-0.0818074
-0.0775897
-0.0798314
-0.0832613
-0.086341
-0.0873449
-0.090016
-0.0910029
-0.171751
-0.168284
-0.170547
-0.171574
-0.164885
-0.161563
-0.158382
-0.155389
-0.152517
-0.149752
-0.147069
-0.144459
-0.141945
-0.137472
-0.132751
-0.127793
-0.122909
-0.118231
-0.113739
-0.10942
-0.105232
-0.101071
-0.0968226
-0.0924213
-0.0878674
-0.0831939
-0.0784209
-0.0890142
-0.0880377
-0.085354
-0.0843574
-0.0812999
-0.0779032
-0.0736087
-0.0759634
-0.079336
-0.0824035
-0.0834061
-0.08608
-0.0870696
-0.172223
-0.168708
-0.165264
-0.161948
-0.15886
-0.155982
-0.153209
-0.150522
-0.147907
-0.14537
-0.142931
-0.138526
-0.133853
-0.128896
-0.12393
-0.119099
-0.114426
-0.109932
-0.105622
-0.10143
-0.0972419
-0.0929604
-0.0885339
-0.0839592
-0.0792521
-0.0744267
-0.0850767
-0.0840977
-0.0814125
-0.0804184
-0.0774108
-0.0739926
-0.0695049
-0.0719606
-0.0755269
-0.0784669
-0.0794632
-0.0821344
-0.0831252
-0.172615
-0.169055
-0.165595
-0.16234
-0.159376
-0.156619
-0.153931
-0.151311
-0.148758
-0.146275
-0.14389
-0.139587
-0.134996
-0.130077
-0.125071
-0.120125
-0.115278
-0.110587
-0.106097
-0.101788
-0.097581
-0.0933688
-0.0890657
-0.0846192
-0.0800227
-0.0752737
-0.0703657
-0.0811278
-0.0801467
-0.0774756
-0.0765034
-0.0735925
-0.0698796
-0.0653316
-0.0677334
-0.0715179
-0.0746832
-0.0755746
-0.0781781
-0.0791703
-0.172951
-0.169364
-0.165935
-0.162778
-0.159948
-0.157293
-0.154675
-0.152111
-0.149599
-0.147155
-0.144784
-0.140628
-0.136158
-0.131325
-0.126318
-0.121293
-0.116303
-0.111417
-0.106717
-0.102227
-0.0979127
-0.0936887
-0.0894626
-0.0851463
-0.0806854
-0.0760581
-0.0712446
-0.0662491
-0.0771586
-0.0761658
-0.0737285
-0.0727349
-0.0693559
-0.0656491
-0.0612605
-0.0635046
-0.0672039
-0.0705684
-0.0716718
-0.0744164
-0.0752035
-0.173268
-0.169688
-0.166325
-0.163285
-0.16057
-0.157994
-0.155433
-0.152901
-0.15041
-0.147961
-0.145543
-0.141604
-0.137312
-0.132616
-0.127657
-0.122588
-0.117488
-0.112433
-0.107519
-0.102812
-0.0983172
-0.0939941
-0.0897647
-0.0855342
-0.0812081
-0.0767283
-0.0720574
-0.0671761
-0.0622045
-0.0736077
-0.072455
-0.0694743
-0.0683876
-0.0650987
-0.0614566
-0.0573048
-0.0592684
-0.0629933
-0.0662814
-0.0673579
-0.070224
-0.0713241
-0.173607
-0.170059
-0.166786
-0.163857
-0.161232
-0.158713
-0.156181
-0.153658
-0.151147
-0.14864
-0.146125
-0.142446
-0.138402
-0.133915
-0.12906
-0.123996
-0.118818
-0.113625
-0.108518
-0.103583
-0.0988645
-0.0943649
-0.0900444
-0.0858207
-0.0815866
-0.0772516
-0.0727466
-0.0680303
-0.063153
-0.0583546
-0.0731612
-0.0719778
-0.0691479
-0.0680864
-0.0652348
-0.06417
-0.0609172
-0.0571152
-0.053771
-0.0545326
-0.0588068
-0.0620954
-0.0631658
-0.065999
-0.0670537
-0.069868
-0.0708982
-0.17399
-0.170495
-0.167314
-0.164482
-0.161921
-0.159426
-0.156896
-0.154342
-0.151758
-0.149144
-0.146508
-0.143102
-0.139358
-0.135157
-0.130485
-0.125483
-0.120277
-0.114977
-0.109705
-0.104556
-0.099598
-0.0948745
-0.0903817
-0.0860746
-0.0818575
-0.0776259
-0.0732802
-0.0687544
-0.0640415
-0.0592831
-0.0547621
-0.0688038
-0.0677695
-0.0649499
-0.0639067
-0.061063
-0.0599821
-0.0566607
-0.0523534
-0.0505501
-0.0549234
-0.0578421
-0.0589673
-0.0618415
-0.0628893
-0.065691
-0.0667268
-0.174424
-0.170989
-0.167897
-0.165143
-0.162612
-0.16011
-0.15754
-0.154903
-0.152206
-0.149473
-0.146737
-0.143551
-0.14011
-0.136252
-0.131858
-0.127006
-0.121833
-0.116476
-0.111067
-0.105728
-0.100539
-0.0955669
-0.0908497
-0.0863772
-0.0820885
-0.0778842
-0.0736573
-0.0693112
-0.0647936
-0.0601681
-0.0556312
-0.0514119
-0.0646391
-0.0636175
-0.0607972
-0.0597405
-0.0566894
-0.0553514
-0.0528377
-0.0495347
-0.0513872
-0.0473498
-0.0543003
-0.0576093
-0.0587023
-0.0615605
-0.0625882
-0.174898
-0.17153
-0.168519
-0.165816
-0.163282
-0.160731
-0.15807
-0.155311
-0.152497
-0.149676
-0.146886
-0.143823
-0.140625
-0.137113
-0.133073
-0.128481
-0.123436
-0.118085
-0.11259
-0.107085
-0.101684
-0.0964684
-0.0914982
-0.0868038
-0.0823589
-0.0780947
-0.0739122
-0.0696989
-0.0653692
-0.06092
-0.0564582
-0.0521816
-0.0481329
-0.0605114
-0.0594793
-0.0564917
-0.0555572
-0.0530551
-0.0523509
-0.0498959
-0.0464803
-0.0483557
-0.0516363
-0.0508601
-0.0440845
-0.0545517
-0.0537877
-0.0573731
-0.0584315
-0.175402
-0.172103
-0.169155
-0.166476
-0.163897
-0.161246
-0.158458
-0.155579
-0.152686
-0.149831
-0.147028
-0.143991
-0.140928
-0.13769
-0.134029
-0.129796
-0.125001
-0.119757
-0.114238
-0.108616
-0.103024
-0.0975783
-0.0923546
-0.0874053
-0.0827442
-0.0783356
-0.0741083
-0.0699542
-0.0657699
-0.0614995
-0.05717
-0.0529137
-0.0488284
-0.0448263
-0.0563018
-0.0553776
-0.0500463
-0.0492939
-0.0467499
-0.043323
-0.0451552
-0.048536
-0.0477168
-0.0407745
-0.175923
-0.172687
-0.169784
-0.167093
-0.164419
-0.161632
-0.158719
-0.155765
-0.152857
-0.150009
-0.147197
-0.144133
-0.141092
-0.138004
-0.134662
-0.130835
-0.126408
-0.121403
-0.115965
-0.110285
-0.104548
-0.098889
-0.0934213
-0.0882092
-0.0832939
-0.07868
-0.0743225
-0.0701396
-0.066027
-0.0618965
-0.0577217
-0.0535525
-0.0494704
-0.0454879
-0.0415053
-0.0468535
-0.0460725
-0.0435251
-0.0400601
-0.0420123
-0.0452924
-0.0444478
-0.0374544
-0.176443
-0.173265
-0.170381
-0.167631
-0.164828
-0.161905
-0.158912
-0.155948
-0.153072
-0.150251
-0.147417
-0.144303
-0.141206
-0.138141
-0.134993
-0.131531
-0.127536
-0.1229
-0.11768
-0.112049
-0.106224
-0.100393
-0.0946926
-0.0892257
-0.0840462
-0.0791832
-0.07463
-0.0703322
-0.0662038
-0.0621483
-0.0580987
-0.0540466
-0.050027
-0.0460728
-0.042148
-0.0381752
-0.0435454
-0.0427457
-0.0403775
-0.0366836
-0.0387019
-0.0419896
-0.0413955
-0.0340594
-0.176951
-0.173817
-0.170914
-0.168068
-0.165132
-0.162116
-0.159108
-0.156184
-0.153348
-0.150553
-0.144538
-0.146841
-0.148365
-0.14134
-0.138209
-0.135117
-0.131898
-0.128304
-0.124116
-0.119258
-0.113818
-0.108009
-0.102062
-0.0961653
-0.0904492
-0.0850045
-0.0798762
-0.075083
-0.0706043
-0.0663759
-0.062313
-0.0583339
-0.0543866
-0.0504577
-0.0465648
-0.0426923
-0.0388039
-0.0348034
-0.0406316
-0.0397354
-0.0369132
-0.0332366
-0.0351679
-0.0388055
-0.0378904
-0.0307029
-0.177436
-0.174322
-0.171369
-0.168409
-0.165376
-0.162331
-0.159357
-0.156474
-0.15365
-0.149953
-0.151578
-0.141521
-0.143931
-0.14548
-0.147021
-0.14844
-0.138297
-0.135161
-0.132032
-0.128718
-0.12496
-0.120561
-0.115466
-0.109819
-0.103855
-0.0978138
-0.0918797
-0.0861732
-0.0807768
-0.0757236
-0.0710134
-0.066616
-0.0624637
-0.0584787
-0.054589
-0.0507488
-0.0469358
-0.0431341
-0.0393231
-0.035437
-0.0314424
-0.0402144
-0.0393061
-0.0369828
-0.036119
-0.0334386
-0.0298867
-0.031767
-0.0352618
-0.0343967
-0.0384678
-0.0375929
-0.0274167
-0.177887
-0.17477
-0.171748
-0.168695
-0.16562
-0.162595
-0.159656
-0.156774
-0.153057
-0.154688
-0.150157
-0.151689
-0.138448
-0.140903
-0.142468
-0.144046
-0.145578
-0.146771
-0.147571
-0.149048
-0.148109
-0.135224
-0.132062
-0.128866
-0.125426
-0.121484
-0.116849
-0.111528
-0.105692
-0.0995993
-0.0934945
-0.0875525
-0.0818853
-0.0765612
-0.0715958
-0.0669782
-0.0626706
-0.0586044
-0.0547061
-0.0509125
-0.0471745
-0.0434531
-0.039724
-0.0359435
-0.0320733
-0.0281423
-0.0366924
-0.0358494
-0.0335226
-0.03269
-0.0300866
-0.0266161
-0.0284472
-0.0318625
-0.0310207
-0.0350294
-0.0341627
-0.0241925
-0.178306
-0.175169
-0.172081
-0.168978
-0.165908
-0.16291
-0.159971
-0.156196
-0.157841
-0.153226
-0.154805
-0.149848
-0.150663
-0.152192
-0.151368
-0.135358
-0.137834
-0.139424
-0.141028
-0.142549
-0.143778
-0.144555
-0.146047
-0.145273
-0.146781
-0.147497
-0.147787
-0.132102
-0.128889
-0.1256
-0.122009
-0.117856
-0.112987
-0.107445
-0.101445
-0.0952569
-0.0891207
-0.0832052
-0.077605
-0.0723715
-0.067507
-0.0629903
-0.0587774
-0.0548016
-0.0509945
-0.0472932
-0.0436409
-0.0399964
-0.03632
-0.0325739
-0.0287525
-0.0248961
-0.0332669
-0.0324401
-0.0301646
-0.0293491
-0.0267989
-0.0233984
-0.0251885
-0.0285345
-0.0277091
-0.0316375
-0.0307887
-0.0210208
-0.178704
-0.175542
-0.172407
-0.169294
-0.166238
-0.163239
-0.15939
-0.161057
-0.156372
-0.157971
-0.152952
-0.153768
-0.155304
-0.154491
-0.132218
-0.134722
-0.136345
-0.137963
-0.139508
-0.140744
-0.141542
-0.14304
-0.142254
-0.143854
-0.144604
-0.146082
-0.145342
-0.128907
-0.125618
-0.122213
-0.118448
-0.114073
-0.108969
-0.103228
-0.0970924
-0.0908427
-0.0847149
-0.0788581
-0.0733463
-0.0682175
-0.0634621
-0.0590504
-0.0549371
-0.0510547
-0.0473363
-0.0437185
-0.040144
-0.0365644
-0.0329328
-0.0292313
-0.0254818
-0.021707
-0.0299121
-0.0291003
-0.0268677
-0.0260666
-0.0235652
-0.0202367
-0.0219808
-0.0252635
-0.0244537
-0.02831
-0.0274773
-0.0179126
-0.1791
-0.175916
-0.17276
-0.169647
-0.166582
-0.162649
-0.164343
-0.159567
-0.161193
-0.156085
-0.156906
-0.158469
-0.157647
-0.129001
-0.131548
-0.13321
-0.134846
-0.136421
-0.137662
-0.138475
-0.139996
-0.139194
-0.140817
-0.141584
-0.143091
-0.142332
-0.125618
-0.122235
-0.118692
-0.114736
-0.11013
-0.104797
-0.0988796
-0.0926489
-0.0863834
-0.0803001
-0.0745258
-0.0691201
-0.064107
-0.0594663
-0.0551641
-0.0511497
-0.0473586
-0.0437254
-0.0401862
-0.0366784
-0.0331484
-0.0295677
-0.0259352
-0.022261
-0.0185613
-0.0266173
-0.0258178
-0.0236244
-0.0228359
-0.0203833
-0.0171384
-0.0188303
-0.0220422
-0.0212451
-0.0250384
-0.0242196
-0.0148544
-0.179511
-0.176307
-0.173136
-0.170005
-0.165979
-0.167707
-0.162825
-0.164483
-0.159271
-0.160102
-0.161695
-0.160862
-0.125691
-0.128294
-0.130002
-0.131664
-0.133274
-0.13453
-0.13536
-0.136907
-0.136089
-0.137731
-0.13851
-0.140039
-0.139267
-0.122218
-0.118722
-0.115023
-0.110861
-0.10602
-0.100483
-0.0944303
-0.0881468
-0.0819023
-0.0758914
-0.0702207
-0.0649345
-0.0600445
-0.0555228
-0.0513288
-0.0474125
-0.0437103
-0.0401571
-0.036687
-0.0332392
-0.0297651
-0.0262436
-0.0226746
-0.0190743
-0.0154569
-0.0233738
-0.0225841
-0.0204267
-0.0196519
-0.0172617
-0.0141262
-0.0157393
-0.0188725
-0.018092
-0.0218133
-0.0210053
-0.0118133
-0.179937
-0.17671
-0.173512
-0.169389
-0.171152
-0.166154
-0.167851
-0.162521
-0.163366
-0.164993
-0.164144
-0.122271
-0.124942
-0.126703
-0.1284
-0.130054
-0.13133
-0.132181
-0.133762
-0.132925
-0.134595
-0.135391
-0.136944
-0.136159
-0.118692
-0.115069
-0.111198
-0.106816
-0.101751
-0.0960374
-0.0898957
-0.0836061
-0.0774174
-0.0715026
-0.0659516
-0.0607951
-0.056033
-0.0516295
-0.047543
-0.0437235
-0.0401064
-0.0366285
-0.0332242
-0.0298334
-0.0264155
-0.0229548
-0.019453
-0.0159222
-0.0123619
-0.0201719
-0.0193944
-0.0172887
-0.0165295
-0.0142083
-0.0111701
-0.0127434
-0.015763
-0.0149992
-0.0186368
-0.0178449
-0.00878025
-0.180373
-0.177109
-0.172882
-0.174684
-0.169565
-0.1713
-0.165842
-0.166704
-0.16837
-0.167504
-0.118725
-0.121475
-0.123296
-0.125036
-0.126743
-0.128047
-0.128923
-0.130545
-0.129687
-0.131392
-0.132206
-0.133793
-0.132991
-0.115031
-0.111263
-0.107203
-0.102603
-0.0973429
-0.0915054
-0.0853143
-0.0790501
-0.0729424
-0.067143
-0.0617253
-0.0567051
-0.0520725
-0.0477876
-0.0438074
-0.0400812
-0.0365486
-0.0331442
-0.0298019
-0.0264662
-0.0231044
-0.0196984
-0.0162531
-0.012779
-0.00927569