/*--------------------------------*- C++ -*----------------------------------*\
| =========                 |                                                 |
| \\      /  F ield         | OpenFOAM: The Open Source CFD Toolbox           |
|  \\    /   O peration     | Version:  v1912                                 |
|   \\  /    A nd           | Website:  www.openfoam.com                      |
|    \\/     M anipulation  |                                                 |
\*---------------------------------------------------------------------------*/
FoamFile
{
    version     2.0;
    format      ascii;
    class       surfaceScalarField;
    location    "60";
    object      phi;
}
// * * * * * * * * * * * * * * * * * * * * * * * * * * * * * * * * * * * * * //

dimensions      [0 3 -1 0 0 0 0];
oriented        oriented;


internalField   nonuniform List<scalar> 
7191
(
-1.80157e-06
0.00131078
-8.76413e-06
0.0039201
-1.93444e-06
0.00131268
-2.3864e-05
0.00647749
-8.80013e-06
0.00392694
-1.94657e-06
0.0013146
-4.47326e-05
0.0089001
-2.28309e-05
0.00649151
-8.52687e-06
0.0039335
-1.81608e-06
0.0013164
-7.52733e-05
0.0110787
-4.63439e-05
0.0089236
-2.15295e-05
0.0065045
-8.11582e-06
0.00393978
-1.8012e-06
0.00131818
-0.000116031
0.0128785
-7.68788e-05
0.0111092
-4.21258e-05
0.00894419
-2.12994e-05
0.00651767
-8.16793e-06
0.00394614
-1.38858e-06
0.00131956
-0.00016188
0.014175
-0.000116578
0.0129182
-7.44107e-05
0.0111415
-4.15165e-05
0.00896441
-1.80664e-05
0.00652756
-6.18521e-06
0.00395092
-1.13122e-06
0.00132068
-0.000205045
0.0148602
-0.000161149
0.0142196
-0.000111846
0.0129557
-6.64514e-05
0.0111664
-3.51012e-05
0.00898144
-1.50428e-05
0.00653642
-4.98347e-06
0.00395477
-8.75564e-07
0.00132155
-0.000245971
0.0148759
-0.000209767
0.0149089
-0.000154855
0.0142626
-0.00010349
0.0129927
-6.14962e-05
0.0111928
-2.99693e-05
0.00899636
-1.28778e-05
0.00654431
-3.96925e-06
0.00395786
-4.05482e-07
0.00132195
-0.000273885
0.0141928
-0.000250746
0.0149169
-0.000201973
0.014956
-0.000144735
0.0143038
-8.90565e-05
0.0130203
-5.03586e-05
0.0112132
-2.4324e-05
0.00900781
-9.42478e-06
0.00654976
-1.55333e-06
0.003959
-2.93288e-07
0.00132224
-0.000284345
0.0128579
-0.000290476
0.0142325
-0.000246692
0.0149616
-0.000184619
0.0149959
-0.000122581
0.0143374
-7.72326e-05
0.0130471
-4.08415e-05
0.0112297
-1.93909e-05
0.00901777
-7.36432e-06
0.00655557
-1.83921e-06
0.00396054
1.17538e-07
0.00132212
-0.000276074
0.0109601
-0.000319145
0.0128866
-0.000283756
0.0142696
-0.000222282
0.0149993
-0.000157737
0.015031
-0.000104734
0.0143649
-6.09476e-05
0.0130673
-3.21438e-05
0.0112425
-1.39699e-05
0.00902437
-3.53056e-06
0.00655725
-9.78827e-07
0.00396163
2.399e-07
0.00132187
-0.000236234
0.00862743
-0.00033758
0.0109785
-0.000311482
0.0129143
-0.000247495
0.0142948
-0.000183133
0.0150247
-0.000128528
0.0150548
-8.15289e-05
0.0143854
-4.57882e-05
0.0130809
-2.24131e-05
0.0112509
-8.81375e-06
0.00902965
-3.52353e-06
0.00655979
-4.36242e-07
0.0039623
1.78857e-07
0.00132169
0.00600035
-0.000105403
-4.78064e-05
-0.000341565
0.00863142
-0.000327089
0.0109941
-0.000260504
0.0129273
-0.000198474
0.0143101
-0.000145826
0.015042
-9.66339e-05
0.0150699
-6.04448e-05
0.0144001
-3.56537e-05
0.0130941
-1.77728e-05
0.0112599
-7.22374e-06
0.00903335
-2.11575e-06
0.00656147
-2.53958e-07
0.00396273
1.26258e-07
0.00132156
0.00598656
-0.000192375
-0.000135401
-0.00203467
0.00198996
-6.06978e-05
-3.10312e-05
-0.00205144
-0.000332751
0.00863709
-0.000253361
0.010987
-0.000193896
0.0129227
-0.000146977
0.0143113
-0.000106069
0.0150514
-7.50884e-05
0.0150846
-4.70819e-05
0.0144115
-2.35907e-05
0.0131
-1.06161e-05
0.0112633
-3.55216e-06
0.00903478
-4.94432e-07
0.00656171
-2.26324e-07
0.00396308
-3.37142e-08
0.00132159
0.0059741
-0.00013357
-0.000186715
-0.00196086
0.00193491
-0.000166418
-0.000106303
-0.00134062
0.00129929
-1.48011e-05
-4.56977e-06
-7.61358e-07
-0.00136456
-6.3301e-06
-1.9198e-05
-0.000215198
0.00859893
-0.000169382
0.0109625
-0.000136393
0.0129122
-0.000106615
0.0143118
-7.89099e-05
0.0150552
-5.18146e-05
0.0150893
-2.87714e-05
0.0144167
-1.65611e-05
0.0131059
-7.27837e-06
0.011267
-4.66589e-06
0.00903895
-2.09373e-06
0.00656357
2.40886e-08
0.00396302
-3.6934e-07
0.00132196
0.00589328
-3.92655e-05
-9.51144e-05
-0.00191234
0.00188323
-0.000104453
-0.00016415
-0.00124711
0.00121478
-8.33752e-05
-5.07025e-05
-1.61415e-05
-3.79848e-05
-0.000421089
0.000411507
-5.21767e-06
-0.000423179
-2.47945e-06
0.000427856
-0.000427925
-6.92503e-07
-3.43464e-06
2.46731e-08
-1.65201e-06
-0.000115324
0.00854487
-0.000103513
0.0109296
-8.89245e-05
0.0128945
-7.18809e-05
0.0143048
-5.12259e-05
0.0150546
-3.25574e-05
0.0150931
-2.1357e-05
0.0144215
-1.14943e-05
0.0131101
-6.22272e-06
0.0112685
-3.1332e-06
0.00903999
-2.9123e-06
0.00656651
-1.77237e-06
0.00396442
-5.16892e-07
0.00132247
0.00581865
-6.77066e-06
-3.39185e-05
-0.00183987
0.00182345
-2.28466e-05
-5.17548e-05
-0.0011883
0.00113892
-1.63118e-05
-3.87551e-05
-7.66852e-05
-6.09913e-05
-0.000364734
0.000338869
-5.75092e-05
-0.000383626
-3.18091e-05
0.000404123
-8.75706e-06
-1.7487e-05
-0.000247074
0.000242574
-7.16513e-07
-0.000249166
-3.85944e-07
-0.000430369
-9.91191e-07
0.000250562
-0.000251203
-5.11946e-08
1.22406e-08
-2.55487e-07
-5.85821e-05
0.00849994
-6.09873e-05
0.0109016
-5.62019e-05
0.0128788
-4.61344e-05
0.0142997
-3.36379e-05
0.0150557
-2.43711e-05
0.0150961
-1.45428e-05
0.0144245
-9.1017e-06
0.013113
-8.17055e-06
0.0112736
-6.80035e-06
0.00904387
-3.22919e-06
0.00656796
-2.41106e-06
0.00396631
-6.535e-07
0.00132312
0.00577274
7.50613e-07
-1.34251e-05
-0.00180102
0.00179889
-4.64804e-06
-1.14839e-05
-0.00109951
0.0010797
-1.07422e-07
-2.93424e-06
-9.91909e-06
-2.42443e-06
-0.000278242
0.000267989
-6.0596e-06
-0.000299065
-1.7931e-05
0.000318255
-5.60709e-05
-4.18015e-05
-0.000199121
0.000162061
-2.04479e-05
-0.000221596
-9.33266e-06
0.000235463
-1.64395e-06
-3.61916e-06
-7.19576e-05
7.1242e-05
-7.23434e-05
-0.000252094
-9.99128e-08
7.25988e-05
-7.26497e-05
-3.86282e-08
-2.90267e-05
0.00846798
-3.45351e-05
0.01088
-3.27541e-05
0.0128654
-2.62612e-05
0.0142923
-2.0654e-05
0.015052
-1.37584e-05
0.0150953
-9.94101e-06
0.0144254
-1.00795e-05
0.0131149
-8.90992e-06
0.0112757
-7.25503e-06
0.0090479
-6.77615e-06
0.00657232
-3.58712e-06
0.00396924
-1.02815e-06
0.00132415
0.00574737
2.48208e-06
-6.13284e-06
-0.00178824
0.00178929
-3.03926e-07
-2.76922e-06
-0.00106902
0.0010643
6.03407e-07
-5.29273e-07
-1.07132e-06
2.73099e-07
-0.000255864
0.000255829
-7.19848e-08
-0.000258456
-3.42377e-07
0.000260246
-2.17599e-06
-6.34088e-07
-8.24575e-05
7.6398e-05
-0.000100388
0.00014219
-3.61996e-05
-5.66471e-05
3.61996e-05
-6.59793e-05
6.95985e-05
-7.27496e-05
-1.34759e-05
0.00844692
-1.80786e-05
0.0108653
-1.7466e-05
0.0128566
-1.63023e-05
0.014288
-1.23283e-05
0.0150505
-1.01808e-05
0.0150956
-1.20877e-05
0.0144274
-1.29145e-05
0.0131189
-1.26427e-05
0.0112811
-1.27594e-05
0.00905388
-8.94368e-06
0.00657767
-4.69844e-06
0.00397291
-1.12154e-06
0.00132526
0.00573375
3.34704e-06
-3.20501e-06
-0.00178381
0.00178615
1.48466e-07
-6.52127e-07
-0.00106147
0.00106091
4.78004e-07
-2.23183e-07
-2.38224e-07
2.92943e-07
-0.000254536
0.000255063
7.67886e-08
-0.000255139
7.41843e-08
0.000254905
-1.47962e-07
3.96371e-08
-7.32455e-05
7.31736e-05
-7.35879e-05
7.4222e-05
-4.91392e-06
0.00843376
-8.38394e-06
0.0108562
-7.33464e-06
0.0128476
-5.8077e-06
0.0142814
-7.76343e-06
0.0150481
-1.03926e-05
0.0150939
-1.54858e-05
0.01443
-1.82448e-05
0.0131245
-2.03224e-05
0.0112886
-1.71783e-05
0.00906211
-1.15748e-05
0.00658455
-5.89532e-06
0.00397768
-1.54592e-06
0.00132681
0.00572724
2.86702e-06
-1.27453e-06
-0.00178279
0.00178533
8.04167e-07
1.5431e-07
-0.00106012
0.00105996
3.58824e-07
-6.10196e-08
-9.29908e-08
2.38712e-07
-0.000254789
0.000255213
5.42601e-08
-0.00025511
9.82803e-08
0.000254889
-6.44422e-08
7.1503e-08
-7.31396e-05
7.32165e-05
-7.30653e-05
7.30257e-05
-4.08195e-07
0.00842578
2.48175e-07
0.0108486
-1.41593e-06
0.0128432
-2.23402e-06
0.0142759
-6.25884e-06
0.015044
-1.57917e-05
0.0150942
-2.23722e-05
0.0144341
-2.80503e-05
0.0131322
-2.73991e-05
0.0112989
-2.37476e-05
0.00907428
-1.57489e-05
0.0065944
-7.812e-06
0.00398394
-1.73851e-06
0.00132855
0.00572392
2.80527e-06
1.01894e-07
-0.00178372
0.00178546
1.12482e-06
3.31626e-07
-0.00106002
0.00106045
3.61661e-07
8.81908e-09
-5.20924e-08
1.51377e-07
-0.000255205
0.000255527
3.57269e-08
-0.000255352
8.57301e-08
0.000255165
-4.59622e-08
5.24787e-08
-7.33219e-05
7.33761e-05
-7.32236e-05
7.31521e-05
3.26728e-06
0.00842276
4.16599e-06
0.0108431
2.14123e-06
0.0128389
-2.0966e-06
0.0142717
-1.11833e-05
0.0150394
-2.17671e-05
0.0150936
-3.3329e-05
0.0144394
-3.86272e-05
0.0131434
-3.69632e-05
0.0113121
-2.69432e-05
0.00908547
-1.69565e-05
0.00660354
-7.77418e-06
0.00398997
-1.67407e-06
0.00133022
0.00572325
3.3373e-06
5.98738e-07
-0.00178501
0.00178667
1.14795e-06
5.46762e-07
-0.00106062
0.00106145
2.87356e-07
3.16938e-09
1.56632e-08
1.51385e-07
-0.000255557
0.000255882
3.60718e-08
-0.000255641
9.2649e-08
0.00025553
-5.5032e-08
4.00119e-08
-7.34682e-05
7.35038e-05
-7.33825e-05
7.33301e-05
4.94071e-06
0.00842198
6.21006e-06
0.010839
3.86714e-06
0.0128329
-7.2593e-06
0.0142678
-2.27367e-05
0.0150403
-3.87774e-05
0.015099
-4.81829e-05
0.0144489
-4.99147e-05
0.0131564
-4.39514e-05
0.0113291
-3.34552e-05
0.00910197
-1.99602e-05
0.00661572
-8.11669e-06
0.00399641
-1.8799e-06
0.0013321
0.00572394
3.24883e-06
9.98273e-07
-0.00178649
0.00178858
1.24476e-06
7.75051e-07
-0.00106182
0.0010626
2.95293e-07
7.18747e-08
8.6922e-08
8.48464e-08
-0.000255974
0.000256228
3.24707e-08
-0.000256063
9.17737e-08
0.000255951
-5.44435e-08
3.9798e-08
-7.35812e-05
7.36171e-05
-7.34887e-05
7.34486e-05
7.12729e-06
0.00842106
7.02838e-06
0.0108358
-6.72942e-08
0.0128257
-1.24224e-05
0.0142575
-3.31998e-05
0.0150348
-5.37109e-05
0.0151045
-6.74987e-05
0.0144665
-6.53726e-05
0.0131778
-5.34118e-05
0.011349
-3.71802e-05
0.00911918
-2.0403e-05
0.00662801
-9.24684e-06
0.00400378
-2.59415e-06
0.00133469
0.00572629
3.17061e-06
1.59786e-06
-0.00178873
0.00179069
1.29393e-06
8.46907e-07
-0.00106318
0.00106403
3.0609e-07
8.86671e-08
9.37203e-08
9.85903e-08
-0.000256366
0.000256623
3.77916e-08
-0.000256416
1.21235e-07
0.000256367
-5.27872e-08
3.65506e-08
-7.3694e-05
7.37262e-05
-7.36023e-05
7.35625e-05
6.87385e-06
0.00842121
4.99726e-06
0.0108307
-6.31583e-06
0.0128196
-3.00561e-05
0.0142544
-5.70593e-05
0.0150381
-7.83817e-05
0.0151154
-8.51112e-05
0.0144862
-7.78005e-05
0.0132022
-6.02917e-05
0.0113721
-3.98839e-05
0.00913866
-2.16657e-05
0.00664042
-7.98101e-06
0.00400916
-1.00161e-06
0.00133569
0.00572838
2.82966e-06
1.95125e-06
-0.00179121
0.00179303
1.35484e-06
1.07095e-06
-0.00106468
0.00106556
3.09695e-07
1.02078e-07
1.05412e-07
9.42277e-08
-0.00025682
0.000257086
3.98418e-08
-0.000256824
9.18718e-08
0.000256771
-5.49669e-08
4.57662e-08
-7.3831e-05
7.38686e-05
-7.37099e-05
7.36733e-05
6.952e-06
0.00841925
-6.31261e-08
0.0108245
-1.88554e-05
0.0128084
-5.02397e-05
0.0142475
-8.24699e-05
0.0150422
-0.000103647
0.0151339
-0.000103983
0.0145124
-8.9414e-05
0.0132313
-6.58907e-05
0.0113981
-3.88583e-05
0.00915585
-2.11964e-05
0.00665363
-7.41391e-06
0.00401557
-1.06025e-06
0.00133675
0.00573117
1.67267e-06
2.48555e-06
-0.00179384
0.00179543
1.24005e-06
1.13783e-06
-0.00106641
0.00106733
3.15933e-07
1.11298e-07
1.13868e-07
1.07408e-07
-0.000257292
0.000257572
2.86558e-08
-0.000257206
1.63968e-08
0.000257249
-5.83585e-08
1.36635e-07
-7.3951e-05
7.39906e-05
-7.38593e-05
7.38135e-05
4.19594e-06
0.00841499
-7.54341e-06
0.0108132
-3.65531e-05
0.0127947
-7.97334e-05
0.0142448
-0.000116261
0.0150548
-0.000132162
0.0151621
-0.000121074
0.0145441
-9.60603e-05
0.0132615
-6.52342e-05
0.0114245
-3.94089e-05
0.00917405
-1.82464e-05
0.00666446
-7.30999e-06
0.00402182
-9.1943e-07
0.00133767
0.00573068
1.35203e-06
3.33286e-06
-0.00179673
0.00179715
1.24635e-06
1.18293e-06
-0.00106823
0.00106903
3.18086e-07
1.17067e-07
1.26685e-07
1.14218e-07
-0.000257761
0.000258046
3.02179e-08
-0.000257669
1.89527e-08
0.000257703
-1.7313e-08
1.40807e-07
-7.40851e-05
7.41135e-05
-7.40688e-05
7.39322e-05
4.63951e-07
0.00840698
-2.05416e-05
0.0107972
-6.71187e-05
0.0127821
-0.000118358
0.0142469
-0.000155103
0.0150777
-0.000156364
0.0151974
-0.000133566
0.0145816
-9.788e-05
0.0132941
-6.32708e-05
0.0114484
-3.61951e-05
0.00919199
-1.75985e-05
0.00667474
-4.51246e-06
0.00402541
-7.85238e-07
0.00133845
0.00572718
3.41923e-07
3.62393e-06
-0.00179924
0.00179968
9.03119e-07
1.24689e-06
-0.00106997
0.00107079
3.11287e-07
1.11236e-07
1.28718e-07
1.21914e-07
-0.000258289
0.000258576
3.03853e-08
-0.000258193
2.07637e-08
0.000258221
-4.84482e-08
1.41994e-07
-7.42557e-05
7.42857e-05
-7.42369e-05
7.40961e-05
-6.80707e-06
0.00839325
-4.46744e-05
0.0107747
-0.000107618
0.0127714
-0.000166748
0.0142585
-0.000190195
0.0151116
-0.000170584
0.0152344
-0.000135006
0.0146187
-9.27774e-05
0.0133236
-5.81783e-05
0.0114703
-3.21528e-05
0.00920654
-1.31253e-05
0.00668336
-4.53416e-06
0.00402916
-4.92986e-07
0.00133894
0.00571846
-1.17145e-06
3.08442e-06
-0.0018018
0.00180148
6.54206e-07
1.50958e-06
-0.0010718
0.00107224
3.20468e-07
1.33269e-07
1.25055e-07
1.1236e-07
-0.000258789
0.000259072
2.711e-08
-0.00025873
5.23223e-08
0.000258718
-1.38952e-08
1.09798e-07
-7.43998e-05
7.44299e-05
-7.43791e-05
7.42371e-05
-1.95137e-05
0.00836809
-8.0941e-05
0.010748
-0.00016396
0.0127686
-0.000217035
0.0142854
-0.000210932
0.0151519
-0.000175774
0.0152752
-0.000127071
0.014653
-8.55368e-05
0.013351
-5.09851e-05
0.0114892
-2.53603e-05
0.00921878
-9.59141e-06
0.00668841
-1.34351e-06
0.00403001
9.497e-07
0.00133798
0.00569895
-3.69382e-06
3.69116e-06
-0.00180302
0.00180147
3.79786e-07
1.54782e-06
-0.00107349
0.00107376
2.44814e-07
1.35113e-07
1.42002e-07
1.24225e-07
-0.000259335
0.000259618
3.68449e-08
-0.000259242
3.96671e-08
0.000259251
-5.35217e-08
1.2046e-07
-7.45779e-05
7.46047e-05
-7.45257e-05
7.44159e-05
-4.4113e-05
0.00833126
-0.000140965
0.0107251
-0.000232134
0.0127837
-0.000250712
0.0143252
-0.000217059
0.0151932
-0.000164284
0.0153124
-0.000113983
0.0146814
-7.25714e-05
0.0133725
-4.22635e-05
0.0115061
-1.93112e-05
0.00922849
-6.68621e-06
0.00669374
-6.55837e-07
0.0040316
1.21516e-06
0.00133676
0.00566294
-9.88485e-06
1.78486e-06
-0.00180423
0.00180052
1.70198e-08
9.24227e-07
-0.00107503
0.00107502
1.79246e-07
2.03321e-07
2.12885e-07
6.6074e-08
-0.000259901
0.000260114
3.13739e-08
-0.000259808
4.1291e-08
0.000259808
-4.80666e-08
1.24618e-07
-7.47111e-05
7.47477e-05
-7.46716e-05
7.45511e-05
-9.26891e-05
0.008283
-0.00022221
0.0107151
-0.000283474
0.0128164
-0.000259517
0.0143676
-0.000200364
0.0152293
-0.000141131
0.0153395
-9.42333e-05
0.0147031
-5.93048e-05
0.0133896
-3.13405e-05
0.0115181
-1.38832e-05
0.00923568
-3.07895e-06
0.00669616
2.74002e-06
0.00403007
1.58068e-06
0.00133517
0.00559902
-2.5471e-05
-3.28951e-06
-0.0018022
0.00179427
-1.94836e-06
1.07178e-07
-0.00107566
0.00107535
1.19289e-07
2.15434e-07
2.89949e-07
-5.24121e-09
-0.000260444
0.000260586
3.66333e-08
-0.000260314
7.31416e-08
0.000260344
-1.73168e-08
9.60783e-08
-7.48653e-05
7.48965e-05
-7.48241e-05
7.46995e-05
-0.000179622
0.00824041
-0.000307668
0.0107393
-0.000296952
0.0128539
-0.000230417
0.0143977
-0.000167611
0.0152557
-0.000116336
0.0153616
-7.56085e-05
0.0147194
-4.3675e-05
0.0134019
-2.24461e-05
0.0115266
-7.63571e-06
0.00924022
-7.1873e-07
0.0066996
4.6815e-06
0.00402696
1.97797e-06
0.0013332
0.00551153
-6.87659e-05
-2.33612e-05
-0.00179339
0.00177573
-7.80325e-06
-2.41041e-06
-0.00107522
0.00107326
-1.9971e-07
2.07568e-07
2.9863e-07
-5.99089e-08
-0.000260963
0.000261083
-4.28147e-10
-0.000260789
4.18856e-08
0.000260922
-4.57718e-08
1.27125e-07
-7.50482e-05
7.50847e-05
-7.49751e-05
7.48791e-05
-0.000308881
0.00824163
-0.000328749
0.0107711
-0.000253209
0.0128767
-0.000185522
0.0144156
-0.00012982
0.0152692
-8.77517e-05
0.0153738
-5.45843e-05
0.0147303
-3.09524e-05
0.0134104
-1.36488e-05
0.0115326
-1.83375e-06
0.00924133
6.1737e-06
0.00669812
5.03975e-06
0.0040239
2.50109e-06
0.00133069
0.00546577
-0.000170702
-9.24069e-05
-0.00176546
0.00172656
-2.98567e-05
-1.30939e-05
-0.0010707
0.00106334
-6.97291e-07
2.59899e-07
5.408e-07
-3.8718e-07
-0.000261356
0.000261165
-7.08295e-09
-0.000261224
7.60764e-08
0.000261385
-3.29972e-09
1.00552e-07
-7.52079e-05
7.52075e-05
-7.5166e-05
7.50389e-05
-0.00034869
0.00826158
-0.000258265
0.0107762
-0.000187368
0.0128785
-0.000136033
0.0144218
-9.41751e-05
0.0152757
-6.19389e-05
0.0153811
-3.7406e-05
0.0147367
-1.70725e-05
0.0134138
-3.12806e-06
0.0115339
5.30587e-06
0.00924219
7.33014e-06
0.00669581
6.67873e-06
0.00401971
3.11596e-06
0.00132758
0.00546553
-0.000157199
-0.000191241
-0.00169203
0.0016453
-0.000123959
-5.78806e-05
-0.00105135
0.00102511
-3.46169e-06
-1.56732e-07
2.31744e-07
-1.33425e-06
-0.000261459
0.000260814
-5.13516e-08
-0.000261246
4.78559e-08
0.000261731
-2.43381e-08
9.82859e-08
-7.5381e-05
7.53743e-05
-7.53049e-05
7.52043e-05
-0.000229162
0.00823249
-0.000165492
0.0107543
-0.000123801
0.0128663
-8.8945e-05
0.0144166
-6.27465e-05
0.0152765
-4.08199e-05
0.0153845
-2.05186e-05
0.0147402
-7.92118e-06
0.0134186
4.34605e-06
0.0115349
9.12449e-06
0.00924039
1.48784e-05
0.00668762
8.38532e-06
0.00401445
3.93573e-06
0.00132363
0.0053818
-4.13472e-05
-0.000104083
-0.00161958
0.00158731
-0.000124928
-0.000165523
-0.000979584
0.000906194
-3.65244e-05
-1.40407e-05
-1.99406e-06
-1.03566e-05
-0.000259692
0.000256727
-4.95537e-07
-0.0002598
-4.77811e-08
0.000261127
-7.96865e-08
-7.2594e-09
-7.54967e-05
7.54459e-05
-7.54485e-05
7.53503e-05
-0.000113931
0.00818094
-9.57889e-05
0.0107263
-7.68483e-05
0.0128542
-5.72793e-05
0.0144111
-3.95279e-05
0.0152752
-2.08698e-05
0.0153849
-7.24178e-06
0.0147395
3.27106e-06
0.0134197
1.14284e-05
0.0115326
1.54402e-05
0.00923982
1.32445e-05
0.00668274
1.29854e-05
0.00400539
5.74798e-06
0.00131789
0.00530302
-4.66386e-06
-3.04777e-05
-0.00153701
0.00151526
-1.95894e-05
-5.3783e-05
-0.000862128
0.000800044
-1.8445e-05
-4.43942e-05
-5.86642e-05
-6.27915e-05
-0.000236375
0.000209693
-9.84027e-06
-0.000246625
-3.78992e-06
0.000255315
-5.80823e-07
-1.66694e-06
-7.53118e-05
7.48167e-05
-7.53593e-05
7.53665e-05
-5.15023e-05
0.00813666
-5.07018e-05
0.0107002
-4.2563e-05
0.0128395
-3.10542e-05
0.0144026
-1.62832e-05
0.0152706
-4.67556e-06
0.0153823
3.90897e-06
0.0147388
1.51267e-05
0.013416
1.91324e-05
0.0115289
2.23774e-05
0.00923069
2.15531e-05
0.00667419
1.34578e-05
0.00399769
5.35616e-06
0.00131253
0.00525943
2.26867e-06
-1.01808e-05
-0.00149292
0.00149062
-2.36668e-06
-8.13379e-06
-0.00075377
0.000734936
9.52044e-08
-8.46089e-07
-6.26989e-06
-1.23861e-06
-0.000102784
8.43402e-05
-0.000147178
0.00017285
-2.18212e-05
-3.71186e-05
-6.87795e-05
5.89397e-05
-7.25692e-05
7.42361e-05
-2.25501e-05
0.00810851
-2.50349e-05
0.0106827
-1.9488e-05
0.0128279
-1.1033e-05
0.0143974
-3.33098e-06
0.0152692
5.89855e-06
0.0153803
1.44293e-05
0.0147395
2.19218e-05
0.0134132
2.52887e-05
0.0115259
2.73999e-05
0.00922483
2.44495e-05
0.00666318
1.75112e-05
0.00398553
6.31949e-06
0.00130621
0.00523754
3.62174e-06
-4.27988e-06
-0.00148158
0.00148355
2.95723e-07
-1.13063e-06
-0.000726834
0.000724389
1.4461e-07
-6.25248e-08
-1.72113e-07
1.41545e-07
-7.59863e-05
7.60823e-05
-7.6832e-05
7.80706e-05
3.71186e-05
-7.51017e-06
0.00809098
-7.53799e-06
0.0106707
-4.50949e-06
0.0128214
3.04078e-06
0.014391
1.12951e-05
0.0152638
1.91717e-05
0.0153756
2.64686e-05
0.014735
3.02659e-05
0.0134082
3.4053e-05
0.0115193
3.63893e-05
0.00921289
2.88715e-05
0.00665183
2.02769e-05
0.00397158
8.38374e-06
0.00129782
0.00522882
3.3623e-06
-2.16291e-06
-0.00147919
0.00148219
6.21495e-07
8.46836e-08
-0.000723136
0.00072335
9.60807e-08
-1.1058e-08
-8.1078e-11
1.22726e-07
-7.59898e-05
7.6135e-05
-7.6052e-05
7.59105e-05
7.99042e-10
0.00808343
2.33333e-06
0.0106638
7.76038e-06
0.0128166
1.4911e-05
0.0143874
2.31843e-05
0.0152598
2.91422e-05
0.0153729
3.59613e-05
0.0147293
3.95079e-05
0.0134027
4.3467e-05
0.0115122
3.95958e-05
0.00920216
3.48986e-05
0.0066372
2.08078e-05
0.00395915
8.14115e-06
0.00128968
0.00522624
3.1738e-06
-6.03413e-07
-0.0014797
0.00148235
7.16506e-07
3.22799e-07
-0.00072336
0.000723918
6.75222e-08
-1.91796e-09
-1.37665e-08
8.98578e-08
-7.6247e-05
7.63436e-05
-7.62578e-05
7.61351e-05
4.89708e-06
0.00808085
8.87922e-06
0.0106627
1.56261e-05
0.0128159
2.26025e-05
0.0143879
3.06359e-05
0.0152583
3.93229e-05
0.0153695
4.37551e-05
0.014725
5.027e-05
0.0133959
5.1504e-05
0.0115003
4.65905e-05
0.00919047
3.91826e-05
0.00661884
2.40817e-05
0.00394321
9.25117e-06
0.00128043
0.00522734
3.48955e-06
2.90578e-07
-0.00148121
0.00148361
7.66705e-07
5.28432e-07
-0.000724145
0.000724812
5.81103e-08
-1.07923e-08
1.06299e-08
8.46251e-08
-7.64183e-05
7.64858e-05
-7.642e-05
7.63301e-05
7.1442e-06
0.00808257
1.38351e-05
0.0106645
2.27871e-05
0.0128157
3.19241e-05
0.0143866
4.01934e-05
0.0152574
4.83849e-05
0.0153649
5.51689e-05
0.0147201
5.81929e-05
0.0133892
5.49099e-05
0.011492
5.30511e-05
0.0091766
4.1752e-05
0.00660116
3.0084e-05
0.00392238
9.93459e-06
0.00127049
0.00523067
3.36463e-06
4.37172e-07
-0.00148329
0.001486
7.71346e-07
6.164e-07
-0.000725244
0.000725873
3.78176e-08
9.39414e-08
4.31125e-08
5.16526e-08
-7.65698e-05
7.6627e-05
-7.65808e-05
7.64962e-05
1.02164e-05
0.00808617
1.89846e-05
0.0106683
2.84023e-05
0.0128192
3.97366e-05
0.0143871
5.05659e-05
0.0152553
5.77907e-05
0.0153623
6.37011e-05
0.0147146
6.7908e-05
0.0133762
7.03589e-05
0.0114747
6.18787e-05
0.00915648
5.28704e-05
0.00657838
3.14207e-05
0.00390089
1.09226e-05
0.00125957
0.00523662
2.91028e-06
1.34229e-06
-0.00148581
0.00148837
7.92063e-07
6.23364e-07
-0.000726385
0.00072711
2.39717e-08
1.64418e-08
4.68189e-08
5.60291e-08
-7.68147e-05
7.68513e-05
-7.67212e-05
7.66696e-05
1.17163e-05
0.00809343
2.17838e-05
0.0106749
3.36076e-05
0.0128253
4.72005e-05
0.0143905
5.75289e-05
0.0152555
6.82696e-05
0.0153577
7.65887e-05
0.0147059
7.92334e-05
0.0133674
8.12004e-05
0.0114553
7.26524e-05
0.0091367
5.55677e-05
0.00655423
3.60201e-05
0.00387579
1.49821e-05
0.00124459
0.0052437
2.9952e-06
1.62954e-06
-0.00148891
0.00149098
8.39073e-07
7.98659e-07
-0.000727666
0.000728378
2.72285e-08
4.6567e-08
2.33663e-08
4.31619e-08
-7.69695e-05
7.69924e-05
-7.69536e-05
7.68976e-05
1.32869e-05
0.00810191
2.60475e-05
0.0106824
4.01755e-05
0.0128324
5.38709e-05
0.0143941
6.73395e-05
0.0152564
7.9141e-05
0.0153551
8.6076e-05
0.0146991
8.9206e-05
0.0133594
8.60372e-05
0.011442
8.17145e-05
0.00911055
6.36788e-05
0.00652658
4.06792e-05
0.0038501
2.98989e-05
0.0012147
0.00525236
2.79585e-06
1.82473e-06
-0.00149176
0.00149363
1.1096e-06
8.4842e-07
-0.000729068
0.000729848
3.08554e-08
2.23227e-08
4.93011e-08
5.77495e-08
-7.71045e-05
7.71308e-05
-7.70584e-05
7.70153e-05
1.47375e-05
0.00811321
3.04926e-05
0.0106921
4.86495e-05
0.0128376
6.35864e-05
0.0143979
7.9367e-05
0.0152562
8.86331e-05
0.0153526
9.74118e-05
0.0146909
0.000101177
0.0133442
9.90977e-05
0.0114246
8.91353e-05
0.0090851
7.18395e-05
0.00649542
6.26974e-05
0.00381731
5.69714e-05
0.00526309
2.20684e-06
1.78072e-06
-0.0014945
0.00149655
7.43216e-07
9.53581e-07
-0.000730585
0.000731556
1.09047e-07
2.26702e-08
5.04047e-08
5.98599e-08
-7.72592e-05
7.72893e-05
-7.72373e-05
7.71796e-05
1.6821e-05
0.00812687
3.42906e-05
0.0107065
5.33049e-05
0.0128479
7.25023e-05
0.0144047
8.82157e-05
0.0152567
0.000101875
0.0153481
0.000109414
0.0146827
0.000111743
0.0133316
0.000108589
0.0114051
9.63412e-05
0.0090606
9.35524e-05
0.00646457
0.000104617
0.00527627
2.04321e-06
1.59531e-06
-0.00149779
0.00149995
3.76812e-08
5.3374e-07
-0.000732388
0.000733045
3.69503e-08
4.28744e-08
8.69143e-08
3.41713e-08
-7.74214e-05
7.75297e-05
-7.73991e-05
7.73392e-05
2.16356e-05
0.00813953
4.08828e-05
0.0107189
6.04327e-05
0.0128599
8.01249e-05
0.0144128
9.76491e-05
0.0152609
0.000112633
0.0153449
0.000120815
0.0146736
0.000126713
0.0133135
0.000123162
0.0113783
0.000120943
0.00903321
0.000136558
0.00528895
6.29269e-06
2.6522e-06
-0.00150257
0.00150621
-1.59795e-06
-1.02856e-06
-0.000733492
0.000733548
8.79768e-09
-3.27005e-08
3.13649e-08
5.45123e-08
-7.76928e-05
7.77292e-05
-7.76504e-05
7.76162e-05
2.58289e-05
0.00815457
4.47934e-05
0.0107345
6.83321e-05
0.0128717
9.05777e-05
0.0144199
0.000110724
0.0152628
0.00012273
0.015343
0.000133292
0.014667
0.000137201
0.0132994
0.000142272
0.011357
0.000159586
0.00530168
6.51566e-06
6.5885e-06
-0.00150489
0.00150976
1.52373e-06
-1.09953e-07
-1.44378e-06
5.4183e-06
-0.000732443
0.000433188
0.000297811
-1.85962e-07
2.72763e-08
4.16962e-08
3.46183e-08
-7.77818e-05
7.77902e-05
-7.78148e-05
7.77603e-05
2.78883e-05
0.00817149
5.10156e-05
0.0107518
7.48324e-05
0.0128875
0.000100512
0.0144301
0.000119104
0.0152664
0.000135125
0.0153412
0.000142538
0.0146617
0.000153932
0.0132878
0.00017001
0.00531776
5.84927e-06
5.94942e-06
-0.00151269
0.00151586
1.80809e-06
1.5386e-06
2.11486e-06
1.53696e-06
-0.00046204
0.000464324
-7.62111e-07
-0.000459257
-2.89236e-06
-0.000454089
-6.61274e-06
-1.54832e-05
0.000279483
2.84474e-06
-7.78932e-05
7.77068e-05
-7.78662e-05
7.78316e-05
3.02676e-05
0.00819224
5.62694e-05
0.0107704
8.44148e-05
0.0129036
0.000110116
0.0144391
0.000130122
0.0152715
0.0001457
0.015338
0.000160167
0.0146555
0.000177029
0.00533586
5.95588e-06
6.2255e-06
-0.0015189
0.00152229
1.38594e-06
1.07231e-06
1.58598e-06
1.32168e-06
-0.000467604
0.000468448
9.62098e-07
-0.000466855
7.88592e-07
-0.000465409
6.67152e-07
4.51775e-07
-0.000271817
0.000271523
-4.69735e-07
-0.000273711
-9.98472e-07
-8.41159e-07
8.05514e-05
3.41832e-05
0.00821434
6.2097e-05
0.0107927
9.37364e-05
0.01292
0.000118337
0.0144509
0.000139005
0.0152782
0.000156347
0.0153419
0.000173633
0.00535694
6.45577e-06
6.64575e-06
-0.00152612
0.00152957
1.13726e-06
1.36486e-06
1.30796e-06
1.08565e-06
-0.000470567
0.000471233
7.17497e-07
-0.000470054
5.5861e-07
-0.000469029
5.59462e-07
7.40296e-07
-0.000273055
0.00027383
1.84e-07
-0.000272463
1.96129e-07
-0.000271937
1.39893e-07
3.71362e-08
-7.87117e-05
7.82413e-05
-7.97102e-05
3.76254e-05
0.00823882
6.98285e-05
0.0108167
0.000100774
0.0129376
0.000126205
0.0144637
0.000147533
0.015287
0.000160531
0.00538019
6.9665e-06
7.41997e-06
-0.00153374
0.00153763
1.1203e-06
1.43689e-06
1.12122e-06
1.3548e-06
-0.000473301
0.000473912
5.24125e-07
-0.000472461
5.23627e-07
-0.000471757
6.03046e-07
5.60811e-07
-0.000275165
0.000275743
1.366e-07
-0.00027474
1.32153e-07
-0.000274351
1.67912e-07
2.18934e-07
-7.86134e-05
7.87961e-05
-7.84178e-05
-7.82784e-05
4.2894e-05
0.00826577
7.79614e-05
0.0108395
0.000108539
0.0129552
0.000131679
0.0144796
0.00013993
0.00540688
7.92157e-06
8.28571e-06
-0.00154227
0.00154646
1.22735e-06
1.55176e-06
1.2292e-06
1.55425e-06
-0.000476086
0.000476647
5.58369e-07
-0.000475134
4.83619e-07
-0.00047454
5.26108e-07
7.25999e-07
-0.000277047
0.000277438
1.29855e-07
-0.000276616
9.08078e-08
-0.000276175
1.6024e-07
1.28003e-07
-7.93135e-05
7.94487e-05
-7.91822e-05
-7.90151e-05
4.94241e-05
0.00829431
8.65298e-05
0.0108615
0.000111513
0.0129754
0.000115414
0.00543741
9.0336e-06
9.87006e-06
-0.0015514
0.00155618
1.65374e-06
1.48473e-06
1.63548e-06
1.7083e-06
-0.000479114
0.000479563
7.763e-07
-0.000478091
5.28058e-07
-0.000477428
5.64116e-07
7.72561e-07
-0.000278752
0.000279168
1.38984e-07
-0.000278401
1.31737e-07
-0.000278004
1.26765e-07
1.59243e-07
-7.98261e-05
7.99544e-05
-7.97361e-05
-7.95767e-05
5.94727e-05
0.00832138
8.9768e-05
0.0108833
8.82264e-05
0.0054717
1.25457e-05
1.26411e-05
-0.00156251
0.00156783
1.90199e-06
1.82069e-06
1.85304e-06
1.6835e-06
-0.000482425
0.000483222
8.55388e-07
-0.000481597
6.56202e-07
-0.000480596
6.3286e-07
6.74861e-07
-0.000280535
0.000281157
1.51396e-07
-0.000280128
1.1869e-07
-0.000279809
2.43019e-07
1.31013e-07
-8.03703e-05
8.05077e-05
-8.02395e-05
-8.01136e-05
6.62109e-05
0.00834495
6.28257e-05
0.00550145
1.9036e-05
1.74323e-05
-0.0015759
0.00158293
2.86477e-06
2.647e-06
2.40265e-06
2.16473e-06
-0.000486383
0.00048725
1.03408e-06
-0.000485264
7.00358e-07
-0.000484146
7.33914e-07
7.58154e-07
-0.000282625
0.000283357
1.20533e-07
-0.000282127
1.56113e-07
-0.00028165
1.53473e-07
1.81121e-07
-8.09986e-05
8.11484e-05
-8.08809e-05
-8.06387e-05
4.41153e-05
1.74762e-05
3.55429e-05
-0.00159302
0.00160167
5.81128e-06
4.57757e-06
3.98958e-06
3.35444e-06
-0.000491423
0.000492732
1.55485e-06
-0.000489953
1.17644e-06
-0.000488497
9.44597e-07
9.17201e-07
-0.000284997
0.000285838
1.89718e-07
-0.000284479
1.8051e-07
-0.000283922
1.75108e-07
1.92695e-07
-8.16373e-05
8.17562e-05
-8.14821e-05
-8.13295e-05
-0.00161586
9.73289e-06
1.78391e-05
1.21328e-05
9.2223e-06
-0.000498911
0.000501444
3.27685e-06
-0.000496503
2.16979e-06
-0.000494413
1.89778e-06
1.6729e-06
-0.000288152
0.000289357
3.46748e-07
-0.000287244
2.66767e-07
-0.000286523
2.21549e-07
2.32006e-07
-8.23027e-05
8.24908e-05
-8.21231e-05
-8.19489e-05
-0.000513793
1.2822e-05
-0.000508898
1.29438e-05
-0.000505119
8.35326e-06
5.54682e-06
-0.00029366
0.000296086
8.48991e-07
-0.000292062
5.70639e-07
-0.000290619
4.52748e-07
4.10852e-07
-8.32095e-05
8.35549e-05
-8.29436e-05
-8.27228e-05
-0.000309508
1.64174e-05
-0.000304617
8.05249e-06
-0.000299969
3.70447e-06
1.6634e-06
-8.49878e-05
8.58357e-05
-8.44178e-05
-8.39657e-05
-9.92554e-05
-9.12032e-05
-8.74991e-05
1.84095e-06
-1.8358e-06
6.83056e-06
7.51766e-07
-5.72149e-06
1.05051e-06
-2.87607e-06
5.33093e-06
1.51282e-06
4.92277e-06
-3.01452e-07
-3.84868e-06
8.79981e-07
-5.54219e-06
5.6772e-07
-3.43791e-06
9.42824e-07
4.39426e-06
5.89384e-06
5.61869e-07
4.43646e-07
-1.89637e-05
-6.36747e-06
2.46944e-05
-2.52225e-06
8.65981e-07
-5.83288e-06
3.24694e-07
-3.7537e-06
7.97639e-07
6.06158e-06
3.62889e-07
4.04103e-06
-3.79186e-06
-1.37458e-05
4.82325e-06
-0.000378299
-2.39019e-05
0.000391276
-2.10969e-07
2.99178e-05
-1.41276e-07
-1.86375e-06
6.10553e-07
-6.10942e-06
7.65075e-08
-3.82272e-06
5.46896e-07
5.89456e-06
8.78235e-08
3.96214e-06
-1.58806e-06
-0.000370076
-1.01412e-05
-5.17992e-07
-1.4229e-05
-0.00142508
-2.98934e-05
0.00143138
-4.40351e-07
-4.15458e-06
0.000398248
-2.20141e-06
3.03556e-05
-4.55946e-07
-4.00141e-07
-1.38474e-06
2.70768e-07
-6.28597e-06
1.3943e-07
-3.95069e-06