/*--------------------------------*- C++ -*----------------------------------*\
| =========                 |                                                 |
| \\      /  F ield         | OpenFOAM: The Open Source CFD Toolbox           |
|  \\    /   O peration     | Version:  v1912                                 |
|   \\  /    A nd           | Website:  www.openfoam.com                      |
|    \\/     M anipulation  |                                                 |
\*---------------------------------------------------------------------------*/
FoamFile
{
    version     2.0;
    format      ascii;
    class       volVectorField;
    location    "60";
    object      U;
}
// * * * * * * * * * * * * * * * * * * * * * * * * * * * * * * * * * * * * * //

dimensions      [0 1 -1 0 0 0 0];


internalField   nonuniform List<vector> 
3673
(
(0.0763562 0.0257566 -3.14003e-21)
(0.228213 0.0756384 3.05208e-24)
(0.0758276 0.0255841 0)
(0.377004 0.122592 0)
(0.226754 0.0751509 -3.05363e-24)
(0.075322 0.0254186 0)
(0.517945 0.165285 0)
(0.374725 0.121822 0)
(0.225309 0.0746707 0)
(0.0748184 0.0252551 -2.78283e-21)
(0.644509 0.201917 0)
(0.514984 0.164276 0)
(0.372445 0.121057 0)
(0.223864 0.0741985 0)
(0.0743281 0.0250925 2.73125e-21)
(0.749188 0.23047 0)
(0.640929 0.200685 2.00097e-24)
(0.511987 0.163262 0)
(0.370176 0.120306 0)
(0.222446 0.0737312 -2.64602e-21)
(0.0738409 0.0249286 0)
(0.824711 0.24913 0)
(0.74506 0.229029 9.7846e-22)
(0.637344 0.199457 -1.99946e-24)
(0.508997 0.162254 0)
(0.367891 0.119545 0)
(0.221012 0.0732542 0)
(0.0733503 0.0247642 0)
(0.865118 0.256571 -9.333e-22)
(0.820035 0.247475 -9.19426e-22)
(0.740928 0.227593 0)
(0.63372 0.198218 9.7775e-22)
(0.505977 0.161236 0)
(0.365598 0.118782 -2.11603e-24)
(0.21957 0.072777 0)
(0.0728629 0.0245996 -4.731e-21)
(0.866634 0.252188 9.3488e-24)
(0.859823 0.254686 1.73002e-24)
(0.815352 0.245831 0)
(0.73677 0.226154 1.69682e-23)
(0.630079 0.196976 0)
(0.502917 0.160211 0)
(0.363281 0.118016 2.11637e-24)
(0.218133 0.0722972 2.30768e-21)
(0.0723656 0.0244308 0)
(0.828316 0.236284 9.50049e-22)
(0.860632 0.250068 8.91552e-22)
(0.854536 0.252826 -8.70192e-22)
(0.810663 0.244195 -8.52807e-22)
(0.732559 0.224702 -1.66122e-24)
(0.626373 0.195718 0)
(0.499823 0.159179 0)
(0.36095 0.117243 -1.93221e-24)
(0.216666 0.0718055 0)
(0.0718645 0.0242602 0)
(0.752416 0.210141 1.96258e-24)
(0.821545 0.233935 -9.13207e-22)
(0.854648 0.247985 8.68855e-22)
(0.849267 0.250993 8.35886e-22)
(0.805935 0.242555 0)
(0.728309 0.223242 1.66067e-24)
(0.622615 0.194449 0)
(0.496698 0.15814 0)
(0.358603 0.116466 5.61939e-24)
(0.21521 0.0713133 0)
(0.0713591 0.0240864 0)
(0.644166 0.175899 -1.25176e-23)
(0.744867 0.207586 -9.33229e-22)
(0.814786 0.231642 -8.72649e-22)
(0.848735 0.245964 -1.22944e-23)
(0.844017 0.249178 3.21775e-24)
(0.80118 0.24091 -7.99447e-22)
(0.723994 0.221768 0)
(0.618816 0.193174 0)
(0.493549 0.157096 0)
(0.35622 0.115673 -5.44557e-24)
(0.21375 0.0708169 0)
(0.0708489 0.0239101 0)
(0.51104 0.136246 9.52759e-24)
(0.635872 0.173177 3.81068e-23)
(0.737251 0.205098 9.32781e-22)
(0.808186 0.229464 -1.71678e-21)
(0.842943 0.243997 6.43738e-24)
(0.838789 0.247372 7.74814e-22)
(0.796386 0.23926 0)
(0.719619 0.220285 0)
(0.614963 0.191891 -1.5904e-21)
(0.49036 0.156045 0)
(0.353857 0.114888 1.79747e-21)
(0.212289 0.0703158 2.00091e-21)
(0.0703453 0.0237417 0)
(0.36174 0.0939733 0)
(0.501996 0.133429 1.13538e-21)
(0.627287 0.17049 9.73156e-22)
(0.729954 0.202817 9.18139e-22)
(0.801873 0.227387 -8.32828e-22)
(0.837276 0.242064 -5.96284e-24)
(0.833571 0.245577 0)
(0.791547 0.23761 -2.81002e-24)
(0.715211 0.218809 1.45175e-21)
(0.611092 0.190618 0)
(0.487175 0.155 -1.5293e-21)
(0.351501 0.1141 -1.63489e-21)
(0.210832 0.0698189 0)
(0.0698365 0.0235716 0)
(0.35184 0.0912062 -2.96281e-22)
(0.240819 0.0614423 -8.41308e-24)
(0.243916 0.0623412 -5.37537e-22)
(0.492034 0.130478 -1.14054e-21)
(0.619293 0.168156 7.77253e-24)
(0.723251 0.200707 8.75131e-22)
(0.795875 0.225392 -6.11721e-24)
(0.831723 0.240174 5.97066e-24)
(0.828365 0.243801 5.50495e-24)
(0.786688 0.235973 5.50262e-24)
(0.71076 0.217337 -4.14801e-24)
(0.607192 0.189343 0)
(0.483982 0.153954 0)
(0.349138 0.113312 1.63391e-21)
(0.209386 0.0693287 0)
(0.0693422 0.0234034 0)
(0.338731 0.0876775 2.85797e-22)
(0.228993 0.0582544 4.87307e-22)
(0.236039 0.0603498 0)
(0.160588 0.0404915 1.31809e-23)
(0.162713 0.0409794 3.78826e-22)
(0.246208 0.0628134 0)
(0.483325 0.128072 2.49156e-25)
(0.61242 0.166099 1.46275e-23)
(0.717113 0.198728 8.4208e-22)
(0.790127 0.223474 1.20181e-23)
(0.826265 0.238328 7.12279e-22)
(0.823178 0.242051 -6.96807e-22)
(0.781803 0.23435 -3.98272e-24)
(0.706296 0.215878 1.34138e-24)
(0.603293 0.188082 1.38431e-21)
(0.480819 0.152924 -1.39253e-21)
(0.34681 0.11254 -1.56087e-21)
(0.207946 0.0688446 -1.73902e-21)
(0.0688661 0.0232419 0)
(0.329094 0.0849983 1.94257e-23)
(0.211528 0.0539701 -1.01734e-21)
(0.219387 0.055574 4.67543e-22)
(0.149393 0.0376246 0)
(0.157013 0.0396287 1.02399e-22)
(0.099446 0.0248644 -1.6065e-22)
(0.100214 0.0250467 3.24544e-22)
(0.101117 0.0252392 1.30413e-24)
(0.164076 0.0413031 0)
(0.100747 0.0251288 1.64612e-22)
(0.476697 0.12614 1.07994e-21)
(0.606509 0.16426 -9.40989e-22)
(0.711437 0.19689 7.97551e-22)
(0.784605 0.221643 -7.48733e-22)
(0.820901 0.236532 9.88033e-24)
(0.818009 0.240333 0)
(0.776918 0.232751 1.28903e-24)
(0.701825 0.21444 -1.26131e-21)
(0.599404 0.186836 1.32186e-21)
(0.477658 0.151901 1.33037e-21)
(0.344515 0.111785 1.41874e-21)
(0.206558 0.0683807 -1.66039e-21)
(0.0684077 0.0230863 -3.08766e-21)
(0.323589 0.0832679 -1.23967e-21)
(0.203978 0.0516511 7.79953e-24)
(0.206625 0.0525008 0)
(0.126092 0.0318204 4.63773e-22)
(0.135778 0.0338428 -3.71803e-22)
(0.0874245 0.021572 1.36246e-23)
(0.0931524 0.0235203 -9.41507e-24)
(0.0983132 0.0246928 0)
(0.0964171 0.0241891 -1.00359e-25)
(0.0582604 0.014468 2.29133e-24)
(0.0586894 0.0145519 -1.50639e-22)
(0.101467 0.025306 -1.30448e-24)
(0.0591468 0.0146531 1.49573e-22)
(0.101741 0.0253907 -1.70164e-22)
(0.0589386 0.0146041 0)
(0.471517 0.124582 -1.01318e-21)
(0.601261 0.162621 -8.85522e-22)
(0.706117 0.195177 0)
(0.779271 0.219887 1.42927e-21)
(0.815623 0.234788 -2.65653e-24)
(0.812867 0.23865 0)
(0.772038 0.231181 6.23115e-22)
(0.697368 0.213024 -1.20452e-21)
(0.595557 0.185615 -1.18785e-24)
(0.474567 0.150906 1.32402e-21)
(0.342245 0.11104 1.35721e-21)
(0.20521 0.0679337 -9.2902e-23)
(0.0679624 0.0229357 0)
(0.31997 0.0822391 1.192e-21)
(0.20094 0.0507092 -7.51841e-24)
(0.20211 0.0510597 -7.80866e-24)
(0.120749 0.0301198 7.12107e-24)
(0.122305 0.0306357 -1.17199e-22)
(0.0598087 0.0150875 1.4896e-22)
(0.0623359 0.0157666 -1.55748e-22)
(0.0768216 0.0180797 -7.62167e-23)
(0.0675305 0.017227 4.42901e-24)
(0.0496848 0.01164 1.58655e-23)
(0.0540735 0.0135298 0)
(0.0576028 0.0143522 0)
(0.0564097 0.0141192 -1.43646e-22)
(0.0188215 0.00463015 -8.84798e-25)
(0.0189324 0.00465331 8.85251e-25)
(0.0593223 0.0146989 -1.51173e-22)
(0.0190633 0.00468494 -3.45413e-25)
(0.0594744 0.0147344 1.55591e-22)
(0.019019 0.00467776 -1.15661e-22)
(0.467175 0.123296 -9.90976e-22)
(0.596506 0.161147 8.44958e-22)
(0.701097 0.193569 -1.5065e-21)
(0.774109 0.218206 -6.87392e-22)
(0.810418 0.233092 -6.38185e-22)
(0.807753 0.237006 -1.21418e-21)
(0.767173 0.229641 -1.17878e-24)
(0.692942 0.211635 0)
(0.591748 0.184412 -1.16642e-21)
(0.471514 0.149927 0)
(0.340056 0.110331 1.2932e-21)
(0.203904 0.067503 0)
(0.0675346 0.0227913 1.37631e-21)
(0.31711 0.0815028 1.39993e-21)
(0.19913 0.0502914 7.36783e-24)
(0.199864 0.0504804 4.72056e-22)
(0.119194 0.0296913 1.10661e-22)
(0.119799 0.0298627 1.04773e-22)
(0.0577822 0.0142936 -1.47211e-22)
(0.057958 0.0143578 -2.33656e-24)
(0.0587491 0.0146225 1.55296e-22)
(0.058211 0.0144436 -1.48076e-22)
(0.0193542 0.0048825 -1.19516e-22)
(0.0207029 0.00541076 1.58807e-22)
(0.0333565 0.00576167 -1.3412e-23)
(0.0229091 0.00604009 -3.38868e-23)
(0.0162611 0.00416903 -7.55704e-23)
(0.0174184 0.00445816 -1.10158e-22)
(0.0186442 0.00459928 -1.09134e-22)
(0.0182872 0.00454357 -1.0811e-22)
(0.0191088 0.00469902 1.17304e-25)
(0.0191513 0.00470743 1.19998e-22)
(0.463374 0.122185 -9.68779e-22)
(0.592117 0.159794 8.23559e-22)
(0.696309 0.192046 1.45065e-21)
(0.769065 0.216584 5.17876e-24)
(0.805275 0.231447 6.11989e-22)
(0.802674 0.235402 0)
(0.762347 0.228136 0)
(0.688568 0.210275 0)
(0.587998 0.183238 1.15558e-21)
(0.468541 0.148984 1.21334e-21)
(0.337934 0.109648 0)
(0.202647 0.0670889 0)
(0.0671182 0.0226521 0)
(0.31465 0.0808656 2.84255e-22)
(0.197649 0.0499468 -4.47057e-22)
(0.198269 0.0501191 -3.16912e-24)
(0.118274 0.0294885 0)
(0.118689 0.0295909 -4.36689e-22)
(0.0573655 0.0141781 1.42147e-22)
(0.0574182 0.0142087 -1.4361e-22)
(0.0576126 0.0142555 1.45069e-22)
(0.0575124 0.0142303 -1.45347e-22)
(0.0185506 0.00455961 2.09356e-22)
(0.0186037 0.00458091 -1.05347e-22)
(0.0188781 0.00467515 0)
(0.0186823 0.00460284 2.13436e-22)
(0.00925261 0.00147581 -1.87005e-23)
(0.459942 0.121185 -7.42294e-24)
(0.587991 0.15853 -1.57811e-21)
(0.691696 0.190599 7.02904e-22)
(0.764132 0.215025 0)
(0.800191 0.229849 0)
(0.797633 0.233838 0)
(0.757563 0.226665 5.43748e-22)
(0.684247 0.208947 -5.11587e-22)
(0.584335 0.182098 -1.06971e-21)
(0.465655 0.148074 -1.16041e-21)
(0.33588 0.108991 1.24408e-21)
(0.201431 0.0666913 0)
(0.0667169 0.0225205 -1.24865e-21)
(0.312426 0.0802712 -2.73644e-22)
(0.196317 0.0496111 -4.34029e-22)
(0.19687 0.0497792 -4.40135e-22)
(0.117489 0.0293116 5.16283e-22)
(0.11787 0.0294088 -4.20931e-22)
(0.0570449 0.0141061 0)
(0.0570956 0.0141365 -1.37948e-22)
(0.057251 0.0141655 1.40173e-22)
(0.0571823 0.0141482 1.39258e-22)
(0.018438 0.00452821 4.93552e-25)
(0.0184484 0.00453906 -1.02243e-22)
(0.0185101 0.00454851 -1.73973e-25)
(0.0184663 0.00454116 1.02843e-22)
(0.456742 0.120257 9.07741e-22)
(0.584071 0.157345 -7.62554e-22)
(0.687217 0.189211 -6.68766e-22)
(0.759282 0.213518 6.06229e-22)
(0.795161 0.228299 5.63919e-22)
(0.792637 0.232312 7.42996e-24)
(0.752835 0.225228 -5.09062e-22)
(0.680012 0.207651 0)
(0.580768 0.180994 1.02287e-21)
(0.462876 0.147204 -1.05806e-21)
(0.333915 0.108365 -1.10191e-24)
(0.200274 0.0663112 0)
(0.0663218 0.0223945 1.19132e-21)
(0.310353 0.0797116 4.1628e-24)
(0.195072 0.0492885 5.82138e-24)
(0.195595 0.0494514 4.21428e-22)
(0.116738 0.0291247 9.87365e-23)
(0.117098 0.0292239 5.04511e-22)
(0.0567133 0.0140295 -1.32193e-22)
(0.0567674 0.014061 -1.32546e-22)
(0.0569258 0.0140926 4.45318e-25)
(0.0568571 0.0140736 -8.27653e-25)
(0.018346 0.00450585 9.76989e-23)
(0.0183595 0.00451725 1.0297e-25)
(0.0184108 0.00452302 -1.01134e-22)
(0.0183742 0.00451741 -2.01171e-25)
(0.45372 0.119385 8.71145e-22)
(0.580297 0.156211 7.40847e-22)
(0.682845 0.187878 -6.48264e-22)
(0.754498 0.212058 -5.84348e-22)
(0.790173 0.226786 2.91951e-24)
(0.787686 0.230822 5.11987e-22)
(0.748176 0.223823 0)
(0.675874 0.206391 0)
(0.57732 0.179931 -1.01484e-21)
(0.460177 0.14636 0)
(0.332005 0.107755 1.10134e-24)
(0.199138 0.0659388 -1.24806e-21)
(0.065921 0.0222622 -1.14092e-21)
(0.308386 0.0791743 2.43061e-22)
(0.193882 0.0489764 -3.96928e-22)
(0.194376 0.0491321 4.03787e-22)
(0.116024 0.0289448 3.83484e-22)
(0.116376 0.0290414 -2.93281e-22)
(0.0563772 0.0139451 0)
(0.0564298 0.0139754 -2.55074e-22)
(0.05659 0.0140118 0)
(0.0565185 0.0139911 -8.29575e-25)
(0.0182424 0.00448104 7.30683e-25)
(0.0182597 0.00449296 9.52908e-23)
(0.0183165 0.00450054 1.93367e-22)
(0.0182784 0.00449415 -1.99084e-25)
(0.450832 0.118554 1.5933e-24)
(0.576632 0.155125 -7.00414e-22)
(0.678561 0.186594 6.16939e-22)
(0.749757 0.210637 -5.59457e-22)
(0.785215 0.225308 -5.13456e-22)
(0.78279 0.229361 -4.89453e-22)
(0.743603 0.22245 9.02045e-25)
(0.67184 0.205166 9.25288e-22)
(0.573969 0.178902 0)
(0.457589 0.145554 0)
(0.330178 0.107172 1.01711e-21)
(0.19802 0.0655701 0)
(0.0655352 0.0221359 -1.09385e-24)
(0.3065 0.0786603 -2.27583e-22)
(0.192737 0.0486713 -3.81818e-22)
(0.193217 0.0488249 -3.91464e-22)
(0.115337 0.028771 2.77572e-22)
(0.115677 0.028863 -5.60364e-22)
(0.0560455 0.013863 0)
(0.0561011 0.013893 -1.22373e-22)
(0.0562578 0.0139282 -1.2446e-22)
(0.056189 0.0139084 -1.24311e-22)
(0.0181344 0.00445377 9.06199e-23)
(0.0181537 0.00446553 1.59181e-25)
(0.0182098 0.00447485 9.2292e-23)
(0.0181716 0.00446843 -1.84854e-22)
(0.448053 0.117762 1.45951e-23)
(0.573048 0.154078 -6.84635e-22)
(0.674312 0.185344 -1.14053e-24)
(0.745048 0.209252 0)
(0.780295 0.22386 4.89094e-22)
(0.777949 0.227928 0)
(0.739124 0.221109 4.539e-22)
(0.667926 0.203982 -8.96397e-25)
(0.570731 0.177912 0)
(0.455073 0.144772 0)
(0.328372 0.106595 0)
(0.196934 0.0652125 -1.14751e-21)
(0.0651783 0.0220159 0)
(0.304683 0.0781668 6.87453e-22)
(0.191637 0.0483833 3.72365e-22)
(0.192105 0.0485305 0)
(0.114678 0.0286003 2.67365e-22)
(0.115005 0.0286903 -8.95335e-23)
(0.0557297 0.0137833 0)
(0.0557781 0.013813 1.18156e-22)
(0.0559294 0.0138456 1.43312e-24)
(0.055861 0.0138263 2.37354e-22)
(0.0180277 0.00442757 8.73336e-23)
(0.0180476 0.00443911 1.58796e-25)
(0.0181028 0.00444826 1.79475e-22)
(0.0180651 0.00444202 0)
(0.445333 0.116995 0)
(0.569519 0.153066 0)
(0.670084 0.184122 4.75128e-26)
(0.740329 0.207883 9.79661e-25)
(0.775388 0.222426 1.88384e-24)
(0.773172 0.226516 -4.41651e-22)
(0.734741 0.219799 0)
(0.664116 0.202832 0)
(0.567591 0.176954 4.43995e-22)
(0.452633 0.144013 0)
(0.326615 0.106028 9.34468e-22)
(0.195866 0.0648508 1.02224e-24)
(0.0647941 0.021888 -1.05711e-21)
(0.302926 0.0776941 0)
(0.190579 0.0481058 5.13351e-24)
(0.19103 0.0482482 0)
(0.114041 0.0284387 -8.34122e-23)
(0.114359 0.0285255 -1.73277e-22)
(0.0554189 0.0137049 0)
(0.0554676 0.0137331 3.87704e-25)
(0.0556152 0.0137664 1.15608e-22)
(0.05555 0.0137467 1.14203e-22)
(0.0179286 0.00440267 0)
(0.0179452 0.0044147 0)
(0.0179969 0.00442198 1.73045e-22)
(0.0179581 0.00441609 -1.71745e-22)
(0.442667 0.116256 -7.30696e-22)
(0.565987 0.15207 0)
(0.665834 0.182915 5.45902e-22)
(0.735597 0.206526 -9.79115e-25)
(0.770499 0.221002 0)
(0.768457 0.225121 0)
(0.730456 0.218517 0)
(0.660416 0.201717 -4.04081e-22)
(0.564544 0.176024 0)
(0.450222 0.143257 0)
(0.324894 0.105464 0)
(0.194796 0.0644898 9.8922e-22)
(0.0643969 0.0217597 -2.01294e-21)
(0.301184 0.077231 8.40122e-22)
(0.189545 0.0478389 3.37796e-22)
(0.189992 0.0479772 1.34402e-24)
(0.113427 0.0282827 2.47747e-22)
(0.113734 0.0283659 -8.25491e-23)
(0.0551167 0.0136312 0)
(0.0551666 0.0136561 1.09226e-22)
(0.0553061 0.0136891 4.45711e-25)
(0.0552577 0.013674 7.28526e-25)
(0.0178274 0.00437775 0)
(0.0178451 0.00438914 1.37756e-25)
(0.0178972 0.00439756 0)
(0.0178614 0.00439125 -1.77005e-25)
(0.439998 0.115527 -4.14194e-24)
(0.562426 0.151087 -6.05014e-22)
(0.661521 0.181708 0)
(0.730809 0.205157 0)
(0.765611 0.219574 1.63926e-24)
(0.763804 0.223739 0)
(0.726262 0.217263 0)
(0.656799 0.200629 7.54102e-25)
(0.561541 0.175106 -4.06147e-22)
(0.447864 0.14251 0)
(0.323153 0.104892 9.21929e-22)
(0.193719 0.0641289 9.57999e-22)
(0.0640052 0.0216269 9.60602e-22)
(0.299474 0.0767824 -1.9883e-22)
(0.188532 0.0475807 3.25622e-22)
(0.188974 0.0477158 -3.31855e-22)
(0.112829 0.0281325 -3.1682e-22)
(0.113132 0.0282128 -1.59304e-22)
(0.0548308 0.01356 0)
(0.0548783 0.0135838 1.05063e-22)
(0.0550113 0.0136149 0)
(0.054967 0.0136006 7.14561e-25)
(0.017728 0.00435472 0)
(0.0177584 0.00436681 -7.9159e-23)
(0.0177964 0.00437327 1.7612e-25)
(0.0177643 0.0043674 8.00646e-23)
(0.437299 0.114804 2.7255e-24)
(0.558787 0.150095 0)
(0.657085 0.180472 3.80615e-24)
(0.725943 0.20376 0)
(0.760713 0.218131 -4.09914e-22)
(0.759206 0.22237 3.89716e-22)
(0.722149 0.216037 -7.26998e-25)
(0.653248 0.199562 3.70119e-22)
(0.558574 0.174191 -1.53241e-24)
(0.445513 0.141757 -7.82631e-22)
(0.321433 0.104318 0)
(0.192616 0.0637478 0)
(0.0636134 0.0214947 -1.89868e-21)
(0.297753 0.0763332 -1.91111e-22)
(0.187529 0.047322 -1.23973e-24)
(0.187968 0.0474575 6.41605e-22)
(0.112243 0.027988 -3.81254e-22)
(0.11254 0.0280643 1.58074e-22)
(0.0545484 0.0134905 0)
(0.0545955 0.0135135 0)
(0.0547263 0.0135433 4.58285e-25)
(0.0546811 0.0135294 6.93074e-25)
(0.0176389 0.00433287 7.55972e-23)
(0.0176677 0.00434449 5.99471e-25)
(0.0177038 0.00435013 7.75314e-23)
(0.0176729 0.00434439 1.53648e-22)
(0.434516 0.114066 0)
(0.554969 0.149067 0)
(0.652467 0.179182 -4.764e-22)
(0.720955 0.20231 8.43428e-22)
(0.755796 0.21667 -3.90831e-22)
(0.754656 0.221019 -3.74121e-22)
(0.718094 0.214832 -6.68381e-25)
(0.649726 0.198499 3.67029e-22)
(0.555625 0.173271 -3.7486e-22)
(0.443161 0.140988 0)
(0.319685 0.103723 0)
(0.191517 0.063365 9.01263e-22)
(0.0632217 0.0213593 9.06547e-22)
(0.295971 0.0758728 0)
(0.186541 0.0470672 -2.97762e-22)
(0.186988 0.0472068 3.07507e-22)
(0.111673 0.0278435 -7.2425e-23)
(0.111966 0.0279206 -3.72092e-22)
(0.0542771 0.013425 0)
(0.0543201 0.0134467 9.705e-23)
(0.0544496 0.0134751 9.88637e-23)
(0.0544052 0.0134608 9.84301e-23)
(0.0175474 0.00431065 7.28342e-23)
(0.0175766 0.00432208 0)
(0.017613 0.00432758 1.49635e-22)
(0.0175804 0.00432175 7.4447e-23)
(0.431571 0.113301 -6.20859e-22)
(0.550881 0.147969 5.25482e-22)
(0.647585 0.177792 -4.50803e-22)
(0.715809 0.200787 0)
(0.750867 0.215207 3.75859e-22)
(0.75015 0.219689 0)
(0.714076 0.213639 -6.98169e-22)
(0.646231 0.197433 3.39608e-22)
(0.552677 0.172332 -3.6342e-22)
(0.440789 0.140199 0)
(0.317919 0.103111 0)
(0.1904 0.0629687 9.42484e-22)
(0.0628003 0.0212187 3.47631e-23)
(0.294102 0.0753952 5.37657e-22)
(0.185528 0.0468106 2.85921e-22)
(0.185999 0.0469544 0)
(0.111108 0.0277009 1.41752e-22)
(0.111392 0.0277747 -1.41402e-22)
(0.0540061 0.0133565 0)
(0.0540532 0.0133774 9.3061e-23)
(0.0541758 0.0134089 9.56628e-23)
(0.0541331 0.0133962 -9.47011e-23)
(0.0174635 0.00429015 7.06812e-23)
(0.0174887 0.00430108 5.56587e-25)
(0.0175256 0.00430637 7.20294e-23)
(0.0174928 0.00429988 7.09564e-23)
(0.428308 0.112461 9.07507e-24)
(0.546341 0.146724 -4.89636e-22)
(0.642319 0.176251 0)
(0.710529 0.199216 3.8001e-22)
(0.745946 0.213761 -7.18886e-25)
(0.745687 0.218383 6.8717e-22)
(0.710084 0.212445 2.66969e-24)
(0.642729 0.196345 6.69197e-22)
(0.549716 0.171371 0)
(0.438384 0.139381 -1.40597e-24)
(0.316122 0.102481 -7.6502e-22)
(0.189246 0.0625625 6.51309e-23)
(0.0623573 0.0210694 8.98584e-22)
(0.291999 0.0748628 3.80609e-24)
(0.184492 0.046544 0)
(0.184973 0.0466923 5.63258e-22)
(0.110545 0.0275598 -2.67748e-22)
(0.110829 0.0276324 6.75356e-23)
(0.053741 0.0132922 8.86558e-23)
(0.0537911 0.0133126 8.9163e-23)
(0.0539088 0.0133412 1.20101e-24)
(0.0538688 0.0133293 8.99708e-23)
(0.017374 0.0042665 6.74178e-23)
(0.0174025 0.00427706 0)
(0.0174341 0.0042856 6.87281e-23)
(0.017412 0.00428323 1.02548e-25)
(0.424476 0.111471 5.57033e-22)
(0.541155 0.145252 -3.47281e-24)
(0.636686 0.174568 -4.07631e-22)
(0.705178 0.197648 3.67524e-22)
(0.74108 0.212357 -6.9127e-22)
(0.741276 0.217087 0)
(0.706103 0.211235 -3.14492e-22)
(0.639218 0.195232 0)
(0.546713 0.170374 0)
(0.435953 0.138541 1.4055e-24)
(0.314294 0.101833 -1.54578e-21)
(0.188046 0.0621361 -8.37911e-22)
(0.0619098 0.0209154 -8.49572e-22)
(0.289398 0.0742308 0)
(0.183303 0.0462435 2.64246e-22)
(0.183903 0.0464205 -2.70232e-22)
(0.109961 0.0274119 -1.2658e-22)
(0.110267 0.0274902 -1.98042e-22)
(0.0534883 0.0132285 8.47355e-23)
(0.0535337 0.0132496 -8.53194e-23)
(0.0536497 0.0132781 0)
(0.0536108 0.013264 -8.67722e-23)
(0.0172879 0.0042463 6.42222e-23)
(0.017318 0.0042563 0)
(0.0173468 0.00426375 1.33365e-22)
(0.0173263 0.00426183 -6.63747e-23)
(0.41969 0.110192 0)
(0.53511 0.143447 3.46169e-24)
(0.630806 0.172847 -3.97278e-22)
(0.699916 0.196161 3.60271e-22)
(0.736324 0.210988 -5.17881e-24)
(0.73691 0.215786 0)
(0.702125 0.210001 -4.78056e-24)
(0.635679 0.194086 2.37324e-24)
(0.543686 0.169347 0)
(0.433487 0.137673 1.37556e-21)
(0.312437 0.101164 1.4961e-24)
(0.186804 0.0616879 1.67832e-24)
(0.0614537 0.0207595 3.23986e-23)
(0.285766 0.0733252 -1.46456e-22)
(0.181726 0.045876 9.83976e-25)
(0.182593 0.0461067 -9.83355e-25)
(0.109326 0.0272515 5.95338e-23)
(0.109682 0.027339 4.78995e-25)
(0.0532308 0.0131643 7.17252e-25)
(0.053282 0.0131867 3.56436e-25)
(0.0533947 0.0132141 -8.33578e-23)
(0.0533573 0.0132012 0)
(0.0172117 0.00422664 0)
(0.0172365 0.00423684 6.26952e-23)
(0.0172659 0.00424469 -6.34815e-23)
(0.0172452 0.00424116 -6.36083e-23)
(0.413227 0.108331 -4.6309e-22)
(0.528428 0.141478 0)
(0.625071 0.171276 3.02274e-24)
(0.694884 0.194746 0)
(0.731693 0.209633 4.90942e-24)
(0.732584 0.214471 0)
(0.698139 0.20874 2.33728e-24)
(0.632121 0.192905 -2.37298e-24)
(0.540632 0.168288 1.22089e-23)
(0.431003 0.136778 1.33593e-24)
(0.31051 0.100459 0)
(0.185557 0.0612379 -8.08092e-22)
(0.0609853 0.0205963 3.13699e-23)
(0.279184 0.071625 5.35424e-22)
(0.178878 0.0452287 2.39324e-22)
(0.180584 0.0456766 -3.72002e-24)
(0.108518 0.0270613 5.73368e-23)
(0.108996 0.027167 -5.74866e-23)
(0.0529719 0.013101 0)
(0.0530255 0.0131235 -7.74186e-23)
(0.0531406 0.0131496 -8.00704e-23)
(0.0531031 0.0131353 7.95411e-23)
(0.017129 0.00420668 1.18249e-22)
(0.0171581 0.00421756 1.20121e-22)
(0.0171847 0.00422417 6.12585e-23)
(0.0171654 0.00422198 -6.09426e-23)
(0.405095 0.105962 4.2664e-22)
(0.52202 0.139801 0)
(0.619823 0.169845 5.53581e-24)
(0.690118 0.193377 -3.20714e-22)
(0.727172 0.208286 -2.38652e-24)
(0.72829 0.213142 0)
(0.694153 0.207448 0)
(0.628538 0.191688 -8.60532e-22)
(0.537543 0.167189 -6.11438e-22)
(0.428454 0.135845 1.27891e-24)
(0.308569 0.09974 0)
(0.184286 0.0607666 -7.97351e-22)
(0.0605001 0.0204274 8.57021e-22)
(0.267534 0.0684771 -3.8502e-22)
(0.171491 0.0432726 -5.85332e-24)
(0.176189 0.0447412 -2.31201e-22)
(0.106968 0.026741 0)
(0.107943 0.0269315 5.58485e-23)
(0.0526804 0.0130292 -7.16559e-23)
(0.052752 0.0130556 -7.3289e-23)
(0.0528721 0.0130809 0)
(0.0528375 0.0130658 6.29472e-25)
(0.0170522 0.00418781 5.64087e-23)
(0.017079 0.00419815 5.72226e-23)
(0.0171053 0.00420397 5.8985e-23)
(0.0170853 0.00420108 0)
(0.397622 0.10408 -7.43983e-24)
(0.516643 0.138382 -4.04447e-22)
(0.615105 0.168509 1.35152e-24)
(0.685598 0.192053 -4.5759e-24)
(0.722751 0.206946 0)
(0.724032 0.211794 0)
(0.690168 0.206124 2.69706e-22)
(0.624949 0.190435 5.56669e-22)
(0.534426 0.166058 1.14884e-24)
(0.42589 0.134882 -1.27849e-24)
(0.306567 0.0989836 -7.34777e-22)
(0.182988 0.0602825 -7.94473e-22)
(0.0599971 0.0202482 8.55553e-22)
(0.258101 0.0660917 1.69995e-23)
(0.153568 0.0390302 9.94429e-23)
(0.162751 0.0406979 -2.50292e-22)
(0.102031 0.0255796 4.06376e-23)
(0.10542 0.0264429 2.03903e-22)
(0.0521485 0.0129167 0)
(0.0523523 0.012964 6.85973e-23)
(0.0525633 0.0130092 -5.25049e-25)
(0.0524756 0.0129779 6.95422e-23)
(0.016966 0.00416664 1.06349e-22)
(0.0170005 0.00417766 5.42626e-23)
(0.0170274 0.00418395 0)
(0.0170064 0.00418067 5.15143e-26)
(0.392282 0.102639 1.57972e-23)
(0.512194 0.137123 3.72906e-22)
(0.610783 0.167258 0)
(0.681261 0.190764 4.58245e-24)
(0.718419 0.205605 -2.6005e-22)
(0.719812 0.210425 -1.9319e-24)
(0.686191 0.204768 9.82111e-25)
(0.621343 0.189144 0)
(0.531288 0.164885 -1.14834e-24)
(0.42327 0.133882 1.26296e-21)
(0.304571 0.0982155 6.99526e-25)
(0.181635 0.0597647 -7.90152e-22)
(0.0594509 0.0200659 0)
(0.253527 0.0645954 3.99535e-22)
(0.145529 0.0366033 2.06467e-22)
(0.14796 0.0374185 6.84793e-24)
(0.0767868 0.0198624 -9.58463e-23)
(0.0908015 0.0222778 5.94086e-23)
(0.0485716 0.0118454 3.04738e-23)
(0.0505446 0.012701 4.36787e-24)
(0.0518898 0.0128868 -5.20896e-25)
(0.0514059 0.012795 -6.48062e-23)
(0.0168269 0.00413126 0)
(0.0168945 0.00414807 -3.26191e-25)
(0.0169466 0.0041651 -5.24676e-23)
(0.0169069 0.00415326 -8.31664e-26)
(0.388483 0.10154 -4.17782e-22)
(0.50836 0.136019 3.44701e-22)
(0.606778 0.16609 -4.44456e-24)
(0.67709 0.189503 9.72721e-24)
(0.714179 0.204263 3.8454e-24)
(0.715634 0.209032 1.93303e-24)
(0.682232 0.203376 -1.92172e-24)
(0.617726 0.18781 0)
(0.528131 0.163678 -5.63477e-22)
(0.420627 0.132848 6.0996e-25)
(0.302485 0.0974011 -7.18694e-22)
(0.180209 0.059229 0)
(0.0588766 0.0198714 -1.71814e-21)
(0.251027 0.0638667 3.71805e-22)
(0.143356 0.0358259 2.0706e-22)
(0.144136 0.036073 -2.01553e-22)
(0.070834 0.0175469 -2.07e-22)
(0.0719272 0.0180904 6.39583e-24)
(0.0182232 0.00489588 -3.43473e-23)
(0.0203895 0.00504392 3.20686e-23)
(0.0442911 0.0101198 1.68726e-23)
(0.0298592 0.00501489 0)
(0.0155949 0.00397239 -1.06094e-22)
(0.0163013 0.00407424 -7.52363e-25)
(0.0167524 0.00411909 -4.93297e-23)
(0.016594 0.00409371 1.10407e-24)
(0.385417 0.100677 -3.90553e-22)
(0.504907 0.135035 -3.14044e-22)
(0.603009 0.16498 1.53661e-23)
(0.673062 0.188259 0)
(0.710017 0.202908 -1.85848e-24)
(0.711499 0.207611 0)
(0.678288 0.201948 2.28038e-22)
(0.614112 0.18644 0)
(0.524951 0.162428 0)
(0.417942 0.131779 -1.06918e-23)
(0.300357 0.096561 0)
(0.178739 0.0586713 1.66013e-21)
(0.0582962 0.0196701 -8.66705e-22)
(0.249203 0.0634464 -1.1329e-22)
(0.142336 0.0356305 -1.47194e-24)
(0.142736 0.0357205 1.93235e-22)
(0.0699684 0.0172796 -7.03256e-25)
(0.0702936 0.0173746 1.89352e-22)
(0.0165599 0.00406807 -4.81199e-23)
(0.0166276 0.00410586 -4.80386e-23)
(0.0171031 0.00431971 5.56844e-23)
(0.0166869 0.00416793 5.07184e-23)
(0.0145268 0.0036596 6.23891e-24)
(0.00822354 0.00127283 -1.81626e-23)
(0.382808 0.099965 3.58547e-22)
(0.501772 0.134136 1.41762e-23)
(0.599426 0.163901 0)
(0.669159 0.187021 0)
(0.705935 0.201539 -2.04781e-22)
(0.70741 0.206162 -2.20854e-22)
(0.674359 0.20048 8.56845e-25)
(0.610492 0.185027 0)
(0.521741 0.161137 5.45883e-22)
(0.41519 0.130662 -6.14017e-22)
(0.29816 0.0956815 -6.94302e-22)
(0.177213 0.0580828 0)
(0.0576564 0.0194568 -8.95248e-22)
(0.247645 0.0630877 1.04614e-22)
(0.141553 0.0354866 0)
(0.141874 0.0355714 1.76675e-22)
(0.0695946 0.0172172 0)
(0.0697578 0.0172544 4.48983e-23)
(0.0165045 0.00404906 4.49728e-23)
(0.0165096 0.00405457 4.59852e-23)
(0.0165402 0.00406693 0)
(0.0165292 0.00405998 -4.64148e-23)
(0.380479 0.0993263 3.37357e-22)
(0.498846 0.133284 -4.17737e-24)
(0.596004 0.162846 2.2087e-22)
(0.665362 0.185781 1.54535e-23)
(0.701927 0.200151 -1.86544e-22)
(0.703366 0.204679 -7.54012e-25)
(0.670453 0.198973 -2.03706e-22)
(0.606875 0.183571 0)
(0.518482 0.159795 1.73332e-23)
(0.412391 0.129501 0)
(0.295877 0.0947569 0)
(0.175619 0.0574724 0)
(0.0569934 0.019239 -9.37074e-22)
(0.246279 0.0627495 0)
(0.140835 0.0353224 0)
(0.141133 0.0354166 -1.6237e-22)
(0.0692723 0.0171522 3.93493e-23)
(0.0694347 0.0171978 0)
(0.0164631 0.00404254 0)
(0.0164624 0.00404712 4.28149e-23)
(0.0164855 0.0040529 -8.92241e-23)
(0.016487 0.00404873 3.44801e-25)
(0.378361 0.0987381 2.45533e-24)
(0.496074 0.132458 -2.45299e-22)
(0.592702 0.161797 1.58693e-23)
(0.66166 0.184529 1.96184e-22)
(0.697989 0.198737 0)
(0.699369 0.203161 3.71783e-22)
(0.666572 0.197425 -1.91134e-22)
(0.603237 0.182068 6.93673e-22)
(0.515194 0.158408 5.21817e-25)
(0.409543 0.1283 -6.12362e-22)
(0.293537 0.0937976 0)
(0.173969 0.0568361 0)
(0.0563012 0.0190101 1.01067e-21)
(0.245025 0.0624236 -1.23036e-24)
(0.140154 0.0351527 0)
(0.14043 0.0352463 0)
(0.0689467 0.0170753 3.58016e-23)
(0.0691094 0.0171236 -6.00467e-25)
(0.0163943 0.00402394 -2.56444e-25)
(0.0164034 0.00403264 0)
(0.0164345 0.00404344 -4.12546e-23)
(0.0164309 0.00403608 -4.04655e-23)
(0.376356 0.0981667 -1.94257e-24)
(0.493425 0.131646 2.19792e-22)
(0.589516 0.160752 0)
(0.658058 0.183266 -1.35733e-24)
(0.694121 0.197295 -1.75302e-22)
(0.695418 0.201606 1.8586e-22)
(0.662704 0.195834 -3.85314e-22)
(0.599586 0.180517 -2.11208e-22)
(0.511888 0.156976 5.38563e-22)
(0.406624 0.127043 0)
(0.291157 0.0927996 0)
(0.172219 0.0561524 -9.31096e-22)
(0.0555518 0.0187735 1.05101e-21)
(0.243834 0.0621022 6.90126e-25)
(0.13951 0.0349848 -5.05702e-25)
(0.139769 0.0350793 5.05894e-25)
(0.0686397 0.0169999 0)
(0.0687883 0.0170432 0)
(0.0163217 0.00400695 0)
(0.0163309 0.00401541 -3.60699e-23)
(0.0163633 0.00402467 -3.78161e-23)
(0.0163605 0.00401876 -3.70357e-23)
(0.37446 0.0976131 1.94144e-24)
(0.490899 0.130847 0)
(0.586429 0.159698 -1.45567e-22)
(0.654542 0.181981 -1.30903e-22)
(0.690327 0.195824 3.32903e-25)
(0.691511 0.200013 1.74589e-22)
(0.658854 0.194197 1.98717e-22)
(0.59594 0.178915 0)
(0.508529 0.155483 0)
(0.403659 0.12573 -6.27443e-22)
(0.288629 0.0917302 0)
(0.170372 0.05545 0)
(0.0547428 0.0184832 1.15126e-21)
(0.242699 0.0617859 7.57144e-26)
(0.138882 0.0348203 4.45959e-25)
(0.139145 0.0349174 -4.46134e-25)
(0.0683315 0.0169227 0)
(0.0684868 0.0169672 0)
(0.0162605 0.00399084 0)
(0.0162596 0.00399803 3.26744e-23)
(0.0162932 0.00400679 3.43713e-23)
(0.0162876 0.00400067 -3.35723e-23)
(0.372652 0.0970671 1.91857e-22)
(0.488464 0.130044 3.08519e-22)
(0.583446 0.158631 1.41079e-22)
(0.651113 0.180672 0)
(0.686597 0.194319 2.67024e-25)
(0.68765 0.198379 0)
(0.655019 0.192509 0)
(0.592268 0.177256 0)
(0.505107 0.153921 5.52071e-22)
(0.400579 0.12435 0)
(0.286003 0.0906101 0)
(0.168402 0.0547109 -1.06085e-21)
(0.0540681 0.0180366 1.25782e-21)
(0.241617 0.0614809 -2.2414e-22)
(0.138292 0.0346593 4.15721e-25)
(0.138534 0.0347524 -7.72371e-25)
(0.0680313 0.0168468 0)
(0.0681815 0.0168931 0)
(0.0161852 0.00397381 -2.8409e-23)
(0.0161966 0.00398199 2.89596e-23)
(0.0162292 0.00399039 3.06992e-23)
(0.0162249 0.00398405 -2.96716e-23)
(0.370936 0.0965328 -1.70544e-22)
(0.486136 0.129238 5.37835e-25)
(0.580557 0.157547 0)
(0.647767 0.179337 0)
(0.682934 0.192781 9.39422e-23)
(0.683831 0.196702 -1.14856e-22)
(0.651198 0.19077 -1.47974e-22)
(0.588561 0.175536 0)
(0.501643 0.152304 -5.27434e-25)
(0.397396 0.122895 0)
(0.283295 0.0894351 0)
(0.166263 0.053795 -1.15879e-21)
(0.0544539 0.0176495 1.42203e-21)
(0.24059 0.0611963 -3.85814e-25)
(0.13772 0.0345098 -6.52592e-25)
(0.137942 0.0345938 1.00897e-24)
(0.0677442 0.016772 0)
(0.0678922 0.016815 2.30799e-23)
(0.0161191 0.00395582 -2.48706e-23)
(0.0161264 0.00396473 2.56891e-23)
(0.0161609 0.00397608 0)
(0.0161531 0.00396752 0)
(0.369303 0.0960007 -1.20012e-22)
(0.48391 0.128419 -8.26927e-23)
(0.577773 0.156446 0)
(0.644506 0.177981 -9.76781e-23)
(0.679344 0.191212 1.15407e-22)
(0.680057 0.19498 4.32539e-23)
(0.647388 0.188978 0)
(0.584847 0.173754 0)
(0.498086 0.150604 5.15693e-22)
(0.394188 0.121365 0)
(0.280165 0.0881067 0)
(0.166229 0.0526114 6.87002e-23)
(0.0484215 0.0148202 -6.0614e-23)
(0.239628 0.0609354 1.40843e-22)
(0.137165 0.0343807 0)
(0.137388 0.0344543 -7.08858e-23)