/*--------------------------------*- C++ -*----------------------------------*\
| =========                 |                                                 |
| \\      /  F ield         | OpenFOAM: The Open Source CFD Toolbox           |
|  \\    /   O peration     | Version:  v1912                                 |
|   \\  /    A nd           | Website:  www.openfoam.com                      |
|    \\/     M anipulation  |                                                 |
\*---------------------------------------------------------------------------*/
FoamFile
{
    version     2.0;
    format      ascii;
    class       volScalarField;
    location    "120";
    object      p;
}
// * * * * * * * * * * * * * * * * * * * * * * * * * * * * * * * * * * * * * //

dimensions      [0 2 -2 0 0 0 0];


internalField   nonuniform List<scalar> 
3675
(
0.253845
0.251444
0.260308
0.246782
0.257371
0.27871
0.240168
0.251721
0.274252
0.312001
0.232006
0.243812
0.265836
0.304269
0.366265
0.222743
0.234214
0.254402
0.290062
0.351069
0.45302
0.212823
0.223522
0.241018
0.271535
0.324662
0.420579
0.563067
0.544452
0.202658
0.212285
0.226673
0.25097
0.292431
0.369842
0.511119
0.455958
0.661684
0.633439
0.192608
0.200976
0.212157
0.230174
0.25947
0.3098
0.398365
0.579744
0.520067
0.735207
0.721279
0.660046
0.697235
0.182978
0.18998
0.19805
0.210245
0.228869
0.256365
0.287023
0.364983
0.264855
0.62237
0.553429
0.464319
0.768407
0.749842
0.650046
0.702537
0.174018
0.179606
0.184759
0.191777
0.20158
0.213246
0.212727
0.110265
0.187584
0.223926
0.0426269
0.623601
0.523275
0.273102
0.292592
0.165929
0.170093
0.172566
0.175081
0.177749
0.178174
0.16221
0.0675526
-0.297027
-0.23884
-0.0137356
-0.00574778
-0.238732
-0.218208
0.596179
0.393121
0.214052
0.158872
0.161627
0.161654
0.160299
0.157261
0.149558
0.124836
0.044786
-0.258656
-0.510044
-0.347501
-0.433418
-0.152657
-0.257425
0.152973
0.154348
0.152141
0.147461
0.13986
0.126337
0.0967584
0.0270108
-0.184359
-0.410858
-0.486354
-0.555222
-0.500651
-0.4461
-0.52055
0.148335
0.148365
0.144107
0.136539
0.125244
0.107522
0.0754576
0.0126349
-0.137662
-0.323543
-0.37299
-0.446326
-0.524477
-0.457441
-0.519849
0.145037
0.143765
0.137606
0.127481
0.113122
0.0922649
0.0589508
0.00177677
-0.110712
-0.254377
-0.327259
-0.345318
-0.393418
-0.410173
-0.423853
-0.464709
-0.48298
0.143149
0.140614
0.132676
0.120237
0.103243
0.0799081
0.045887
-0.00665584
-0.0953712
-0.209081
-0.284979
-0.320956
-0.329775
-0.359202
-0.373032
-0.397418
-0.440896
-0.428015
0.142724
0.138973
0.129353
0.114769
0.0954045
0.0699538
0.0353704
-0.0135996
-0.0868425
-0.178983
-0.251215
-0.293697
-0.317676
-0.316282
-0.332908
-0.342407
-0.362927
-0.381538
-0.404789
-0.401055
0.143811
0.138892
0.127673
0.111054
0.0894638
0.062039
0.0267843
-0.0196327
-0.082633
-0.15921
-0.22539
-0.269465
-0.299383
-0.309733
-0.305597
-0.316522
-0.323054
-0.334726
-0.345452
-0.35998
-0.368453
-0.389511
-0.379183
-0.406104
-0.394364
0.146446
0.140419
0.127678
0.109099
0.085326
0.0559116
0.0197095
-0.0251241
-0.0813456
-0.146878
-0.206754
-0.250353
-0.281731
-0.29884
-0.301425
-0.297591
-0.305442
-0.310174
-0.317858
-0.324852
-0.333104
-0.338223
-0.35034
-0.343724
-0.36075
-0.368966
-0.389722
-0.379717
0.150657
0.143592
0.129418
0.108932
0.0829539
0.0514062
0.0138567
-0.0303217
-0.082187
-0.139974
-0.194175
-0.236243
-0.267515
-0.287577
-0.295164
-0.294794
-0.291005
-0.297284
-0.301052
-0.306527
-0.311452
-0.316947
-0.320308
-0.327847
-0.323759
-0.333617
-0.338558
-0.350794
-0.344309
0.156453
0.148447
0.132953
0.110618
0.0823643
0.0484457
0.00903488
-0.0354067
-0.0847288
-0.137187
-0.186573
-0.226527
-0.256936
-0.277996
-0.288525
-0.291135
-0.289048
-0.284987
-0.290566
-0.293901
-0.298209
-0.302015
-0.306017
-0.308416
-0.313579
-0.310812
-0.317376
-0.320604
-0.328166
-0.32419
0.163827
0.155004
0.13835
0.11425
0.0836356
0.0470306
0.00513359
-0.0405136
-0.0887867
-0.137736
-0.183178
-0.220716
-0.249763
-0.270696
-0.282719
-0.287323
-0.28692
-0.283452
-0.278886
-0.284497
-0.287696
-0.291412
-0.29468
-0.297908
-0.299803
-0.303673
-0.30162
-0.306408
-0.308706
-0.31388
-0.311195
0.172739
0.163267
0.14568
0.119964
0.0869092
0.0472459
0.00210894
-0.0457534
-0.0943309
-0.141221
-0.183492
-0.218482
-0.245779
-0.265874
-0.278361
-0.284091
-0.284926
-0.282278
-0.27778
-0.272982
-0.278241
-0.281729
-0.285347
-0.288362
-0.291198
-0.292872
-0.296099
-0.294399
-0.298288
-0.300096
-0.303969
-0.301985
0.183107
0.173207
0.155016
0.127929
0.0924065
0.0492661
-1.69185e-05
-0.0512275
-0.101476
-0.147532
-0.187257
-0.219614
-0.244822
-0.263551
-0.275743
-0.281903
-0.283448
-0.281526
-0.277352
-0.272516
-0.26949
-0.273595
-0.27473
-0.27933
-0.282547
-0.285092
-0.286736
-0.289663
-0.288086
-0.291576
-0.293164
-0.296395
-0.29476
0.19479
0.184756
0.166418
0.138356
0.100439
0.0533819
-0.00114495
-0.0570353
-0.110499
-0.156821
-0.19443
-0.22402
-0.246786
-0.263696
-0.274975
-0.280981
-0.282757
-0.281269
-0.277437
-0.272568
-0.268581
-0.264006
-0.268869
-0.271642
-0.274672
-0.274523
-0.279417
-0.281124
-0.283778
-0.282212
-0.285455
-0.286995
-0.289947
-0.288447
0.207577
0.19778
0.179914
0.151491
0.111429
0.060019
-0.00105917
-0.0632642
-0.121887
-0.169538
-0.205196
-0.231725
-0.251635
-0.266283
-0.276112
-0.281429
-0.282997
-0.281609
-0.277969
-0.273047
-0.268222
-0.263284
-0.257934
-0.263169
-0.265912
-0.269341
-0.272362
-0.274909
-0.276325
-0.277378
-0.272675
-0.280443
-0.281404
-0.28397
-0.282543
0.221156
0.212061
0.195478
0.167596
0.125939
0.0697921
0.000613285
-0.0699827
-0.136432
-0.186474
-0.21998
-0.242889
-0.259403
-0.271313
-0.27919
-0.283321
-0.284258
-0.282625
-0.278965
-0.273961
-0.268557
-0.263037
-0.257253
-0.251987
-0.25731
-0.260143
-0.263678
-0.266429
-0.269099
-0.270368
-0.273267
-0.272006
-0.275484
-0.279674
-0.280398
-0.270214
0.23511
0.227258
0.212995
0.186932
0.144649
0.0836096
0.00450958
-0.0772662
-0.155422
-0.208878
-0.239463
-0.257795
-0.270193
-0.278815
-0.284239
-0.286708
-0.286606
-0.28439
-0.280458
-0.275282
-0.269484
-0.26343
-0.257149
-0.251305
-0.245264
-0.251352
-0.254298
-0.257897
-0.260748
-0.263463
-0.264824
-0.267532
-0.26624
-0.269394
-0.270711
-0.273666
-0.272219
-0.275222
-0.279269
-0.266724
0.248904
0.242878
0.232184
0.209721
0.168293
0.102714
0.0117988
-0.0853305
-0.181055
-0.238637
-0.264614
-0.276852
-0.284172
-0.288852
-0.29129
-0.291628
-0.29009
-0.286961
-0.282497
-0.276998
-0.270861
-0.264382
-0.257656
-0.251162
-0.245248
-0.239822
-0.240608
-0.247956
-0.252174
-0.254949
-0.257644
-0.259085
-0.261916
-0.260519
-0.263793
-0.265165
-0.2679
-0.266568
-0.269692
-0.270994
-0.273859
-0.27245
0.261912
0.258252
0.252471
0.235962
0.197821
0.128595
0.0244751
-0.0948413
-0.217181
-0.278659
-0.296737
-0.300583
-0.301564
-0.301513
-0.300378
-0.298104
-0.294739
-0.290378
-0.285124
-0.279123
-0.272604
-0.265759
-0.258673
-0.25164
-0.245036
-0.239084
-0.240371
-0.23337
-0.250711
-0.248846
-0.2518
-0.253251
-0.256099
-0.254656
-0.257961
-0.259398
-0.262262
-0.260848
-0.264106
-0.265451
-0.268205
-0.266873
0.273472
0.272554
0.272849
0.265027
0.234581
0.164169
0.0445968
-0.107724
-0.270346
-0.333341
-0.337589
-0.329644
-0.322642
-0.31691
-0.311536
-0.306147
-0.300564
-0.294663
-0.28837
-0.28168
-0.274678
-0.267459
-0.260061
-0.252638
-0.245483
-0.238831
-0.232819
-0.233951
-0.239374
-0.243129
-0.227538
-0.24782
-0.249648
-0.245267
-0.252182
-0.253524
-0.256411
-0.25496
-0.258255
-0.259659
-0.262551
-0.261148
0.282954
0.284891
0.291878
0.295303
0.279003
0.216233
0.0747395
-0.128812
-0.351553
-0.408413
-0.38936
-0.364829
-0.347768
-0.335174
-0.324789
-0.315751
-0.30756
-0.29982
-0.292249
-0.284685
-0.277078
-0.269426
-0.261715
-0.253993
-0.246439
-0.239264
-0.232667
-0.226868
-0.228378
-0.23337
-0.2363
-0.238937
-0.240778
-0.242507
-0.244158
-0.221711
-0.246034
-0.247979
-0.253076
-0.250766
-0.252369
-0.253731
-0.256669
-0.255229
0.289836
0.294453
0.30793
0.323971
0.328266
0.288307
0.128728
-0.164682
-0.476363
-0.509852
-0.453756
-0.40679
-0.377345
-0.35647
-0.340165
-0.326896
-0.315703
-0.305833
-0.296759
-0.288145
-0.279804
-0.271636
-0.263568
-0.255575
-0.247724
-0.240152
-0.233044
-0.226621
-0.220936
-0.222689
-0.227735
-0.23062
-0.233086
-0.234616
-0.235909
-0.237297
-0.215575
-0.250515
-0.250588
0.293762
0.300634
0.319601
0.347423
0.375714
0.369928
0.231646
-0.212085
-0.646421
-0.6385
-0.52831
-0.455072
-0.411355
-0.380886
-0.357666
-0.339548
-0.32495
-0.31267
-0.301882
-0.292052
-0.282851
-0.274078
-0.265591
-0.257305
-0.249208
-0.241348
-0.23384
-0.226881
-0.220613
-0.214869
-0.216739
-0.221887
-0.224919
-0.227423
-0.228964
-0.230259
-0.231583
-0.209173
0.294561
0.303108
0.326009
0.362799
0.412077
0.454919
0.333256
0.430418
-0.0480387
0.0200678
0.354944
-0.699156
-0.417002
-0.831698
-0.766514
-0.843144
-0.59845
-0.504964
-0.448187
-0.40788
-0.377135
-0.353634
-0.335244
-0.320282
-0.307581
-0.296384
-0.286208
-0.276739
-0.267766
-0.259146
-0.250805
-0.242723
-0.234937
-0.227571
-0.22079
-0.214612
-0.208935
-0.20949
-0.216049
-0.219085
-0.22148
-0.223124
-0.224487
-0.225877
-0.204858
0.292244
0.301838
0.32691
0.368814
0.431436
0.516014
0.504523
0.571695
0.460565
0.200256
0.056286
-0.30315
-0.243005
0.239394
-0.67185
-0.596516
-0.490229
-1.04158
-0.752017
-0.828189
-0.82964
-0.644532
-0.803124
-0.922953
-0.542475
-0.482601
-0.435082
-0.397735
-0.368885
-0.346478
-0.328601
-0.313807
-0.301106
-0.28985
-0.279607
-0.270083
-0.261079
-0.252469
-0.244184
-0.236199
-0.228561
-0.221383
-0.214772
-0.208794
-0.204
-0.205848
-0.20993
-0.210852
-0.216097
-0.217467
-0.218466
-0.219894
-0.199137
0.286972
0.297027
0.322626
0.365779
0.433051
0.537501
0.615485
0.65093
0.555027
0.638815
0.433737
0.283167
0.0147175
-0.0105073
-0.930937
-0.882427
-0.873414
-0.701478
-0.557825
-0.647707
-0.826184
-0.788126
-0.50548
-0.457421
-0.417103
-0.384409
-0.358333
-0.337502
-0.320491
-0.306172
-0.293746
-0.282658
-0.272526
-0.263091
-0.254179
-0.245679
-0.237525
-0.229704
-0.222261
-0.21529
-0.208916
-0.203472
-0.198408
-0.199901
-0.204889
-0.207719
-0.210023
-0.211955
-0.209066
-0.214256
-0.193017
0.279013
0.289042
0.313878
0.355273
0.419199
0.523781
0.654264
0.626515
0.698393
0.674857
0.765233
0.441277
0.538687
0.727075
0.713005
0.635563
0.40922
0.118731
-0.912167
-0.886053
-0.721878
-0.688812
-0.585939
-0.513958
-0.552032
-0.661715
-0.630649
-0.829271
-0.788681
-0.469948
-0.43141
-0.398215
-0.369938
-0.346651
-0.327502
-0.311515
-0.297853
-0.285863
-0.275076
-0.265169
-0.255921
-0.247185
-0.238862
-0.230896
-0.223279
-0.216058
-0.209335
-0.203333
-0.197887
-0.192404
-0.193741
-0.198917
-0.201814
-0.204397
-0.20581
-0.207263
-0.208531
-0.209787
-0.212186
-0.206625
-0.187246
0.268692
0.278333
0.301538
0.339381
0.395232
0.479807
0.60535
0.755587
0.718716
0.777529
0.816812
0.82297
0.77579
-0.716197
-0.686696
-0.596106
-0.574015
-0.524016
-0.474133
-0.502112
-0.560309
-0.543241
-0.658791
-0.628475
-0.438466
-0.407778
-0.379676
-0.355276
-0.334527
-0.317009
-0.30211
-0.289186
-0.277708
-0.267296
-0.257684
-0.24869
-0.240185
-0.232083
-0.22434
-0.216954
-0.209978
-0.20355
-0.197671
-0.191984
-0.186623
-0.187972
-0.192936
-0.195827
-0.198485
-0.2
-0.201414
-0.202796
-0.204646
-0.206046
-0.207346
-0.208565
-0.181659
0.256364
0.265365
0.286446
0.319966
0.366548
0.428719
0.499993
0.576513
0.491826
0.79013
0.762264
0.673394
0.72447
0.808291
-0.594413
-0.572128
-0.527804
-0.51302
-0.4815
-0.440383
-0.463335
-0.500261
-0.560404
-0.542309
-0.412356
-0.385923
-0.362152
-0.340918
-0.322368
-0.306399
-0.292573
-0.280392
-0.269452
-0.259454
-0.250182
-0.24148
-0.233238
-0.225385
-0.217886
-0.210744
-0.204027
-0.197773
-0.191818
-0.186196
-0.181035
-0.18236
-0.18716
-0.190002
-0.192522
-0.194021
-0.195417
-0.196847
-0.198743
-0.200244
-0.201592
-0.202952
-0.176153
0.242377
0.250586
0.269324
0.298429
0.336367
0.381144
0.419271
0.338343
0.599341
0.372947
0.394754
0.279528
0.73777
0.630067
-0.565945
-0.526498
-0.517497
-0.479876
-0.446381
-0.413383
-0.432496
-0.462415
-0.494271
-0.505465
-0.557044
-0.540458
-0.388567
-0.366331
-0.345794
-0.327068
-0.310476
-0.295923
-0.283081
-0.271611
-0.261215
-0.251651
-0.242739
-0.234349
-0.226389
-0.218798
-0.211549
-0.204652
-0.19813
-0.191917
-0.186026
-0.18059
-0.175542
-0.176834
-0.181521
-0.18432
-0.186743
-0.188207
-0.189568
-0.190972
-0.192754
-0.19423
-0.195566
-0.196973
-0.170747
0.227056
0.234395
0.250742
0.275736
0.30634
0.338523
0.358689
0.295043
0.0991028
0.126017
0.535392
0.28566
0.108666
0.111684
-0.524899
-0.515911
-0.483031
-0.473953
-0.444958
-0.418808
-0.388706
-0.405862
-0.431876
-0.458249
-0.46581
-0.367985
-0.348648
-0.330474
-0.313927
-0.299033
-0.285689
-0.273734
-0.262944
-0.253082
-0.243952
-0.235407
-0.227336
-0.219663
-0.212336
-0.205331
-0.198642
-0.192232
-0.18611
-0.180388
-0.175091
-0.170145
-0.171409
-0.175991
-0.178745
-0.181105
-0.182541
-0.183876
-0.185251
-0.186965
-0.188402
-0.189701
-0.191074
-0.165451
0.210704
0.217132
0.231116
0.252511
0.277277
0.30058
0.310435
0.262911
0.11522
0.066385
0.0609314
0.0771622
0.112676
0.0735401
-0.447123
-0.441662
-0.417545
-0.39354
-0.367893
-0.381966
-0.404907
-0.427348
-0.434663
-0.349781
-0.332301
-0.316318
-0.301595
-0.288049
-0.275744
-0.264609
-0.254461
-0.24511
-0.236404
-0.22822
-0.220466
-0.213075
-0.206002
-0.199217
-0.192684
-0.186397
-0.180433
-0.174867
-0.169688
-0.164857
-0.166092
-0.170569
-0.173276
-0.175577
-0.176987
-0.178299
-0.17965
-0.18132
-0.182729
-0.184002
-0.185344
-0.160262
0.193615
0.199061
0.2107
0.229101
0.249506
0.26683
0.2711
0.235473
0.134532
0.0758575
0.0682044
0.0472738
0.0581199
0.0756888
0.0490328
-0.443664
-0.440592
-0.419717
-0.41323
-0.392594
-0.371854
-0.349147
-0.362091
-0.381013
-0.400985
-0.407256
-0.426515
-0.433585
-0.33289
-0.3175
-0.303333
-0.289925
-0.277503
-0.266145
-0.255758
-0.246199
-0.237332
-0.229033
-0.2212
-0.213751
-0.20663
-0.199791
-0.193191
-0.186808
-0.18068
-0.174878
-0.169442
-0.164392
-0.159675
-0.16088
-0.165253
-0.167914
-0.170158
-0.17154
-0.172829
-0.174157
-0.175784
-0.177167
-0.178418
-0.179738
-0.155174
0.175895
0.180421
0.18955
0.205636
0.223059
0.236659
0.238435
0.211699
0.143023
0.0917919
0.0743436
0.0639993
0.0567729
0.0614374
0.0565771
0.0400368
-0.418723
-0.412599
-0.394577
-0.388787
-0.371075
-0.352431
-0.33237
-0.341007
-0.361505
-0.37729
-0.383358
-0.400357
-0.406402
-0.31773
-0.304196
-0.291131
-0.278836
-0.267447
-0.256921
-0.247194
-0.238182
-0.22977
-0.221858
-0.214356
-0.207197
-0.200326
-0.193695
-0.187268
-0.18105
-0.175085
-0.169425
-0.164127
-0.159205
-0.154589
-0.155773
-0.160044
-0.162659
-0.164846
-0.166201
-0.167466
-0.168771
-0.170357
-0.171713
-0.172941
-0.174239
-0.150178
0.157437
0.161387
0.167528
0.182064
0.197798
0.209432
0.210675
0.19107
0.143538
0.102519
0.0837204
0.0692688
0.0629897
0.066564
0.0503218
0.0616501
0.0558786
0.0570506
0.0517533
-0.393643
-0.388293
-0.372799
-0.367837
-0.351732
-0.330662
-0.317163
-0.345469
-0.358343
-0.363188
-0.376571
-0.383502
-0.304386
-0.291649
-0.279613
-0.268388
-0.257868
-0.248053
-0.238932
-0.230424
-0.222435
-0.214884
-0.207693
-0.200802
-0.19416
-0.187721
-0.181469
-0.175416
-0.169602
-0.164085
-0.158923
-0.15411
-0.149585
-0.150771
-0.154937
-0.157511
-0.159641
-0.160969
-0.162212
-0.163493
-0.165037
-0.166367
-0.167573
-0.168848
-0.145265
0.141318
0.141338
0.144502
0.158264
0.17354
0.184584
0.18655
0.172844
0.139868
0.107745
0.0896679
0.0739715
0.0632416
0.0621177
0.0644268
0.0602918
0.0579409
0.057796
0.05291
0.0537791
-0.372949
-0.367331
-0.352971
-0.347333
-0.334287
-0.315903
-0.325929
-0.304038
-0.343559
-0.357761
-0.362535
-0.374321
-0.291609
-0.279835
-0.268897
-0.258511
-0.248711
-0.239548
-0.230976
-0.222927
-0.215328
-0.208112
-0.20121
-0.194566
-0.188134
-0.181882
-0.175801
-0.169906
-0.164236
-0.158858
-0.153818
-0.149106
-0.144661
-0.14591
-0.149921
-0.152467
-0.154539
-0.155843
-0.157063
-0.158322
-0.159825
-0.161129
-0.162313
-0.163565
-0.140328
0.140065
0.118552
0.120676
0.134401
0.150262
0.161724
0.165197
0.156489
0.133899
0.109444
0.0930757
0.078075
0.065464
0.0583809
0.0592916
0.0616709
0.0604185
0.0614561
0.0580058
0.0582106
0.0557641
0.0559582
-0.371762
-0.366613
-0.352731
-0.349888
-0.335218
-0.331219
-0.318133
-0.303175
-0.311958
-0.327499
-0.324173
-0.29111
-0.344502
-0.339916
-0.357177
-0.361803
-0.279592
-0.269016
-0.258808
-0.249104
-0.23998
-0.231401
-0.223318
-0.215687
-0.208448
-0.201541
-0.194903
-0.188487
-0.182254
-0.176183
-0.170265
-0.164517
-0.158989
-0.153744
-0.148817
-0.144201
-0.139828
-0.140928
-0.145045
-0.147538
-0.149525
-0.150813
-0.152015
-0.153256
-0.154718
-0.155996
-0.157159
-0.158388
-0.135711
0.157
0.095982
0.0969069
0.111764
0.128527
0.140846
0.14614
0.141715
0.126758
0.108638
0.0945882
0.081179
0.0683652
0.0597155
0.0536893
0.0556252
0.0581393
0.0583174
0.0600713
0.059084
0.0594423
0.0594206
0.0594525
0.0566298
0.0567986
-0.352069
-0.348806
-0.318737
-0.316681
-0.305444
-0.290222
-0.29882
-0.313279
-0.309817
-0.278939
-0.268814
-0.258797
-0.249205
-0.240188
-0.231663
-0.223587
-0.215947
-0.208699
-0.201792
-0.195166
-0.188771
-0.182567
-0.176524
-0.170622
-0.164857
-0.159255
-0.153864
-0.148744
-0.143934
-0.139439
-0.135289
-0.136159
-0.140044
-0.142688
-0.144628
-0.145909
-0.147061
-0.148286
-0.149702
-0.150962
-0.152107
-0.153317
-0.13158
0.0872185
0.0755188
0.0932806
0.110035
0.122651
0.129409
0.128468
0.119228
0.106197
0.0945678
0.0829717
0.0710989
0.0617791
0.0547624
0.0484131
0.0514695
0.0541791
0.0550176
0.0570972
0.0572367
0.0580322
0.0592202
0.0586924
0.058405
0.058727
0.0583062
0.0585471
-0.316616
-0.315945
-0.30631
-0.303124
-0.292391
-0.27797
-0.286183
-0.3
-0.296637
-0.312896
-0.309484
-0.26835
-0.25852
-0.249045
-0.240168
-0.23174
-0.223709
-0.216091
-0.208855
-0.201959
-0.19535
-0.188981
-0.182812
-0.176807
-0.170941
-0.165199
-0.159583
-0.15412
-0.148862
-0.143871
-0.139202
-0.134913
-0.131032
-0.132138
-0.135664
-0.137488
-0.139694
-0.141055
-0.142219
-0.143433
-0.144794
-0.146042
-0.147152
-0.148342
-0.127135
0.0606334
0.0812474
0.0972202
0.108613
0.115645
0.117007
0.111911
0.102868
0.0935065
0.0836309
0.0730768
0.063953
0.0565182
0.0502284
0.0476646
0.0457731
0.0492567
0.0515036
0.0534928
0.0539731
0.0550301
0.0567703
0.0558743
0.0568424
0.0575971
0.0586166
0.0582099
-0.305622
-0.302617
-0.293219
-0.290177
-0.279861
-0.267637
-0.274547
-0.287362
-0.284208
-0.299706
-0.296387
-0.258019
-0.24865
-0.239958
-0.231641
-0.223675
-0.216099
-0.208902
-0.202037
-0.195452
-0.189115
-0.182983
-0.177022
-0.171203
-0.165505
-0.159915
-0.154441
-0.149115
-0.143992
-0.139147
-0.134664
-0.130577
-0.126643
-0.127612
-0.131305
-0.133543
-0.135356
-0.136423
-0.137584
-0.137792
-0.140619
-0.141321
-0.142333
-0.143454
-0.12271
0.0745509
0.0906147
0.0999571
0.105809
0.107908
0.105373
0.0992495
0.0918472
0.083509
0.0742891
0.0657542
0.0584081
0.0520753
0.0483311
0.0445176
0.0463986
0.0478471
0.043492
0.0494116
0.0504553
0.0516461
0.0533657
0.0522543
0.053699
0.0546829
0.0563451
0.0555643
-0.292545
-0.289698
-0.280906
-0.277637
-0.269497
-0.257266
-0.263877
-0.27557
-0.272887
-0.287025
-0.284016
-0.248041
-0.239576
-0.231401
-0.223491
-0.215966
-0.208828
-0.202015
-0.195471
-0.189169
-0.183081
-0.177167
-0.1714
-0.165754
-0.160213
-0.154769
-0.149433
-0.144244
-0.139266
-0.134589
-0.130276
-0.126217
-0.122252
-0.123175
-0.126828
-0.129009
-0.13088
-0.131983
-0.133117
-0.134193
-0.135486
-0.136741
-0.138344
-0.137442
-0.118475
0.0881357
0.0960024
0.100178
0.101698
0.100171
0.0958461
0.089946
0.0829
0.0748907
0.0670783
0.0600491
0.0537483
0.0491233
0.0451189
0.0410096
0.0428649
0.0444436
0.0461023
0.0480372
0.0478169
0.0401991
0.0501216
0.0502143
0.0502001
0.0511805
0.0529767
0.0519984
-0.280936
-0.276973
-0.270209
-0.267498
-0.258932
-0.247234
-0.253907
-0.264597
-0.260966
-0.275864
-0.272684
-0.239027
-0.23104
-0.223186
-0.215707
-0.208639
-0.201886
-0.195395
-0.189144
-0.183101
-0.177239
-0.171526
-0.165939
-0.160456
-0.155064
-0.14976
-0.144561
-0.139512
-0.134688
-0.130163
-0.125923
-0.121863
-0.118019
-0.118939
-0.122469
-0.124603
-0.126444
-0.127547
-0.128626
-0.129703
-0.131002
-0.132113
-0.133185
-0.134286
-0.135535
-0.136644
-0.138092
-0.136056
-0.114372
0.0948143
0.0977094
0.098211
0.0966147
0.0930567
0.0881016
0.0820373
0.0750424
0.0679472
0.0613272
0.0551982
0.0500933
0.0457122
0.0414905
0.0379365
0.039777
0.0412644
0.0424598
0.0439878
0.045159
0.0459712
0.0481302
0.0474072
0.0367298
0.0491193
0.050847
-0.275569
-0.269745
-0.267091
-0.258131
-0.249017
-0.238322
-0.24404
-0.253351
-0.264585
-0.262911
-0.275222
-0.272214
-0.230545
-0.222774
-0.215347
-0.20835
-0.201661
-0.195225
-0.18903
-0.183043
-0.177237
-0.171583
-0.166055
-0.160635
-0.155305
-0.150056
-0.144889
-0.139826
-0.134917
-0.130231
-0.125802
-0.121599
-0.117634
-0.113922
-0.114825
-0.118244
-0.120332
-0.122101
-0.123184
-0.124231
-0.125299
-0.12657
-0.127674
-0.128723
-0.129812
-0.131109
-0.132205
-0.133287
-0.134366
-0.110374
0.0968655
0.0965381
0.0944818
0.091035
0.0865208
0.0811028
0.0748905
0.0684332
0.062231
0.0563624
0.0511155
0.046463
0.0420896
0.0383758
0.0351747
0.0369271
0.0383364
0.0394847
0.0409579
0.0419161
0.0425851
0.0440936
0.043338
-0.269315
-0.266781
-0.259067
-0.256439
-0.248495
-0.239831
-0.229863
-0.235525
-0.24338
-0.251704
-0.254201
-0.264221
-0.262189
-0.222251
-0.214888
-0.207986
-0.201363
-0.194971
-0.188828
-0.182904
-0.177161
-0.171568
-0.166103
-0.160747
-0.155484
-0.1503
-0.145187
-0.140153
-0.135221
-0.130441
-0.125862
-0.1215
-0.117378
-0.113539
-0.109934
-0.110815
-0.114135
-0.116175
-0.117883
-0.118939
-0.119957
-0.121002
-0.122221
-0.1233
-0.124325
-0.125398
-0.12667
-0.127758
-0.128832
-0.129913
-0.106483
0.0956579
0.093179
0.0896127
0.0852391
0.0801946
0.0745444
0.068616
0.0627995
0.0572113
0.052023
0.0472794
0.0428185
0.0389094
0.0355893
0.0327499
0.03301
0.0356359
0.0367705
0.038091
0.0389686
0.0396356
0.0411297
0.0403759
-0.249118
-0.246817
-0.239438
-0.23129
-0.221579
-0.227051
-0.235074
-0.241683
-0.244688
-0.21432
-0.207555
-0.20101
-0.194652
-0.188547
-0.182682
-0.177008
-0.171481
-0.166082
-0.160793
-0.155598
-0.150482
-0.145435
-0.140454
-0.135545
-0.130737
-0.126067
-0.12157
-0.117287
-0.113283
-0.109556
-0.106048
-0.10692
-0.110132
-0.112125
-0.113781
-0.114811
-0.115802
-0.116821
-0.117999
-0.119048
-0.120045
-0.12109
-0.122314
-0.123375
-0.124425
-0.125489
0.0921554
0.0884392
0.0841268
0.0793033
0.0740513
0.0685511
0.0630787
0.0577611
0.0527219
0.048022
0.0435735
0.0395391
0.0360464
0.0330489
0.0305044
0.0318268
0.0329941
0.0318933
0.0296765
0.0359502
0.0362436
0.0368393
0.0382335
0.0375282
-0.240272
-0.237903
-0.23072
-0.222976
-0.213642
-0.218935
-0.226555
-0.233598
-0.235758
-0.240557
-0.207041
-0.200613
-0.194282
-0.188206
-0.182391
-0.176782
-0.171324
-0.165991
-0.160771
-0.155646
-0.150601
-0.145625
-0.140708
-0.13585
-0.13106
-0.12636
-0.12178
-0.117366
-0.113193
-0.109299
-0.105673
-0.108182
-0.109783
-0.110791
-0.111757
-0.112751
-0.113894
-0.114916
-0.115886
-0.116904
-0.118088
-0.119119
-0.12014
-0.121173
0.0872733
0.0829738
0.0783459
0.0733927
0.0682489
0.0630925
0.0580376
0.0531849
0.0486025
0.0442487
0.0401988
0.0365885
0.0334412
0.0307624
0.0283928
0.0295794
0.0308044
0.0314016
0.0318808
0.032403
0.0327023
0.0328168
0.0388501
0.035779
0.0351507
-0.239805
-0.237463
-0.231321
-0.229245
-0.222444
-0.215027
-0.206425
-0.211095
-0.218518
-0.22517
-0.227249
-0.233291
-0.235408
-0.200186
-0.193867
-0.187819
-0.182052
-0.176498
-0.171098
-0.165831
-0.16068
-0.155628
-0.150656
-0.145752
-0.140906
-0.136111
-0.131369
-0.126686
-0.12208
-0.117588
-0.113275
-0.109207
-0.105416
-0.107805
-0.108782
-0.109895
-0.110892
-0.111838
-0.11283
-0.11398
-0.114984
-0.115977
-0.116983
0.0816985
0.0771945
0.0725263
0.0676907
0.0628381
0.0580504
0.0534064
0.0489824
0.0447688
0.0407963
0.037154
0.0338908
0.0310431
0.0285173
0.0261891
0.0274728
0.0287074
0.0292005
0.0297568
0.0303094
0.0309264
0.0313185
0.0317571
0.0322022
0.0324905
0.0325617
0.0355778
-0.230981
-0.228975
-0.223039
-0.221032
-0.214592
-0.207579
-0.199403
-0.203995
-0.210636
-0.21717
-0.219172
-0.224903
-0.226932
-0.193432
-0.187383
-0.181676
-0.176178
-0.170817
-0.165601
-0.160519
-0.155544
-0.150647
-0.145817
-0.141044
-0.13632
-0.13164
-0.127004
-0.122417
-0.1179
-0.113501
-0.109288
-0.105321
-0.107887
-0.108859
-0.109978
-0.110959
-0.111927
-0.112906
0.0758532
0.0713793
0.0668673
0.0623036
0.0577899
0.0533816
0.0491437
0.0450953
0.0412544
0.037667
0.0343679
0.031399
0.0287266
0.0261798
0.0230467
0.0255007
0.0267007
0.027065
0.0276667
0.0281714
0.0287938
0.0291533
0.0296784
0.0302043
0.0307925
0.0312496
0.0316572
0.032089
0.0323202
-0.222708
-0.220776
-0.215175
-0.213233
-0.207178
-0.200305
-0.192826
-0.195641
-0.203683
-0.209252
-0.211361
-0.2169
-0.218845
-0.186898
-0.181259
-0.175831
-0.170498
-0.165315
-0.160292
-0.155392
-0.150573
-0.14582
-0.141122
-0.136471
-0.131861
-0.127287
-0.122748
-0.118252
-0.113823
-0.109518
-0.105402
-0.107973
-0.108933
0.0700108
0.065734
0.0614924
0.0572503
0.0530981
0.0490745
0.0452116
0.0415288
0.0380561
0.0348079
0.0318077
0.0290634
0.026493
0.0239671
0.023543
0.0220692
0.0240041
0.0252031
0.0258414
0.0261029
0.0267404
0.027033
0.0275846
0.0280676
0.0286487
0.0291
0.029598
0.0301547
0.0307133
-0.214827
-0.213023
-0.207701
-0.205978
-0.200175
-0.191814
-0.186303
-0.197725
-0.202507
-0.204247
-0.208886
-0.211443
-0.180777
-0.175458
-0.170153
-0.16499
-0.160007
-0.155173
-0.150431
-0.145759
-0.141138
-0.136563
-0.132027
-0.127524
-0.123048
-0.1186
-0.11419
-0.10985
-0.105637
0.0643682
0.0603707
0.0564488
0.052551
0.0487629
0.0451065
0.041601
0.0382754
0.0351366
0.0321907
0.0294532
0.026931
0.0247144
0.0237456
0.0222868
0.023089
0.0233782
0.0231999
0.0208114
0.0236172
0.0248476
0.0253208
0.0256954
0.0260025
0.0265608
0.0269864
0.0275094
0.028022
0.0285661
-0.207804
-0.205764
-0.200645
-0.198977
-0.193098
-0.185567
-0.189768
-0.180181
-0.19535
-0.197613
-0.202231
-0.203987
-0.207877
-0.175041
-0.169779
-0.164632
-0.15968
-0.1549
-0.150227
-0.14563
-0.141091
-0.136596
-0.132137
-0.127708
-0.123303
-0.118919
-0.114557
-0.110231
-0.105978
0.0590281
0.0553547
0.0517604
0.048211
0.044773
0.041464
0.0383048
0.0353068
0.0324707
0.0298064
0.0273439
0.0252023
0.0238494
0.0224441
0.0204041
0.0214823
0.0221712
0.0226229
0.0228725
0.023347
0.0235363
0.0253772
0.0183494
0.0259046
0.0249496
0.0252115
0.0255304
0.0259422
0.026469
-0.207317
-0.205429
-0.200399
-0.198719
-0.196233
-0.193664
-0.191953
-0.186621
-0.179495
-0.183488
-0.190417
-0.188677
-0.174542
-0.197197
-0.201961
-0.203676
-0.169354
-0.164239
-0.159319
-0.154589
-0.149967
-0.145437
-0.140975
-0.136564
-0.132189
-0.127838
-0.123507
-0.119195
-0.114897
-0.110618
-0.106373
0.0540521
0.0506977
0.0474393
0.0442192
0.041117
0.0381383
0.0352982
0.0325997
0.03005
0.0276722
0.0255557
0.0239529
0.0224775
0.0205793
0.0188571
0.0198367
0.0205581
0.0211682
0.0214545
0.0218212
0.0221603
0.0224769
0.0227666
0.023221
0.0238721
0.015395
0.0257249
0.0244874
-0.200117
-0.198504
-0.195655
-0.186949
-0.185437
-0.180291
-0.173937
-0.177664
-0.184032
-0.18274
-0.168842
-0.19693
-0.1638
-0.15892
-0.154248
-0.149669
-0.145187
-0.140791
-0.136466
-0.132177
-0.127909
-0.123658
-0.119421
-0.115195
-0.11098
-0.10678
0.0494457
0.0464152
0.043469
0.040568
0.0377775
0.035107
0.0325578
0.0301417
0.027873
0.0258056
0.0240748
0.0225139
0.0207314
0.0190452
0.0175465
0.0183624
0.0190388
0.019576
0.0198874
0.020269
0.020694
0.0211409
0.0214217
0.021756
0.0221066
-0.180529
-0.179635
-0.174828
-0.1682
-0.171924
-0.178164
-0.176688
-0.163301
-0.158463
-0.153876
-0.149343
-0.144894
-0.140548
-0.136297
-0.132095
-0.127917
-0.123751
-0.119595
-0.115446
-0.111302
-0.107166
0.0452182
0.0424899
0.039841
0.037235
0.0347364
0.0323435
0.0300693
0.0279223
0.025933
0.0241679
0.0225558
0.0208584
0.0192165
0.0177489
0.0163385
0.0170544
0.0176821
0.0181189
0.0184027
0.0187539
0.0191542
0.019546
0.0198464
0.0202211
0.0206646
-0.179554
-0.179269
-0.175183
-0.173783
-0.16907
-0.162721
-0.166275
-0.172384
-0.170917
-0.177954
-0.176491
-0.157923
-0.153457
-0.148988
-0.144566
-0.140256
-0.136066
-0.131945
-0.127857
-0.123781
-0.119711
-0.115644
-0.111578
-0.107512
0.0413527
0.0389045
0.0365354
0.0342014
0.031965
0.0298353
0.0278141
0.0259224
0.0241871
0.0225731
0.0209458
0.0193587
0.0179134
0.0165387
0.0152122
0.0158601
0.0164495
0.0168154
0.0170935
0.0174027
0.0177647
0.0180788
0.0183519
0.0186956
0.0191034
-0.174876
-0.173529
-0.169427
-0.168061
-0.163563
-0.157308
-0.160862
-0.166739
-0.165312
-0.172215
-0.170754
-0.152976
-0.148589
-0.144204
-0.139926
-0.135784
-0.131732
-0.127726
-0.123741
-0.119763
-0.115784
-0.111802
-0.107814
0.0378276
0.0356438
0.0335253
0.0314404
0.0294509
0.027557
0.0257709
0.024104
0.0225329
0.0209786
0.0194559
0.0180384
0.0166951
0.0154057
0.0141677
0.0147471
0.0153129
0.0156377
0.0158934
0.0161721
0.016519
0.0167762
0.0170409
0.017344
0.0177051
-0.169128
-0.167821
-0.163892
-0.162557
-0.158143
-0.152444
-0.155514
-0.161304
-0.159919
-0.166567
-0.16515
-0.148127
-0.1438
-0.139561
-0.135462
-0.131469
-0.127531
-0.123625
-0.11974
-0.115858
-0.111968
-0.108065
0.0346249
0.0326766
0.0307927
0.0289354
0.0271654
0.0254872
0.0239077
0.0224072
0.0209386
0.0194945
0.0181204
0.0168105
0.0155528
0.0143549
0.0131951
0.013711
0.0142575
0.0145399
0.0147781
0.0150514
0.015361
0.0156022
0.015843
0.0161106
0.0164582
-0.163593
-0.162318
-0.158502
-0.157189
-0.153202
-0.147575
-0.150719
-0.155806
-0.154768
-0.16111
-0.159741
-0.143339
-0.139153
-0.135101
-0.131166
-0.127282
-0.123439
-0.11964
-0.115855
-0.112066
-0.108258
0.031716
0.0299882
0.0283101
0.0266587
0.0250875
0.0236016
0.0221846
0.0208093
0.0194573
0.0181488
0.0168838
0.015658
0.0144867
0.0133667
0.0122667
0.0127285
0.0132724
0.0135125
0.013747
0.0140014
0.0142935
0.0145076
0.0147288
0.0149917
0.0152977
-0.15823
-0.157191
-0.153544
-0.152313
-0.148298
-0.142794
-0.145792
-0.151085
-0.149834
-0.155616
-0.154814
-0.138695
-0.134689
-0.130827
-0.12699
-0.123196
-0.119464
-0.115772
-0.112086
-0.108382
0.0290815
0.0275439
0.0260576
0.02459
0.0231956
0.0218681
0.0205853
0.0193306
0.018105
0.0169045
0.0157231
0.0145775
0.0134715