/*--------------------------------*- C++ -*----------------------------------*\
| =========                 |                                                 |
| \\      /  F ield         | OpenFOAM: The Open Source CFD Toolbox           |
|  \\    /   O peration     | Version:  v1912                                 |
|   \\  /    A nd           | Website:  www.openfoam.com                      |
|    \\/     M anipulation  |                                                 |
\*---------------------------------------------------------------------------*/
FoamFile
{
    version     2.0;
    format      ascii;
    class       surfaceScalarField;
    location    "260";
    object      phi;
}
// * * * * * * * * * * * * * * * * * * * * * * * * * * * * * * * * * * * * * //

dimensions      [0 3 -1 0 0 0 0];
oriented        oriented;


internalField   nonuniform List<scalar> 
7196
(
0.00510637
0.00490063
0.00623005
0.00888432
0.00245909
0.00244154
0.00618633
0.0100507
0.00447106
0.00687234
0.000926121
0.00151542
0.00596228
0.010233
0.00522443
0.00929736
0.00258514
0.00521332
0.000294429
0.00122099
0.00577429
0.010197
0.00527192
0.0101855
0.00373923
0.00814327
0.00128685
0.0042209
7.80059e-05
0.00114298
0.00562978
0.0101555
0.00511026
0.0103587
0.00419467
0.00973011
0.00233024
0.00709988
0.00056495
0.00373396
5.65692e-07
0.00114241
0.00550515
0.0101356
0.00494306
0.0103227
0.00423324
0.0103201
0.0029669
0.00909344
0.00128376
0.00638107
0.000194396
0.00354013
-2.91566e-05
0.00117157
0.00538974
0.0101274
0.00481049
0.0102682
0.00412582
0.0104301
0.00319002
0.010097
0.00186821
0.00850899
0.000600484
0.00597498
1.31038e-05
0.00349787
-3.83612e-05
0.00120993
0.00528142
0.0101203
0.00470931
0.0102286
0.00400424
0.0103898
0.00317919
0.010441
0.00215853
0.00980665
0.00101696
0.00809251
0.000192721
0.00579537
-6.78015e-05
0.00352731
-3.64353e-05
0.00124637
0.00517728
0.0101141
0.00462913
0.0102005
0.003906
0.0103268
0.00308533
0.0104836
0.00220492
0.0103946
0.00126508
0.00955853
0.000429312
0.00785592
-2.35624e-05
0.00575113
-9.24856e-05
0.00358336
-2.98881e-05
0.00127625
0.00507985
0.0101054
0.00456977
0.0101735
0.003838
0.0102685
0.00298365
0.0104285
0.00212379
0.0105648
0.00131217
0.0103475
0.000584722
0.00940312
7.31856e-05
0.00775917
-0.000119077
0.00577772
-9.0852e-05
0.00364432
-2.33355e-05
0.00129959
0.00499029
0.0100936
0.004533
0.0101422
0.00380187
0.0102096
0.00290404
0.0103481
0.00199933
0.010553
0.00121612
0.0106608
0.000591172
0.010341
0.00013504
0.00934126
-0.000109619
0.00774971
-0.000146941
0.00583381
-7.86414e-05
0.00369963
-1.71274e-05
0.00131672
0.00490722
0.0100821
0.00451821
0.0101083
0.00379967
0.0101444
0.00285727
0.0102564
0.00187388
0.0104736
0.00104348
0.0107256
0.00045765
0.0107943
9.12441e-05
0.0103848
-0.00011485
0.00934649
-0.000185474
0.00778825
-0.000144348
0.00589951
-6.39021e-05
0.0037464
-1.14518e-05
0.00132817
0.0048305
0.0100697
0.00452785
0.0100724
0.00384
0.010068
0.00285518
0.0101465
0.00176792
0.0103624
0.000836138
0.0106809
0.000225728
0.0109575
-7.13538e-05
0.0109569
-0.000189204
0.0104592
-0.000230471
0.00939149
-0.000205635
0.00784954
-0.000127851
0.00596346
-4.89588e-05
0.00378391
-7.17014e-06
0.00133534
0.0047581
0.0100574
0.00456144
0.0100361
0.00392723
0.00998519
0.00290963
0.0100136
0.00169952
0.0102149
0.000618611
0.0105799
-7.54371e-05
0.0109821
-0.000338148
0.0112243
-0.000358619
0.0111264
-0.000323389
0.0105521
-0.000274499
0.00946036
-0.000198207
0.00791989
-0.000107126
0.00602163
-3.5381e-05
0.00381212
-3.53523e-06
0.00133887
0.00468717
0.0100499
0.00461383
0.010005
0.00406719
0.00989618
0.00304056
0.00985426
0.0016936
0.0100195
0.00040854
0.010425
-0.000433226
0.0109377
-0.000692762
0.0113367
-0.000615425
0.0114811
-0.000485494
0.0112885
-0.000379584
0.0106572
-0.000280771
0.00954292
-0.00017813
0.0079909
-8.47551e-05
0.006071
-2.44167e-05
0.003833
-1.35323e-06
0.00134023
0.00461418
0.010046
0.00468051
0.00998325
0.00425792
0.00981427
0.00326322
0.00967351
0.00178159
0.00976627
0.000225588
0.0102024
-0.000849565
0.0108413
-0.00113552
0.0113804
-0.000947474
0.0116687
-0.000717842
0.0117135
-0.000538735
0.0114476
-0.000391943
0.0107683
-0.000264322
0.00962911
-0.000152492
0.00805863
-6.61102e-05
0.0061127
-1.5624e-05
0.00384728
6.26957e-07
0.0013396
0.00453538
0.0100498
0.00474784
0.00997867
0.00449069
0.00975048
0.00359466
0.00948283
0.00200741
0.0094477
0.000107449
0.00988441
-0.00132964
0.0106825
-0.00168098
0.0113868
-0.00135117
0.0117841
-0.00100586
0.0119567
-0.000750094
0.0119248
-0.000546773
0.0116024
-0.000378502
0.0108825
-0.00023899
0.00971561
-0.000127555
0.00812008
-4.95451e-05
0.00614662
-8.85691e-06
0.00385676
1.79856e-06
0.0013378
0.00444637
0.010061
0.00480392
0.00999372
0.00474729
0.00972207
0.0040358
0.00930935
0.00242744
0.00906279
0.000118425
0.00943672
-0.00188123
0.010436
-0.00236234
0.0113639
-0.0018268
0.0118624
-0.00133763
0.0121159
-0.00100605
0.0122127
-0.000746364
0.0121244
-0.000529073
0.011753
-0.000350962
0.0109945
-0.000211074
0.00979913
-0.000105558
0.00817609
-3.68121e-05
0.00617457
-4.45234e-06
0.00386301
2.44494e-06
0.00133536
0.00434381
0.0100786
0.00483459
0.0100303
0.00499673
0.00974428
0.00456056
0.00919731
0.00309757
0.00863922
0.000379662
0.00880155
-0.00249385
0.0100493
-0.00321684
0.0112905
-0.00237789
0.011915
-0.00170702
0.0122318
-0.00128954
0.0123994
-0.000976597
0.0124429
-0.000716484
0.0123118
-0.000497409
0.0118995
-0.00032201
0.0111054
-0.000185149
0.00987872
-8.72403e-05
0.00822652
-2.68317e-05
0.00619695
-4.64841e-07
0.00386592
3.18934e-06
0.00133217
0.0042258
0.010101
0.00482507
0.0100881
0.00520834
0.00981873
0.00511468
0.00919016
0.00401044
0.00828444
0.00113852
0.00788036
-0.00306888
0.00937658
-0.00424802
0.0110805
-0.00297245
0.0118851
-0.00208371
0.0122916
-0.00157717
0.0125194
-0.00122184
0.0126446
-0.000929191
0.0126556
-0.000676111
0.0124905
-0.000463304
0.0120408
-0.000291249
0.0112115
-0.000160882
0.00995236
-7.10815e-05
0.00827077
-1.85947e-05
0.00621508
1.9915e-06
0.00386712
3.45735e-06
0.00132871
0.00409403
0.0101228
0.00476843
0.0101577
0.00534832
0.0099481
0.00562795
0.00930545
0.00506057
0.00814002
0.00269584
0.00672713
-0.00319746
0.00800894
-0.00531373
0.0104423
-0.00343519
0.0115433
-0.00237265
0.012174
-0.0018152
0.0125297
-0.001446
0.0127436
-0.00114547
0.0128609
-0.000877341
0.0128569
-0.00063455
0.0126618
-0.00042748
0.012177
-0.000261671
0.0113123
-0.000140337
0.0100216
-5.79314e-05
0.00831011
-1.28651e-05
0.00622994
3.27085e-06
0.00386731
3.57781e-06
0.00132513
0.00394931
0.0101417
0.00466477
0.0102264
0.00539199
0.010114
0.00601907
0.00955698
0.00612785
0.00823817
0.00462178
0.00317798
0.0030361
-0.000211133
0.0028813
-0.00141556
0.00227506
-0.00324689
0.00449073
-0.00235839
0.00380976
-0.00189683
0.0102956
-0.0013917
-0.0023367
0.0115073
-0.00187518
0.012234
-0.00157667
0.0126603
-0.00132366
0.0129218
-0.00107324
0.0130568
-0.000823469
0.0130458
-0.000590976
0.0128253
-0.00039321
0.0123085
-0.000236661
0.0114086
-0.000122933
0.0100866
-4.84718e-05
0.00834572
-8.63818e-06
0.00624185
4.63924e-06
0.00386624
3.339e-06
0.0013218
0.00379597
0.0101553
0.00452196
0.0102845
0.00533942
0.010279
0.00622338
0.00990968
0.00700128
0.00868355
0.00681441
0.00299365
0.0030519
0.000597521
0.00236933
0.00154844
0.00208518
-0.00321855
0.00285296
-0.0006991
0.000872593
0.000780275
-0.00127443
-0.00113214
0.00057027
0.000892811
-0.00175471
0.00434861
-0.000992361
0.00127763
0.000886726
-0.00067742
-0.000646595
0.00322722
-0.000525579
-0.000920355
0.0095663
-0.000687018
-0.000996546
0.00395346
-0.0015536
0.0111857
-0.0014853
0.0121426
-0.00138677
0.0127235
-0.00122438
0.0130729
-0.00100478
0.0132381
-0.000766394
0.0132212
-0.000546195
0.0129783
-0.000359605
0.0124315
-0.000214674
0.0115004
-0.00010799
0.0101461
-4.09265e-05
0.008378
-6.33405e-06
0.00625282
4.64706e-06
0.00386494
3.38157e-06
0.00131841
0.00363728
0.0101637
0.00434823
0.0103291
0.00520424
0.0104197
0.00623815
0.0102642
0.00747657
0.00943439
0.00866463
0.00327486
0.00355848
0.00261993
0.00192216
0.00357617
0.0010585
0.00103716
0.000453061
0.000398512
0.000534506
-0.0010927
0.00069086
-0.000861197
0.00054877
-0.000936451
0.000495168
0.00106544
-0.000495168
0.000965887
-0.000491548
0.00112258
0.000683646
-0.000288467
0.000288467
-0.000171796
0.00266768
-0.000265213
-0.000323308
0.000920309
0.003565
-0.000531898
-0.000427871
0.00877056
-0.000329997
0.00322908
-0.000351099
-0.001059
0.0107594
-0.00122884
0.0119847
-0.0012543
0.0127534
-0.00113521
0.0132033
-0.000929668
0.0134014
-0.000706969
0.013382
-0.00050218
0.0131208
-0.000328902
0.0125457
-0.000194206
0.0115866
-9.69439e-05
0.0102022
-3.59451e-05
0.00840762
-4.41286e-06
0.00626188
4.78085e-06
0.00386354
2.9476e-06
0.00131547
0.00347519
0.0101691
0.00415217
0.0103598
0.00500832
0.010525
0.00610445
0.0105534
0.0075697
0.0101711
0.00957547
0.00407823
0.00444533
0.00464951
0.00220152
0.00545769
0.0027503
0.00104798
0.000270112
0.000251682
0.000805452
-0.00143262
0.00177161
0.000719511
0.000652517
0.000714371
-0.000315859
0.000387681
-0.000387681
0.000360338
-0.000771328
0.000653395
-5.38636e-05
0.00227456
-8.12856e-05
-5.7488e-05
-0.000116232
0.00301491
-0.000213696
-0.000215387
0.00811231
-0.000185366
0.0028412
-0.000156284
0.00200494
-3.79969e-05
-4.34822e-05
-0.000809844
0.0103404
-0.00108956
0.0118199
-0.0011596
0.0127778
-0.00103792
0.0133116
-0.000849165
0.0135436
-0.000648075
0.0135279
-0.000460772
0.0132527
-0.000303369
0.0126549
-0.00017882
0.0116685
-8.94774e-05
0.0102557
-3.19833e-05
0.00843519
-4.01114e-06
0.00627068
4.47791e-06
0.00386201
2.81365e-06
0.00131265
0.00331022
0.010173
0.00393953
0.0103817
0.00476874
0.0105993
0.00586488
0.0107646
0.00738549
0.0107376
0.00969709
0.0100495
0.00606559
0.00347032
0.0064826
0.00402831
0.00495306
-0.00162345
0.000303599
0.000339918
0.00628976
0.000880447
0.000533157
-4.57467e-05
0.000205935
0.00118866
0.000269311
0.000284715
0.000244106
0.000591521
-1.94115e-05
0.000190242
0.000547172
-1.31388e-05
0.00184127
-2.6836e-05
-2.31904e-05
0.00272494
-9.91289e-05
-0.000138111
0.00758536
-0.000144774
0.00261978
-8.02088e-05
0.00172236
-1.80478e-05
-1.93296e-05
-0.000512607
0.00048407
-9.46002e-06
-8.91687e-06
-0.000723673
0.00997456
-0.00102906
0.0116894
-0.0010451
0.0127849
-0.000930701
0.0133931
-0.000766311
0.0136618
-0.00059113
0.0136582
-0.000426008
0.0133754
-0.000282458
0.0127585
-0.000167053
0.0117461
-8.32994e-05
0.010307
-3.03248e-05
0.0084615
-3.93105e-06
0.00627909
3.83779e-06
0.00386098
2.27048e-06
0.00131038
0.00314255
0.0101757
0.00371686
0.0103956
0.00449979
0.0106507
0.00555374
0.0109105
0.00703261
0.0111174
0.00928104
0.0111537
-0.00758904
0.0140777
0.00469887
0.00534455
0.0070994
0.00126825
0.00139244
0.0018966
0.00164207
0.00106356
-0.000759961
0.00140348
-0.00193663
0.00281708
0.000475246
0.000170831
0.000157692
0.000462926
-5.69211e-06
0.00044501
-5.2741e-06
0.0016455
-1.17164e-05
-1.05524e-05
0.00254165
-5.99757e-05
-0.000121643
0.00714134
-0.000158014
0.00245651
-5.96336e-05
0.00158303
-8.78509e-06
-8.95099e-06
-0.000429827
0.00041632
-4.54014e-06
-4.14705e-06
-0.000148775
0.000139315
-0.000749354
0.00969485
-0.000933855
0.0115782
-0.000914708
0.0127689
-0.000818989
0.0134458
-0.000686178
0.0137569
-0.000540411
0.0137726
-0.000396302
0.0134892
-0.000266031
0.0128575
-0.000158238
0.011821
-7.93319e-05
0.010356
-2.88479e-05
0.00848642
-4.14162e-06
0.00628706
3.05635e-06
0.0038602
2.10205e-06
0.00130828
0.00297506
0.0101755
0.0034884
0.0104041
0.0042105
0.0106849
0.0051986
0.0110058
0.00658657
0.0113565
0.0086281
0.0117704
0.0128676
0.0123637
0.00878993
-0.00417938
-0.0033787
0.0019608
0.00150623
0.00884701
0.00528747
0.00300741
0.00107792
0.00345495
0.000944889
-0.00392088
0.0016381
0.00117614
0.000133623
0.000128349
0.000407085
-2.48184e-06
0.00039881
-2.27669e-06
0.0015356
-6.11196e-06
-6.43533e-06
0.0023894
-5.45413e-05
-0.000162795
0.00679751
-0.000242728
0.00229828
-6.68924e-05
0.00148828
-6.52582e-06
-5.78608e-06
-0.000391704
0.00038496
-2.04133e-06
-1.84548e-06
-0.000124202
0.000119662
-0.000747319
0.00950831
-0.000786032
0.0114495
-0.000770319
0.0127203
-0.000713938
0.0134736
-0.000619078
0.0138356
-0.000501309
0.0138776
-0.000374989
0.0135982
-0.000254545
0.0129538
-0.000152549
0.0118942
-7.60213e-05
0.0104032
-2.81512e-05
0.00851043
-4.61654e-06
0.00629474
2.47775e-06
0.00385982
1.7579e-06
0.00130652
0.00280735
0.0101767
0.00325529
0.0104086
0.00391026
0.0107044
0.00481908
0.0110645
0.00608901
0.0115034
0.00791465
0.01207
0.0112625
0.0133755
-0.00683411
0.0159966
0.0054708
0.00657743
-0.00319896
0.00145835
-0.00296458
0.00313275
0.00179263
-0.00145835
-0.00179263
0.00182727
0.00155147
0.00107792
0.00202281
0.00011718
0.000114903
0.000380206
-1.35782e-06
0.000374908
-1.13732e-06
0.00144422
-4.63678e-06
-5.84583e-06
0.0022196
-8.41159e-05
-0.000292203
0.00662096
-0.000278562
0.00211436
-0.000137488
0.00138927
-7.25599e-06
-4.68058e-06
-0.00037037
0.000365317
-1.47242e-06
-1.24799e-06
-0.000113058
0.000111016
-0.000576981
0.00929926
-0.000614264
0.0112934
-0.000643465
0.0126498
-0.000628562
0.0134831
-0.000568687
0.0139029
-0.000473565
0.0139762
-0.000359328
0.0137029
-0.000244663
0.0130459
-0.000146102
0.0119643
-7.24648e-05
0.0104475
-2.74115e-05
0.00853322
-5.62609e-06
0.00630284
1.59739e-06
0.00385998
1.61447e-06
0.00130491
0.00263987
0.0101765
0.00302179
0.0104102
0.00360306
0.0107158
0.00442423
0.0110992
0.00556743
0.011586
0.00718931
0.0122287
0.00975557
0.0135768
0.0143651
0.0150071
0.00504323
-0.00201611
-0.00136263
0.00197943
0.00182687
0.00589514
0.00572552
-0.00155147
0.00136263
0.000109659
0.000108521
0.000361739
-1.05892e-06
0.000356934
-1.04111e-06
0.00132046
-4.89114e-06
-1.04179e-05
0.00204131
-0.000219147
-0.000212433
0.00637473
-0.000118323
0.00198482
-0.000222072
0.00121971
-2.6474e-05
-1.02661e-05
-0.000353239
0.000347355
-1.37192e-06
-9.8464e-07
-0.000107273
0.000105801
-0.000380075
0.00906507
-0.000478718
0.0111287
-0.000547644
0.0125689
-0.000567481
0.0134818
-0.000535025
0.0139644
-0.000456314
0.0140732
-0.000349715
0.013808
-0.000237486
0.0131373
-0.000141151
0.012033
-7.09874e-05
0.0104911
-2.76373e-05
0.00855523
-5.76816e-06
0.00631021
1.04409e-06
0.00386055
1.12799e-06
0.00130378
0.00247193
0.0101769
0.00278749
0.0104108
0.00329409
0.0107192
0.00402596
0.0111141
0.00504249
0.0116242
0.00646734
0.012308
0.00848375
0.0135005
0.0121499
0.0157921
-0.00413338
0.0118554
0.0131803
-0.00108059
0.00147713
0.00158289
0.000746286
-0.000983803
0.00405308
0.000104742
0.000103701
0.000343619
-1.15605e-06
0.000334807
-1.60576e-06
0.0011239
-4.07453e-05
-8.25891e-05
0.0018963
-0.000123914
-8.23548e-05
0.00612168
-4.46717e-05
0.00183299
-5.50152e-05
0.00104708
-6.53902e-05
-7.98569e-05
-0.000326841
0.000305576
-5.20949e-06
-2.29979e-06
-0.000102716
0.000101344
-0.000264157
0.00885051
-0.000389219
0.0109703
-0.000485736
0.0124871
-0.000532309
0.0134791
-0.000517685
0.0140258
-0.000444549
0.014168
-0.000337795
0.0139083
-0.000228115
0.0132242
-0.000135049
0.012097
-6.84137e-05
0.0105319
-2.67954e-05
0.00857626
-6.89501e-06
0.00631815
2.04917e-07
0.00386148
8.56196e-07
0.00130292
0.00230576
0.0101772
0.00255547
0.010409
0.00298708
0.0107178
0.00362886
0.0111163
0.00452399
0.0116326
0.00576439
0.0123271
0.0074152
0.0133765
0.0101261
0.0155243
0.0114044
0.0162431
-0.00200626
0.00704218
0.00954919
-0.00140485
-0.000428145
0.00102723
0.000318141
0.00273848
-0.000390485
-0.000301182
0.000100188
9.85825e-05
0.000277235
-1.24035e-05
0.000222216
-2.75701e-05
0.00095438
-2.44935e-05
-6.72467e-06
0.00177861
-2.79764e-05
-4.3402e-05
0.00593019
-2.92575e-05
0.00175031
-1.6372e-05
0.00090277
-6.359e-07
-2.76918e-06
-0.000193459
0.000128068
-5.10997e-05
-9.62827e-05
9.10732e-05
-0.00020498
0.00866627
-0.000337503
0.010822
-0.000455451
0.0124103
-0.000521758
0.0134832
-0.000511037
0.0140923
-0.000433156
0.0142634
-0.000323685
0.0140039
-0.000216971
0.0133062
-0.000127749
0.0121564
-6.49679e-05
0.01057
-2.74023e-05
0.00859677
-7.78131e-06
0.00632613
-8.9579e-07
0.00386323
7.8761e-07
0.00130214
0.00213955
0.0101772
0.00232451
0.0104081
0.0026807
0.0107153
0.00323412
0.0111125
0.00401575
0.0116245
0.00509102
0.0123059
0.00647979
0.0132625
0.00848893
0.0150137
0.0100396
0.016889
0.00847571
0.0148095
0.00349385
0.00675467
-0.000266503
-0.000432822
0.00167198
-0.000160813
-0.000177542
-0.000122897
0.000759639
0.000195244
0.000534656
-7.6199e-05
7.86698e-05
5.10997e-05
0.000103575
9.68503e-05
0.000876252
-1.03292e-06
-4.2546e-07
0.00172006
-1.31446e-05
-3.18919e-05
0.00578449
-2.73869e-05
0.00170136
-1.05594e-05
0.000860935
-3.51113e-07
-7.03373e-07
-9.40811e-05
9.34452e-05
-0.000172026
0.0085008
-0.00031684
0.0106834
-0.000454776
0.0123433
-0.000526677
0.0134988
-0.00050234
0.0141614
-0.000414746
0.0143545
-0.000305808
0.0140927
-0.000203928
0.0133823
-0.000121713
0.0122131
-6.31157e-05
0.0106057
-2.76165e-05
0.0086166
-8.72125e-06
0.00633396
-1.30662e-06
0.00386532
1.69593e-07
0.00130197
0.00197549
0.0101771
0.00209621
0.0104055
0.00238011
0.0107087
0.00284659
0.0111029
0.00352247
0.0116058
0.00445056
0.012265
0.00563281
0.0131529
0.00718695
0.0145645
0.00856738
0.016486
0.00835232
0.0170124
0.00558156
0.0127218
0.00148618
0.00515846
4.8054e-05
6.19767e-05
-0.00129942
0.00106902
-9.42415e-06
-2.66751e-05
-2.47868e-05
-3.54802e-05
-0.000396323
0.000274475
-3.89649e-05
-3.92089e-05
0.000119045
9.24123e-05
9.19869e-05
0.000848737
-5.64983e-07
-3.81629e-07
0.00168022
-1.07513e-05
-2.4907e-05
0.00565801
-2.06434e-05
0.00166452
-1.16896e-05
0.000839013
-3.45258e-07
-4.89635e-07
-9.12835e-05
9.09324e-05
-0.000160564
0.00834452
-0.000330229
0.0105589
-0.000481863
0.0122985
-0.000532985
0.0135295
-0.000482697
0.0142294
-0.000388596
0.0144372
-0.00028645
0.0141752
-0.000190773
0.0134514
-0.000115475
0.0122655
-6.24642e-05
0.0106406
-2.79983e-05
0.00863588
-1.05607e-05
0.00634321
-2.66762e-06
0.00386816
1.59888e-07
0.00130181
0.00181182
0.0101767
0.00187114
0.0104021
0.00208191
0.0107037
0.00246488
0.0110904
0.00304303
0.0115823
0.00384147
0.0122149
0.00485592
0.0130419
0.0061121
0.0142278
0.00727172
0.0158602
0.00754702
0.0172913
0.00635144
0.0162425
0.00343717
0.0107708
0.000710332
0.00448562
-3.92893e-05
1.79154e-06
-0.00101991
0.000998523
2.18913e-05
4.75481e-05
6.13336e-05
4.97556e-05
-0.0001948
0.000186733
-1.35714e-06
-0.000214958
-6.51674e-06
-0.000235698
-4.04626e-06
3.29622e-06
-7.98364e-05
4.08715e-05
9.03674e-05
8.99858e-05
0.000829188
-4.72532e-07
-4.54024e-07
0.00164931
-9.70041e-06
-1.77507e-05
0.00553552
-2.03201e-05
0.0016338
1.71275e-06
-6.84532e-06
0.000818481
-4.83308e-07
-4.99333e-07
-8.94962e-05
8.91509e-05
-0.000177073
0.00819136
-0.000379141
0.0104562
-0.00051766
0.0122832
-0.000514877
0.0135617
-0.000448545
0.0142893
-0.000357231
0.014508
-0.00026245
0.0142469
-0.000178196
0.0135141
-0.000110994
0.012314
-6.16477e-05
0.0106742
-3.05681e-05
0.00865589
-1.25645e-05
0.00635311
-3.29563e-06
0.00387162
-4.11897e-07
0.00130222
0.00165082
0.010175
0.00164993
0.0103979
0.0017898
0.0106942
0.00209112
0.0110775
0.00257504
0.0115584
0.00326039
0.0121634
0.00413585
0.012935
0.00518533
0.0139687
0.0061775
0.015322
0.0065985
0.0168087
0.00619183
0.0174509
0.0046136
0.0150661
0.00208138
0.00939978
0.000314161
0.00414647
3.45563e-05
-9.56034e-06
-0.000985716
0.000977238
-3.08127e-05
-1.92906e-06
1.65275e-05
-0.000242911
0.000251256
1.35461e-05
-0.000224083
2.87201e-05
-0.000203156
4.04059e-05
3.33324e-05
-3.36047e-05
3.22476e-05
-4.01215e-05
-4.41678e-05
8.86784e-05
8.82244e-05
0.000474256
-2.71543e-07
-2.46831e-07
0.000335043
0.00162278
-4.21214e-06
-2.51719e-06
-1.55828e-05
0.00540117
-2.71441e-05
0.0016071
-2.01763e-06
-2.61725e-06
0.000504785
-2.88165e-05
0.00050636
-8.42065e-06
-8.7725e-05
8.72417e-05
-0.000236558
0.00804878
-0.000462327
0.0104008
-0.00050973
0.012278
-0.000471273
0.0135844
-0.00040321
0.0143353
-0.000322443
0.014568
-0.000242372
0.0143111
-0.000168719
0.0135719
-0.000109199
0.0123616
-6.36705e-05
0.0107073
-3.27767e-05
0.0086761
-1.41583e-05
0.00636397
-4.22624e-06
0.00387543
-4.81409e-07
0.0013027
0.00149088
0.0101749
0.0014324
0.0103925
0.00150242
0.0106853
0.00172212
0.0110632
0.00211778
0.0115347
0.00270202
0.0121168
0.00346158
0.0128377
0.00436103
0.0137593
0.00523088
0.0149153
0.00570378
0.0162167
0.00562664
0.0173739
0.00490932
0.0171552
0.003251
0.0138965
0.00123547
0.00847847
0.000103067
0.00393938
4.16752e-05
6.23402e-05
-0.000958503
0.00094727
4.57889e-05
9.17503e-06
-0.000234082
0.000355086
-1.48897e-06
-0.000149357
-9.70419e-07
-0.00025466
1.86483e-05
1.31238e-05
-0.00011004
0.000120749
2.83673e-06
-8.89806e-05
7.66108e-06
-6.558e-05
1.70053e-05
8.69702e-05
8.67234e-05
0.000304438
1.78882e-06
0.000504935
-2.78667e-06
0.000503804
-1.38598e-06
0.00159639
-1.83535e-06
-3.03666e-06
-2.26207e-05
0.0052384
-5.11687e-05
0.00157572
-2.33932e-06
-4.13483e-06
0.000502748
-9.61482e-07
0.000500726
-5.95191e-07
0.000298078
-2.06055e-06
-0.000360849
0.0079473
-0.000481551
0.0103726
-0.000456586
0.0122633
-0.00040955
0.0135907
-0.000354616
0.0143675
-0.00029225
0.0146179
-0.000225547
0.0143679
-0.00016425
0.0136269
-0.000109155
0.012407
-6.64129e-05
0.010741
-3.55833e-05
0.00869752
-1.59035e-05
0.00637565
-5.32533e-06
0.00388027
-9.31138e-07
0.00130363
0.00133252
0.0101734
0.00122168
0.0103857
0.00122183
0.0106731
0.00136101
0.0110464
0.00166929
0.0115117
0.00216078
0.012076
0.00282221
0.0127562
0.00360804
0.0135906
0.00438875
0.0146014
0.00489392
0.0157251
0.00497299
0.0168703
0.00467247
0.0176107
0.00379225
0.0166139
0.00223999
0.0128919
0.000726885
0.00785465
2.97076e-05
0.00385895
2.38163e-05
2.69079e-05
-0.000938355
0.0009452
3.48304e-05
7.12545e-05
-0.000362517
0.00038474
1.78512e-05
5.71454e-06
-7.48181e-08
1.81891e-06
-2.96964e-05
2.82074e-05
-0.000130125
-5.83445e-07
-3.06669e-05
3.74723e-06
-2.46664e-05
2.75031e-05
-1.70053e-05
8.85122e-05
0.000296249
-9.58232e-07
0.000295149
-2.85721e-07
0.000499596
-7.05756e-07
0.000497795
-1.23596e-06
0.0015598
-2.01919e-06
-4.68273e-06
-6.48437e-05
0.00508185
-0.000139451
0.00152082
-3.66111e-06
-8.53447e-06
0.000496712
-1.25602e-06
0.000493628
-1.05046e-06
0.000294375
-1.87055e-07
0.000293847
-6.75581e-08
8.64516e-05
-0.000446997
0.00791275
-0.000406219
0.0103223
-0.000371944
0.0122257
-0.000345855
0.013582
-0.000311284
0.0143865
-0.000267255
0.0146596
-0.000216147
0.0144198
-0.000162534
0.0136803
-0.00011303
0.0124537
-7.06271e-05
0.010776
-3.87125e-05
0.00872033
-1.75825e-05
0.00638791
-6.22533e-06
0.00388557
-9.0186e-07
0.00130453
0.00117887
0.0101691
0.00101725
0.0103778
0.000948522
0.010659
0.00100721
0.0110269
0.00122783
0.0114878
0.00163014
0.0120424
0.00220751
0.0126907
0.00290655
0.0134577
0.00362194
0.0143575
0.00414911
0.0153462
0.00433586
0.0163623
0.0042258
0.017317
0.00380072
0.0176022
0.00286843
0.0159855
0.00153758
0.0120812
0.000431997
0.00745236
-5.31487e-05
0.00379152
7.01026e-05
5.04712e-05
-0.000954557
0.000965656
1.27175e-05
1.75503e-05
-0.000409064
0.000433485
1.0192e-06
9.38956e-06
2.5812e-05
2.11184e-05
-3.5666e-05
5.35172e-05
-2.99515e-05
2.81326e-05
-3.12503e-05
8.54934e-05
8.52077e-05
0.000293306
-1.64992e-07
0.000292267
-1.96064e-07
0.00049265
-1.04105e-06
0.000489646
-1.67893e-06
0.00147982
-6.80934e-06
-1.70287e-05
-0.000202185
0.0050393
-0.000202265
0.00140385
-2.03802e-05
-4.31067e-05
0.000487845
-1.86065e-06
0.000481795
-2.48411e-06
0.000291247
-2.36562e-07
0.000290444
-2.47227e-07
8.50206e-05
8.49531e-05
-0.000324242
0.00783077
-0.0002924
0.0102427
-0.000293683
0.0121735
-0.000291792
0.0135625
-0.000279467
0.0143987
-0.00025245
0.0146959
-0.000213572
0.0144708
-0.000166964
0.0137342
-0.000117342
0.0125004
-7.39503e-05
0.0108113
-3.99047e-05
0.00874266
-1.83148e-05
0.0064
-6.4199e-06
0.00389109
-1.27253e-06
0.00130581
0.00102804
0.0101653
0.000821098
0.0103653
0.000686809
0.0106395
0.000660893
0.0110053
0.00079101
0.0114637
0.0011072
0.0120108
0.00160785
0.012642
0.0022408
0.0133564
0.00291145
0.0141681
0.00345283
0.0150537
0.00372788
0.0159542
0.00373617
0.0168519
0.00353389
0.0175838
0.00304349
0.0174272
0.00215243
0.0153706
0.00105641
0.0114568
0.000237551
0.00716166
-8.2668e-05
0.00375547
4.67691e-05
7.1956e-05
-0.000973604
0.000979483
6.42223e-05
4.25233e-05
-0.000449291
0.000462228
7.45239e-07
-9.64221e-07
1.86183e-06
-1.17999e-07
-8.84889e-05
8.96849e-05
-1.76927e-07
-8.09209e-05
1.82154e-06
6.61647e-05
1.31644e-05
6.36212e-06
8.47881e-05
8.4592e-05
0.000289586
-1.82702e-07
0.000288221
-3.14289e-07
0.000478399
-3.41381e-06
0.000467891
-6.52011e-06
0.00135706
-5.79603e-05
-9.74254e-05
-0.00013399
0.00490346
-5.44095e-05
0.00131565
-8.73711e-05
-7.34892e-05
0.000457808
-1.02978e-05
0.000434395
-1.96932e-05
0.000286687
-3.26365e-07
0.000284606
-4.03816e-07
8.43555e-05
8.41083e-05
-0.000175055
0.00771343
-0.00020499
0.010154
-0.000234573
0.0121163
-0.000255399
0.0135384
-0.000260874
0.0144072
-0.000249412
0.0147317
-0.000217816
0.0145217
-0.000172294
0.0137892
-0.0001216
0.012548
-7.65796e-05
0.0108479
-4.24701e-05
0.00876681
-1.97658e-05
0.00641334
-7.02928e-06
0.00389684
-1.05794e-06
0.00130687
0.000882272
0.0101581
0.00063712
0.0103493
0.000436855
0.0106152
0.000325412
0.010975
0.000359512
0.0114368
0.000585118
0.0119858
0.00101306
0.0126056
0.00159479
0.013288
0.00223549
0.0140324
0.00279292
0.0148281
0.00314227
0.0156394
0.00325173
0.0164386
0.0031709
0.0172149
0.00291717
0.0177102
0.00241484
0.0171648
0.00161078
0.0148163
0.00072404
0.0109703
0.000125277
0.00695371
-7.51427e-05
0.00378108
1.52034e-05
3.43241e-05
-0.000987561
0.000999735
3.4595e-05
6.38782e-05
-0.000484666
0.000499774
2.64999e-05
2.26148e-05
5.97707e-06
1.41075e-05
-9.0411e-05
9.14233e-05
-2.67169e-07
-9.10606e-05
-3.14669e-07
9.09413e-05
6.05398e-07
-2.37384e-07
-2.13481e-05
2.11711e-05
-1.95265e-05
1.31644e-05
8.39256e-05
8.36113e-05
0.000281738
-5.45629e-07
0.000276244
-1.02544e-06
0.000412938
-3.65038e-05
0.000378656
-6.3143e-05
0.00124657
-4.519e-05
-1.97156e-05
-3.22717e-05
0.00476913
-8.44751e-06
0.00120638
-1.10123e-05
-3.21476e-06
0.000356484
-6.51986e-05
0.000333504
-5.05093e-05
0.000267787
-1.84099e-06
0.000252083
-3.9898e-06
8.32849e-05
8.28811e-05
-0.000101193
0.00760963
-0.000152462
0.0100719
-0.000197371
0.0120583
-0.000235189
0.0135127
-0.000255596
0.0144133
-0.00025306
0.014767
-0.000225756
0.0145752
-0.00017855
0.0138461
-0.000126568
0.012598
-7.83004e-05
0.0108838
-4.3148e-05
0.00879019
-1.95765e-05
0.00642589
-6.70295e-06
0.00390249
-1.15293e-06
0.00130802
0.000742501
0.0101484
0.000467371
0.0103278
0.000205042
0.0105811
3.34508e-06
0.0109373
-6.70269e-05
0.0114015
6.19136e-05
0.01196
0.000416346
0.0125825
0.00095522
0.0132451
0.00158276
0.0139408
0.00216259
0.0146627
0.00257283
0.0153975
0.00277311
0.016118
0.00278571
0.0168238
0.0026601
0.0174719
0.00239099
0.017734
0.00190905
0.0168665
0.0012072
0.0143331
0.000501141
0.0105945
5.94392e-05
0.00681913
-0.000100112
8.63048e-05
0.00379489
-0.00100531
0.000955285
6.52243e-05
2.87534e-05
-0.000518985
0.000539929
3.84396e-06
9.80709e-06
2.86026e-05
1.60642e-05
-0.000111983
0.000120145
1.83374e-05
-0.000103844
1.44755e-05
9.52423e-05
2.15808e-06
5.50605e-06
-2.12245e-05
2.09573e-05
-2.15391e-05
2.17765e-05
8.23355e-05
8.131e-05
0.000225886
-1.0306e-05
0.000185303
-2.25602e-05
0.000309019
-2.07049e-05
0.000296265
-6.96196e-06
0.00117814
-3.35772e-06
-6.70226e-07
-1.22935e-05
0.00468411
-3.88771e-06
0.00117047
-9.6628e-07
1.87974e-07
0.000287661
-2.4078e-06
0.000285142
-6.96625e-07
0.000162717
-4.26131e-05
0.000112208
7.9469e-05
7.54792e-05
-6.85979e-05
0.00752577
-0.000122487
0.00999705
-0.000178791
0.0120019
-0.000229483
0.0134866
-0.000264208
0.0144245
-0.00026761
0.0148088
-0.000237466
0.0146341
-0.00018517
0.0139047
-0.000128243
0.012648
-7.86531e-05
0.0109193
-4.19163e-05
0.00881253
-1.93368e-05
0.00643852
-6.36781e-06
0.0039077
-1.04087e-06
0.00130906
0.000610005
0.0101357
0.000315939
0.0102998
-3.8759e-06
0.0105367
-0.00029986
0.0108843
-0.00048449
0.0113548
-0.000468246
0.0119317
-0.000193375
0.0125697
0.000308677
0.0132291
0.000938003
0.0138899
0.00154869
0.0145547
0.00201811
0.0152174
0.00229947
0.0158711
0.00239918
0.0165045
0.00235982
0.0171241
0.00221475
0.0176482
0.00195373
0.0176893
0.00150943
0.0165643
0.000909474
0.0139248
0.000348579
0.0103053
3.45704e-06
0.00671556
-0.000635859
0.00161046
4.7957e-05
1.90258e-05
-0.00012259
0.000125572
0.0037919
-0.00056114
-9.49451e-06
6.25558e-06
1.28613e-06
-0.000144
0.000146142
1.70221e-06
-0.000138302
4.10943e-06
0.000131229
1.75191e-05
8.99079e-06
-4.30969e-05
5.11498e-05
1.02844e-05
-2.86214e-05
2.31153e-05
6.51733e-05
4.26131e-05
9.15031e-05
8.45411e-05
0.000282183
-3.9847e-07
0.000281749
-2.35501e-07
0.00115966
-1.10048e-06
-3.7931e-07
-8.14044e-06
0.00462743
-3.77276e-06
0.00115654
-6.35731e-07
-1.31226e-07
0.000280928
-1.46037e-07
0.000280988
1.28028e-07
8.21333e-05
8.14367e-05
-5.33776e-05
0.00745666
-0.000107989
0.00992624
-0.000174547
0.011947
-0.000240657
0.0134631
-0.000282496
0.0144394
-0.000283519
0.0148549
-0.000245895
0.0146948
-0.000186843
0.0139633
-0.000126276
0.0126956
-7.66158e-05
0.010954
-4.14031e-05
0.0088346
-1.87082e-05
0.00645086
-6.20729e-06
0.00391287
-9.04303e-07
0.00130996
0.000486147
0.0101201
0.000187085
0.0102645
-0.000182439
0.0104784
-0.000574603
0.0108115
-0.000889198
0.011289
-0.00100569
0.0118922
-0.00082265
0.012561
-0.000357783
0.0132362
0.000289884
0.0138772
0.000944413
0.0144942
0.0014735
0.0150993
0.00182903
0.0156879
0.00200936
0.0162609
0.00204889
0.0168154
0.00198229
0.0173566
0.0018405
0.0177614
0.00159571
0.017603
0.00119681
0.0162769
0.000691146
0.0135822
0.000235071
0.0100737
-3.65301e-05
0.0066295
0.00164418
3.36039e-05
5.82493e-05
-0.000236403
0.000265802
1.35726e-05
4.98592e-06
-0.000219428
1.70059e-06
3.49701e-07
-0.000110178
8.1168e-05
0.00382091
-0.000138133
-2.56379e-07
-3.00186e-07
-9.02328e-05
0.000147828
4.56947e-06
1.09806e-05
-7.38056e-05
7.53939e-05
1.13861e-07
-7.03586e-05
6.62324e-07
6.33368e-05
5.33205e-06
1.96895e-06
1.02844e-05
8.10383e-05
8.08028e-05
0.000279937
-4.9275e-08
0.000279739
-1.81618e-07
0.00114967
-8.22091e-07
-4.53224e-07
-5.93872e-06
0.00458381
-3.82246e-06
0.0011468