/*--------------------------------*- C++ -*----------------------------------*\
| =========                 |                                                 |
| \\      /  F ield         | OpenFOAM: The Open Source CFD Toolbox           |
|  \\    /   O peration     | Version:  v1912                                 |
|   \\  /    A nd           | Website:  www.openfoam.com                      |
|    \\/     M anipulation  |                                                 |
\*---------------------------------------------------------------------------*/
FoamFile
{
    version     2.0;
    format      ascii;
    class       volVectorField;
    location    "260";
    object      U;
}
// * * * * * * * * * * * * * * * * * * * * * * * * * * * * * * * * * * * * * //

dimensions      [0 1 -1 0 0 0 0];


internalField   nonuniform List<vector> 
3673
(
(0.648233 -0.0255869 -1.63065e-21)
(0.974708 -0.0153067 -5.24527e-20)
(0.298331 -0.0525417 -3.75533e-24)
(1.01655 -0.010423 2.44643e-20)
(0.766059 -0.0575097 -2.29618e-24)
(0.175463 -0.0543461 1.95557e-20)
(1.00676 -0.0138765 -1.91001e-37)
(0.961626 -0.0540862 1.53073e-24)
(0.569001 -0.0966741 -1.78851e-20)
(0.12477 -0.0462387 2.40901e-20)
(0.999514 -0.0164631 -2.6357e-41)
(1.00909 -0.0522763 0)
(0.844014 -0.103952 -2.35501e-20)
(0.436479 -0.110559 -2.38291e-20)
(0.108289 -0.0400311 2.81663e-20)
(0.997597 -0.0170464 -4.0764e-24)
(1.00894 -0.0520814 -6.97496e-24)
(0.969528 -0.100602 4.7887e-20)
(0.720662 -0.138324 2.51157e-20)
(0.365323 -0.110971 0)
(0.104978 -0.0374924 -3.09816e-20)
(0.997516 -0.016669 -3.74233e-51)
(1.00224 -0.0521774 1.79662e-20)
(1.00433 -0.0967513 -2.57053e-20)
(0.898806 -0.144935 -2.20681e-20)
(0.626317 -0.156654 2.81264e-20)
(0.333068 -0.10937 3.36915e-20)
(0.105685 -0.0368273 0)
(0.997715 -0.0158195 0)
(0.998125 -0.0515387 1.78415e-21)
(1.00472 -0.0941868 0)
(0.976673 -0.143543 6.9992e-24)
(0.825041 -0.178023 3.77996e-21)
(0.567559 -0.165743 0)
(0.320521 -0.108597 0)
(0.107758 -0.0368938 0)
(0.997868 -0.0146354 2.2777e-20)
(0.99612 -0.049812 -2.00426e-20)
(0.998338 -0.0919357 0)
(0.997054 -0.140338 1.73238e-20)
(0.936468 -0.18474 -2.60104e-20)
(0.766598 -0.200393 0)
(0.535851 -0.170215 -7.3419e-24)
(0.317268 -0.108531 0)
(0.109963 -0.0371609 0)
(0.99798 -0.0131434 -2.28981e-20)
(0.994831 -0.0470372 0)
(0.992921 -0.0890646 2.02176e-23)
(0.995417 -0.137073 -1.73669e-20)
(0.980814 -0.184936 0)
(0.89735 -0.217377 1.34442e-23)
(0.727634 -0.214392 6.68981e-24)
(0.520852 -0.172193 -3.07716e-20)
(0.317912 -0.108624 3.39023e-20)
(0.111641 -0.0374042 -6.80697e-24)
(0.99809 -0.0113277 0)
(0.993605 -0.0432582 0)
(0.988727 -0.085103 -2.25294e-23)
(0.988717 -0.133624 -4.13606e-23)
(0.989895 -0.183152 -3.59544e-23)
(0.962297 -0.223969 0)
(0.86701 -0.240886 -1.40794e-23)
(0.704728 -0.222055 2.7125e-20)
(0.514881 -0.172655 5.44253e-22)
(0.319575 -0.108612 -3.212e-20)
(0.112649 -0.0375501 1.32107e-23)
(0.998221 -0.00917405 -2.52843e-23)
(0.992293 -0.0384352 0)
(0.984817 -0.079757 0)
(0.981681 -0.129393 2.34618e-23)
(0.98562 -0.180958 2.12169e-23)
(0.984458 -0.226175 1.81638e-23)
(0.946997 -0.254822 0)
(0.846892 -0.255697 0)
(0.692453 -0.225206 7.94672e-22)
(0.512984 -0.172262 -4.10993e-22)
(0.320965 -0.108444 0)
(0.113063 -0.0375736 -6.40324e-24)
(0.998385 -0.00669047 0)
(0.990931 -0.0325033 -2.78522e-20)
(0.980669 -0.072745 0)
(0.974442 -0.123743 0)
(0.977366 -0.17833 0)
(0.985942 -0.227287 -2.20902e-20)
(0.981995 -0.262358 0)
(0.937096 -0.276061 1.28358e-23)
(0.834732 -0.263279 1.11911e-21)
(0.686103 -0.22569 2.44875e-20)
(0.512504 -0.171475 -2.59547e-20)
(0.321653 -0.108084 0)
(0.112953 -0.0374729 0)
(0.998588 -0.00391704 2.75762e-20)
(0.989617 -0.0254319 2.7931e-20)
(0.976201 -0.0637816 1.98091e-24)
(0.966372 -0.116037 0)
(0.967278 -0.174631 2.91043e-20)
(0.979106 -0.228366 2.23526e-20)
(0.991596 -0.268007 3.9383e-23)
(0.983459 -0.288606 -1.35852e-23)
(0.931509 -0.288146 -3.70209e-20)
(0.827422 -0.266113 0)
(0.682677 -0.224921 4.61366e-20)
(0.51221 -0.170451 0)
(0.321512 -0.107517 0)
(0.112424 -0.03727 1.00509e-23)
(0.998837 -0.000934148 -5.54642e-20)
(0.988489 -0.0172737 -2.84438e-23)
(0.971588 -0.0526238 3.14422e-20)
(0.957164 -0.1056 3.2999e-20)
(0.955025 -0.168986 -2.94394e-20)
(0.968105 -0.229262 0)
(0.989339 -0.274095 0)
(1.00239 -0.298366 1.71019e-20)
(0.987036 -0.304201 1.23666e-20)
(0.928092 -0.293786 1.13811e-20)
(0.822847 -0.266471 -2.11747e-20)
(0.680561 -0.223556 5.02169e-24)
(0.511533 -0.169232 -2.22592e-20)
(0.320568 -0.10677 -2.37822e-20)
(0.111571 -0.0369894 -8.84334e-25)
(0.999134 0.00213563 2.79079e-20)
(0.98772 -0.00820382 2.99739e-20)
(0.967194 -0.0391388 -3.13393e-20)
(0.94694 -0.091722 -6.83632e-20)
(0.93998 -0.16031 -6.68684e-23)
(0.953082 -0.229262 5.82476e-23)
(0.980992 -0.281444 0)
(1.00761 -0.308619 -1.67823e-20)
(1.01481 -0.316294 1.36562e-20)
(0.990194 -0.312065 -1.09249e-20)
(0.925757 -0.295888 0)
(0.819869 -0.265563 -1.98125e-20)
(0.678838 -0.221855 1.96142e-20)
(0.510199 -0.167869 2.01693e-20)
(0.318933 -0.105902 1.00996e-23)
(0.110507 -0.0366525 -9.29082e-24)
(0.999472 0.00513279 5.48334e-23)
(0.987498 0.00144982 -2.98146e-20)
(0.963553 -0.023407 1.34436e-22)
(0.936237 -0.0737185 -2.06519e-21)
(0.921845 -0.147245 0)
(0.93291 -0.227262 -3.86775e-20)
(0.96736 -0.290189 -5.71749e-23)
(1.00621 -0.321104 3.31198e-23)
(1.02804 -0.327967 -1.34154e-20)
(1.02473 -0.325301 0)
(0.992385 -0.315711 0)
(0.924253 -0.296047 9.15119e-21)
(0.817666 -0.263942 -1.81907e-20)
(0.676942 -0.219997 1.31267e-23)
(0.50818 -0.166441 0)
(0.316765 -0.104942 -1.01301e-23)
(0.109296 -0.0362766 0)
(0.999838 0.00787797 0)
(0.987978 0.0112031 -5.68876e-23)
(0.961343 -0.00584441 -3.30817e-20)
(0.926093 -0.0510834 7.53696e-20)
(0.900826 -0.12805 -9.29802e-24)
(0.906239 -0.221666 3.96125e-20)
(0.947015 -0.30023 0)
(1.00031 -0.336902 0)
(1.03483 -0.341198 -3.22016e-23)
(1.04394 -0.336953 0)
(1.03176 -0.329748 -9.17059e-24)
(0.994215 -0.316959 8.95067e-21)
(0.923212 -0.295038 1.69906e-20)
(0.815625 -0.261993 8.48494e-24)
(0.674643 -0.218117 -8.50289e-24)
(0.505551 -0.164972 0)
(0.314199 -0.10392 -8.45102e-24)
(0.107989 -0.035875 -1.54403e-20)
(1.00021 0.0101988 0)
(0.989226 0.0204548 -1.18083e-22)
(0.961254 0.0126963 3.29276e-20)
(0.918172 -0.0238186 -7.63283e-20)
(0.87786 -0.100532 -4.70461e-20)
(0.87183 -0.21006 1.85872e-22)
(0.917478 -0.311405 0)
(0.989556 -0.357106 -2.38207e-20)
(1.03865 -0.357026 2.54739e-23)
(1.05618 -0.349006 0)
(1.05497 -0.341283 0)
(1.03731 -0.331605 9.06161e-25)
(0.995798 -0.31668 8.36922e-24)
(0.922188 -0.293431 -7.79668e-21)
(0.813429 -0.259969 -7.13794e-24)
(0.671889 -0.216266 0)
(0.502414 -0.163482 -7.30046e-24)
(0.311355 -0.10286 1.63364e-20)
(0.106639 -0.0354586 6.49749e-24)
(1.00055 0.0119597 2.46108e-20)
(0.991177 0.0285688 -2.73982e-20)
(0.963775 0.0309646 1.18728e-22)
(0.914632 0.00710357 7.56134e-20)
(0.855348 -0.0625427 4.55972e-20)
(0.829017 -0.188015 0)
(0.874996 -0.323598 0)
(0.972335 -0.383088 2.32059e-20)
(1.04031 -0.375898 2.50863e-23)
(1.06532 -0.362274 -4.68701e-24)
(1.07016 -0.352228 0)
(1.06354 -0.343023 0)
(1.04188 -0.331736 7.74741e-25)
(0.996903 -0.315571 1.6194e-23)
(0.920966 -0.291616 0)
(0.810967 -0.257983 1.40099e-20)
(0.668707 -0.214461 -6.51766e-24)
(0.498895 -0.161985 1.39851e-23)
(0.308328 -0.101773 -7.05622e-24)
(0.105261 -0.0350345 -1.2484e-23)
(1.00083 0.0130879 -4.81701e-20)
(0.993633 0.034994 1.29847e-21)
(0.968947 0.0474918 2.92489e-20)
(0.917262 0.0394404 -3.70066e-20)
(0.83868 -0.013942 -8.29845e-22)
(0.779065 -0.146602 -6.52989e-20)
(0.812066 -0.334841 5.22133e-20)
(0.943738 -0.415886 -7.81646e-23)
(1.03767 -0.396897 -4.78835e-23)
(1.07127 -0.376214 -1.05886e-20)
(1.0808 -0.36303 -2.02701e-23)
(1.08051 -0.352944 0)
(1.07042 -0.342961 -7.68731e-21)
(1.04537 -0.330906 7.18728e-21)
(0.997488 -0.314113 -6.93083e-24)
(0.919482 -0.289773 -1.30313e-20)
(0.808193 -0.256068 5.9721e-24)
(0.665146 -0.212698 6.52224e-24)
(0.49508 -0.160483 -6.68431e-24)
(0.305178 -0.100678 7.0792e-24)
(0.10388 -0.0346093 -1.18571e-20)
(1.00104 0.013582 2.357e-20)
(0.9963 0.0393795 2.61274e-20)
(0.976255 0.0608965 -2.90694e-20)
(0.926766 0.0699003 1.26188e-22)
(0.835793 0.0415711 4.49663e-20)
(0.729983 -0.0751788 6.6706e-20)
(0.712751 -0.329498 -5.45799e-20)
(0.885879 -0.44994 -3.15537e-20)
(1.01816 -0.414617 7.76969e-23)
(1.06664 -0.386656 1.05445e-20)
(1.08443 -0.371801 -1.96793e-23)
(1.09073 -0.361223 0)
(1.08824 -0.351812 7.5442e-21)
(1.07556 -0.341887 6.57505e-25)
(1.04789 -0.329634 6.48313e-21)
(0.997598 -0.312537 0)
(0.917688 -0.287976 0)
(0.805101 -0.254231 1.17045e-20)
(0.661257 -0.210971 0)
(0.491051 -0.158989 0)
(0.301972 -0.0995874 1.24379e-20)
(0.102512 -0.0341868 5.47596e-24)
(1.00117 0.013504 0)
(0.998871 0.0416462 -2.30742e-20)
(0.98469 0.0702146 -4.99091e-23)
(0.942444 0.0950298 -2.9772e-20)
(0.849683 0.0972825 -8.3374e-20)
(0.701314 0.0246902 -6.26561e-20)
(0.560835 -0.265752 -4.20002e-20)
(0.751366 -0.454421 3.83284e-20)
(0.93947 -0.406564 0)
(1.02377 -0.381052 3.44899e-23)
(1.06678 -0.370964 8.65668e-21)
(1.08862 -0.364483 0)
(1.09637 -0.357477 7.18631e-21)
(1.09326 -0.349624 -6.27557e-24)
(1.07917 -0.340304 -6.33411e-21)
(1.04959 -0.328163 0)
(0.997246 -0.310957 5.65676e-21)
(0.915573 -0.286249 -5.41843e-21)
(0.801708 -0.252459 5.4542e-24)
(0.657114 -0.20928 -1.07137e-20)
(0.486888 -0.157508 -5.08642e-24)
(0.298742 -0.0985071 -5.24428e-25)
(0.101178 -0.0337738 -4.56657e-24)
(1.00123 0.0129526 0)
(1.00111 0.0419642 2.32774e-20)
(0.993076 0.0751419 -9.28114e-23)
(0.961935 0.112213 2.91408e-20)
(0.88017 0.144932 7.15916e-20)
(0.708513 0.132148 5.73953e-20)
(0.530627 -0.0885905 3.70805e-20)
(0.497409 -0.00461311 9.35138e-22)
(0.538072 -0.465523 0)
(0.355796 -0.20828 7.39402e-20)
(0.38378 -0.383394 -3.67379e-22)
(0.808357 -0.385074 0)
(0.503486 -0.312402 -1.23974e-20)
(0.636372 -0.294923 0)
(0.876089 -0.328333 0)
(0.736114 -0.289463 0)
(0.990054 -0.342985 -9.108e-21)
(1.05432 -0.353062 7.67922e-21)
(1.08617 -0.355333 -7.19692e-21)
(1.09785 -0.352653 3.04286e-24)
(1.09597 -0.346835 6.04275e-21)
(1.08151 -0.338439 1.66485e-23)
(1.05056 -0.326634 -5.44578e-21)
(0.996448 -0.309406 -5.17862e-21)
(0.913145 -0.284582 -4.98637e-21)
(0.798043 -0.250739 9.67221e-21)
(0.652774 -0.20762 0)
(0.482645 -0.156052 4.47009e-25)
(0.295538 -0.0974478 -5.40409e-24)
(0.0998754 -0.0333708 -9.12049e-21)
(1.00123 0.0120377 -3.81425e-23)
(1.00289 0.0406568 0)
(1.00052 0.0760369 0)
(0.981906 0.120747 -1.97526e-22)
(0.920662 0.176792 -3.27263e-20)
(0.761606 0.22794 -3.98755e-22)
(0.490105 0.101697 0)
(0.515261 0.201432 -2.45591e-20)
(0.278824 -0.0778151 -3.72299e-20)
(0.288798 -0.321385 3.21591e-22)
(0.202061 -0.253486 -1.1522e-20)
(0.197908 -0.235976 8.65277e-21)
(0.168506 -0.155106 4.12959e-21)
(0.301833 -0.250528 -1.99864e-22)
(0.459866 -0.215208 3.64863e-23)
(0.256703 -0.107206 0)
(0.165359 -0.114255 -5.68635e-22)
(0.50863 -0.188004 -6.23968e-22)
(0.359498 -0.146153 -1.00948e-21)
(0.654323 -0.232686 0)
(0.791904 -0.261988 0)
(0.587475 -0.193929 -1.24022e-23)
(0.948208 -0.30975 -8.23508e-21)
(1.03464 -0.335198 0)
(1.07821 -0.345535 0)
(1.09604 -0.347181 -1.53225e-22)
(1.09679 -0.343663 0)
(1.08272 -0.336472 -1.07404e-23)
(1.05084 -0.325086 -1.01613e-23)
(0.995218 -0.307874 9.45617e-21)
(0.910402 -0.282959 4.55619e-21)
(0.794143 -0.249065 0)
(0.648298 -0.206 0)
(0.478371 -0.154621 4.65918e-24)
(0.292373 -0.0964151 9.48842e-21)
(0.0986171 -0.0329798 8.37195e-21)
(1.00118 0.0108603 -3.60216e-23)
(1.00422 0.0380924 3.85467e-23)
(1.00656 0.0736778 0)
(0.999484 0.121671 0)
(0.961465 0.190443 1.88856e-22)
(0.849043 0.285995 7.06997e-22)
(0.558505 0.296284 2.34504e-20)
(0.62212 0.371169 -7.28679e-23)
(0.237071 0.0622614 0)
(0.344742 0.254722 8.26292e-23)
(0.318239 0.186708 0)
(0.0648959 -0.0949444 6.70824e-22)
(0.106957 -0.16709 7.84274e-21)
(0.116214 -0.157832 -3.80254e-21)
(0.0777566 -0.0979975 0)
(0.148013 -0.0587722 8.11566e-22)
(0.0848982 -0.0374931 -2.54117e-21)
(0.243917 -0.0761232 6.69974e-22)
(0.421033 -0.13098 0)
(0.288257 -0.099372 9.51502e-22)
(0.540722 -0.166676 3.25968e-21)
(0.725635 -0.21955 -1.9265e-21)
(0.506725 -0.149035 0)
(0.367256 -0.108487 -1.10111e-23)
(0.906312 -0.283472 7.18186e-21)
(1.01061 -0.318641 -1.19644e-23)
(1.06657 -0.33552 -5.92836e-21)
(1.09172 -0.34132 4.65706e-24)
(1.096 -0.340394 0)
(1.08294 -0.334442 9.02248e-24)
(1.05049 -0.323496 -4.55588e-21)
(0.99356 -0.306351 -4.31804e-21)
(0.907363 -0.281375 4.16505e-21)
(0.790056 -0.247437 3.80114e-24)
(0.643726 -0.204412 8.19116e-21)
(0.474104 -0.153228 0)
(0.289272 -0.0954112 -8.68363e-21)
(0.0974034 -0.0326023 -3.52296e-24)
(1.00111 0.00950405 0)
(1.00515 0.0346162 -1.8131e-20)
(1.01113 0.0689364 0)
(1.01328 0.116841 -1.83926e-20)
(0.997482 0.188693 -1.89859e-20)
(0.938364 0.303418 2.09338e-20)
(0.699336 0.43242 0)
(0.783192 0.460866 -7.16522e-22)
(0.318408 0.352755 2.21675e-20)
(0.424984 0.46577 -2.01825e-20)
(0.0418651 -0.0448135 0)
(0.0312574 0.00966985 0)
(0.171063 0.154368 -1.16987e-20)
(0.193259 0.240129 1.14975e-20)
(0.0391612 -0.078425 -1.46462e-20)
(0.105133 -0.0314116 5.34986e-22)
(0.214781 -0.0603015 1.37557e-23)
(0.081619 -0.0223451 -4.00906e-23)
(0.199523 -0.0544765 8.8348e-22)
(0.332317 -0.0929657 -3.70291e-21)
(0.480416 -0.135926 -3.36467e-21)
(0.675155 -0.194997 -7.96307e-21)
(0.460859 -0.12726 2.03094e-22)
(0.307759 -0.0843509 0)
(0.175139 -0.0472675 7.33433e-24)
(0.184989 -0.0498317 -1.46291e-23)
(0.866216 -0.262634 -6.72699e-21)
(0.984678 -0.30338 1.28195e-23)
(1.05254 -0.325528 -1.01552e-23)
(1.08547 -0.335593 -7.9906e-25)
(1.09394 -0.337078 8.80615e-24)
(1.0823 -0.332314 -1.72594e-23)
(1.04953 -0.321863 4.13902e-21)
(0.991492 -0.304837 -3.94765e-21)
(0.904066 -0.279826 7.44147e-24)
(0.785812 -0.245847 -1.48557e-20)
(0.639102 -0.202867 7.49598e-21)
(0.469874 -0.151871 0)
(0.286245 -0.0944407 -3.78643e-24)
(0.0962417 -0.032239 3.54188e-24)
(1.00102 0.00803473 0)
(1.00576 0.0305177 1.09564e-21)
(1.01438 0.0625625 0)
(1.02333 0.108162 1.86577e-20)
(1.02496 0.177019 3.50653e-20)
(1.00723 0.290785 -4.81005e-21)
(0.899307 0.546086 -5.34543e-21)
(0.561145 0.556164 0)
(0.694391 0.610693 1.01493e-20)
(0.064562 0.193098 2.66976e-21)
(0.100719 0.250528 0)
(0.207906 0.35018 -1.25225e-21)
(0.149618 0.303475 -8.83844e-22)
(0.0310286 0.0708367 -3.71703e-22)
(0.0413714 0.131766 0)
(0.069657 -0.0176494 0)
(0.0645902 -0.0161842 -5.68625e-22)
(0.16502 -0.0433125 1.00044e-21)
(0.158953 -0.0415975 -7.60926e-24)
(0.290608 -0.077026 3.79131e-21)
(0.443291 -0.1209 -3.30887e-24)
(0.633752 -0.178873 5.61947e-21)
(0.429164 -0.115869 -3.25911e-21)
(0.277999 -0.0729309 2.28133e-21)
(0.147413 -0.0383781 0)
(0.15207 -0.0395288 -9.71509e-22)
(0.056648 -0.0142455 -2.75884e-25)
(0.0601225 -0.0149785 2.75161e-25)
(0.828258 -0.245131 6.26697e-21)
(0.958047 -0.289037 -7.031e-25)
(1.03711 -0.316463 -8.73326e-24)
(1.07805 -0.330039 -4.61505e-21)
(1.09088 -0.333665 -1.6886e-23)
(1.08085 -0.3301 -4.0432e-21)
(1.048 -0.320198 3.88286e-24)
(0.98905 -0.303331 3.69085e-24)
(0.900536 -0.278308 1.03916e-20)
(0.781449 -0.244298 1.16142e-22)
(0.634458 -0.201362 2.94343e-25)
(0.465699 -0.150555 3.2682e-24)
(0.283311 -0.0935031 3.25265e-25)
(0.0951284 -0.0318897 0)
(1.00093 0.00650159 0)
(1.00613 0.0260245 2.56761e-20)
(1.01653 0.0551297 0)
(1.03027 0.0971736 0)
(1.04362 0.160267 -2.47265e-21)
(1.05286 0.261148 -1.54075e-20)
(1.05155 0.493868 6.97982e-21)
(0.77055 0.693869 -1.58144e-22)
(0.963752 0.746882 2.79342e-21)
(0.279001 0.473643 -3.59771e-21)
(0.434989 0.585625 7.30162e-21)
(0.657466 0.685038 0)
(0.551562 0.635743 -2.89101e-21)
(0.0533035 -0.013237 0)
(0.0513103 -0.0127676 5.90943e-25)
(0.142437 -0.0363398 -2.33574e-23)
(0.139652 -0.0355449 -1.00993e-21)
(0.267931 -0.0694512 -7.53977e-22)
(0.415073 -0.111712 4.96291e-23)
(0.595981 -0.165711 -6.9768e-21)
(0.402584 -0.107543 0)
(0.259306 -0.0671174 2.94582e-21)
(0.133968 -0.0339962 1.02198e-21)
(0.136229 -0.0346033 3.97986e-24)
(0.0474674 -0.0118531 2.43215e-24)
(0.049176 -0.0122065 6.19243e-22)
(0.791212 -0.228813 -1.21184e-23)
(0.931912 -0.277091 -1.9833e-23)
(1.02165 -0.308185 4.77238e-21)
(1.06993 -0.324577 0)
(1.08693 -0.330198 8.08217e-24)
(1.07865 -0.327831 3.46452e-24)
(1.04593 -0.318507 0)
(0.986264 -0.301829 -3.29543e-21)
(0.896805 -0.276816 -3.12436e-21)
(0.776992 -0.242786 -6.27493e-21)
(0.629819 -0.199899 2.67299e-25)
(0.4616 -0.149278 -6.27166e-24)
(0.280467 -0.0925981 6.93777e-21)
(0.0940597 -0.0315526 -2.72957e-24)
(1.00083 0.00494127 0)
(1.0063 0.0213076 -8.35076e-21)
(1.01786 0.0470632 0)
(1.03477 0.084925 1.38905e-20)
(1.05546 0.141262 -1.4059e-20)
(1.08118 0.227278 0)
(1.12328 0.406865 -1.16653e-20)
(1.18034 0.63099 -1.60149e-21)
(0.460308 0.474143 0)
(0.598911 0.478197 -5.84393e-21)
(0.381989 0.325362 4.51495e-21)
(0.809195 0.498212 -3.40029e-23)
(0.100168 0.201664 0)
(0.25439 0.348785 0)
(0.345943 0.372424 0)
(0.045848 -0.011332 -1.27542e-21)
(0.0449624 -0.0111144 5.33799e-24)
(0.131138 -0.033085 1.0167e-21)
(0.129546 -0.0325791 1.02397e-21)
(0.251443 -0.0647615 2.15717e-21)
(0.388726 -0.10396 0)
(0.554212 -0.151086 1.53619e-21)
(0.374076 -0.0991565 0)
(0.243863 -0.0627973 -6.58478e-22)
(0.125667 -0.0316364 -9.99269e-22)
(0.127237 -0.0321316 2.00887e-21)
(0.0431677 -0.0106724 0)
(0.0439606 -0.0108609 -3.13124e-25)
(0.757061 -0.216201 -4.39889e-23)
(0.908328 -0.26687 2.01665e-23)
(1.00663 -0.30047 0)
(1.06124 -0.319271 -3.70008e-24)
(1.08221 -0.326731 -3.6113e-21)
(1.07579 -0.325526 -3.45836e-24)
(1.04339 -0.316794 3.18061e-21)
(0.983167 -0.300332 -3.0191e-21)
(0.892892 -0.275353 5.78688e-21)
(0.77246 -0.241313 -2.91423e-24)
(0.625197 -0.198475 2.91747e-24)
(0.457588 -0.14804 -5.77462e-21)
(0.277717 -0.0917205 2.9242e-24)
(0.0930299 -0.0312272 5.48106e-21)
(1.00073 0.00337969 0)
(1.00635 0.0164899 1.48418e-23)
(1.01857 0.0386731 -1.23081e-23)
(1.03741 0.0720802 -1.4105e-20)
(1.06251 0.121448 0)
(1.09794 0.194801 0)
(1.15153 0.324316 7.08763e-21)
(1.3209 0.542504 3.06407e-24)
(0.825611 0.263601 0)
(1.17004 0.394893 6.56989e-23)
(0.187345 0.214464 1.55074e-22)
(0.209212 0.139454 0)
(0.611902 0.280726 5.56106e-23)
(0.237098 0.120802 5.67314e-21)
(0.0423121 -0.0104306 -6.47999e-22)
(0.0418172 -0.0102879 0)
(0.123492 -0.031089 -9.65988e-25)
(0.122193 -0.03062 1.06085e-23)
(0.235919 -0.0606419 -1.32879e-21)
(0.354108 -0.0938618 -2.79973e-21)
(0.515823 -0.139796 0)
(0.328973 -0.0849457 -2.71124e-21)
(0.226267 -0.0582395 1.02748e-23)
(0.118896 -0.0298257 5.49589e-24)
(0.12028 -0.0303196 3.69833e-24)
(0.040604 -0.0100022 0)
(0.041169 -0.0101551 -6.39051e-22)
(0.72941 -0.206028 4.50562e-23)
(0.887327 -0.257872 1.73407e-23)
(0.992051 -0.293341 3.79213e-24)
(1.05214 -0.314164 3.67511e-21)
(1.07687 -0.323292 0)
(1.07237 -0.323196 -3.11662e-21)
(1.04042 -0.315061 0)
(0.97978 -0.298845 2.8322e-24)
(0.888811 -0.27392 2.72788e-24)
(0.767878 -0.239877 5.29094e-21)
(0.620627 -0.197087 -2.45432e-24)
(0.453667 -0.146829 0)
(0.27505 -0.0908705 -5.62385e-21)
(0.0920435 -0.0309139 4.93509e-21)
(1.00063 0.00183538 0)
(1.0063 0.011659 0)
(1.01884 0.0301744 -1.45104e-23)
(1.03871 0.0590613 2.64484e-23)
(1.06625 0.101694 4.94427e-21)
(1.10652 0.164183 0)
(1.16337 0.259276 -2.72613e-21)
(1.33657 0.431791 0)
(1.3508 0.34992 -5.1247e-20)
(0.196825 0.0520042 4.86188e-21)
(0.659572 0.167297 0)
(0.313021 0.0780403 0)
(0.901543 0.166742 3.50367e-20)
(0.0399616 -0.00984321 -6.24225e-22)
(0.0395331 -0.00971033 6.18357e-22)
(0.11694 -0.0294279 4.71661e-24)
(0.11544 -0.0288971 1.81932e-21)
(0.210832 -0.054346 2.13655e-21)
(0.305827 -0.0799431 0)
(0.491266 -0.13159 0)
(0.2943 -0.0766106 0)
(0.176331 -0.043821 0)
(0.110524 -0.0277921 1.74453e-21)
(0.113278 -0.0286167 -3.72865e-24)
(0.0385106 -0.00946677 6.00024e-22)
(0.0389985 -0.00961167 -5.88306e-25)
(0.706826 -0.197727 1.94715e-23)
(0.868259 -0.249949 -1.75832e-23)
(0.977889 -0.286747 -3.8224e-24)
(1.04274 -0.309261 3.33711e-21)
(1.07101 -0.319887 0)
(1.06844 -0.320844 -2.67941e-24)
(1.03705 -0.31332 0)
(0.976127 -0.297377 -4.788e-24)
(0.884595 -0.272518 -4.86516e-21)
(0.763272 -0.238466 -2.0021e-25)
(0.616098 -0.19572 2.02131e-25)
(0.449836 -0.145649 5.03183e-21)
(0.27247 -0.0900464 0)
(0.0911017 -0.0306138 -2.12058e-24)
(1.00055 0.000321674 0)
(1.00619 0.00687528 -7.57237e-21)
(1.01881 0.0217104 0)
(1.03908 0.0461359 1.04562e-23)
(1.06774 0.0825069 -5.03346e-21)
(1.10956 0.135286 -2.88538e-21)
(1.16811 0.208486 -7.04134e-22)
(1.30873 0.332801 -3.07703e-23)
(1.48586 0.340682 3.65366e-20)
(1.03864 0.0993084 2.71582e-20)
(0.461312 0.0515493 4.70935e-22)
(0.17932 0.0101628 -1.07126e-20)
(0.605869 0.0139813 2.59439e-20)
(0.0379492 -0.0093434 3.33877e-24)
(0.0374626 -0.00919679 -1.15892e-21)
(0.105398 -0.0270129 -8.45078e-22)
(0.0970117 -0.0232631 4.22218e-22)
(0.151672 -0.0386789 6.03452e-22)
(0.286181 -0.0740988 0)
(0.473662 -0.126037 -1.46632e-21)
(0.280771 -0.0721198 0)
(0.144988 -0.0364929 -5.58014e-22)
(0.0431365 -0.0116915 -1.80831e-22)
(0.065162 -0.0121035 -2.65731e-22)
(0.0359903 -0.00887014 -5.57697e-22)
(0.0368507 -0.00909941 -5.70256e-22)
(0.687428 -0.190792 -4.84618e-21)
(0.850691 -0.242871 0)
(0.964069 -0.280613 -3.50797e-21)
(1.03308 -0.304539 0)
(1.06468 -0.316504 0)
(1.06404 -0.318484 2.67414e-24)
(1.0333 -0.311592 0)
(0.972235 -0.295934 9.18148e-24)
(0.880262 -0.271129 0)
(0.758643 -0.237066 -2.25112e-24)
(0.611631 -0.194375 -4.3521e-21)
(0.446101 -0.144496 2.32328e-24)
(0.269988 -0.0892505 0)
(0.0901873 -0.0303223 2.13017e-24)
(1.00046 -0.00115074 0)
(1.00603 0.00218097 1.52744e-20)
(1.01856 0.0133704 -6.85188e-21)
(1.03884 0.0334579 0)
(1.06776 0.0640981 -1.70509e-23)
(1.10927 0.108295 2.94949e-21)
(1.16782 0.166809 7.36999e-22)
(1.27794 0.254877 6.59625e-21)
(1.47455 0.290624 3.32003e-23)
(1.41842 0.163702 -9.47183e-20)
(0.67468 -0.0333819 -9.39232e-20)
(0.370357 -0.0178453 3.96912e-20)
(0.317669 -0.0143457 0)
(0.0973973 -0.0164123 1.00757e-20)
(0.231743 -0.0240302 1.45818e-20)
(0.03403 -0.00867978 9.6532e-24)
(0.0315258 -0.00826459 0)
(0.037593 -0.00957077 -4.94094e-22)
(0.0350335 -0.00889198 -6.12405e-22)
(0.141343 -0.0354067 -6.07069e-22)
(0.275273 -0.0709783 2.50955e-21)
(0.459153 -0.1218 5.48852e-21)
(0.271347 -0.0696176 0)
(0.138555 -0.0346221 5.61797e-22)
(0.0339452 -0.00831744 0)
(0.0343032 -0.00854874 5.8081e-22)
(0.0181494 -0.00320556 9.79849e-23)
(0.670314 -0.184701 0)
(0.834169 -0.236444 -7.04449e-24)
(0.950456 -0.274855 0)
(1.02318 -0.299937 0)
(1.05792 -0.313146 0)
(1.05921 -0.316151 2.41814e-21)
(1.02923 -0.3099 2.2821e-21)
(0.968137 -0.2945 -4.39534e-24)
(0.875827 -0.269738 0)
(0.754004 -0.23567 1.90098e-24)
(0.607226 -0.193048 4.12356e-21)
(0.442465 -0.143369 0)
(0.267574 -0.0884779 -2.08297e-24)
(0.0893144 -0.0300431 1.7942e-24)
(1.00039 -0.00257205 7.91743e-21)
(1.00584 -0.00239262 -7.70656e-21)
(1.01817 0.0052094 6.96476e-21)
(1.03822 0.0211053 -5.74062e-21)
(1.06685 0.0465021 0)
(1.10719 0.0832704 6.6735e-24)
(1.16384 0.131045 0)
(1.25443 0.195295 -1.01177e-20)
(1.41778 0.233511 -1.24795e-23)
(1.53165 0.173634 8.02045e-21)
(1.2033 0.0311914 5.46764e-20)
(0.481717 -0.0737608 -7.99303e-20)
(0.193256 -0.028241 5.02178e-20)
(0.23455 -0.0473658 -2.0532e-20)
(0.117568 -0.00990869 0)
(0.158951 -0.0225361 1.47227e-23)
(0.0613223 -0.0134495 3.94419e-23)
(0.0335175 -0.00828486 5.53144e-22)
(0.0333314 -0.00815805 -5.44008e-22)
(0.136116 -0.0340645 5.39821e-22)
(0.266727 -0.0688005 -2.31484e-21)
(0.446998 -0.117674 1.22052e-21)
(0.263258 -0.0677216 -1.69211e-23)
(0.134044 -0.0335046 5.37512e-22)
(0.0328096 -0.0080209 -5.26281e-22)
(0.0329344 -0.00812975 -2.0703e-24)
(0.65454 -0.179291 -4.20882e-21)
(0.818241 -0.230512 7.10107e-24)
(0.936884 -0.269315 -2.79205e-24)
(1.01301 -0.295402 0)
(1.05078 -0.309863 -2.41958e-21)
(1.05403 -0.313904 -2.24107e-21)
(1.0249 -0.308227 -3.94047e-24)
(0.963858 -0.293048 -3.72232e-24)
(0.871299 -0.268331 1.78642e-24)
(0.749373 -0.234279 -3.67825e-21)
(0.602888 -0.191738 -3.79166e-21)
(0.438922 -0.142273 1.80307e-24)
(0.26525 -0.0877322 1.72026e-25)
(0.0884764 -0.0297734 -3.45249e-24)
(1.00032 -0.00393169 -7.98257e-21)
(1.0056 -0.00681789 0)
(1.01766 -0.00273709 7.94243e-25)
(1.03734 0.00910854 3.59301e-23)
(1.06542 0.029671 3.26131e-24)
(1.10424 0.0600546 0)
(1.15781 0.0994397 1.52228e-24)
(1.23629 0.148498 3.05685e-22)
(1.36332 0.182072 7.41153e-21)
(1.51174 0.155958 5.87767e-20)
(1.46716 0.0667647 0)
(0.997158 -0.0437555 5.77924e-20)
(0.400304 -0.0724691 -2.06238e-20)
(0.182567 -0.0369121 -2.7079e-22)
(0.170485 -0.0457014 4.7729e-21)
(0.0628505 -0.00902944 -1.98377e-22)
(0.066864 -0.0146047 -1.24121e-20)
(0.0776827 -0.0152908 1.30384e-20)
(0.0822854 -0.0233243 1.33136e-20)
(0.0228133 -0.00481925 0)
(0.0371519 -0.00980592 -9.4865e-21)
(0.03242 -0.00800641 -5.15705e-22)
(0.0323044 -0.0079057 -5.06981e-22)
(0.131927 -0.033059 1.5323e-21)
(0.259668 -0.0673069 -2.18997e-21)
(0.435525 -0.114266 5.95246e-21)
(0.257639 -0.0656978 -1.85557e-21)
(0.129803 -0.0325956 0)
(0.0318432 -0.00778521 1.93047e-24)
(0.0319485 -0.00788918 -9.97339e-22)
(0.639423 -0.174304 -3.96685e-21)
(0.802486 -0.224824 -3.21549e-21)
(0.923144 -0.26382 2.79977e-24)
(1.00258 -0.290991 -4.64972e-24)
(1.04337 -0.306774 -3.20554e-25)
(1.04861 -0.311723 2.07374e-21)
(1.02034 -0.306535 3.93539e-24)
(0.959408 -0.291566 3.71753e-24)
(0.866699 -0.26691 1.76695e-21)
(0.74475 -0.232892 3.37939e-21)
(0.59863 -0.190452 0)
(0.435485 -0.141205 -1.80503e-24)
(0.263002 -0.0870092 1.91883e-24)
(0.0876715 -0.0295152 -3.33012e-21)
(1.00025 -0.00521612 0)
(1.00533 -0.0110658 2.0238e-24)
(1.01705 -0.0104417 0)
(1.0363 -0.00253244 5.9038e-21)
(1.06372 0.0135225 4.30396e-21)
(1.10098 0.0383736 -4.3176e-24)
(1.15115 0.0709964 0)
(1.22084 0.109943 3.11957e-21)
(1.3224 0.13883 -1.44192e-20)
(1.45339 0.128252 -2.74544e-20)
(1.53091 0.0739706 6.53267e-23)
(1.3499 -0.0111862 0)
(0.845867 -0.0816799 -1.21747e-22)
(0.355783 -0.0664923 -8.11897e-20)
(0.170027 -0.0309682 -5.64458e-22)
(0.174892 -0.0401979 3.26013e-20)
(0.0911604 -0.019222 -1.5704e-22)
(0.0869761 -0.0208929 0)
(0.0752466 -0.0175568 -5.70549e-21)
(0.0616961 -0.0204457 0)
(0.0110848 -0.00226326 8.14878e-21)
(0.0134934 -0.00392525 0)
(0.0169336 -0.00432138 -6.4595e-23)
(0.0145384 -0.00638411 -8.2914e-21)
(0.0314766 -0.00777845 4.78373e-22)
(0.0313625 -0.00767817 -4.71951e-22)
(0.127899 -0.032342 2.30881e-21)
(0.252992 -0.0644638 -4.5092e-22)
(0.424724 -0.111202 5.53361e-21)
(0.250346 -0.0635471 -2.20999e-21)
(0.157894 -0.0419749 0)
(0.158089 -0.0408389 5.6607e-22)
(0.0308447 -0.0075727 -1.77012e-24)
(0.0309853 -0.00765968 -4.6181e-22)
(0.624232 -0.169451 3.69974e-21)
(0.786268 -0.219033 0)
(0.90921 -0.258379 0)
(0.992081 -0.286959 4.66059e-24)
(1.03588 -0.30385 -2.09337e-21)
(1.043 -0.309547 1.91979e-21)
(1.01556 -0.304811 0)
(0.954806 -0.290056 -1.66392e-21)
(0.862044 -0.26548 0)
(0.740164 -0.231512 0)
(0.594466 -0.189187 0)
(0.432146 -0.140166 -3.32159e-21)
(0.26083 -0.0863114 3.37019e-21)
(0.086896 -0.0292671 -2.92118e-24)
(1.00019 -0.00640838 0)
(1.005 -0.0151004 -4.00824e-24)
(1.01632 -0.0178742 3.41909e-24)
(1.03511 -0.0138282 0)
(1.0619 -0.00204901 -8.87627e-21)
(1.09773 0.0179254 2.42845e-21)
(1.14472 0.045004 1.11809e-24)
(1.20724 0.0768409 0)
(1.2922 0.102213 6.91872e-21)
(1.39886 0.0998124 -1.16876e-23)
(1.50154 0.0656076 0)
(1.49795 0.00625498 -1.37233e-22)
(1.22841 -0.0647369 -4.30975e-20)
(0.74252 -0.0968429 6.18715e-20)
(0.334865 -0.0642581 -9.62224e-20)
(0.156947 -0.0294807 3.38423e-20)
(0.157763 -0.0352503 -1.32383e-22)
(0.0620086 -0.0132539 -6.93456e-21)
(0.0898719 -0.0207102 -1.02972e-20)
(0.0897508 -0.0227003 1.01249e-20)
(0.0435135 -0.0101512 -1.35777e-22)
(0.0413662 -0.00931193 0)
(0.0251015 -0.00337964 3.90458e-21)
(0.0120319 -0.00409498 -8.6289e-21)
(0.030523 -0.00754732 -4.51822e-22)
(0.0302999 -0.00756754 -4.41716e-22)
(0.0936587 -0.0252268 -6.10618e-22)
(0.156961 -0.0397861 5.74669e-22)
(0.156437 -0.0392723 0)
(0.247227 -0.0630746 3.3692e-24)
(0.413613 -0.108076 -9.80738e-22)
(0.244671 -0.0621868 -1.64616e-21)
(0.155598 -0.0390517 5.57844e-22)
(0.154938 -0.0387928 5.5363e-22)
(0.0938116 -0.0241356 -1.01571e-21)
(0.607714 -0.164282 0)
(0.769369 -0.212823 0)
(0.895462 -0.253595 0)
(0.981909 -0.283252 8.09661e-24)
(1.02842 -0.300997 -1.92968e-21)
(1.03722 -0.307363 0)
(1.01059 -0.30306 0)
(0.950087 -0.288525 0)
(0.85736 -0.264039 0)
(0.735629 -0.230142 0)
(0.59039 -0.187948 5.82107e-21)
(0.428899 -0.139156 -1.40639e-24)
(0.258731 -0.0856399 -3.26218e-21)
(0.086154 -0.029028 2.82866e-21)
(1.00013 -0.00748582 4.45643e-24)
(1.00459 -0.0188733 8.45961e-24)
(1.01544 -0.0249928 4.00816e-24)
(1.03375 -0.0247843 -3.39445e-24)
(1.05999 -0.0171488 9.3308e-21)
(1.09467 -0.00159118 -5.0964e-21)
(1.13896 0.0208608 0)
(1.19556 0.0475147 0)
(1.26875 0.0702328 -5.54135e-21)
(1.35712 0.0732899 0)
(1.45012 0.0511501 -1.23668e-20)
(1.51413 0.0101619 0)
(1.4394 -0.0467759 3.83737e-20)
(1.12147 -0.097236 -8.74562e-23)
(0.674098 -0.101474 6.15984e-20)
(0.320081 -0.0628452 -3.69486e-20)
(0.161433 -0.0318997 -7.20141e-22)
(0.157528 -0.0350742 6.3199e-20)
(0.058359 -0.0133403 -2.93298e-20)
(0.0569188 -0.0135771 7.16141e-21)
(0.0112546 -0.0024021 6.526e-21)
(0.045025 -0.0113446 -1.64115e-22)
(0.0113939 -0.00353642 0)
(0.0447646 -0.0116016 -8.55789e-21)
(0.0106641 -0.00303122 -6.11283e-21)
(0.0107819 -0.00306545 -6.04595e-21)
(0.00642368 -0.000865131 4.65555e-21)
(0.0305828 -0.00794453 4.27614e-22)
(0.0921678 -0.0231748 1.97437e-24)
(0.091593 -0.0227903 -5.04867e-22)
(0.154004 -0.038715 5.40169e-22)
(0.153339 -0.0385014 5.29369e-22)
(0.241511 -0.0616065 0)
(0.400101 -0.104423 -1.02403e-21)
(0.238441 -0.06053 1.52562e-21)
(0.15242 -0.038343 5.03254e-25)
(0.151682 -0.0380521 -5.0401e-25)
(0.0911535 -0.022642 -9.90269e-22)
(0.0907673 -0.0225191 -4.93718e-22)
(0.0305524 -0.00768075 3.76798e-22)
(0.588334 -0.157607 0)
(0.752823 -0.207672 0)
(0.88273 -0.249344 8.6091e-24)
(0.972179 -0.279715 1.9824e-21)
(1.02095 -0.2982 0)
(1.03127 -0.305183 3.05883e-24)
(1.00547 -0.301289 0)
(0.945278 -0.286972 1.43533e-21)
(0.852672 -0.262595 -1.38372e-21)
(0.731155 -0.228788 -2.63627e-21)
(0.586412 -0.186737 2.73469e-21)
(0.425746 -0.138176 2.69522e-21)
(0.256707 -0.0849905 -2.8447e-21)
(0.0854355 -0.028796 -2.36145e-24)
(1.00007 -0.00841877 0)
(1.00409 -0.0223196 4.29827e-24)