/*--------------------------------*- C++ -*----------------------------------*\
| =========                 |                                                 |
| \\      /  F ield         | OpenFOAM: The Open Source CFD Toolbox           |
|  \\    /   O peration     | Version:  v1912                                 |
|   \\  /    A nd           | Website:  www.openfoam.com                      |
|    \\/     M anipulation  |                                                 |
\*---------------------------------------------------------------------------*/
FoamFile
{
    version     2.0;
    format      ascii;
    class       surfaceScalarField;
    location    "380";
    object      phi;
}
// * * * * * * * * * * * * * * * * * * * * * * * * * * * * * * * * * * * * * //

dimensions      [0 3 -1 0 0 0 0];
oriented        oriented;


internalField   nonuniform List<scalar> 
7351
(
-3.56291e-06
0.00134709
-1.32709e-05
0.00413231
-2.80701e-06
0.0013499
-3.39266e-05
0.0069503
-1.35515e-05
0.00414305
-3.84337e-06
0.00135374
-6.14655e-05
0.00968806
-3.36169e-05
0.00697036
-1.4236e-05
0.00415344
-2.79146e-06
0.00135653
-9.49622e-05
0.0121659
-6.04632e-05
0.00971491
-3.20764e-05
0.0069882
-1.157e-05
0.00416222
-2.82744e-06
0.00135936
-0.000143498
0.0141818
-9.48004e-05
0.0122003
-5.59717e-05
0.0097388
-3.04152e-05
0.00700705
-1.15139e-05
0.00417091
-2.81225e-06
0.00136218
-0.000184886
0.0155124
-0.000136936
0.014224
-9.18595e-05
0.0122361
-5.5568e-05
0.00976396
-2.59571e-05
0.00702149
-1.13505e-05
0.00417945
-1.81582e-06
0.00136399
-0.000236681
0.0160077
-0.000186052
0.0155616
-0.000132887
0.014265
-8.61338e-05
0.0122667
-4.58131e-05
0.00978381
-2.27733e-05
0.00703291
-9.36023e-06
0.00418699
-1.76365e-06
0.00136576
-0.000276755
0.0155683
-0.000230378
0.0160521
-0.000177349
0.015606
-0.00012065
0.0142995
-7.13412e-05
0.0122922
-4.15476e-05
0.00980259
-1.97685e-05
0.00704332
-7.30288e-06
0.00419253
-1.66309e-06
0.00136742
-0.00031108
0.0142461
-0.000279186
0.0156171
-0.000218809
0.0160935
-0.000150751
0.0156361
-9.96401e-05
0.0143278
-6.40441e-05
0.0123147
-3.72451e-05
0.00982006
-1.82576e-05
0.00705428
-6.42974e-06
0.0041973
-1.71863e-06
0.00136914
-0.000335496
0.0121651
-0.000322773
0.0142897
-0.000258826
0.0156571
-0.000186245
0.016129
-0.00013004
0.0156665
-8.27458e-05
0.0143465
-5.22981e-05
0.0123298
-2.77695e-05
0.00982958
-1.52956e-05
0.00706314
-6.94077e-06
0.00420252
-1.73669e-06
0.00137087
-0.000343355
0.00952579
-0.000352018
0.0121944
-0.000277201
0.0143081
-0.000206213
0.0156771
-0.000148264
0.0161472
-0.000104218
0.015688
-6.92788e-05
0.0143635
-4.26072e-05
0.0123446
-2.72983e-05
0.00984158
-1.19432e-05
0.00706815
-4.34119e-06
0.00420513
-1.33839e-06
0.00137221
0.00654744
-0.000193734
-0.000114266
-0.000372567
0.00954634
-0.000286829
0.012204
-0.000211591
0.0143135
-0.000159291
0.0156881
-0.000112718
0.0161557
-7.88514e-05
0.0156976
-5.12069e-05
0.0143721
-3.56314e-05
0.012353
-1.81319e-05
0.00984777
-1.20099e-05
0.00707582
-6.06053e-06
0.00420985
-7.13644e-07
0.00137293
0.00655289
-0.00017716
-0.000200859
-0.00215257
0.00211085
-0.000152013
-8.41667e-05
-0.000259724
0.00951924
-0.000190804
0.0121832
-0.000150852
0.014305
-0.000110107
0.0156855
-8.71718e-05
0.0161641
-6.4845e-05
0.0157112
-4.52629e-05
0.0143817
-3.07374e-05
0.0123656
-2.27493e-05
0.00985851
-1.15302e-05
0.00708129
-4.82966e-06
0.00421396
-1.44826e-06
0.00137438
0.00648299
-5.96868e-05
-0.000130137
-0.00209321
0.00206944
-0.000153384
-0.000183219
-0.00137937
0.00132148
-6.22984e-05
-3.18264e-05
-2.48937e-05
-0.000141127
0.00946956
-0.000119154
0.0121515
-9.51695e-05
0.0142901
-7.90903e-05
0.0156774
-6.23315e-05
0.0161615
-4.58163e-05
0.0157118
-3.94472e-05
0.0143904
-2.5618e-05
0.0123684
-1.72428e-05
0.00986422
-1.23928e-05
0.00708885
-5.60826e-06
0.00421812
-2.2273e-06
0.0013766
0.0063984
-1.08049e-05
-4.57377e-05
-0.00202112
0.00199777
-3.633e-05
-8.18232e-05
-0.00130381
0.00125959
-3.89396e-05
-7.02226e-05
-8.31256e-05
-8.24173e-05
-0.000417614
0.000390569
-3.52538e-05
-0.000431505
-1.79344e-05
-9.68852e-06
-6.78111e-05
0.00941822
-6.50496e-05
0.0121214
-6.19664e-05
0.014273
-5.07301e-05
0.0156658
-4.33088e-05
0.016159
-3.76908e-05
0.01571
-3.18663e-05
0.0143967
-2.50718e-05
0.0123763
-2.17135e-05
0.00987354
-1.34936e-05
0.00709673
-7.66798e-06
0.00422356
-1.20962e-06
0.00137781
0.00634756
-4.63743e-07
-1.65053e-05
-0.00196922
0.00196461
-6.19217e-06
-1.71902e-05
-0.00120674
0.00117641
-7.98585e-07
-5.20381e-06
-2.19461e-05
-7.03042e-06
-0.000320967
0.000302003
-1.99756e-05
-0.000344226
-4.69632e-05
0.000365379
-5.79355e-05
-6.12646e-05
-0.000238849
0.000213357
-9.76101e-06
-0.000252883
-3.901e-06
-1.63093e-06
-3.50005e-05
0.00938817
-3.85613e-05
0.012098
-3.70291e-05
0.0142593
-3.79464e-05
0.0156604
-3.19617e-05
0.0161533
-3.35045e-05
0.0157116
-2.63571e-05
0.014398
-2.86945e-05
0.0123832
-2.10876e-05
0.00988113
-1.5513e-05
0.00710458
-7.43706e-06
0.00422979
-2.8856e-06
0.0013807
0.0063154
4.02512e-06
-6.86481e-06
-0.00195156
0.00195213
-1.03472e-06
-3.45303e-06
-0.00116068
0.00115449
1.04938e-06
-1.04757e-06
-1.79067e-06
3.30122e-07
-0.000277122
0.000276726
-4.03462e-07
-0.000281825
-5.00433e-07
0.000286743
-6.68615e-06
-2.11243e-06
-0.000108174
8.81983e-05
-0.000155137
0.000176096
-2.06754e-05
-4.03054e-05
-7.07418e-05
6.09808e-05
-7.46427e-05
-1.46015e-05
0.00936421
-2.35144e-05
0.0120845
-2.47291e-05
0.0142461
-2.24222e-05
0.0156509
-2.9208e-05
0.016149
-2.58641e-05
0.0157111
-3.69462e-05
0.0144062
-3.371e-05
0.0123959
-2.71982e-05
0.00989282
-1.85896e-05
0.00711573
-1.03531e-05
0.00423726
-1.95895e-06
0.00138266
0.00630134
3.67623e-06
-4.21239e-06
-0.00194596
0.0019491
8.85621e-07
-7.02292e-07
-0.00115105
0.00114974
2.59321e-07
2.49347e-08
-5.00507e-07
4.81583e-07
-0.000274246
0.000275093
2.03178e-07
-0.00027544
1.45874e-07
0.000274977
-4.09342e-08
-1.33012e-07
-7.88993e-05
7.84959e-05
-7.93998e-05
8.15122e-05
4.03054e-05
-6.17748e-06
0.00934687
-6.73828e-06
0.0120665
-1.24946e-05
0.0142361
-2.00287e-05
0.0156417
-2.53632e-05
0.0161485
-3.69971e-05
0.0157112
-3.4218e-05
0.0144067
-3.68192e-05
0.0124055
-3.09225e-05
0.00990515
-2.02936e-05
0.00712567
-1.07686e-05
0.00424607
-2.66065e-06
0.00138532
0.00629416
1.89988e-06
-9.05587e-07
-0.00194496
0.00194803
6.03562e-07
-7.00381e-08
-0.00114872
0.00114949
-1.59903e-07
2.71269e-07
-8.77104e-08
4.01628e-07
-0.000274997
0.000275191
6.55392e-08
-0.000275109
1.3699e-07
0.000274817
-2.2521e-07
1.89859e-07
-7.84678e-05
7.8671e-05
-7.83219e-05
7.84549e-05
-1.50814e-07
0.00934029
-6.38245e-06
0.0120604
-1.08149e-05
0.0142269
-1.47769e-05
0.0156311
-2.77497e-05
0.0161393
-4.11152e-05
0.0157181
-5.07852e-05
0.0144207
-4.3841e-05
0.0124184
-3.66468e-05
0.0099215
-2.57237e-05
0.00714063
-1.12275e-05
0.00425464
-3.42722e-06
0.00138874
0.0062914
1.99006e-06
6.24396e-07
-0.00194726
0.00194779
1.37102e-06
-1.34742e-07
-0.00114888
0.00114949
1.40558e-07
-1.47671e-07
2.12511e-07
3.33168e-07
-0.00027573
0.000275536
3.43998e-08
-0.000275415
-4.35279e-08
0.000275092
1.11337e-08
7.83043e-08
-7.87726e-05
7.88382e-05
-7.86357e-05
7.84458e-05
-3.22152e-07
0.00933422
4.36468e-07
0.0120491
-6.20967e-06
0.0142183
-2.5383e-05
0.0156288
-3.88276e-05
0.016137
-4.98782e-05
0.0157172
-5.85914e-05
0.0144354
-5.77651e-05
0.0124395
-4.66469e-05
0.00994243
-2.72142e-05
0.00715661
-1.1285e-05
0.00426249
-2.36629e-06
0.00139111
0.00628868
1.91349e-06
4.857e-07
-0.00194817
0.00194871
1.45129e-06
2.49197e-07
-0.00114863
0.00115007
2.533e-07
-3.19157e-07
3.32877e-07
3.9142e-07
-0.000275699
0.000275882
-4.26057e-08
-0.000276007
1.59638e-07
0.000275797
-4.81504e-08
1.23209e-07
-7.88841e-05
7.89185e-05
-7.89276e-05
7.88493e-05
5.5276e-06
0.00932913
6.87698e-07
0.0120422
-1.01015e-05
0.0142031
-2.46765e-05
0.0156146
-4.95094e-05
0.0161366
-6.68231e-05
0.0157254
-7.22789e-05
0.01445
-6.7923e-05
0.0124608
-4.96378e-05
0.00996485
-2.96671e-05
0.007175
-1.43012e-05
0.00427443
-3.08053e-06
0.00139419
0.00628969
2.49266e-06
2.02072e-06
-0.00194827
0.00194989
2.9609e-07
9.20568e-07
-0.00115035
0.00115128
1.96639e-07
3.2991e-07
-3.09531e-07
2.73055e-07
-0.000276269
0.000276482
4.00354e-08
-0.000276731
1.43043e-07
0.000276201
1.39226e-08
-1.38502e-07
-7.91532e-05
7.91106e-05
-7.89936e-05
7.88704e-05
2.28805e-06
0.00932753
-2.65735e-06
0.0120348
-1.93858e-05
0.0141978
-4.26736e-05
0.0156078
-6.95624e-05
0.0161393
-9.10396e-05
0.0157442
-9.60889e-05
0.0144781
-7.91829e-05
0.0124903
-5.44816e-05
0.00998967
-3.01314e-05
0.00719083
-1.22502e-05
0.0042836
-3.39825e-06
0.00139759
0.0062896
3.88464e-07
1.99399e-06
-0.00195061
0.00195195
1.15398e-06
1.29872e-06
-0.00115203
0.00115188
2.60634e-07
1.79926e-07
-1.55744e-07
3.2433e-07
-0.000276586
0.000277027
-2.4466e-07
-0.000276416
1.60229e-07
0.000276243
-6.96421e-08
9.96477e-08
-7.91291e-05
7.91691e-05
-7.8986e-05
7.91245e-05
2.15215e-06
0.00932273
-5.89374e-06
0.0120213
-2.29959e-05
0.0141781
-5.86116e-05
0.0155968
-9.06008e-05
0.0161389
-0.000111024
0.0157591
-0.000106585
0.0145055
-8.61716e-05
0.012522
-5.93825e-05
0.0100189
-3.28253e-05
0.0072114
-1.3564e-05
0.00429376
-2.85955e-06
0.00140045
0.00628782
1.97547e-06
1.95578e-06
-0.00195373
0.00195276
1.35471e-06
2.14972e-07
-0.00115313
0.00115429
-2.84826e-07
2.7595e-07
-2.74704e-07
3.31123e-07
-0.000277135
0.000277367
2.93126e-08
-0.000277049
9.38605e-08
0.00027687
1.1586e-09
1.45084e-07
-7.93594e-05
7.91147e-05
-7.91991e-05
7.90995e-05
-1.74008e-07
0.009317
-1.3309e-05
0.0120116
-4.54341e-05
0.0141649
-8.76882e-05
0.0155939
-0.000128092
0.016156
-0.00013803
0.0157906
-0.000128963
0.0145483
-9.53557e-05
0.012558
-5.90165e-05
0.0100451
-3.19718e-05
0.00722981
-1.14509e-05
0.00430235
-1.94245e-06
0.00140239
0.00628528
4.92876e-07
1.87428e-06
-0.00195385
0.00195542
4.03331e-07
8.69773e-07
-0.00115383
0.0011552
-1.75592e-07
1.60136e-07
3.25597e-07
3.54039e-07
-0.000277478
0.000277458
-2.64089e-07
-0.000277306
1.03914e-07
0.000277084
8.22854e-09
1.08754e-07
-7.93548e-05
7.93841e-05
-7.92609e-05
7.91159e-05
-2.42284e-06
0.00930612
-2.39431e-05
0.0119901
-6.9826e-05
0.0141471
-0.000126222
0.015592
-0.000162806
0.0161807
-0.000170214
0.0158318
-0.000135729
0.0145887
-9.83188e-05
0.0125973
-6.0737e-05
0.0100739
-2.85053e-05
0.00724686
-1.09838e-05
0.0043114
-1.79426e-06
0.00140418
0.00628034
5.65493e-07
1.95159e-06
-0.00195614
0.00195625
3.86599e-07
1.15068e-06
-0.00115555
0.00115599
1.61109e-07
-2.04877e-07
3.45141e-07
1.75065e-07
-0.000278033
0.000277826
3.16379e-08
-0.000277934
6.06706e-08
0.000277755
2.79786e-08
1.75268e-07
-7.9605e-05
7.93409e-05
-7.95011e-05
7.93924e-05
-8.51448e-06
0.00929069
-4.51978e-05
0.0119655
-0.000109417
0.0141302
-0.00017045
0.0155997
-0.000205105
0.0162156
-0.00018284
0.0158789
-0.000142646
0.014633
-9.59409e-05
0.0126325
-5.14988e-05
0.0100969
-2.41133e-05
0.00725999
-8.76946e-06
0.00431837
-1.44469e-06
0.00140563
0.00627069
-8.01847e-07
1.93193e-06
-0.00195721
0.00195739
3.89255e-07
9.91397e-07
-0.0011565
0.00115696
2.65479e-07
-3.36931e-07
3.34131e-07
3.06355e-07
-0.000277934
0.000278337
-2.41971e-07
-0.000278225
8.66702e-08
0.000278108
6.36116e-08
5.74572e-08
-7.96049e-05
7.96365e-05
-7.95442e-05
7.93689e-05
-1.77716e-05
0.00926326
-7.66882e-05
0.0119328
-0.000161582
0.0141214
-0.000228628
0.0156232
-0.000230283
0.0162631
-0.000196603
0.0159329
-0.000142172
0.0146792
-8.60411e-05
0.0126671
-4.67723e-05
0.0101195
-2.06619e-05
0.00727189
-5.82123e-06
0.00432275
-3.88518e-07
0.00140602
0.00625341
-2.51371e-06
2.02997e-06
-0.00195805
0.00195714
1.05423e-07
1.27001e-06
-0.00115788
0.00115778
1.54518e-07
3.35253e-07
3.48203e-07
-2.76349e-07
-0.000278383
0.000278674
-2.55593e-08
-0.000278805
8.50444e-08
0.000278612
5.88591e-08
1.12962e-07
-7.98442e-05
7.96023e-05
-7.97576e-05
7.97001e-05
-3.84793e-05
0.00922506
-0.000130432
0.0119016
-0.000234489
0.0141272
-0.00027549
0.0156684
-0.000248726
0.0163152
-0.000187828
0.0159785
-0.000126274
0.0147195
-7.32022e-05
0.0126935
-3.87805e-05
0.0101376
-1.70708e-05
0.00728313
-3.46056e-06
0.00432582
-2.30006e-07
0.00140625
0.00622127
-8.37605e-06
2.03024e-06
-0.00195885
0.00195614
1.90541e-07
3.25948e-07
-0.00115887
0.00115899
-1.47567e-07
1.31659e-07
3.08776e-07
-1.276e-07
-0.000279035
0.000279121
6.88466e-08
-0.000278556
-1.43902e-07
0.000278953
6.9891e-08
1.20494e-07
-7.98591e-05
7.98335e-05
-7.97741e-05
7.96611e-05
-7.69503e-05
0.00917157
-0.000208157
0.0118753
-0.00029918
0.0141509
-0.000296164
0.0157159
-0.000234466
0.0163618
-0.000168966
0.0160212
-0.00010733
0.0147536
-6.33142e-05
0.012718
-3.24626e-05
0.010153
-9.90966e-06
0.00728958
-2.65344e-06
0.00432824
7.7798e-07
0.00140547
0.00616402
-1.88567e-05
-8.3682e-07
-0.0019577
0.00195102
-1.69572e-06
4.67951e-07
-0.00115884
0.00115899
-2.90689e-07
3.31439e-07
3.13851e-07
1.63601e-07
-0.000279262
0.000279106
7.91417e-09
-0.000279247
1.16759e-07
0.00027942
9.65545e-09
4.5125e-08
-7.988e-05
7.99489e-05
-8.00239e-05
7.99034e-05
-0.000146555
0.00910997
-0.000309847
0.0118859
-0.000341536
0.0141963
-0.000284388
0.0157658
-0.000209215
0.0164021
-0.000141236
0.0160551
-8.725e-05
0.0147775
-4.79764e-05
0.0127335
-1.9905e-05
0.010163
-5.99618e-06
0.00729293
1.33424e-06
0.00432769
1.1673e-06
0.0014043
0.0060744
-4.62872e-05
-1.06566e-05
-0.00195176
0.00193706
-4.15784e-06
-1.57162e-06
-0.00115923
0.0011575
-1.06164e-07
1.44689e-07
3.19625e-07
-9.66605e-08
-0.00027993
0.000279579
5.97328e-08
-0.000279466
-1.32133e-07
0.000279408
1.26298e-08
1.05137e-07
-8.01204e-05
8.01283e-05
-8.00037e-05
7.99585e-05
-0.00027784
0.00907796
-0.000369794
0.0119142
-0.000318391
0.0142303
-0.000237715
0.0157943
-0.000169052
0.0164299
-0.000107461
0.0160753
-6.40784e-05
0.0147936
-3.41245e-05
0.0127478
-1.15077e-05
0.0101685
-1.20511e-06
0.00729547
2.93035e-06
0.00432592
1.51633e-06
0.00140279
0.00597279
-0.000122073
-5.41554e-05
-0.00193369
0.00190365
-1.62464e-05
-7.29252e-06
-0.00115586
0.00115163
-2.34708e-07
3.13454e-07
3.10369e-07
-2.475e-07
-0.000279757
0.000279844
-1.93045e-07
-0.000279732
1.1935e-07
0.000279882
1.69936e-08
5.36381e-08
-8.0114e-05
8.01737e-05
-8.02461e-05
8.0141e-05
-0.000386374
0.00909454
-0.000337131
0.0119329
-0.000252639
0.0142452
-0.00018312
0.0158084
-0.00012343
0.0164459
-8.01089e-05
0.0160914
-4.26538e-05
0.0148022
-1.74256e-05
0.0127537
-4.9513e-06
0.0101723
2.89651e-06
0.0072955
3.46706e-06
0.00432397
2.81971e-06
0.00139997
0.0059675
-0.000209826
-0.000171254
-0.0018793
0.0018208
-6.35747e-05
-2.97983e-05
-0.00114453
0.00112972
-1.55758e-06
1.17575e-07
3.70184e-07
-5.66468e-07
-0.000280036
0.000279731
6.98917e-08
-0.000279787
6.51122e-08
0.00028014
1.44099e-08
1.05076e-07
-8.03637e-05
8.01706e-05
-8.02443e-05
8.01907e-05
-0.000334056
0.00909147
-0.000238931
0.0119192
-0.00017492
0.014237
-0.000128845
0.0158138
-8.85423e-05
0.0164543
-5.58477e-05
0.0161046
-2.97148e-05
0.0148145
-1.08121e-05
0.0127595
3.67498e-06
0.0101715
6.42123e-06
0.00729255
7.07559e-06
0.00431972
3.37898e-06
0.00139659
0.0059119
-9.79672e-05
-0.00018049
-0.00178345
0.00175151
-0.000177877
-0.000133911
-0.00110401
0.0010533
-1.08993e-05
-1.96765e-06
-4.33407e-07
-3.64599e-06
-0.000279541
0.000278231
-2.4727e-07
-0.000279594
1.70482e-07
0.000280048
5.29444e-08
-1.12546e-07
-8.03552e-05
8.04251e-05
-8.02901e-05
8.0185e-05
-0.000182868
0.00903541
-0.000146778
0.0118911
-0.000116424
0.0142246
-8.39417e-05
0.0158092
-5.73134e-05
0.0164558
-3.17099e-05
0.0161066
-1.39126e-05
0.0148176
-3.1092e-07
0.0127635
7.81941e-06
0.0101701
1.289e-05
0.00728673
9.99485e-06
0.0043131
3.79478e-06
0.00139279
0.0058091
-1.78568e-05
-6.22169e-05
-0.00170685
0.00166665
-5.7771e-05
-0.000135835
-0.000972061
0.000924617
-6.65164e-05
-6.39169e-05
-1.45746e-05
-3.80998e-05
-0.000273205
0.000264118
-1.8122e-06
-0.000274582
-5.90717e-07
0.000278007
-2.09183e-07
-2.21394e-07
-8.05359e-05
8.02887e-05
-8.03655e-05
8.0478e-05
-8.52603e-05
0.00897389
-8.11776e-05
0.0118558
-6.90342e-05
0.0142097
-5.21076e-05
0.015804
-3.35375e-05
0.0164576
-1.5217e-05
0.0161079
-5.47038e-07
0.0148178
1.19633e-05
0.0127594
1.581e-05
0.0101672
1.44775e-05
0.00728225
9.51011e-06
0.00430738
4.81543e-06
0.00138798
0.00574204
1.48938e-07
-1.83415e-05
-0.00162747
0.0016168
-7.1829e-06
-2.30339e-05
-0.000857547
0.000807875
-1.35318e-06
-6.74589e-06
-4.90422e-05
-1.97231e-05
-0.000184337
0.000158465
-4.06448e-05
-0.000225722
-2.2532e-05
0.000253612
-4.06872e-06
-1.02096e-05
-7.92674e-05
7.74551e-05
-7.98581e-05
8.00795e-05
-4.03607e-05
0.00893307
-4.28306e-05
0.0118296
-3.81072e-05
0.0141957
-2.89731e-05
0.0157994
-1.5802e-05
0.0164582
-2.87877e-06
0.0161102
1.29511e-05
0.0148168
1.58519e-05
0.0127593
2.06595e-05
0.010161
1.75323e-05
0.00727423
1.35899e-05
0.00429861
5.06466e-06
0.00138291
0.00570564
3.29481e-06
-7.25932e-06
-0.00160211
0.00160262
-3.58531e-07
-3.65446e-06
-0.000785546
0.000778355
2.83014e-07
-2.74799e-07
-7.31134e-07
2.64143e-08
-8.29539e-05
8.16007e-05
-8.96998e-05
0.000109423
-4.06448e-05
-6.31768e-05
7.33864e-05
-1.79714e-05
0.00890821
-2.16901e-05
0.0118132
-1.83699e-05
0.0141851
-7.34662e-06
0.0157909
5.15046e-07
0.0164548
1.27534e-05
0.0161104
1.58818e-05
0.0148168
2.52986e-05
0.0127547
2.48833e-05
0.0101537
2.31791e-05
0.00726464
1.56624e-05
0.00428801
5.87601e-06
0.00137703
0.00568814
3.88583e-06
-4.36152e-06
-0.00159637
0.00159854
1.1224e-06
-1.00789e-06
-0.000774624
0.000774206
1.1517e-07
-5.59227e-08
-4.34571e-08
1.19882e-07
-8.06211e-05
8.09041e-05
-8.08959e-05
8.08695e-05
-4.51921e-06
0.00889104
-8.2566e-06
0.0118031
-3.47608e-06
0.0141812
3.49245e-06
0.015788
1.42008e-05
0.0164533
1.99389e-05
0.0161063
3.18055e-05
0.0148103
3.25764e-05
0.012747
3.24596e-05
0.0101444
2.77508e-05
0.00725255
1.74045e-05
0.00427648
6.8028e-06
0.00137023
0.00568225
3.47048e-06
-2.09893e-06
-0.00159408
0.00159789
7.96368e-08
9.17286e-08
-0.000772935
0.000773979
1.9163e-07
-1.13498e-07
1.01104e-07
1.61908e-07
-8.09246e-05
8.10397e-05
-8.09805e-05
8.08606e-05
-2.28393e-07
0.00888301
2.25327e-06
0.0117974
5.52727e-06
0.0141792
1.18623e-05
0.0157903
2.39894e-05
0.0164493
3.0673e-05
0.0161075
3.19438e-05
0.0148109
3.61848e-05
0.0127433
3.49019e-05
0.0101372
3.11356e-05
0.00723882
2.06857e-05
0.0042626
7.79073e-06
0.00136244
0.00568024
2.75426e-06
-9.70943e-07
-0.00159543
0.00159803
8.73724e-07
3.57831e-07
-0.000773909
0.000774102
3.26748e-08
-1.45769e-07
8.69769e-08
7.43213e-08
-8.11892e-05
8.13808e-05
-8.13027e-05
8.11408e-05
2.722e-06
0.00888254
8.91164e-06
0.011794
1.57704e-05
0.0141753
2.32004e-05
0.0157911
2.71002e-05
0.0164529
4.05544e-05
0.0160989
4.62856e-05
0.0148008
4.83976e-05
0.0127298
4.27457e-05
0.0101256
3.59331e-05
0.00722357
2.31282e-05
0.00424726
8.75988e-06
0.00135368
0.00568011
2.79105e-06
5.71225e-08
-0.00159723
0.00159909
8.98306e-07
-1.71948e-07
-0.000774342
0.000775288
4.70135e-08
-1.19716e-07
5.81626e-08
5.93067e-08
-8.13963e-05
8.1429e-05
-8.15421e-05
8.14678e-05
7.18678e-06
0.00888427
1.39781e-05
0.0117958
1.834e-05
0.0141801
3.22301e-05
0.015786
4.21816e-05
0.0164512
4.70283e-05
0.0160981
4.95946e-05
0.0147996
5.36335e-05
0.0127189
5.06785e-05
0.0101109
4.1338e-05
0.00720536
2.69221e-05
0.0042291
9.63834e-06
0.00134404
0.00568426
2.88688e-06
1.49681e-07
-0.00159848
0.00160067
6.08161e-07
6.58871e-07
-0.000774983
0.000775854
-5.82119e-08
8.57529e-08
6.34213e-08
6.94156e-08
-8.14267e-05
8.14737e-05
-8.15464e-05
8.14871e-05
8.49477e-06
0.00888975
1.54259e-05
0.0117987
2.79065e-05
0.0141845
3.54095e-05
0.0157927
4.41752e-05
0.0164541
5.44348e-05
0.0160933
6.17264e-05
0.0147915
6.06954e-05
0.0127089
5.8272e-05
0.0100939
4.52079e-05
0.00718707
3.00073e-05
0.00420873
1.09755e-05
0.00133307
0.00568836
3.06104e-06
1.34073e-06
-0.00160012
0.00160237
6.44326e-07
6.93757e-07
-0.000776372
0.000776869
5.15663e-08
5.95172e-08
6.59036e-08
7.53713e-08
-8.16923e-05
8.1634e-05
-8.16065e-05
8.15371e-05
1.04693e-05
0.00889471
1.98874e-05
0.0118067
2.90594e-05
0.0141908
4.19721e-05
0.0157949
5.52655e-05
0.0164533
6.28147e-05
0.0160922
7.10288e-05
0.0147812
7.0171e-05
0.012697
6.58774e-05
0.0100733
5.39828e-05
0.0071631
3.25067e-05
0.0041872
1.1881e-05
0.00132119
0.00569537
3.06175e-06
3.90698e-07
-0.00160298
0.00160524
7.9978e-07
7.30138e-07
-0.000777627
0.000778158
5.59207e-08
5.74124e-08
-1.17626e-07
5.31276e-08
-8.18348e-05
8.18864e-05
-8.17753e-05
8.16999e-05
1.17384e-05
0.00890286
2.18868e-05
0.0118139
3.53451e-05
0.0141974
4.67825e-05
0.0158034
6.17169e-05
0.0164544
7.23093e-05
0.0160909
7.77913e-05
0.0147736
8.42613e-05
0.0126786
7.54671e-05
0.0100518
6.04923e-05
0.00713511
3.78189e-05
0.00416126
1.21739e-05
0.00130901
0.00570252
3.11378e-06
1.48142e-06
-0.00160486
0.00160718
7.44132e-07
7.64857e-07
-0.000778692
0.000779481
9.35234e-08
-8.24827e-08
6.81124e-08
1.27645e-07
-8.18793e-05
8.19352e-05
-8.18219e-05
8.17687e-05
1.1795e-05
0.00891295
2.44867e-05
0.0118248
4.14636e-05
0.0142028
5.88379e-05
0.0158063
7.20806e-05
0.0164546
8.57089e-05
0.016083
9.34933e-05
0.0147643
9.28683e-05
0.0126612
8.60731e-05
0.0100262
6.63018e-05
0.00710663
4.02868e-05
0.00413315
1.05922e-05
0.00129842
0.00571123
2.75546e-06
3.29033e-07
-0.00160789
0.00161024
7.5724e-07
7.76465e-07
-0.000780099
0.000780908
4.90877e-08
-1.13501e-07
7.24499e-08
7.37984e-08
-8.20484e-05
8.21419e-05
-8.21309e-05
8.20033e-05
1.31419e-05
0.00892429
2.84928e-05
0.0118377
4.60569e-05
0.0142155
6.52221e-05
0.0158132
8.0866e-05
0.0164594
9.39642e-05
0.0160825
0.000105588
0.0147516
0.000101723
0.0126455
9.52173e-05
0.00999729
7.54712e-05
0.00707145
4.30534e-05
0.00410069
1.31791e-05
0.00128524
0.00572234
1.15518e-06
8.75717e-07
-0.0016099
0.00161219
4.64147e-07
6.74151e-07
-0.000781545
0.000782358
-1.122e-07
5.72633e-08
6.81227e-08
7.0729e-08
-8.21747e-05
8.22237e-05
-8.22882e-05
8.22144e-05
1.62852e-05
0.0089365
3.296e-05
0.0118508
5.53303e-05
0.0142254
7.16169e-05
0.0158224
9.24646e-05
0.0164609
0.0001079
0.0160802
0.000117125
0.0147362
0.000120072
0.0126207
0.00010686
0.0099659
8.14467e-05
0.00703305
4.35999e-05
0.00407027
3.16753e-05
0.00125357
0.00573393
2.61784e-06
2.07434e-06
-0.00161319
0.00161615
-1.79803e-06
-1.30047e-07
-0.000782888
0.000783153
1.12748e-07
8.64675e-08
6.34746e-08
7.99394e-08
-8.24198e-05
8.23076e-05
-8.23626e-05
8.22919e-05
1.99927e-05
0.00894947
3.97108e-05
0.0118664
5.89549e-05
0.0142381
8.41152e-05
0.0158308
0.000105769
0.0164631
0.000123726
0.0160736
0.000132833
0.0147234
0.000128781
0.0125988
0.000118856
0.00992849
8.6743e-05
0.00698991
7.42276e-05
0.00402772
7.38741e-05
0.00574427
5.4789e-06
4.17701e-06
-0.00162172
0.00161929
-1.47119e-06
6.51996e-06
-3.49701e-06
-0.000783117
0.000781316
1.11513e-08
-7.99744e-09
3.39756e-08
-1.27813e-07
-8.25375e-05
8.26502e-05
-8.2451e-05
8.23711e-05
2.44227e-05
0.00896476
4.17499e-05
0.0118836
6.68597e-05
0.0142554
9.08326e-05
0.0158457
0.000115605
0.0164712
0.000134927
0.0160715
0.000146818
0.0147054
0.000147974
0.0125696
0.000127265
0.00988797
0.000114861
0.00694928
0.000135776
0.00575798
5.4797e-06
5.23328e-06
-0.00162201
0.00162376
2.32645e-06
1.40682e-06
2.00494e-06
-5.5405e-07
-0.000486292
0.000491683
-6.86296e-06
-0.000461052
-1.87195e-05
0.000317023
-9.49145e-09
-2.47043e-07
-8.25484e-05
8.25595e-05
-8.25564e-05
8.26842e-05
2.40882e-05
0.00898242
4.88039e-05
0.0119017
7.49894e-05
0.0142712
0.000107826
0.0158535
0.00013547
0.0164706
0.000154911
0.0160634
0.000165252
0.0146881
0.000162122
0.0125348
0.000155058
0.00984777
0.000179152
0.00577338
4.30568e-06
4.38324e-06
-0.00162588
0.00162917
1.41561e-06
7.74335e-07
1.85571e-06
1.25662e-06
-0.00049706
0.000498172
1.21408e-06
-0.000496215
5.61954e-07
-0.000493507
-7.02885e-07
-2.37817e-06
-0.000295234
0.000289736
-1.3644e-06
3.06895e-06
8.255e-05
8.2303e-05
2.74246e-05
0.0090038
5.34335e-05
0.0119233
8.57052e-05
0.0142933
0.000117175
0.0158718
0.000145839
0.0164797
0.00017156
0.0160571
0.000177881
0.0146724
0.000187153
0.0125027
0.000210802
0.00579044
4.75919e-06
5.59837e-06
-0.0016316
0.00163421
1.04501e-06
6.48569e-07
1.34178e-06
6.15626e-07
-0.000500374
0.000500992
7.97372e-07
-0.000499827
2.27523e-07
-0.000498771
7.99881e-07
6.57591e-07
-0.000288593
0.000289713
9.41533e-08
-0.000288087
5.56092e-08
-0.00028842
-3.69305e-07
-1.06259e-06
-8.53719e-05
8.40075e-05
3.02e-05
0.00902703
6.17661e-05
0.0119472
9.724e-05
0.0143133
0.000134724
0.0158829
0.000165845
0.0164854
0.000183215
0.0160518
0.00020808
0.0146514
0.000229169
0.00580933
5.22681e-06
6.08509e-06
-0.00163791
0.00164078
1.15828e-06
7.35387e-07
1.1458e-06
7.5e-07
-0.000502318
0.000502827
5.3688e-07
-0.000502077
4.07547e-07
-0.000500953
2.17369e-07
6.54944e-07
-0.000290694
0.000291328
1.62471e-07
-0.000290655
1.88763e-07
-0.000290105
2.50437e-07
2.65113e-07
-8.26312e-05
8.27253e-05
-8.25756e-05
-8.29449e-05
3.62319e-05
0.00905256
6.82655e-05
0.0119762
0.000109683
0.0143383
0.000147973
0.0159007
0.000176296
0.0164923
0.000211647
0.0160482
0.00023476
0.00583391
5.92724e-06
5.72234e-06
-0.00164479
0.00164801
1.19529e-06
8.14491e-07
1.23498e-06
8.33102e-07
-0.000504215
0.000505162
2.11055e-07
-0.000503946
4.65742e-07
-0.000503253
4.53589e-07
3.23071e-07
-0.000292376
0.000292798
1.15264e-07
-0.000292087
1.17879e-07
-0.000291825
-4.43863e-08
1.58552e-07
-8.34296e-05
8.35921e-05
-8.32409e-05
-8.29904e-05
3.89655e-05
0.00908186
8.07327e-05
0.0120051
0.000124739
0.0143615
0.000161343
0.0159157
0.000200194
0.0165038
0.000223834
0.0058588
6.53907e-06
7.53846e-06
-0.00165129
0.00165516
1.3266e-06
7.3105e-07
1.52325e-06
9.14744e-07
-0.000506684
0.000507276
6.036e-07
-0.00050595
8.07905e-08
-0.000505218
5.03002e-07
7.77378e-07
-0.000293828
0.000293902
1.36771e-07
-0.000293323
-3.96587e-08
-0.000292999
1.29727e-07
1.21877e-07
-8.38241e-05
8.39394e-05
-8.37062e-05
-8.37506e-05
4.6704e-05
0.00911589
9.13453e-05
0.0120385
0.000134582
0.0143883
0.000175567
0.0159403
0.000199032
0.00588876
7.75843e-06
8.98091e-06
-0.00165993
0.00166401
1.52834e-06
9.29978e-07
1.67716e-06
1.09114e-06
-0.00050902
0.000509673
6.74125e-07
-0.000508794
5.04791e-07
-0.000507415
1.43975e-07
7.75739e-07
-0.000294804
0.000295469
-6.14997e-08
-0.000294847
1.23531e-07
-0.000294494
1.49816e-07
1.86263e-07
-8.41513e-05
8.4288e-05
-8.4191e-05
-8.40612e-05
5.55906e-05
0.00915165
0.000106888
0.0120662
0.0001466
0.0144173
0.000160366
0.00592439
9.89235e-06
1.00686e-05
-0.00166979
0.00167466
1.72394e-06
1.16266e-06
1.90132e-06
1.30178e-06
-0.000511687
0.000512706
5.08652e-07
-0.000511367
6.10378e-07
-0.0005103
6.09625e-07
4.64173e-07
-0.000296429
0.000297131
-2.75282e-08
-0.00029612
1.95385e-07
-0.000296104
1.28429e-07
1.40438e-07
-8.47476e-05
8.46861e-05
-8.46241e-05
-8.44743e-05
7.01523e-05
0.00918838
0.000111938
0.0121009
0.000117678
0.00596622
1.46231e-05
1.37023e-05
-0.00168105
0.00168762
1.39265e-06
1.92663e-06
1.57937e-06
2.10711e-06
-0.000515172
0.000515933
9.63166e-07
-0.000514325
3.154e-07
-0.000513154
7.30663e-07
8.54066e-07
-0.000298322
0.000298652
1.77997e-07
-0.000297886
1.74349e-07
-0.000297441
1.65399e-07
1.53578e-07
-8.51504e-05
8.51228e-05
-8.4955e-05
-8.48266e-05
8.19887e-05
0.00921833
7.39168e-05
0.00600574
2.35983e-05
1.88715e-05
-0.00169632
0.00170462
3.44642e-06
2.88099e-06
2.48663e-06
2.51392e-06
-0.000519385
0.000519741
1.03634e-06
-0.000518265
8.06439e-07
-0.000517096
4.10649e-07
9.44267e-07
-0.000300118
0.000300892
1.88341e-07
-0.000299983
1.81382e-07
-0.000299281
2.84762e-08
2.25112e-07
-8.56161e-05
8.57941e-05
-8.54418e-05
-8.52764e-05
4.43506e-05
1.56579e-05
4.24843e-05
-0.00171527
0.00172646
7.47194e-06
4.92719e-06
4.13654e-06
4.08648e-06
-0.000524679
0.000526185
1.94014e-06
-0.000523025
1.2271e-06
-0.000521172
6.33279e-07
1.08342e-06
-0.000302613
0.000303453
1.96525e-07
-0.000301835
2.91951e-08
-0.00030163
2.04892e-07
2.06928e-07
-8.62291e-05
8.64175e-05
-8.60477e-05
-8.60193e-05
-0.00174412
8.85908e-06
2.14351e-05
1.48185e-05
1.00065e-05
-0.000532872
0.000536611
3.73239e-06
-0.000530416
2.47145e-06
-0.000528546
2.26699e-06
1.72518e-06
-0.000305627
0.000307184
3.83293e-07
-0.000304701
3.01536e-07
-0.000304309
2.41665e-07
2.26572e-07
-8.68585e-05
8.7055e-05
-8.68293e-05
-8.66244e-05
-0.000550362
1.33454e-05
-0.000544175
1.52485e-05
-0.000539697
1.03398e-05
6.92133e-06
-0.000312015
0.00031476
9.87485e-07
-0.000310146
6.02226e-07
-0.000308481
6.0275e-07
4.27332e-07
-8.78248e-05
8.82081e-05
-8.75233e-05
-8.72816e-05
-0.000330476
2.05782e-05
-0.000325236
1.00089e-05
-0.00031964
4.74394e-06
2.04094e-06
-8.98404e-05
9.08279e-05
-8.92382e-05
-8.86355e-05
-0.000107622
-9.76128e-05
-9.28689e-05
-1.38767e-05
1.38774e-05
7.16408e-06
-2.10405e-05
-5.95326e-05
5.31688e-05
2.02432e-05
1.95916e-05
-7.19596e-05
3.54761e-06
-2.45871e-05
1.64588e-05
3.67132e-05
-0.000118723
0.000111837
2.71326e-05
3.00112e-05
-0.000129143
1.19929e-05
-8.04057e-05
1.57063e-06
-2.61587e-05
2.31858e-05
0.000105112
6.94478e-06
2.97709e-05
-0.000411802
6.45548e-05
0.000397572
-1.88687e-05
6.81745e-05
-0.000431092
-0.000136019
7.06383e-06
-8.59005e-05
8.19525e-07
-2.69788e-05
1.4899e-05
9.7161e-05
2.40339e-06
2.73685e-05
-4.21142e-05
-0.00143914
0.00139153
0.000154317
-6.8676e-06
0.000377227
-4.35632e-05
0.000164008
-0.0014914
-1.46492e-05
-0.000452288
-7.71626e-06
-0.000143605
4.09009e-06
-8.91715e-05
3.12341e-07
-2.72908e-05
9.26966e-05
1.06003e-06
2.63073e-05
-2.519e-05
0.000111108
-0.00201633
0.00196055
0.00021012
-4.43185e-06
-1.89527e-06
0.000222289
-0.0020746
-3.17854e-05
0.000135077
-0.00157504
-1.96349e-05
-0.000473872
-6.5684e-06
-3.63018e-06
-0.00014723
2.34658e-06
-9.12033e-05
3.4877e-07
-2.76384e-05
8.93243e-05
4.89152e-07
2.58169e-05
0.000184461
-0.00234473
0.00228418
0.000270686
8.7918e-05
0.000283825
-0.00240626
0.000216375
-0.00215589
0.000120339
-1.84895e-05
-0.00166045
-1.64252e-05
-0.000486898
-3.97693e-06
-2.62723e-06
-0.000151452
-1.63706e-06
-0.000153444
-9.24913e-05
3.03051e-07
-2.79409e-05
2.22696e-07
0.000252833
-0.00241288
0.00235732
0.000326263
0.000338856
-0.0024679
0.0002901
-0.00247998
0.000213404
-0.00224895
-0.000499467
-2.86021e-06
-3.05573e-06
0.000127449
-1.87598e-05
-0.00174807
-2.10406e-05
-0.000509839
-4.41332e-06
-1.63465e-06
-0.00015586
-1.56023e-06
-0.000157183
-1.30214e-06
-9.37483e-05
2.96434e-07
-2.82363e-05
0.000312442
-0.0022046
0.00216298
0.000367895
0.000378005
-0.00224374
0.000350182
-0.00252798