/*--------------------------------*- C++ -*----------------------------------*\
| =========                 |                                                 |
| \\      /  F ield         | OpenFOAM: The Open Source CFD Toolbox           |
|  \\    /   O peration     | Version:  v1912                                 |
|   \\  /    A nd           | Website:  www.openfoam.com                      |
|    \\/     M anipulation  |                                                 |
\*---------------------------------------------------------------------------*/
FoamFile
{
    version     2.0;
    format      ascii;
    class       volVectorField;
    location    "380";
    object      U;
}
// * * * * * * * * * * * * * * * * * * * * * * * * * * * * * * * * * * * * * //

dimensions      [0 1 -1 0 0 0 0];


internalField   nonuniform List<vector> 
3753
(
(0.0489848 0.0207151 0)
(0.150259 0.061889 1.9067e-23)
(0.0484852 0.0205109 -8.87308e-24)
(0.252713 0.102051 0)
(0.148757 0.0612806 -9.37837e-24)
(0.0480074 0.020309 8.92615e-24)
(0.352127 0.139399 -6.70178e-21)
(0.250229 0.101054 -7.3317e-24)
(0.147309 0.0606864 -9.04766e-21)
(0.0475442 0.0201116 8.30296e-24)
(0.442212 0.171598 5.8945e-21)
(0.34868 0.138031 -6.43993e-21)
(0.247794 0.100073 7.40498e-21)
(0.145874 0.060098 8.38799e-24)
(0.0470795 0.0199157 -8.38929e-21)
(0.515356 0.195972 -5.1243e-24)
(0.437844 0.169886 5.67277e-21)
(0.345285 0.136688 0)
(0.245401 0.0991145 6.80014e-24)
(0.144455 0.0595145 -8.40816e-24)
(0.0466305 0.0197253 0)
(0.563953 0.210069 2.00992e-25)
(0.510159 0.193962 5.15243e-21)
(0.43354 0.168214 5.21238e-24)
(0.341951 0.135375 -5.96886e-21)
(0.243024 0.0981551 -6.8109e-24)
(0.143072 0.0589442 0)
(0.0461791 0.0195342 0)
(0.582021 0.212268 -4.78608e-24)
(0.558045 0.207815 -4.85442e-21)
(0.505053 0.192009 0)
(0.429323 0.166578 5.24697e-21)
(0.338643 0.134064 0)
(0.24068 0.0972072 0)
(0.141698 0.0583781 0)
(0.045727 0.0193426 -7.55573e-21)
(0.566758 0.20227 0)
(0.575547 0.20983 4.83196e-21)
(0.552251 0.205635 0)
(0.50004 0.190096 9.10306e-24)
(0.425135 0.164951 -1.46698e-23)
(0.33536 0.132763 0)
(0.23836 0.0962713 0)
(0.140326 0.0578113 0)
(0.0452858 0.0191542 6.97812e-24)
(0.519335 0.181257 5.43834e-24)
(0.559855 0.199701 -4.91269e-21)
(0.569199 0.207484 0)
(0.546563 0.203504 4.49868e-21)
(0.495071 0.1882 -9.11197e-24)
(0.420983 0.163336 3.81831e-25)
(0.332116 0.131479 0)
(0.236059 0.0953387 0)
(0.138966 0.0572498 0)
(0.044857 0.0189746 -7.01178e-24)
(0.44463 0.151669 3.00248e-24)
(0.512106 0.178596 -2.6637e-24)
(0.553096 0.197258 4.7396e-21)
(0.563007 0.205213 -4.40924e-21)
(0.540965 0.201406 4.33631e-21)
(0.490153 0.186321 0)
(0.416876 0.161736 9.28652e-24)
(0.328893 0.130198 0)
(0.233783 0.0944197 0)
(0.137643 0.0567027 -6.94804e-21)
(0.0444247 0.018795 0)
(0.350057 0.116658 -3.74602e-21)
(0.437098 0.14892 1.98178e-23)
(0.505069 0.176126 -5.03999e-21)
(0.5466 0.194931 1.8126e-23)
(0.55697 0.202991 -4.23534e-21)
(0.535443 0.199334 0)
(0.485289 0.18446 0)
(0.412795 0.160147 -4.28879e-24)
(0.325717 0.128938 0)
(0.231536 0.0935044 5.65049e-21)
(0.136322 0.0561603 6.68335e-21)
(0.0440001 0.0186154 0)
(0.244151 0.0794764 5.27325e-21)
(0.342006 0.113771 -3.55431e-24)
(0.42985 0.146462 -1.1142e-24)
(0.49848 0.173824 0)
(0.54036 0.192676 0)
(0.551063 0.200817 -1.63733e-23)
(0.529999 0.19729 4.02013e-21)
(0.480467 0.182619 0)
(0.408767 0.158577 4.29325e-24)
(0.322554 0.127679 0)
(0.229312 0.0926087 -5.42927e-21)
(0.135033 0.0556283 3.08203e-24)
(0.0435803 0.0184362 0)
(0.23444 0.0761685 -2.09132e-21)
(0.159216 0.051025 1.81907e-21)
(0.163365 0.0524285 -1.83574e-21)
(0.334491 0.111296 0)
(0.423419 0.144266 5.53543e-21)
(0.492326 0.171641 -4.79411e-21)
(0.534347 0.190505 0)
(0.545277 0.198687 -3.93915e-21)
(0.524629 0.195278 7.37969e-24)
(0.47571 0.1808 3.91782e-21)
(0.404777 0.157024 0)
(0.319457 0.126452 0)
(0.227132 0.0917239 -1.07788e-25)
(0.133754 0.0550997 -3.08723e-24)
(0.0431683 0.0182599 0)
(0.226199 0.0734702 9.27525e-22)
(0.146332 0.0470278 1.77769e-21)
(0.152924 0.0485635 1.8137e-21)
(0.104622 0.0332439 -1.61767e-21)
(0.108312 0.0343473 4.0787e-22)
(0.328491 0.10925 -6.45565e-21)
(0.417693 0.142273 5.33188e-21)
(0.486535 0.16959 -1.76037e-23)
(0.528527 0.188406 0)
(0.539615 0.196606 -7.59803e-24)
(0.519345 0.193298 -3.70974e-21)
(0.471025 0.179012 0)
(0.400856 0.155496 1.89994e-24)
(0.316402 0.125234 2.08687e-24)
(0.224993 0.0908573 -2.48643e-24)
(0.132497 0.0545777 0)
(0.0427851 0.0180969 0)
(0.221164 0.0716297 2.07611e-21)
(0.139141 0.0444459 -3.43547e-21)
(0.141717 0.0453227 0)
(0.0878441 0.0280491 -4.09876e-22)
(0.0970461 0.0302418 0)
(0.0630589 0.0198916 3.25445e-23)
(0.0653148 0.0206956 5.39916e-22)
(0.066671 0.0209977 -5.65824e-22)
(0.32362 0.107576 2.52124e-23)
(0.412504 0.14047 -7.43841e-25)
(0.481032 0.167648 6.59455e-25)
(0.522888 0.186376 0)
(0.534069 0.194568 0)
(0.514149 0.191352 0)
(0.466412 0.177247 0)
(0.396994 0.153988 -1.90211e-24)
(0.313417 0.124048 4.17134e-21)
(0.222899 0.0900042 -2.28184e-24)
(0.131304 0.0540801 5.66098e-21)
(0.0423917 0.0179319 0)
(0.217743 0.0704792 -1.93939e-21)
(0.13621 0.0433525 3.32327e-21)
(0.137327 0.0436617 -6.67822e-21)
(0.0817832 0.0257155 1.94381e-21)
(0.0834956 0.0264042 -4.01799e-22)
(0.0420309 0.013489 5.28154e-22)
(0.045436 0.0144195 1.80284e-23)
(0.0591884 0.0185516 -1.75326e-23)
(0.0524192 0.0155322 3.26673e-22)
(0.0364612 0.0115072 -5.09715e-22)
(0.0381568 0.0120094 7.6787e-24)
(0.0389643 0.0121928 7.9088e-24)
(0.319417 0.106158 0)
(0.40769 0.138812 -5.11326e-21)
(0.475776 0.165796 1.70503e-23)
(0.517402 0.184403 0)
(0.528636 0.192576 3.37781e-24)
(0.509048 0.18944 3.4371e-21)
(0.461867 0.175511 -3.47037e-21)
(0.393218 0.152516 -1.37092e-23)
(0.310495 0.122881 0)
(0.220869 0.0891739 -4.59074e-21)
(0.130122 0.0535901 5.42485e-21)
(0.0420177 0.0177746 0)
(0.214974 0.0696209 1.82503e-21)
(0.1344 0.0428135 3.18492e-21)
(0.135158 0.0429625 3.27359e-21)
(0.0802243 0.0251802 -2.98282e-21)
(0.0808274 0.0253762 3.8163e-21)
(0.0388658 0.0121243 4.10066e-24)
(0.0390813 0.0121833 -1.59081e-21)
(0.0402229 0.012644 5.77055e-22)
(0.0394002 0.0123665 -2.52761e-23)
(0.0138942 0.00452818 -3.65172e-22)
(0.0154167 0.00507189 0)
(0.0337778 0.0102171 -4.61042e-22)
(0.0230652 0.0055277 -2.40126e-22)
(0.0116703 0.00374266 3.59461e-22)
(0.0123257 0.00384713 0)
(0.0125662 0.00390805 0)
(0.31564 0.104897 5.90796e-21)
(0.403146 0.13725 4.91255e-21)
(0.470702 0.164016 7.90319e-24)
(0.512063 0.182487 3.69468e-21)
(0.523313 0.190622 -3.38192e-21)
(0.504026 0.187563 3.28528e-21)
(0.457429 0.173813 -3.32681e-21)
(0.38953 0.151073 3.50042e-21)
(0.307654 0.121743 0)
(0.218897 0.0883696 -4.3985e-21)
(0.128987 0.0531167 0)
(0.0416516 0.0176216 0)
(0.212525 0.0688555 1.79271e-21)
(0.132911 0.0423768 2.93306e-23)
(0.133531 0.0424986 0)
(0.0792996 0.0249159 -7.41034e-22)
(0.0797367 0.0250324 -2.94553e-21)
(0.0384191 0.0119772 3.97435e-24)
(0.0384617 0.0119769 -7.98344e-24)
(0.0386802 0.0120443 -1.04068e-21)
(0.0385775 0.0120385 4.01175e-24)
(0.0124127 0.00385008 -7.00881e-22)
(0.0124779 0.00387494 -1.75472e-24)
(0.0129219 0.00406788 -3.88747e-22)
(0.0125843 0.00392881 0)
(0.0109351 0.00354553 2.26906e-22)
(0.00640929 0.0014832 4.81282e-23)
(0.312117 0.103727 -1.15566e-20)
(0.398823 0.135775 9.33623e-24)
(0.465796 0.162294 -3.94359e-21)
(0.506842 0.180614 -3.55471e-21)
(0.518091 0.188712 1.55807e-24)
(0.499118 0.185722 -1.5724e-24)
(0.453083 0.172147 -6.37971e-21)
(0.385936 0.149662 -3.35038e-21)
(0.304898 0.120636 0)
(0.216982 0.0875825 0)
(0.127885 0.0526604 -2.37182e-24)
(0.0412834 0.0174656 4.88854e-21)
(0.210243 0.0681355 1.01476e-20)
(0.131522 0.0419496 2.89369e-24)
(0.132123 0.0420782 -3.01424e-21)
(0.0784835 0.0246779 -2.79907e-21)
(0.0788766 0.0247928 9.84552e-26)
(0.0380692 0.0118825 -9.77289e-22)
(0.0381255 0.0118747 9.78765e-22)
(0.0382914 0.0119184 0)
(0.0382124 0.0119242 -9.96981e-22)
(0.0122973 0.00381374 6.75141e-22)
(0.0123008 0.00381795 -6.79534e-22)
(0.0123617 0.00383475 -6.91695e-22)
(0.0123314 0.00383102 -6.86079e-22)
(0.308808 0.10263 -1.11063e-23)
(0.394656 0.134347 0)
(0.461011 0.160619 3.78679e-21)
(0.501739 0.178788 -3.41534e-21)
(0.512977 0.186834 -1.55948e-24)
(0.494307 0.183917 3.01779e-21)
(0.448849 0.17052 3.05008e-21)
(0.382435 0.148282 1.53113e-24)
(0.302215 0.119555 0)
(0.215135 0.0868269 0)
(0.126798 0.052207 -4.75193e-21)
(0.0409523 0.0173199 -1.11897e-23)
(0.208078 0.0674347 -3.31474e-21)
(0.130179 0.0415319 -2.87735e-21)
(0.130761 0.041655 -2.91426e-21)
(0.0776887 0.0244375 2.64719e-24)
(0.078085 0.0245566 2.73391e-24)
(0.0377038 0.0117724 0)
(0.0377821 0.0117732 -9.63019e-22)
(0.0379444 0.0118263 0)
(0.037881 0.0118254 3.74552e-24)
(0.012183 0.00378348 8.18775e-25)
(0.0122118 0.00378546 6.60543e-22)
(0.0122582 0.00379814 -6.69863e-22)
(0.0122264 0.00379599 6.61905e-22)
(0.305597 0.101562 5.45539e-21)
(0.390605 0.132968 2.08145e-24)
(0.456349 0.158988 3.6368e-21)
(0.496725 0.176989 0)
(0.507958 0.184993 0)
(0.489607 0.182149 0)
(0.444723 0.168928 2.85002e-24)
(0.379047 0.146943 3.06066e-21)
(0.299637 0.118514 0)
(0.21334 0.086087 -1.81181e-24)
(0.125748 0.0517639 -9.02594e-21)
(0.0406112 0.0171803 0)
(0.205953 0.0667528 -6.27783e-21)
(0.12889 0.041114 2.77602e-21)
(0.129455 0.0412395 2.81053e-21)
(0.0769117 0.0241996 -6.68585e-22)
(0.0772994 0.0243108 -2.64968e-24)
(0.0373418 0.0116621 0)
(0.0374157 0.0116642 0)
(0.0375748 0.0117122 -9.41662e-22)
(0.0375149 0.0117147 0)
(0.0120665 0.00374726 -6.36732e-22)
(0.0121023 0.00375125 1.28302e-21)
(0.0121613 0.00377388 -2.54976e-24)
(0.0121394 0.00376867 -6.45133e-22)
(0.302506 0.100539 0)
(0.386666 0.131622 -2.08489e-24)
(0.451768 0.157384 1.76083e-24)
(0.491807 0.175224 3.14683e-21)
(0.503037 0.183184 0)
(0.485016 0.180416 2.78514e-21)
(0.440711 0.167373 -2.78953e-21)
(0.375776 0.145642 0)
(0.297138 0.117499 1.51766e-24)
(0.211584 0.0853618 3.63627e-21)
(0.124731 0.051344 2.15192e-24)
(0.0402665 0.0170369 -8.07167e-24)
(0.203927 0.066094 1.53828e-21)
(0.127619 0.0407149 1.70537e-23)
(0.128184 0.0408369 2.72209e-21)
(0.0761527 0.0239559 -2.47719e-24)
(0.0765209 0.0240674 -6.57417e-22)
(0.0369745 0.0115476 0)
(0.0370391 0.0115477 8.90931e-22)
(0.0372241 0.0116045 0)
(0.0371562 0.011597 0)
(0.0119605 0.00371441 -6.19346e-22)
(0.0119917 0.0037186 6.23994e-22)
(0.0120389 0.0037346 6.2999e-22)
(0.0120125 0.00373085 -6.27136e-22)
(0.299489 0.0995319 0)
(0.382798 0.130301 -4.0796e-21)
(0.447253 0.155802 -3.35542e-21)
(0.48696 0.173485 -4.22316e-24)
(0.49821 0.181403 3.09184e-23)
(0.480538 0.178717 0)
(0.436836 0.165858 -2.66743e-21)
(0.372611 0.144376 0)
(0.294703 0.116508 -2.95829e-24)
(0.209878 0.0846614 0)
(0.12372 0.0509251 4.05484e-21)
(0.0399462 0.0169017 8.06085e-21)
(0.201932 0.0654477 -1.48392e-21)
(0.126401 0.040317 -2.58083e-21)
(0.126936 0.0404378 -2.6574e-21)
(0.0754186 0.0237299 -2.45961e-21)
(0.0757932 0.0238373 2.48011e-24)
(0.0366174 0.011431 0)
(0.0366854 0.0114372 3.39519e-24)
(0.0368427 0.0114863 8.75476e-22)
(0.0367667 0.011485 -3.39235e-24)
(0.011836 0.00367548 -6.01145e-22)
(0.0118586 0.0036779 6.05914e-22)
(0.0119312 0.00370158 -6.13747e-22)
(0.0118974 0.00369136 -6.10067e-22)
(0.296518 0.0985448 4.73039e-21)
(0.378973 0.128994 0)
(0.442801 0.154243 0)
(0.482179 0.171763 -2.83584e-21)
(0.493475 0.179646 5.2619e-24)
(0.476183 0.177048 2.51929e-21)
(0.433071 0.164378 1.26699e-24)
(0.369531 0.143143 0)
(0.292336 0.115547 1.44042e-24)
(0.208209 0.0839783 -3.26815e-21)
(0.122735 0.0505177 -3.17919e-23)
(0.0396248 0.0167652 3.81289e-21)
(0.199966 0.0648107 0)
(0.125187 0.0399352 -2.72798e-23)
(0.125731 0.0400556 0)
(0.0746982 0.0234981 -1.20398e-21)
(0.0750543 0.0236017 1.80116e-21)
(0.0362661 0.0113263 -8.34478e-22)
(0.0363258 0.0113244 3.24879e-24)
(0.0364787 0.0113721 0)
(0.0364197 0.0113706 0)
(0.0117202 0.00363771 -5.83738e-22)
(0.011758 0.00364664 5.87869e-22)
(0.0118054 0.00366235 0)
(0.0117755 0.00365846 -5.91609e-22)
(0.293583 0.0975674 0)
(0.37519 0.1277 -7.09706e-24)
(0.438375 0.152688 0)
(0.477449 0.170051 0)
(0.488825 0.177904 0)
(0.471934 0.175409 1.26261e-24)
(0.429416 0.162935 -2.41665e-21)
(0.366541 0.141944 0)
(0.290019 0.114611 2.71451e-21)
(0.206574 0.0833099 -3.10231e-21)
(0.121762 0.0501109 -3.01098e-23)
(0.0392933 0.0166257 -6.84943e-24)
(0.19803 0.0641824 -1.38242e-21)
(0.124006 0.039555 2.42279e-21)
(0.124528 0.0396738 0)
(0.0739859 0.0232769 2.30181e-21)
(0.0743402 0.0233791 -9.08509e-24)
(0.0359179 0.0112141 7.98626e-22)
(0.0359927 0.0112257 8.05693e-22)
(0.0361481 0.0112681 8.16674e-22)
(0.0360749 0.0112615 -3.1625e-24)
(0.0116051 0.00360465 -1.71396e-24)
(0.0116371 0.00360804 5.70479e-22)
(0.0116786 0.00362369 -5.77782e-22)
(0.0116596 0.00361931 -5.73594e-22)
(0.290675 0.0965948 -8.47696e-24)
(0.371411 0.126406 7.10378e-24)
(0.43395 0.151129 -1.1463e-23)
(0.472746 0.168334 5.032e-24)
(0.484256 0.176178 4.5968e-24)
(0.467798 0.173798 2.28582e-21)
(0.425858 0.161527 0)
(0.363615 0.140776 -5.2692e-24)
(0.287755 0.113696 0)
(0.204949 0.082641 -2.92614e-21)
(0.120784 0.0497031 3.41463e-21)
(0.0389619 0.016485 3.41208e-21)
(0.196113 0.0635563 -1.31987e-21)
(0.122844 0.0391838 2.30546e-21)
(0.123365 0.0393049 0)
(0.0732871 0.023057 -2.21243e-21)
(0.0736497 0.0231626 0)
(0.0355834 0.0111113 -7.74414e-22)
(0.0356499 0.0111159 0)
(0.035786 0.0111545 0)
(0.0357397 0.0111546 0)
(0.0115 0.00357081 -1.06527e-24)
(0.011531 0.00357949 -5.51424e-22)
(0.011585 0.00359315 -5.60731e-22)
(0.011556 0.0035856 0)
(0.287758 0.0956194 4.32335e-21)
(0.367585 0.125094 1.30864e-23)
(0.429479 0.149543 2.91309e-21)
(0.468062 0.166604 2.54725e-21)
(0.479759 0.174453 -4.58907e-24)
(0.463749 0.172217 2.0672e-24)
(0.422375 0.160154 -2.15598e-21)
(0.360751 0.139634 0)
(0.285498 0.112781 0)
(0.203322 0.0819707 -2.76275e-21)
(0.119802 0.0492917 -6.45571e-21)
(0.0386386 0.016345 3.18614e-21)
(0.194205 0.0629332 -3.70108e-21)
(0.121686 0.0388117 4.44794e-21)
(0.122203 0.038929 8.76909e-24)
(0.0726138 0.0228455 -5.34724e-22)
(0.0729611 0.0229474 -8.45427e-24)
(0.0352485 0.0110054 -7.44049e-22)
(0.0353219 0.0110176 -2.91947e-24)
(0.0354737 0.011055 0)
(0.0354166 0.0110575 0)
(0.0113929 0.00353743 -3.65671e-24)
(0.0114165 0.00354184 -5.34229e-22)
(0.0114602 0.00355464 -5.41327e-22)
(0.0114425 0.00355011 5.39065e-22)
(0.284795 0.0946297 8.15324e-24)
(0.363659 0.123745 -3.25396e-21)
(0.424935 0.147911 -2.71372e-21)
(0.463363 0.164836 2.44666e-21)
(0.475318 0.172741 -1.03442e-24)
(0.459776 0.170671 -2.06385e-24)
(0.418959 0.158813 3.86612e-24)
(0.357905 0.138501 -8.02482e-24)
(0.283245 0.111868 0)
(0.201694 0.0812974 3.04718e-23)
(0.118816 0.0488743 1.14722e-23)
(0.0383014 0.0162019 3.02906e-21)
(0.192273 0.0623002 1.24247e-21)
(0.120555 0.0384481 -2.12688e-21)
(0.121072 0.0385694 -2.19774e-21)
(0.0719334 0.0226281 -2.05473e-21)
(0.0722832 0.0227294 0)
(0.0349266 0.0109065 0)
(0.0349943 0.0109158 7.16602e-22)
(0.035132 0.0109491 7.38776e-22)
(0.0350838 0.0109546 2.8347e-24)
(0.0112915 0.00350449 -1.70349e-24)
(0.011321 0.00351531 -5.16685e-22)
(0.01137 0.00352424 5.28506e-22)
(0.0113397 0.00352131 -5.21073e-22)
(0.281705 0.0935971 -1.50395e-23)
(0.359546 0.122316 -3.20441e-21)
(0.420238 0.146189 -2.61208e-21)
(0.458638 0.163038 -2.33251e-21)
(0.470928 0.171054 1.03269e-24)
(0.455874 0.169166 0)
(0.41558 0.157492 -1.11619e-23)
(0.355062 0.137367 8.02216e-24)
(0.280987 0.110949 2.16744e-21)
(0.200066 0.0806208 -9.12959e-24)
(0.117815 0.0484495 -7.72289e-25)
(0.0379599 0.0160602 -1.13653e-23)
(0.190264 0.0616423 1.18124e-21)
(0.119417 0.0380788 -3.97351e-24)
(0.11994 0.0382062 -2.07137e-21)
(0.0712833 0.0224247 5.93923e-24)
(0.0716258 0.0225243 2.00596e-21)
(0.0346077 0.0108043 0)
(0.0346657 0.0108068 -1.36694e-24)
(0.0348288 0.0108536 -2.75619e-24)
(0.0347696 0.0108543 4.12584e-24)
(0.0111899 0.00347401 -4.97377e-22)
(0.0112104 0.00348098 0)
(0.0112498 0.00348715 -5.06979e-22)
(0.0112268 0.00348707 -5.03808e-22)
(0.278345 0.092475 -9.55342e-23)
(0.35512 0.120754 0)
(0.415361 0.144358 5.0748e-21)
(0.453899 0.161235 0)
(0.466604 0.169417 7.34574e-24)
(0.452027 0.167693 0)
(0.412217 0.156176 1.41753e-23)
(0.352225 0.136232 0)
(0.278737 0.110027 -2.02777e-21)
(0.198411 0.0799291 9.13381e-24)
(0.116812 0.048026 -2.06705e-23)
(0.0376058 0.0159125 2.60749e-21)
(0.188029 0.0609205 5.57885e-21)
(0.118256 0.0377022 -1.96873e-21)
(0.118818 0.0378443 -2.02343e-21)
(0.0706309 0.0222156 3.24449e-24)
(0.0709606 0.0223151 4.95975e-22)
(0.0343016 0.0107074 1.30345e-24)
(0.0343652 0.0107172 -1.30257e-24)
(0.0345112 0.0107596 0)
(0.0344505 0.0107552 0)
(0.0110766 0.00343771 4.80154e-22)
(0.0111114 0.00344631 -4.82815e-22)
(0.01116 0.00345854 9.66063e-25)
(0.0111347 0.00345701 -4.88278e-22)
(0.274554 0.0912005 0)
(0.350243 0.118968 -5.87895e-21)
(0.410312 0.14245 1.20272e-24)
(0.449207 0.159499 7.69535e-24)
(0.46237 0.167834 -3.98649e-25)
(0.448229 0.166236 0)
(0.408871 0.154859 -1.73092e-21)
(0.349393 0.13509 1.7601e-21)
(0.276463 0.109092 7.62068e-24)
(0.196754 0.0792326 -7.91111e-24)
(0.115789 0.0475928 -2.42816e-21)
(0.0372465 0.0157594 -4.49459e-24)
(0.185363 0.0600631 0)
(0.116938 0.0372795 1.91889e-21)
(0.117598 0.0374531 -1.91023e-21)
(0.0699704 0.0220075 0)
(0.0703207 0.0221088 1.39293e-21)
(0.0339953 0.0106128 -2.83601e-24)
(0.0340623 0.0106192 -6.40227e-22)
(0.034196 0.0106606 -6.53131e-22)
(0.0341519 0.0106627 -1.26502e-24)
(0.0109913 0.00340982 4.64134e-22)
(0.0110126 0.00341756 -4.66677e-22)
(0.0110545 0.00342981 -4.74944e-22)
(0.0110308 0.00342597 -4.70748e-22)
(0.269919 0.0895888 1.69161e-21)
(0.344868 0.116934 -2.86861e-21)
(0.405265 0.140632 0)
(0.444673 0.157852 -4.16678e-25)
(0.45824 0.166285 -1.35346e-23)
(0.444468 0.164785 1.62444e-21)
(0.40553 0.153538 6.47404e-24)
(0.346551 0.133941 1.65204e-21)
(0.274173 0.108143 0)
(0.195078 0.0785286 1.97017e-21)
(0.114746 0.0471482 2.24673e-21)
(0.0368941 0.0156093 1.27118e-23)
(0.18161 0.0588583 2.61604e-21)
(0.115205 0.0367383 -1.41479e-23)
(0.116164 0.0370022 1.87409e-21)
(0.0692638 0.0217835 -2.23049e-21)
(0.0696389 0.0218921 1.40245e-23)
(0.0336941 0.0105156 0)
(0.033763 0.010529 0)
(0.0338963 0.0105666 -1.2401e-24)
(0.0338408 0.0105624 6.24372e-22)
(0.010882 0.00337704 4.44714e-22)
(0.0109176 0.00338549 -4.51236e-22)
(0.0109572 0.00339943 0)
(0.0109423 0.00339902 0)
(0.26408 0.0873989 3.33677e-21)
(0.339391 0.115024 -1.94782e-23)
(0.400503 0.138962 -2.14639e-21)
(0.440343 0.156267 -7.29367e-24)
(0.454203 0.16476 -1.65951e-21)
(0.44074 0.16334 -5.84074e-24)
(0.402192 0.152214 -1.5024e-21)
(0.343686 0.132777 -5.78542e-24)
(0.271879 0.107191 1.62901e-21)
(0.193387 0.0778143 -1.80739e-21)
(0.113714 0.0467054 -2.06095e-21)
(0.0365245 0.0154519 -8.22576e-24)
(0.174836 0.056448 1.56916e-23)
(0.112001 0.0357464 4.16525e-23)
(0.113877 0.0363605 -1.79058e-21)
(0.0683474 0.0215023 -1.1771e-23)
(0.0688823 0.0216454 -1.71419e-21)
(0.0334032 0.0104249 -5.17812e-24)
(0.0334542 0.0104314 1.17048e-24)
(0.0335871 0.0104703 0)
(0.0335379 0.0104684 -1.17047e-24)
(0.0107958 0.0033481 0)
(0.0108251 0.00335921 -4.3488e-22)
(0.0108608 0.00336963 -4.41173e-22)
(0.0108388 0.00336614 -4.38871e-22)
(0.257857 0.085327 1.2899e-23)
(0.334472 0.113365 2.40243e-21)
(0.396148 0.137406 1.60805e-23)
(0.436205 0.154736 1.71146e-21)
(0.450249 0.163262 0)
(0.437045 0.161905 5.84462e-24)
(0.398861 0.150888 1.42436e-21)
(0.340832 0.131611 -1.41918e-21)
(0.269573 0.106229 -5.61821e-24)
(0.191702 0.0770946 1.95216e-23)
(0.112662 0.0462479 1.87254e-21)
(0.0361423 0.01529 0)
(0.16666 0.0539285 -5.16956e-22)
(0.103081 0.0325691 -1.38406e-23)
(0.108624 0.0346477 -2.78104e-23)
(0.0665037 0.0209839 5.06983e-23)
(0.0676373 0.0213023 4.06704e-22)
(0.0330678 0.0103219 5.68361e-22)
(0.0331563 0.0103368 -1.14572e-21)
(0.0333149 0.0103804 1.14812e-24)
(0.0332464 0.0103679 0)
(0.0107036 0.00332096 8.34217e-22)
(0.010728 0.0033287 -4.20107e-22)
(0.0107557 0.00333704 -4.27385e-22)
(0.0107403 0.00333625 -4.2369e-22)
(0.252856 0.0836542 3.00745e-21)
(0.33029 0.111899 0)
(0.392118 0.135944 0)
(0.432227 0.153262 1.25431e-23)
(0.446375 0.161789 0)
(0.433389 0.160479 -2.73519e-21)
(0.395552 0.149561 0)
(0.337982 0.13044 1.32952e-21)
(0.267272 0.105256 1.38247e-21)
(0.189997 0.0763594 -1.50561e-21)
(0.111581 0.0457795 -1.6731e-21)
(0.0357586 0.0151294 -2.8941e-24)
(0.161836 0.0521522 -3.00322e-21)
(0.0931847 0.0298028 7.91642e-22)
(0.0967636 0.0308189 8.60266e-22)
(0.0570441 0.017638 0)
(0.0642601 0.0202455 -2.50505e-22)
(0.0322906 0.0101133 0)
(0.0326196 0.0101833 4.31965e-24)
(0.0329314 0.0102714 -6.39544e-24)
(0.0327891 0.0102415 -4.3305e-24)
(0.0106075 0.00329178 -4.03626e-22)
(0.0106365 0.00329823 4.04644e-22)
(0.0106841 0.00331262 -4.1302e-22)
(0.0106577 0.00330545 -4.10001e-22)
(0.249162 0.082352 -2.26627e-23)
(0.326643 0.110596 0)
(0.38835 0.134579 0)
(0.428391 0.151838 -1.25651e-23)
(0.442578 0.16034 1.36337e-21)
(0.429774 0.159059 3.40928e-25)
(0.392266 0.148234 2.7692e-23)
(0.33514 0.129258 0)
(0.264967 0.104276 1.25213e-21)
(0.188275 0.075616 2.68186e-21)
(0.110504 0.0453119 0)
(0.0353601 0.0149609 4.13941e-24)
(0.159213 0.0511649 8.35478e-22)
(0.0904381 0.0285952 -1.2167e-23)
(0.0913899 0.0289329 -7.63002e-22)
(0.0449374 0.0141906 -1.19622e-21)
(0.047986 0.015495 2.45329e-22)
(0.018938 0.00444086 0)
(0.0279181 0.00829813 0)
(0.0317267 0.010003 1.63844e-23)
(0.0305182 0.00946831 2.46103e-22)
(0.0103804 0.00322644 -3.88095e-22)
(0.0104951 0.00325213 3.92129e-22)
(0.0105727 0.00328007 -2.53782e-24)
(0.0105331 0.00326968 -3.95334e-22)
(0.246206 0.0813171 2.82816e-21)
(0.323347 0.109428 0)
(0.384795 0.133291 6.66621e-24)
(0.424675 0.150452 0)
(0.438855 0.158912 0)
(0.426206 0.157648 -1.16643e-21)
(0.388994 0.146902 -1.1467e-21)
(0.332308 0.128074 -1.09913e-21)
(0.262654 0.103285 -1.12067e-21)
(0.186559 0.0748667 1.18218e-21)
(0.109408 0.0448281 -1.28038e-21)
(0.0349506 0.0147918 1.16032e-21)
(0.157379 0.0505832 -4.20382e-21)
(0.0892861 0.0282112 -1.49759e-21)
(0.0897267 0.0283037 1.21608e-23)
(0.0437071 0.0136158 -3.60549e-22)
(0.0441277 0.0137701 0)
(0.0103379 0.00325424 3.8268e-22)
(0.0106083 0.00334996 -1.9827e-22)
(0.0126987 0.00398382 -2.13225e-22)
(0.0113004 0.00375839 0)
(0.00523614 0.00117965 0)
(0.009055 0.00290789 1.67388e-22)
(0.0101889 0.00319676 3.84234e-22)
(0.00972264 0.00311281 1.75075e-22)
(0.243657 0.0804473 0)
(0.320316 0.108361 2.10345e-21)
(0.381402 0.132058 -1.3006e-23)
(0.421072 0.149105 -1.43313e-21)
(0.435205 0.157501 -1.25593e-21)
(0.422678 0.156243 1.0813e-21)
(0.385764 0.145573 3.85584e-24)
(0.32949 0.12688 0)
(0.260357 0.102286 -9.89128e-22)
(0.18483 0.0741015 1.03055e-21)
(0.108284 0.044334 -2.32287e-24)
(0.0345306 0.0146149 0)
(0.155827 0.0501192 8.26785e-22)
(0.0884633 0.0279937 1.4269e-21)
(0.0888007 0.0280494 1.15192e-23)
(0.0432571 0.0134813 0)
(0.0434538 0.013539 3.54989e-22)
(0.0102147 0.00317504 -7.13004e-25)
(0.0102257 0.00316756 -3.72188e-22)
(0.0102975 0.00320077 3.82404e-22)
(0.0102544 0.00318782 0)
(0.241375 0.0796763 -2.47067e-21)
(0.317474 0.10736 0)
(0.37815 0.130874 1.54719e-21)
(0.417565 0.147784 1.2881e-21)
(0.431623 0.156107 1.17821e-21)
(0.419206 0.154844 7.97974e-24)
(0.382556 0.144239 -3.85529e-24)
(0.32669 0.125679 9.13407e-22)
(0.258051 0.101273 8.82425e-22)
(0.183072 0.0733202 -7.64524e-25)
(0.107149 0.0438301 -8.75802e-22)
(0.0341031 0.0144334 0)
(0.154452 0.0496905 -8.05025e-22)
(0.0877174 0.027783 -1.37188e-21)
(0.0880398 0.0278426 0)
(0.0429242 0.0133888 1.30802e-24)
(0.0430903 0.0134403 -3.47269e-22)
(0.0101603 0.00315619 -3.49866e-22)
(0.0101689 0.00315103 -3.53675e-22)
(0.0101992 0.00316051 -3.59177e-22)
(0.0101912 0.0031674 -3.5792e-22)
(0.23926 0.0789598 -1.89126e-23)
(0.314773 0.106405 0)
(0.375009 0.129724 -5.6724e-24)
(0.414146 0.146487 -1.20326e-21)
(0.428111 0.154725 0)
(0.415777 0.153447 -7.34178e-24)
(0.379383 0.142901 -1.70925e-21)
(0.323904 0.124468 -7.7422e-22)
(0.255744 0.100247 0)
(0.181303 0.0725246 7.0405e-22)
(0.105987 0.0433087 0)
(0.0336565 0.0142461 0)
(0.153167 0.0492773 -7.56501e-22)
(0.0870224 0.0275633 0)
(0.0873087 0.0276244 2.69643e-21)
(0.0425865 0.0132982 2.56471e-24)
(0.0427687 0.013349 -3.86838e-24)
(0.0101008 0.0031355 -6.6063e-25)
(0.0101156 0.0031332 -3.39251e-22)
(0.0101401 0.00314371 6.79115e-25)
(0.0101393 0.00314991 -6.49915e-25)
(0.237256 0.0782795 9.23205e-24)
(0.312182 0.105488 -1.80637e-21)
(0.371967 0.128603 3.12887e-25)
(0.410813 0.145208 1.20195e-21)
(0.424662 0.153352 0)
(0.412402 0.152051 8.35106e-22)
(0.376246 0.141557 0)
(0.321132 0.123245 1.42937e-24)
(0.253432 0.0992028 0)
(0.179514 0.0717103 0)
(0.104802 0.0427728 -4.46729e-22)
(0.0331892 0.0140526 0)
(0.151928 0.0488767 -1.45596e-21)
(0.0863239 0.02734 1.25591e-21)
(0.0866235 0.0274048 -4.97981e-24)
(0.0422525 0.0131925 4.91193e-24)
(0.0424197 0.0132461 -1.26271e-21)
(0.0100255 0.00311677 -3.21392e-22)
(0.010042 0.00311436 -3.27166e-22)
(0.0100776 0.00312365 -3.32725e-22)
(0.0100733 0.00313039 0)
(0.235348 0.0776286 -1.07001e-22)
(0.309697 0.104601 -1.72702e-21)
(0.36901 0.127501 -1.28713e-21)
(0.40756 0.143947 -1.13694e-21)
(0.421283 0.151985 -1.72026e-24)
(0.409071 0.150651 -1.44678e-24)
(0.373132 0.140201 0)
(0.318366 0.122003 0)
(0.251106 0.0981364 -1.95709e-25)
(0.177696 0.0708722 3.58533e-22)
(0.103577 0.0422193 -2.20178e-22)
(0.0327082 0.0138517 -8.94817e-26)
(0.150745 0.048487 1.95654e-21)
(0.0856683 0.027133 1.19117e-21)
(0.0859495 0.0271926 2.45586e-21)
(0.0419185 0.0130841 3.01071e-22)
(0.0420903 0.0131392 0)
(0.00994473 0.00309088 -3.10829e-22)
(0.00995959 0.00308805 6.08289e-25)
(0.00999828 0.00310091 -3.19416e-22)
(0.00999195 0.00310544 -3.16702e-22)
(0.233521 0.0769992 -1.05743e-22)
(0.30728 0.103731 -1.63422e-21)
(0.366147 0.126423 1.21473e-21)
(0.404383 0.142693 2.06487e-24)
(0.417965 0.15062 1.72023e-24)
(0.405792 0.149248 1.44689e-24)
(0.370049 0.138833 0)
(0.315611 0.120743 0)
(0.24876 0.0970453 1.95845e-25)
(0.175853 0.0700143 3.77324e-22)
(0.102316 0.0416449 0)
(0.0322092 0.0136459 3.20334e-22)
(0.149615 0.0481113 2.54178e-21)
(0.0850258 0.0269256 1.13471e-21)
(0.085304 0.0269861 1.1588e-24)
(0.0416121 0.012994 0)
(0.0417633 0.0130368 -1.15137e-21)
(0.00987665 0.00306537 -2.97373e-22)
(0.00989045 0.00306521 -5.89836e-25)
(0.00991884 0.00307561 -3.06482e-22)
(0.00991152 0.0030802 -3.0223e-22)
(0.231746 0.0763863 1.92476e-21)
(0.304952 0.102884 0)
(0.363362 0.125356 -1.22994e-21)
(0.40128 0.141446 0)
(0.414711 0.149255 0)
(0.402558 0.147836 0)
(0.366989 0.137449 -5.29427e-22)
(0.312856 0.11946 3.84961e-22)
(0.246403 0.0959286 -1.68196e-22)
(0.173961 0.0691243 1.84235e-23)
(0.101022 0.0410555 -1.97641e-25)
(0.0316859 0.0134345 2.26468e-25)
(0.148514 0.0477484 -6.28874e-22)
(0.0844204 0.0267242 1.08086e-21)
(0.0846806 0.0267852 -2.22723e-21)
(0.0412988 0.0128957 0)
(0.0414575 0.012942 0)
(0.00980659 0.00304718 0)
(0.00981276 0.00304345 -2.86983e-22)
(0.00984088 0.0030498 -2.93128e-22)
(0.00983634 0.00305672 -2.91068e-22)
(0.230042 0.0757927 1.92622e-21)
(0.302694 0.10205 1.38235e-21)
(0.36065 0.124295 -2.12692e-24)
(0.398245 0.140202 -1.6779e-24)
(0.411517 0.147888 0)
(0.399367 0.146413 5.0071e-22)
(0.363958 0.136045 -7.90221e-22)
(0.310092 0.118144 0)
(0.244012 0.0947783 -1.54372e-23)
(0.17203 0.0682065 0)
(0.0996715 0.0404471 5.27737e-25)
(0.0311531 0.013225 2.06895e-24)
(0.147459 0.0474005 -2.87238e-21)
(0.083811 0.026533 1.02462e-21)
(0.0840729 0.0265893 4.10073e-24)
(0.0410115 0.0127994 0)
(0.0411646 0.0128494 1.04797e-21)
(0.00972842 0.00302345 -1.06228e-24)
(0.00973644 0.00301957 -2.74569e-22)
(0.0097738 0.00303013 -2.8141e-22)
(0.00975961 0.00303342 -2.77984e-22)
(0.228394 0.0752146 0)
(0.300513 0.101225 0)
(0.358015 0.12324 1.62529e-24)
(0.395285 0.138962 -8.74285e-22)
(0.408385 0.146516 0)
(0.396224 0.144974 4.16544e-22)
(0.360939 0.134613 0)
(0.307317 0.116797 -1.92582e-26)
(0.241577 0.0935904 0)
(0.170045 0.0672599 3.76816e-22)
(0.0982643 0.0398306 -3.30493e-25)
(0.0306209 0.0130093 1.2135e-21)
(0.146436 0.0470713 5.65098e-22)
(0.083235 0.0263484 9.78759e-22)
(0.0834826 0.0264027 0)
(0.0407205 0.0127125 3.9057e-24)
(0.0408724 0.0127571 -3.90023e-24)
(0.00966278 0.00300075 -1.02408e-24)
(0.0096753 0.00299807 -2.62503e-22)
(0.00970381 0.00300925 -2.68331e-22)
(0.00969991 0.00301333 -2.65745e-22)
(0.226813 0.0746456 -1.75311e-21)
(0.298404 0.100399 0)
(0.355448 0.122188 9.41567e-22)
(0.392397 0.137725 0)
(0.405315 0.145134 0)
(0.393119 0.143514 -4.51206e-22)
(0.357931 0.133149 -6.95566e-26)
(0.304534 0.115415 1.92659e-26)
(0.239108 0.0923665 -5.49211e-22)
(0.167985 0.0662788 -5.9025e-22)
(0.0967954 0.0392325 0)
(0.0302337 0.0127115 -1.55667e-21)
(0.145447 0.0467684 2.07725e-21)
(0.0826517 0.0261831 -9.30607e-22)
(0.0829045 0.0262266 -9.50936e-25)
(0.0404406 0.0126248 0)
(0.0405849 0.012668 0)
(0.00959071 0.00298061 -2.48343e-22)
(0.00960464 0.00297795 -2.5111e-22)
(0.00963675 0.00298766 0)
(0.00963343 0.0029927 -2.54409e-22)
(0.22531 0.0740627 7.8045e-25)
(0.296351 0.0995744 0)
(0.352967 0.121153 -9.81587e-22)
(0.389584 0.136484 0)
(0.402308 0.143738 4.44292e-22)
(0.390052 0.142027 -1.30367e-25)
(0.35494 0.131651 6.9577e-26)
(0.301725 0.113988 1.17119e-22)
(0.236573 0.0910998 4.93327e-22)
(0.16588 0.0652892 0)
(0.0952257 0.0385794 0)
(0.030624 0.0124503 0)
(0.144628 0.0463256 -1.01948e-24)
(0.0821119 0.0261073 3.53614e-24)
(0.0823295 0.0260923 -9.28751e-22)
(0.0401563 0.0125399 0)
(0.0402998 0.012581 0)
(0.00952802 0.00295966 -2.37465e-22)
(0.0095414 0.00295909 -2.39968e-22)
(0.0095685 0.00296723 0)
(0.00956197 0.0029711 -2.42662e-22)
(0.223825 0.0734809 -7.79795e-25)
(0.294378 0.0987745 1.10235e-21)
(0.350559 0.120118 0)
(0.38685 0.135237 0)
(0.399361 0.142321 -5.13446e-22)
(0.387021 0.140508 1.30327e-25)
(0.35195 0.13011 1.15278e-23)
(0.298874 0.112516 -1.1134e-25)
(0.234026 0.0897961 0)
(0.163452 0.0642406 0)
(0.0952683 0.0378579 0)
(0.0265031 0.0100857 0)
(0.143692 0.046001 0)
(0.0818442 0.0257125 0)
(0.0818982 0.0260769 8.77084e-22)
(0.0397923 0.0124955 0)
(0.0399953 0.0125094 8.63984e-22)
(0.00946846 0.00293827 0)
(0.0094752 0.00293677 -2.29408e-22)
(0.00949906 0.0029454 -2.34839e-22)
(0.00949417 0.00294926 4.55376e-25)
(0.222407 0.0729239 0)
(0.29248 0.0979862 0)
(0.348242 0.119086 0)
(0.384191 0.133975 -1.38423e-22)
(0.396472 0.140879 -3.37922e-25)