/*--------------------------------*- C++ -*----------------------------------*\
| =========                 |                                                 |
| \\      /  F ield         | OpenFOAM: The Open Source CFD Toolbox           |
|  \\    /   O peration     | Version:  v1912                                 |
|   \\  /    A nd           | Website:  www.openfoam.com                      |
|    \\/     M anipulation  |                                                 |
\*---------------------------------------------------------------------------*/
FoamFile
{
    version     2.0;
    format      ascii;
    class       surfaceScalarField;
    location    "470";
    object      phi;
}
// * * * * * * * * * * * * * * * * * * * * * * * * * * * * * * * * * * * * * //

dimensions      [0 3 -1 0 0 0 0];
oriented        oriented;


internalField   nonuniform List<scalar> 
7351
(
-3.56275e-06
0.00134717
-1.32681e-05
0.00413244
-2.80653e-06
0.00134998
-3.39205e-05
0.00695038
-1.35487e-05
0.00414318
-3.84281e-06
0.00135383
-6.14545e-05
0.00968803
-3.36103e-05
0.00697044
-1.42332e-05
0.00415357
-2.79131e-06
0.00135662
-9.49464e-05
0.0121658
-6.04516e-05
0.00971487
-3.20701e-05
0.00698828
-1.1568e-05
0.00416235
-2.82798e-06
0.00135945
-0.000143478
0.0141816
-9.47838e-05
0.0122001
-5.59609e-05
0.00973877
-3.04101e-05
0.00700712
-1.15135e-05
0.00417104
-2.81385e-06
0.00136226
-0.000184864
0.0155121
-0.000136915
0.0142237
-9.18438e-05
0.012236
-5.5559e-05
0.00976392
-2.59544e-05
0.00702156
-1.13521e-05
0.00417958
-1.81807e-06
0.00136408
-0.000236658
0.0160074
-0.000186028
0.0155613
-0.000132867
0.0142647
-8.61207e-05
0.0122666
-4.58075e-05
0.00978377
-2.27735e-05
0.00703298
-9.36369e-06
0.00418712
-1.76629e-06
0.00136585
-0.000276734
0.015568
-0.000230352
0.0160517
-0.000177325
0.0156057
-0.000120633
0.0142993
-7.13323e-05
0.0122921
-4.15458e-05
0.00980254
-1.97718e-05
0.00704339
-7.30763e-06
0.00419266
-1.66553e-06
0.00136751
-0.000311062
0.0142459
-0.00027916
0.0156168
-0.000218783
0.0160932
-0.000150731
0.0156358
-9.9628e-05
0.0143276
-6.40401e-05
0.0123146
-3.72474e-05
0.00982002
-1.82633e-05
0.00705435
-6.43499e-06
0.00419743
-1.72081e-06
0.00136924
-0.000335482
0.012165
-0.00032275
0.0142895
-0.0002588
0.0156568
-0.000186223
0.0161287
-0.000130025
0.0156662
-8.27396e-05
0.0143463
-5.22993e-05
0.0123296
-2.77754e-05
0.00982953
-1.53029e-05
0.00706322
-6.94612e-06
0.00420266
-1.73869e-06
0.00137098
-0.000343344
0.00952576
-0.000351996
0.0121942
-0.000277176
0.0143079
-0.000206189
0.0156768
-0.000148247
0.0161469
-0.000104209
0.0156877
-6.92786e-05
0.0143632
-4.2613e-05
0.0123445
-2.73068e-05
0.00984154
-1.19513e-05
0.00706822
-4.34639e-06
0.00420527
-1.34048e-06
0.00137232
0.00654746
-0.000193732
-0.000114261
-0.00037255
0.00954631
-0.000286808
0.0122039
-0.000211569
0.0143133
-0.000159273
0.0156878
-0.000112708
0.0161554
-7.88496e-05
0.0156973
-5.12123e-05
0.0143718
-3.56408e-05
0.0123528
-1.81421e-05
0.00984773
-1.20182e-05
0.00707589
-6.06582e-06
0.00420999
-7.15832e-07
0.00137303
0.00655292
-0.000177157
-0.000200851
-0.00215258
0.00211086
-0.000152011
-8.41645e-05
-0.000259707
0.00951921
-0.000190785
0.0121831
-0.000150834
0.0143048
-0.000110095
0.0156852
-8.71679e-05
0.0161637
-6.48492e-05
0.0157109
-4.52726e-05
0.0143815
-3.07493e-05
0.0123654
-2.27602e-05
0.00985847
-1.15386e-05
0.00708137
-4.83495e-06
0.00421411
-1.45047e-06
0.00137448
0.00648303
-5.9685e-05
-0.000130131
-0.00209323
0.00206945
-0.000153382
-0.000183215
-0.00137938
0.00132149
-6.22983e-05
-3.18257e-05
-2.48938e-05
-0.000141113
0.00946954
-0.000119139
0.0121514
-9.51573e-05
0.0142899
-7.90846e-05
0.0156771
-6.2334e-05
0.0161612
-4.58256e-05
0.0157114
-3.946e-05
0.0143902
-2.56311e-05
0.0123683
-1.72538e-05
0.00986418
-1.24009e-05
0.00708893
-5.61322e-06
0.00421828
-2.22914e-06
0.00137671
0.00639845
-1.08036e-05
-4.57325e-05
-0.00202114
0.00199779
-3.63285e-05
-8.18207e-05
-0.00130382
0.0012596
-3.89397e-05
-7.02221e-05
-8.31248e-05
-8.24172e-05
-0.000417615
0.000390571
-3.52537e-05
-0.000431507
-1.79342e-05
-9.68848e-06
-6.78003e-05
0.0094182
-6.50382e-05
0.0121213
-6.19592e-05
0.0142727
-5.07302e-05
0.0156655
-4.33165e-05
0.0161587
-3.77038e-05
0.0157097
-3.1881e-05
0.0143964
-2.50852e-05
0.0123761
-2.1724e-05
0.00987351
-1.35009e-05
0.00709682
-7.67209e-06
0.00422372
-1.21091e-06
0.00137792
0.00634762
-4.63314e-07
-1.65014e-05
-0.00196924
0.00196463
-6.19103e-06
-1.71883e-05
-0.00120675
0.00117643
-7.98584e-07
-5.2033e-06
-2.19456e-05
-7.03052e-06
-0.00032097
0.000302006
-1.99757e-05
-0.000344229
-4.69634e-05
0.000365381
-5.79355e-05
-6.12648e-05
-0.00023885
0.000213358
-9.761e-06
-0.000252883
-3.90097e-06
-1.63091e-06
-3.49931e-05
0.00938816
-3.8555e-05
0.0120979
-3.70275e-05
0.014259
-3.79518e-05
0.0156601
-3.19736e-05
0.016153
-3.35198e-05
0.0157113
-2.63724e-05
0.0143977
-2.87071e-05
0.0123831
-2.10966e-05
0.0098811
-1.55188e-05
0.00710467
-7.44003e-06
0.00422995
-2.88653e-06
0.00138081
0.00631546
4.02516e-06
-6.86181e-06
-0.00195158
0.00195215
-1.03404e-06
-3.45157e-06
-0.0011607
0.00115451
1.04933e-06
-1.04704e-06
-1.79014e-06
3.30043e-07
-0.000277126
0.000276731
-4.0341e-07
-0.000281829
-5.00317e-07
0.000286747
-6.68611e-06
-2.11243e-06
-0.000108175
8.81995e-05
-0.000155139
0.000176098
-2.06755e-05
-4.03058e-05
-7.07423e-05
6.09813e-05
-7.46433e-05
-1.45968e-05
0.0093642
-2.35114e-05
0.0120844
-2.47316e-05
0.0142458
-2.24315e-05
0.0156506
-2.92224e-05
0.0161487
-2.58803e-05
0.0157108
-3.69605e-05
0.014406
-3.37207e-05
0.0123957
-2.72051e-05
0.00989279
-1.85935e-05
0.00711582
-1.03551e-05
0.00423742
-1.9597e-06
0.00138277
0.0063014
3.67571e-06
-4.21036e-06
-0.00194599
0.00194913
8.86052e-07
-7.01274e-07
-0.00115107
0.00114975
2.59226e-07
2.5273e-08
-5.00106e-07
4.8138e-07
-0.000274251
0.000275097
2.03213e-07
-0.000275444
1.45968e-07
0.000274981
-4.08405e-08
-1.33026e-07
-7.89007e-05
7.84973e-05
-7.9401e-05
8.15134e-05
4.03058e-05
-6.17552e-06
0.00934686
-6.73932e-06
0.0120664
-1.25011e-05
0.0142359
-2.00409e-05
0.0156414
-2.53788e-05
0.0161482
-3.70125e-05
0.0157109
-3.42304e-05
0.0144065
-3.68272e-05
0.0124053
-3.09267e-05
0.00990512
-2.02956e-05
0.00712576
-1.07698e-05
0.00424623
-2.66135e-06
0.00138543
0.00629423
1.89909e-06
-9.04204e-07
-0.00194499
0.00194806
6.03686e-07
-6.94304e-08
-0.00114874
0.00114951
-1.59993e-07
2.71623e-07
-8.73939e-08
4.01478e-07
-0.000275002
0.000275196
6.55699e-08
-0.000275114
1.37062e-07
0.000274822
-2.25139e-07
1.89843e-07
-7.84694e-05
7.86726e-05
-7.83234e-05
7.84564e-05
-1.50858e-07
0.00934028
-6.38582e-06
0.0120603
-1.08238e-05
0.0142267
-1.47906e-05
0.0156308
-2.77651e-05
0.0161389
-4.11286e-05
0.0157178
-5.07942e-05
0.0144204
-4.38456e-05
0.0124183
-3.66482e-05
0.00992148
-2.57242e-05
0.00714072
-1.12282e-05
0.0042548
-3.42792e-06
0.00138886
0.00629146
1.98885e-06
6.25042e-07
-0.00194729
0.00194782
1.371e-06
-1.34429e-07
-0.0011489
0.00114951
1.40467e-07
-1.47465e-07
2.12756e-07
3.32943e-07
-0.000275736
0.000275541
3.44192e-08
-0.000275421
-4.34825e-08
0.000275097
1.11752e-08
7.82733e-08
-7.87744e-05
7.884e-05
-7.86373e-05
7.84475e-05
-3.24187e-07
0.00933421
4.30414e-07
0.012049
-6.22051e-06
0.0142181
-2.53968e-05
0.0156285
-3.88412e-05
0.0161366
-4.98884e-05
0.0157169
-5.85965e-05
0.0144352
-5.7766e-05
0.0124394
-4.66457e-05
0.0099424
-2.72134e-05
0.0071567
-1.12852e-05
0.00426265
-2.36659e-06
0.00139123
0.00628874
1.91225e-06
4.8574e-07
-0.00194819
0.00194873
1.45103e-06
2.49217e-07
-0.00114865
0.00115009
2.53211e-07
-3.18925e-07
3.3307e-07
3.91247e-07
-0.000275705
0.000275888
-4.25845e-08
-0.000276012
1.59677e-07
0.000275802
-4.8118e-08
1.23178e-07
-7.88859e-05
7.89203e-05
-7.89294e-05
7.88511e-05
5.52436e-06
0.00932912
6.80658e-07
0.0120421
-1.01125e-05
0.0142028
-2.46891e-05
0.0156143
-4.952e-05
0.0161363
-6.6829e-05
0.0157251
-7.22797e-05
0.0144497
-6.79204e-05
0.0124606
-4.96345e-05
0.00996482
-2.96652e-05
0.00717508
-1.43008e-05
0.00427459
-3.08051e-06
0.00139431
0.00628975
2.49133e-06
2.02024e-06
-0.0019483
0.00194991
2.95749e-07
9.2035e-07
-0.00115037
0.0011513
1.96536e-07
3.30014e-07
-3.09417e-07
2.72814e-07
-0.000276275
0.000276488
4.0052e-08
-0.000276737
1.43069e-07
0.000276207
1.39328e-08
-1.38547e-07
-7.91551e-05
7.91125e-05
-7.89954e-05
7.88722e-05
2.28378e-06
0.00932752
-2.66523e-06
0.0120347
-1.93962e-05
0.0141975
-4.26838e-05
0.0156075
-6.9569e-05
0.016139
-9.10408e-05
0.0157439
-9.60853e-05
0.0144779
-7.91771e-05
0.0124902
-5.44764e-05
0.00998963
-3.01284e-05
0.00719091
-1.22491e-05
0.00428376
-3.3976e-06
0.00139771
0.00628966
3.87279e-07
1.99318e-06
-0.00195064
0.00195197
1.15356e-06
1.29833e-06
-0.00115205
0.0011519
2.60565e-07
1.80029e-07
-1.55716e-07
3.2415e-07
-0.000276591
0.000277032
-2.44646e-07
-0.000276421
1.60247e-07
0.000276248
-6.96363e-08
9.96102e-08
-7.91309e-05
7.9171e-05
-7.89879e-05
7.91264e-05
2.14774e-06
0.0093227
-5.90094e-06
0.0120212
-2.30045e-05
0.0141779
-5.86183e-05
0.0155965
-9.06029e-05
0.0161386
-0.00011102
0.0157588
-0.000106577
0.0145053
-8.61631e-05
0.0125219
-5.93757e-05
0.0100189
-3.28214e-05
0.00721149
-1.35622e-05
0.00429392
-2.85834e-06
0.00140057
0.00628788
1.97439e-06
1.95485e-06
-0.00195375
0.00195278
1.35433e-06
2.14451e-07
-0.00115315
0.00115431
-2.84879e-07
2.75942e-07
-2.74733e-07
3.30923e-07
-0.000277141
0.000277372
2.93347e-08
-0.000277054
9.3864e-08
0.000276875
1.14039e-09
1.45046e-07
-7.93612e-05
7.91166e-05
-7.92009e-05
7.91013e-05
-1.78297e-07
0.00931698
-1.33154e-05
0.0120115
-4.54403e-05
0.0141647
-8.7691e-05
0.0155936
-0.000128089
0.0161556
-0.000138022
0.0157903
-0.000128952
0.0145481
-9.5345e-05
0.0125578
-5.90085e-05
0.0100451
-3.19671e-05
0.00722989
-1.14484e-05
0.00430251
-1.94065e-06
0.00140251
0.00628533
4.92018e-07
1.87336e-06
-0.00195387
0.00195544
4.02954e-07
8.69252e-07
-0.00115384
0.00115521
-1.756e-07
1.60156e-07
3.2552e-07
3.53913e-07
-0.000277483
0.000277462
-2.64066e-07
-0.000277311
1.03908e-07
0.000277089
8.20877e-09
1.08722e-07
-7.93566e-05
7.93859e-05
-7.92628e-05
7.91177e-05
-2.42642e-06
0.00930609
-2.39476e-05
0.01199
-6.98289e-05
0.0141468
-0.000126221
0.0155917
-0.000162799
0.0161804
-0.000170202
0.0158315
-0.000135716
0.0145884
-9.83065e-05
0.0125971
-6.07282e-05
0.0100738
-2.85001e-05
0.00724694
-1.09806e-05
0.00431155
-1.79227e-06
0.0014043
0.00628039
5.64768e-07
1.95074e-06
-0.00195617
0.00195627
3.86322e-07
1.15018e-06
-0.00115556
0.00115601
1.61125e-07
-2.0492e-07
3.45065e-07
1.7492e-07
-0.000278038
0.000277831
3.16713e-08
-0.000277939
6.06578e-08
0.00027776
2.79398e-08
1.75239e-07
-7.96068e-05
7.93428e-05
-7.95029e-05
7.93942e-05
-8.51727e-06
0.00929066
-4.52004e-05
0.0119653
-0.000109416
0.01413
-0.000170443
0.0155994
-0.000205093
0.0162153
-0.000182824
0.0158786
-0.000142631
0.0146328
-9.59278e-05
0.0126323
-5.14897e-05
0.0100968
-2.41077e-05
0.00726007
-8.76608e-06
0.00431852
-1.44278e-06
0.00140574
0.00627074
-8.02232e-07
1.93108e-06
-0.00195723
0.00195741
3.89021e-07
9.90968e-07
-0.00115652
0.00115698
2.6551e-07
-3.36922e-07
3.3404e-07
3.06266e-07
-0.000277938
0.000278341
-2.41938e-07
-0.00027823
8.6656e-08
0.000278112
6.35809e-08
5.74298e-08
-7.96066e-05
7.96382e-05
-7.95459e-05
7.93707e-05
-1.77732e-05
0.00926324
-7.66882e-05
0.0119326
-0.000161577
0.0141211
-0.000228617
0.0156229
-0.000230266
0.0162628
-0.000196585
0.0159326
-0.000142156
0.014679
-8.60281e-05
0.0126669
-4.67635e-05
0.0101195
-2.06565e-05
0.00727196
-5.81803e-06
0.0043229
-3.86986e-07
0.00140613
0.00625346
-2.51377e-06
2.02919e-06
-0.00195807
0.00195716
1.05322e-07
1.26961e-06
-0.0011579
0.0011578
1.54556e-07
3.35213e-07
3.48127e-07
-2.76471e-07
-0.000278388
0.000278679
-2.55212e-08
-0.00027881
8.50324e-08
0.000278616
5.88181e-08
1.12936e-07
-7.98459e-05
7.9604e-05
-7.97593e-05
7.97018e-05
-3.84798e-05
0.00922503
-0.000130429
0.0119015
-0.000234479
0.014127
-0.000275475
0.0156681
-0.000248707
0.0163149
-0.000187809
0.0159782
-0.000126257
0.0147192
-7.31901e-05
0.0126933
-3.87725e-05
0.0101376
-1.70662e-05
0.00728321
-3.45797e-06
0.00432597
-2.28977e-07
0.00140636
0.00622132
-8.37565e-06
2.02952e-06
-0.00195886
0.00195616
1.90554e-07
3.25622e-07
-0.00115888
0.00115901
-1.47494e-07
1.31638e-07
3.08647e-07
-1.27657e-07
-0.000279039
0.000279125
6.88903e-08
-0.00027856
-1.43917e-07
0.000278957
6.98616e-08
1.20473e-07
-7.98607e-05
7.98352e-05
-7.97757e-05
7.96628e-05
-7.6949e-05
0.00917155
-0.00020815
0.0118751
-0.000299166
0.0141507
-0.000296145
0.0157156
-0.000234446
0.0163615
-0.000168948
0.0160209
-0.000107315
0.0147533
-6.33036e-05
0.0127178
-3.24559e-05
0.010153
-9.90604e-06
0.00728965
-2.6517e-06
0.00432839
7.78526e-07
0.00140558
0.00616407
-1.8856e-05
-8.37282e-07
-0.00195772
0.00195104
-1.69553e-06
4.67685e-07
-0.00115885
0.001159
-2.9057e-07
3.31357e-07
3.13721e-07
1.63558e-07
-0.000279266
0.000279111
7.96475e-09
-0.000279251
1.16746e-07
0.000279424
9.61095e-09
4.51083e-08
-7.98816e-05
7.99505e-05
-8.00255e-05
7.99051e-05
-0.000146552
0.00910995
-0.000309836
0.0118858
-0.000341518
0.0141961
-0.000284368
0.0157655
-0.000209196
0.0164018
-0.000141219
0.0160548
-8.72373e-05
0.0147773
-4.79678e-05
0.0127334
-1.99001e-05
0.010163
-5.99378e-06
0.00729299
1.33521e-06
0.00432783
1.16751e-06
0.00140441
0.00607446
-4.62861e-05
-1.06566e-05
-0.00195178
0.00193708
-4.15753e-06
-1.57175e-06
-0.00115925
0.00115752
-1.05984e-07
1.4463e-07
3.19444e-07
-9.66253e-08
-0.000279934
0.000279583
5.97933e-08
-0.00027947
-1.32151e-07
0.000279412
1.25935e-08
1.05131e-07
-8.0122e-05
8.013e-05
-8.00053e-05
7.99601e-05
-0.000277834
0.00907795
-0.000369779
0.0119141
-0.000318372
0.0142301
-0.000237696
0.015794
-0.000169034
0.0164296
-0.000107447
0.016075
-6.40685e-05
0.0147934
-3.41184e-05
0.0127476
-1.15046e-05
0.0101685
-1.20387e-06
0.00729553
2.93069e-06
0.00432607
1.51637e-06
0.00140289
0.00597285
-0.000122071
-5.41547e-05
-0.00193371
0.00190367
-1.6246e-05
-7.29254e-06
-0.00115588
0.00115164
-2.34489e-07
3.13372e-07
3.10212e-07
-2.47453e-07
-0.000279761
0.000279848
-1.92978e-07
-0.000279736
1.19333e-07
0.000279886
1.69437e-08
5.36389e-08
-8.01156e-05
8.01754e-05
-8.02477e-05
8.01426e-05
-0.000386363
0.00909453
-0.000337115
0.0119328
-0.000252621
0.014245
-0.000183103
0.015808
-0.000123415
0.0164455
-8.00984e-05
0.0160911
-4.26471e-05
0.0148019
-1.74221e-05
0.0127535
-4.94983e-06
0.0101722
2.89686e-06
0.00729557
3.46703e-06
0.00432412
2.81982e-06
0.00140007
0.00596756
-0.000209824
-0.000171252
-0.00187932
0.00182082
-6.35742e-05
-2.97981e-05
-0.00114455
0.00112974
-1.55737e-06
1.17582e-07
3.70046e-07
-5.66372e-07
-0.000280039
0.000279735
6.99686e-08
-0.000279791
6.50964e-08
0.000280144
1.43712e-08
1.05085e-07
-8.03653e-05
8.01723e-05
-8.02459e-05
8.01923e-05
-0.000334045
0.00909146
-0.000238916
0.0119191
-0.000174904
0.0142368
-0.000128831
0.0158135
-8.85316e-05
0.016454
-5.58408e-05
0.0161042
-2.97112e-05
0.0148142
-1.08107e-05
0.0127593
3.67514e-06
0.0101714
6.42105e-06
0.00729261
7.07556e-06
0.00431986
3.37926e-06
0.00139669
0.00591197
-9.79655e-05
-0.000180488
-0.00178348
0.00175153
-0.000177877
-0.000133911
-0.00110402
0.00105332
-1.08991e-05
-1.96766e-06
-4.3348e-07
-3.64594e-06
-0.000279545
0.000278235
-2.47194e-07
-0.000279598
1.70478e-07
0.000280052
5.29023e-08
-1.1254e-07
-8.03568e-05
8.04268e-05
-8.02917e-05
8.01867e-05
-0.000182859
0.0090354
-0.000146765
0.011891
-0.000116412
0.0142244
-8.39314e-05
0.0158089
-5.73066e-05
0.0164554
-3.17066e-05
0.0161062
-1.39117e-05
0.0148173
-3.1125e-07
0.0127633
7.81885e-06
0.0101701
1.28897e-05
0.0072868
9.99515e-06
0.00431325
3.79534e-06
0.0013929
0.00580918
-1.78549e-05
-6.22149e-05
-0.00170688
0.00166668
-5.77707e-05
-0.000135835
-0.000972079
0.000924637
-6.65172e-05
-6.39177e-05
-1.45748e-05
-3.81001e-05
-0.000273209
0.000264122
-1.81214e-06
-0.000274586
-5.9072e-07
0.000278011
-2.09205e-07
-2.21378e-07
-8.05376e-05
8.02904e-05
-8.03671e-05
8.04797e-05
-8.52515e-05
0.00897389
-8.11667e-05
0.0118557
-6.90244e-05
0.0142095
-5.2101e-05
0.0158037
-3.35345e-05
0.0164573
-1.52169e-05
0.0161075
-5.48379e-07
0.0148175
1.19617e-05
0.0127592
1.58092e-05
0.0101671
1.44776e-05
0.00728232
9.51091e-06
0.00430753
4.81631e-06
0.00138808
0.00574212
1.50562e-07
-1.83392e-05
-0.0016275
0.00161683
-7.18212e-06
-2.30334e-05
-0.000857568
0.000807897
-1.35314e-06
-6.74598e-06
-4.90431e-05
-1.97236e-05
-0.000184341
0.000158469
-4.06458e-05
-0.000225726
-2.25325e-05
0.000253616
-4.06882e-06
-1.02098e-05
-7.92691e-05
7.7457e-05
-7.98598e-05
8.00812e-05
-4.03538e-05
0.00893307
-4.28229e-05
0.0118295
-3.81012e-05
0.0141955
-2.89703e-05
0.0157991
-1.58025e-05
0.0164579
-2.88127e-06
0.0161099
1.29482e-05
0.0148165
1.585e-05
0.0127592
2.0659e-05
0.0101609
1.75332e-05
0.00727429
1.35915e-05
0.00429876
5.06589e-06
0.00138301
0.00570572
3.29604e-06
-7.25704e-06
-0.00160214
0.00160265
-3.57759e-07
-3.65364e-06
-0.000785568
0.000778377
2.83084e-07
-2.74707e-07
-7.31077e-07
2.64314e-08
-8.29565e-05
8.16033e-05
-8.97025e-05
0.000109426
-4.06458e-05
-6.31783e-05
7.33881e-05
-1.79657e-05
0.00890822
-2.16843e-05
0.0118131
-1.83667e-05
0.0141849
-7.34717e-06
0.0157906
5.11632e-07
0.0164545
1.27489e-05
0.0161101
1.58782e-05
0.0148165
2.52969e-05
0.0127545
2.48838e-05
0.0101536
2.31811e-05
0.0072647
1.5665e-05
0.00428816
5.87763e-06
0.00137714
0.00568823
3.88641e-06
-4.35945e-06
-0.0015964
0.00159857
1.12304e-06
-1.00712e-06
-0.000774647
0.000774229
1.15226e-07
-5.58394e-08
-4.33865e-08
1.19884e-07
-8.06239e-05
8.09069e-05
-8.08986e-05
8.08722e-05
-4.51573e-06
0.00889105
-8.25418e-06
0.011803
-3.47648e-06
0.014181
3.48879e-06
0.0157877
1.4195e-05
0.016453
1.99332e-05
0.016106
3.18018e-05
0.01481
3.25756e-05
0.0127468
3.24615e-05
0.0101443
2.77543e-05
0.00725261
1.74081e-05
0.00427663
6.80487e-06
0.00137033
0.00568234
3.47045e-06
-2.097e-06
-0.00159412
0.00159793
8.0019e-08
9.2398e-08
-0.000772959
0.000774003
1.91651e-07
-1.13385e-07
1.01198e-07
1.6189e-07
-8.09276e-05
8.10427e-05
-8.09834e-05
8.08635e-05
-2.26109e-07
0.00888302
2.25411e-06
0.0117973
5.52456e-06
0.014179
1.18562e-05
0.01579
2.3982e-05
0.016449
3.06669e-05
0.0161072
3.19411e-05
0.0148106
3.61858e-05
0.0127431
3.49057e-05
0.0101372
3.11409e-05
0.00723888
2.06905e-05
0.00426274
7.79331e-06
0.00136254
0.00568033
2.75353e-06
-9.6934e-07
-0.00159547
0.00159807
8.73897e-07
3.58365e-07
-0.000773934
0.000774127
3.26546e-08
-1.45651e-07
8.70958e-08
7.42577e-08
-8.11924e-05
8.13839e-05
-8.13058e-05
8.11439e-05
2.72212e-06
0.00888255
8.90927e-06
0.0117939
1.57647e-05
0.014175
2.31922e-05
0.0157908
2.70921e-05
0.0164525
4.0549e-05
0.0160986
4.62845e-05
0.0148005
4.84008e-05
0.0127296
4.2752e-05
0.0101256
3.59404e-05
0.00722363
2.31345e-05
0.0042474
8.76307e-06
0.00135378
0.0056802
2.78993e-06
5.85364e-08
-0.00159727
0.00159912
8.98264e-07
-1.71586e-07
-0.000774368
0.000775314
4.69404e-08
-1.19564e-07
5.83062e-08
5.9208e-08
-8.13996e-05
8.14322e-05
-8.15453e-05
8.1471e-05
7.18606e-06
0.00888427
1.39746e-05
0.0117957
1.83326e-05
0.0141799
3.22207e-05
0.0157857
4.21735e-05
0.0164509
4.70245e-05
0.0160978
4.95961e-05
0.0147993
5.36396e-05
0.0127187
5.06874e-05
0.0101108
4.13476e-05
0.00720542
2.69299e-05
0.00422923
9.64224e-06
0.00134413
0.00568435
2.88534e-06
1.50784e-07
-0.00159852
0.0016007
6.0796e-07
6.5913e-07
-0.000775009
0.00077588
-5.83153e-08
8.5902e-08
6.35705e-08
6.92796e-08
-8.143e-05
8.14769e-05
-8.15496e-05
8.14904e-05
8.49212e-06
0.00888975
1.54195e-05
0.0117986
2.78968e-05
0.0141842
3.53995e-05
0.0157924
4.41684e-05
0.0164538
5.44336e-05
0.016093
6.17312e-05
0.0147913
6.07048e-05
0.0127087
5.82839e-05
0.0100939
4.52199e-05
0.00718713
3.00169e-05
0.00420886
1.09803e-05
0.00133315
0.00568844
3.05934e-06
1.34173e-06
-0.00160016
0.0016024
6.44002e-07
6.93907e-07
-0.000776398
0.000776894
5.14412e-08
5.96826e-08
6.60576e-08
7.52223e-08
-8.16956e-05
8.16373e-05
-8.16097e-05
8.15405e-05
1.04659e-05
0.00889471
1.988e-05
0.0118066
2.9049e-05
0.0141906
4.19627e-05
0.0157946
5.52611e-05
0.0164529
6.28171e-05
0.0160919
7.10374e-05
0.0147809
7.01842e-05
0.0126968
6.58926e-05
0.0100732
5.39976e-05
0.00716315
3.25183e-05
0.00418732
1.18869e-05
0.00132127
0.00569546
3.05969e-06
3.91439e-07
-0.00160301
0.00160527
7.99384e-07
7.30215e-07
-0.000777653
0.000778183
5.57902e-08
5.75602e-08
-1.17483e-07
5.29589e-08
-8.18382e-05
8.18896e-05
-8.17785e-05
8.17033e-05
1.17328e-05
0.00890285
2.18764e-05
0.0118138
3.53337e-05
0.0141972
4.67749e-05
0.0158031
6.1716e-05
0.016454
7.23158e-05
0.0160906
7.78042e-05
0.0147733
8.42783e-05
0.0126784
7.54859e-05
0.0100517
6.05102e-05
0.00713516
3.7833e-05
0.00416137
1.21813e-05
0.00130908
0.0057026
3.11131e-06
1.48197e-06
-0.0016049
0.00160722
7.43621e-07
7.64854e-07
-0.000778718
0.000779506
9.33837e-08
-8.23214e-08
6.82696e-08
1.27478e-07
-8.18826e-05
8.19384e-05
-8.18251e-05
8.17721e-05
1.17876e-05
0.00891294
2.44755e-05
0.0118246
4.14536e-05
0.0142025
5.88336e-05
0.015806
7.2084e-05
0.0164543
8.572e-05
0.0160827
9.35106e-05
0.0147641
9.28896e-05
0.012661
8.60957e-05
0.0100261
6.63231e-05
0.00710667
4.03037e-05
0.00413325
1.06016e-05
0.00129848
0.0057113
2.75175e-06
3.28777e-07
-0.00160792
0.00161028
7.56536e-07
7.76352e-07
-0.000780125
0.000780932
4.89363e-08
-1.13351e-07
7.26115e-08
7.36113e-08
-8.20518e-05
8.21451e-05
-8.21341e-05
8.20066e-05
1.31302e-05
0.00892429
2.84799e-05
0.0118376
4.60491e-05
0.0142153
6.52219e-05
0.0158129
8.08742e-05
0.0164591
9.39803e-05
0.0160822
0.00010561
0.0147513
0.000101749
0.0126454
9.52442e-05
0.0099972
7.54963e-05
0.00707147
4.30739e-05
0.00410078
1.31917e-05
0.00128529
0.00572241
1.14856e-06
8.73512e-07
-0.00160993
0.00161222
4.62858e-07
6.73704e-07
-0.00078157
0.000782381
-1.12382e-07
5.74368e-08
6.82958e-08
7.05328e-08
-8.2178e-05
8.22269e-05
-8.22913e-05
8.22177e-05
1.62712e-05
0.0089365
3.29504e-05
0.0118507
5.5327e-05
0.0142252
7.16216e-05
0.0158221
9.2478e-05
0.0164606
0.000107922
0.0160799
0.000117152
0.0147359
0.000120102
0.0126205
0.000106892
0.00996581
8.14763e-05
0.00703307
4.36257e-05
0.00407035
3.16917e-05
0.0012536
0.00573401
2.60876e-06
2.06825e-06
-0.00161322
0.00161617
-1.80141e-06
-1.31619e-07
-0.000782911
0.000783175
1.12547e-07
8.66078e-08
6.36336e-08
7.97162e-08
-8.24231e-05
8.23106e-05
-8.23657e-05
8.22951e-05
1.99801e-05
0.00894947
3.9704e-05
0.0118663
5.89556e-05
0.0142379
8.41249e-05
0.0158305
0.000105788
0.0164628
0.000123752
0.0160733
0.000132865
0.0147232
0.000128817
0.0125986
0.000118892
0.00992839
8.67783e-05
0.00698992
7.426e-05
0.00402778
7.38924e-05
0.00574434
5.47259e-06
4.17234e-06
-0.00162174
0.00161931
-1.47391e-06
6.51766e-06
-3.50197e-06
-0.000783137
0.000781333
1.08333e-08
-7.95681e-09
3.40841e-08
-1.28096e-07
-8.25406e-05
8.26531e-05
-8.2454e-05
8.23743e-05
2.44154e-05
0.00896476
4.17485e-05
0.0118835
6.68658e-05
0.0142551
9.08479e-05
0.0158454
0.00011563
0.0164709
0.000134959
0.0160712
0.000146856
0.0147051
0.000148015
0.0125694
0.000127307
0.00988787
0.000114903
0.00694928
0.000135814
0.00575805
5.47582e-06
5.23145e-06
-0.00162203
0.00162378
2.32497e-06
1.40555e-06
2.00277e-06
-5.5575e-07
-0.000486298
0.000491688
-6.86418e-06
-0.000461059
-1.8721e-05
0.000317029
-9.54083e-09
-2.47432e-07
-8.25511e-05
8.25619e-05
-8.25591e-05
8.26872e-05
2.40841e-05
0.00898242
4.88056e-05
0.0119016
7.5e-05
0.014271
0.000107847
0.0158532
0.0001355
0.0164703
0.000154949
0.0160631
0.000165295
0.0146879
0.000162168
0.0125346
0.000155105
0.00984766
0.000179201
0.00577345
4.30337e-06
4.38335e-06
-0.0016259
0.00162919
1.41491e-06
7.73946e-07
1.8547e-06
1.25604e-06
-0.000497063
0.000498174
1.21341e-06
-0.000496219
5.61176e-07
-0.000493512
-7.04042e-07
-2.37924e-06
-0.000295239
0.00028974
-1.36451e-06
3.06888e-06
8.25524e-05
8.2305e-05
2.7425e-05
0.0090038
5.34407e-05
0.0119232
8.57217e-05
0.0142931
0.000117202
0.0158715
0.000145876
0.0164794
0.000171604
0.0160568
0.00017793
0.0146721
0.000187204
0.0125025
0.000210856
0.00579052
4.75775e-06
5.59954e-06
-0.00163161
0.00163422
1.04465e-06
6.48577e-07
1.34129e-06
6.15635e-07
-0.000500375
0.000500993
7.9714e-07
-0.000499829
2.27264e-07
-0.000498773
7.99349e-07
6.5711e-07
-0.000288595
0.000289714
9.40014e-08
-0.000288089
5.53528e-08
-0.000288423
-3.69614e-07
-1.06284e-06
-8.53739e-05
8.40095e-05
3.02026e-05
0.00902704
6.17767e-05
0.0119471
9.72616e-05
0.0143131
0.000134757
0.0158826
0.000165888
0.0164851
0.000183265
0.0160515
0.000208134
0.0146512
0.000229227
0.00580941
5.22592e-06
6.087e-06
-0.00163793
0.00164079
1.15809e-06
7.35574e-07
1.14554e-06
7.50265e-07
-0.000502319
0.000502827
5.36821e-07
-0.000502078
4.07501e-07
-0.000500954
2.17118e-07
6.54807e-07
-0.000290694
0.000291329
1.62451e-07
-0.000290655
1.88656e-07
-0.000290106
2.50282e-07
2.64957e-07
-8.26323e-05
8.27263e-05
-8.2577e-05
-8.29466e-05
3.62382e-05
0.00905258
6.82819e-05
0.0119761
0.000109712
0.0143381
0.000148013
0.0159005
0.000176346
0.0164921
0.000211703
0.0160479
0.00023482
0.00583399
5.92665e-06
5.72459e-06
-0.00164481
0.00164802
1.19516e-06
8.14782e-07
1.23484e-06
8.33506e-07
-0.000504216
0.000505163
2.11076e-07
-0.000503946
4.65789e-07
-0.000503254
4.53458e-07
3.23069e-07
-0.000292376
0.000292798
1.15295e-07
-0.000292086
1.17836e-07
-0.000291825
-4.44573e-08
1.58503e-07
-8.34302e-05
8.35927e-05
-8.32416e-05
-8.29913e-05
3.89739e-05
0.00908188
8.07534e-05
0.012005
0.000124774
0.0143613
0.000161391
0.0159154
0.00020025
0.0165035
0.000223896
0.00585889
6.53895e-06
7.54132e-06
-0.00165131
0.00165518
1.32652e-06
7.31371e-07
1.52314e-06
9.15191e-07
-0.000506685
0.000507276
6.03651e-07
-0.000505951
8.08749e-08
-0.000505219
5.02921e-07
7.77439e-07
-0.000293828
0.000293902
1.36822e-07
-0.000293323
-3.96751e-08
-0.000292999
1.2969e-07
1.21868e-07
-8.38245e-05
8.39398e-05
-8.37067e-05
-8.37512e-05
4.6717e-05
0.00911592
9.13743e-05
0.0120384
0.000134627
0.0143881
0.000175622
0.0159401
0.000199095
0.00588886
7.75878e-06
8.98449e-06
-0.00165995
0.00166403
1.52836e-06
9.30422e-07
1.67714e-06
1.09168e-06
-0.000509021
0.000509674
6.74198e-07
-0.000508795
5.04894e-07
-0.000507416
1.43911e-07
7.7582e-07
-0.000294804
0.000295469
-6.14395e-08
-0.000294847
1.23524e-07
-0.000294494
1.49791e-07
1.86269e-07
-8.41517e-05
8.42886e-05
-8.41914e-05
-8.40617e-05
5.56076e-05
0.00915169
0.000106925
0.0120661
0.000146654
0.0144171
0.00016043
0.0059245
9.89349e-06
1.00733e-05
-0.00166981
0.00167468
1.72408e-06
1.16328e-06
1.90143e-06
1.30248e-06
-0.000511689
0.000512708
5.08778e-07
-0.000511369
6.10527e-07
-0.000510301
6.09597e-07
4.64285e-07
-0.00029643
0.000297131
-2.74626e-08
-0.00029612
1.95385e-07
-0.000296105
1.28412e-07
1.40452e-07
-8.47482e-05
8.46867e-05
-8.46246e-05
-8.44748e-05
7.01774e-05
0.00918844
0.000111986
0.0121008
0.000117743
0.00596635
1.46258e-05
1.37085e-05
-0.00168107
0.00168764
1.39294e-06
1.92747e-06
1.57961e-06
2.10801e-06
-0.000515175
0.000515935
9.63368e-07
-0.000514327
3.15626e-07
-0.000513156
7.30703e-07
8.54249e-07
-0.000298322
0.000298653
1.78076e-07
-0.000297886
1.74358e-07
-0.000297442
1.65389e-07
1.53598e-07
-8.5151e-05
8.51236e-05
-8.49556e-05
-8.48272e-05
8.20251e-05
0.0092184
7.398e-05
0.00600588
2.36057e-05
1.88815e-05
-0.00169635
0.00170465
3.44699e-06
2.88215e-06
2.48709e-06
2.51512e-06
-0.000519388
0.000519744
1.03666e-06
-0.000518267
8.06756e-07
-0.000517099
4.10764e-07
9.44537e-07
-0.000300119
0.000300894
1.88437e-07
-0.000299985
1.81405e-07
-0.000299282
2.8479e-08
2.25147e-07
-8.56169e-05
8.5795e-05
-8.54426e-05
-8.52772e-05
4.44071e-05
1.56759e-05
4.25056e-05
-0.0017153
0.0017265
7.47382e-06
4.92946e-06
4.13766e-06
4.08827e-06
-0.000524684
0.00052619
1.94061e-06
-0.000523029
1.22755e-06
-0.000521176
6.33519e-07
1.08382e-06
-0.000302614
0.000303454
1.96636e-07
-0.000301837
2.92392e-08
-0.000301631
2.04919e-07
2.06986e-07
-8.623e-05
8.64184e-05
-8.60486e-05
-8.60201e-05
-0.00174417
8.86627e-06
2.1443e-05
1.48228e-05
1.00111e-05
-0.000532879
0.000536619
3.73355e-06
-0.000530422
2.47238e-06
-0.000528552
2.26753e-06
1.72582e-06
-0.000305629
0.000307186
3.83446e-07
-0.000304703
3.01626e-07
-0.000304311
2.41723e-07
2.26652e-07
-8.68595e-05
8.70561e-05
-8.68303e-05
-8.66254e-05
-0.000550377
1.33516e-05
-0.000544187
1.52528e-05
-0.000539707
1.03423e-05
6.92334e-06
-0.000312019
0.000314765
9.87815e-07
-0.000310149
6.0241e-07
-0.000308484
6.02871e-07
4.27468e-07
-8.78261e-05
8.82095e-05
-8.75245e-05
-8.72828e-05
-0.000330486
2.05825e-05
-0.000325244
1.00108e-05
-0.000319646
4.74483e-06
2.04148e-06
-8.98422e-05
9.08299e-05
-8.92398e-05
-8.86369e-05
-0.000107627
-9.76162e-05
-9.28714e-05
-1.36879e-05
1.3688e-05
7.05957e-06
-2.07471e-05
-5.87262e-05
5.24517e-05
1.99631e-05
1.9301e-05
-7.09672e-05
3.49282e-06
-2.42394e-05
1.62284e-05
3.62237e-05
-0.000117147
0.000110359
2.67514e-05
2.95457e-05
-0.000127391
1.18096e-05
-7.92835e-05
1.54414e-06
-2.57832e-05
2.28428e-05
0.000103745
6.84475e-06
2.93794e-05
-0.00040659
6.35425e-05
0.000392644
-1.85747e-05
6.6936e-05
-0.000425404
-0.000134156
6.94599e-06
-8.46849e-05
8.04918e-07
-2.65877e-05
1.46781e-05
9.59126e-05
2.3619e-06
2.70179e-05
-4.12784e-05
-0.00142274
0.00137693
0.000150635
-6.73686e-06
0.000372781
-4.27791e-05
0.00016013
-0.00147314
-1.43978e-05
-0.000446202
-7.58162e-06
-0.000141608
4.01905e-06
-8.78985e-05
3.01221e-07
-2.68886e-05
9.15377e-05
1.04431e-06
2.59737e-05
-2.47092e-05
0.000107996
-0.00199731
0.00194358
0.000204366
-4.36334e-06
-1.84096e-06
0.00021643
-0.0020536
-3.09795e-05
0.000131488
-0.00155452
-1.91214e-05
-0.000467243
-6.40679e-06
-3.52956e-06
-0.00014517
2.28494e-06
-8.98816e-05
3.36456e-07
-2.72246e-05
8.82188e-05
4.77466e-07
2.54964e-05
0.000179002
-0.002329
0.00227022
0.000263152
8.68553e-05
0.000276391
-0.00238896
0.000210699
-0.0021328
0.000116979
-1.78345e-05
-0.00163774
-1.59193e-05
-0.00047996
-3.85642e-06
-2.54691e-06
-0.000149292
-1.58855e-06
-0.000151232
-9.11335e-05
2.91409e-07
-2.75157e-05
2.1381e-07
0.000245393
-0.00240641
0.00235183
0.000317736
0.000330715
-0.00246073
0.000283017
-0.00246127
0.000208077
-0.0022239
-0.000492106
-2.73787e-06
-2.94864e-06
0.000124278
-1.81246e-05
-0.00172337
-2.05113e-05
-0.000502212
-4.26349e-06
-1.54798e-06
-0.000153579
-1.50922e-06
-0.000154865
-1.26005e-06
-9.23512e-05
2.85615e-07
-2.78009e-05
0.000303783
-0.00221318
0.00217138
0.00035954
0.000370411
-0.00225287