/*--------------------------------*- C++ -*----------------------------------*\
| =========                 |                                                 |
| \\      /  F ield         | OpenFOAM: The Open Source CFD Toolbox           |
|  \\    /   O peration     | Version:  v1912                                 |
|   \\  /    A nd           | Website:  www.openfoam.com                      |
|    \\/     M anipulation  |                                                 |
\*---------------------------------------------------------------------------*/
FoamFile
{
    version     2.0;
    format      ascii;
    class       volVectorField;
    location    "440";
    object      U;
}
// * * * * * * * * * * * * * * * * * * * * * * * * * * * * * * * * * * * * * //

dimensions      [0 1 -1 0 0 0 0];


internalField   nonuniform List<vector> 
3675
(
(0.999101 0.00116562 1.18755e-25)
(0.99915 0.00345828 0)
(0.990322 0.00375233 3.385e-23)
(0.999239 0.0055206 -5.91754e-23)
(0.991012 0.0111032 0)
(0.969814 0.00729268 -1.07552e-21)
(0.999355 0.00723736 3.63046e-21)
(0.992274 0.0176552 -3.91938e-21)
(0.972147 0.0214449 1.10495e-21)
(0.93273 0.0129423 -7.53119e-23)
(0.999483 0.00854179 -7.03206e-21)
(0.993907 0.0230189 7.76039e-21)
(0.976385 0.0337771 0)
(0.938849 0.0376965 2.36797e-21)
(0.869203 0.0234311 -2.12809e-22)
(0.999609 0.00941339 3.40323e-21)
(0.995697 0.0269854 -9.97811e-23)
(0.981809 0.0434924 -1.29438e-22)
(0.949583 0.0584995 -2.31684e-21)
(0.883474 0.0669716 0)
(0.754664 0.0449354 2.19593e-22)
(0.999725 0.00986793 0)
(0.997462 0.029517 3.3102e-21)
(0.987632 0.0502711 0)
(0.962706 0.0737971 1.2632e-22)
(0.907396 0.100883 3.29641e-22)
(0.793523 0.122997 -3.28785e-21)
(0.586715 0.0431491 -2.44639e-22)
(0.607361 0.118622 -3.92942e-22)
(0.999828 0.00994473 0)
(0.999083 0.0307019 -6.90923e-21)
(0.993234 0.0541874 6.91632e-21)
(0.976161 0.0832797 3.6669e-21)
(0.936216 0.122649 -2.77576e-22)
(0.850053 0.177918 5.02694e-21)
(0.647376 0.192484 6.99904e-22)
(0.699907 0.240419 3.46265e-22)
(0.393925 0.0623906 8.13458e-22)
(0.433001 0.180574 -4.71763e-22)
(0.999917 0.00969451 0)
(1.0005 0.0306985 -4.91423e-23)
(0.998251 0.0555606 -6.82995e-21)
(0.988525 0.0876042 -3.541e-21)
(0.963721 0.133037 0)
(0.909659 0.205459 -1.82168e-21)
(0.763398 0.355585 -2.20571e-21)
(0.504812 0.27832 -1.44097e-21)
(0.591923 0.357907 1.1524e-21)
(0.183938 0.0398162 -1.81521e-22)
(0.197416 0.11841 3.76464e-22)
(0.270605 0.266242 1.88782e-21)
(0.224929 0.193919 -3.25495e-22)
(0.999994 0.00917046 0)
(1.00169 0.0296909 0)
(1.00253 0.054806 1.10004e-24)
(0.999143 0.0878084 -1.00595e-22)
(0.986896 0.134776 -2.03738e-22)
(0.959588 0.209793 0)
(0.897063 0.366147 4.54461e-21)
(0.636796 0.560043 1.7151e-22)
(0.772453 0.591977 4.36296e-23)
(0.329658 0.339066 3.50974e-23)
(0.403914 0.40833 0)
(0.481573 0.490353 -7.40485e-22)
(0.0366813 0.0316862 -1.53695e-21)
(0.0487024 0.0946364 -7.03732e-22)
(0.113473 0.20673 -7.14153e-21)
(0.075702 0.153636 -2.41867e-21)
(1.00006 0.00842221 0)
(1.00266 0.0278586 0)
(1.00607 0.0523375 0)
(1.00787 0.0848731 4.6784e-23)
(1.00546 0.130712 0)
(0.997382 0.201201 9.32202e-23)
(0.981988 0.332267 -2.98889e-21)
(0.979094 0.555777 -4.78463e-22)
(0.62112 0.553847 -8.75476e-24)
(0.488549 0.487302 -8.94171e-23)
(0.769326 0.536258 1.1451e-22)
(0.166516 0.308399 8.77792e-21)
(0.289896 0.400646 -6.06104e-22)
(0.332483 0.383806 1.69992e-21)
(0.233861 0.280029 -1.61068e-21)
(1.00013 0.00749391 -4.63097e-24)
(1.00344 0.0253642 0)
(1.0089 0.048527 -5.23201e-21)
(1.01482 0.0796008 0)
(1.0199 0.122859 -7.54612e-23)
(1.02502 0.186794 0)
(1.03346 0.290469 -4.08917e-23)
(1.10096 0.483895 3.26261e-22)
(0.91392 0.447299 -3.61406e-22)
(1.09699 0.503427 -3.07346e-23)
(0.462194 0.344047 -2.6143e-23)
(0.287681 0.247309 2.46298e-23)
(0.714227 0.422832 6.3079e-22)
(0.466197 0.28824 0)
(0.057528 0.132813 2.7166e-21)
(0.161642 0.244868 -6.24354e-21)
(0.132426 0.16443 0)
(1.00019 0.00642143 0)
(1.00407 0.0223456 -4.48351e-24)
(1.01115 0.0436825 5.20093e-21)
(1.02024 0.0726275 -4.09865e-23)
(1.03085 0.112543 0)
(1.04478 0.169529 7.11152e-23)
(1.06661 0.253243 0)
(1.14362 0.395898 6.94943e-22)
(1.22897 0.419441 -1.64823e-21)
(0.692647 0.205415 1.57873e-22)
(0.567363 0.273904 -1.28231e-21)
(1.01608 0.298617 -9.03657e-22)
(0.193638 0.133902 2.79431e-21)
(0.26435 0.154344 1.26355e-21)
(1.00025 0.00523451 0)
(1.00457 0.0189146 -8.82437e-24)
(1.0129 0.0380461 9.42482e-24)
(1.02441 0.0644375 1.68885e-23)
(1.039 0.100662 -2.96664e-23)
(1.05867 0.150898 3.38687e-21)
(1.08836 0.220155 2.31972e-21)
(1.15725 0.323125 5.92954e-22)
(1.28778 0.379396 2.16924e-21)
(1.15321 0.260474 0)
(0.449373 0.0578025 5.16539e-22)
(0.193788 0.0362851 0)
(0.363251 0.0932483 4.2653e-23)
(0.848657 0.170132 -3.1393e-22)
(0.122977 0.0330482 -1.5626e-22)
(1.00032 0.00395586 -8.32427e-21)
(1.00497 0.0151582 4.18826e-24)
(1.01428 0.031803 1.69505e-23)
(1.0276 0.0553806 -1.52447e-23)
(1.04501 0.0878126 -1.65386e-23)
(1.06833 0.131842 -6.36604e-21)
(1.10212 0.189962 -4.29901e-21)
(1.16314 0.267463 -6.22958e-22)
(1.27935 0.322496 0)
(1.33556 0.287639 0)
(1.00172 0.142185 6.50343e-21)
(0.686208 0.0996331 -4.02341e-23)
(0.119905 0.00564812 1.11238e-22)
(0.320258 0.0211198 -1.083e-23)
(0.0924964 0.00388324 -3.1659e-22)
(1.00039 0.00260252 8.26041e-21)
(1.0053 0.0111414 -2.11222e-24)
(1.01537 0.0250894 -4.18844e-24)
(1.03007 0.0456902 -2.19875e-23)
(1.04946 0.074373 6.82254e-21)
(1.07505 0.112857 3.01059e-21)
(1.11057 0.16217 1.96304e-21)
(1.16612 0.223129 -1.6074e-23)
(1.25937 0.270992 0)
(1.35791 0.267621 -4.81536e-21)
(1.29114 0.204493 -7.94855e-21)
(0.889285 0.0705959 8.02764e-23)
(0.553424 0.0437742 -5.47749e-21)
(0.594225 0.0555623 2.79965e-24)
(0.275968 0.00788224 1.15288e-23)
(0.0659334 0.00218518 9.47588e-23)
(0.0705688 -0.000916685 0)
(1.00046 0.00118811 0)
(1.00557 0.006913 0)
(1.01625 0.0180009 -3.5978e-24)
(1.03202 0.0355185 0)
(1.05283 0.0605511 -5.0054e-22)
(1.07981 0.094127 7.31307e-24)
(1.11574 0.136417 1.31011e-21)
(1.167 0.186217 -6.53836e-24)
(1.24327 0.227903 -1.93011e-21)
(1.33446 0.237513 4.9752e-21)
(1.37563 0.214022 -5.77765e-21)
(1.22324 0.142154 0)
(0.81063 0.0393161 -4.92296e-21)
(0.511965 0.0181687 -8.57842e-23)
(0.531518 0.0233802 7.97041e-23)
(0.287313 0.0126223 1.00243e-20)
(0.0612941 -0.00176924 -1.01175e-22)
(0.0666951 0.00229038 6.50208e-21)
(1.00054 -0.000276718 0)
(1.00581 0.00250918 -8.05661e-21)
(1.01697 0.0106014 0)
(1.0336 0.0249562 3.57217e-24)
(1.05549 0.0464465 -3.86684e-22)
(1.08334 0.0756699 -4.20771e-21)
(1.11907 0.112306 -1.33824e-21)
(1.16666 0.154352 0)
(1.23148 0.191373 3.90597e-21)
(1.30827 0.206897 -1.16742e-23)
(1.37272 0.200955 6.6939e-22)
(1.36216 0.169975 0)
(1.15696 0.100751 1.19805e-20)
(0.754 0.0275312 -1.23384e-21)
(0.476164 0.0116598 -1.20921e-21)
(0.491226 0.0110633 4.91739e-24)
(0.284345 0.0049591 0)
(0.293661 0.0059363 -1.24502e-21)
(0.132373 0.00366421 -3.58953e-21)
(0.0946092 0.00816156 -1.63985e-20)
(1.00063 -0.00178205 0)
(1.006 -0.00204074 1.59718e-20)
(1.01758 0.00293309 0)
(1.03495 0.014046 0)
(1.05772 0.032078 -1.07338e-20)
(1.08622 0.0573942 4.08367e-21)
(1.12153 0.089443 1.71628e-21)
(1.16602 0.125952 -8.0721e-22)
(1.22265 0.159551 -1.93582e-21)
(1.288 0.178478 -8.18384e-24)
(1.34947 0.181083 5.31431e-21)
(1.38739 0.17015 -2.9697e-24)
(1.33514 0.135449 -7.09777e-21)
(1.09727 0.0756147 1.62357e-23)
(0.711855 0.0226577 -6.08104e-22)
(0.449085 0.00954122 1.15758e-21)
(0.460511 0.00839291 1.17538e-21)
(0.268639 0.00282974 1.1181e-21)
(0.275281 0.00229548 -2.16397e-22)
(0.130669 0.0018027 -3.21596e-24)
(0.132504 0.000461214 2.70211e-23)
(0.134919 0.000933148 2.63656e-21)
(0.135672 0.00192883 4.06792e-22)
(0.0414595 -0.000746936 1.70807e-21)
(0.0256618 0.00220777 4.88064e-21)
(1.00072 -0.00331711 0)
(1.00615 -0.00670884 -7.9125e-21)
(1.01807 -0.00497308 7.29397e-21)
(1.03612 0.00280105 6.25606e-21)
(1.05972 0.0174126 1.00489e-20)
(1.08883 0.0391516 0)
(1.12381 0.0674128 -1.67397e-21)
(1.1658 0.0999214 8.17318e-22)
(1.21629 0.131084 0)
(1.27307 0.152334 -2.60724e-23)
(1.32787 0.160636 4.57799e-21)
(1.37358 0.159092 5.19255e-24)
(1.3887 0.145132 -1.01796e-25)
(1.30155 0.111058 -6.89458e-21)
(1.04639 0.0607967 0)
(0.679123 0.0203825 -4.90268e-21)
(0.427586 0.00841234 1.13869e-21)
(0.43673 0.00747971 5.80302e-22)
(0.256681 0.00246217 6.76901e-23)
(0.262178 0.00198946 -5.83371e-25)
(0.124924 0.000988085 -4.89306e-23)
(0.125975 0.000128282 -2.49872e-23)
(0.128046 -0.000264161 3.08601e-22)
(0.127561 0.000775361 1.25401e-22)
(0.0397265 0.000203033 1.66324e-23)
(0.040382 -8.51554e-05 0)
(0.0408209 -0.000349212 -5.60039e-22)
(0.0412163 0.000182579 -2.7897e-22)
(1.00082 -0.00486847 0)
(1.00626 -0.0114636 -7.56377e-24)
(1.01845 -0.0130892 -7.20295e-21)
(1.03714 -0.00878324 3.778e-23)
(1.06159 0.00237665 -9.57923e-21)
(1.09144 0.020749 3.03233e-21)
(1.12636 0.0458247 -1.75575e-25)
(1.16652 0.0754128 2.62678e-24)
(1.21238 0.104984 4.7867e-24)
(1.26242 0.127967 -6.67952e-21)
(1.31125 0.140836 -9.16596e-21)
(1.35435 0.145059 4.36217e-24)
(1.38729 0.1414 0)
(1.3806 0.12652 6.62635e-21)
(1.26646 0.0948167 6.9964e-21)
(1.00396 0.0521122 4.13591e-21)
(0.652506 0.0192764 -4.69638e-24)
(0.409583 0.00791615 0)
(0.417335 0.00708135 5.6587e-22)
(0.246353 0.00231095 1.97541e-22)
(0.251183 0.00201355 -5.94817e-22)
(0.120366 0.000791547 -4.68812e-23)
(0.121284 0.000244374 -9.42866e-23)
(0.123223 -1.51202e-06 9.60845e-23)
(0.122639 0.000663129 -1.43145e-22)
(0.0387193 9.68938e-05 3.1509e-23)
(0.0390578 -6.02341e-05 2.01189e-24)
(0.0391434 -0.000177314 -8.23832e-23)
(0.0393316 4.97904e-05 -2.00621e-24)
(1.00092 -0.00641748 0)
(1.00631 -0.0162622 0)
(1.01868 -0.0213793 7.41864e-24)
(1.03799 -0.0207166 -6.0595e-21)
(1.06339 -0.0131231 4.65157e-21)
(1.09422 0.00195714 -5.79734e-21)
(1.12951 0.0242738 -9.50419e-25)
(1.16856 0.0517421 1.71531e-25)
(1.211 0.0804508 -4.15864e-21)
(1.25567 0.104972 6.79002e-21)
(1.29922 0.121629 -4.31018e-21)
(1.33836 0.130521 -1.09106e-23)
(1.37214 0.132681 5.49988e-24)
(1.39295 0.128157 0)
(1.36651 0.113549 -6.64316e-21)
(1.23281 0.084138 -7.05092e-21)
(0.96831 0.0470741 0)
(0.63091 0.0187129 -6.12994e-22)
(0.394062 0.00771613 -1.04136e-21)
(0.400658 0.00694677 1.04333e-21)
(0.236934 0.00230198 -6.46774e-23)
(0.241419 0.00208739 -4.5345e-22)
(0.116109 0.000694783 -1.36582e-22)
(0.116964 0.000314057 -9.1376e-23)
(0.118886 0.000172992 -4.64082e-23)
(0.118218 0.000625271 0)
(0.0376943 7.05795e-05 1.51785e-23)
(0.0380137 -2.66558e-05 0)
(0.0383503 -8.42727e-05 0)
(0.0383135 4.93673e-05 3.07177e-23)
(1.00101 -0.00793818 0)
(1.00625 -0.0210442 -8.63447e-21)
(1.01871 -0.0297875 0)
(1.0386 -0.0329978 0)
(1.06505 -0.0291904 -8.74456e-24)
(1.09722 -0.0174751 2.76816e-21)
(1.13345 0.002348 0)
(1.17219 0.0282912 0)
(1.21232 0.0568109 4.03166e-21)
(1.25272 0.0829782 5.16456e-24)
(1.29147 0.102968 1.78739e-20)
(1.32658 0.115938 0)
(1.35755 0.122511 5.78277e-21)
(1.38318 0.123569 0)
(1.39248 0.11902 0)
(1.3493 0.104678 6.63267e-21)
(1.20151 0.0771877 0)
(0.938363 0.0442186 0)
(0.616198 0.0185853 -9.56805e-21)
(0.381876 0.00759639 1.09599e-21)
(0.386517 0.006844 1.10235e-21)
(0.228149 0.00232095 -3.87524e-25)
(0.232308 0.0021748 6.35812e-23)
(0.111903 0.000664186 -4.45892e-23)
(0.112754 0.000371435 8.93749e-23)
(0.114724 0.000283299 4.5205e-23)
(0.113992 0.00062219 -8.99423e-23)
(0.036575 5.65039e-05 1.47451e-23)
(0.0368774 -1.03289e-05 0)
(0.0373383 -4.25886e-05 4.49476e-23)
(0.0371932 4.73619e-05 0)
(1.0011 -0.00939385 -1.76502e-23)
(1.00607 -0.0257219 2.6602e-20)
(1.01842 -0.0382241 1.29376e-23)
(1.03881 -0.0455957 0)
(1.06643 -0.0459293 0)
(1.10041 -0.0378271 4.96974e-24)
(1.13827 -0.0203938 3.81519e-25)
(1.17764 0.00446076 -2.00849e-21)
(1.21652 0.0334458 0)
(1.25361 0.0616171 0)
(1.28801 0.0847984 -8.75873e-21)
(1.31899 0.101482 0)
(1.34649 0.1119 -5.87953e-21)
(1.37056 0.116895 -3.22138e-24)
(1.38883 0.117592 0)
(1.38783 0.113009 0)
(1.33056 0.0987011 0)
(1.1728 0.0727887 0)
(0.913979 0.0428685 8.21954e-21)
(0.611807 0.019447 -2.37263e-21)
(0.37816 0.00771183 -4.27232e-21)
(0.377619 0.00663422 -2.17378e-21)
(0.220751 0.00229965 -9.35456e-22)
(0.224012 0.00221967 -6.29166e-23)
(0.107688 0.000656087 -8.77003e-23)
(0.108521 0.000405719 2.2065e-23)
(0.110539 0.000354598 2.20974e-23)
(0.109759 0.000635851 -4.41518e-23)
(0.0353503 5.12675e-05 4.32118e-23)
(0.0356607 3.89771e-07 -3.63123e-24)
(0.0362122 -1.84479e-05 -1.45228e-23)
(0.0360014 4.78551e-05 3.62221e-24)
(1.00117 -0.0107352 3.71435e-23)
(1.0057 -0.0301719 1.10206e-21)
(1.0177 -0.0465455 -1.68002e-20)
(1.0384 -0.0584309 -2.76561e-23)
(1.06728 -0.0634203 7.58276e-24)
(1.10359 -0.0593974 0)
(1.14393 -0.0444312 -1.43812e-24)
(1.18505 -0.0203833 1.94592e-21)
(1.22382 0.00976023 0)
(1.25847 0.0405148 0)
(1.28893 0.0670353 0)
(1.31568 0.0872664 0)
(1.33936 0.101192 1.16537e-20)
(1.36041 0.10956 6.18258e-24)
(1.37857 0.113615 6.09634e-24)
(1.39053 0.114102 0)
(1.38034 0.109208 0)
(1.31118 0.0948052 0)
(1.14685 0.0702062 3.42848e-24)
(0.89471 0.0427396 7.96147e-24)
(0.606084 0.0200115 -5.8581e-21)
(0.393142 0.00818818 -4.04822e-21)
(0.383992 0.0083899 4.06903e-21)
(0.220117 0.00197251 3.95167e-21)
(0.218517 0.00207451 2.49201e-21)
(0.103785 0.000643114 0)
(0.104424 0.000415232 -4.34771e-23)
(0.106349 0.000389996 4.36919e-23)
(0.105604 0.000648226 0)
(0.0340442 4.98553e-05 0)
(0.0343578 6.14802e-06 0)
(0.0349728 -4.81969e-06 -1.43892e-23)
(0.034718 5.00589e-05 0)
(1.00121 -0.0118967 3.92302e-23)
(1.00509 -0.0342236 -1.87968e-20)
(1.01636 -0.0545361 1.66555e-20)
(1.03707 -0.0713488 0)
(1.06721 -0.0817089 -5.374e-21)
(1.10646 -0.0824855 -7.28214e-24)
(1.15025 -0.0703007 0)
(1.19452 -0.0469652 0)
(1.23449 -0.0148577 0)
(1.26754 0.0193129 7.92331e-24)
(1.2944 0.0495649 9.5117e-24)
(1.31685 0.0733709 1.07648e-23)
(1.33635 0.0906081 -2.3119e-20)
(1.35379 0.102037 6.18644e-24)
(1.36942 0.108845 -1.2459e-23)
(1.38281 0.112241 3.15759e-24)
(1.38935 0.11236 -6.38736e-21)
(1.37079 0.106961 0)
(1.29175 0.0923866 0)
(1.12341 0.0688391 -5.61876e-26)
(0.876455 0.0421999 1.79686e-23)
(0.592418 0.0204871 -4.65998e-21)
(0.394791 0.00946494 -2.10989e-21)
(0.396216 0.00833167 8.38362e-23)
(0.252095 0.00281956 3.66671e-21)
(0.232757 0.00362249 0)
(0.106772 0.000293218 0)
(0.103191 -5.85284e-05 -6.91475e-22)
(0.102716 0.000333451 -1.29668e-22)
(0.102766 0.000514348 -6.46179e-22)
(0.0327638 4.94523e-05 1.40156e-23)
(0.0330348 9.32244e-06 2.99133e-23)
(0.0336596 2.25563e-06 -2.82803e-23)
(0.0333954 5.30199e-05 -1.7598e-24)
(1.00121 -0.0127947 0)
(1.00415 -0.0376496 -3.96578e-23)
(1.01418 -0.061886 0)
(1.03439 -0.0840804 -6.17817e-23)
(1.06566 -0.100759 5.24792e-21)
(1.10845 -0.107363 3.2879e-21)
(1.15678 -0.0986005 -1.20696e-24)
(1.20605 -0.0761647 0)
(1.24885 -0.0410782 5.41269e-21)
(1.28115 -0.00232808 0)
(1.30465 0.0322983 1.93751e-24)
(1.32266 0.059855 -9.39582e-24)
(1.33768 0.080322 1.14337e-20)
(1.35104 0.0946008 -1.24483e-20)
(1.3633 0.103884 -1.29221e-20)
(1.37465 0.109454 -1.30613e-20)
(1.38427 0.1122 1.2908e-20)
(1.38595 0.111797 -6.35447e-21)
(1.35979 0.105765 6.30703e-21)
(1.27258 0.0908947 0)
(1.10101 0.0674796 7.47434e-25)
(0.855856 0.0416549 1.20412e-20)
(0.574772 0.0202454 -4.57186e-21)
(0.384455 0.00995236 1.01072e-21)
(0.390002 0.00923875 -4.00295e-24)
(0.257477 0.00405167 -5.82263e-23)
(0.258254 0.00351589 -3.63448e-21)
(0.154295 0.000787357 -1.29739e-21)
(0.147545 0.000869787 0)
(0.114551 7.76865e-05 -2.74798e-21)
(0.129813 0.00332192 5.25218e-21)
(0.0350202 -0.000400864 0)
(0.0328405 -0.000177099 4.55618e-22)
(0.032462 -8.01598e-06 4.37251e-23)
(0.0324591 6.01486e-06 -1.7593e-24)
(1.00115 -0.0133287 0)
(1.00282 -0.0401612 0)
(1.01093 -0.0681706 0)
(1.02986 -0.0962036 0)
(1.06186 -0.120357 0)
(1.10864 -0.134184 -3.18635e-21)
(1.16267 -0.130036 0)
(1.21947 -0.109117 2.79964e-21)
(1.26727 -0.0696592 -5.21354e-21)
(1.29971 -0.0247155 3.13274e-24)
(1.31993 0.0151852 -1.01173e-23)
(1.33333 0.0468018 -1.10913e-20)
(1.34354 0.0704955 -1.18579e-23)
(1.35241 0.0874707 1.22605e-20)
(1.36075 0.0990319 1.27828e-20)
(1.36894 0.106489 1.30742e-20)
(1.37706 0.110958 -6.52708e-21)
(1.38361 0.11302 6.39654e-21)
(1.38084 0.11198 2.61721e-23)
(1.34781 0.105179 6.2302e-21)
(1.25343 0.0896064 1.27872e-20)
(1.07807 0.0662305 -1.3825e-20)
(0.833464 0.0410581 7.37399e-24)
(0.55567 0.01954 -4.26893e-24)
(0.371016 0.00953521 -6.25964e-23)
(0.377494 0.00910026 6.238e-23)
(0.249705 0.00423481 -7.42027e-22)
(0.254133 0.00408309 5.73953e-23)
(0.15707 0.00171311 0)
(0.157848 0.00146602 3.26188e-22)
(0.157308 0.00114454 6.50276e-22)
(0.158441 0.00148849 3.25741e-22)
(0.0885059 0.000233143 1.73916e-21)
(0.0835172 0.000696867 0)
(0.0386972 -0.000355438 2.06415e-21)
(0.0563149 0.00414262 -3.5509e-21)
(1.00102 -0.0133893 2.40599e-20)
(1.00103 -0.0414147 2.37975e-20)
(1.00635 -0.0728173 0)
(1.0229 -0.107055 1.89501e-20)
(1.05475 -0.139995 -1.46322e-20)
(1.1055 -0.162885 0)
(1.1665 -0.165598 1.32842e-21)
(1.23471 -0.147491 3.10012e-22)
(1.29048 -0.10151 6.59955e-21)
(1.32386 -0.0481152 7.73961e-24)
(1.34062 -0.00176028 1.06226e-23)
(1.34904 0.0343318 1.08375e-20)
(1.3541 0.0613038 -1.22652e-20)
(1.3581 0.0808588 3.68219e-23)
(1.36206 0.0945192 1.23249e-23)
(1.36649 0.103676 0)
(1.37165 0.109532 1.32498e-20)
(1.37735 0.112986 0)
(1.38133 0.114342 -6.30949e-21)
(1.37443 0.112547 -1.23418e-20)
(1.335 0.104751 -1.22507e-20)
(1.23379 0.0884312 6.29134e-21)
(1.05445 0.0651533 3.39768e-21)
(0.810379 0.0402171 0)
(0.537735 0.0194226 -5.65366e-22)
(0.357047 0.00873728 -9.231e-22)
(0.363698 0.00850024 9.25988e-22)
(0.239983 0.00396952 -5.67845e-23)
(0.244855 0.00397365 5.40868e-23)
(0.151028 0.00176589 -2.4156e-22)
(0.152516 0.00155029 -1.00742e-22)
(0.155526 0.00148818 2.02973e-22)
(0.154265 0.00171468 -2.03749e-23)
(0.0905769 0.000540029 -2.28402e-24)
(0.091228 0.000474984 -2.19767e-22)
(0.0910018 0.000309013 -5.83646e-22)
(0.0915657 0.000457763 -2.93074e-22)
(0.0280876 -0.000185679 -4.13976e-22)
(0.0273807 -0.000458286 -8.08705e-22)
(0.0156677 0.00123742 4.22162e-22)
(1.00081 -0.0128786 -4.91251e-20)
(0.998799 -0.0410435 -2.37855e-20)
(1.00031 -0.0750795 0)
(1.01284 -0.115587 -1.89471e-20)
(1.04286 -0.158805 -2.21521e-21)
(1.09681 -0.193276 0)
(1.16661 -0.207024 -1.28575e-21)
(1.25258 -0.194063 -9.20798e-21)
(1.32038 -0.137973 -1.38041e-20)
(1.3551 -0.0727985 0)
(1.36749 -0.018465 -1.14718e-20)
(1.37012 0.0226103 1.21398e-20)
(1.3695 0.0529472 1.19502e-20)
(1.36824 0.0749813 0)
(1.36744 0.0905667 -2.49477e-23)
(1.36765 0.10124 0)
(1.36919 0.10829 -1.31734e-20)
(1.37216 0.112735 6.41919e-24)
(1.37605 0.115261 1.28928e-20)
(1.37779 0.115877 -3.79778e-23)
(1.36695 0.113183 1.21131e-20)
(1.32133 0.104342 0)
(1.21356 0.0874016 -2.98184e-24)
(1.03059 0.064045 0)
(0.787351 0.0397316 0)
(0.519793 0.0188579 -4.66205e-21)
(0.34509 0.00558497 0)
(0.348851 0.00745264 9.73664e-22)
(0.230557 0.00341536 0)
(0.235202 0.00362226 -1.12615e-22)
(0.144558 0.00164473 9.92631e-23)
(0.145999 0.00143572 2.18862e-22)
(0.149177 0.00144851 -7.98874e-23)
(0.147747 0.00165773 -7.99308e-23)
(0.0868248 0.000557967 7.2338e-23)
(0.0878301 0.000514344 -7.25339e-23)
(0.0896746 0.000478707 -1.43418e-22)
(0.0888202 0.000537126 0)
(0.0286966 3.38294e-05 1.68887e-24)
(0.0289534 2.05689e-05 -5.56054e-23)
(0.0290354 -1.71915e-05 -5.03039e-24)
(0.029133 2.09146e-05 -1.68661e-24)
(1.00053 -0.0117355 2.50762e-20)
(0.996233 -0.0387272 2.65018e-20)
(0.992876 -0.0740895 9.47972e-23)
(0.999044 -0.120265 0)
(1.02418 -0.17534 3.61729e-20)
(1.07997 -0.225484 6.08331e-23)
(1.16167 -0.257493 -3.30142e-21)
(1.27576 -0.253359 6.00138e-21)
(1.36092 -0.181032 7.11244e-21)
(1.39648 -0.0992139 1.13705e-23)
(1.40239 -0.0348675 2.35652e-20)
(1.3975 0.0118242 -1.18244e-20)
(1.39016 0.0456438 2.38538e-23)
(1.38302 0.0700651 2.47631e-23)
(1.37703 0.0873927 0)
(1.37263 0.0993866 -2.61896e-23)
(1.37012 0.107452 0)
(1.36963 0.112684 0)
(1.37106 0.115901 -1.29552e-20)
(1.37356 0.117567 6.28113e-21)
(1.37326 0.117394 -6.07378e-21)
(1.3585 0.113749 -5.94102e-21)
(1.30686 0.103957 0)
(1.19297 0.0863926 6.9861e-26)
(1.00679 0.062962 0)
(0.764878 0.0387638 3.78478e-21)
(0.274437 0.0040194 0)
(0.502003 0.0187095 0)
(0.221699 0.000357183 -6.35939e-23)
(0.228225 0.00273497 5.5766e-23)
(0.138602 0.00123809 0)
(0.139932 0.00117212 0)
(0.142829 0.00130523 5.93163e-23)
(0.141532 0.0014828 2.5575e-22)
(0.0829434 0.000513497 -1.06864e-22)
(0.0838889 0.000475362 -7.14473e-23)
(0.0857693 0.000468649 -7.18825e-23)
(0.0848618 0.000515187 7.16714e-23)
(0.0274133 3.61326e-05 1.66404e-23)
(0.0277641 2.93626e-05 -3.33587e-24)
(0.0283999 1.96259e-05 0)
(0.0281142 3.52283e-05 0)
(1.00018 -0.00996233 0)
(0.993575 -0.0342986 1.27542e-21)
(0.984512 -0.0690749 5.08686e-23)
(0.981492 -0.11919 2.01733e-22)
(0.996704 -0.18678 -1.95385e-20)
(1.05157 -0.259035 -1.60441e-20)
(1.14961 -0.32212 8.14908e-21)
(1.30616 -0.330929 2.96214e-23)
(1.41495 -0.23226 1.19191e-23)
(1.45058 -0.127534 -2.68079e-20)
(1.44749 -0.0508459 -1.20642e-20)
(1.43286 0.00215951 2.42954e-23)
(1.41708 0.0396247 -1.38312e-20)
(1.40292 0.0663388 0)
(1.39105 0.0852159 2.6609e-23)
(1.38161 0.098316 2.64878e-23)
(1.37468 0.107202 2.61687e-23)
(1.37028 0.113049 0)
(1.36839 0.116737 1.31977e-20)
(1.36876 0.118887 0)
(1.37016 0.119742 1.23793e-20)
(1.36787 0.118772 5.93535e-21)
(1.3492 0.114228 0)
(1.29176 0.103535 5.76018e-21)
(1.17224 0.0853806 2.9338e-24)
(0.983428 0.0618649 0)
(0.743356 0.0380665 0)
(0.262105 0.00489888 0)
(0.0998274 0.000904761 6.44966e-23)
(0.100878 0.000121259 -6.44006e-23)
(0.486037 0.0183074 -4.39232e-24)
(0.10432 0.000702956 0)
(0.137008 0.000452525 0)
(0.136312 -0.000412381 0)
(0.0796998 0.000268657 0)
(0.0803757 0.000359517 -1.76278e-23)
(0.081978 0.000417931 -7.07441e-23)
(0.0811804 0.000446548 -5.29185e-23)
(0.0261331 3.24222e-05 2.62764e-23)
(0.0264563 2.67114e-05 0)
(0.0270816 2.01518e-05 -1.33132e-23)
(0.0267891 3.32295e-05 0)
(0.999814 -0.00763265 0)
(0.991131 -0.02784 -2.78541e-20)
(0.976111 -0.0596838 -2.95303e-20)
(0.961576 -0.110517 2.96384e-20)
(0.960736 -0.188293 -1.92986e-22)
(1.00592 -0.288311 -5.25492e-21)
(1.12119 -0.404169 -1.27025e-20)
(1.33365 -0.429534 0)
(1.47132 -0.289169 -3.20144e-23)
(1.50854 -0.155125 5.7515e-20)
(1.4985 -0.0652407 -2.85657e-23)
(1.47543 -0.00584297 0)
(1.451 0.0352094 2.80492e-20)
(1.4288 0.0640596 -1.43644e-20)
(1.41002 0.0842503 0)
(1.39484 0.0982209 -1.4016e-20)
(1.38305 0.107714 -2.65062e-23)
(1.3744 0.113994 0)
(1.36875 0.117989 1.68658e-22)
(1.36595 0.120378 1.29924e-20)
(1.36559 0.121598 -2.50432e-20)
(1.36605 0.121702 -2.90448e-24)
(1.36177 0.119984 -6.35906e-26)
(1.3392 0.114586 -5.62452e-21)
(1.27622 0.103039 0)
(1.15159 0.0843641 -5.82548e-21)
(0.960874 0.0608885 -3.06312e-24)
(0.723433 0.0373521 7.34798e-21)
(0.251899 0.00501566 1.73551e-22)
(0.095908 0.000983843 -6.29187e-23)
(0.0973602 0.000179049 -3.16358e-23)
(0.0228367 0.000151238 1.18737e-23)
(0.0228923 -6.8417e-06 1.70801e-24)
(0.0231008 7.97147e-05 -2.75861e-23)
(0.0232776 -0.000157937 2.76818e-23)
(0.47222 0.017808 -4.50911e-21)
(0.0237767 0.000282964 0)
(0.0238749 4.76129e-06 0)
(0.0786235 -0.0010543 0)
(0.0798815 -0.000243991 3.48111e-23)
(0.0250886 2.0972e-05 -3.24524e-24)
(0.0253217 1.58714e-05 3.23932e-24)
(0.0258358 1.70796e-05 0)
(0.0255855 2.73492e-05 0)
(0.999448 -0.0048824 -5.55656e-23)
(0.989195 -0.0197041 0)
(0.968848 -0.0462257 2.9968e-20)
(0.942168 -0.0932223 -3.02825e-20)
(0.920039 -0.174427 -3.22474e-20)
(0.937136 -0.300561 2.1512e-20)
(1.04943 -0.490629 7.9191e-21)
(1.31782 -0.539904 -2.99023e-24)
(1.48252 -0.339114 3.58791e-20)
(1.52831 -0.172739 7.99088e-21)
(1.52762 -0.0735609 -6.4017e-23)
(1.51098 -0.0101409 2.92808e-23)
(1.48664 0.0332818 -1.42023e-20)
(1.45963 0.0636613 -9.65423e-22)
(1.43428 0.0847641 0)
(1.41278 0.099296 -5.10275e-22)
(1.39553 0.109152 0)
(1.38222 0.115668 0)
(1.37246 0.119808 -2.65912e-20)
(1.36602 0.122276 -1.28942e-20)
(1.36264 0.123576 2.53554e-20)
(1.36178 0.12399 -5.88865e-24)
(1.36136 0.123424 2.88875e-24)
(1.35507 0.121012 -5.50095e-24)
(1.32865 0.114795 0)
(1.2604 0.102455 -1.65602e-23)
(1.13126 0.083347 0)
(0.939502 0.0599085 -6.25914e-21)
(0.705512 0.0366217 -7.2595e-21)
(0.243021 0.00489404 5.78282e-21)
(0.0916868 0.00103879 -3.10157e-23)
(0.0933226 0.00029742 -2.17198e-22)
(0.0219722 0.000142442 1.34357e-23)
(0.0221035 9.79282e-06 2.68628e-23)
(0.0223824 4.95176e-05 2.69995e-23)
(0.0225014 -0.000126445 -1.35982e-23)
(0.461729 0.0173564 -8.8628e-21)
(0.0247088 -0.000329743 1.61338e-24)
(0.0252393 -9.22326e-05 -2.73678e-23)
(0.999111 -0.00188417 2.81411e-20)
(0.987964 -0.0104431 1.79931e-22)
(0.963726 -0.0296684 2.67292e-22)
(0.926594 -0.068018 -3.53053e-20)
(0.879716 -0.142402 7.26761e-20)
(0.84804 -0.28278 -7.21004e-22)
(0.89736 -0.542313 5.48666e-21)
(1.17737 -0.628164 -1.37971e-21)
(1.34784 -0.348477 -2.43687e-20)
(1.41551 -0.162876 -9.32402e-20)
(1.46407 -0.066365 0)
(1.49473 -0.00623227 1.34441e-22)
(1.49983 0.0360582 0)
(1.48494 0.0661241 -1.03605e-21)
(1.46053 0.0872361 5.6999e-23)
(1.43495 0.101815 1.40216e-20)
(1.41237 0.111698 0)
(1.394 0.118212 -2.64694e-23)
(1.37978 0.122317 2.67725e-20)
(1.36935 0.124718 1.32018e-20)
(1.36243 0.125937 -2.54868e-20)
(1.35873 0.126331 1.23866e-20)
(1.35749 0.126063 1.15733e-23)
(1.35623 0.124905 1.14037e-20)
(1.3479 0.121836 2.70689e-24)
(1.31766 0.114842 5.33414e-21)
(1.24446 0.101782 0)
(1.11152 0.0822993 0)
(0.919585 0.0589366 6.86882e-24)
(0.690121 0.0360597 0)
(0.237074 0.00443445 1.19688e-20)
(0.0877659 0.00104479 -3.05089e-23)
(0.0891169 0.000295205 -4.73624e-22)
(0.0209257 0.000152247 0)
(0.0210812 1.57925e-05 2.64044e-23)
(0.0214096 5.84852e-05 0)
(0.021574 -0.000109557 -1.32443e-23)
(0.457248 0.0181388 -8.60947e-21)
(0.998815 0.00118281 -5.60158e-20)
(0.9875 -0.000693322 -3.02986e-20)
(0.961258 -0.0113947 3.26459e-20)
(0.917206 -0.0375265 -1.61796e-21)
(0.849443 -0.0946535 -8.40139e-20)
(0.76095 -0.224449 4.04041e-22)
(0.78174 -0.456838 7.33214e-22)
(0.698044 -0.428191 0)
(0.960956 -0.743241 2.51329e-21)
(0.767993 -0.690436 1.74677e-22)
(0.692423 -0.606331 -1.04309e-20)
(1.16733 -0.393473 -6.43428e-23)
(0.806807 -0.496367 3.32953e-23)
(0.82368 -0.262751 0)
(1.03695 -0.0987805 9.75155e-20)
(0.899904 -0.166121 -3.45304e-20)
(1.20115 -0.0309058 5.41747e-20)
(1.34716 0.0111886 0)
(1.43629 0.0464678 3.73118e-20)
(1.47297 0.0730152 1.58285e-20)
(1.47343 0.0924708 0)
(1.45555 0.106224 -5.76157e-23)
(1.43205 0.115616 -2.74257e-23)
(1.40967 0.121796 2.66821e-23)
(1.3909 0.125641 -1.3286e-20)
(1.37621 0.127814 -1.30592e-20)
(1.36542 0.128816 1.26931e-20)
(1.35827 0.12902 -1.24068e-20)
(1.35439 0.128671 -1.20461e-20)
(1.35286 0.12783 -1.14765e-20)
(1.35077 0.126142 -5.38515e-24)
(1.34035 0.122454 -2.56179e-24)
(1.30634 0.114731 -5.21199e-21)
(1.22858 0.10102 0)
(1.09256 0.081236 5.49917e-21)
(0.901315 0.0580887 -2.93043e-24)
(0.677661 0.0361385 0)
(0.245669 0.00528603 1.0006e-20)
(0.0865176 0.00103315 5.91314e-23)
(0.0858189 7.98058e-05 -2.04298e-21)
(0.0198819 0.00015665 0)
(0.0200086 1.75619e-05 2.59381e-23)
(0.0203382 6.4489e-05 -3.26632e-24)
(0.0205087 -0.000113309 -9.80915e-24)
(0.452726 0.0179084 -8.43192e-24)
(0.998567 0.0041594 2.78395e-20)
(0.987737 0.00894508 3.02132e-20)
(0.961397 0.00712775 -3.32228e-20)
(0.914691 -0.00520121 7.70336e-20)
(0.83579 -0.0389191 4.58397e-20)
(0.70828 -0.12851 5.6739e-20)
(0.621052 -0.366751 7.39917e-23)
(0.557754 -0.291731 2.24326e-20)
(0.559441 -0.551521 0)
(0.655095 -0.681081 0)
(0.458359 -0.471834 0)
(0.380529 -0.323957 7.55776e-21)
(0.59681 -0.47626 -5.58781e-21)
(0.5494 -0.63188 -3.00207e-21)
(0.610252 -0.279894 -5.44014e-23)
(0.236368 -0.120413 -5.54941e-21)
(0.208457 -0.1389 0)
(0.196313 -0.0518578 -4.79523e-21)
(0.312466 -0.077869 0)
(0.65837 -0.166827 0)
(0.605215 -0.0138213 -2.55677e-20)
(0.674098 0.0334371 -5.36373e-20)
(0.370335 0.0179792 -3.91111e-20)
(0.460721 -0.0513119 -4.70619e-22)
(0.99558 0.0437045 5.60645e-20)
(1.22592 0.0644423 -4.22118e-20)
(1.36811 0.0847293 1.44222e-22)
(1.43689 0.100951 3.3792e-20)
(1.45538 0.112964 1.55922e-20)
(1.4464 0.121245 0)
(1.42657 0.126651 6.31987e-25)
(1.40532 0.129934 -1.36967e-20)
(1.38669 0.131673 -2.60377e-23)
(1.37187 0.132313 0)
(1.36095 0.132198 -1.25425e-20)
(1.35372 0.131586 1.20718e-20)
(1.34977 0.130634 -1.16721e-20)
(1.348 0.12931 0)
(1.34504 0.127141 7.05954e-26)
(1.33247 0.122868 5.1565e-21)
(1.29481 0.114465 0)
(1.2129 0.100172 0)
(1.07445 0.0802024 0)
(0.884619 0.0574685 2.96293e-24)
(0.665748 0.0354493 -6.96283e-21)
(0.251236 0.00595991 2.5149e-21)
(0.114669 0.000549672 0)
(0.0978103 0.000699475 -1.91171e-21)
(0.020528 0.000106137 0)
(0.0193642 -0.000150423 -6.52128e-24)
(0.0194797 4.22508e-06 1.09145e-22)
(0.0194877 -0.00014051 0)
(0.443363 0.0176219 0)
(0.998365 0.00692359 0)
(0.988519 0.0179896 2.87605e-23)
(0.963651 0.0246511 -1.35742e-22)
(0.918335 0.0256697 -7.74368e-20)
(0.838906 0.0165385 0)
(0.701542 -0.0210667 -6.21988e-20)
(0.514874 -0.196774 -2.44777e-20)
(0.490098 -0.0970519 4.32203e-22)
(0.42369 -0.460976 -2.18314e-20)
(0.317634 -0.347819 2.2487e-20)
(0.277539 -0.470274 3.6975e-21)
(0.433134 -0.58182 -1.06208e-21)
(0.344347 -0.370416 0)
(0.186522 -0.213457 9.48972e-23)
(0.179156 -0.0101138 1.05664e-20)
(0.317472 0.0143828 0)
(0.231716 0.024081 -1.43778e-20)
(0.234819 0.0473647 1.96005e-20)
(0.481559 0.0736619 -7.89992e-20)
(0.193528 0.028309 -4.87186e-20)
(0.159084 0.0225868 -1.45157e-23)
(0.11778 0.010007 0)
(0.844563 0.0814246 8.40922e-24)
(1.11912 0.0967109 0)
(1.29993 0.11064 -3.65522e-20)
(1.39696 0.121362 -1.609e-20)
(1.43348 0.12854 0)
(1.43439 0.132944 -5.48172e-23)
(1.41921 0.135376 -2.58264e-22)
(1.39978 0.136431 -5.17161e-23)
(1.38172 0.136527 0)
(1.36703 0.135961 2.50351e-20)
(1.35614 0.134961 1.2175e-20)
(1.34893 0.133697 1.17214e-20)
(1.34498 0.132255 -1.11642e-23)
(1.34298 0.130518 5.20091e-24)
(1.3391 0.12791 1.03922e-20)
(1.32435 0.123084 0)
(1.28316 0.114044 0)
(1.19748 0.0992547 0)
(1.05713 0.0792018 0)
(0.868546 0.0564285 5.90008e-21)
(0.651911 0.0346094 0)
(0.24568 0.00615129 -3.06437e-22)
(0.117813 0.00199896 -6.22318e-23)
(0.118428 0.00114933 -3.77177e-21)
(0.0549232 0.000107266 1.86884e-23)
(0.0508207 0.000722224 -3.25057e-23)
(0.0335584 0.00252473 3.22549e-21)
(0.0230597 -0.000341019 -1.80332e-21)