/*--------------------------------*- C++ -*----------------------------------*\
| =========                 |                                                 |
| \\      /  F ield         | OpenFOAM: The Open Source CFD Toolbox           |
|  \\    /   O peration     | Version:  v1912                                 |
|   \\  /    A nd           | Website:  www.openfoam.com                      |
|    \\/     M anipulation  |                                                 |
\*---------------------------------------------------------------------------*/
FoamFile
{
    version     2.0;
    format      ascii;
    class       volVectorField;
    location    "260";
    object      U;
}
// * * * * * * * * * * * * * * * * * * * * * * * * * * * * * * * * * * * * * //

dimensions      [0 1 -1 0 0 0 0];


internalField   nonuniform List<vector> 
3754
(
(0.048984 -0.0207154 0)
(0.150273 -0.0618941 -1.92608e-23)
(0.0484845 -0.0205112 8.96233e-24)
(0.252753 -0.102065 0)
(0.148772 -0.0612858 9.47367e-24)
(0.0480067 -0.0203094 -9.01593e-24)
(0.352193 -0.139424 6.77122e-21)
(0.250269 -0.101069 7.40686e-24)
(0.147324 -0.0606917 9.14013e-21)
(0.0475435 -0.0201121 0)
(0.442298 -0.171631 -5.95551e-21)
(0.348746 -0.138056 6.50666e-21)
(0.247834 -0.100088 -7.48748e-21)
(0.145889 -0.0601032 -8.47292e-24)
(0.0470785 -0.0199162 0)
(0.515455 -0.196009 5.17766e-24)
(0.43793 -0.169919 -5.73147e-21)
(0.34535 -0.136713 0)
(0.24544 -0.0991293 2.74808e-25)
(0.14447 -0.0595196 8.4933e-24)
(0.0466292 -0.0197257 0)
(0.564057 -0.210108 -2.02886e-25)
(0.510257 -0.193999 -5.20609e-21)
(0.433625 -0.168246 -5.26647e-24)
(0.342016 -0.1354 6.02485e-21)
(0.243063 -0.0981697 6.88056e-24)
(0.143086 -0.0589491 0)
(0.0461775 -0.0195345 0)
(0.582128 -0.212306 4.8356e-24)
(0.558147 -0.207853 4.905e-21)
(0.505149 -0.192046 0)
(0.429407 -0.16661 -5.30121e-21)
(0.338707 -0.134088 5.80008e-24)
(0.240719 -0.0972214 0)
(0.141712 -0.0583828 0)
(0.0457252 -0.0193427 0)
(0.566863 -0.202305 0)
(0.575651 -0.209868 -4.88151e-21)
(0.552352 -0.205672 0)
(0.500135 -0.190131 -9.19789e-24)
(0.425218 -0.164982 1.48216e-23)
(0.335423 -0.132787 0)
(0.238398 -0.0962851 0)
(0.140339 -0.0578156 0)
(0.0452839 -0.0191542 -7.04673e-24)
(0.519431 -0.181288 -5.60726e-24)
(0.559957 -0.199737 4.96307e-21)
(0.569301 -0.207521 0)
(0.546663 -0.203541 -4.54568e-21)
(0.495165 -0.188235 9.20691e-24)
(0.421064 -0.163366 -3.85929e-25)
(0.332178 -0.131502 0)
(0.236097 -0.0953521 0)
(0.138979 -0.0572539 0)
(0.0448552 -0.0189745 7.08071e-24)
(0.444723 -0.1517 0)
(0.512203 -0.178629 0)
(0.553197 -0.197294 -4.78797e-21)
(0.563108 -0.205249 4.45531e-21)
(0.541063 -0.201441 -4.3815e-21)
(0.490245 -0.186355 0)
(0.416956 -0.161766 -9.38247e-24)
(0.328954 -0.130221 0)
(0.233819 -0.0944327 0)
(0.137656 -0.0567065 7.0179e-21)
(0.0444229 -0.0187947 0)
(0.350133 -0.116684 3.75137e-21)
(0.43718 -0.148948 -2.30496e-23)
(0.505165 -0.176159 5.09139e-21)
(0.5467 -0.194966 -1.83134e-23)
(0.55707 -0.203026 4.27949e-21)
(0.53554 -0.199369 0)
(0.48538 -0.184493 0)
(0.412874 -0.160176 0)
(0.325777 -0.12896 0)
(0.231571 -0.093517 -5.70706e-21)
(0.136334 -0.0561638 -6.75044e-21)
(0.0439983 -0.018615 0)
(0.2442 -0.0794937 -5.32341e-21)
(0.342073 -0.113794 3.58848e-24)
(0.429934 -0.14649 1.11853e-24)
(0.498575 -0.173856 0)
(0.540459 -0.19271 0)
(0.551161 -0.200851 1.65435e-23)
(0.530094 -0.197324 -4.06182e-21)
(0.480556 -0.182651 0)
(0.408844 -0.158605 4.34498e-21)
(0.322613 -0.127701 0)
(0.229348 -0.092621 5.48354e-21)
(0.135045 -0.0556316 -3.1126e-24)
(0.0435784 -0.0184358 0)
(0.163402 -0.0524396 1.85278e-21)
(0.234486 -0.0761847 2.11047e-21)
(0.159252 -0.0510385 -1.8354e-21)
(0.334557 -0.111318 0)
(0.423502 -0.144294 -5.59098e-21)
(0.492421 -0.171673 4.84264e-21)
(0.534445 -0.190538 0)
(0.545374 -0.19872 3.98001e-21)
(0.524723 -0.195311 -7.45616e-24)
(0.475798 -0.180831 -7.92002e-21)
(0.404853 -0.157052 0)
(0.319516 -0.126473 -4.58053e-21)
(0.227167 -0.0917359 1.0891e-25)
(0.133765 -0.0551028 3.11785e-24)
(0.0431663 -0.0182594 0)
(0.108339 -0.0343557 8.99775e-25)
(0.152959 -0.0485744 -1.83032e-21)
(0.226244 -0.0734848 -9.36388e-22)
(0.146363 -0.0470392 -1.79415e-21)
(0.104653 -0.0332536 1.22492e-21)
(0.328556 -0.109271 6.52047e-21)
(0.417776 -0.1423 -5.38584e-21)
(0.486629 -0.169621 1.77822e-23)
(0.528624 -0.188438 0)
(0.539711 -0.196638 7.67665e-24)
(0.519437 -0.19333 3.74813e-21)
(0.471111 -0.179042 3.78773e-24)
(0.400931 -0.155523 4.02092e-21)
(0.316459 -0.125255 -2.10812e-24)
(0.225027 -0.0908692 2.51148e-24)
(0.132509 -0.0545806 0)
(0.0427832 -0.0180964 0)
(0.0666902 -0.0210044 5.70972e-22)
(0.0970633 -0.0302473 0)
(0.141747 -0.0453327 0)
(0.221207 -0.0716437 -2.09599e-21)
(0.139171 -0.0444555 3.46828e-21)
(0.0878632 -0.0280556 4.137e-22)
(0.0630806 -0.0198978 2.25302e-24)
(0.065335 -0.0207004 0)
(0.323684 -0.107597 -2.54619e-23)
(0.412586 -0.140497 7.52165e-25)
(0.481125 -0.167679 -6.66571e-25)
(0.522983 -0.186407 0)
(0.534163 -0.1946 0)
(0.514239 -0.191383 0)
(0.466497 -0.177277 0)
(0.397068 -0.154016 1.92164e-24)
(0.313473 -0.124068 2.10977e-24)
(0.222932 -0.090016 2.30473e-24)
(0.131316 -0.054083 -5.71737e-21)
(0.04239 -0.0179314 0)
(0.0389812 -0.012199 0)
(0.059205 -0.0185576 0)
(0.0524266 -0.0155371 -3.29276e-22)
(0.0835141 -0.0264102 4.05542e-22)
(0.137357 -0.0436704 6.74194e-21)
(0.217786 -0.0704926 1.95796e-21)
(0.136239 -0.0433615 -3.3549e-21)
(0.0818013 -0.0257212 -1.96225e-21)
(0.0420415 -0.0134916 -5.32998e-22)
(0.0454405 -0.0144217 -1.81959e-23)
(0.0364716 -0.0115103 4.84223e-22)
(0.03817 -0.0120116 -5.244e-22)
(0.319481 -0.106178 0)
(0.407772 -0.138838 5.16364e-21)
(0.475868 -0.165826 -1.72227e-23)
(0.517497 -0.184434 0)
(0.528729 -0.192606 -3.41251e-24)
(0.509136 -0.18947 -3.47246e-21)
(0.46195 -0.175541 3.50608e-21)
(0.39329 -0.152543 -3.68857e-21)
(0.310551 -0.122902 -4.04243e-21)
(0.220903 -0.0891858 4.63626e-21)
(0.130134 -0.0535932 -5.47875e-21)
(0.0420162 -0.0177741 0)
(0.0125716 -0.00391009 0)
(0.0337882 -0.0102205 4.95323e-22)
(0.0230704 -0.00552938 2.42083e-22)
(0.0402325 -0.0126467 -5.8245e-22)
(0.0394095 -0.0123693 8.59537e-24)
(0.080845 -0.0253815 -3.86443e-21)
(0.135186 -0.0429708 -3.30465e-21)
(0.215015 -0.0696338 -1.84244e-21)
(0.134428 -0.0428223 -3.21555e-21)
(0.0802416 -0.0251855 3.02328e-21)
(0.0388749 -0.0121271 -4.13909e-24)
(0.0390906 -0.012186 1.62252e-21)
(0.0138975 -0.00452917 3.68564e-22)
(0.0154201 -0.0050731 0)
(0.0116729 -0.00374365 -3.6265e-22)
(0.0123348 -0.00384907 3.71294e-22)
(0.315703 -0.104917 -5.96621e-21)
(0.403227 -0.137275 -4.96076e-21)
(0.470793 -0.164045 -7.98255e-24)
(0.512157 -0.182518 -3.73201e-21)
(0.523404 -0.190652 3.4167e-21)
(0.504113 -0.187593 -3.3191e-21)
(0.457511 -0.173843 3.36096e-21)
(0.389601 -0.1511 1.21868e-23)
(0.30771 -0.121764 0)
(0.218931 -0.0883816 4.442e-21)
(0.128999 -0.0531199 0)
(0.0416503 -0.0176212 0)
(0.0109388 -0.00354681 -2.29225e-22)
(0.00641108 -0.00148361 -4.85257e-23)
(0.0129249 -0.00406878 3.92354e-22)
(0.0125873 -0.00392973 7.2133e-22)
(0.0386892 -0.0120468 1.05046e-21)
(0.0385863 -0.0120412 4.04944e-24)
(0.0797538 -0.0250374 2.97355e-21)
(0.133559 -0.0425066 0)
(0.212566 -0.0688679 -1.80973e-21)
(0.132938 -0.0423853 -2.92867e-23)
(0.0793164 -0.024921 7.48012e-22)
(0.0384278 -0.0119798 -4.01175e-24)
(0.0384705 -0.0119794 -4.0947e-26)
(0.0124156 -0.00385097 7.07407e-22)
(0.0124809 -0.00387581 1.75621e-24)
(0.31218 -0.103746 1.16689e-20)
(0.398904 -0.1358 -9.42864e-24)
(0.465887 -0.162323 3.98341e-21)
(0.506935 -0.180644 3.59046e-21)
(0.518181 -0.188742 -1.57399e-24)
(0.499203 -0.185752 1.58857e-24)
(0.453163 -0.172177 6.44503e-21)
(0.386007 -0.149689 3.38458e-21)
(0.304953 -0.120657 0)
(0.217017 -0.0875947 0)
(0.127897 -0.0526638 2.39511e-24)
(0.0412823 -0.0174654 -4.94826e-21)
(0.0123645 -0.00383558 6.98156e-22)
(0.0123341 -0.00383189 6.92494e-22)
(0.0383 -0.0119208 0)
(0.038221 -0.0119268 1.00635e-21)
(0.0788932 -0.0247977 -1.12985e-23)
(0.13215 -0.0420859 3.04298e-21)
(0.210284 -0.0681476 -1.02448e-20)
(0.131549 -0.0419578 -2.92108e-24)
(0.0784999 -0.0246828 2.83688e-21)
(0.0380777 -0.0118851 9.86474e-22)
(0.0381341 -0.0118772 -9.88e-22)
(0.0123 -0.00381458 -6.81475e-22)
(0.0123036 -0.00381877 6.859e-22)
(0.30887 -0.102648 1.12142e-23)
(0.394737 -0.134371 0)
(0.461101 -0.160648 -3.82485e-21)
(0.50183 -0.178817 3.44956e-21)
(0.513065 -0.186864 1.57541e-24)
(0.494391 -0.183947 -6.11562e-21)
(0.448928 -0.170549 -3.08122e-21)
(0.382505 -0.14831 -1.54668e-24)
(0.30227 -0.119576 0)
(0.21517 -0.0868394 0)
(0.126811 -0.0522107 -4.67984e-24)
(0.0409514 -0.0173198 1.07245e-23)
(0.0122609 -0.00379893 6.76137e-22)
(0.012229 -0.00379682 -6.68131e-22)
(0.0379529 -0.0118286 0)
(0.0378894 -0.011828 3.78067e-24)
(0.0781015 -0.0245614 -2.75969e-24)
(0.130789 -0.0416627 2.94193e-21)
(0.208119 -0.0674466 3.34592e-21)
(0.130206 -0.04154 2.90464e-21)
(0.0777051 -0.0244424 -2.67203e-24)
(0.0377122 -0.011775 0)
(0.0377905 -0.0117755 9.64455e-22)
(0.0121857 -0.0037843 -8.39256e-25)
(0.0122145 -0.00378625 -6.66733e-22)
(0.30566 -0.10158 -5.50735e-21)
(0.390685 -0.132993 -2.10173e-24)
(0.456439 -0.159016 -3.67321e-21)
(0.496816 -0.177018 0)
(0.508045 -0.185023 3.01584e-21)
(0.489689 -0.18218 0)
(0.4448 -0.168957 -2.87908e-24)
(0.379116 -0.146971 -3.09175e-21)
(0.299692 -0.118535 0)
(0.213375 -0.0860999 3.83003e-21)
(0.125762 -0.0517678 9.11449e-21)
(0.0406106 -0.0171802 0)
(0.0121639 -0.00377466 2.57367e-24)
(0.012142 -0.00376949 6.5117e-22)
(0.0375832 -0.0117145 9.50459e-22)
(0.0375232 -0.0117171 0)
(0.0773158 -0.0243155 2.67454e-24)
(0.129483 -0.041247 -2.83709e-21)
(0.205993 -0.0667646 6.33781e-21)
(0.128917 -0.0411221 -2.80224e-21)
(0.0769282 -0.0242044 6.748e-22)
(0.0373502 -0.0116646 0)
(0.0374241 -0.0116666 0)
(0.0120691 -0.00374807 6.42687e-22)
(0.0121049 -0.00375202 -1.29501e-21)
(0.302569 -0.100557 0)
(0.386746 -0.131646 2.10521e-24)
(0.451857 -0.157412 -1.77826e-24)
(0.491896 -0.175254 -3.17808e-21)
(0.503122 -0.183214 2.92562e-21)
(0.485097 -0.180446 -2.81334e-21)
(0.440788 -0.167403 2.81788e-21)
(0.375846 -0.14567 0)
(0.297194 -0.117521 -3.23175e-21)
(0.21162 -0.0853751 -3.6722e-21)
(0.124746 -0.0513483 -2.17305e-24)
(0.0402663 -0.0170369 8.14959e-24)
(0.0120415 -0.00373536 -6.3588e-22)
(0.0120151 -0.00373165 6.32984e-22)
(0.0372325 -0.0116068 0)
(0.0371646 -0.0115994 0)
(0.0765374 -0.0240721 6.63512e-22)
(0.128212 -0.0408445 -2.72628e-21)
(0.203967 -0.0661058 -1.55255e-21)
(0.127646 -0.040723 -3.83333e-23)
(0.0761693 -0.0239607 2.5002e-24)
(0.036983 -0.0115501 0)
(0.0370475 -0.01155 -8.99232e-22)
(0.0119631 -0.00371522 6.25106e-22)
(0.0119943 -0.00371937 -6.29798e-22)
(0.299552 -0.0995504 0)
(0.382878 -0.130326 4.11856e-21)
(0.447341 -0.15583 3.38871e-21)
(0.487048 -0.173514 -2.99006e-21)
(0.498294 -0.181432 -3.08904e-23)
(0.480617 -0.178747 0)
(0.436911 -0.165888 2.69442e-21)
(0.37268 -0.144404 0)
(0.294759 -0.116531 2.98812e-24)
(0.209914 -0.084675 0)
(0.123734 -0.0509296 -4.09521e-21)
(0.0399463 -0.0169018 -4.06828e-21)
(0.0119338 -0.00370235 6.19445e-22)
(0.0119 -0.00369217 6.15716e-22)
(0.0368512 -0.0114886 -8.83611e-22)
(0.0367752 -0.0114875 -3.42374e-24)
(0.0758099 -0.023842 -2.50314e-24)
(0.126964 -0.0404455 2.68194e-21)
(0.201973 -0.0654596 1.49758e-21)
(0.126429 -0.0403252 2.60489e-21)
(0.0754353 -0.0237347 2.48246e-21)
(0.0366259 -0.0114335 0)
(0.036694 -0.0114395 3.42661e-24)
(0.0118386 -0.00367629 6.06709e-22)
(0.0118612 -0.00367867 -6.1152e-22)
(0.296581 -0.0985633 -4.7756e-21)
(0.379052 -0.129018 0)
(0.442888 -0.154271 0)
(0.482265 -0.171792 2.86419e-21)
(0.493557 -0.179676 -5.31479e-24)
(0.476262 -0.177079 -2.5448e-21)
(0.433146 -0.164408 -1.27983e-24)
(0.3696 -0.143171 0)
(0.292392 -0.11557 -1.45495e-24)
(0.208246 -0.0839922 3.30053e-21)
(0.12275 -0.0505224 7.78189e-21)
(0.0396255 -0.0167654 0)
(0.011808 -0.00366312 0)
(0.0117782 -0.00365926 5.97067e-22)
(0.0364873 -0.0113744 0)
(0.0364282 -0.0113731 0)
(0.0750712 -0.0236065 -1.81791e-21)
(0.125759 -0.0400633 0)
(0.200007 -0.0648227 0)
(0.125215 -0.0399435 2.7242e-23)
(0.0747152 -0.023503 1.21496e-21)
(0.0362747 -0.0113288 8.42116e-22)
(0.0363345 -0.0113268 -3.27861e-24)
(0.0117228 -0.00363853 5.89106e-22)
(0.0117607 -0.00364742 -5.93281e-22)
(0.293646 -0.097586 0)
(0.375269 -0.127724 7.16461e-24)
(0.43846 -0.152716 0)
(0.477533 -0.170081 0)
(0.488905 -0.177934 0)
(0.472011 -0.175439 -1.27536e-24)
(0.429491 -0.162966 2.44103e-21)
(0.36661 -0.141972 0)
(0.290076 -0.114634 -2.74209e-21)
(0.206612 -0.0833241 -3.12072e-21)
(0.121779 -0.0501158 -3.66535e-21)
(0.0392945 -0.016626 -3.63387e-21)
(0.0116813 -0.00362447 5.83086e-22)
(0.0116622 -0.00362013 5.78849e-22)
(0.0361568 -0.0112704 -8.2417e-22)
(0.0360836 -0.0112641 -3.19139e-24)
(0.0743573 -0.023384 -9.16797e-24)
(0.124557 -0.0396816 0)
(0.198071 -0.0641945 1.39496e-21)
(0.124034 -0.0395633 -2.44475e-21)
(0.074003 -0.0232819 -2.30451e-21)
(0.0359266 -0.0112167 -8.05921e-22)
(0.0360014 -0.0112281 -8.06676e-22)
(0.0116078 -0.00360548 1.71725e-24)
(0.0116398 -0.00360883 -5.7569e-22)
(0.290737 -0.0966135 8.55573e-24)
(0.371489 -0.126431 -7.17138e-24)
(0.434034 -0.151157 1.15729e-23)
(0.472829 -0.168363 -5.08102e-24)
(0.484335 -0.176208 -4.64237e-24)
(0.467874 -0.173829 -2.3089e-21)
(0.425932 -0.161557 0)
(0.363684 -0.140804 5.21992e-24)
(0.287812 -0.113719 0)
(0.204988 -0.0826554 2.95548e-21)
(0.120802 -0.0497082 3.53031e-23)
(0.0389636 -0.0164853 -1.34523e-23)
(0.0115877 -0.00359393 5.65844e-22)
(0.0115587 -0.00358643 0)
(0.0357948 -0.0111569 0)
(0.0357485 -0.0111572 0)
(0.0736669 -0.0231675 0)
(0.123393 -0.0393128 0)
(0.196154 -0.0635684 1.33175e-21)
(0.122872 -0.0391922 -2.32646e-21)
(0.0733044 -0.023062 2.23254e-21)
(0.0355922 -0.0111139 7.81394e-22)
(0.0356587 -0.0111183 0)
(0.0115027 -0.00357165 1.07492e-24)
(0.0115337 -0.00358029 5.56441e-22)
(0.28782 -0.0956382 -4.36287e-21)
(0.367661 -0.125119 -1.32088e-23)
(0.429561 -0.149571 -2.95165e-21)
(0.468143 -0.166633 -2.57167e-21)
(0.479836 -0.174483 4.63456e-24)
(0.463824 -0.172247 -2.08816e-24)
(0.422448 -0.160184 2.17799e-21)
(0.36082 -0.139662 0)
(0.285556 -0.112805 0)
(0.203362 -0.0819853 2.79074e-21)
(0.119821 -0.049297 3.24367e-21)
(0.0386407 -0.0163454 -3.21834e-21)
(0.0114629 -0.00355545 5.46227e-22)
(0.0114452 -0.00355095 -5.4393e-22)
(0.0354826 -0.0110574 0)
(0.0354255 -0.0110601 0)
(0.0729785 -0.0229523 -8.53023e-24)
(0.122232 -0.0389369 8.84804e-24)
(0.194246 -0.0629454 3.73531e-21)
(0.121715 -0.0388202 -4.50564e-21)
(0.0726313 -0.0228505 5.5659e-22)
(0.0352574 -0.011008 7.50699e-22)
(0.0353309 -0.0110201 2.94568e-24)
(0.0113957 -0.00353828 3.67868e-24)
(0.0114193 -0.00354266 5.39043e-22)
(0.284856 -0.0946485 -8.22843e-24)
(0.363736 -0.12377 3.2846e-21)
(0.425016 -0.147938 2.75082e-21)
(0.463442 -0.164866 -2.46982e-21)
(0.475394 -0.172771 1.04477e-24)
(0.45985 -0.170701 2.08478e-24)
(0.419032 -0.158843 -3.90625e-24)
(0.357975 -0.138529 8.10856e-24)
(0.283304 -0.111891 0)
(0.201734 -0.081312 -3.02338e-23)
(0.118835 -0.0488796 -1.15917e-23)
(0.0383038 -0.0162024 3.01274e-21)
(0.0113728 -0.00352506 -5.33249e-22)
(0.0113425 -0.00352215 5.25746e-22)
(0.0351409 -0.0109515 -7.45365e-22)
(0.0350928 -0.0109572 2.85999e-24)
(0.0723007 -0.0227344 0)
(0.1211 -0.0385774 2.20878e-21)
(0.192314 -0.0623125 -1.25351e-21)
(0.120584 -0.0384566 2.15447e-21)
(0.0719509 -0.0226332 2.07313e-21)
(0.0349356 -0.0109092 0)
(0.0350033 -0.0109183 -7.28729e-22)
(0.0112943 -0.00350535 1.70709e-24)
(0.0113238 -0.00351613 5.21313e-22)
(0.281766 -0.093616 1.51767e-23)
(0.359618 -0.12234 3.234e-21)
(0.420317 -0.146218 2.63675e-21)
(0.458716 -0.163067 0)
(0.471003 -0.171083 -1.04303e-24)
(0.455947 -0.169196 0)
(0.415653 -0.157522 1.12788e-23)
(0.355132 -0.137395 -1.57387e-23)
(0.281047 -0.110973 -2.19011e-21)
(0.200107 -0.0806354 9.22677e-24)
(0.117834 -0.0484549 7.78373e-25)
(0.0379625 -0.0160607 -2.82253e-21)
(0.0112526 -0.00348797 5.11505e-22)
(0.0112296 -0.00348793 5.08292e-22)
(0.0348378 -0.0108561 2.78064e-24)
(0.0347787 -0.0108569 -1.40557e-24)
(0.0716434 -0.0225293 -2.0397e-21)
(0.119969 -0.0382142 2.08986e-21)
(0.190305 -0.0616544 -1.19156e-21)
(0.119446 -0.0380873 0)
(0.0713008 -0.0224298 9.88073e-24)
(0.0346167 -0.010807 0)
(0.0346748 -0.0108093 -1.37904e-24)
(0.0111927 -0.00347487 5.01783e-22)
(0.0112132 -0.00348181 0)
(0.278402 -0.0924934 9.5489e-23)
(0.355201 -0.120782 -3.1158e-21)
(0.41544 -0.144385 -2.60917e-21)
(0.453975 -0.161264 0)
(0.466678 -0.169446 -7.42163e-24)
(0.4521 -0.167722 0)
(0.41229 -0.156205 -7.37319e-24)
(0.352296 -0.13626 7.63106e-24)
(0.278798 -0.11005 2.04963e-21)
(0.198453 -0.0799436 -9.23103e-24)
(0.116832 -0.0480314 2.08916e-23)
(0.0376085 -0.0159131 0)
(0.0111628 -0.00345936 -9.74607e-25)
(0.0111375 -0.00345786 4.90678e-22)
(0.0345203 -0.0107621 0)
(0.0344595 -0.0107578 0)
(0.0709781 -0.0223201 -4.96834e-22)
(0.118846 -0.0378523 2.04512e-21)
(0.188068 -0.0609332 -5.62887e-21)
(0.118284 -0.0377105 1.98601e-21)
(0.0706483 -0.0222207 4.8674e-22)
(0.0343107 -0.0107101 -1.31486e-24)
(0.0343743 -0.0107197 1.31397e-24)
(0.0110795 -0.00343857 -4.84373e-22)
(0.0111142 -0.00344714 4.88981e-22)
(0.274623 -0.0912218 3.6559e-21)
(0.350318 -0.118993 2.9137e-21)
(0.410388 -0.142477 -1.21416e-24)
(0.449283 -0.159528 2.08004e-21)
(0.462442 -0.167862 4.01426e-25)
(0.448302 -0.166264 0)
(0.408944 -0.154888 1.74266e-21)
(0.349464 -0.135118 -1.77908e-21)
(0.276524 -0.109114 -7.70294e-24)
(0.196796 -0.079247 7.99825e-24)
(0.115809 -0.0475983 2.45494e-21)
(0.0372492 -0.0157601 4.54433e-24)
(0.0110573 -0.00343063 4.7911e-22)
(0.0110336 -0.00342683 4.74866e-22)
(0.0342051 -0.0106631 0)
(0.0341609 -0.0106653 6.53438e-22)
(0.070338 -0.0221138 -1.4052e-21)
(0.117626 -0.0374613 1.92702e-21)
(0.185403 -0.0600739 0)
(0.116965 -0.0372882 -1.93539e-21)
(0.0699877 -0.0220124 0)
(0.0340042 -0.0106154 5.35464e-24)
(0.0340713 -0.0106217 -1.25281e-24)
(0.0109941 -0.00341067 -4.68173e-22)
(0.0110155 -0.00341838 4.70753e-22)
(0.269981 -0.0896093 1.78155e-21)
(0.344938 -0.116959 2.89365e-21)
(0.40534 -0.140659 -2.22263e-21)
(0.444748 -0.157879 -7.35814e-24)
(0.458312 -0.166312 7.02199e-24)
(0.44454 -0.164812 -1.642e-21)
(0.405603 -0.153566 -6.54437e-24)
(0.346622 -0.133968 -1.67031e-21)
(0.274235 -0.108166 0)
(0.19512 -0.0785428 -1.99181e-21)
(0.114767 -0.0471537 -2.27201e-21)
(0.0368968 -0.01561 -1.28551e-23)
(0.01096 -0.00340024 0)
(0.0109452 -0.00339986 0)
(0.0339052 -0.0105691 1.25084e-24)
(0.0338497 -0.010565 -6.29777e-22)
(0.069656 -0.021897 -4.47848e-22)
(0.116191 -0.0370097 -1.89014e-21)
(0.181648 -0.058871 -2.63911e-21)
(0.115232 -0.0367457 1.42685e-23)
(0.0692805 -0.0217886 2.22134e-21)
(0.033703 -0.0105181 0)
(0.0337719 -0.0105314 0)
(0.0108847 -0.00337789 -9.0226e-22)
(0.0109204 -0.00338631 4.55139e-22)
(0.264135 -0.0874181 -3.36593e-21)
(0.33946 -0.115047 -2.63888e-21)
(0.400578 -0.138988 2.1678e-21)
(0.440417 -0.156293 7.36946e-24)
(0.454275 -0.164786 1.68388e-21)
(0.440812 -0.163367 -1.57638e-21)
(0.402265 -0.152241 1.51903e-21)
(0.343756 -0.132803 5.85043e-24)
(0.27194 -0.107213 -1.64738e-21)
(0.19343 -0.0778284 1.82765e-21)
(0.113734 -0.046711 2.07694e-21)
(0.0365272 -0.0154527 8.31937e-24)
(0.0108635 -0.00337045 4.46728e-22)
(0.0108416 -0.00336698 4.42639e-22)
(0.033596 -0.0104728 6.09111e-22)
(0.0335468 -0.010471 -1.18046e-24)
(0.0688987 -0.0216501 1.75617e-21)
(0.113904 -0.0363682 1.7778e-21)
(0.174873 -0.0564604 -1.58243e-23)
(0.112027 -0.0357548 -1.38786e-23)
(0.068364 -0.0215069 4.21862e-22)
(0.0334118 -0.0104275 7.53039e-24)
(0.033463 -0.0104339 -1.15925e-24)
(0.0107986 -0.00334894 0)
(0.0108279 -0.00336001 4.38606e-22)
(0.257911 -0.0853449 3.0953e-21)
(0.33454 -0.113388 -2.42637e-21)
(0.396221 -0.137432 -1.62439e-23)
(0.436278 -0.154762 -1.72972e-21)
(0.45032 -0.163287 1.55338e-21)
(0.437116 -0.16193 0)
(0.398933 -0.150914 -1.43497e-21)
(0.340903 -0.131637 1.43518e-21)
(0.269634 -0.10625 -1.51658e-21)
(0.191745 -0.0771086 -1.67637e-21)
(0.112683 -0.0462536 -1.88695e-21)
(0.0361449 -0.0152908 0)
(0.0107585 -0.00333785 4.31029e-22)
(0.0107431 -0.00333708 4.27296e-22)
(0.0333234 -0.0103828 -1.15786e-24)
(0.0332548 -0.0103704 0)
(0.0676539 -0.0213069 -4.10217e-22)
(0.108649 -0.0346558 9.17362e-22)
(0.166695 -0.0539396 5.2135e-22)
(0.103104 -0.032577 1.39529e-23)
(0.06652 -0.0209888 -5.11262e-23)
(0.0330764 -0.0103243 -5.73129e-22)
(0.0331648 -0.0103391 5.80443e-22)
(0.0107063 -0.00332178 -8.41284e-22)
(0.0107308 -0.00332951 4.23676e-22)
(0.252909 -0.0836714 -3.03569e-21)
(0.330357 -0.111921 0)
(0.392191 -0.135968 0)
(0.432298 -0.153286 -1.26776e-23)
(0.446445 -0.161814 -1.51054e-21)
(0.433459 -0.160503 2.76581e-21)
(0.395624 -0.149586 -5.38106e-24)
(0.338052 -0.130465 -8.09902e-24)
(0.267333 -0.105277 -1.40166e-21)
(0.190039 -0.0763734 1.5234e-21)
(0.111602 -0.0457852 1.69367e-21)
(0.0357612 -0.0151303 2.93175e-24)
(0.0106868 -0.0033134 4.16505e-22)
(0.0106603 -0.00330624 4.13443e-22)
(0.03294 -0.0102737 6.41245e-24)
(0.0327977 -0.0102439 -4.36662e-24)
(0.0642755 -0.0202504 -5.64875e-22)
(0.0967853 -0.0308257 -8.67616e-22)
(0.16187 -0.0521625 3.03175e-21)
(0.0932053 -0.0298091 -7.98609e-22)
(0.0570572 -0.0176423 0)
(0.032299 -0.0101157 -2.77639e-22)
(0.0326282 -0.0101857 4.35567e-24)
(0.0106101 -0.00329256 4.06986e-22)
(0.0106392 -0.00329898 -4.0804e-22)
(0.249214 -0.0823686 2.28795e-23)
(0.326709 -0.110617 0)
(0.388422 -0.134602 0)
(0.428462 -0.151862 1.56652e-21)
(0.442647 -0.160363 -1.37858e-21)
(0.429843 -0.159083 -3.44632e-25)
(0.392337 -0.148258 -2.78974e-23)
(0.335209 -0.129283 1.21584e-21)
(0.265027 -0.104297 4.69118e-24)
(0.188317 -0.07563 -2.71472e-21)
(0.110525 -0.0453178 0)
(0.0353626 -0.0149619 -2.93856e-24)
(0.0105755 -0.00328083 2.54651e-24)
(0.0105358 -0.00327046 3.98606e-22)
(0.0317348 -0.0100053 -1.65232e-23)
(0.0305258 -0.00947062 -2.4819e-22)
(0.0479964 -0.0154984 -1.4642e-22)
(0.09141 -0.0289385 7.69854e-22)
(0.159246 -0.0511747 -8.4299e-22)
(0.0904577 -0.0286008 1.22753e-23)
(0.044947 -0.0141933 1.10709e-21)
(0.0189425 -0.00444175 0)
(0.027925 -0.00830007 0)
(0.010383 -0.00322722 5.84499e-22)
(0.0104978 -0.0032529 -3.95375e-22)
(0.246257 -0.081333 -2.85445e-21)
(0.323413 -0.109449 0)
(0.384866 -0.133314 -6.73529e-24)
(0.424745 -0.150475 0)
(0.438923 -0.158934 0)
(0.426274 -0.157671 1.17968e-21)
(0.389064 -0.146926 1.15971e-21)
(0.332377 -0.128098 0)
(0.262713 -0.103306 1.1344e-21)
(0.186601 -0.0748807 -1.1973e-21)
(0.109428 -0.0448341 1.30025e-21)
(0.0349532 -0.0147929 0)
(0.0101915 -0.00319751 -3.85918e-22)
(0.00972503 -0.00311356 -1.7655e-22)
(0.0127015 -0.00398458 2.15117e-22)
(0.0113028 -0.0037592 0)
(0.044137 -0.0137725 0)
(0.089746 -0.0283089 -1.22691e-23)
(0.157411 -0.0505925 4.24272e-21)
(0.0893051 -0.0282165 1.51116e-21)
(0.0437161 -0.0136182 3.63671e-22)
(0.01034 -0.00325486 -3.85995e-22)
(0.0106106 -0.00335057 1.99968e-22)
(0.00523748 -0.00117991 0)
(0.00905723 -0.0029086 -1.68844e-22)
(0.243708 -0.0804627 0)
(0.320382 -0.108381 -2.12384e-21)
(0.381472 -0.132081 1.31404e-23)
(0.421141 -0.149127 0)
(0.435272 -0.157523 1.26952e-21)
(0.422745 -0.156266 -1.09358e-21)
(0.385833 -0.145597 -3.90036e-24)
(0.329558 -0.126904 0)
(0.260416 -0.102306 1.00176e-21)
(0.184871 -0.0741156 -1.04461e-21)
(0.108304 -0.0443402 0)
(0.0345331 -0.0146161 0)
(0.0102997 -0.0032013 -3.85667e-22)
(0.0102565 -0.00318839 0)
(0.0434626 -0.0135413 1.15351e-23)
(0.0888194 -0.0280543 -1.23611e-25)
(0.155858 -0.0501282 -8.34176e-22)
(0.0884818 -0.0279989 -1.45129e-21)
(0.0432658 -0.0134836 0)
(0.0102167 -0.0031756 7.10046e-25)
(0.0102278 -0.00316806 3.75385e-22)
(0.241425 -0.0796913 2.49463e-21)
(0.317538 -0.107379 2.02603e-21)
(0.37822 -0.130896 -6.40282e-24)
(0.417634 -0.147805 -1.30203e-21)
(0.431689 -0.156128 -1.19081e-21)
(0.419272 -0.154866 -1.06512e-21)
(0.382624 -0.144262 9.82434e-22)
(0.326757 -0.125702 -9.24305e-22)
(0.25811 -0.101293 -8.93842e-22)
(0.183113 -0.0733344 7.76485e-25)
(0.107169 -0.0438364 8.9045e-22)
(0.0341057 -0.0144347 0)
(0.0102012 -0.00316099 -7.08223e-25)
(0.0101932 -0.00316794 3.61028e-22)
(0.0430988 -0.0134425 3.50292e-22)
(0.0880582 -0.0278474 0)
(0.154483 -0.0496993 0)
(0.0877357 -0.027788 1.38421e-21)
(0.0429327 -0.013391 -1.31948e-24)
(0.0101623 -0.00315673 3.52913e-22)
(0.0101709 -0.00315151 3.5675e-22)
(0.23931 -0.0789745 -2.36971e-21)
(0.314837 -0.106425 0)
(0.375078 -0.129745 5.72946e-24)
(0.414214 -0.146507 1.21611e-21)
(0.428176 -0.154745 1.04665e-21)
(0.415842 -0.153468 -9.22559e-22)
(0.37945 -0.142923 1.72912e-21)
(0.32397 -0.124491 7.84241e-22)
(0.255802 -0.100267 0)
(0.181343 -0.072539 -7.15793e-22)
(0.106007 -0.0433153 0)
(0.0336591 -0.0142474 0)
(0.010142 -0.00314418 -6.85029e-25)
(0.0101412 -0.00315044 6.45429e-25)
(0.0427771 -0.0133512 -1.26316e-24)
(0.087327 -0.0276292 -1.37604e-21)
(0.153198 -0.049286 1.53991e-21)
(0.0870406 -0.0275683 0)
(0.0425948 -0.0133004 2.58713e-24)
(0.0101027 -0.00313602 6.66364e-25)
(0.0101176 -0.00313367 3.42195e-22)
(0.237306 -0.078294 -9.31845e-24)
(0.312245 -0.105507 -6.78872e-24)
(0.372035 -0.128623 -3.17153e-25)
(0.41088 -0.145228 -1.21395e-21)
(0.424726 -0.153371 0)
(0.412466 -0.152071 -8.44576e-22)
(0.376311 -0.141579 0)
(0.321198 -0.123268 -1.44783e-24)
(0.253489 -0.0992234 0)
(0.179555 -0.0717249 0)
(0.104821 -0.0427796 4.58562e-22)
(0.0331918 -0.0140541 -2.26707e-22)
(0.0100796 -0.00312411 3.35612e-22)
(0.0100752 -0.00313091 0)
(0.042428 -0.0132483 1.26392e-21)
(0.0866416 -0.0274095 -1.28901e-21)
(0.151958 -0.0488854 1.46865e-21)
(0.0863419 -0.0273451 -1.25698e-21)
(0.0422607 -0.0131947 -3.13181e-22)
(0.0100274 -0.0031173 3.24169e-22)
(0.0100439 -0.00311482 3.29995e-22)
(0.235397 -0.0776429 -4.20718e-24)
(0.30976 -0.104619 1.74296e-21)
(0.369077 -0.127521 1.29997e-21)
(0.407626 -0.143966 1.14798e-21)
(0.421346 -0.152004 1.73777e-24)
(0.409134 -0.150671 1.46252e-24)
(0.373197 -0.140223 7.12575e-22)
(0.31843 -0.122026 0)
(0.251162 -0.0981572 1.9965e-25)
(0.177735 -0.0708871 -3.68014e-22)
(0.103596 -0.0422264 2.30638e-22)
(0.0327109 -0.0138533 8.51735e-26)
(0.0100002 -0.00310137 3.22171e-22)
(0.00999382 -0.00310596 3.19427e-22)
(0.0420985 -0.0131413 0)
(0.0859676 -0.0271973 -2.47721e-21)
(0.150775 -0.0484957 6.9905e-22)
(0.0856864 -0.0271381 -1.2016e-21)
(0.0419267 -0.0130863 -1.15834e-24)
(0.0099466 -0.00309142 3.13495e-22)
(0.00996147 -0.00308852 3.13431e-22)
(0.23357 -0.0770134 -2.04101e-21)
(0.307343 -0.103749 1.6489e-21)
(0.366214 -0.126442 -1.2265e-21)
(0.404448 -0.142712 -2.08515e-24)
(0.418027 -0.150639 -1.73774e-24)
(0.405854 -0.149267 -6.75804e-22)
(0.370112 -0.138855 0)
(0.315674 -0.120766 0)
(0.248816 -0.0970663 -1.99789e-25)
(0.175893 -0.0700294 -3.93865e-22)
(0.102336 -0.0416523 0)
(0.0322121 -0.0136477 -3.12221e-22)
(0.00992072 -0.00307607 3.09104e-22)
(0.00991338 -0.00308073 3.05995e-22)
(0.0417715 -0.013039 1.16131e-21)
(0.0853222 -0.0269909 -1.16878e-24)
(0.149646 -0.04812 -2.16502e-23)
(0.0850441 -0.0269308 -1.14449e-21)
(0.0416203 -0.0129962 0)
(0.00987851 -0.00306592 5.82348e-25)
(0.00989234 -0.00306569 -5.94857e-25)
(0.231796 -0.0764004 -1.94206e-21)
(0.305015 -0.102902 0)
(0.363429 -0.125375 1.24073e-21)
(0.401343 -0.141465 0)
(0.414771 -0.149273 0)
(0.402618 -0.147856 0)
(0.367051 -0.137471 5.35732e-22)
(0.312919 -0.119483 -3.91212e-22)
(0.246459 -0.0959498 1.75031e-22)
(0.174001 -0.0691397 -2.55207e-23)
(0.101042 -0.0410633 1.94134e-25)
(0.031689 -0.0134365 -2.22849e-25)
(0.00984275 -0.00305028 2.95608e-22)
(0.00983821 -0.00305726 2.92383e-22)
(0.0414658 -0.0129443 0)
(0.084699 -0.02679 2.24596e-21)
(0.148545 -0.0477571 6.34023e-22)
(0.0844388 -0.0267295 -1.08999e-21)
(0.0413071 -0.0128981 1.05586e-24)
(0.00980847 -0.00304773 0)
(0.00981465 -0.00304394 2.90533e-22)
(0.230091 -0.0758066 -1.94222e-21)
(0.302757 -0.102067 -1.39447e-21)
(0.360716 -0.124314 2.14457e-24)
(0.398307 -0.14022 1.69219e-24)
(0.411576 -0.147906 0)
(0.399426 -0.146432 -5.0668e-22)
(0.36402 -0.136067 3.55342e-22)
(0.310154 -0.118168 0)
(0.244067 -0.0947997 2.13837e-23)
(0.172069 -0.0682223 0)
(0.0996913 -0.0404553 -5.2135e-25)
(0.0311563 -0.0132272 -2.06003e-24)
(0.00977569 -0.00303061 2.83757e-22)
(0.00976149 -0.00303397 2.80294e-22)
(0.0411729 -0.0128517 -1.05778e-21)
(0.0840916 -0.0265943 4.13426e-24)
(0.14749 -0.0474092 2.89609e-21)
(0.0838297 -0.0265383 -1.04133e-21)
(0.0410199 -0.0128018 0)
(0.00973031 -0.00302402 5.32223e-25)
(0.00973835 -0.00302008 2.77379e-22)
(0.228443 -0.0752283 0)
(0.300575 -0.101242 0)
(0.35808 -0.123258 -1.63906e-24)
(0.395347 -0.13898 8.81123e-22)
(0.408443 -0.146534 0)
(0.396282 -0.144993 0)
(0.360999 -0.134634 0)
(0.307379 -0.11682 2.14276e-26)
(0.241631 -0.0936121 0)
(0.170085 -0.067276 0)
(0.0982843 -0.0398391 3.27614e-25)
(0.0306245 -0.0130117 -1.20964e-21)
(0.00970573 -0.00300976 2.70531e-22)
(0.00970182 -0.00301391 2.67913e-22)
(0.0408809 -0.0127594 2.52366e-22)
(0.0835016 -0.0264078 0)
(0.146467 -0.0470799 -5.69422e-22)
(0.0832541 -0.0263539 -9.8658e-22)
(0.040729 -0.012715 3.93704e-24)
(0.0096647 -0.00300134 0)
(0.00967724 -0.00299859 2.65659e-22)
(0.226863 -0.074659 1.76633e-21)
(0.298466 -0.100416 0)
(0.355512 -0.122206 -9.48916e-22)
(0.392458 -0.137743 0)
(0.405372 -0.145152 0)
(0.393176 -0.143533 4.55581e-22)
(0.357991 -0.133171 7.14161e-26)
(0.304595 -0.115439 -2.14362e-26)
(0.239163 -0.0923885 2.29827e-22)
(0.168025 -0.066295 5.85969e-22)
(0.0968158 -0.0392418 0)
(0.0302376 -0.0127141 1.55419e-21)
(0.0096387 -0.00298819 0)
(0.00963537 -0.00299329 2.58184e-25)
(0.0405936 -0.0126705 0)
(0.0829239 -0.0262318 9.58359e-25)
(0.145479 -0.0467767 -2.09297e-21)
(0.0826713 -0.0261885 9.37778e-22)
(0.0404494 -0.0126273 0)
(0.00959267 -0.00298123 2.50297e-22)
(0.00960661 -0.0029785 2.5409e-22)
(0.22536 -0.0740758 -7.85717e-25)
(0.296413 -0.0995914 0)
(0.35303 -0.121171 0)
(0.389644 -0.136502 0)
(0.402363 -0.143756 -4.48603e-22)
(0.390108 -0.142047 1.32035e-25)
(0.354999 -0.131674 -7.14371e-26)
(0.301786 -0.114011 -1.16891e-22)
(0.236626 -0.0911216 -4.89744e-22)
(0.16592 -0.0653069 0)
(0.0952465 -0.0385885 0)
(0.0306285 -0.0124532 0)
(0.00957049 -0.00296778 0)
(0.00956395 -0.00297172 2.44541e-22)
(0.0403088 -0.0125835 0)
(0.0823497 -0.0260974 9.28467e-22)
(0.14466 -0.0463333 1.02679e-24)
(0.0821325 -0.0261124 3.56215e-24)
(0.0401654 -0.0125425 0)