/*--------------------------------*- C++ -*----------------------------------*\
| =========                 |                                                 |
| \\      /  F ield         | OpenFOAM: The Open Source CFD Toolbox           |
|  \\    /   O peration     | Version:  v1912                                 |
|   \\  /    A nd           | Website:  www.openfoam.com                      |
|    \\/     M anipulation  |                                                 |
\*---------------------------------------------------------------------------*/
FoamFile
{
    version     2.0;
    format      ascii;
    class       volVectorField;
    location    "300";
    object      U;
}
// * * * * * * * * * * * * * * * * * * * * * * * * * * * * * * * * * * * * * //

dimensions      [0 1 -1 0 0 0 0];


internalField   nonuniform List<vector> 
3754
(
(0.0489725 -0.020704 0)
(0.150209 -0.0618595 -1.86787e-23)
(0.0484727 -0.0204999 8.69041e-24)
(0.252633 -0.10201 0)
(0.148708 -0.0612513 9.18645e-24)
(0.0479944 -0.0202981 -8.74239e-24)
(0.352033 -0.139354 6.55953e-21)
(0.250149 -0.101014 7.1776e-24)
(0.147259 -0.0606574 8.85768e-21)
(0.0475308 -0.0201007 0)
(0.442119 -0.171556 -5.76926e-21)
(0.348587 -0.137987 6.30167e-21)
(0.247715 -0.100033 -7.25667e-21)
(0.145824 -0.0600691 -8.21026e-24)
(0.0470658 -0.0199049 0)
(0.515274 -0.195935 5.01234e-24)
(0.437753 -0.169844 -5.55084e-21)
(0.345192 -0.136645 0)
(0.245321 -0.0990752 2.67943e-25)
(0.144405 -0.0594859 8.23001e-24)
(0.0466171 -0.0197143 0)
(0.563881 -0.210037 -1.98007e-25)
(0.510077 -0.193925 -5.03853e-21)
(0.433449 -0.168173 -5.09719e-24)
(0.341859 -0.135333 5.83175e-21)
(0.242944 -0.0981164 6.66421e-24)
(0.143021 -0.0589156 0)
(0.0461663 -0.0195232 0)
(0.581954 -0.212239 4.68014e-24)
(0.557973 -0.207784 4.74702e-21)
(0.504971 -0.191974 0)
(0.429233 -0.166539 -5.13123e-21)
(0.338551 -0.134023 5.61484e-24)
(0.240601 -0.0971687 0)
(0.141648 -0.0583497 0)
(0.045715 -0.0193316 0)
(0.566689 -0.202239 0)
(0.57548 -0.209802 -4.7239e-21)
(0.55218 -0.205605 0)
(0.49996 -0.190062 -8.89596e-24)
(0.425046 -0.164912 1.43388e-23)
(0.335268 -0.132722 0)
(0.238281 -0.0962331 0)
(0.140277 -0.0577828 0)
(0.0452748 -0.0191433 -6.82483e-24)
(0.519254 -0.181222 -5.43246e-24)
(0.559785 -0.199672 4.80285e-21)
(0.569132 -0.207456 0)
(0.546493 -0.203475 -4.39536e-21)
(0.494991 -0.188167 8.90467e-24)
(0.420894 -0.163298 -3.75629e-25)
(0.332026 -0.131438 0)
(0.235982 -0.0953006 0)
(0.138918 -0.0572214 0)
(0.0448467 -0.0189638 6.85774e-24)
(0.444551 -0.151637 0)
(0.512027 -0.178565 0)
(0.553026 -0.19723 -4.63167e-21)
(0.562941 -0.205187 4.30795e-21)
(0.540896 -0.201378 -4.23563e-21)
(0.490074 -0.186289 0)
(0.416789 -0.161699 -9.07367e-24)
(0.328804 -0.130158 0)
(0.233707 -0.0943816 0)
(0.137597 -0.0566744 6.7926e-21)
(0.0444146 -0.0187843 0)
(0.349981 -0.116628 3.63951e-21)
(0.437009 -0.148886 -2.23183e-23)
(0.504991 -0.176095 4.92528e-21)
(0.54653 -0.194904 -1.77104e-23)
(0.556905 -0.202965 4.13698e-21)
(0.535374 -0.199307 0)
(0.485212 -0.184428 0)
(0.412709 -0.16011 0)
(0.32563 -0.128898 0)
(0.231461 -0.0934664 -5.52428e-21)
(0.136276 -0.0561323 -6.53342e-21)
(0.0439898 -0.0186048 0)
(0.244083 -0.0794504 -5.16477e-21)
(0.341924 -0.113739 3.47975e-24)
(0.429765 -0.146428 1.09756e-24)
(0.498403 -0.173794 0)
(0.540291 -0.192649 0)
(0.550998 -0.200791 1.599e-23)
(0.529931 -0.197263 -3.92492e-21)
(0.480391 -0.182587 0)
(0.408682 -0.15854 4.1993e-21)
(0.322468 -0.127639 0)
(0.229239 -0.092571 5.30767e-21)
(0.134987 -0.0556005 -3.01325e-24)
(0.0435698 -0.0184257 0)
(0.163311 -0.0524077 1.7978e-21)
(0.234373 -0.0761426 2.04819e-21)
(0.159164 -0.0510057 -1.7816e-21)
(0.334409 -0.111263 0)
(0.423334 -0.144234 -5.40999e-21)
(0.492249 -0.171611 4.68379e-21)
(0.534278 -0.190479 0)
(0.545213 -0.198662 3.84584e-21)
(0.524563 -0.195251 -7.20331e-24)
(0.475636 -0.180769 -7.65306e-21)
(0.404694 -0.156987 0)
(0.319373 -0.126412 -4.42801e-21)
(0.227059 -0.0916865 1.05601e-25)
(0.133708 -0.0550721 3.01834e-24)
(0.043158 -0.0182493 0)
(0.108274 -0.0343334 8.55662e-25)
(0.152874 -0.0485444 -1.77686e-21)
(0.226135 -0.0734446 -9.07336e-22)
(0.146283 -0.047009 -1.74037e-21)
(0.10459 -0.0332309 1.18896e-21)
(0.32841 -0.109218 6.30948e-21)
(0.417609 -0.142241 -5.20932e-21)
(0.486458 -0.169561 1.71916e-23)
(0.528459 -0.18838 0)
(0.539552 -0.196581 7.41705e-24)
(0.51928 -0.193271 3.62115e-21)
(0.470952 -0.17898 3.65967e-24)
(0.400775 -0.155459 3.88695e-21)
(0.316318 -0.125195 -2.03817e-24)
(0.22492 -0.0908202 2.42976e-24)
(0.132452 -0.0545501 0)
(0.0427752 -0.0180863 0)
(0.0666464 -0.0209893 5.54094e-22)
(0.0970055 -0.0302274 0)
(0.141668 -0.0453052 0)
(0.2211 -0.0716049 -2.03076e-21)
(0.139094 -0.0444275 3.36085e-21)
(0.0878122 -0.0280369 4.01329e-22)
(0.0630395 -0.0198831 2.26339e-24)
(0.0652919 -0.0206857 0)
(0.323539 -0.107545 -2.46437e-23)
(0.41242 -0.140439 7.30077e-25)
(0.480955 -0.16762 -6.46598e-25)
(0.52282 -0.18635 0)
(0.534007 -0.194544 0)
(0.514085 -0.191325 0)
(0.466341 -0.177216 0)
(0.396914 -0.153952 1.85701e-24)
(0.313333 -0.124008 2.03978e-24)
(0.222826 -0.0899672 2.22942e-24)
(0.131259 -0.0540525 -5.53212e-21)
(0.0423822 -0.0179213 0)
(0.038955 -0.0121901 0)
(0.0591663 -0.0185447 0)
(0.0523931 -0.0155261 -3.20643e-22)
(0.0834655 -0.0263934 3.93254e-22)
(0.13728 -0.0436444 6.53297e-21)
(0.217679 -0.0704546 1.89645e-21)
(0.136164 -0.0433342 -3.25063e-21)
(0.0817538 -0.0257042 -1.90183e-21)
(0.0420156 -0.013482 -5.17031e-22)
(0.045412 -0.0144119 -1.7652e-23)
(0.0364473 -0.0115017 4.69897e-22)
(0.0381442 -0.012003 -5.08947e-22)
(0.319337 -0.106127 0)
(0.407606 -0.138781 4.99546e-21)
(0.475699 -0.165767 -1.66486e-23)
(0.517336 -0.184377 0)
(0.528575 -0.192551 -3.29564e-24)
(0.508985 -0.189413 -3.3534e-21)
(0.461797 -0.17548 3.38603e-21)
(0.393138 -0.15248 -3.56306e-21)
(0.310412 -0.122842 -3.90667e-21)
(0.220798 -0.0891369 4.48641e-21)
(0.130078 -0.0535625 -5.30142e-21)
(0.0420083 -0.0177641 0)
(0.0125634 -0.00390718 0)
(0.0337657 -0.0102134 4.7989e-22)
(0.0230555 -0.00552589 2.3573e-22)
(0.0402074 -0.0126384 -5.64776e-22)
(0.039385 -0.0123607 8.3352e-24)
(0.0807976 -0.0253654 -3.74538e-21)
(0.13511 -0.0429451 -3.20219e-21)
(0.21491 -0.0695962 -1.78437e-21)
(0.134353 -0.0427951 -3.11431e-21)
(0.080195 -0.0251689 2.92912e-21)
(0.0388507 -0.0121184 -4.01281e-24)
(0.0390661 -0.0121777 1.5733e-21)
(0.0138891 -0.00452596 3.57425e-22)
(0.0154107 -0.00506983 0)
(0.0116654 -0.0037408 -3.51991e-22)
(0.0123267 -0.00384627 3.60349e-22)
(0.315559 -0.104866 -5.77195e-21)
(0.403063 -0.137219 -4.79874e-21)
(0.470626 -0.163988 -7.71449e-24)
(0.511997 -0.182462 -3.6057e-21)
(0.523253 -0.190597 3.29954e-21)
(0.503964 -0.187536 -3.20537e-21)
(0.45736 -0.173782 3.24649e-21)
(0.389451 -0.151037 1.35062e-23)
(0.307572 -0.121704 0)
(0.218826 -0.0883326 4.29858e-21)
(0.128943 -0.0530892 0)
(0.0416418 -0.0176112 0)
(0.0109317 -0.00354417 -2.21637e-22)
(0.00640663 -0.00148255 -4.72322e-23)
(0.012917 -0.00406601 3.80516e-22)
(0.0125795 -0.0039269 6.99554e-22)
(0.0386648 -0.0120388 1.01832e-21)
(0.0385621 -0.0120327 3.9252e-24)
(0.0797068 -0.0250215 2.88119e-21)
(0.133483 -0.042481 0)
(0.212461 -0.0688306 -1.75286e-21)
(0.132863 -0.0423583 -2.9166e-23)
(0.0792695 -0.0249043 7.24883e-22)
(0.038404 -0.0119711 -3.88828e-24)
(0.0384463 -0.0119712 -4.00684e-26)
(0.0124079 -0.0038481 6.85957e-22)
(0.0124731 -0.00387308 1.7337e-24)
(0.312037 -0.103696 1.12912e-20)
(0.39874 -0.135744 -9.11764e-24)
(0.465721 -0.162265 3.8487e-21)
(0.506778 -0.180588 3.46858e-21)
(0.518032 -0.188687 -1.51971e-24)
(0.499057 -0.185695 1.53384e-24)
(0.453014 -0.172117 6.22407e-21)
(0.385858 -0.149626 3.26896e-21)
(0.304817 -0.120597 0)
(0.216912 -0.0875457 0)
(0.127841 -0.052633 2.3185e-24)
(0.0412734 -0.0174553 -4.79195e-21)
(0.0123568 -0.00383292 6.76895e-22)
(0.0123265 -0.00382909 6.71336e-22)
(0.0382759 -0.0119129 0)
(0.0381968 -0.0119183 9.75305e-22)
(0.0788459 -0.0247818 -1.09465e-23)
(0.132074 -0.0420605 2.9471e-21)
(0.210178 -0.0681105 -9.91749e-21)
(0.131474 -0.0419309 -2.82907e-24)
(0.0784532 -0.0246663 2.74783e-21)
(0.0380535 -0.0118763 9.55939e-22)
(0.0381097 -0.0118689 -9.57407e-22)
(0.0122925 -0.00381174 -6.60534e-22)
(0.0122959 -0.00381608 6.64887e-22)
(0.308727 -0.102598 1.08503e-23)
(0.394573 -0.134315 0)
(0.460936 -0.16059 -3.69511e-21)
(0.501675 -0.178762 3.33204e-21)
(0.512919 -0.18681 1.52109e-24)
(0.494247 -0.183891 -5.90443e-21)
(0.448781 -0.170489 -2.97587e-21)
(0.382358 -0.148247 -1.49409e-24)
(0.302134 -0.119516 0)
(0.215065 -0.0867903 0)
(0.126753 -0.0521798 -4.53007e-24)
(0.0409421 -0.0173095 1.17388e-23)
(0.0122533 -0.00379628 6.55387e-22)
(0.0122214 -0.00379402 -6.47506e-22)
(0.0379283 -0.0118206 0)
(0.037865 -0.0118195 3.66339e-24)
(0.0780543 -0.0245455 -2.67353e-24)
(0.130712 -0.0416373 2.84896e-21)
(0.208013 -0.0674095 3.24003e-21)
(0.130131 -0.0415131 2.81251e-21)
(0.077658 -0.0244258 -2.58843e-24)
(0.0376881 -0.0117662 0)
(0.0377661 -0.0117673 9.34632e-22)
(0.012178 -0.00378141 -7.72173e-25)
(0.0122067 -0.00378352 -6.46205e-22)
(0.305517 -0.10153 -5.32969e-21)
(0.390522 -0.132936 -2.03179e-24)
(0.456275 -0.158959 -3.54817e-21)
(0.496663 -0.176963 0)
(0.507901 -0.184968 2.91149e-21)
(0.489548 -0.182123 0)
(0.444656 -0.168897 -2.77993e-24)
(0.37897 -0.146908 -2.98589e-21)
(0.299557 -0.118475 0)
(0.213269 -0.0860508 3.70311e-21)
(0.125703 -0.0517368 8.82182e-21)
(0.0406012 -0.0171698 0)
(0.0121561 -0.00377197 2.49414e-24)
(0.0121342 -0.00376668 6.31026e-22)
(0.0375588 -0.0117065 9.21021e-22)
(0.0374988 -0.0117086 0)
(0.0772683 -0.0242996 2.59087e-24)
(0.129406 -0.0412215 -2.7473e-21)
(0.205888 -0.0667274 6.13331e-21)
(0.128841 -0.041095 -2.71312e-21)
(0.0768812 -0.0241879 6.5377e-22)
(0.0373257 -0.0116557 0)
(0.0373994 -0.0116583 0)
(0.0120614 -0.00374521 6.22759e-22)
(0.0120971 -0.00374931 -1.25497e-21)
(0.302426 -0.100508 0)
(0.386584 -0.13159 2.03515e-24)
(0.451696 -0.157356 -1.718e-24)
(0.491745 -0.175199 -3.06933e-21)
(0.502981 -0.183159 2.82445e-21)
(0.484958 -0.18039 -2.71569e-21)
(0.440646 -0.167343 2.72131e-21)
(0.375701 -0.145607 0)
(0.297058 -0.117461 -3.12469e-21)
(0.211513 -0.0853258 -3.55325e-21)
(0.124687 -0.051317 -2.10341e-24)
(0.040257 -0.0170264 7.89203e-24)
(0.0120338 -0.00373269 -6.16171e-22)
(0.0120074 -0.00372883 6.13356e-22)
(0.0372078 -0.0115987 0)
(0.03714 -0.0115909 0)
(0.0764899 -0.0240562 6.42842e-22)
(0.128135 -0.0408188 -2.63977e-21)
(0.203861 -0.0660684 -1.50311e-21)
(0.12757 -0.0406958 -3.78696e-23)
(0.0761217 -0.023944 2.42164e-24)
(0.0369586 -0.0115413 0)
(0.0370229 -0.0115418 -8.71163e-22)
(0.0119553 -0.00371232 6.05706e-22)
(0.0119865 -0.00371663 -6.10297e-22)
(0.299409 -0.0995005 0)
(0.382717 -0.13027 3.9823e-21)
(0.447181 -0.155773 3.27286e-21)
(0.486899 -0.173459 -2.8867e-21)
(0.498155 -0.181378 -3.00717e-23)
(0.480481 -0.178691 0)
(0.436771 -0.165828 2.60103e-21)
(0.372535 -0.144341 0)
(0.294623 -0.116471 2.88775e-24)
(0.209807 -0.0846256 0)
(0.123675 -0.0508982 -3.96201e-21)
(0.0399371 -0.0168913 -3.93835e-21)
(0.011926 -0.00369965 6.00226e-22)
(0.0118922 -0.00368935 5.9661e-22)
(0.0368266 -0.0114805 -8.56038e-22)
(0.0367505 -0.0114789 -3.3169e-24)
(0.0757618 -0.0238259 -2.4245e-24)
(0.126887 -0.0404196 2.59745e-21)
(0.201867 -0.065422 1.44984e-21)
(0.126352 -0.0402978 2.5217e-21)
(0.0753876 -0.023718 2.40395e-21)
(0.0366011 -0.0114246 0)
(0.036669 -0.0114311 3.31969e-24)
(0.0118309 -0.00367341 5.87831e-22)
(0.0118534 -0.00367595 -5.92544e-22)
(0.296439 -0.0985134 -4.61767e-21)
(0.378892 -0.128962 0)
(0.44273 -0.154214 0)
(0.482119 -0.171737 2.76506e-21)
(0.493421 -0.179622 -5.13017e-24)
(0.476128 -0.177023 -2.45654e-21)
(0.433007 -0.164348 -1.23558e-24)
(0.369456 -0.143108 0)
(0.292257 -0.11551 -1.40602e-24)
(0.208139 -0.0839427 3.19344e-21)
(0.122691 -0.0504909 7.53154e-21)
(0.0396164 -0.0167549 0)
(0.0118003 -0.00366042 0)
(0.0117704 -0.00365642 5.78493e-22)
(0.0364622 -0.0113662 0)
(0.0364033 -0.0113644 0)
(0.075023 -0.0235902 -1.76033e-21)
(0.125681 -0.0400374 0)
(0.199901 -0.0647852 0)
(0.125138 -0.0399161 2.71128e-23)
(0.074667 -0.023486 1.17685e-21)
(0.0362499 -0.0113199 8.15779e-22)
(0.0363094 -0.0113184 -3.17601e-24)
(0.0117149 -0.0036356 5.70764e-22)
(0.0117528 -0.00364464 -5.74835e-22)
(0.293504 -0.0975361 0)
(0.375111 -0.127668 6.9244e-24)
(0.438304 -0.15266 0)
(0.47739 -0.170026 0)
(0.488772 -0.177881 0)
(0.471879 -0.175384 -1.23104e-24)
(0.429353 -0.162906 2.35615e-21)
(0.366467 -0.14191 0)
(0.28994 -0.114574 -2.64862e-21)
(0.206505 -0.0832745 -3.01929e-21)
(0.12172 -0.0500842 -3.54584e-21)
(0.0392855 -0.0166155 -3.51776e-21)
(0.0116734 -0.00362172 5.64928e-22)
(0.0116543 -0.00361726 5.60802e-22)
(0.0361317 -0.0112622 -7.98345e-22)
(0.0360585 -0.0112553 -3.09141e-24)
(0.0743087 -0.0233677 -8.87869e-24)
(0.124479 -0.0396556 0)
(0.197966 -0.0641569 1.35041e-21)
(0.123957 -0.0395359 -2.36724e-21)
(0.0739548 -0.0232651 -2.23137e-21)
(0.0359015 -0.0112076 -7.80586e-22)
(0.0359761 -0.0112195 -7.81342e-22)
(0.0116 -0.00360255 1.7048e-24)
(0.0116318 -0.00360606 -5.57769e-22)
(0.290596 -0.0965634 8.27424e-24)
(0.371332 -0.126375 -6.93094e-24)
(0.433881 -0.1511 1.11788e-23)
(0.472688 -0.168309 -4.9061e-24)
(0.484204 -0.176154 -4.48117e-24)
(0.467744 -0.173774 -2.22855e-21)
(0.425795 -0.161498 0)
(0.363542 -0.140742 6.42347e-24)
(0.287677 -0.113659 0)
(0.204881 -0.0826058 2.85936e-21)
(0.120743 -0.0496766 3.72716e-23)
(0.0389546 -0.0164749 -1.30269e-23)
(0.0115798 -0.00359118 5.48202e-22)
(0.0115508 -0.00358354 0)
(0.0357694 -0.0111485 0)
(0.0357232 -0.0111484 0)
(0.0736184 -0.0231512 0)
(0.123316 -0.0392868 0)
(0.196049 -0.0635307 1.28918e-21)
(0.122796 -0.0391648 -2.25196e-21)
(0.073256 -0.0230451 2.16161e-21)
(0.0355672 -0.0111049 7.56898e-22)
(0.0356334 -0.0111099 0)
(0.0114947 -0.00356868 1.04134e-24)
(0.0115257 -0.00357746 5.3905e-22)
(0.28768 -0.0955882 -4.22075e-21)
(0.367506 -0.125063 -1.27661e-23)
(0.42941 -0.149515 -2.85199e-21)
(0.468005 -0.166579 -2.48388e-21)
(0.479707 -0.17443 4.47363e-24)
(0.463696 -0.172193 -2.0149e-24)
(0.422313 -0.160125 2.10234e-21)
(0.360678 -0.1396 0)
(0.285421 -0.112745 0)
(0.203255 -0.0819356 2.6998e-21)
(0.119762 -0.0492654 3.13742e-21)
(0.0386315 -0.0163351 -3.11634e-21)
(0.0114549 -0.00355267 5.29159e-22)
(0.0114372 -0.00354806 -5.26925e-22)
(0.0354574 -0.0110491 0)
(0.0354003 -0.0110513 0)
(0.0729299 -0.022936 -8.2606e-24)
(0.122154 -0.0389108 8.56629e-24)
(0.194141 -0.0629077 3.61271e-21)
(0.121638 -0.0387927 -4.36189e-21)
(0.0725832 -0.0228337 5.39096e-22)
(0.0352322 -0.010999 7.27166e-22)
(0.0353054 -0.0110115 2.85316e-24)
(0.0113878 -0.00353534 3.60158e-24)
(0.0114112 -0.00353985 5.22193e-22)
(0.284718 -0.0945986 -7.95751e-24)
(0.363582 -0.123714 3.17382e-21)
(0.424867 -0.147882 2.65699e-21)
(0.463306 -0.164813 -2.38595e-21)
(0.475267 -0.172719 1.00828e-24)
(0.459724 -0.170647 2.01164e-24)
(0.418898 -0.158785 -3.76877e-24)
(0.357834 -0.138468 7.82684e-24)
(0.28317 -0.111831 0)
(0.201627 -0.0812625 -3.19258e-23)
(0.118777 -0.0488482 -1.12165e-23)
(0.0382944 -0.0161921 2.91698e-21)
(0.0113649 -0.00352229 -5.16592e-22)
(0.0113345 -0.00351926 5.09286e-22)
(0.0351155 -0.0109432 -7.22026e-22)
(0.0350676 -0.0109485 2.77006e-24)
(0.0722523 -0.022718 0)
(0.121023 -0.0385512 2.13878e-21)
(0.192209 -0.0622748 -1.21353e-21)
(0.120508 -0.0384291 2.08541e-21)
(0.0719027 -0.0226162 2.00717e-21)
(0.0349106 -0.0109003 0)
(0.0349781 -0.0109098 -7.05788e-22)
(0.0112863 -0.00350239 1.69485e-24)
(0.0113158 -0.00351331 5.04986e-22)
(0.281629 -0.0935663 1.46785e-23)
(0.359467 -0.122285 3.12721e-21)
(0.420171 -0.146163 2.5473e-21)
(0.458582 -0.163014 0)
(0.470879 -0.171032 -1.0066e-24)
(0.455823 -0.169143 0)
(0.41552 -0.157465 1.0881e-23)
(0.354992 -0.137334 -1.51907e-23)
(0.280913 -0.110913 -2.11629e-21)
(0.200001 -0.0805862 8.91785e-24)
(0.117776 -0.0484237 7.55192e-25)
(0.0379528 -0.0160505 -2.73224e-21)
(0.0112446 -0.00348521 4.95476e-22)
(0.0112216 -0.00348504 4.9235e-22)
(0.0348127 -0.0108478 2.69328e-24)
(0.0347535 -0.0108482 -1.36142e-24)
(0.0715949 -0.0225129 -1.97491e-21)
(0.119892 -0.038188 2.02302e-21)
(0.190201 -0.0616169 -1.15356e-21)
(0.119369 -0.0380598 0)
(0.0712529 -0.0224129 9.56816e-24)
(0.0345916 -0.010798 0)
(0.0346494 -0.0108008 -1.33571e-24)
(0.0111848 -0.00347194 4.8606e-22)
(0.0112052 -0.00347902 0)
(0.278266 -0.0924439 9.46105e-23)
(0.355052 -0.120728 -3.01389e-21)
(0.415295 -0.144331 -2.52308e-21)
(0.453844 -0.161212 0)
(0.466555 -0.169396 -7.15825e-24)
(0.451977 -0.16767 0)
(0.412159 -0.156149 -7.11279e-24)
(0.352157 -0.1362 7.36472e-24)
(0.278664 -0.109991 1.97833e-21)
(0.198347 -0.0798947 -8.92197e-24)
(0.116774 -0.0480005 2.02089e-23)
(0.0375986 -0.015903 0)
(0.0111549 -0.0034566 -9.44106e-25)
(0.0111296 -0.00345498 4.75297e-22)
(0.0344949 -0.0107537 0)
(0.0344343 -0.0107491 0)
(0.0709299 -0.0223037 -4.81187e-22)
(0.118769 -0.0378262 1.98033e-21)
(0.187966 -0.0608959 -5.44694e-21)
(0.118208 -0.0376833 1.92251e-21)
(0.0706003 -0.0222038 4.71424e-22)
(0.0342857 -0.0107011 -1.2735e-24)
(0.0343491 -0.0107112 1.27264e-24)
(0.0110715 -0.00343562 -4.69195e-22)
(0.0111062 -0.00344433 4.73674e-22)
(0.274489 -0.0911728 3.53641e-21)
(0.350172 -0.118939 2.81768e-21)
(0.410246 -0.142423 -1.1734e-24)
(0.449153 -0.159477 2.00784e-21)
(0.462322 -0.167813 3.88261e-25)
(0.44818 -0.166213 0)
(0.408814 -0.154833 1.68048e-21)
(0.349326 -0.135058 -1.71712e-21)
(0.276392 -0.109056 -7.43715e-24)
(0.19669 -0.0791987 7.72601e-24)
(0.11575 -0.0475676 2.37241e-21)
(0.0372393 -0.01575 4.39508e-24)
(0.0110493 -0.00342786 4.64093e-22)
(0.0110256 -0.00342394 4.59974e-22)
(0.03418 -0.0106547 0)
(0.0341358 -0.0106565 6.32821e-22)
(0.0702899 -0.0220974 -1.36045e-21)
(0.11755 -0.0374354 1.86552e-21)
(0.185302 -0.060037 0)
(0.11689 -0.0372612 -1.87442e-21)
(0.0699401 -0.0219957 0)
(0.0339791 -0.0106065 5.29432e-24)
(0.034046 -0.0106132 -1.21348e-24)
(0.0109862 -0.00340775 -4.53511e-22)
(0.0110075 -0.00341559 4.55992e-22)
(0.26985 -0.0895608 1.72542e-21)
(0.344794 -0.116905 2.80157e-21)
(0.4052 -0.140606 -2.14555e-21)
(0.44462 -0.157829 -7.09793e-24)
(0.458193 -0.166264 6.77168e-24)
(0.444421 -0.164762 -1.58337e-21)
(0.405474 -0.153512 -6.31098e-24)
(0.346485 -0.133909 -1.61068e-21)
(0.274103 -0.108108 0)
(0.195015 -0.0784951 -1.92501e-21)
(0.114708 -0.0471233 -2.1947e-21)
(0.0368868 -0.0155999 -1.24285e-23)
(0.0109521 -0.00339748 0)
(0.0109372 -0.00339697 0)
(0.0338799 -0.0105607 1.21153e-24)
(0.0338246 -0.0105563 -6.09925e-22)
(0.0696084 -0.0218809 -4.3382e-22)
(0.116116 -0.0369842 -1.83068e-21)
(0.18155 -0.0588346 -2.55598e-21)
(0.115159 -0.0367192 1.38208e-23)
(0.0692333 -0.021772 2.15135e-21)
(0.0336782 -0.0105093 0)
(0.0337468 -0.010523 0)
(0.0108768 -0.00337495 -8.73984e-22)
(0.0109124 -0.0033835 4.409e-22)
(0.264007 -0.0873705 -3.2589e-21)
(0.339318 -0.114995 -2.55148e-21)
(0.40044 -0.138936 2.09272e-21)
(0.440291 -0.156245 7.10883e-24)
(0.454158 -0.16474 1.62409e-21)
(0.440694 -0.163318 -1.51982e-21)
(0.402138 -0.152188 1.46474e-21)
(0.343621 -0.132746 5.64015e-24)
(0.271809 -0.107157 -1.58854e-21)
(0.193326 -0.0777811 1.76561e-21)
(0.113676 -0.0466807 2.00509e-21)
(0.0365172 -0.0154427 8.0418e-24)
(0.0108556 -0.00336767 4.32743e-22)
(0.0108336 -0.00336411 4.28779e-22)
(0.0335711 -0.0104646 5.89995e-22)
(0.033522 -0.0104624 -1.14354e-24)
(0.0688516 -0.0216342 1.70082e-21)
(0.11383 -0.0363431 1.72216e-21)
(0.174779 -0.0564252 -1.53397e-23)
(0.111956 -0.0357288 -1.34611e-23)
(0.0683177 -0.0214906 4.08784e-22)
(0.0333871 -0.0104187 7.40218e-24)
(0.033438 -0.0104255 -1.12311e-24)
(0.0107908 -0.00334605 0)
(0.01082 -0.00335724 4.24879e-22)
(0.257785 -0.0852985 2.9928e-21)
(0.3344 -0.113336 -2.34244e-21)
(0.396086 -0.137381 -1.56777e-23)
(0.436155 -0.154715 -1.66832e-21)
(0.450206 -0.163242 1.49762e-21)
(0.437 -0.161883 0)
(0.398808 -0.150862 -1.38292e-21)
(0.340768 -0.13158 1.38387e-21)
(0.269504 -0.106194 -1.4618e-21)
(0.191641 -0.0770618 -1.61849e-21)
(0.112624 -0.0462235 -1.82047e-21)
(0.036135 -0.0152807 0)
(0.0107507 -0.00333512 4.17579e-22)
(0.0107352 -0.00333424 4.13959e-22)
(0.0332986 -0.0103746 -1.12175e-24)
(0.0332302 -0.0103618 0)
(0.067608 -0.0212913 -3.97249e-22)
(0.10858 -0.0346317 8.89317e-22)
(0.166605 -0.0539062 5.05306e-22)
(0.10304 -0.0325531 1.35411e-23)
(0.0664752 -0.0209728 -4.95369e-23)
(0.0330522 -0.0103157 -5.55325e-22)
(0.0331403 -0.0103309 5.62466e-22)
(0.0106985 -0.0033189 -8.1511e-22)
(0.0107229 -0.00332674 4.10483e-22)
(0.252785 -0.0836263 -2.93468e-21)
(0.330219 -0.111871 0)
(0.392057 -0.135919 0)
(0.432177 -0.153241 -1.22304e-23)
(0.446332 -0.16177 -1.45678e-21)
(0.433345 -0.160458 2.66562e-21)
(0.3955 -0.149536 -5.18517e-24)
(0.33792 -0.130409 -7.10737e-24)
(0.267204 -0.105222 -1.35029e-21)
(0.189936 -0.076327 1.46984e-21)
(0.111544 -0.0457552 1.63246e-21)
(0.0357513 -0.0151201 2.82498e-24)
(0.0106789 -0.00331068 4.03577e-22)
(0.0106525 -0.00330344 4.00636e-22)
(0.0329157 -0.0102657 6.31602e-24)
(0.0327736 -0.0102355 -4.23211e-24)
(0.0642325 -0.0202355 -5.47702e-22)
(0.0967247 -0.0308044 -8.40843e-22)
(0.161783 -0.0521309 2.93005e-21)
(0.0931477 -0.0297879 -7.73169e-22)
(0.0570203 -0.017629 0)
(0.0322755 -0.0101073 -2.69156e-22)
(0.0326041 -0.0101776 4.2215e-24)
(0.0106025 -0.00328974 3.94433e-22)
(0.0106314 -0.00329628 -3.95392e-22)
(0.249093 -0.0823248 2.21126e-23)
(0.326573 -0.110569 0)
(0.38829 -0.134554 0)
(0.428342 -0.151817 1.51079e-21)
(0.442536 -0.160321 -1.32874e-21)
(0.429731 -0.159039 -3.32896e-25)
(0.392215 -0.148209 -2.68357e-23)
(0.335078 -0.129228 1.17122e-21)
(0.264899 -0.104243 4.51552e-24)
(0.188215 -0.0755839 -2.615e-21)
(0.110467 -0.0452878 0)
(0.0353529 -0.0149517 -2.83154e-24)
(0.0105678 -0.00327818 2.49909e-24)
(0.0105282 -0.00326771 3.86396e-22)
(0.0317116 -0.0099976 -1.60071e-23)
(0.0305039 -0.00946298 -2.40437e-22)
(0.0479665 -0.0154875 -1.41633e-22)
(0.0913531 -0.0289192 7.45196e-22)
(0.15916 -0.0511442 -8.16105e-22)
(0.0904023 -0.0285809 1.18863e-23)
(0.0449193 -0.0141831 1.07194e-21)
(0.0189297 -0.00443875 0)
(0.027905 -0.00829379 0)
(0.0103756 -0.00322446 5.66668e-22)
(0.0104902 -0.00325024 -3.83293e-22)
(0.246137 -0.0812903 -2.76216e-21)
(0.323278 -0.109401 0)
(0.384735 -0.133267 -6.50425e-24)
(0.424627 -0.150432 0)
(0.438815 -0.158893 0)
(0.426164 -0.157627 1.13627e-21)
(0.388944 -0.146878 1.11684e-21)
(0.332247 -0.128044 0)
(0.262587 -0.103252 1.09195e-21)
(0.186499 -0.0748349 -1.15085e-21)
(0.10937 -0.0448041 1.24924e-21)
(0.0349436 -0.0147827 0)
(0.0101842 -0.00319496 -3.74128e-22)
(0.00971817 -0.00311096 -1.71069e-22)
(0.0126936 -0.00398197 2.08162e-22)
(0.0112957 -0.00375632 0)
(0.0441098 -0.0137631 0)
(0.0896905 -0.0282903 -1.18801e-23)
(0.157327 -0.0505627 4.106e-21)
(0.0892505 -0.028197 1.46274e-21)
(0.0436896 -0.0136085 3.52341e-22)
(0.0103335 -0.00325226 -3.73892e-22)
(0.0106038 -0.00334804 1.93779e-22)
(0.00523347 -0.00117899 0)
(0.00905075 -0.00290621 -1.63446e-22)
(0.243589 -0.0804208 0)
(0.320248 -0.108334 -2.05397e-21)
(0.381344 -0.132035 1.26907e-23)
(0.421025 -0.149085 0)
(0.435165 -0.157483 1.22447e-21)
(0.422637 -0.156224 -1.05312e-21)
(0.385714 -0.14555 -3.75256e-24)
(0.32943 -0.126851 0)
(0.260291 -0.102253 9.629e-22)
(0.18477 -0.07407 -1.00371e-21)
(0.108247 -0.0443102 0)
(0.0345238 -0.0146059 0)
(0.0102931 -0.00319897 -3.73819e-22)
(0.0102501 -0.00318593 0)
(0.043436 -0.0135321 1.11744e-23)
(0.0887647 -0.028036 -1.18972e-25)
(0.155775 -0.0500989 -8.08018e-22)
(0.088428 -0.0279796 -1.40526e-21)
(0.0432395 -0.0134741 0)
(0.0102104 -0.00317307 7.11058e-25)
(0.0102214 -0.00316571 3.63811e-22)
(0.241308 -0.0796501 2.41261e-21)
(0.317406 -0.107333 1.95989e-21)
(0.378093 -0.130851 -6.18425e-24)
(0.41752 -0.147764 -1.25585e-21)
(0.431584 -0.156089 -1.1487e-21)
(0.419166 -0.154825 -1.02628e-21)
(0.382507 -0.144215 9.4544e-22)
(0.326631 -0.12565 -8.88077e-22)
(0.257985 -0.10124 -8.57175e-22)
(0.183013 -0.0732891 7.4161e-25)
(0.107113 -0.0438066 8.49244e-22)
(0.0340966 -0.0144245 0)
(0.0101948 -0.0031587 -6.86238e-25)
(0.0101869 -0.00316549 3.49793e-22)
(0.0430726 -0.0134334 3.39426e-22)
(0.088004 -0.0278292 0)
(0.1544 -0.0496702 0)
(0.0876821 -0.0277688 1.34067e-21)
(0.0429068 -0.0133816 -1.27854e-24)
(0.010156 -0.00315421 3.41922e-22)
(0.0101645 -0.00314915 3.45696e-22)
(0.239193 -0.0789338 -2.29238e-21)
(0.314706 -0.10638 0)
(0.374952 -0.129701 5.53663e-24)
(0.414102 -0.146467 1.17313e-21)
(0.428073 -0.154707 1.00848e-21)
(0.415737 -0.153428 -8.8779e-22)
(0.379335 -0.142878 1.66218e-21)
(0.323845 -0.12444 7.52038e-22)
(0.255679 -0.100215 0)
(0.181244 -0.0724939 -6.82725e-22)
(0.105951 -0.0432855 0)
(0.0336501 -0.0142373 0)
(0.0101357 -0.00314191 -6.63761e-25)
(0.010135 -0.00314802 6.46917e-25)
(0.0427511 -0.013342 -1.2243e-24)
(0.087273 -0.0276111 -1.33368e-21)
(0.153116 -0.0492571 1.49247e-21)
(0.0869873 -0.0275492 0)
(0.0425689 -0.0132909 2.5072e-24)
(0.0100965 -0.00313352 6.45818e-25)
(0.0101113 -0.00313134 3.31661e-22)
(0.23719 -0.0782537 -9.02022e-24)
(0.312116 -0.105462 -6.56823e-24)
(0.371911 -0.12858 -3.04752e-25)
(0.410769 -0.145189 -1.17287e-21)
(0.424625 -0.153334 0)
(0.412363 -0.152032 -8.12276e-22)
(0.376198 -0.141534 0)
(0.321074 -0.123217 -1.38697e-24)
(0.253368 -0.0991717 0)
(0.179456 -0.0716801 0)
(0.104766 -0.04275 4.26657e-22)
(0.033183 -0.014044 -1.99731e-22)
(0.0100733 -0.00312182 3.2531e-22)
(0.0100689 -0.00312847 0)
(0.042402 -0.0132392 1.22492e-21)
(0.0865878 -0.0273914 -1.24922e-21)
(0.151877 -0.0488566 1.4238e-21)
(0.0862887 -0.0273259 -1.21809e-21)
(0.042235 -0.0131853 -3.03675e-22)
(0.0100212 -0.00311479 3.14232e-22)
(0.0100376 -0.00311246 3.19909e-22)
(0.235282 -0.077603 -4.07493e-24)
(0.309631 -0.104575 1.68754e-21)
(0.368955 -0.127479 1.25602e-21)
(0.407517 -0.143928 1.10949e-21)
(0.421246 -0.151968 1.67568e-24)
(0.409033 -0.150633 1.40658e-24)
(0.373085 -0.140179 6.84189e-22)
(0.318308 -0.121976 0)
(0.251042 -0.0981059 1.87575e-25)
(0.177638 -0.0708426 -3.42436e-22)
(0.103542 -0.042197 2.03144e-22)
(0.0327022 -0.0138433 9.50799e-26)
(0.0099939 -0.0030991 3.12357e-22)
(0.0099876 -0.00310354 3.09682e-22)
(0.0420726 -0.0131322 0)
(0.0859139 -0.0271792 -2.40179e-21)
(0.150694 -0.0484671 6.77891e-22)
(0.0856333 -0.027119 -1.16476e-21)
(0.0419009 -0.0130768 -1.12329e-24)
(0.00994046 -0.00308891 3.03966e-22)
(0.00995524 -0.00308618 3.039e-22)
(0.233456 -0.0769738 -1.97617e-21)
(0.307216 -0.103706 1.59716e-21)
(0.366093 -0.126401 -1.18543e-21)
(0.40434 -0.142674 -2.01405e-24)
(0.417929 -0.150603 -1.67564e-24)
(0.405754 -0.14923 -6.48863e-22)
(0.370002 -0.138812 0)
(0.315553 -0.120717 0)
(0.248697 -0.0970156 -1.87706e-25)
(0.175797 -0.0699853 -3.48401e-22)
(0.102282 -0.0416231 0)
(0.0322033 -0.0136378 -3.30386e-22)
(0.0099145 -0.00307378 2.99775e-22)
(0.00990717 -0.00307828 2.96752e-22)
(0.0417456 -0.0130299 1.12607e-21)
(0.0852685 -0.0269727 -1.13338e-24)
(0.149565 -0.0480914 -2.10001e-23)
(0.0849908 -0.0269117 -1.10973e-21)
(0.0415946 -0.0129868 0)
(0.0098723 -0.0030634 5.64888e-25)
(0.00988606 -0.00306333 -5.76938e-25)
(0.231682 -0.076361 -1.88117e-21)
(0.304888 -0.102859 0)
(0.363309 -0.125334 1.2016e-21)
(0.401238 -0.141428 0)
(0.414675 -0.149239 0)
(0.40252 -0.147819 0)
(0.366942 -0.137428 5.12669e-22)
(0.312799 -0.119435 -3.69599e-22)
(0.246341 -0.0958996 1.55401e-22)
(0.173906 -0.069096 -5.52265e-24)
(0.100989 -0.0410343 2.02184e-25)
(0.0316802 -0.0134267 -2.30741e-25)
(0.0098365 -0.00304799 2.8676e-22)
(0.009832 -0.00305483 2.83621e-22)
(0.0414398 -0.0129352 0)
(0.0846452 -0.0267719 2.1789e-21)
(0.148464 -0.0477286 6.15252e-22)
(0.0843856 -0.0267104 -1.05723e-21)
(0.0412812 -0.0128886 1.0245e-24)
(0.00980231 -0.00304522 0)
(0.00980841 -0.0030416 2.81879e-22)
(0.229978 -0.0757675 -1.88395e-21)
(0.302631 -0.102025 -1.35056e-21)
(0.360597 -0.124273 2.07772e-24)
(0.398203 -0.140183 1.63697e-24)
(0.411481 -0.147872 0)
(0.39933 -0.146396 -4.84852e-22)
(0.363913 -0.136025 3.35694e-22)
(0.310036 -0.11812 0)
(0.243951 -0.0947501 4.62738e-24)
(0.171976 -0.0681791 0)
(0.0996391 -0.0404266 -5.35687e-25)
(0.0311475 -0.0132175 -2.07683e-24)
(0.00976946 -0.00302831 2.75351e-22)
(0.00975526 -0.00303152 2.71974e-22)
(0.0411469 -0.0128426 -1.02629e-21)
(0.0840377 -0.0265761 4.01228e-24)
(0.147409 -0.0473808 2.80957e-21)
(0.0837761 -0.0265192 -1.01039e-21)
(0.040994 -0.0127923 0)
(0.00972409 -0.00302149 5.1654e-25)
(0.00973206 -0.0030177 2.69195e-22)
(0.22833 -0.0751894 0)
(0.30045 -0.1012 0)
(0.357962 -0.123218 -1.58754e-24)
(0.395244 -0.138944 8.53767e-22)
(0.40835 -0.1465 0)
(0.396187 -0.144958 0)
(0.360893 -0.134593 0)
(0.307262 -0.116773 1.42641e-26)
(0.241517 -0.0935632 0)
(0.169992 -0.0672333 0)
(0.0982327 -0.0398108 3.33899e-25)
(0.0306156 -0.0130023 -1.2165e-21)
(0.00969944 -0.00300745 2.62585e-22)
(0.00969557 -0.00301146 2.60033e-22)
(0.0408547 -0.0127502 2.45018e-22)
(0.0834475 -0.0263895 0)
(0.146386 -0.0470517 -5.53016e-22)
(0.0832004 -0.0263347 -9.57637e-22)
(0.0407029 -0.0127054 3.82199e-24)
(0.0096585 -0.00299881 0)
(0.00967096 -0.00299623 2.57911e-22)
(0.22675 -0.0746203 1.71559e-21)
(0.298342 -0.100374 0)
(0.355396 -0.122166 -9.19493e-22)
(0.392356 -0.137707 0)
(0.40528 -0.145119 0)
(0.393082 -0.143498 4.37782e-22)
(0.357887 -0.133131 6.45709e-26)
(0.30448 -0.115392 -1.42698e-26)
(0.23905 -0.0923403 2.4214e-22)
(0.167934 -0.0662529 5.96721e-22)
(0.0967651 -0.039214 0)
(0.0302288 -0.012705 1.55792e-21)
(0.00963241 -0.00298585 0)
(0.00962908 -0.00299081 2.70486e-25)
(0.0405672 -0.0126612 0)
(0.0828694 -0.0262134 9.3061e-25)
(0.145397 -0.0467488 -2.03277e-21)
(0.082617 -0.0261694 9.10656e-22)
(0.0404232 -0.0126178 0)
(0.00958638 -0.00297868 2.43052e-22)
(0.00960026 -0.00297609 2.46755e-22)
(0.225247 -0.0740373 -7.64106e-25)
(0.296289 -0.0995492 0)
(0.352915 -0.121131 0)
(0.389544 -0.136467 0)
(0.402272 -0.143723 -4.31073e-22)
(0.390016 -0.142012 1.25231e-25)
(0.354896 -0.131634 -6.45899e-26)
(0.301673 -0.113966 -1.16207e-22)
(0.236514 -0.0910742 -4.98726e-22)
(0.16583 -0.0652657 0)
(0.0951969 -0.0385616 0)
(0.0306191 -0.0124445 0)
(0.00956414 -0.00296544 0)
(0.00955763 -0.00296924 2.37509e-22)
(0.0402821 -0.0125743 0)
(0.0822944 -0.0260793 9.0219e-22)
(0.144578 -0.046306 9.98107e-25)
(0.0820771 -0.0260939 3.4613e-24)
(0.0401386 -0.0125329 0)