/*--------------------------------*- C++ -*----------------------------------*\
| =========                 |                                                 |
| \\      /  F ield         | OpenFOAM: The Open Source CFD Toolbox           |
|  \\    /   O peration     | Version:  v1912                                 |
|   \\  /    A nd           | Website:  www.openfoam.com                      |
|    \\/     M anipulation  |                                                 |
\*---------------------------------------------------------------------------*/
FoamFile
{
    version     2.0;
    format      ascii;
    class       volScalarField;
    location    "260";
    object      p;
}
// * * * * * * * * * * * * * * * * * * * * * * * * * * * * * * * * * * * * * //

dimensions      [0 2 -2 0 0 0 0];


internalField   nonuniform List<scalar> 
3753
(
-0.00695332
0.0223327
0.0160941
0.0469427
0.0152954
0.0265662
0.0691003
0.0236869
0.0285817
0.0352074
0.0926735
0.0402666
0.0334272
0.035855
0.0246884
0.116576
0.0618827
0.0434028
0.0378673
0.0257615
0.0152351
0.139488
0.085949
0.058886
0.0426331
0.0266466
0.0163202
0.0093081
0.161003
0.111004
0.0789405
0.0512536
0.0275864
0.0171756
0.0103525
0.00312529
0.180967
0.136326
0.102423
0.0639881
0.0290661
0.0176665
0.0113805
0.0041298
-0.0024668
0.199175
0.161487
0.128519
0.0805636
0.0313514
0.0178799
0.0123092
0.00506581
-0.00156395
-0.006721
0.215367
0.186142
0.156812
0.100688
0.0343453
0.0179043
0.0131887
0.00584508
-0.000752415
-0.00592926
-0.0100068
0.229227
0.209936
0.187176
0.124324
0.0376873
0.0177628
0.0140408
0.00650797
-0.000144089
-0.00519223
-0.00931486
-0.0125742
0.240389
0.232412
0.219645
0.151721
0.0408645
0.0173903
0.0148585
0.00705859
0.000283493
-0.00461475
-0.00865762
-0.0119755
-0.0144797
0.248439
0.252964
0.254291
0.183401
0.0432394
0.0166547
0.015594
0.00748473
0.000531375
-0.00418447
-0.00812767
-0.0114015
-0.013964
-0.0158705
0.252953
0.27078
0.291224
0.220021
0.0440776
0.0153632
0.0161592
0.00775138
0.000604027
-0.00391362
-0.00771396
-0.0109364
-0.0134598
-0.015426
-0.0168532
0.253523
0.284802
0.330628
0.26191
0.0426907
0.0132875
0.0164248
0.0077984
0.000510824
-0.0038121
-0.0074354
-0.0105693
-0.0130414
-0.0149872
-0.0164713
-0.0174709
0.249868
0.293757
0.372243
0.309676
0.0378596
0.0104124
0.0161849
0.00755768
0.000257929
-0.00387874
-0.0073151
-0.0103162
-0.0126961
-0.0146244
-0.0160905
-0.0171424
-0.0178048
0.242294
0.295676
0.41336
0.36865
0.0259104
0.00711728
0.0151973
0.00696193
-0.000141862
-0.00410907
-0.00736843
-0.0102001
-0.0124328
-0.0143272
-0.0157807
-0.016807
-0.0175222
-0.0179412
0.231484
0.287317
0.446427
0.444104
0.00718965
0.00298037
0.0134656
0.00594218
-0.000646784
-0.00449052
-0.00760333
-0.0102397
-0.0122652
-0.0141071
-0.0155399
-0.0165279
-0.0172243
-0.0176955
-0.0179296
0.218251
0.273371
0.378061
0.378421
0.569371
0.627015
0.534805
0.0575051
0.407502
0.0351208
-0.0033141
-0.0328063
0.0113777
0.00451166
-0.00118114
-0.00498621
-0.0080149
-0.0104487
-0.0121995
-0.0139814
-0.0153834
-0.0163026
-0.0169672
-0.0174311
-0.0177148
-0.0178011
0.203453
0.253399
0.371778
0.353682
0.522902
0.610421
0.704631
0.558289
0.494041
0.627854
0.0911201
0.0956614
-0.0365825
-0.018898
-0.00651145
0.00865387
-0.00897994
0.00298329
-0.00167803
-0.00552146
-0.00857282
-0.0108286
-0.0122307
-0.0139604
-0.0153341
-0.016147
-0.0167477
-0.0171997
-0.0174807
-0.0176128
-0.0175783
0.18804
0.230828
0.331198
0.304497
0.500538
0.474243
0.636456
0.636299
0.719478
0.647567
-0.0152059
-0.0372424
-0.00720157
-0.0384781
0.00343316
0.00179997
0.00287292
-0.0120241
-0.00213469
-0.00599635
-0.00921565
-0.0113636
-0.0123364
-0.014044
-0.0154121
-0.0160837
-0.0165779
-0.0169972
-0.017277
-0.017404
-0.0174114
-0.0172872
0.17296
0.208818
0.277351
0.24359
0.440341
0.395973
0.627791
0.61237
0.567672
0.593492
0.732763
0.730309
-0.0406794
-0.0152057
-0.0103249
0.00155638
0.0034156
-0.00263512
-0.00180121
-0.000703365
0.0012751
-0.013121
-0.0144475
-0.00636142
-0.0098567
-0.0120252
-0.0124758
-0.0142149
-0.0156286
-0.0161311
-0.0164772
-0.0168328
-0.0171016
-0.0172233
-0.0172223
-0.0171392
-0.0169441
0.158843
0.18561
0.2288
0.352692
0.321756
0.53855
0.504983
0.435278
0.478079
0.722776
0.699429
0.627729
0.672411
-0.00287456
0.00138108
0.00456925
0.0035456
0.00216147
-0.00180611
-0.00678675
-0.00439911
0.0013273
-0.00551258
0.000976434
-0.0103446
-0.0128201
-0.0125975
-0.0144366
-0.0159803
-0.016298
-0.0164629
-0.0167217
-0.0169632
-0.0170716
-0.0170585
-0.0169668
-0.0168109
-0.0165727
0.146157
0.165003
0.169503
0.239643
0.180476
0.382084
0.33043
0.309707
0.579969
0.511137
0.476226
0.458724
0.00254177
0.00303201
0.0018594
-0.000639126
-0.00302299
-0.00636859
-0.0105588
-0.0085426
-0.00426729
-0.00524743
0.0029468
-0.00801451
0.000618912
-0.0138606
-0.0126629
-0.0146711
-0.0164393
-0.0165807
-0.0165454
-0.0166774
-0.0168768
-0.0169597
-0.0169219
-0.016814
-0.0166519
-0.0164527
-0.016182
0.1351
0.148209
0.1286
0.0317483
0.0436377
0.0299945
-0.206797
0.412976
0.35703
-0.0328606
0.0385255
0.387336
0.00252861
0.0014925
0.00118059
-0.00327197
-0.00621007
-0.00743852
-0.0100418
-0.0151219
-0.0117502
-0.00846808
-0.00918097
-0.0044266
-0.00538406
0.00252283
-0.00859131
-0.0126975
-0.0148979
-0.0169398
-0.0169631
-0.0167246
-0.0167059
-0.016855
-0.0169029
-0.0168238
-0.0166837
-0.0165089
-0.0163069
-0.0160722
-0.015774
0.125738
0.134302
0.0998459
0.0150798
-0.871274
-0.730749
-0.430185
-0.180045
-0.754002
-0.724084
0.141195
0.0739469
-0.0064738
-0.00766688
-0.00994705
-0.0110254
-0.0156853
-0.0128874
-0.0149965
-0.0114562
-0.0119787
-0.00860638
-0.00918858
-0.0150063
-0.017466
-0.0173992
-0.0169961
-0.0168019
-0.0169029
-0.0169146
-0.0167822
-0.0165876
-0.0163831
-0.016176
-0.0159382
-0.0156737
-0.0153536
0.118086
0.122666
0.078206
0.00370531
-0.743546
-1.04093
-0.897457
-0.919625
-0.87015
-0.0102137
-0.0112775
-0.012149
-0.0191792
-0.0134836
-0.0147851
-0.0136614
-0.0142992
-0.0150772
-0.011724
-0.0119434
-0.0184638
-0.0177951
-0.0173609
-0.0169515
-0.0170161
-0.0170017
-0.0168127
-0.0165431
-0.0162825
-0.0160618
-0.0158217
-0.0155503
-0.0152614
-0.0149203
0.112127
0.11304
0.0623013
0.00261839
-0.599364
-0.627093
-0.948269
-0.857907
-0.860899
-0.682256
-0.0118905
-0.0202287
-0.01403
-0.0137454
-0.0146643
-0.0196949
-0.0156317
-0.0159843
-0.013937
-0.0140337
-0.0181831
-0.0194827
-0.0178126
-0.017142
-0.0171815
-0.017159
-0.0169251
-0.0165669
-0.016219
-0.0159722
-0.0157257
-0.0154441
-0.0151452
-0.0148362
-0.0144888
0.107809
0.105277
0.0512448
-0.000652291
-0.481119
-0.593118
-0.472726
-0.604649
-0.862325
-0.675532
-0.014609
-0.0151818
-0.0182628
-0.0154346
-0.0156243
-0.016129
-0.0194728
-0.0182157
-0.0185291
-0.0183235
-0.0187384
-0.0173696
-0.0173839
-0.0173703
-0.0171191
-0.0166724
-0.0162037
-0.0159186
-0.0156587
-0.0153604
-0.0150455
-0.0147286
-0.0144103
-0.0140536
0.105072
0.0992922
0.0439389
-0.00695422
-0.392331
-0.546953
-0.470809
-0.407501
-0.453833
-0.503834
-0.604889
-0.711588
-0.6483
-0.0188045
-0.0166066
-0.0197832
-0.0188183
-0.019286
-0.0191434
-0.0176586
-0.0181616
-0.018854
-0.0176155
-0.0176108
-0.0173844
-0.0168669
-0.0162426
-0.0159108
-0.0156321
-0.0153078
-0.0149683
-0.014636
-0.0143067
-0.0139806
-0.0136137
0.103851
0.0950296
0.0394548
-0.0134993
-0.322344
-0.494066
-0.459251
-0.407495
-0.404512
-0.366288
-0.457065
-0.49846
-0.576248
-0.627706
-0.0194867
-0.0187908
-0.0191104
-0.019914
-0.019081
-0.0198068
-0.0179753
-0.0179
-0.0180406
-0.0182119
-0.0188206
-0.0189626
-0.0178508
-0.0176971
-0.0171535
-0.0163343
-0.0159539
-0.0156567
-0.0153002
-0.0149253
-0.0145657
-0.0142172
-0.0138823
-0.0135468
-0.0131897
0.104088
0.0924462
0.0371722
-0.0189924
-0.268478
-0.441207
-0.438846
-0.403123
-0.366795
-0.364444
-0.391222
-0.415795
-0.33165
-0.444996
-0.466516
-0.509828
-0.481944
-0.572694
-0.619444
-0.0195941
-0.0193346
-0.0200799
-0.0191757
-0.0213577
-0.0185334
-0.0181703
-0.0181522
-0.0180949
-0.0182557
-0.0182807
-0.0182648
-0.0183763
-0.0176647
-0.019129
-0.018008
-0.0175395
-0.0164698
-0.0160486
-0.0157369
-0.0153466
-0.01493
-0.0145287
-0.0141483
-0.0137951
-0.0134541
-0.0131264
-0.0127796
0.105725
0.0915092
0.0367009
-0.0230095
-0.228452
-0.39384
-0.414656
-0.394234
-0.365729
-0.332532
-0.330226
-0.353645
-0.371967
-0.386793
-0.396694
-0.406204
-0.420072
-0.444261
-0.3037
-0.46616
-0.502014
-0.481839
-0.0195458
-0.0193011
-0.0228161
-0.0174921
-0.0183817
-0.0183907
-0.0183449
-0.0182976
-0.0182572
-0.0184024
-0.0184461
-0.0184309
-0.0184768
-0.0184365
-0.0183422
-0.0178387
-0.0194144
-0.0180435
-0.0166379
-0.0161928
-0.0158726
-0.0154498
-0.0149889
-0.0145389
-0.0141122
-0.0137231
-0.0133691
-0.013039
-0.0127202
-0.0123662
0.108712
0.0921864
0.037794
-0.0253404
-0.198868
-0.353855
-0.390183
-0.382084
-0.362432
-0.332706
-0.304511
-0.302459
-0.321456
-0.3364
-0.348784
-0.357854
-0.36574
-0.374653
-0.38586
-0.44224
-0.280496
-0.461365
-0.0235042
-0.0184914
-0.0185134
-0.0184709
-0.0185074
-0.0184861
-0.0183754
-0.0186266
-0.0184972
-0.0185699
-0.0185897
-0.0185731
-0.0185222
-0.0185618
-0.0168377
-0.0163834
-0.0160567
-0.0156063
-0.0151058
-0.0146085
-0.0141228
-0.0136777
-0.0132977
-0.0129604
-0.0126352
-0.0123097
-0.0119723
0.112994
0.0944562
0.0403095
-0.0259324
-0.176862
-0.32092
-0.367312
-0.3684
-0.356626
-0.331904
-0.304918
-0.281277
-0.279395
-0.295225
-0.307497
-0.320753
-0.330771
-0.338889
-0.349655
-0.357787
-0.364581
-0.371808
-0.260794
-0.0185491
-0.0185823
-0.018601
-0.0186593
-0.0185491
-0.0185627
-0.0170808
-0.019298
-0.0185374
-0.0187299
-0.0186839
-0.0186685
-0.0186497
-0.016616
-0.0162803
-0.0158072
-0.0152746
-0.014742
-0.0141944
-0.0136732
-0.0132483
-0.0128944
-0.0125604
-0.0122305
-0.0119187
-0.0115842
0.118522
0.0982983
0.0441834
-0.0248434
-0.160456
-0.294242
-0.346883
-0.354716
-0.349024
-0.329759
-0.304918
-0.28182
-0.261523
-0.259736
-0.273181
-0.283697
-0.294784
-0.305973
-0.316838
-0.330182
-0.324109
-0.338268
-0.243966
-0.018685
-0.0187297
-0.018682
-0.0187573
-0.0184188
-0.0174352
-0.0169047
-0.0172333
-0.0201691
-0.0187327
-0.0186663
-0.0188083
-0.0187663
-0.0165354
-0.0160402
-0.0154839
-0.0149335
-0.014336
-0.0137213
-0.0132293
-0.0128483
-0.0125016
-0.0121622
-0.0118438
-0.0115331
-0.0112042
0.125236
0.103697
0.0494163
-0.0221356
-0.148295
-0.273091
-0.329164
-0.341963
-0.340711
-0.326345
-0.304364
-0.282193
-0.26212
-0.24462
-0.243041
-0.254025
-0.263412
-0.272749
-0.282403
-0.291261
-0.297271
-0.308168
-0.30248
-0.329723
-0.336351
-0.229466
-0.018782
-0.0188391
-0.0185195
-0.0179991
-0.0173194
-0.0172741
-0.0168154
-0.0171419
-0.0174116
-0.0184018
-0.0216781
-0.0188357
-0.0187978
-0.0162928
-0.0157185
-0.0151678
-0.0145484
-0.0138295
-0.0132499
-0.0128341
-0.0124662
-0.01211
-0.0117793
-0.0114592
-0.0111558
-0.0108334
0.133069
0.110641
0.0560711
-0.0178219
-0.139475
-0.256854
-0.314169
-0.330521
-0.332513
-0.322132
-0.303158
-0.282376
-0.262692
-0.245199
-0.230056
-0.241733
-0.228714
-0.254087
-0.262389
-0.269996
-0.274681
-0.284133
-0.278992
-0.290976
-0.2964
-0.301672
-0.216631
-0.0188723
-0.0177515
-0.017588
-0.0173645
-0.0174546
-0.0170859
-0.0165851
-0.0169644
-0.0173276
-0.0175758
-0.017626
-0.0224458
-0.0159559
-0.0154191
-0.0148257
-0.0140007
-0.0133148
-0.0128588
-0.0124643
-0.0120816
-0.0117291
-0.0113952
-0.0110846
-0.0107874
-0.0104707
0.141938
0.119116
0.0642529
-0.0118431
-0.133428
-0.245064
-0.301834
-0.32049
-0.324871
-0.317618
-0.301408
-0.282288
-0.263275
-0.245821
-0.230588
-0.217187
-0.227765
-0.237279
-0.244928
-0.215943
-0.253652
-0.263938
-0.259356
-0.270433
-0.274237
-0.283186
-0.27872
-0.205387
-0.0175908
-0.0175372
-0.0172307
-0.01678
-0.0161939
-0.0171905
-0.0171256
-0.0174011
-0.0174942
-0.0156516
-0.015157
-0.0142345
-0.0134231
-0.0129265
-0.0125031
-0.0120866
-0.0117039
-0.01135
-0.0110241
-0.0107195
-0.0104267
-0.0101187
0.151739
0.129101
0.0741124
-0.00402389
-0.129897
-0.237417
-0.292106
-0.311878
-0.317978
-0.313152
-0.299331
-0.2819
-0.263827
-0.246563
-0.231182
-0.217695
-0.205884
-0.215106
-0.223728
-0.230214
-0.235214
-0.23886
-0.242589
-0.245954
-0.204774
-0.250902
-0.255266
-0.259008
-0.263137
-0.269421
-0.195369
-0.0173601
-0.0173143
-0.0167455
-0.0165186
-0.0158442
-0.016356
-0.018343
-0.0174808
-0.0172038
-0.0172998
-0.0155065
-0.014538
-0.0135665
-0.0130383
-0.0125886
-0.0121334
-0.0117147
-0.0113322
-0.0109822
-0.0106616
-0.0103595
-0.0100758
-0.00978008
0.162333
0.140569
0.0858678
0.00593672
-0.128929
-0.233759
-0.284948
-0.304684
-0.311916
-0.308936
-0.29712
-0.281265
-0.264275
-0.247436
-0.231947
-0.218269
-0.206342
-0.195826
-0.204008
-0.211419
-0.217387
-0.222077
-0.224952
-0.227862
-0.231104
-0.235292
-0.238595
-0.241855
-0.194809
-0.258992
-0.262214
-0.18648
-0.0169821
-0.0168844
-0.0156628
-0.0167904
-0.0166019
-0.0161267
-0.0157923
-0.0160065
-0.016529
-0.0164294
-0.0174062
-0.0149391
-0.0137324
-0.0131922
-0.0127202
-0.012225
-0.011767
-0.0113494
-0.0109657
-0.0106161
-0.0102985
-0.0100107
-0.00974051
-0.00944982
0.173543
0.153474
0.0998272
0.0184329
-0.130853
-0.234092
-0.28034
-0.298917
-0.306728
-0.305082
-0.294906
-0.280464
-0.264576
-0.248367
-0.23293
-0.219025
-0.206867
-0.196248
-0.186892
-0.19412
-0.200838
-0.205903
-0.210924
-0.21525
-0.218219
-0.222648
-0.224819
-0.22741
-0.230237
-0.185974
-0.178556
-0.0165724
-0.0168966
-0.0166984
-0.0162884
-0.0162493
-0.0158474
-0.0154183
-0.0159707
-0.0161489
-0.01609
-0.016612
-0.0165098
-0.0174869
-0.0139136
-0.0133808
-0.0128951
-0.0123602
-0.011863
-0.0114094
-0.010987
-0.0105971
-0.0102527
-0.00995197
-0.00967744
-0.00940975
-0.00913752
0.185138
0.167723
0.116379
0.0339167
-0.136296
-0.238574
-0.278269
-0.294586
-0.302445
-0.30166
-0.292771
-0.279565
-0.264726
-0.249266
-0.234088
-0.220036
-0.207577
-0.19673
-0.187272
-0.178929
-0.185348
-0.191231
-0.195844
-0.200625
-0.205179
-0.209326
-0.214568
-0.212215
-0.217367
-0.222012
-0.178104
-0.171473
-0.0169906
-0.0167707
-0.0163709
-0.0163233
-0.015946
-0.0159553
-0.01612
-0.0141407
-0.0151665
-0.0159259
-0.0158847
-0.0162368
-0.0161568
-0.0166804
-0.0165765
-0.0135937
-0.0131069
-0.0125343
-0.0119997
-0.0115141
-0.0110559
-0.0106196
-0.0102307
-0.00990249
-0.00962037
-0.00934966
-0.00909981
-0.00882566
0.196812
0.18316
0.136029
0.0529945
-0.146277
-0.247517
-0.278739
-0.291707
-0.299093
-0.298718
-0.290772
-0.278619
-0.264743
-0.250066
-0.23532
-0.221289
-0.208558
-0.197384
-0.187706
-0.17927
-0.171807
-0.177538
-0.182795
-0.186864
-0.190888
-0.195169
-0.198686
-0.202123
-0.205893
-0.203433
-0.214611
-0.216697
-0.171063
-0.1651
-0.0164371
-0.016385
-0.016057
-0.0159886
-0.0170044
-0.0154656
-0.0146138
-0.0138328
-0.0142776
-0.0153353
-0.0151149
-0.0159778
-0.0150761
-0.0163036
-0.0162217
-0.0133429
-0.0127405
-0.0121706
-0.0116571
-0.011172
-0.0106897
-0.0102411
-0.00987109
-0.00957265
-0.00929546
-0.0090411
-0.00878947
-0.00852982
0.208144
0.199574
0.159512
0.0762693
-0.16227
-0.261425
-0.281753
-0.290304
-0.296693
-0.296291
-0.288948
-0.277666
-0.264653
-0.25074
-0.236524
-0.222691
-0.20982
-0.198308
-0.188297
-0.179653
-0.172111
-0.16541
-0.170517
-0.175077
-0.17893
-0.182548
-0.186328
-0.189501
-0.191749
-0.195842
-0.193631
-0.198355
-0.201664
-0.164718
-0.159356
-0.0161496
-0.01606
-0.0179876
-0.0147329
-0.0148772
-0.0146761
-0.014159
-0.0135862
-0.0139643
-0.0145461
-0.0143572
-0.0153134
-0.0152691
-0.0161737
-0.0151914
-0.0129719
-0.0123699
-0.0118291
-0.011329
-0.0108135
-0.0102993
-0.00986705
-0.00953724
-0.0092518
-0.00899122
-0.00873483
-0.00849455
-0.00823348
0.218569
0.216687
0.187955
0.103499
-0.185986
-0.280995
-0.287358
-0.290405
-0.295259
-0.2944
-0.287332
-0.276734
-0.264484
-0.251286
-0.237634
-0.224129
-0.211289
-0.199531
-0.189144
-0.180177
-0.172448
-0.165682
-0.159641
-0.169784
-0.16424
-0.174621
-0.178466
-0.181075
-0.183533
-0.186939
-0.184893
-0.189329
-0.191471
-0.195412
-0.193481
-0.159001
-0.154169
-0.018734
-0.0149524
-0.0147685
-0.0142907
-0.014209
-0.0138526
-0.0132196
-0.0136799
-0.0141379
-0.0140185
-0.0146236
-0.0144428
-0.0125936
-0.0120189
-0.0115128
-0.0109909
-0.0104123
-0.00989655
-0.00952524
-0.00922702
-0.0089541
-0.00868945
-0.00843837
-0.00819943
-0.00795012
0.227356
0.234014
0.222844
0.134539
-0.219872
-0.306727
-0.295694
-0.292022
-0.294799
-0.293048
-0.285945
-0.275849
-0.264259
-0.25172
-0.238622
-0.225511
-0.212849
-0.200999
-0.190293
-0.180936
-0.172905
-0.165976
-0.159887
-0.15443
-0.163667
-0.167967
-0.170872
-0.158559
-0.174467
-0.179046
-0.177273
-0.180749
-0.183701
-0.186555
-0.184618
-0.153845
-0.149423
-0.0143305
-0.0142588
-0.0139615
-0.0139085
-0.0135031
-0.0128376
-0.0133145
-0.0138455
-0.013724
-0.0141989
-0.0140841
-0.0122245
-0.0117038
-0.0112097
-0.0105841
-0.00996537
-0.0095425
-0.00922607
-0.00893571
-0.00865837
-0.00839357
-0.00814924
-0.00791821
-0.00766779
0.233715
0.250363
0.265332
0.176646
-0.269815
-0.338505
-0.306815
-0.295176
-0.2953
-0.292225
-0.2848
-0.275029
-0.264
-0.252061
-0.239489
-0.226786
-0.214392
-0.202604
-0.191712
-0.18199
-0.173574
-0.166369
-0.160143
-0.154651
-0.149669
-0.158027
-0.161733
-0.164652
-0.167461
-0.168318
-0.169652
-0.171261
-0.15345
-0.173376
-0.175183
-0.176691
-0.178703
-0.180499
-0.18332
-0.149118
-0.145126
-0.0140019
-0.0139613
-0.0136283
-0.0135579
-0.0131205
-0.0124553
-0.0129368
-0.013481
-0.0133578
-0.013912
-0.0137948
-0.0118904
-0.0114408
-0.0108186
-0.0100738
-0.00959033
-0.00925402
-0.00894403
-0.00864761
-0.00836648
-0.00810862
-0.00786664
-0.00763635
-0.00739161
0.237031
0.263553
0.312778
0.238741
-0.338097
-0.377017
-0.320101
-0.29988
-0.296705
-0.291908
-0.283899
-0.274289
-0.263722
-0.252332
-0.240249
-0.227941
-0.21585
-0.204232
-0.193305
-0.183324
-0.17452
-0.166948
-0.160479
-0.154872
-0.149873
-0.145353
-0.152987
-0.156296
-0.158894
-0.160856
-0.162299
-0.163547
-0.164877
-0.167382
-0.148739
-0.176784
-0.178426
-0.144845
-0.14118
-0.0136769
-0.0136116
-0.013252
-0.013175
-0.0127307
-0.0120947
-0.0125635
-0.0130921
-0.0129809
-0.0135467
-0.0134263
-0.0116237
-0.0111258
-0.0102169
-0.00966908
-0.00931276
-0.00898334
-0.00866599
-0.00836424
-0.00808109
-0.00782506
-0.00758742
-0.00736224
-0.00712393
0.270688
0.35467
0.317904
0.384688
-0.26479
0.220824
-0.321936
-0.418217
-0.48276
-0.334153
-0.305824
-0.298897
-0.292049
-0.283248
-0.273637
-0.263437
-0.252553
-0.240919
-0.22898
-0.217195
-0.205801
-0.194957
-0.184858
-0.175744
-0.167781
-0.160974
-0.155155
-0.150071
-0.145538
-0.141394
-0.148273
-0.151379
-0.153839
-0.155414
-0.156758
-0.157913
-0.159233
-0.160831
-0.162219
-0.163346
-0.164321
-0.144501
-0.140915
-0.137579
-0.0133045
-0.013228
-0.0128624
-0.0127884
-0.0123524
-0.0117298
-0.0122279
-0.012709
-0.0126101
-0.0131556
-0.0130467
-0.0115157
-0.0103898
-0.00977354
-0.00940479
-0.00905722
-0.00871748
-0.00839234
-0.00807985
-0.00779989
-0.0075479
-0.0073149
-0.00709644
-0.006859
0.377134
0.450836
0.506506
0.427415
0.379013
-0.203078
-0.222274
0.13501
-0.52161
-0.465775
-0.4369
-0.347475
-0.424611
-0.31165
-0.301654
-0.292566
-0.282853
-0.273085
-0.263154
-0.252745
-0.241521
-0.229915
-0.218424
-0.207272
-0.19658
-0.186484
-0.177184
-0.168882
-0.161694
-0.155571
-0.150313
-0.145711
-0.141566
-0.137779
-0.144099
-0.146796
-0.148959
-0.150732
-0.151832
-0.152749
-0.154361
-0.155208
-0.156639
-0.157695
-0.158881
-0.140587
-0.137328
-0.134274
-0.0129132
-0.0128392
-0.0124823
-0.0124176
-0.0119786
-0.0119162
-0.0118067
-0.0123565
-0.0122836
-0.0127709
-0.0126723
-0.0106051
-0.00989892
-0.00953011
-0.00916139
-0.00880162
-0.00845769
-0.00811308
-0.00779742
-0.00752231
-0.00727435
-0.00704868
-0.00683272
0.539648
0.554642
0.503652
0.460076
0.568146
0.514874
0.122978
-0.452891
-0.168492
-0.546845
-0.438859
-0.52967
-0.372245
-0.315405
-0.348461
-0.42555
-0.304362
-0.293391
-0.282721
-0.272649
-0.262882
-0.252932
-0.242075
-0.230764
-0.219544
-0.208633
-0.198122
-0.188108
-0.178741
-0.170205
-0.162665
-0.156184
-0.150661
-0.145912
-0.141721
-0.137939
-0.134463
-0.140194
-0.142815
-0.144716
-0.146544
-0.148532
-0.150182
-0.151682
-0.152393
-0.154469
-0.137017
-0.134039
-0.131228
-0.012533
-0.0124676
-0.0121454
-0.0120819
-0.0116504
-0.0108578
-0.0123673
-0.0119424
-0.0118831
-0.0124111
-0.0123365
-0.0100454
-0.00968462
-0.00929137
-0.0089142
-0.00856146
-0.00818864
-0.00782914
-0.00751868
-0.00724724
-0.00700934
-0.00678826
0.643055
0.61438
0.673632
0.665271
0.37697
0.204778
-0.551577
-0.463595
-0.554623
-0.440426
-0.376073
-0.326696
-0.306026
-0.313406
-0.351741
-0.420306
-0.434268
-0.294405
-0.282896
-0.272358
-0.262633
-0.253147
-0.242605
-0.23154
-0.220569
-0.209888
-0.199566
-0.189672
-0.18032
-0.171661
-0.163855
-0.157025
-0.151176
-0.146197
-0.141891
-0.138076
-0.134612
-0.131406
-0.136646
-0.13894
-0.14079
-0.142712
-0.14438
-0.145849
-0.146944
-0.148887
-0.147822
-0.150282
-0.151544
-0.152257
-0.154266
-0.133753
-0.131007
-0.128409
-0.0122092
-0.0121448
-0.0116999
-0.0116619
-0.0112099
-0.0102464
-0.0108021
-0.0113118
-0.013291
-0.0120159
-0.0119498
-0.009859
-0.00944133
-0.009047
-0.00869768
-0.0083092
-0.00789904
-0.00754449
-0.00724287
-0.00698449
-0.0067513
-0.465076
-0.445496
-0.387438
-0.371111
-0.328466
-0.309995
-0.294901
-0.304003
-0.313775
-0.347007
-0.35883
-0.424387
-0.436454
-0.283542
-0.272256
-0.262435
-0.253431
-0.243136
-0.23226
-0.221512
-0.211049
-0.200915
-0.191151
-0.181856
-0.173159
-0.165189
-0.158074
-0.15189
-0.146618
-0.142122
-0.138218
-0.134732
-0.131546
-0.128581
-0.133421
-0.135503
-0.137181
-0.138729
-0.140446
-0.141654
-0.143428
-0.144576
-0.143554
-0.130743
-0.128193
-0.12582
-0.0118379
-0.0117587
-0.0108449
-0.0110894
-0.0106092
-0.0100526
-0.0103889
-0.0110389
-0.0109179
-0.0112909
-0.0141291
-0.00960563
-0.00918901
-0.0088565
-0.0084752
-0.00800926
-0.00760481
-0.00726762
-0.00697842
-0.00672416
-0.386875
-0.372608
-0.333708
-0.325297
-0.311224
-0.298521
-0.284566
-0.291036
-0.304758
-0.309777
-0.319707
-0.347926
-0.35858
-0.272469
-0.262324
-0.253842
-0.243697
-0.232939
-0.222384
-0.212126
-0.202177
-0.192544
-0.183321
-0.174632
-0.16658
-0.15927
-0.152797
-0.147211
-0.142459
-0.1384
-0.134848
-0.131656
-0.128715
-0.125983
-0.130456
-0.132337
-0.133959
-0.135294
-0.136903
-0.138138
-0.139034
-0.140658
-0.139784
-0.141461
-0.143344
-0.127929
-0.125617
-0.123398
-0.0107869
-0.0106432
-0.0102909
-0.0097879
-0.0101395
-0.0105497
-0.0104381
-0.00931659
-0.00903839
-0.00866914
-0.00816141
-0.00770063
-0.00732518
-0.00700245
-0.00671892
-0.333149
-0.326029
-0.313902
-0.309632
-0.299183
-0.285538
-0.273127
-0.29725
-0.303781
-0.306657
-0.308065
-0.321977
-0.262336
-0.254446
-0.244313
-0.233594
-0.223195
-0.213126
-0.203365
-0.19386
-0.184708
-0.176044
-0.167961
-0.160535
-0.153846
-0.147975
-0.142938
-0.138661
-0.134986
-0.131752
-0.128816
-0.126108
-0.123557
-0.127585
-0.129495
-0.130931
-0.132152
-0.133775
-0.134699
-0.135525
-0.137134
-0.136297
-0.138042
-0.1389
-0.140477
-0.139704
-0.125375
-0.123202
-0.12115
-0.0103831
-0.0103204
-0.0100204
-0.00942914
-0.00986108
-0.010261
-0.0101769
-0.00921709
-0.00887721
-0.00834894
-0.00782978
-0.00741477
-0.00706199
-0.00674246
-0.316365
-0.309766
-0.300696
-0.298355
-0.289463
-0.27426
-0.283344
-0.262422
-0.292855
-0.297007
-0.304139
-0.306877
-0.306977
-0.255304
-0.245003
-0.23424
-0.223957
-0.214051
-0.204486
-0.19511
-0.186021
-0.177384
-0.169293
-0.161802
-0.154971
-0.148872
-0.143561
-0.139029
-0.135177
-0.131853
-0.128895
-0.126198
-0.123679
-0.121303
-0.127121
-0.125106
-0.128919
-0.130719
-0.131623
-0.13238
-0.133796
-0.133389
-0.134557
-0.135383
-0.136969
-0.136199
-0.122967
-0.12096
-0.119054
-0.0101138
-0.0100544
-0.0096999
-0.00916298
-0.00951476
-0.00998897
-0.00990135
-0.00936469
-0.00851119
-0.00799316
-0.00752999
-0.00715638
-0.00680003
-0.315949
-0.309804
-0.300946
-0.298604
-0.29685
-0.291126
-0.288009
-0.277767
-0.262653
-0.272728
-0.285573
-0.282339
-0.256387
-0.296464
-0.304471
-0.307006
-0.245774
-0.234904
-0.224675
-0.214896
-0.205545
-0.196301
-0.187268
-0.178654
-0.17056
-0.163031
-0.156108
-0.149845
-0.144301
-0.139513
-0.135444
-0.131981
-0.128965
-0.12626
-0.123765
-0.121421
-0.1192
-0.124831
-0.126261
-0.127549
-0.122685
-0.128912
-0.130939
-0.130339
-0.131518
-0.132059
-0.133493
-0.133588
-0.120731
-0.118874
-0.117083
-0.00981522
-0.00974014
-0.00934048
-0.0106448
-0.00924529
-0.0082074
-0.00965713
-0.00955816
-0.0086512
-0.00973031
-0.0081709
-0.00767276
-0.00727585
-0.00689513
-0.301147
-0.298947
-0.295624
-0.278967
-0.276642
-0.264461
-0.257489
-0.263063
-0.27499
-0.272259
-0.246596
-0.296561
-0.23562
-0.225373
-0.215647
-0.206538
-0.197435
-0.188454
-0.179858
-0.171763
-0.164205
-0.157216
-0.150836
-0.145113
-0.140094
-0.135795
-0.132152
-0.129037
-0.1263
-0.123817
-0.121502
-0.119314
-0.117226
-0.12235
-0.123856
-0.125279
-0.125802
-0.126459
-0.127067
-0.127727
-0.12046
-0.128527
-0.129226
-0.129725
-0.13076
-0.131453
-0.131898
-0.13357
-0.118664
-0.11691
-0.115238
-0.00946124
-0.00939044
-0.00995389
-0.00829735
-0.00937076
-0.00935807
-0.00952508
-0.00932153
-0.00909365
-0.00833153
-0.00878835
-0.00783961
-0.00740951
-0.00702174
-0.268834
-0.261553
-0.260002
-0.247414
-0.255816
-0.265491
-0.262619
-0.236393
-0.226094
-0.216299
-0.207457
-0.198504
-0.189573
-0.180998
-0.172903
-0.165318
-0.158277
-0.151808
-0.145947
-0.140735
-0.136215
-0.132373
-0.129121
-0.126322
-0.123834
-0.121544
-0.119391
-0.117337
-0.115376
-0.120146
-0.121545
-0.122652
-0.123407
-0.123935
-0.125076
-0.125122
-0.118432
-0.12986
-0.13064
-0.116707
-0.11507
-0.113502
-0.00953339
-0.00901181
-0.00961414
-0.00930752
-0.00958003
-0.00859694
-0.00800633
-0.00841012
-0.00895924
-0.00754978
-0.00716664
-0.260192
-0.260853
-0.259326
-0.250483
-0.237171
-0.245539
-0.257405
-0.254962
-0.266027
-0.262526
-0.22689
-0.216858
-0.208303
-0.199491
-0.190612
-0.182068
-0.17398
-0.166372
-0.159283
-0.152741
-0.146767
-0.141397
-0.136679
-0.132633
-0.129219
-0.126326
-0.123813
-0.121541
-0.119426
-0.117412
-0.115484
-0.113637
-0.11819
-0.119391
-0.120437
-0.121172
-0.121729
-0.122214
-0.122769
-0.123397
-0.123796
-0.125096
-0.116473
-0.114874
-0.113339
-0.111871
-0.0096616
-0.00954886
-0.00944867
-0.00966301
-0.00933469
-0.00871762
-0.00822052
-0.00769799
-0.0080695
-0.00851226
-0.00900712
-0.00914587
-0.00730857
-0.260789
-0.259452
-0.251812
-0.249549
-0.24026
-0.227737
-0.235372
-0.247343
-0.244663
-0.257749
-0.255458
-0.217346
-0.209085
-0.200381
-0.191547
-0.183052
-0.174987
-0.167364
-0.160234
-0.153628
-0.147558
-0.14205
-0.137156
-0.132915
-0.129322
-0.126309
-0.123744
-0.121481
-0.119406
-0.117442
-0.115558
-0.113744
-0.112001
-0.116199
-0.117511
-0.118418
-0.119023
-0.119543
-0.120033
-0.120557
-0.121126
-0.121671
-0.122113
-0.12261
-0.11464
-0.113146
-0.111717
-0.110327
-0.0096809
-0.00952283
-0.00972489
-0.00939838
-0.00886584
-0.0087467
-0.00831788
-0.00788994
-0.00743557
-0.0077762
-0.00815847
-0.0085347
-0.00863788
-0.00907049
-0.00922026
-0.251697
-0.24968
-0.241581
-0.239263
-0.230606
-0.217829
-0.22597
-0.237096
-0.234522
-0.247664
-0.245155
-0.209815
-0.201173
-0.192362
-0.183933
-0.17591
-0.168287
-0.161127
-0.154466
-0.148311
-0.142679
-0.137623
-0.133197
-0.12942
-0.126259
-0.123615
-0.121346
-0.119314
-0.11741
-0.115584
-0.113815
-0.112105
-0.110453
-0.114374
-0.115507
-0.116451
-0.117005
-0.117808
-0.117987
-0.118484
-0.118959
-0.119486
-0.119931
-0.12041
-0.112924
-0.111541
-0.110178
-0.108868
-0.00960063
-0.00947349
-0.00892479
-0.00879788
-0.00843212
-0.00834208
-0.007988
-0.00760108
-0.0075142
-0.00785675
-0.00818652
-0.00825995
-0.00858389
-0.00868526
-0.00913304
-0.00928403
-0.241434
-0.239351
-0.231781
-0.229582
-0.221044
-0.210519
-0.215751
-0.227605
-0.225127
-0.237376
-0.234963
-0.201866
-0.193063
-0.184704
-0.176736
-0.169125
-0.16195
-0.155254
-0.149027
-0.143278
-0.13807
-0.133465
-0.129501
-0.126172
-0.123417
-0.121117
-0.119121
-0.117288
-0.115541
-0.113837
-0.112176
-0.110556
-0.108991
-0.112674
-0.113717
-0.114682
-0.115199
-0.115648
-0.116057
-0.116527
-0.116786
-0.117996
-0.117714
-0.118326
-0.111347
-0.110008
-0.108724
-0.107487
-0.00897642
-0.00884473
-0.00847772
-0.00838738
-0.00809158
-0.00802516
-0.00769991
-0.00757471
-0.0078926
-0.00794606
-0.00823047
-0.00830495
-0.0086302
-0.00872524
-0.231628
-0.229644
-0.222433
-0.220129
-0.213031
-0.202447
-0.208964
-0.218143
-0.214075
-0.227835
-0.225537
-0.193677
-0.185372
-0.177462
-0.169869
-0.162691
-0.155984
-0.149706
-0.143847
-0.13849
-0.133713
-0.12956
-0.126046
-0.123147
-0.120779
-0.118797
-0.117041
-0.115396
-0.113785
-0.112196
-0.110626
-0.109091
-0.107606
-0.111141
-0.112063
-0.112874
-0.11353
-0.114503
-0.114806
-0.115145
-0.115588
-0.115967
-0.116383
-0.116696
-0.11803
-0.109812
-0.108559
-0.107348
-0.106178
-0.00851968
-0.00843021
-0.00813937
-0.00806646
-0.00779805
-0.00775016
-0.00762822
-0.00766013
-0.00793234
-0.00799246
-0.00827322
-0.00834207
-0.22226
-0.220332
-0.214514
-0.212177
-0.204793
-0.194218
-0.200738
-0.210245
-0.208129
-0.219404
-0.213498
-0.185955
-0.178102
-0.170521
-0.163337
-0.156643
-0.150345
-0.144389
-0.138885
-0.133939
-0.129598
-0.125887
-0.122812
-0.120328
-0.118322
-0.116631
-0.115102
-0.113619
-0.112137
-0.110645
-0.109161
-0.107706
-0.106294
-0.109588
-0.110538
-0.111388
-0.11189
-0.112708
-0.113277
-0.113878
-0.11369
-0.11465
-0.115078
-0.11551
-0.115911
-0.116303
-0.108367
-0.107188
-0.106045
-0.104933
-0.00818129
-0.00810597
-0.00784898
-0.0077883
-0.00751533
-0.00766557
-0.00771471
-0.00797237
-0.00803075
-0.215573
-0.212228
-0.205835
-0.203909
-0.19665
-0.186473
-0.192336
-0.202021
-0.199936
-0.210454
-0.208379
-0.212686
-0.178666
-0.171106
-0.163891
-0.157222
-0.150942
-0.144902
-0.139259
-0.134145
-0.129616
-0.125703
-0.122428
-0.119781
-0.117693
-0.116027
-0.11461
-0.113282
-0.111951
-0.11058
-0.109179
-0.107775
-0.106392
-0.105046
-0.108147
-0.109038
-0.109774
-0.110385
-0.111338
-0.111567
-0.111983
-0.112807
-0.112402
-0.114021
-0.114565
-0.107005
-0.105896
-0.104806
-0.103751
-0.00789264
-0.00782352
-0.00758233
-0.00770455
-0.00775529
-0.21531
-0.21222
-0.205818
-0.203981
-0.197704
-0.195759
-0.188681
-0.17915
-0.184947
-0.193632
-0.1907
-0.202214
-0.200214
-0.210511
-0.208558
-0.171651
-0.164368
-0.15772
-0.151493
-0.145386
-0.139612