/*--------------------------------*- C++ -*----------------------------------*\
| =========                 |                                                 |
| \\      /  F ield         | OpenFOAM: The Open Source CFD Toolbox           |
|  \\    /   O peration     | Version:  v1912                                 |
|   \\  /    A nd           | Website:  www.openfoam.com                      |
|    \\/     M anipulation  |                                                 |
\*---------------------------------------------------------------------------*/
FoamFile
{
    version     2.0;
    format      ascii;
    class       surfaceScalarField;
    location    "410";
    object      phi;
}
// * * * * * * * * * * * * * * * * * * * * * * * * * * * * * * * * * * * * * //

dimensions      [0 3 -1 0 0 0 0];
oriented        oriented;


internalField   nonuniform List<scalar> 
7194
(
-1.8035e-06
0.0013212
0.00396612
-1.95404e-06
0.00132316
-9.0778e-06
0.00397324
-2.10622e-06
0.00132526
-2.41749e-05
0.00658323
-9.46318e-06
0.0039806
-2.10964e-06
0.00132737
-4.48132e-05
0.00906603
-2.40422e-05
0.00659781
-9.466e-06
0.00398796
-1.99079e-06
0.00132937
-7.508e-05
0.0113096
-4.80841e-05
0.00909008
-2.35633e-05
0.0066119
-9.34011e-06
0.00399531
-2.0332e-06
0.0013314
-0.000115846
0.0131768
-7.91149e-05
0.0113406
-4.53733e-05
0.00911189
-2.41793e-05
0.00662674
-9.72471e-06
0.004003
-1.71684e-06
0.00133312
-0.000162284
0.0145398
-0.000119518
0.0132172
-7.90074e-05
0.0113743
-4.63586e-05
0.00913407
-2.17576e-05
0.00663878
-8.08175e-06
0.00400936
-1.59314e-06
0.00133471
-0.00020856
0.0152863
-0.000165211
0.0145855
-0.000117865
0.0132561
-7.33234e-05
0.0114012
-4.14293e-05
0.00915374
-1.95594e-05
0.00665025
-7.26219e-06
0.00401503
-1.48964e-06
0.0013362
-0.000249874
0.0153464
-0.000214741
0.0153358
-0.000162551
0.0146302
-0.000112564
0.0132953
-7.07215e-05
0.0114305
-3.7786e-05
0.00917197
-1.82217e-05
0.00666121
-6.63962e-06
0.00402018
-1.16366e-06
0.00133736
-0.000280284
0.0146857
-0.000258815
0.0153904
-0.000211733
0.015385
-0.000156043
0.0146737
-0.00010104
0.0133256
-6.1745e-05
0.0114545
-3.35525e-05
0.0091873
-1.55273e-05
0.0066701
-4.56793e-06
0.00402359
-1.1779e-06
0.00133854
-0.00029372
0.0133395
-0.000301223
0.0147281
-0.000258752
0.0154375
-0.00019806
0.015427
-0.000137173
0.0147098
-9.21415e-05
0.013356
-5.43186e-05
0.0114753
-2.99351e-05
0.0092017
-1.41735e-05
0.00667971
-5.19557e-06
0.0040276
-8.4522e-07
0.00133939
-0.000286867
0.0113913
-0.000331676
0.01337
-0.000297198
0.0147665
-0.000237678
0.0154771
-0.000173708
0.0154636
-0.000122678
0.0147404
-7.85194e-05
0.0133802
-4.75547e-05
0.0114929
-2.56604e-05
0.00921319
-1.08922e-05
0.0066854
-4.57445e-06
0.00403133
-7.50842e-07
0.00134014
-0.000246336
0.00897556
-0.000351618
0.0114112
-0.000327512
0.0134003
-0.000264158
0.014793
-0.000201345
0.0155047
-0.000149496
0.0154904
-0.000102512
0.0147643
-6.5826e-05
0.0133985
-3.94891e-05
0.0115067
-2.14473e-05
0.00922375
-1.13748e-05
0.0066922
-4.16892e-06
0.00403475
-7.87195e-07
0.00134092
-5.07076e-05
0.00624555
-0.000109951
-0.00035824
0.00898218
-0.00034479
0.0114285
-0.000276839
0.013413
-0.0002178
0.0148094
-0.000166868
0.0155221
-0.000119753
0.0155076
-8.42811e-05
0.0147828
-5.80074e-05
0.013417
-3.63533e-05
0.0115216
-2.06464e-05
0.00923302
-1.02428e-05
0.00669828
-4.00809e-06
0.00403797
-7.72014e-07
0.0013417
0.00211958
-0.00213777
-3.25175e-05
-0.000141945
0.00623141
-0.000202156
0.00207353
-6.39087e-05
-0.000350038
0.00898743
-0.00026948
0.0114212
-0.000211924
0.0134071
-0.000167229
0.0148098
-0.0001297
0.015532
-0.000101324
0.0155247
-7.36752e-05
0.0147985
-4.7814e-05
0.0134285
-3.02756e-05
0.0115312
-1.74244e-05
0.0092402
-8.68832e-06
0.00670296
-3.88592e-06
0.00404109
-8.40085e-07
0.00134254
-2.0106e-05
0.00139758
-0.00142253
-9.10107e-07
-6.65402e-06
0.00204284
-0.000111254
-0.000195587
0.00621709
-0.000140131
0.00201501
-0.000174323
0.00135411
-1.55276e-05
-4.91496e-06
-0.000228519
0.00894647
-0.000183991
0.0113932
-0.000154284
0.0133941
-0.000128879
0.014809
-0.000105361
0.0155361
-8.07569e-05
0.0155317
-5.75278e-05
0.0148082
-4.23636e-05
0.0134406
-2.77305e-05
0.0115415
-1.88109e-05
0.00925032
-1.02258e-05
0.0067093
-3.42961e-06
0.00404368
-1.08244e-06
0.00134362
-3.60885e-06
-6.08667e-08
0.000446245
-0.000446387
-7.67723e-07
0.000441348
-1.75651e-06
0.00129956
-1.68798e-05
-3.98185e-05
0.0019912
-0.000171776
-0.000100557
0.00613083
-4.1696e-05
0.00196043
-0.000109365
0.00126529
-8.70166e-05
-5.30325e-05
-0.000439077
0.000429049
-5.49944e-06
-2.64478e-06
-0.000124925
0.00888741
-0.000117254
0.0113562
-0.000107671
0.0133729
-9.61759e-05
0.0147998
-8.0146e-05
0.0155355
-6.39128e-05
0.0155381
-5.21417e-05
0.014818
-3.8445e-05
0.0134513
-2.71101e-05
0.0115498
-1.71635e-05
0.00925726
-1.07641e-05
0.00671663
-4.98797e-06
0.00404758
-1.14327e-06
0.00134476
-0.000448933
-1.06338e-06
-1.88227e-08
0.000261343
-0.000262048
-6.20343e-08
0.000259861
-2.7517e-07
0.000421364
-9.1942e-06
0.000399826
-1.82808e-05
0.00123718
-8.00614e-05
-6.36105e-05
0.00191438
-5.45019e-05
-3.65631e-05
0.00605071
-8.24735e-06
0.00189701
-2.43332e-05
0.00118529
-1.70252e-05
-4.04496e-05
-0.000380014
0.000352982
-5.99847e-05
-3.32205e-05
-0.00025763
0.000252895
-7.63867e-07
-4.13813e-07
-6.7152e-05
0.0088373
-7.47891e-05
0.0113233
-7.62678e-05
0.013353
-7.25465e-05
0.0147922
-6.50104e-05
0.0155366
-5.80181e-05
0.015544
-4.68155e-05
0.0148263
-3.67559e-05
0.0134609
-2.91571e-05
0.0115618
-2.05525e-05
0.00926705
-1.06075e-05
0.00672225
-5.31156e-06
0.00405175
-1.21037e-06
0.00134597
-0.000262997
-1.14155e-07
-4.4894e-08
7.56873e-05
-7.57494e-05
7.54122e-05
0.000245427
-1.72618e-06
0.000230929
-3.7826e-06
0.000331381
-5.84605e-05
0.000311308
-4.35373e-05
0.00114377
-1.04077e-05
-2.57231e-06
0.00187301
-1.25597e-05
-1.53372e-05
0.00599953
-6.31097e-07
0.00187021
-5.44248e-06
0.00112275
-1.75631e-07
-3.14019e-06
-0.000289541
0.000278832
-6.31645e-06
-1.86829e-05
-0.000207442
0.000168764
-2.13066e-05
-9.73418e-06
-7.49984e-05
7.42345e-05
-3.7314e-05
0.00879983
-4.90007e-05
0.011296
-5.43272e-05
0.0133348
-5.46904e-05
0.0147819
-5.41795e-05
0.0155327
-4.90363e-05
0.0155462
-4.31678e-05
0.0148327
-3.80033e-05
0.0134698
-2.95276e-05
0.0115708
-2.03533e-05
0.00927679
-1.36251e-05
0.00673057
-6.15808e-06
0.0040567
-1.53434e-06
0.00134751
-7.58635e-05
7.25083e-05
6.87257e-05
0.000147989
-3.7685e-05
0.000104451
0.000270704
-2.27928e-06
0.000268803
-6.71547e-07
0.00111118
-1.20251e-06
2.16689e-07
0.00185841
-3.54089e-06
-7.89685e-06
0.00596916
9.52444e-07
0.00185879
-1.00712e-06
0.00110583
5.49882e-07
-6.39137e-07
-0.000266038
0.000265956
-9.28973e-08
-3.7516e-07
-8.57686e-05
7.94522e-05
-5.89916e-05
3.7685e-05
-2.20566e-05
0.00877289
-3.35214e-05
0.0112752
-4.06434e-05
0.0133207
-4.67532e-05
0.0147745
-4.76488e-05
0.0155313
-4.67268e-05
0.0155498
-4.59001e-05
0.0148406
-4.06397e-05
0.0134809
-3.25891e-05
0.011583
-2.51026e-05
0.00928827
-1.51167e-05
0.00673952
-6.92579e-06
0.00406209
-1.57244e-06
0.00134908
7.71729e-05
7.65014e-05
0.000264926
-1.73278e-07
0.000265118
2.45815e-08
0.0011024
-3.34795e-07
2.24426e-07
0.00185231
-1.41841e-06
-5.00478e-06
0.00595046
1.64889e-06
0.00185389
-6.28471e-07
0.00110131
4.03294e-07
-3.2355e-07
-0.000264423
0.000264914
5.92669e-08
5.64754e-08
-7.61262e-05
7.60333e-05
-1.4042e-05
0.00875341
-2.49362e-05
0.0112595
-3.2035e-05
0.013306
-3.78021e-05
0.0147646
-4.44428e-05
0.015529
-4.77035e-05
0.0155516
-4.93112e-05
0.0148493
-4.53493e-05
0.0134936
-3.9366e-05
0.0115973
-2.85275e-05
0.00930168
-1.70067e-05
0.00674961
-7.77255e-06
0.00406829
-1.93563e-06
0.00135102
7.586e-05
7.58846e-05
0.000264665
-8.64245e-08
0.000264834
5.56557e-08
0.00109993
-1.88742e-07
1.51724e-07
0.00184954
-6.58268e-07
-3.15084e-06
0.00593861
9.62796e-07
0.00185122
-3.14859e-08
0.0010992
2.6355e-07
-1.61812e-07
-0.00026443
0.0002648
3.29769e-08
8.06174e-08
-7.59411e-05
7.60004e-05
-1.01788e-05
0.00873865
-1.72768e-05
0.0112448
-2.74738e-05
0.0132957
-3.55533e-05
0.0147557
-4.37914e-05
0.0155251
-5.34259e-05
0.0155557
-5.5746e-05
0.0148597
-5.42289e-05
0.0135085
-4.52135e-05
0.011614
-3.4008e-05
0.00931868
-2.04263e-05
0.00676226
-9.34064e-06
0.0040757
-2.03604e-06
0.00135305
7.5914e-05
7.59696e-05
0.00026468
-6.8608e-08
0.000264799
3.265e-08
0.00109864
-1.5232e-07
4.68652e-08
0.00184862
-5.46732e-07
-1.86609e-06
0.00592956
7.37222e-07
0.00184936
2.23248e-07
0.00109846
2.52914e-07
-9.59411e-08
-0.000264572
0.000264825
1.05854e-08
6.57217e-08
-7.60502e-05
7.60832e-05
-7.08112e-06
0.00872845
-1.4302e-05
0.0112316
-2.4995e-05
0.0132851
-3.63513e-05
0.0147483
-4.92195e-05
0.0155209
-5.91056e-05
0.0155591
-6.58541e-05
0.0148713
-6.35014e-05
0.0135268
-5.3383e-05
0.0116334
-3.58921e-05
0.00933415
-2.07586e-05
0.00677368
-8.8817e-06
0.00408254
-1.84784e-06
0.0013549
7.60146e-05
7.60473e-05
0.000264752
-7.96204e-08
0.000264782
1.67928e-08
0.00109796
-8.80734e-08
3.45959e-08
0.00184788
-3.9092e-07
-1.48338e-06
0.0059228
1.15984e-06
0.00184844
1.7918e-07
0.00109813
1.64177e-07
-1.08396e-07
-0.000264615
0.00026486
8.25148e-09
7.10546e-08
-7.6113e-05
7.61236e-05
-5.93753e-06
0.00872009
-1.30253e-05
0.0112196
-2.39981e-05
0.0132728
-4.21209e-05
0.0147412
-6.09101e-05
0.0155227
-7.56608e-05
0.0155689
-7.95333e-05
0.0148874
-7.31836e-05
0.0135466
-5.86999e-05
0.0116562
-4.11115e-05
0.0093545
-2.29075e-05
0.0067877
-8.78794e-06
0.00408948
-1.91791e-06
0.00135682
7.6044e-05
7.60608e-05
0.000264852
-8.04763e-08
0.000264873
1.40456e-08
0.0010978
-2.02755e-08
-4.4618e-08
0.00184717
-2.12909e-07
-1.18036e-06
0.00591707
9.69331e-07
0.00184811
2.24575e-07
0.00109786
1.62494e-07
-4.35153e-08
-0.000264696
0.000264858
2.09102e-09
6.83522e-08
-7.61318e-05
7.61401e-05
-4.11879e-06
0.00871118
-1.27319e-05
0.0112084
-2.84796e-05
0.0132591
-4.73509e-05
0.0147276
-7.08797e-05
0.015518
-8.95225e-05
0.0155789
-9.74278e-05
0.0149116
-8.6918e-05
0.0135748
-6.64392e-05
0.0116815
-4.3408e-05
0.009375
-2.24064e-05
0.00680132
-9.48715e-06
0.00409705
-2.49838e-06
0.00135932
7.60596e-05
7.60736e-05
0.000264918
-8.01439e-08
0.000264865
8.5113e-09
0.00109771
-1.8808e-08
-3.87104e-08
0.00184711
-1.85296e-07
-6.4506e-07
0.00591277
8.25546e-07
0.00184785
2.32928e-07
0.0010978
1.66269e-07
-3.16183e-08
-0.000264724
0.000264881
5.48708e-09
9.71328e-08
-7.6142e-05
7.61441e-05
-5.07099e-06
0.00870352
-1.51419e-05
0.011195
-3.42855e-05
0.0132461
-6.49904e-05
0.0147217
-9.42393e-05
0.0155227
-0.000113058
0.0155945
-0.000113243
0.0149379
-9.73355e-05
0.0136057
-7.14316e-05
0.0117095
-4.46332e-05
0.00939723
-2.27494e-05
0.00681458
-7.72989e-06
0.00410228
-7.22647e-07
0.00136004
7.6064e-05
7.60725e-05
0.000264946
-8.36014e-08
0.000264891
1.62438e-08
0.00109767
-1.15509e-08
-4.88998e-08
0.00184719
1.12875e-08
-3.46237e-07
0.00590762
4.32957e-07
0.00184775
2.6984e-07
0.00109776
1.64823e-07
-2.25513e-08
-0.000264794
0.000264954
6.07114e-09
6.54368e-08
-7.61696e-05
7.61751e-05
-4.35105e-06
0.00869273
-2.03537e-05
0.0111811
-4.81123e-05
0.0132292
-8.47915e-05
0.0147123
-0.00011873
0.0155283
-0.00013683
0.0156181
-0.000130132
0.0149707
-0.000106802
0.0136411
-7.50711e-05
0.01174
-4.20334e-05
0.00941651
-2.13378e-05
0.00682819
-6.7075e-06
0.00410827
-6.53539e-07
0.00136069
7.60915e-05
7.61077e-05
0.000265031
-8.80417e-08
0.000264873
1.08637e-07
0.00109782
-6.89423e-09
-3.87353e-08
0.00184734
5.75388e-08
1.81954e-07
0.00590383
-7.46817e-07
0.00184764
1.32714e-07
0.00109794
1.6905e-07
-1.63028e-08
-0.000264864
0.000265035
-6.54865e-09
-1.34771e-08
-7.61732e-05
7.61793e-05
-7.55198e-06
0.00867993
-2.78051e-05
0.0111608
-6.49633e-05
0.0132094
-0.000113806
0.0147074
-0.00015153
0.015543
-0.000163718
0.0156517
-0.000145041
0.015009
-0.000111086
0.0136771
-7.22823e-05
0.0117702
-4.11087e-05
0.00943629
-1.74312e-05
0.00683892
-6.20133e-06
0.00411381
-4.02697e-07
0.0013611
7.60912e-05
7.61999e-05
0.000265075
-4.65528e-08
0.000264924
1.11976e-07
0.00109803
3.40098e-09
-3.28223e-08
0.00184773
9.56106e-08
1.06076e-06
0.00589626
-1.04211e-06
0.00184684
1.45945e-07
0.001098
1.69933e-07
-1.36486e-08
-0.00026492
0.000265094
-5.35411e-09
-1.1482e-08
-7.61864e-05
7.61798e-05
-1.12087e-05
0.00866333
-4.06584e-05
0.0111365
-9.53976e-05
0.013191
-0.000151895
0.0147077
-0.000188518
0.0155678
-0.000185962
0.0156926
-0.000155132
0.015053
-0.000111103
0.0137159
-6.8204e-05
0.0117973
-3.63976e-05
0.00945525
-1.59702e-05
0.00684869
-2.99108e-06
0.0041164
-1.8156e-07
0.00136128
7.61333e-05
7.62453e-05
0.000265176
-7.89329e-08
0.000265031
1.12826e-07
0.00109812
3.15562e-09
-2.4108e-08
0.00184772
1.72727e-07
1.39393e-06
0.00588566
-2.0089e-06
0.00184687
-1.90456e-07
0.00109812
1.65794e-07
-2.01029e-08
-0.000265027
0.000265203
-5.58074e-09
-1.0236e-08
-7.62338e-05
7.62285e-05
-1.83487e-05
0.00864102
-6.47379e-05
0.0111058
-0.000135747
0.0131748
-0.000199785
0.014719
-0.000223711
0.0156056
-0.000197808
0.0157353
-0.000153788
0.0150957
-0.000101929
0.0137496
-6.10294e-05
0.0118219
-3.09613e-05
0.00947024
-1.06857e-05
0.00685638
-2.735e-06
0.00411896
1.91943e-07
0.00136109
7.61495e-05
7.62624e-05
0.00026525
-4.38046e-08
0.000265146
7.96973e-08
0.00109832
-2.62588e-10
-2.96379e-08
0.0018478
4.64709e-07
9.07645e-07
0.00586986
-3.45569e-06
0.00184621
-4.12785e-07
0.00109795
1.79407e-07
2.927e-09
-0.000265104
0.000265278
-8.26758e-09
2.2176e-08
-7.62521e-05
7.62465e-05
-3.09047e-05
0.00860719
-0.000101048
0.0110711
-0.00019216
0.0131672
-0.000249427
0.0147447
-0.000241677
0.0156495
-0.000201081
0.0157826
-0.000142846
0.0151366
-9.28051e-05
0.0137814
-5.1849e-05
0.0118428
-2.28528e-05
0.00948241
-6.4837e-06
0.00686013
7.63533e-07
0.00411839
1.74598e-06
0.00135934
7.62027e-05
7.62824e-05
0.000265362
-8.39494e-08
0.00026524
9.14625e-08
0.00109841
1.81406e-08
-1.20037e-08
0.00184657
5.42444e-07
1.63304e-06
0.00584323
-5.90369e-06
0.00184376
-6.44095e-07
0.00109788
1.08398e-07
6.83999e-09
-0.000265234
0.000265411
2.59924e-09
9.48319e-09
-7.63046e-05
7.62964e-05
-5.55227e-05
0.00856167
-0.000161584
0.0110406
-0.000260572
0.0131783
-0.000281776
0.0147848
-0.000246045
0.0156944
-0.000184866
0.0158246
-0.000126702
0.0151705
-7.7245e-05
0.0138068
-4.12933e-05
0.0118613
-1.56835e-05
0.00949161
-3.03606e-06
0.00686393
1.6658e-06
0.00411847
2.07808e-06
0.00135726
7.62124e-05
7.63039e-05
0.000265507
-7.77754e-08
0.000265398
9.66956e-08
0.00109839
9.36689e-08
-6.35127e-08
0.00184543
-4.20792e-08
-1.89806e-07
0.00579997
-1.20742e-05
0.00184048
-9.51215e-07
0.00109762
5.02197e-08
8.07715e-08
-0.000265393
0.000265503
-1.65073e-09
1.18309e-08
-7.63134e-05
7.6316e-05
-0.000104581
0.00850466
-0.000243196
0.0110232
-0.000311395
0.013208
-0.000288442
0.0148272
-0.000224632
0.0157342
-0.000159787
0.0158577
-0.000103861
0.0151971
-6.16017e-05
0.0138271
-2.86937e-05
0.0118743
-9.33421e-06
0.00949791
1.02426e-06
0.00686457
5.28103e-06
0.00411526
2.47602e-06
0.00135479
7.62382e-05
7.63349e-05
0.000265642
-4.53276e-08
0.000265509
6.90798e-08
0.00109752
1.77357e-07
-1.26457e-07
0.0018411
-8.09955e-07
-5.22663e-06
0.00572864
-2.80247e-05
0.00183191
-2.88397e-06
0.00109647
-4.05452e-10
9.89764e-08
-0.000265545
0.000265589
5.5805e-09
4.55374e-08
-7.63467e-05
7.63451e-05
-0.000192722
0.00845419
-0.00033087
0.0110427
-0.000323227
0.0132427
-0.000256712
0.0148593
-0.000189014
0.0157634
-0.000130146
0.0158839
-8.24194e-05
0.0152179
-4.37795e-05
0.0138422
-1.8429e-05
0.0118834
-2.32284e-06
0.00950126
3.69138e-06
0.00686616
7.33102e-06
0.00411041
2.85675e-06
0.00135193
7.62998e-05
7.63688e-05
0.00026584
-7.27956e-08
0.00026561
1.02696e-07
0.00109564
1.92644e-07
-1.70812e-07
0.00182998
-3.29928e-06
-2.60919e-05
0.00563321
-7.11992e-05
0.00181073
-8.76952e-06
0.00109297
-3.13568e-07
9.7844e-08
-0.000265694
0.000265724
-2.988e-08
1.52836e-08
-7.64144e-05
7.642e-05
-0.000323978
0.0084473
-0.000349371
0.0110688
-0.000276191
0.0132622
-0.000206802
0.0148771
-0.00014761
0.0157809
-9.98392e-05
0.0159014
-5.87696e-05
0.0152329
-2.92414e-05
0.013853
-8.51595e-06
0.0118896
4.02768e-06
0.00950092
1.08586e-05
0.00686263
7.65678e-06
0.00410561
3.33153e-06
0.0013486
7.63472e-05
7.64499e-05
0.000265944
-2.7751e-08
0.000265695
7.78941e-08
0.00108972
4.46866e-07
-4.91595e-07
0.00179873
-1.40918e-05
-9.56786e-05
0.00558002
-0.000175113
0.00175861
-3.108e-05
0.0010816
-8.07303e-07
1.58305e-07
-0.000265741
0.000265462
-3.43767e-08
5.17243e-08
-7.64652e-05
7.64353e-05
-0.000363431
0.00846136
-0.000275917
0.0110685
-0.000206592
0.013262
-0.000154371
0.0148838
-0.000108629
0.0157897
-6.96473e-05
0.0159122
-3.93998e-05
0.0152431
-1.38192e-05
0.0138583
2.89122e-06
0.0118907
1.15389e-05
0.00950024
1.1997e-05
0.00685829
9.2183e-06
0.00409972
3.86958e-06
0.00134473
7.64075e-05
7.64854e-05
0.000265956
-4.71645e-08
0.000265387
7.80067e-08
0.00106881
1.39247e-07
-1.44013e-06
0.00172272
-5.97884e-05
-0.000196002
0.00557341
-0.00016082
0.00167379
-0.000126187
0.00104158
-3.59465e-06
-2.52667e-07
-0.00026552
0.00026479
-7.68219e-08
2.48696e-08
-7.65371e-05
7.65028e-05
-0.000239995
0.00842544
-0.000179377
0.0110413
-0.000139542
0.0132472
-0.000103926
0.0148791
-7.42558e-05
0.0157943
-4.68722e-05
0.0159197
-2.06681e-05
0.0152499
-3.61308e-06
0.0138648
1.08751e-05
0.0118914
1.54145e-05
0.00949682
1.95339e-05
0.00684798
1.07576e-05
0.00409283
4.59958e-06
0.00134013
7.64556e-05
7.65336e-05
0.00026503
-1.01394e-07
0.000263617
-2.71185e-08
0.000994465
-2.17415e-06
-1.05031e-05
0.00164647
-0.000168682
-0.000107025
0.00548319
-4.27468e-05
0.00161297
-0.00012732
0.00091968
-3.70882e-05
-1.43142e-05
-0.000263434
0.000260362
-5.22211e-07
-6.95514e-08
-7.65585e-05
7.64817e-05
-0.000121383
0.00836744
-0.000106774
0.0110085
-8.98015e-05
0.0132331
-6.96221e-05
0.0148745
-4.8648e-05
0.0157961
-2.48905e-05
0.0159239
-6.75303e-06
0.0152531
8.35477e-06
0.0138673
1.81615e-05
0.0118886
2.16429e-05
0.00949471
1.75275e-05
0.00684121
1.52039e-05
0.00408223
6.31777e-06
0.00133381
7.63803e-05
7.63532e-05
0.000258794
-6.06122e-07
0.000250024
-1.73382e-06
0.000874167
-5.95581e-05
-6.36113e-05
0.00156082
-5.48733e-05
-3.17579e-05
0.00539887
-5.3044e-06
0.00153818
-2.01068e-05
0.000810469
-1.86615e-05
-4.496e-05
-0.000239531
0.000212414
-9.97192e-06
-3.82053e-06
-7.62836e-05
7.57614e-05
-5.67045e-05
0.00831737
-5.9121e-05
0.0109779
-5.32503e-05
0.0132167
-4.11767e-05
0.014867
-2.33278e-05
0.0157945
-7.15401e-06
0.0159243
6.75402e-06
0.0152547
2.06653e-05
0.0138648
2.58156e-05
0.0118845
2.83129e-05
0.00948393
2.5586e-05
0.00683082
1.5358e-05
0.00407319
5.77567e-06
0.00132803
7.51553e-05
7.34215e-05
0.000174941
-2.20841e-05
0.000148874
-3.75449e-05
0.000763203
-6.36336e-06
-1.24391e-06
0.00151491
-8.48346e-06
-1.10453e-05
0.00535144
1.77241e-06
0.0015122
-2.59867e-06
0.000743877
9.83429e-08
-8.78905e-07
-0.000103914
8.52526e-05
-6.96009e-05
5.9629e-05
-2.73454e-05
0.0082856
-3.29385e-05
0.0109575
-2.84703e-05
0.013204
-1.94099e-05
0.0148631
-8.99074e-06
0.0157963
4.37889e-06
0.0159267
1.70632e-05
0.0152583
2.7411e-05
0.0138632
3.16028e-05
0.0118812
3.28271e-05
0.00947669
2.79973e-05
0.00681819
1.9129e-05
0.00405983
6.59566e-06
0.00132144
3.75449e-05
7.88893e-05
7.76454e-05
0.000735443
-1.94874e-07
1.45448e-07
0.00150252
-1.36392e-06
-5.00786e-06
0.00532595
3.14875e-06
0.00150419
1.04212e-07
0.000732782
1.46022e-07
-8.41901e-08
-7.67664e-05
7.68648e-05
-1.13356e-05
0.008264
-1.38918e-05
0.010943
-1.22285e-05
0.0131968
-4.07431e-06
0.0148582
6.72117e-06
0.015794
1.83239e-05
0.0159255
2.92921e-05
0.0152564
3.54409e-05
0.0138594
3.98427e-05
0.0118741
4.12629e-05
0.00946342
3.18591e-05
0.00680545
2.15209e-05
0.00404491
8.51507e-06
0.00131292
7.66699e-05
7.68154e-05
0.000731311
-1.84524e-08
1.25642e-07
0.00149931
-1.32007e-07
-2.81245e-06
0.00531453
2.89775e-06
0.00150203
4.27478e-07
0.00073135
9.56613e-08
-3.03503e-08
-7.67312e-05
7.68772e-05
-3.37435e-06
0.00825348
-3.25737e-06
0.010934
9.97906e-07
0.0131917
8.67922e-06
0.0148562
1.92397e-05
0.0157931
2.84732e-05
0.0159263
3.85397e-05
0.0152533
4.41048e-05
0.0138551
4.85267e-05
0.0118669
4.35893e-05
0.00945169
3.72814e-05
0.00678969
2.1587e-05
0.00403184
8.06985e-06
0.00130485
7.68588e-05
7.69844e-05
0.000731158
-3.04747e-08
9.02532e-08
0.00149911
1.12012e-07
-1.19566e-06
0.00530963
2.72482e-06
0.00150148
5.26032e-07
0.000731542
6.37853e-08
-1.96894e-08
-7.69541e-05
7.70497e-05
1.85142e-06
0.00824837
3.8142e-06
0.0109312
9.45095e-06
0.013191
1.67986e-05
0.0148587
2.68085e-05
0.0157947
3.8478e-05
0.0159263
4.56941e-05
0.0152517
5.40726e-05
0.0138496
5.55959e-05
0.0118549
4.96793e-05
0.00943929
4.08194e-05
0.00677046
2.43848e-05
0.00401552
8.97189e-06
0.00129588
7.70193e-05
7.71095e-05
0.000731575
-4.28887e-09
8.26745e-08
0.00149996
3.28349e-07
-2.65284e-07
0.00530868
3.06978e-06
0.0015021
5.845e-07
0.000732076
5.27833e-08
-2.77755e-08
-7.70898e-05
7.71536e-05
4.29863e-06
0.00824788
9.09133e-06
0.0109315
1.69232e-05
0.0131908
2.62834e-05
0.0148592
3.62038e-05
0.015797
4.69863e-05
0.015925
5.63073e-05
0.0152495
6.08642e-05
0.0138443
5.76973e-05
0.0118469
5.50939e-05
0.00942502
4.25106e-05
0.00675234
2.99065e-05
0.00399459
9.37723e-06
0.00128651
7.71493e-05
7.7232e-05
0.000732327
2.82798e-08
4.94954e-08
0.00150141
4.25157e-07
-1.03197e-07
0.00531012
2.9623e-06
0.00150388
5.97897e-07
0.000732801
3.31099e-08
7.76273e-08
-7.72042e-05
7.7257e-05
7.50138e-06
0.00824947
1.43847e-05
0.0109341
2.25375e-05
0.0131946
3.38972e-05
0.0148615
4.61271e-05
0.0157979
5.55429e-05
0.0159258
6.36591e-05
0.0152467
6.92957e-05
0.0138327
7.20832e-05
0.0118299
6.28271e-05
0.0094047
5.28608e-05
0.00672938
3.05429e-05
0.00397342
9.95531e-06
0.00127655
7.72853e-05
7.73348e-05
0.00073314
3.13058e-08
5.50802e-08
0.00150334
4.37538e-07
8.16746e-07
0.00531429
2.50708e-06
0.00150568
6.24911e-07
0.000733718
2.04542e-08
-9.67637e-10
-7.74124e-05
7.74455e-05
8.99422e-06
0.00825487
1.70683e-05
0.0109396
2.74671e-05
0.013201
4.08579e-05
0.0148668
5.22168e-05
0.0158012
6.49351e-05
0.0159245
7.52942e-05
0.0152407
7.92083e-05
0.0138256
8.15656e-05
0.0118111
7.24363e-05
0.00938513
5.44379e-05
0.00670549
3.43215e-05
0.00394906
1.34342e-05
0.00126312
7.74768e-05
7.75319e-05
0.000734105
7.27933e-09
4.29448e-08
0.00150588
6.15811e-07
1.09654e-06
0.00531961
2.57759e-06
0.00150771
6.7267e-07
0.000734676
2.44273e-08
2.92896e-08
-7.7531e-05
7.75514e-05
1.0425e-05
0.00826151
2.10251e-05
0.010946
3.35291e-05
0.0132083
4.67301e-05
0.0148723
6.09982e-05
0.0158051
7.44867e-05
0.0159253
8.2503e-05
0.0152374
8.75594e-05
0.0138196
8.4717e-05
0.0117989
8.01499e-05
0.00935941
6.13747e-05
0.00667843
3.7759e-05
0.00392473
2.76852e-05
0.00123543
7.75587e-05
7.76016e-05
0.000735201
3.33584e-08
5.77278e-08
0.00150815
6.61599e-07
1.25906e-06
0.00532646
2.32428e-06
0.00150978
9.39648e-07
0.000735841
2.79319e-08
5.08129e-09
-7.76309e-05
7.76553e-05
1.15393e-05
0.00827099
2.49291e-05
0.0109546
4.13444e-05
0.0132137
5.55306e-05
0.0148777
7.18357e-05
0.0158078
8.23885e-05
0.0159255
9.35237e-05
0.0152314
9.78484e-05
0.0138065
9.62419e-05
0.0117828
8.60067e-05
0.00933478
6.80175e-05
0.00664818
5.82592e-05
0.00389416
5.46396e-05
7.76887e-05
7.77464e-05
0.000736409
3.47817e-08
5.90553e-08
0.00151029
7.54597e-07
1.1358e-06
0.00533525
1.61059e-06
0.00151206
5.50152e-07
0.000737236
1.05716e-07
5.96691e-09
-7.77515e-05
7.77794e-05
1.30497e-05
0.00828287
2.79865e-05
0.010968
4.50661e-05
0.0132242
6.33014e-05
0.0148863
7.91681e-05
0.015811
9.3996e-05
0.015925
0.000103031
0.0152263
0.000106581
0.0137961
0.00010396
0.0117648
9.14138e-05
0.00931139
8.77425e-05
0.00661869
9.95843e-05
7.78142e-05
7.78733e-05
0.000737888
7.186e-08
3.15401e-08
0.0015129
3.0126e-07
7.60933e-07
0.0053464
1.13899e-06
0.00151471
-2.05295e-07
0.00073838
3.10674e-08
2.66039e-08
-7.78792e-05
7.79849e-05
1.71724e-05
0.00829369
3.38646e-05
0.0109792
5.12035e-05
0.0132363
6.95395e-05
0.0148959
8.69036e-05
0.0158181
0.000102873
0.0159251
0.000112504
0.0152203
0.0001198
0.0137803
0.000116802
0.0117394
0.000114048
0.00928508
0.000129559
7.80568e-05
7.80883e-05
0.000738617
1.58207e-08
4.90457e-08
0.00151682
-1.34199e-06
1.47603e-06
0.00535697
5.12733e-06
0.00151989
-1.93822e-06
0.000738462
-9.86796e-10
-5.00721e-08
-7.81149e-05
7.8146e-05
2.08e-05
0.00830675
3.69596e-05
0.0109934
5.79798e-05
0.0132478
7.85187e-05
0.0149043
9.82682e-05
0.0158227
0.000110965
0.0159267
0.000123059
0.0152171
0.000128336
0.0137688
0.000133898
0.0117196
0.000151141
7.81618e-05
7.82109e-05
0.000737075
2.31031e-08
2.21359e-08
0.0015179
5.20723e-06
-1.73602e-06
5.31659e-06
0.00536723
5.21893e-06
0.0015222
-4.05369e-07
1.22904e-06
0.000435984
-2.20836e-07
0.000299378
-4.61021e-09
-7.81608e-05
7.81598e-05
2.23551e-05
0.00832136
4.2357e-05
0.011009
6.31657e-05
0.0132632
8.67962e-05
0.0149158
0.00010463
0.015829
0.000121415
0.0159283
0.000130289
0.0152151
0.000143151
0.0137595
0.000159814
7.81829e-05
7.8205e-05
0.000456922
-1.57307e-05
0.000462001
-6.81453e-06
0.00152446
1.23859e-06
1.82037e-06
4.60655e-06
0.0053805
4.47875e-06
0.00152694
1.23807e-06
1.5055e-06
0.000464666
-3.07028e-06
0.000466821
-9.25961e-07
-7.82004e-05
7.79796e-05
0.000280806
2.84176e-06
2.42477e-05
0.00833947
4.6651e-05
0.0110255
7.13553e-05
0.0132786
9.45878e-05
0.0149258
0.00011368
0.0158368
0.000130039
0.0159286
0.000146223
0.015212
0.000164541
0.00027488
-8.88674e-07
0.000467756
3.03017e-07
0.000469051
5.25285e-07
0.00152924
1.0183e-06
1.28373e-06
4.83706e-06
0.00539539
4.52719e-06
0.00153188
7.65721e-07
1.07569e-06
0.000469647
6.42175e-07
0.00047034
8.12885e-07
0.000272857
-1.04742e-06
0.000272447
-5.15559e-07
8.08214e-05
2.76565e-05
0.00835846
5.14005e-05
0.0110455
7.85847e-05
0.0132946
0.00010082
0.0149387
0.000120576
0.0158462
0.000138827
0.015936
0.000157948
7.99327e-05
0.00027275
-5.27837e-10
0.000273171
1.04695e-07
0.000470762
5.96295e-07
0.000471627
4.18668e-07
0.00153494
7.78101e-07
9.99851e-07
5.20075e-06
0.00541288
4.95711e-06
0.00153759
1.05575e-06
8.19928e-07
0.000471981
4.11789e-07
0.00047249
5.66773e-07
0.000273652
1.61008e-07
0.000274318
1.46223e-07
7.88853e-05
7.83697e-05
3.04847e-05
0.00837938
5.79088e-05
0.0110662
8.48598e-05
0.0133106
0.000106073
0.0149532
0.000127194
0.0158579
0.000141222
7.83692e-05
7.84739e-05
0.00027473
1.84791e-07
0.000275014
1.3431e-07
0.000472852
4.15861e-07
0.00047339
4.61748e-07
0.00154094
1.04308e-06
8.04249e-07
5.89063e-06
0.00543211
5.37018e-06
0.00154399
1.11891e-06
7.92717e-07
0.00047407
3.75959e-07
0.000474518
3.71601e-07
0.000275328
9.77065e-08
0.000275796
9.90215e-08
7.86349e-05
7.87811e-05
3.50133e-05
0.00840227
6.45975e-05
0.0110864
9.01525e-05
0.0133265
0.000110757
0.0149696
0.0001175
7.89659e-05
7.91002e-05
0.000276118
9.38494e-08
0.000276453
1.26646e-07
0.000474981
5.79805e-07
0.000475404
3.81901e-07
0.00154775
1.23033e-06
8.98402e-07
6.63416e-06
0.00545429
6.19423e-06
0.00155102
1.21778e-06
8.83285e-07
0.00047619
3.32934e-07
0.00047658
4.02257e-07
0.000276773
5.63144e-08
0.000277052
9.21743e-08
7.91979e-05
7.9297e-05
4.05651e-05
0.00842631
7.14195e-05
0.0111052
9.09979e-05
0.0133463
9.14147e-05
7.93908e-05
7.95175e-05
0.000277507
1.24855e-07
0.000277796
9.27403e-08
0.000477189
6.21356e-07
0.000477673
4.14324e-07
0.001555
1.36433e-06
1.2844e-06
8.03115e-06
0.00547973
7.09647e-06
0.00155879
1.12636e-06
1.28602e-06
0.00047852
3.70908e-07
0.00047879
6.13148e-07
0.000278033
9.66221e-08
0.000278334
1.00609e-07
7.95738e-05
7.96659e-05
4.9282e-05
0.00844844
7.25041e-05
0.0111237
6.47605e-05
7.97908e-05
7.98835e-05
0.00027886
9.56546e-08
0.000279067
2.07317e-07
0.000479639
5.15451e-07
0.000480449
4.74113e-07
0.00156404
1.30692e-06
1.4685e-06
1.04807e-05
0.0055083
1.023e-05
0.00156822
1.42135e-06
1.4921e-06
0.000481087
4.88883e-07
0.000481691
6.81491e-07
0.000279356
8.22035e-08
0.000279858
1.11492e-07
7.99802e-05
8.00808e-05
5.398e-05
0.00846697
4.2092e-05
8.01764e-05
8.03837e-05
0.000280229
1.43702e-07
0.000280587
1.16174e-07
0.000482413
5.85393e-07
0.000483321
5.60627e-07
0.00157502
1.72984e-06
1.95692e-06
1.45583e-05
0.00553193
1.57907e-05
0.00158072
2.16577e-06
2.36413e-06
0.000484226
5.161e-07
0.000484878
8.40444e-07
0.000280959
1.1739e-07
0.000281561
7.86893e-08
8.04659e-05
8.05774e-05
2.80468e-05
8.07211e-05
8.08373e-05
0.000281994
1.52421e-07
0.00028242
1.34586e-07
0.000485888
7.1999e-07
0.000487101
7.43928e-07
0.00158914
2.77052e-06
3.36823e-06
3.11147e-05
1.23172e-05
0.00159614
3.82016e-06
4.96808e-06
0.00048831
9.56519e-07
0.000489356
1.31758e-06
0.000282799
1.37972e-07
0.000283496
1.43366e-07
8.09547e-05
8.10334e-05
8.11858e-05
8.13204e-05
0.000284029
1.86452e-07
0.000284598
1.75274e-07
0.000490719
1.40776e-06
0.000492484
1.6038e-06
0.00160841
8.05674e-06
1.07847e-05
1.61075e-05
7.83332e-06
0.000494497
1.80643e-06
0.000496639
2.82643e-06
0.000285337
2.17233e-07
0.000286363
2.91362e-07
8.14584e-05
8.16017e-05
8.17882e-05
8.19634e-05
0.00028742
3.50894e-07
0.00028864
3.84447e-07
0.000499773
4.92211e-06
0.00050306
7.49775e-06
0.000507453
1.17154e-05
1.12562e-05
0.000289963
4.83152e-07
0.00029206
7.29124e-07
8.21807e-05
8.2472e-05
8.28229e-05
8.32073e-05
0.000295503
1.47887e-06
0.000299616
3.38472e-06
0.000303878
7.4534e-06
1.53214e-05
8.36905e-05
8.44196e-05
8.58985e-05
8.92832e-05
9.67366e-05
-6.89176e-06
6.89178e-06
4.14872e-06
-1.10406e-05
-3.07248e-05
1.04666e-05
2.71501e-05
9.89254e-06
-3.64684e-05
1.94885e-06
-1.29895e-05
2.61869e-05
0.000137906
-0.000143734
7.93758e-06
1.92123e-05
6.38113e-06
-4.09008e-05
8.53131e-07
-1.38426e-05
-1.86261e-05
0.00047392
4.75855e-05
-0.000476695
-3.44998e-06
2.07941e-05
0.0001285
-2.75904e-06
-0.000153219
1.57624e-05
-4.28066e-05
3.87639e-07
-1.42301e-05
-9.23343e-06
0.000460463
4.34872e-05
0.000345882
5.60139e-05
-0.000354295
-1.20581e-05
4.03956e-05
-0.000499106
-5.92241e-06
-1.30149e-06
0.000120948
-3.80349e-07
-2.0804e-06
-0.000162376
-8.21181e-07
1.44608e-05
-4.44994e-05
1.85184e-07
-1.44155e-05
-5.4211e-06
0.000434251
3.43094e-05
-2.68271e-06
0.000333489
5.58744e-05
-0.000181352
7.27042e-05
0.000164657
5.70668e-05
-0.00037097
3.33831e-05
-0.000523584
-3.43952e-06
-5.46864e-06
-0.000166928
-4.48155e-07
-9.23001e-07
0.000115923
-2.68979e-07
-1.27599e-07
1.40804e-05
-4.51355e-05
2.04072e-07
-1.46197e-05
0.000406964
3.20309e-05
-2.81692e-06
-1.92496e-06
0.000311632
5.6175e-05
0.000113444