/*--------------------------------*- C++ -*----------------------------------*\
| =========                 |                                                 |
| \\      /  F ield         | OpenFOAM: The Open Source CFD Toolbox           |
|  \\    /   O peration     | Version:  v1912                                 |
|   \\  /    A nd           | Website:  www.openfoam.com                      |
|    \\/     M anipulation  |                                                 |
\*---------------------------------------------------------------------------*/
FoamFile
{
    version     2.0;
    format      ascii;
    class       volVectorField;
    location    "410";
    object      U;
}
// * * * * * * * * * * * * * * * * * * * * * * * * * * * * * * * * * * * * * //

dimensions      [0 1 -1 0 0 0 0];


internalField   nonuniform List<vector> 
3675
(
(0.0775565 -0.0262116 0)
(0.232742 -0.0771397 0)
(0.0770317 -0.026045 6.60895e-22)
(0.231256 -0.076658 7.91548e-22)
(0.0765164 -0.0258729 0)
(0.383113 -0.124548 -6.4776e-22)
(0.229804 -0.076183 6.93741e-25)
(0.076027 -0.025708 0)
(0.527564 -0.16828 0)
(0.380812 -0.123808 0)
(0.228384 -0.0757144 0)
(0.0755395 -0.0255466 0)
(0.657919 -0.206009 0)
(0.524545 -0.167319 0)
(0.378543 -0.123077 0)
(0.22698 -0.0752564 0)
(0.0750645 -0.0253879 -4.85579e-22)
(0.766526 -0.235667 0)
(0.654242 -0.204844 -5.41213e-25)
(0.521533 -0.166365 0)
(0.376316 -0.122365 0)
(0.225614 -0.0748066 4.68589e-22)
(0.0745919 -0.0252296 0)
(0.845927 -0.255373 0)
(0.762275 -0.234316 -2.85037e-22)
(0.650611 -0.2037 5.40708e-25)
(0.518569 -0.165426 0)
(0.374099 -0.121648 0)
(0.22424 -0.0743507 0)
(0.0741172 -0.0250725 0)
(0.88985 -0.263711 -2.8504e-22)
(0.841116 -0.253836 2.67254e-22)
(0.758067 -0.232991 0)
(0.646986 -0.202561 0)
(0.515614 -0.164487 0)
(0.371896 -0.120936 4.2214e-25)
(0.222867 -0.073899 0)
(0.0736498 -0.0249173 6.6652e-22)
(0.894056 -0.259953 5.62209e-22)
(0.884423 -0.26197 0)
(0.836336 -0.252328 0)
(0.753877 -0.231681 -2.50165e-22)
(0.643388 -0.201433 0)
(0.51265 -0.163548 0)
(0.369689 -0.120224 -4.22092e-25)
(0.221507 -0.0734498 -3.40686e-22)
(0.0731786 -0.0247601 0)
(0.857021 -0.244255 -2.86127e-22)
(0.887924 -0.257987 -2.63097e-22)
(0.879024 -0.260265 2.54918e-22)
(0.831583 -0.250845 2.34481e-22)
(0.749675 -0.230372 4.28967e-25)
(0.639764 -0.200298 0)
(0.509682 -0.162606 0)
(0.367484 -0.119509 3.55224e-25)
(0.220126 -0.0729941 0)
(0.0727119 -0.0246038 0)
(0.780475 -0.217781 -5.777e-25)
(0.850109 -0.242052 2.70544e-22)
(0.881809 -0.256065 -2.5498e-22)
(0.873659 -0.258597 -2.41031e-22)
(0.826823 -0.249369 0)
(0.745473 -0.229064 -4.28697e-25)
(0.636123 -0.199155 0)
(0.506708 -0.161659 0)
(0.365279 -0.118795 -1.00605e-24)
(0.218768 -0.0725443 0)
(0.0722491 -0.0244468 0)
(0.669424 -0.182647 -2.75731e-22)
(0.772756 -0.215346 0)
(0.843188 -0.239904 0)
(0.87576 -0.254207 2.15878e-24)
(0.868327 -0.256955 -2.61702e-24)
(0.822065 -0.247895 2.14497e-22)
(0.741239 -0.227745 -2.03742e-22)
(0.632471 -0.198006 0)
(0.503734 -0.160709 0)
(0.363051 -0.118069 9.49129e-25)
(0.217417 -0.0720958 0)
(0.0717881 -0.0242892 0)
(0.531605 -0.141651 3.14784e-22)
(0.660918 -0.180004 -1.0829e-24)
(0.76493 -0.212967 -2.03046e-24)
(0.836403 -0.237869 2.47098e-22)
(0.869827 -0.252403 -1.84042e-24)
(0.863028 -0.255322 -2.05723e-22)
(0.817292 -0.246416 1.91067e-22)
(0.736977 -0.226415 0)
(0.628794 -0.196847 3.61515e-22)
(0.500739 -0.159752 0)
(0.360858 -0.117357 -3.21205e-22)
(0.216076 -0.0716468 -2.89677e-22)
(0.0713371 -0.0241405 0)
(0.376476 -0.0977892 1.63513e-22)
(0.522283 -0.138863 2.22383e-24)
(0.652055 -0.177374 2.1289e-24)
(0.757391 -0.210788 2.03353e-24)
(0.829879 -0.235924 2.33319e-22)
(0.864009 -0.250628 1.60443e-24)
(0.85775 -0.253698 0)
(0.812498 -0.244932 6.94948e-25)
(0.732709 -0.225086 -3.29295e-22)
(0.625125 -0.195692 0)
(0.497766 -0.1588 2.7253e-22)
(0.358683 -0.116643 2.35835e-22)
(0.214746 -0.0712032 0)
(0.0708799 -0.0239897 1.33771e-22)
(0.254121 -0.0649407 -1.42635e-22)
(0.366198 -0.0950003 5.53883e-23)
(0.250871 -0.0640459 -1.2921e-22)
(0.511948 -0.135905 0)
(0.643753 -0.175087 2.69736e-22)
(0.750408 -0.208766 -2.46848e-22)
(0.823646 -0.234052 1.62942e-24)
(0.858298 -0.248886 -1.6063e-24)
(0.852493 -0.252082 -1.38998e-24)
(0.807707 -0.24345 -1.34438e-24)
(0.728426 -0.22375 9.53025e-25)
(0.621447 -0.194527 0)
(0.494799 -0.157844 0)
(0.35651 -0.11593 -2.70942e-22)
(0.21343 -0.0707643 0)
(0.0704322 -0.0238389 0)
(0.256483 -0.0654205 1.49488e-22)
(0.169594 -0.0427081 2.88535e-23)
(0.245889 -0.0629131 0)
(0.352522 -0.0913754 -6.85228e-23)
(0.23849 -0.060754 -9.1828e-23)
(0.167353 -0.0422128 -2.01756e-24)
(0.502859 -0.133479 -3.12956e-22)
(0.636549 -0.173065 2.49095e-22)
(0.743959 -0.206861 -2.18081e-22)
(0.817638 -0.232244 -3.14373e-24)
(0.852675 -0.247175 -1.81146e-22)
(0.847266 -0.250478 1.39043e-24)
(0.802913 -0.241967 9.53162e-25)
(0.724153 -0.222413 -3.03264e-25)
(0.617788 -0.193368 -2.92361e-22)
(0.491873 -0.156901 2.30261e-22)
(0.354376 -0.115229 2.49692e-22)
(0.212115 -0.0703257 2.15143e-22)
(0.0699948 -0.0236922 0)
(0.171016 -0.0430366 0)
(0.105463 -0.0263142 -3.11721e-25)
(0.105064 -0.0262058 -3.88027e-23)
(0.163599 -0.0413144 -2.23594e-23)
(0.228448 -0.0579411 -7.21288e-23)
(0.342411 -0.0885894 7.5789e-23)
(0.220199 -0.0562644 2.3228e-22)
(0.155608 -0.0392321 0)
(0.103678 -0.0259335 3.64351e-23)
(0.104499 -0.0261159 -7.54913e-23)
(0.495875 -0.131523 -1.54293e-23)
(0.630282 -0.171246 2.43842e-22)
(0.737941 -0.205082 -1.96487e-22)
(0.811835 -0.230505 1.9015e-22)
(0.847141 -0.245496 1.68183e-22)
(0.84207 -0.248886 0)
(0.798138 -0.24049 -3.03359e-25)
(0.719894 -0.22108 2.66062e-22)
(0.614154 -0.192214 -2.73501e-22)
(0.488955 -0.155958 -2.12216e-22)
(0.352272 -0.114537 -1.74832e-22)
(0.210843 -0.0698992 1.96105e-22)
(0.0695657 -0.0235482 1.96777e-22)
(0.105831 -0.0263918 3.11796e-25)
(0.106127 -0.0264704 4.15065e-23)
(0.0616863 -0.0152754 -3.43523e-23)
(0.061461 -0.015225 0)
(0.102487 -0.0257443 -1.10984e-24)
(0.100489 -0.0252218 1.30529e-24)
(0.14137 -0.035273 6.6751e-23)
(0.215038 -0.0547023 -1.26315e-22)
(0.336563 -0.0867785 -3.14601e-22)
(0.212217 -0.0538146 -1.76471e-24)
(0.131226 -0.0331379 -1.12948e-22)
(0.0910678 -0.0224918 -2.18293e-24)
(0.097065 -0.0245186 1.78252e-24)
(0.0607346 -0.0150837 -5.07448e-25)
(0.0611938 -0.015169 3.45914e-23)
(0.49034 -0.129937 2.3123e-22)
(0.62465 -0.169615 2.18446e-22)
(0.732249 -0.203412 0)
(0.806201 -0.228822 -3.46234e-22)
(0.841691 -0.243846 6.51283e-25)
(0.836913 -0.247306 0)
(0.793389 -0.239019 -2.6537e-25)
(0.715665 -0.219754 2.48465e-22)
(0.610572 -0.191072 0)
(0.486108 -0.155033 -2.36928e-22)
(0.350183 -0.113844 -1.59706e-22)
(0.209595 -0.0694794 6.90548e-23)
(0.0691407 -0.0234059 -6.75668e-23)
(0.0618749 -0.0153263 3.50464e-23)
(0.0620404 -0.0153608 -3.79987e-23)
(0.0198686 -0.00488197 4.49491e-25)
(0.0198198 -0.00487452 2.57331e-23)
(0.0600384 -0.0149575 0)
(0.0587826 -0.0147145 3.16544e-23)
(0.0799981 -0.0188371 5.2807e-24)
(0.070292 -0.0179419 -5.12916e-25)
(0.127237 -0.0318854 2.58078e-23)
(0.21022 -0.0531723 1.76704e-24)
(0.332641 -0.0856951 -2.73693e-22)
(0.208931 -0.0528098 1.5886e-24)
(0.125573 -0.03134 -1.50729e-24)
(0.0622254 -0.0157002 -3.39964e-23)
(0.0648672 -0.0164075 3.73884e-23)
(0.0517458 -0.012127 -1.96199e-24)
(0.0563362 -0.0140969 0)
(0.0196077 -0.00482468 1.90336e-25)
(0.0197273 -0.00484836 -1.90433e-25)
(0.485623 -0.128618 2.10958e-22)
(0.619479 -0.168135 -1.85996e-22)
(0.726828 -0.201827 1.80884e-22)
(0.800724 -0.22719 1.30917e-24)
(0.836316 -0.24222 1.4721e-22)
(0.831798 -0.24574 1.40057e-22)
(0.788671 -0.237556 2.65377e-25)
(0.71148 -0.218437 0)
(0.607032 -0.189937 2.08434e-22)
(0.48329 -0.154111 0)
(0.348158 -0.113172 -1.45738e-22)
(0.208368 -0.0690662 0)
(0.0687261 -0.0232668 0)
(0.0199183 -0.00489774 -2.11699e-25)
(0.019965 -0.00490598 -2.82914e-23)
(0.0194191 -0.00479075 2.2881e-23)
(0.019044 -0.00473271 2.45825e-23)
(0.0347187 -0.00599002 1.65908e-24)
(0.0238282 -0.00627905 -9.88607e-24)
(0.0611118 -0.0152071 -3.43266e-23)
(0.0605403 -0.0150231 3.19724e-23)
(0.12454 -0.03106 -2.0933e-23)
(0.207747 -0.0525465 -9.68386e-23)
(0.329476 -0.0849119 -2.94016e-22)
(0.206902 -0.0523529 1.49642e-24)
(0.123863 -0.0308749 -2.17638e-23)
(0.0600705 -0.0148637 2.9557e-23)
(0.0602663 -0.0149277 -4.87714e-25)
(0.0201255 -0.00507709 2.73853e-23)
(0.02153 -0.00562561 -2.11028e-23)
(0.0169277 -0.00434202 3.56428e-23)
(0.0181367 -0.00464251 2.17927e-23)
(0.481425 -0.127467 2.13939e-22)
(0.614644 -0.166761 1.46877e-24)
(0.721613 -0.200305 -1.55119e-22)
(0.795353 -0.225593 -7.57101e-24)
(0.831006 -0.240616 -1.40214e-22)
(0.826731 -0.244188 0)
(0.784006 -0.236106 0)
(0.707356 -0.217132 0)
(0.603547 -0.188816 -2.21815e-22)
(0.480537 -0.15321 -2.06794e-22)
(0.346177 -0.112511 0)
(0.207171 -0.0686606 0)
(0.0683182 -0.0231305 -5.05108e-23)
(0.00963084 -0.00153423 -2.93695e-24)
(0.019627 -0.00485949 0)
(0.0194203 -0.00478455 -4.4152e-23)
(0.0598819 -0.0148152 -2.8256e-23)
(0.0597643 -0.0147909 2.92468e-23)
(0.12329 -0.0307573 8.71082e-23)
(0.205932 -0.0521465 5.39785e-24)
(0.326696 -0.0842246 -5.08367e-23)
(0.205195 -0.0519677 8.06529e-23)
(0.122804 -0.0306438 0)
(0.0595851 -0.0147321 -2.70837e-23)
(0.0596539 -0.0147615 2.83352e-23)
(0.0192754 -0.00473834 -4.17012e-23)
(0.0193352 -0.00476017 2.09888e-23)
(0.477569 -0.126417 -1.7224e-22)
(0.610042 -0.165458 3.26128e-22)
(0.716553 -0.198836 -1.55111e-22)
(0.790085 -0.224032 0)
(0.825761 -0.239034 -1.2774e-22)
(0.821715 -0.242651 0)
(0.779396 -0.234668 -1.16254e-22)
(0.703288 -0.215842 9.1333e-23)
(0.600139 -0.187712 1.81867e-22)
(0.477849 -0.152323 0)
(0.344238 -0.111862 0)
(0.205995 -0.0682647 0)
(0.0679227 -0.0229997 0)
(0.0192289 -0.00472441 2.65298e-25)
(0.0191789 -0.00471671 -1.98065e-23)
(0.0594531 -0.0147098 -2.58622e-23)
(0.0593672 -0.0146934 -2.5471e-23)
(0.12233 -0.0305468 7.82067e-23)
(0.204299 -0.0517633 7.39245e-23)
(0.32413 -0.0835732 2.45493e-22)
(0.203622 -0.0515861 7.91301e-23)
(0.121873 -0.0304374 -9.19994e-23)
(0.0591951 -0.0146448 0)
(0.0592633 -0.0146742 2.47325e-23)
(0.0191404 -0.00470152 2.41165e-25)
(0.0191561 -0.00471262 1.95058e-23)
(0.473916 -0.125427 -1.79664e-22)
(0.60562 -0.164215 1.43073e-22)
(0.711608 -0.197403 1.31953e-22)
(0.784898 -0.222495 7.7917e-24)
(0.820578 -0.23747 0)
(0.816756 -0.241126 -8.14533e-25)
(0.774849 -0.233245 1.03612e-22)
(0.699302 -0.214567 0)
(0.596809 -0.186627 0)
(0.475241 -0.151458 1.59738e-25)
(0.342361 -0.111231 0)
(0.204863 -0.067881 -1.02547e-25)
(0.0675314 -0.0228726 -4.35549e-23)
(0.0191075 -0.00469365 1.86804e-23)
(0.0190648 -0.00468771 2.88357e-25)
(0.0590566 -0.0146214 -8.25389e-25)
(0.0589691 -0.0146031 1.00635e-24)
(0.121405 -0.0303304 -8.50466e-23)
(0.202775 -0.0513872 -6.58026e-23)
(0.321692 -0.0829484 -7.62645e-25)
(0.20212 -0.0512128 -6.85902e-24)
(0.120963 -0.0302173 -1.51283e-23)
(0.0587866 -0.0145516 2.20843e-23)
(0.05886 -0.0145825 2.17002e-23)
(0.0190255 -0.00467383 -1.68596e-23)
(0.0190449 -0.0046856 -1.97253e-25)
(0.470416 -0.12448 -1.63819e-22)
(0.601322 -0.163005 -1.46388e-22)
(0.706761 -0.196 1.33152e-22)
(0.779779 -0.22098 0)
(0.815448 -0.235919 1.13956e-22)
(0.811854 -0.239614 0)
(0.770377 -0.231834 0)
(0.695405 -0.213311 0)
(0.593576 -0.185563 0)
(0.472683 -0.150602 -1.74688e-22)
(0.340512 -0.110605 1.59474e-22)
(0.203738 -0.0675004 1.02525e-25)
(0.0671319 -0.0227371 4.36751e-26)
(0.0189897 -0.00466578 -3.26106e-23)
(0.018945 -0.00465892 2.8591e-25)
(0.0586419 -0.0145235 0)
(0.0585502 -0.014503 1.01891e-24)
(0.120519 -0.030113 4.7342e-23)
(0.201291 -0.0510142 -5.74564e-23)
(0.319339 -0.082336 -3.43553e-23)
(0.200658 -0.0508444 5.43292e-23)
(0.12008 -0.0300011 -5.8199e-23)
(0.0583672 -0.0144488 0)
(0.0584404 -0.0144789 3.84279e-23)
(0.0188963 -0.00464317 -1.12232e-25)
(0.0189203 -0.00465561 -1.56175e-23)
(0.467027 -0.123558 -2.56841e-25)
(0.597115 -0.161822 1.17355e-22)
(0.701997 -0.194622 -1.11239e-22)
(0.774708 -0.219476 0)
(0.81036 -0.234377 -2.12634e-25)
(0.807018 -0.238112 9.77518e-23)
(0.765991 -0.230438 -1.77196e-25)
(0.691597 -0.21207 -9.11399e-23)
(0.590414 -0.184514 6.54049e-23)
(0.470204 -0.14977 -1.35133e-22)
(0.338721 -0.109999 0)
(0.202617 -0.0671191 0)
(0.0667443 -0.0226062 4.92224e-23)
(0.0188568 -0.0046341 -1.39393e-23)
(0.0188115 -0.0046271 2.77305e-23)
(0.058225 -0.0144212 1.71878e-23)
(0.0581348 -0.0144012 1.77268e-23)
(0.119646 -0.0298964 7.73384e-23)
(0.199853 -0.0506473 5.56494e-23)
(0.317049 -0.081737 2.839e-23)
(0.199229 -0.0504769 4.70975e-23)
(0.119215 -0.0297876 -3.9385e-23)
(0.0579468 -0.0143467 0)
(0.0580244 -0.014377 1.61537e-23)
(0.0187606 -0.00460951 -1.26835e-23)
(0.0187871 -0.00462191 -2.61147e-25)
(0.463731 -0.122662 -2.25427e-23)
(0.59298 -0.160658 1.23686e-22)
(0.697266 -0.193255 0)
(0.769679 -0.217987 -9.78931e-23)
(0.805324 -0.232843 -9.76172e-23)
(0.802246 -0.236618 0)
(0.761696 -0.229057 -1.95359e-24)
(0.687891 -0.210854 7.99674e-23)
(0.587335 -0.183488 0)
(0.467768 -0.148949 0)
(0.336929 -0.109394 0)
(0.201517 -0.066745 1.35004e-22)
(0.0663819 -0.0224801 -5.68668e-23)
(0.0187217 -0.00460103 -2.45202e-23)
(0.0186764 -0.0045941 0)
(0.0578068 -0.0143182 -1.03183e-24)
(0.0577159 -0.0142984 -2.93587e-23)
(0.118792 -0.029682 1.02797e-23)
(0.198451 -0.0502876 0)
(0.314815 -0.0811488 -1.05426e-22)
(0.197833 -0.0501211 -4.68708e-23)
(0.118371 -0.0295737 -3.4396e-23)
(0.0575382 -0.0142456 0)
(0.0576093 -0.0142759 -1.4628e-23)
(0.0186244 -0.00457646 -1.08298e-23)
(0.0186519 -0.00458877 -2.65776e-25)
(0.460477 -0.121773 -1.00007e-22)
(0.588895 -0.15951 0)
(0.692567 -0.191895 1.05014e-22)
(0.764654 -0.216489 -1.7496e-25)
(0.800315 -0.231306 -3.62479e-25)
(0.797544 -0.23513 8.50766e-23)
(0.757489 -0.227691 0)
(0.684268 -0.209654 0)
(0.584325 -0.182478 -8.20322e-23)
(0.465381 -0.148143 0)
(0.335164 -0.108792 -1.09482e-22)
(0.200422 -0.0663627 -1.09408e-25)
(0.0659863 -0.022345 1.55121e-22)
(0.0185859 -0.00456779 -2.09587e-23)
(0.0185391 -0.0045611 2.03595e-23)
(0.0573986 -0.0142171 -1.3308e-23)
(0.0573103 -0.0141965 -1.1943e-23)
(0.117957 -0.0294725 1.69722e-23)
(0.197077 -0.0499347 0)
(0.312629 -0.080572 1.15351e-22)
(0.196475 -0.0497709 -6.59333e-24)
(0.117542 -0.0293662 8.13139e-24)
(0.057131 -0.0141443 0)
(0.0572031 -0.0141733 -8.17438e-25)
(0.0184945 -0.00454431 0)
(0.018519 -0.00455722 0)
(0.457278 -0.1209 8.82193e-23)
(0.584815 -0.15836 0)
(0.687853 -0.190528 0)
(0.759631 -0.214987 1.74891e-25)
(0.795338 -0.229762 0)
(0.792909 -0.233643 1.4934e-25)
(0.753371 -0.226337 0)
(0.680733 -0.208475 7.45039e-23)
(0.581381 -0.181487 0)
(0.462995 -0.147333 0)
(0.333415 -0.108188 0)
(0.199312 -0.0659777 -8.59277e-23)
(0.0655719 -0.0222088 1.03907e-22)
(0.0184549 -0.00453597 0)
(0.0184111 -0.00452875 2.79296e-25)
(0.0569924 -0.0141164 -8.90893e-25)
(0.0569208 -0.0141004 -9.7965e-25)
(0.11714 -0.0292657 6.99339e-24)
(0.195735 -0.0495889 1.26636e-25)
(0.310458 -0.0799971 -1.19755e-22)
(0.195136 -0.0494279 -2.82255e-23)
(0.116734 -0.029162 -2.52575e-23)
(0.0567299 -0.0140466 0)
(0.0568039 -0.0140726 -1.0323e-23)
(0.0183612 -0.00451166 0)
(0.018387 -0.00452401 -2.55236e-25)
(0.454077 -0.120025 5.11515e-25)
(0.580709 -0.157207 0)
(0.683091 -0.189147 0)
(0.75457 -0.213457 7.1168e-23)
(0.790374 -0.2282 -2.75028e-25)
(0.788337 -0.232158 7.01802e-23)
(0.749331 -0.224999 0)
(0.677256 -0.207311 -1.47952e-25)
(0.578453 -0.180499 7.86841e-23)
(0.460636 -0.146527 0)
(0.331624 -0.107573 -1.5641e-22)
(0.198183 -0.0655907 -9.64566e-23)
(0.0651574 -0.0220675 -3.44079e-25)
(0.0183219 -0.00450388 -2.97982e-25)
(0.0182815 -0.00449702 -7.27526e-24)
(0.0565985 -0.0140179 0)
(0.0565309 -0.0140026 -9.74636e-25)
(0.116342 -0.0290637 1.14093e-23)
(0.194413 -0.049249 2.52309e-23)
(0.308323 -0.0794311 1.58686e-23)
(0.193821 -0.0490895 6.26868e-24)
(0.11594 -0.0289627 2.63235e-23)
(0.0563444 -0.0139506 0)
(0.056416 -0.0139755 -8.45628e-24)
(0.0182289 -0.00448064 0)
(0.018268 -0.00449377 6.60134e-24)
(0.450851 -0.119145 -3.26872e-25)
(0.576538 -0.156032 0)
(0.678222 -0.187721 -7.69401e-23)
(0.749446 -0.211886 0)
(0.785411 -0.226613 -7.03757e-23)
(0.783818 -0.230674 -6.6053e-23)
(0.745358 -0.223678 0)
(0.673826 -0.206161 4.05226e-24)
(0.575533 -0.179509 2.94016e-25)
(0.458258 -0.145713 1.32326e-22)
(0.329835 -0.106953 0)
(0.197014 -0.0651813 0)
(0.064738 -0.0219259 1.32119e-22)
(0.0181964 -0.00447268 -5.77794e-24)
(0.0181572 -0.0044659 -1.15484e-23)
(0.0562137 -0.0139213 -9.2082e-25)
(0.0561452 -0.0139064 -9.56435e-25)
(0.115555 -0.0288652 -1.4703e-23)
(0.193106 -0.0489098 -2.56513e-23)
(0.30618 -0.0788603 0)
(0.192518 -0.0487499 1.71676e-23)
(0.115159 -0.0287678 2.51304e-23)
(0.055962 -0.0138562 0)
(0.0560333 -0.0138803 0)
(0.0181067 -0.00445065 -4.90614e-24)
(0.0181442 -0.0044633 4.24924e-26)
(0.44755 -0.118242 0)
(0.572203 -0.15481 0)
(0.673189 -0.186231 5.4217e-23)
(0.744216 -0.210251 -5.15279e-23)
(0.780434 -0.224999 6.63545e-23)
(0.779344 -0.229202 6.39668e-23)
(0.74143 -0.222374 -7.14674e-23)
(0.670398 -0.205011 7.48957e-23)
(0.572605 -0.178514 7.75752e-23)
(0.455855 -0.144881 0)
(0.328 -0.106311 1.67462e-22)
(0.19584 -0.0647691 -1.22329e-22)
(0.0643153 -0.0217803 0)
(0.0180725 -0.00444193 -9.24201e-24)
(0.0180316 -0.00443506 -4.63942e-24)
(0.0558373 -0.0138281 -5.80709e-24)
(0.0557696 -0.0138126 -5.6289e-24)
(0.114787 -0.0286714 6.5101e-24)
(0.191832 -0.0485779 -6.55824e-26)
(0.303984 -0.0782755 0)
(0.19124 -0.0484141 1.2245e-23)
(0.114399 -0.0285736 -1.34434e-23)
(0.055592 -0.0137657 0)
(0.0556587 -0.0137883 -5.14003e-24)
(0.017982 -0.00442024 -3.66583e-24)
(0.01802 -0.00443269 0)
(0.444099 -0.117306 4.58267e-23)
(0.56761 -0.15351 -5.98545e-23)
(0.667903 -0.184631 5.53855e-23)
(0.738836 -0.208538 0)
(0.775453 -0.22338 -1.07963e-23)
(0.774909 -0.227747 -2.58987e-25)
(0.737521 -0.221079 2.17278e-26)
(0.666974 -0.203857 -7.01039e-23)
(0.569652 -0.177499 7.80013e-23)
(0.453409 -0.144028 -1.41642e-22)
(0.326131 -0.105651 1.76498e-22)
(0.19464 -0.0643423 -1.88429e-22)
(0.0638606 -0.0216281 -1.70475e-22)
(0.0179519 -0.00441253 -3.30324e-24)
(0.0179109 -0.004405 -3.15797e-24)
(0.0554652 -0.0137369 -4.27755e-24)
(0.0553999 -0.0137232 -7.96822e-25)
(0.114026 -0.0284762 4.28752e-24)
(0.190557 -0.0482447 0)
(0.301714 -0.077673 -4.56778e-23)
(0.189947 -0.0480771 -7.33594e-24)
(0.113649 -0.0283821 -8.35931e-24)
(0.0552247 -0.0136726 0)
(0.0552949 -0.0136942 -3.5464e-24)
(0.0178653 -0.00439161 -2.55272e-24)
(0.017899 -0.0044035 2.35562e-26)
(0.44034 -0.116289 0)
(0.562572 -0.152054 3.05398e-23)
(0.662241 -0.182874 0)
(0.733332 -0.206773 -9.48763e-23)
(0.770482 -0.221776 1.16589e-25)
(0.770513 -0.226318 -1.29354e-22)
(0.733622 -0.219785 -5.46161e-25)
(0.663519 -0.202685 -1.43208e-22)
(0.566661 -0.176465 0)
(0.45091 -0.14315 -1.48944e-22)
(0.324219 -0.104972 1.52274e-22)
(0.193398 -0.0639034 -4.87581e-23)
(0.0633811 -0.0214668 -2.52998e-23)
(0.0178277 -0.00438368 1.8207e-26)
(0.0177979 -0.00438043 -2.11305e-25)
(0.0551028 -0.0136448 -9.45985e-25)
(0.055041 -0.0136322 -8.32854e-25)
(0.113281 -0.0282856 -9.8408e-25)
(0.189256 -0.0479029 -1.79613e-23)
(0.299221 -0.0770156 -2.24865e-24)
(0.188643 -0.0477324 0)
(0.112909 -0.0281935 6.69422e-24)
(0.0548667 -0.0135845 -1.8848e-24)
(0.0549392 -0.0136055 -2.08754e-24)
(0.0177439 -0.00436002 -1.4168e-24)
(0.0177808 -0.00437148 0)
(0.436013 -0.115117 -3.54322e-23)
(0.556892 -0.150366 1.23384e-23)
(0.656218 -0.18097 4.23632e-23)
(0.727768 -0.205015 -4.16208e-23)
(0.765573 -0.220221 1.17348e-22)
(0.766162 -0.224904 4.85173e-25)
(0.729718 -0.218481 6.71434e-23)
(0.660035 -0.201493 0)
(0.563608 -0.1754 0)
(0.448369 -0.14225 -3.24007e-25)
(0.32227 -0.104276 -3.14436e-23)
(0.192106 -0.063444 1.81404e-22)
(0.0628934 -0.0213007 2.00177e-22)
(0.0177087 -0.00435399 -2.42202e-24)
(0.0176808 -0.00435125 -2.13024e-25)
(0.0547522 -0.0135581 0)
(0.0546925 -0.0135435 1.2666e-24)
(0.112546 -0.0280969 5.8031e-24)
(0.187927 -0.0475543 7.16846e-24)
(0.296233 -0.0762578 -1.24582e-24)
(0.187201 -0.0473564 -3.53147e-24)
(0.112158 -0.0280002 -7.78483e-25)
(0.0545262 -0.0134981 -4.30195e-25)
(0.0545927 -0.0135194 7.13261e-25)
(0.017627 -0.00433221 1.85523e-27)
(0.0176652 -0.00434302 0)
(0.430727 -0.113648 -1.44609e-23)
(0.550336 -0.148333 1.1113e-25)
(0.649959 -0.179034 4.50505e-23)
(0.722307 -0.203347 -9.89093e-24)
(0.760781 -0.21871 4.56285e-25)
(0.761852 -0.223494 -5.69315e-23)
(0.725803 -0.217161 1.02505e-24)
(0.656504 -0.200274 -5.66017e-25)
(0.560512 -0.17431 0)
(0.445783 -0.141325 -1.56317e-23)
(0.320285 -0.10356 -3.80477e-25)
(0.190766 -0.0629618 -4.24914e-25)
(0.0623942 -0.0211332 -2.39624e-23)
(0.0175975 -0.00432743 1.05651e-25)
(0.0175698 -0.00432312 6.82849e-26)
(0.0544107 -0.0134717 3.19162e-26)
(0.0543538 -0.0134586 0)
(0.111801 -0.0279015 -1.75855e-25)
(0.186369 -0.0471663 -2.8085e-24)
(0.292198 -0.0752182 -2.02847e-25)
(0.185375 -0.0469141 2.32932e-24)
(0.111365 -0.0277971 1.68492e-24)
(0.0541862 -0.0134125 -9.3703e-25)
(0.0542574 -0.0134347 0)
(0.0175218 -0.00430531 0)
(0.0175541 -0.00431622 3.42244e-25)
(0.423719 -0.11158 -3.71881e-23)
(0.543148 -0.146141 3.58358e-24)
(0.64387 -0.177262 -1.15566e-23)
(0.717103 -0.201766 0)
(0.756124 -0.217224 5.62769e-23)
(0.757576 -0.22208 0)
(0.721867 -0.215823 -5.06143e-25)
(0.652936 -0.19903 5.65931e-25)
(0.557377 -0.173192 1.6197e-22)
(0.44317 -0.140377 -3.62294e-25)
(0.318224 -0.102809 0)
(0.189419 -0.0624801 2.39202e-22)
(0.0618813 -0.0209583 -2.27654e-23)
(0.0174877 -0.00429978 0)
(0.0174619 -0.00429693 0)
(0.054076 -0.0133862 -1.36641e-24)
(0.0540204 -0.0133721 1.59376e-24)
(0.110963 -0.0276882 2.67847e-24)
(0.184107 -0.0466591 0)
(0.285155 -0.0733633 6.24213e-23)
(0.182257 -0.0461831 0)
(0.110409 -0.0275671 2.9143e-24)
(0.0538512 -0.0133298 0)
(0.0539232 -0.0133515 -2.18852e-24)
(0.0174119 -0.00427859 1.42394e-24)
(0.0174482 -0.00429006 0)
(0.415021 -0.108999 4.88758e-23)
(0.536275 -0.144261 -4.45053e-23)
(0.638313 -0.17565 -6.01616e-25)
(0.712192 -0.200244 3.72671e-23)
(0.751586 -0.215759 3.91436e-25)
(0.75333 -0.220665 0)
(0.717919 -0.214467 0)
(0.649331 -0.197758 7.00188e-23)
(0.554195 -0.172043 1.69828e-22)
(0.440485 -0.139396 -4.15901e-25)
(0.316146 -0.102047 0)
(0.188046 -0.0619776 2.74221e-22)
(0.0613521 -0.0207784 -3.42701e-22)
(0.0173817 -0.00427299 1.99355e-24)
(0.0173556 -0.00426957 0)
(0.053733 -0.0132985 0)
(0.0536819 -0.0132841 -3.99695e-24)
(0.109761 -0.0274129 3.42099e-24)
(0.179417 -0.0456323 7.38765e-25)
(0.272933 -0.0700297 -2.93181e-23)
(0.174521 -0.0441192 -3.0533e-23)
(0.108711 -0.0272059 0)
(0.0534895 -0.0132405 -5.2437e-24)
(0.0535784 -0.0132656 -3.73067e-24)
(0.0173101 -0.00425372 2.85817e-24)
(0.0173434 -0.00426441 2.41492e-24)
(0.407042 -0.106931 4.73536e-25)
(0.530502 -0.142663 0)
(0.633333 -0.17415 -3.96105e-23)
(0.707552 -0.198785 5.19648e-25)
(0.747159 -0.214316 0)
(0.749117 -0.219244 0)
(0.713961 -0.213091 -6.57542e-23)
(0.645708 -0.196463 -1.54236e-22)
(0.550975 -0.170871 -3.67342e-25)
(0.437781 -0.138391 4.15812e-25)
(0.314006 -0.101251 2.76359e-22)
(0.186647 -0.0614654 3.16043e-22)
(0.0608069 -0.0205882 -3.91965e-22)
(0.0172792 -0.00424712 0)
(0.0172527 -0.00424349 2.98152e-24)
(0.0533551 -0.0132096 9.55761e-25)
(0.0532515 -0.0131795 5.99962e-24)
(0.107072 -0.0268783 -4.461e-24)
(0.165513 -0.0414401 -9.37301e-23)
(0.263028 -0.0674872 -1.56176e-24)
(0.156064 -0.0397237 1.54847e-23)
(0.103565 -0.025985 0)
(0.0528919 -0.0131112 0)
(0.053112 -0.0131573 6.11389e-24)
(0.0172006 -0.0042272 8.07308e-24)
(0.0172414 -0.00423842 0)
(0.401301 -0.105337 1.9567e-23)
(0.525724 -0.141247 1.10938e-23)
(0.628793 -0.172754 0)
(0.70312 -0.197376 -5.20413e-25)
(0.742829 -0.212889 0)
(0.744939 -0.217819 3.72083e-25)
(0.710004 -0.211697 2.41486e-25)
(0.642057 -0.195142 0)
(0.547729 -0.169665 3.67195e-25)
(0.435019 -0.137354 -4.70781e-22)
(0.311875 -0.100448 -3.09625e-25)
(0.185196 -0.0609206 3.60146e-22)
(0.0602206 -0.0203957 0)
(0.0171759 -0.0042231 -3.98437e-24)
(0.0171307 -0.00421107 1.85359e-25)
(0.0526138 -0.0130701 0)
(0.0521079 -0.0129781 5.68858e-24)
(0.0920875 -0.0226021 3.75857e-23)
(0.150269 -0.0380328 -6.81215e-25)
(0.258151 -0.0658818 -2.77926e-23)
(0.147734 -0.0372017 1.27853e-23)
(0.077795 -0.020126 -1.58005e-23)
(0.049213 -0.0120068 2.70274e-24)
(0.0512235 -0.0128741 0)
(0.0170401 -0.00418717 0)
(0.0171134 -0.00420391 4.41924e-25)
(0.39719 -0.104113 -1.26164e-23)
(0.521621 -0.14001 -1.74812e-25)
(0.624606 -0.171461 1.80443e-25)
(0.698873 -0.196015 1.56003e-23)
(0.738598 -0.21148 -2.48268e-25)
(0.740799 -0.216386 -7.2596e-25)
(0.706054 -0.210283 5.35679e-23)
(0.638388 -0.193789 0)
(0.544461 -0.168434 2.08092e-22)
(0.432234 -0.136289 0)
(0.309658 -0.0996026 3.36215e-22)
(0.183678 -0.0603615 0)
(0.0596098 -0.0201911 1.00512e-21)
(0.0169611 -0.00417254 -5.59628e-24)
(0.0167941 -0.00414615 -6.09131e-24)
(0.0448489 -0.0102416 1.36671e-24)
(0.0302077 -0.00507033 0)
(0.0728222 -0.0183124 -2.86213e-25)
(0.14627 -0.0366261 -1.80926e-23)
(0.255442 -0.0650812 -2.63518e-25)
(0.145433 -0.0363793 6.91427e-24)
(0.0716897 -0.0177585 -1.52943e-23)
(0.0184152 -0.00495024 1.59118e-24)
(0.0206107 -0.00509046 -1.83345e-24)
(0.0157797 -0.00402147 -4.9037e-24)
(0.0164947 -0.00412472 -2.13349e-25)
(0.393871 -0.103147 -2.11013e-25)
(0.517938 -0.138908 -3.67545e-26)
(0.620685 -0.170243 -1.80066e-23)
(0.694787 -0.194689 0)
(0.734448 -0.210075 2.48398e-25)
(0.736698 -0.214943 -8.62675e-23)
(0.702113 -0.208847 -5.2986e-23)
(0.634717 -0.192413 0)
(0.541168 -0.167169 0)
(0.429413 -0.135197 -3.28542e-24)
(0.307407 -0.0987369 -3.73226e-22)
(0.182123 -0.0597823 -9.69959e-22)
(0.0589981 -0.0199804 -1.63261e-23)
(0.0146941 -0.00370034 1.40801e-25)
(0.00831468 -0.00128622 7.32151e-23)
(0.0172803 -0.0043634 3.85509e-24)
(0.0168587 -0.00421487 4.17114e-24)
(0.0711226 -0.0175753 1.70275e-23)
(0.144763 -0.0362424 1.56865e-23)
(0.253446 -0.0646071 -3.77141e-25)
(0.144318 -0.0361582 -1.52718e-23)
(0.0707743 -0.0174766 0)
(0.0167266 -0.00411371 -5.64918e-24)
(0.0167975 -0.00414818 5.61495e-24)
(0.391044 -0.102347 8.05617e-26)
(0.514607 -0.137911 -1.92395e-23)
(0.616973 -0.169076 0)
(0.690837 -0.193389 1.91234e-24)
(0.73038 -0.208676 4.96639e-23)
(0.732639 -0.213489 5.12622e-23)
(0.698182 -0.207387 -2.49439e-25)
(0.631037 -0.191004 0)
(0.537849 -0.165872 -2.45955e-22)
(0.426531 -0.134062 3.15165e-22)
(0.305096 -0.0978375 4.04637e-22)
(0.180521 -0.059176 5.34754e-22)
(0.0583333 -0.0197587 1.30637e-21)
(0.0167051 -0.00410747 0)
(0.0166917 -0.00410377 -5.77827e-24)
(0.0705437 -0.0174432 5.83388e-24)
(0.143815 -0.0360709 0)
(0.251739 -0.0642025 1.66364e-23)
(0.143453 -0.0359931 0)
(0.070361 -0.0174038 0)
(0.0166625 -0.00409215 5.7057e-24)
(0.0166703 -0.00409422 6.03916e-24)
(0.388527 -0.101634 2.3898e-23)
(0.511513 -0.136978 -3.23033e-25)
(0.613441 -0.167952 1.55207e-23)
(0.687002 -0.192106 -2.0696e-23)
(0.726388 -0.207276 9.82986e-24)
(0.728621 -0.212018 2.83761e-23)
(0.69427 -0.205901 5.24356e-23)
(0.62736 -0.189563 0)
(0.534484 -0.164531 2.40346e-22)
(0.423613 -0.132893 0)
(0.30271 -0.0968987 0)
(0.178861 -0.0585512 -6.06554e-22)
(0.0576544 -0.0195349 -7.51014e-22)
(0.0166418 -0.00409101 -1.19806e-23)
(0.0166411 -0.00409012 4.76382e-26)
(0.0701829 -0.0173773 6.82579e-24)
(0.142996 -0.0358952 -2.61733e-23)
(0.250241 -0.0638242 0)
(0.142658 -0.0358084 0)
(0.0700013 -0.0173301 1.13918e-25)
(0.016613 -0.00408352 0)
(0.0166148 -0.00408459 6.59534e-24)
(0.386246 -0.100984 3.17455e-25)
(0.508591 -0.136085 2.03419e-23)
(0.610041 -0.166851 -2.0847e-23)
(0.683268 -0.190831 -1.00267e-23)
(0.722465 -0.205868 -2.83963e-23)
(0.724647 -0.210528 -7.6102e-23)
(0.69038 -0.204386 5.26427e-23)
(0.623662 -0.188085 -3.05193e-22)
(0.531097 -0.163154 0)
(0.420656 -0.131691 3.71049e-22)
(0.30028 -0.0959322 0)
(0.177159 -0.0579073 6.88752e-22)
(0.0569571 -0.0193032 8.35668e-22)
(0.0165828 -0.00407963 -1.39053e-23)
(0.0165769 -0.00407552 -7.29137e-24)
(0.0698204 -0.0172945 -1.13894e-25)
(0.142219 -0.0357048 0)
(0.248867 -0.0634638 -3.32699e-25)
(0.141905 -0.0356199 0)
(0.0696383 -0.0172446 0)
(0.016536 -0.00406298 0)
(0.0165476 -0.00406822 0)
(0.384091 -0.100362 -4.72805e-23)
(0.505806 -0.135223 2.94914e-23)
(0.606767 -0.165771 0)
(0.679637 -0.189561 -4.01556e-26)
(0.718611 -0.204449 2.54269e-23)
(0.720715 -0.209015 -5.11538e-23)
(0.6865 -0.202839 1.3537e-22)
(0.619955 -0.186568 9.28943e-23)
(0.527702 -0.161742 -3.25105e-22)
(0.417641 -0.130442 4.08743e-22)
(0.297826 -0.0949356 0)
(0.175372 -0.0572232 0)
(0.0562155 -0.0190696 -9.56718e-22)
(0.0165032 -0.00405891 -8.27195e-24)
(0.0164981 -0.00405624 -8.50987e-24)
(0.0694619 -0.0172056 0)
(0.141488 -0.0355204 -1.49867e-25)
(0.247564 -0.063114 1.40369e-25)
(0.141191 -0.0354357 1.49822e-25)
(0.0692943 -0.0171612 0)
(0.0164545 -0.00404395 0)
(0.0164667 -0.00404893 8.94403e-24)
(0.382057 -0.0997688 4.97748e-25)
(0.503153 -0.134387 0)
(0.603597 -0.164701 -4.52245e-23)
(0.676092 -0.188287 -2.8659e-23)
(0.714828 -0.203017 -2.73888e-26)
(0.716825 -0.207476 -5.19727e-23)
(0.68264 -0.201257 -8.73544e-23)
(0.616259 -0.18501 0)
(0.524264 -0.160278 -3.58011e-22)
(0.414596 -0.129145 4.52447e-22)
(0.295238 -0.0938772 0)
(0.173506 -0.0565337 8.77312e-22)
(0.0554297 -0.0187894 -1.10709e-24)
(0.0164243 -0.00403898 9.45968e-24)
(0.0164163 -0.00403621 -9.70109e-24)
(0.0691242 -0.0171219 0)
(0.140796 -0.0353433 1.6985e-25)
(0.246322 -0.0627738 -2.64936e-26)
(0.140497 -0.0352569 -1.69793e-25)
(0.0689506 -0.0170766 0)
(0.0163846 -0.00402598 1.03239e-23)
(0.0163864 -0.00402962 1.00242e-23)
(0.380118 -0.0991937 9.14444e-23)
(0.500599 -0.133563 1.22942e-22)
(0.600534 -0.163633 3.09881e-23)
(0.672636 -0.187004 0)
(0.711106 -0.201562 -1.03619e-26)
(0.712977 -0.205906 0)
(0.678794 -0.199632 0)
(0.612542 -0.183401 1.07478e-22)
(0.520772 -0.158753 -3.96194e-22)
(0.411448 -0.127793 0)
(0.29257 -0.092782 0)
(0.171538 -0.0558251 -1.04235e-24)
(0.0548029 -0.0183594 1.2092e-21)
(0.0163515 -0.00402074 1.05296e-23)
(0.0163448 -0.00401784 -1.08522e-23)
(0.0687845 -0.0170406 0)
(0.140121 -0.0351649 3.8026e-25)
(0.245139 -0.0624491 -7.53865e-23)
(0.139845 -0.0350827 -5.80447e-25)
(0.0686171 -0.0169934 0)
(0.0163007 -0.00400732 -1.14371e-23)
(0.0163149 -0.00401187 1.12977e-23)
(0.378278 -0.09864 -8.48519e-23)
(0.498156 -0.132749 2.7102e-25)
(0.597569 -0.16256 0)
(0.669259 -0.185707 4.63989e-23)