/*--------------------------------*- C++ -*----------------------------------*\
| =========                 |                                                 |
| \\      /  F ield         | OpenFOAM: The Open Source CFD Toolbox           |
|  \\    /   O peration     | Version:  v1912                                 |
|   \\  /    A nd           | Website:  www.openfoam.com                      |
|    \\/     M anipulation  |                                                 |
\*---------------------------------------------------------------------------*/
FoamFile
{
    version     2.0;
    format      ascii;
    class       volVectorField;
    location    "40";
    object      U;
}
// * * * * * * * * * * * * * * * * * * * * * * * * * * * * * * * * * * * * * //

dimensions      [0 1 -1 0 0 0 0];


internalField   nonuniform List<vector> 
3675
(
(0.999118 0.00130751 4.72379e-26)
(0.999168 0.00357654 0)
(0.990449 0.00433511 1.45765e-23)
(0.999259 0.00560876 -2.28083e-23)
(0.991158 0.0116217 0)
(0.97015 0.00841324 -4.74142e-22)
(0.999376 0.00729024 1.2786e-21)
(0.992439 0.0180899 -1.4939e-21)
(0.972541 0.0224588 4.90204e-22)
(0.933365 0.0146745 -3.59804e-23)
(0.999505 0.00855494 -2.39147e-21)
(0.99409 0.0233537 2.87485e-21)
(0.976839 0.0346503 0)
(0.939612 0.0392832 1.13473e-21)
(0.870185 0.0259164 -1.31625e-22)
(0.999633 0.00938319 1.11529e-21)
(0.995895 0.0272056 -1.3849e-22)
(0.982317 0.0441943 -5.35464e-23)
(0.950477 0.0598831 -1.11045e-21)
(0.88471 0.069291 0)
(0.756038 0.0484233 1.35641e-22)
(0.99975 0.00979152 0)
(0.997672 0.0296109 8.70655e-22)
(0.988188 0.0507753 0)
(0.963718 0.0749277 5.2223e-23)
(0.908876 0.102934 1.81079e-22)
(0.79536 0.126327 -1.99438e-21)
(0.58803 0.0479605 -1.81475e-22)
(0.609074 0.123446 -2.74953e-22)
(0.999854 0.00981976 0)
(0.999303 0.0306587 -2.06486e-21)
(0.993829 0.0544724 2.08796e-21)
(0.977274 0.084116 1.31704e-21)
(0.937916 0.124342 -1.33608e-22)
(0.852358 0.180889 2.88366e-21)
(0.649453 0.197231 4.80236e-22)
(0.702357 0.245036 2.33359e-22)
(0.395086 0.0683547 6.21898e-22)
(0.434777 0.18658 -3.55628e-22)
(0.999944 0.00951905 0)
(1.00072 0.0305095 -1.15999e-23)
(0.99888 0.0556079 -2.06523e-21)
(0.98972 0.0881148 -1.27563e-21)
(0.9656 0.134311 0)
(0.912345 0.207925 -1.01153e-21)
(0.766711 0.36003 -1.17888e-21)
(0.507133 0.284162 -1.02177e-21)
(0.594856 0.363404 8.28819e-22)
(0.184626 0.0461324 -1.40284e-22)
(0.198563 0.124818 2.97555e-22)
(0.272642 0.272771 1.42729e-21)
(0.226514 0.200385 -2.50786e-22)
(1.00002 0.00894271 0)
(1.00192 0.0293477 0)
(1.00319 0.0545995 1.21258e-24)
(1.00041 0.0879696 -2.7605e-23)
(0.988912 0.135593 -6.39002e-23)
(0.962528 0.21166 0)
(0.901048 0.369793 2.05245e-21)
(0.641388 0.566136 1.32989e-22)
(0.777507 0.597868 1.33349e-22)
(0.332083 0.345675 2.63451e-23)
(0.406808 0.415075 0)
(0.485317 0.496685 -4.71751e-22)
(0.0369808 0.0356663 -1.22273e-21)
(0.0493644 0.0987357 -5.52781e-22)
(0.115048 0.211016 -5.32377e-21)
(0.0768239 0.157863 -1.84803e-21)
(1.00009 0.0081405 0)
(1.0029 0.0273535 0)
(1.00675 0.051863 0)
(1.0092 0.0846656 1.01238e-23)
(1.00758 0.131053 0)
(1.00049 0.202443 2.78681e-23)
(0.986316 0.334934 -1.10698e-21)
(0.985293 0.560287 9.21204e-22)
(0.6262 0.559258 -2.9364e-25)
(0.492846 0.492203 -4.01109e-23)
(0.775215 0.540962 -2.72936e-22)
(0.168454 0.313686 6.54254e-21)
(0.292679 0.406507 -4.51993e-22)
(0.335776 0.387873 7.30787e-22)
(0.236429 0.283314 -6.79787e-22)
(1.00016 0.00715648 -3.82566e-25)
(1.00369 0.0246882 0)
(1.00962 0.0477704 -4.98691e-22)
(1.01621 0.0790063 0)
(1.02212 0.122711 -4.86008e-24)
(1.02826 0.187415 0)
(1.03794 0.292216 1.90859e-23)
(1.10742 0.487266 3.19805e-22)
(0.920684 0.450851 -5.78272e-22)
(1.10472 0.507223 -7.49851e-23)
(0.466141 0.347172 -2.04932e-21)
(0.290241 0.249713 1.93287e-21)
(0.719829 0.426329 1.07631e-21)
(0.470077 0.290686 0)
(0.0582874 0.134935 1.82751e-21)
(0.163556 0.248108 -3.94729e-21)
(0.133731 0.166169 0)
(1.00022 0.00602641 0)
(1.00433 0.0214892 4.17903e-27)
(1.0119 0.0426263 4.95331e-22)
(1.0217 0.0716272 -3.66741e-24)
(1.03317 0.11189 0)
(1.04813 0.169532 4.57741e-24)
(1.07119 0.25419 0)
(1.14997 0.398136 -1.05981e-21)
(1.2372 0.422204 -3.06351e-21)
(0.697819 0.207133 2.23024e-22)
(0.571754 0.276199 -2.00959e-21)
(1.02355 0.300983 -1.31122e-21)
(0.195335 0.135102 6.03674e-21)
(0.266484 0.155637 1.94643e-21)
(1.00029 0.00477961 0)
(1.00484 0.0178662 1.84235e-26)
(1.01369 0.0366708 4.00826e-25)
(1.02594 0.0630101 -1.76455e-24)
(1.04143 0.0994878 6.51824e-24)
(1.06214 0.150284 -9.88804e-22)
(1.09303 0.220363 -1.69336e-21)
(1.16345 0.324371 -2.98481e-21)
(1.29598 0.381402 3.84431e-21)
(1.16171 0.262325 0)
(0.452725 0.0582692 7.01248e-22)
(0.195166 0.0365488 0)
(0.366007 0.0940171 6.03396e-23)
(0.855175 0.171506 -4.28995e-22)
(0.123918 0.033321 -2.25308e-22)
(1.00035 0.00343826 8.00955e-23)
(1.00525 0.0139045 -1.71831e-25)
(1.01512 0.0300849 -8.2627e-25)
(1.02923 0.0535005 3.03211e-24)
(1.04757 0.0860949 1.73297e-24)
(1.07195 0.130603 2.45807e-21)
(1.10692 0.189458 3.95127e-21)
(1.16931 0.267863 3.13762e-21)
(1.28719 0.323645 0)
(1.34493 0.289201 0)
(1.00975 0.143409 9.76855e-21)
(0.691555 0.100466 -5.62468e-23)
(0.120718 0.00566987 1.4815e-22)
(0.322623 0.021277 -1.50471e-23)
(0.093128 0.00392663 -4.23311e-22)
(1.00042 0.0020186 -7.94892e-23)
(1.00559 0.0096652 3.30981e-26)
(1.01626 0.0230013 1.7163e-25)
(1.03181 0.043324 4.82102e-24)
(1.05217 0.0720836 -2.55564e-21)
(1.07884 0.110978 -1.48096e-21)
(1.11553 0.160967 -2.31336e-21)
(1.17235 0.222763 -1.63439e-23)
(1.26699 0.27138 0)
(1.36702 0.268552 -8.35867e-21)
(1.30099 0.205832 -1.17916e-20)
(0.896692 0.0714405 1.18127e-22)
(0.557855 0.0442444 -7.78918e-21)
(0.599029 0.0560783 2.84686e-24)
(0.278112 0.00798052 1.60232e-23)
(0.0664067 0.0022139 1.30838e-22)
(0.0710635 -0.000923576 0)
(1.0005 0.000533046 0)
(1.00588 0.00519371 0)
(1.01721 0.0155092 7.00617e-25)
(1.03389 0.0326281 0)
(1.05574 0.0576534 -4.98739e-22)
(1.08382 0.09158 -1.0762e-23)
(1.12093 0.134508 -3.08532e-21)
(1.1734 0.185119 2.51409e-23)
(1.25088 0.227602 -5.69705e-21)
(1.34327 0.237852 8.63986e-21)
(1.38559 0.214983 -9.43936e-21)
(1.23312 0.14346 0)
(0.81728 0.0400238 -7.48419e-21)
(0.516105 0.018493 -1.25716e-22)
(0.535904 0.0236894 1.16771e-22)
(0.289542 0.0127995 1.43692e-20)
(0.0617601 -0.00176334 -1.39694e-22)
(0.0672171 0.00234349 9.1939e-21)
(1.00058 -0.00100929 0)
(1.00614 0.000520763 4.43496e-22)
(1.01801 0.00766695 0)
(1.03563 0.0214961 -6.946e-25)
(1.05863 0.0428959 -3.73767e-22)
(1.08764 0.0724172 4.9494e-21)
(1.12456 0.109666 3.16784e-21)
(1.17331 0.152527 0)
(1.23924 0.190404 1.1852e-20)
(1.31704 0.206681 -2.64637e-23)
(1.38243 0.201456 6.71743e-22)
(1.37263 0.171186 0)
(1.16649 0.102143 1.83963e-20)
(0.759721 0.0282595 -1.88275e-21)
(0.479838 0.0119689 -1.82197e-21)
(0.495232 0.0112619 7.29987e-24)
(0.286538 0.00506389 0)
(0.295987 0.00603843 -1.79571e-21)
(0.133397 0.00374157 -5.11006e-21)
(0.0953521 0.00825077 -2.33935e-20)
(1.00067 -0.00260067 0)
(1.00636 -0.00432954 -7.97337e-22)
(1.01871 -0.00049145 0)
(1.03716 0.00996331 0)
(1.06113 0.027821 6.69041e-21)
(1.09087 0.053388 -4.79399e-21)
(1.1274 0.0860337 -7.30451e-21)
(1.17304 0.123382 -9.53651e-21)
(1.23072 0.15791 -6.04511e-21)
(1.29695 0.177713 -1.58998e-23)
(1.35913 0.181133 9.12184e-21)
(1.39776 0.171044 -4.79402e-24)
(1.34578 0.137023 -1.09608e-20)
(1.10609 0.0771662 2.48948e-23)
(0.716418 0.0234875 -9.38982e-22)
(0.452101 0.00989004 1.77263e-21)
(0.463965 0.00857971 1.79333e-21)
(0.270542 0.00290698 1.68711e-21)
(0.277379 0.00231821 -3.22574e-22)
(0.131658 0.00184581 -4.76337e-24)
(0.133533 0.000476439 3.94024e-23)
(0.135997 0.000962051 3.80211e-21)
(0.136737 0.00198074 5.90469e-22)
(0.0417763 -0.00073801 2.42868e-21)
(0.0258596 0.00222972 6.99555e-21)
(1.00077 -0.00423289 0)
(1.00655 -0.00933686 3.54466e-22)
(1.01933 -0.00894311 -9.72409e-22)
(1.03855 -0.00196746 -2.10844e-21)
(1.06346 0.0123862 -6.94308e-21)
(1.09389 0.0343322 0)
(1.13015 0.0631845 7.12722e-21)
(1.17331 0.0965679 9.63253e-21)
(1.22481 0.128748 0)
(1.28238 0.151006 -5.7935e-23)
(1.33776 0.160248 8.51189e-21)
(1.38393 0.159627 8.9158e-24)
(1.39949 0.146571 -9.41749e-26)
(1.31197 0.113053 -1.08247e-20)
(1.05414 0.0625606 0)
(0.682287 0.021356 -7.63599e-21)
(0.429707 0.00883366 1.76079e-21)
(0.439402 0.00768991 8.9335e-22)
(0.258152 0.00255179 1.0347e-22)
(0.263932 0.00199636 -6.07619e-25)
(0.125774 0.00101933 -7.39054e-23)
(0.126874 0.000120693 -3.74833e-23)
(0.129016 -0.000280908 4.59386e-22)
(0.128505 0.000793226 1.87649e-22)
(0.0400101 0.000211749 2.46319e-23)
(0.0406776 -8.16351e-05 0)
(0.0411417 -0.000344428 -8.06772e-22)
(0.0415252 0.000193172 -4.05132e-22)
(1.00087 -0.00589593 0)
(1.00671 -0.0144772 3.5969e-25)
(1.01985 -0.0176714 9.6039e-22)
(1.03984 -0.0143119 7.55882e-23)
(1.06572 -0.00349524 6.98902e-21)
(1.097 0.0150458 -5.36466e-21)
(1.13329 0.0407159 -8.56469e-24)
(1.17465 0.0712255 1.11561e-23)
(1.22149 0.101911 2.167e-23)
(1.27227 0.126045 -1.51279e-20)
(1.32158 0.140001 -1.726e-20)
(1.36495 0.145251 8.18293e-24)
(1.39812 0.142589 0)
(1.39154 0.128591 1.04024e-20)
(1.27628 0.0972601 1.09689e-20)
(1.01033 0.054132 6.42708e-21)
(0.654088 0.0203932 -5.53199e-24)
(0.410617 0.00841909 0)
(0.418996 0.00735078 8.78036e-22)
(0.247213 0.00242604 3.05154e-22)
(0.25241 0.00202465 -9.16633e-22)
(0.12099 0.000826209 -7.18561e-23)
(0.121983 0.0002303 -1.44211e-22)
(0.124041 -3.43275e-05 1.45978e-22)
(0.123412 0.000673364 -2.18044e-22)
(0.0389563 0.000101864 4.76063e-23)
(0.0393098 -6.46414e-05 3.01758e-24)
(0.0394222 -0.000183595 -1.2244e-22)
(0.0395978 5.05716e-05 -3.00901e-24)
(1.00098 -0.00757434 0)
(1.00681 -0.0197165 0)
(1.02025 -0.0266515 -3.51868e-25)
(1.04099 -0.0270952 1.953e-21)
(1.06796 -0.0199323 -3.445e-21)
(1.10037 -0.00471646 1.05388e-20)
(1.13714 0.0182114 3.07706e-24)
(1.17745 0.0466616 8.36038e-24)
(1.22088 0.0765921 -1.27327e-20)
(1.26623 0.102414 1.53334e-20)
(1.31017 0.120322 -8.50454e-21)
(1.34946 0.130374 -1.87646e-23)
(1.38324 0.133617 9.29938e-24)
(1.40406 0.130111 0)
(1.37729 0.116293 -1.0411e-20)
(1.24167 0.0870439 -1.1052e-20)
(0.973036 0.0493775 0)
(0.63081 0.0199348 -9.61765e-22)
(0.393902 0.00826382 -1.62965e-21)
(0.401158 0.0072747 1.63011e-21)
(0.23706 0.00243639 -1.00584e-22)
(0.24196 0.00211593 -7.04123e-22)
(0.116406 0.000735825 -2.11325e-22)
(0.117358 0.000296893 -1.41186e-22)
(0.119446 0.000128035 -7.13424e-23)
(0.118715 0.000632758 0)
(0.0378518 7.46545e-05 2.32425e-23)
(0.0381974 -3.56188e-05 0)
(0.038578 -9.7213e-05 0)
(0.0385217 4.64397e-05 4.68094e-23)
(1.00109 -0.0092456 0)
(1.00683 -0.0250004 -8.74573e-22)
(1.02046 -0.0358401 0)
(1.04195 -0.0403337 0)
(1.07014 -0.0370518 6.63375e-24)
(1.10408 -0.0252267 -5.17355e-21)
(1.14192 -0.00475802 0)
(1.18202 0.0222493 0)
(1.22315 0.0521156 1.23308e-20)
(1.26419 0.0797403 1.3332e-23)
(1.30324 0.101153 3.4701e-20)
(1.33838 0.115439 0)
(1.36918 0.12321 9.77707e-21)
(1.39458 0.125367 0)
(1.40363 0.121802 0)
(1.3596 0.108108 1.03888e-20)
(1.20906 0.0805671 0)
(0.941246 0.0468012 0)
(0.614363 0.0198899 -1.51706e-20)
(0.380479 0.0081555 1.72591e-21)
(0.385793 0.00719791 1.73058e-21)
(0.227486 0.00244788 -4.80188e-25)
(0.232073 0.0022104 9.93681e-23)
(0.111812 0.000704248 -6.94185e-23)
(0.112771 0.000350473 1.39023e-22)
(0.114934 0.000231861 7.00668e-23)
(0.114125 0.000627952 -1.39645e-22)
(0.0366186 5.95085e-05 2.28019e-23)
(0.0369557 -2.38591e-05 0)
(0.0374757 -6.22263e-05 6.90677e-23)
(0.0373052 4.09706e-05 0)
(1.0012 -0.0108754 -3.19033e-24)
(1.00673 -0.0302469 3.66388e-21)
(1.02039 -0.0451571 -2.14378e-24)
(1.04255 -0.0540163 0)
(1.07213 -0.0549866 0)
(1.10808 -0.0467956 -1.01039e-23)
(1.14774 -0.0286565 -1.51093e-24)
(1.18859 -0.00262308 -9.93958e-21)
(1.22851 0.027862 0)
(1.26619 0.0576619 0)
(1.3008 0.0824426 -1.70108e-20)
(1.33168 0.100608 0)
(1.35887 0.112364 -9.93528e-21)
(1.3825 0.118554 -5.12331e-24)
(1.40033 0.120325 0)
(1.39882 0.116649 0)
(1.34009 0.102823 0)
(1.17878 0.0766367 0)
(0.914911 0.0456966 1.29729e-20)
(0.608217 0.0208592 -3.77903e-21)
(0.375495 0.00834669 -6.76524e-21)
(0.375646 0.00701763 -3.42801e-21)
(0.219276 0.00241116 -1.47228e-21)
(0.222971 0.00224756 -9.87875e-23)
(0.107186 0.000684043 -1.37222e-22)
(0.108129 0.000372974 3.44644e-23)
(0.110348 0.000294655 3.44746e-23)
(0.109484 0.000632643 -6.8912e-23)
(0.0352617 5.07759e-05 6.72881e-23)
(0.0356105 -1.78498e-05 -5.64082e-24)
(0.0362277 -4.35192e-05 -2.2532e-23)
(0.0359893 3.79518e-05 5.62668e-24)
(1.00129 -0.012416 8.75449e-24)
(1.00645 -0.0353339 1.24121e-21)
(1.01989 -0.0544673 -1.90739e-21)
(1.04258 -0.068084 1.38507e-24)
(1.07367 -0.0738535 -7.11141e-24)
(1.11223 -0.0697656 0)
(1.1546 -0.054005 5.89152e-24)
(1.19736 -0.0286132 9.61669e-21)
(1.23721 0.00323617 0)
(1.27241 0.0358156 0)
(1.30297 0.0641163 0)
(1.32949 0.0859986 0)
(1.35269 0.101411 1.98264e-20)
(1.37311 0.111095 1.00785e-23)
(1.3906 0.116307 9.88476e-24)
(1.40196 0.11781 0)
(1.39094 0.11372 0)
(1.31964 0.0996121 0)
(1.15104 0.0744842 5.40088e-24)
(0.893589 0.0457429 1.26251e-23)
(0.600562 0.021457 -9.36265e-21)
(0.389089 0.00899176 -6.43327e-21)
(0.380737 0.00892224 6.46578e-21)
(0.217765 0.0021751 6.25186e-21)
(0.216641 0.00212195 3.92881e-21)
(0.102865 0.000664679 0)
(0.103615 0.000374098 -6.8221e-23)
(0.105743 0.000320832 6.84182e-23)
(0.104911 0.000635618 0)
(0.033817 4.36242e-05 0)
(0.0341697 -1.79939e-05 0)
(0.0348519 -3.5444e-05 -2.24126e-23)
(0.0345686 3.50042e-05 0)
(1.00136 -0.0138006 1.13975e-23)
(1.00593 -0.0400878 -3.97369e-21)
(1.01877 -0.0635569 1.8886e-21)
(1.04169 -0.0824013 0)
(1.07435 -0.0937377 1.9118e-21)
(1.11619 -0.0944905 6.8122e-24)
(1.16233 -0.081401 0)
(1.20845 -0.0564942 0)
(1.24958 -0.0223879 0)
(1.28312 0.0138591 1.55426e-23)
(1.30994 0.0460816 1.72664e-23)
(1.33198 0.0716999 1.86018e-23)
(1.35084 0.0905717 -3.92382e-20)
(1.36747 0.103447 1.00984e-23)
(1.38222 0.111516 -2.01482e-23)
(1.39478 0.116004 5.00377e-24)
(1.40057 0.117064 -1.00782e-20)
(1.38079 0.112348 0)
(1.29887 0.0978436 0)
(1.12561 0.0734575 -7.71682e-26)
(0.873116 0.0452575 2.01269e-23)
(0.584676 0.0218987 -7.45097e-21)
(0.389172 0.0102457 -3.36643e-21)
(0.391478 0.00894312 1.27459e-22)
(0.248578 0.00322546 5.81936e-21)
(0.229924 0.00384856 0)
(0.105316 0.000414861 0)
(0.101911 -4.10736e-05 -1.08928e-21)
(0.101687 0.000274681 -2.03945e-22)
(0.101629 0.000526197 -1.01767e-21)
(0.0323979 4.13015e-05 2.202e-23)
(0.0327075 -1.73883e-05 4.69232e-23)
(0.0333987 -3.24047e-05 -4.42744e-23)
(0.0331058 3.44673e-05 -2.75907e-24)
(1.00139 -0.0149423 0)
(1.00507 -0.0442699 -1.14674e-23)
(1.0168 -0.0721108 0)
(1.03945 -0.0967102 -6.35538e-24)
(1.07361 -0.114639 -1.85747e-21)
(1.11941 -0.121298 -3.80106e-21)
(1.17048 -0.111522 -8.20328e-24)
(1.22191 -0.0872211 0)
(1.26597 -0.0497189 1.27689e-20)
(1.29869 -0.00854551 0)
(1.32198 0.0282766 1.99493e-24)
(1.3394 0.0577991 -1.70664e-23)
(1.35356 0.080033 1.93576e-20)
(1.3659 0.0958845 -2.04417e-20)
(1.37708 0.106541 -2.08785e-20)
(1.38737 0.113292 -2.08297e-20)
(1.39606 0.117052 2.03679e-20)
(1.3968 0.117508 -9.98955e-21)
(1.36893 0.112004 9.90498e-21)
(1.27812 0.0969112 0)
(1.10105 0.0722906 6.30774e-25)
(0.850046 0.0446588 1.91905e-20)
(0.564497 0.0216878 -7.34945e-21)
(0.377055 0.010719 1.61406e-21)
(0.383577 0.00975318 -6.38225e-24)
(0.252696 0.0044199 -9.25764e-23)
(0.254155 0.00381876 -5.77225e-21)
(0.151709 0.00105522 -2.05268e-21)
(0.145223 0.00106917 0)
(0.112916 0.000180609 -4.33567e-21)
(0.127863 0.00346867 8.36928e-21)
(0.034425 -0.000357156 0)
(0.032338 -0.000180584 7.17411e-22)
(0.0320589 -3.85823e-05 6.8744e-23)
(0.0320165 -3.51602e-06 -2.76688e-24)
(1.00137 -0.015733 0)
(1.00379 -0.0475753 0)
(1.0137 -0.0796884 0)
(1.03532 -0.110588 0)
(1.07062 -0.136365 0)
(1.12091 -0.150395 3.68255e-21)
(1.17817 -0.145171 0)
(1.2376 -0.122035 9.74744e-21)
(1.28684 -0.0795838 -1.22779e-20)
(1.31959 -0.0317284 6.67913e-24)
(1.3394 0.0106671 -1.75045e-23)
(1.35197 0.0444142 -1.88401e-20)
(1.36109 0.0699872 -1.9506e-23)
(1.3687 0.0886398 2.01184e-20)
(1.37572 0.101682 2.06411e-20)
(1.38262 0.110418 2.08904e-20)
(1.38957 0.115975 -1.03143e-20)
(1.3951 0.118971 1.00511e-20)
(1.39113 0.11869 4.05969e-23)
(1.35584 0.112196 9.78591e-21)
(1.25716 0.0960249 2.01695e-20)
(1.07572 0.0710823 -2.19585e-20)
(0.824873 0.0440145 5.95807e-24)
(0.542623 0.0211576 -5.76833e-24)
(0.361662 0.0104013 -1.00304e-22)
(0.36918 0.00961497 9.99853e-23)
(0.243586 0.00461169 -1.18499e-21)
(0.248727 0.0043251 9.15128e-23)
(0.153612 0.00192333 0)
(0.154608 0.00160041 5.17648e-22)
(0.154509 0.00128195 1.02989e-21)
(0.155432 0.00168348 5.16545e-22)
(0.0868382 0.000366967 2.74973e-21)
(0.0820295 0.000795551 0)
(0.038012 -0.000297612 3.25494e-21)
(0.0553273 0.00416583 -5.65433e-21)
(1.00126 -0.0160531 1.08267e-20)
(1.00203 -0.0496338 1.01216e-20)
(1.0092 -0.0856885 0)
(1.02867 -0.123348 5.45426e-21)
(1.06426 -0.158407 -1.12881e-21)
(1.11906 -0.181761 0)
(1.184 -0.183466 -1.20402e-20)
(1.25553 -0.162736 3.8382e-22)
(1.313 -0.112981 1.34877e-20)
(1.34656 -0.0560073 1.29811e-23)
(1.36261 -0.00674138 1.78143e-23)
(1.3699 0.031691 1.83856e-20)
(1.37359 0.0606466 -2.00167e-20)
(1.37607 0.0819573 5.9646e-23)
(1.37845 0.0971828 1.99876e-23)
(1.38134 0.107712 0)
(1.38509 0.11474 2.09605e-20)
(1.38955 0.119186 0)
(1.39236 0.121389 -9.89477e-21)
(1.38394 0.120206 -1.93588e-20)
(1.3417 0.112403 -1.92711e-20)
(1.23549 0.0950708 9.96042e-21)
(1.04944 0.0699792 5.42377e-21)
(0.798708 0.043249 0)
(0.521828 0.0214084 -9.16287e-22)
(0.345562 0.00982794 -1.48675e-21)
(0.353318 0.00914712 1.48964e-21)
(0.232477 0.00440912 -9.08272e-23)
(0.238083 0.00423885 8.62792e-23)
(0.146735 0.00198675 -3.84711e-22)
(0.148434 0.00166478 -1.6044e-22)
(0.151861 0.00155531 3.22611e-22)
(0.150416 0.00187382 -3.23757e-23)
(0.0883211 0.000634111 -3.62553e-24)
(0.0891126 0.000530828 -3.48591e-22)
(0.0891804 0.000374558 -9.23885e-22)
(0.089595 0.000547524 -4.64436e-22)
(0.0274902 -0.000145012 -6.54087e-22)
(0.0268325 -0.000424565 -1.28455e-21)
(0.015377 0.00123934 6.70501e-22)
(1.00108 -0.0157908 -2.30648e-20)
(0.999766 -0.0500448 -1.0114e-20)
(1.00312 -0.0893159 0)
(1.01876 -0.1339 -5.4329e-21)
(1.05292 -0.179891 -2.40185e-21)
(1.11159 -0.215276 0)
(1.18635 -0.22833 1.15464e-20)
(1.27675 -0.212274 -2.84807e-20)
(1.34661 -0.151355 -2.70109e-20)
(1.38126 -0.0817251 0)
(1.39252 -0.0239173 -1.86588e-20)
(1.39361 0.0197983 1.95367e-20)
(1.39127 0.0522443 1.94808e-20)
(1.38818 0.0760916 0)
(1.38551 0.093296 -4.01414e-23)
(1.3839 0.10541 0)
(1.38377 0.113712 -2.08682e-20)
(1.38524 0.119216 1.01289e-23)
(1.38778 0.122636 2.01757e-20)
(1.38817 0.123986 -5.03155e-23)
(1.37549 0.121673 1.90112e-20)
(1.32651 0.112444 0)
(1.213 0.0941353 -4.75295e-24)
(1.02263 0.0689003 0)
(0.772418 0.0430159 0)
(0.501272 0.0211012 -7.62654e-21)
(0.331439 0.00722662 0)
(0.336285 0.00846905 1.5741e-21)
(0.221551 0.00397207 0)
(0.226986 0.00396054 -1.80584e-22)
(0.139411 0.00189855 1.58475e-22)
(0.141071 0.00157078 3.49289e-22)
(0.14467 0.00151226 -1.27413e-22)
(0.143062 0.00183032 -1.27437e-22)
(0.0840546 0.00065522 1.1511e-22)
(0.0851926 0.000558434 -1.15337e-22)
(0.0872962 0.000500993 -2.2778e-22)
(0.0863174 0.000604823 0)
(0.0278741 5.47603e-05 2.67663e-24)
(0.0281805 3.10579e-05 -8.81119e-23)
(0.0283747 -1.46701e-06 -7.95095e-24)
(0.0284139 4.17966e-05 -2.66897e-24)
(1.0008 -0.0148704 1.22384e-20)
(0.997119 -0.0484455 1.34733e-20)
(0.99552 -0.0896361 4.31408e-23)
(1.00486 -0.140641 0)
(1.03447 -0.199359 1.00092e-20)
(1.09581 -0.251166 -4.19813e-23)
(1.18397 -0.283167 9.24547e-21)
(1.30411 -0.275341 1.81609e-20)
(1.39179 -0.196752 1.33926e-20)
(1.42696 -0.109387 1.78782e-23)
(1.43115 -0.0408513 3.74365e-20)
(1.42414 0.00890128 -1.9002e-20)
(1.41459 0.0450173 3.83568e-23)
(1.40525 0.0713062 3.96068e-23)
(1.39705 0.0902759 0)
(1.39054 0.103747 -4.11803e-23)
(1.38606 0.11312 0)
(1.38379 0.119475 0)
(1.38362 0.123635 -2.03388e-20)
(1.38463 0.126084 9.82718e-21)
(1.38281 0.12647 -9.51942e-21)
(1.36593 0.1229 -9.33698e-21)
(1.31034 0.112345 0)
(1.18991 0.0932022 9.00944e-26)
(0.995634 0.0679808 0)
(0.746726 0.04234 6.16457e-21)
(0.260719 0.00505427 0)
(0.481362 0.0208025 0)
(0.211191 0.00137988 -1.02354e-22)
(0.218372 0.0033388 8.95095e-23)
(0.132489 0.00158444 0)
(0.134065 0.0013662 0)
(0.137442 0.00139378 9.47638e-23)
(0.135946 0.00168754 4.08998e-22)
(0.0796652 0.000616796 -1.70466e-22)
(0.0807481 0.000523289 -1.13892e-22)
(0.0828796 0.000487144 -1.14443e-22)
(0.0818565 0.000584224 1.1419e-22)
(0.0264067 5.75482e-05 2.6447e-23)
(0.0268025 3.46418e-05 -5.29928e-24)
(0.027533 1.87164e-05 0)
(0.0271999 4.76139e-05 0)
(1.00047 -0.0132806 0)
(0.994325 -0.0446261 1.57968e-21)
(0.986821 -0.0857966 2.54521e-23)
(0.986859 -0.14157 9.79644e-23)
(1.00679 -0.213921 -6.495e-21)
(1.06824 -0.289011 -3.38728e-21)
(1.17463 -0.353228 -1.59255e-20)
(1.33925 -0.357394 5.31775e-23)
(1.45103 -0.250597 2.36264e-23)
(1.486 -0.1391 -3.98542e-20)
(1.48066 -0.0574302 -1.87594e-20)
(1.46327 -0.000840929 3.79865e-23)
(1.44467 0.0391981 -2.11472e-20)
(1.4278 0.0678612 0)
(1.41333 0.0883792 4.1401e-23)
(1.40144 0.102958 4.13731e-23)
(1.39222 0.113176 4.11992e-23)
(1.38574 0.120187 0)
(1.38196 0.124862 2.07417e-20)
(1.38059 0.127832 0)
(1.38039 0.129319 1.93356e-20)
(1.37651 0.128667 9.31811e-21)
(1.35543 0.123865 0)
(1.29336 0.112128 9.17324e-21)
(1.16641 0.0923448 4.70861e-24)
(0.968941 0.0671471 0)
(0.722219 0.041731 0)
(0.247067 0.00557131 0)
(0.0935691 0.00121715 1.04451e-22)
(0.0947972 0.000252326 -1.04221e-22)
(0.463633 0.0200169 -7.3471e-24)
(0.0984353 0.000950837 0)
(0.130609 0.000713853 0)
(0.129693 7.95244e-05 0)
(0.0758168 0.000413922 0)
(0.0766725 0.000427623 -2.81721e-23)
(0.0785667 0.000438734 -1.12933e-22)
(0.0776423 0.000518622 -8.45425e-23)
(0.0249531 5.40567e-05 4.18661e-23)
(0.025322 3.10118e-05 0)
(0.0260342 1.68289e-05 -2.11618e-23)
(0.0257 4.52073e-05 0)
(1.0001 -0.011086 0)
(0.991701 -0.0386337 -1.50844e-20)
(0.977921 -0.0773625 -1.6893e-20)
(0.966118 -0.134691 1.68233e-20)
(0.970037 -0.218545 -9.30651e-23)
(1.02274 -0.323085 -5.08866e-21)
(1.14824 -0.441636 1.09052e-20)
(1.3707 -0.460591 0)
(1.51162 -0.309816 -5.63269e-23)
(1.54816 -0.167883 8.27841e-20)
(1.53595 -0.0723578 -4.14328e-23)
(1.50993 -0.00886148 0)
(1.48222 0.0351095 4.2319e-20)
(1.45675 0.0660432 -2.17437e-20)
(1.43491 0.0878629 0)
(1.41687 0.10327 -2.16572e-20)
(1.40244 0.114081 -4.14587e-23)
(1.39138 0.121538 0)
(1.38353 0.126545 2.10423e-22)
(1.37869 0.12978 2.03546e-20)
(1.3765 0.131673 -3.9057e-20)
(1.37536 0.132205 -4.55397e-24)
(1.36946 0.13053 -7.86043e-26)
(1.34414 0.124594 -8.93487e-21)
(1.27572 0.111862 0)
(1.14274 0.0915931 -9.43857e-21)
(0.943024 0.0664004 -5.02866e-24)
(0.699535 0.0408913 1.21953e-20)
(0.236071 0.00528757 2.88172e-22)
(0.089227 0.00112684 -1.02846e-22)
(0.0908455 0.000232337 -5.15607e-23)
(0.0212781 0.00023964 1.92332e-23)
(0.0213533 5.35545e-05 2.76022e-24)
(0.0215967 0.000131194 -4.44312e-23)
(0.0217728 -0.000132858 4.45306e-23)
(0.448211 0.0190973 -7.58699e-21)
(0.0222704 0.000367978 0)
(0.0223661 5.1775e-05 0)
(0.0744004 -0.000789433 0)
(0.0757792 -0.00012546 5.57572e-23)
(0.0236974 5.44819e-05 -5.18449e-24)
(0.0239961 2.32255e-05 5.17498e-24)
(0.024612 1.1445e-05 0)
(0.024317 3.8031e-05 0)
(0.999725 -0.00841752 -3.30166e-23)
(0.989556 -0.0307988 0)
(0.970033 -0.0645766 1.71441e-20)
(0.945528 -0.1188 -1.7175e-20)
(0.927787 -0.207442 -1.95339e-20)
(0.952691 -0.340342 8.59433e-21)
(1.07652 -0.534783 -3.96601e-21)
(1.35623 -0.574695 -4.43588e-24)
(1.52337 -0.360628 4.85761e-20)
(1.5686 -0.185805 8.44697e-21)
(1.567 -0.0808086 -8.97697e-23)
(1.54858 -0.0129987 4.25499e-23)
(1.52139 0.0336564 -2.11653e-20)
(1.49094 0.066306 -1.05314e-21)
(1.4621 0.089041 0)
(1.43731 0.104927 -5.76528e-22)
(1.41703 0.116036 0)
(1.40095 0.123703 0)
(1.38865 0.12885 -4.16487e-20)
(1.37985 0.132171 -2.03e-20)
(1.37434 0.134168 3.95985e-20)
(1.37166 0.135073 -9.20997e-24)
(1.36978 0.134699 4.52739e-24)
(1.36186 0.132077 -8.71262e-24)
(1.33217 0.125153 0)
(1.25752 0.1116 -3.84212e-23)
(1.11921 0.0908989 0)
(0.918345 0.0655299 -1.03287e-20)
(0.679068 0.039869 -1.21713e-20)
(0.226517 0.00485729 9.70845e-21)
(0.0847744 0.00101841 -5.10304e-23)
(0.086509 0.000206456 -3.56697e-22)
(0.0203129 0.000188064 2.18542e-23)
(0.0204565 3.08257e-05 4.36879e-23)
(0.0207583 7.34696e-05 4.38215e-23)
(0.0208994 -0.000127113 -2.20204e-23)
(0.436167 0.018281 -1.51105e-20)
(0.0232196 -0.000266997 2.57991e-24)
(0.0237703 -6.97028e-05 -4.37807e-23)
(0.999378 -0.0054482 1.70324e-20)
(0.988109 -0.0216662 1.09858e-22)
(0.964216 -0.0483677 1.71056e-22)
(0.928506 -0.0944777 -2.2733e-20)
(0.885109 -0.177481 4.59707e-20)
(0.860342 -0.327131 -4.07829e-22)
(0.921863 -0.592663 2.61243e-21)
(1.21355 -0.664735 -4.43498e-21)
(1.38292 -0.367583 -3.42505e-20)
(1.44947 -0.174409 -1.21814e-19)
(1.49972 -0.0729033 0)
(1.53187 -0.00860654 1.89026e-22)
(1.53647 0.037065 0)
(1.5192 0.0696115 -1.12229e-21)
(1.49141 0.0924186 8.54236e-23)
(1.46224 0.108257 2.14224e-20)
(1.43624 0.119268 0)
(1.41471 0.126856 -4.1064e-23)
(1.39757 0.13193 4.17792e-20)
(1.38445 0.135162 2.06784e-20)
(1.37508 0.137075 -4.00061e-20)
(1.36926 0.138001 1.92934e-20)
(1.36639 0.138012 1.81369e-23)
(1.36388 0.136818 1.79956e-20)
(1.35377 0.133373 4.30166e-24)
(1.31954 0.125619 8.58612e-21)
(1.23893 0.111346 0)
(1.09616 0.0901431 0)
(0.895273 0.064486 9.89064e-24)
(0.661316 0.0389023 0)
(0.2198 0.00426952 2.03704e-20)
(0.0806756 0.000922014 -5.05995e-23)
(0.0821407 9.93885e-05 -7.83759e-22)
(0.0192205 0.000155269 0)
(0.0193813 -2.90339e-06 4.32339e-23)
(0.0197143 4.52421e-05 0)
(0.0198951 -0.000144675 -2.16423e-23)
(0.429905 0.0187574 -1.49403e-20)
(0.999075 -0.00236254 -3.4175e-20)
(0.987443 -0.011878 -1.87915e-20)
(0.961047 -0.0301117 2.09029e-20)
(0.917539 -0.0642862 -1.91103e-21)
(0.851904 -0.13088 -5.67536e-20)
(0.768503 -0.272195 2.87721e-22)
(0.799818 -0.510446 3.82875e-22)
(0.713843 -0.483997 0)
(0.994986 -0.789432 7.96694e-21)
(0.798794 -0.733367 -1.51006e-22)
(0.716379 -0.662559 -4.71578e-21)
(1.19925 -0.411902 -9.00814e-23)
(0.834992 -0.519122 4.63728e-23)
(0.84611 -0.273668 0)
(1.0555 -0.105783 1.24775e-19)
(0.918434 -0.174241 -4.40004e-20)
(1.22469 -0.0353278 7.13341e-20)
(1.37735 0.00971237 0)
(1.47072 0.0481683 5.221e-20)
(1.50825 0.0773883 2.30564e-20)
(1.50685 0.0987241 0)
(1.48569 0.113724 -8.65084e-23)
(1.45853 0.124092 -4.1883e-23)
(1.43258 0.131204 4.11803e-23)
(1.4105 0.135939 -2.06895e-20)
(1.39276 0.138892 -2.04501e-20)
(1.37919 0.140553 1.99724e-20)
(1.3696 0.141295 -1.94304e-20)
(1.3638 0.141292 -1.88025e-20)
(1.36095 0.140519 -1.80964e-20)
(1.35774 0.13863 -8.5741e-24)
(1.34517 0.134509 -4.13554e-24)
(1.3063 0.126033 -8.46366e-21)
(1.22017 0.111034 0)
(1.07389 0.0892347 9.1084e-21)
(0.874054 0.0633615 -4.96116e-24)
(0.646602 0.0385194 0)
(0.226734 0.00513913 1.72582e-20)
(0.0790189 0.000908909 9.96022e-23)
(0.0786274 -0.000145643 -3.41106e-21)
(0.0181443 0.000130793 0)
(0.018282 -2.97148e-05 4.27968e-23)
(0.0186148 2.33398e-05 -5.37195e-24)
(0.0187982 -0.000173053 -1.6121e-23)
(0.423511 0.0184566 -1.4635e-23)
(0.998822 0.000672637 1.71205e-20)
(0.987508 -0.00205306 1.87421e-20)
(0.960541 -0.0113004 -2.12877e-20)
(0.913487 -0.031688 5.19746e-20)
(0.835079 -0.075245 3.17706e-20)
(0.710114 -0.177942 4.20085e-20)
(0.633811 -0.424778 5.07017e-23)
(0.566318 -0.3514 1.66825e-20)
(0.579803 -0.610986 0)
(0.68358 -0.730289 0)
(0.481682 -0.500309 0)
(0.397728 -0.341064 1.39403e-20)
(0.621581 -0.499968 -1.03328e-20)
(0.5753 -0.67973 -8.48365e-22)
(0.629185 -0.290009 -7.66366e-23)
(0.24485 -0.12517 -7.80838e-21)
(0.217387 -0.14576 0)
(0.2022 -0.0538098 -5.96977e-21)
(0.318734 -0.0800931 0)
(0.671978 -0.172806 0)
(0.611872 -0.015855 -3.26072e-20)
(0.678649 0.0326468 -7.1487e-20)
(0.369537 0.0163272 -4.99322e-20)
(0.467073 -0.0544939 -4.76477e-22)
(1.01143 0.0436587 7.6053e-20)
(1.25181 0.0667003 -5.92188e-20)
(1.40028 0.0897199 2.0539e-22)
(1.47092 0.108167 4.88751e-20)
(1.48789 0.121636 2.30303e-20)
(1.47562 0.130844 0)
(1.45196 0.137018 8.38433e-25)
(1.42697 0.141058 -2.11504e-20)
(1.40487 0.143498 -4.05658e-23)
(1.38691 0.144736 0)
(1.37323 0.145124 -1.97149e-20)
(1.36376 0.144892 1.88968e-20)
(1.35824 0.144094 -1.83333e-20)
(1.35545 0.142668 0)
(1.35132 0.140231 7.54702e-26)
(1.33602 0.135548 8.35169e-21)
(1.29253 0.126367 0)
(1.20145 0.11056 0)
(1.05259 0.0881387 0)
(0.854603 0.0622963 5.02762e-24)
(0.632432 0.0374861 -1.20721e-20)
(0.230571 0.00593365 4.34534e-21)
(0.104419 0.000608026 0)
(0.0892066 0.000465307 -3.22374e-21)
(0.0185745 9.73228e-05 0)
(0.0175621 -0.000187289 -1.08302e-23)
(0.0177107 -4.16526e-05 1.81112e-22)
(0.0177452 -0.000208975 0)
(0.412303 0.0182147 0)
(0.998621 0.00352524 0)
(0.988159 0.00730286 1.79127e-23)
(0.962253 0.00677452 -9.17934e-23)
(0.915782 -4.06611e-05 -5.31322e-20)
(0.835207 -0.0188501 0)
(0.69719 -0.0699695 -4.6064e-20)
(0.518538 -0.257751 -1.81663e-20)
(0.488637 -0.157901 3.30459e-22)
(0.438871 -0.521996 -1.55091e-20)
(0.326475 -0.410471 1.60277e-20)
(0.295169 -0.511774 1.73987e-21)
(0.455432 -0.628735 -1.10393e-21)
(0.363424 -0.39526 0)
(0.196312 -0.225551 -4.69835e-21)
(0.180814 -0.010835 1.32436e-20)
(0.319255 0.0138336 0)
(0.231682 0.023369 -1.81552e-20)
(0.230557 0.0478424 2.56247e-20)
(0.480682 0.0750369 -1.08203e-19)
(0.189215 0.0278125 -6.46781e-20)
(0.15716 0.0220671 -1.83554e-23)
(0.114887 0.00893687 0)
(0.856235 0.0839899 9.27325e-24)
(1.14242 0.101733 0)
(1.3307 0.118267 -5.28875e-20)
(1.43017 0.130951 -2.37483e-20)
(1.46521 0.139303 0)
(1.4626 0.144434 -8.35985e-23)
(1.44328 0.147483 -3.04365e-22)
(1.41986 0.149135 -8.03598e-23)
(1.3982 0.149753 0)
(1.3804 0.149626 3.94208e-20)
(1.36695 0.14899 1.91452e-20)
(1.35789 0.147945 1.84253e-20)
(1.35275 0.146485 -1.76241e-23)
(1.34989 0.144554 8.38935e-24)
(1.34454 0.141699 1.68574e-20)
(1.3263 0.13649 0)
(1.27838 0.126527 0)
(1.18299 0.109828 0)
(1.03226 0.0868416 0)
(0.835892 0.06077 1.01691e-20)
(0.616355 0.0364365 0)
(0.223663 0.00624015 -5.34829e-22)
(0.106512 0.00199979 -1.06103e-22)
(0.107498 0.00101117 -6.40895e-21)
(0.0496554 0.000143166 3.1385e-23)
(0.0460195 0.000642086 -5.46238e-23)
(0.03035 0.00230499 5.41545e-21)
(0.0208371 -0.000354379 -3.03433e-21)