/*--------------------------------*- C++ -*----------------------------------*\
| =========                 |                                                 |
| \\      /  F ield         | OpenFOAM: The Open Source CFD Toolbox           |
|  \\    /   O peration     | Version:  v1912                                 |
|   \\  /    A nd           | Website:  www.openfoam.com                      |
|    \\/     M anipulation  |                                                 |
\*---------------------------------------------------------------------------*/
FoamFile
{
    version     2.0;
    format      ascii;
    class       surfaceScalarField;
    location    "180";
    object      phi;
}
// * * * * * * * * * * * * * * * * * * * * * * * * * * * * * * * * * * * * * //

dimensions      [0 3 -1 0 0 0 0];
oriented        oriented;


internalField   nonuniform List<scalar> 
7352
(
0.00711871
0.00289326
0.0107408
0.00638992
0.00176584
0.00112746
0.0123477
0.00840502
0.00424016
0.00391565
0.000164995
0.000962456
0.0129084
0.00945231
0.00622828
0.00641693
0.000975976
0.00310465
-0.000116685
0.00107904
0.0129863
0.00993615
0.00746485
0.00821578
0.00204936
0.00534354
-0.000145012
0.00313288
-5.30464e-05
0.00113201
0.0128699
0.0101323
0.00808993
0.0093111
0.00295837
0.00730676
3.41625e-05
0.00516424
-0.000176145
0.00325593
-9.94499e-06
0.0011419
0.012689
0.0101989
0.00833214
0.00989016
0.00351705
0.0087524
0.000272884
0.00706797
-0.000276648
0.00526467
-7.64827e-05
0.00332241
-1.94841e-05
0.00116137
0.0124957
0.0102114
0.00837829
0.0101528
0.00374494
0.00966225
0.000386175
0.00863899
-0.00033598
0.00712726
-0.000185513
0.00537365
-8.00555e-05
0.00338296
-1.52322e-05
0.00117656
0.0123109
0.0102027
0.00834575
0.0102439
0.00373822
0.0101595
0.000275495
0.00977289
-0.00043118
0.00873411
-0.000309792
0.00725151
-0.000184706
0.00547827
-6.76535e-05
0.00343535
-5.11315e-06
0.00118168
0.0121433
0.0101857
0.00830355
0.0102449
0.00359411
0.0103881
-6.57221e-05
0.0105006
-0.000637355
0.00997905
-0.000461789
0.00888608
-0.000327654
0.00739443
-0.000163469
0.00557404
-4.06839e-05
0.00347093
-2.19087e-06
0.00118387
0.0119964
0.0101628
0.00829387
0.0101954
0.00338229
0.0104566
-0.000613841
0.0109362
-0.000987925
0.0108511
-0.000683295
0.0102005
-0.000511169
0.00906956
-0.000305079
0.00753601
-0.000118782
0.00565214
-2.77091e-05
0.00349646
-1.73575e-06
0.00118564
0.0118774
0.0101321
0.00834503
0.0101116
0.00315101
0.0104267
-0.00134427
0.011187
-0.00147154
0.0114198
-0.00100145
0.0111692
-0.000751249
0.0104406
-0.00049151
0.00925595
-0.000244912
0.00766215
-9.14345e-05
0.00571586
-2.29448e-05
0.0035177
-1.05025e-06
0.00118669
0.0117861
0.0100993
0.00848639
0.00999074
0.00293874
0.0103238
-0.00224912
0.0113316
-0.00206978
0.0117852
-0.00141831
0.0118367
-0.0010642
0.0114821
-0.000730234
0.0106793
-0.000421125
0.00943214
-0.000202459
0.00777318
-7.71681e-05
0.00577011
-1.90576e-05
0.00353572
-1.35945e-06
0.00118808
0.011725
0.0100621
0.0087486
0.00983703
0.0027783
0.0101512
-0.00333521
0.0114099
-0.00275913
0.0120209
-0.00191189
0.0122788
-0.00144771
0.0122201
-0.0010257
0.0117776
-0.000649802
0.010908
-0.000365972
0.00959566
-0.000176531
0.00787257
-6.7469e-05
0.00581853
-1.82872e-05
0.00355269
-1.55293e-06
0.00118967
0.0116885
0.0100285
0.00916304
0.00964769
0.00271965
0.00989561
-0.00460504
0.011421
-0.00350486
0.0121556
-0.00245119
0.0125603
-0.00187854
0.0127096
-0.00136925
0.0125637
-0.000928554
0.0120563
-0.000580202
0.0111222
-0.000325866
0.00974501
-0.000156448
0.00796157
-6.32042e-05
0.00586349
-1.78692e-05
0.00356906
-1.29514e-06
0.00119101
0.0116604
0.0100061
0.00975615
0.00943535
0.00285669
0.00951066
-0.00601624
0.0113068
-0.00423481
0.012151
-0.00297756
0.012682
-0.00230433
0.012986
-0.00172939
0.0130697
-0.00124169
0.0128768
-0.000840075
0.0123162
-0.000524978
0.0113213
-0.000292664
0.00988125
-0.000146237
0.00804465
-5.96874e-05
0.00590534
-1.61558e-05
0.00358396
-1.7896e-06
0.00119279
0.0116088
0.00999352
0.0105384
0.0092239
0.00341216
0.00887984
-0.00740234
0.0108968
-0.00478506
0.0118571
-0.00336884
0.0125423
-0.00263861
0.0130162
-0.00204786
0.0133045
-0.00155403
0.013382
-0.00112545
0.0131622
-0.000761721
0.0125529
-0.000473965
0.0115027
-0.000273223
0.0100083
-0.00013771
0.00812271
-5.5927e-05
0.00594515
-1.67267e-05
0.0035989
-2.65555e-06
0.00119546
0.0115849
0.00988801
0.0114099
0.00912204
0.00483992
0.00779614
-0.00829699
0.00977449
-0.00481615
0.0109279
-0.00341233
0.0119006
-0.00273916
0.0126428
-0.00222946
0.0131978
-0.00180292
0.0135533
-0.0013967
0.0136532
-0.00101574
0.0134162
-0.00068977
0.0127688
-0.000441946
0.0116714
-0.00025697
0.0101276
-0.00012779
0.0081946
-5.37271e-05
0.00598214
-1.83904e-05
0.00361464
-3.52408e-06
0.00119897
0.0115463
0.00985352
0.0122892
0.00456668
0.00444209
0.00479059
0.00330282
0.00304729
0.00282124
-0.00422811
0.00393708
-0.0034023
0.00319246
-0.00223474
0.00881908
-0.00162597
-0.00284223
0.0103578
-0.00242834
0.0115897
-0.00216131
0.0125746
-0.00190233
0.0132972
-0.00159133
0.013748
-0.00124607
0.0138836
-0.000911753
0.0136382
-0.000639614
0.0129665
-0.000413668
0.0118282
-0.000236613
0.0102364
-0.000121277
0.00826214
-5.5168e-05
0.00601892
-2.04115e-05
0.00363153
-3.99821e-06
0.00120298
0.0113879
0.0100185
0.0131573
0.00445198
0.00453333
0.00550662
0.00385066
0.00616614
0.00378255
-0.00350868
0.00258339
-0.000542124
-0.0015896
0.000769709
0.0009006
0.00392212
0.00145703
0.00129275
-0.0018656
0.00356795
-0.00238879
0.000913169
0.00065672
-0.000542353
0.00227283
-0.000403609
-0.000943759
0.00751918
-0.000598555
-0.00104181
0.00298379
-0.00161476
0.00954416
-0.00177383
0.0112022
-0.00177144
0.0124437
-0.00163558
0.0133414
-0.00139465
0.0138966
-0.00110103
0.0140729
-0.000839889
0.0138385
-0.000594346
0.0131472
-0.000379788
0.0119714
-0.000222412
0.0103375
-0.000119513
0.0083265
-5.73864e-05
0.00605589
-2.17123e-05
0.00364926
-4.23176e-06
0.00120719
0.011088
0.0102568
0.0135879
0.00466089
0.00492714
0.00684185
0.00377628
0.00741364
0.00396152
0.00537435
0.00115771
0.00117264
0.000947323
-3.24242e-05
-0.00136076
0.000718478
0.00148819
-0.000718478
0.00050091
0.000759407
-0.00039015
0.000760971
0.00026657
-0.000180107
0.00165756
-0.000246431
-0.000141671
0.000499035
0.00250389
-0.000463841
-0.00028821
0.00641908
-0.000226456
0.00214681
-0.000241486
-0.00115491
0.00892519
-0.00139904
0.0108298
-0.00148011
0.0122882
-0.00140967
0.0133565
-0.00120871
0.0140043
-0.0010042
0.0142373
-0.000774542
0.0140188
-0.00054339
0.0133108
-0.000353958
0.0121029
-0.000214539
0.0104326
-0.000119932
0.00838904
-5.84147e-05
0.00609258
-2.20893e-05
0.00366711
-4.56465e-06
0.00121175
0.0106806
0.0104495
0.0135908
0.00504648
0.00520731
0.00795372
0.00412085
0.00819054
0.00469029
0.00669292
0.00121394
0.00124375
0.00805513
0.00131605
0.00128328
-0.00111604
0.00171385
0.000559882
0.000557507
-0.00060135
0.000124899
-0.000377501
0.000197394
0.00126385
-5.39738e-05
-1.6149e-05
-0.000124899
0.0019426
-8.39963e-05
-0.000273741
0.00584187
-0.000303982
0.00178843
-2.73052e-05
-4.49949e-05
0.00104251
-8.51949e-06
-1.16293e-05
-0.000894407
0.00842054
-0.00112582
0.0104755
-0.00126265
0.0121412
-0.00119147
0.0133393
-0.00108688
0.014087
-0.000917816
0.0143805
-0.00070279
0.0141782
-0.000501874
0.0134587
-0.000336187
0.0122245
-0.000210711
0.0105233
-0.000119505
0.00845014
-5.82892e-05
0.00612876
-2.2626e-05
0.00368518
-4.8239e-06
0.00121656
0.0102438
0.0105048
0.0132414
0.0107989
0.00847309
0.00476396
0.00876011
0.00492024
0.00918141
0.00138993
0.0016046
0.00958401
0.00230743
0.00198025
0.00233194
0.000595846
0.00294546
0.000630233
-0.0035635
0.00418396
0.000695581
0.000665248
4.38431e-05
0.000516055
0.000143421
0.000127272
0.00055666
-3.59245e-06
-8.13904e-07
0.000406257
0.00165477
-5.55537e-05
-8.45311e-05
-0.000280062
0.00537658
-0.000149087
0.00157114
-0.000112668
-0.000107686
0.000588579
-5.92259e-05
0.000563928
-2.03485e-05
-0.000115642
0.000107123
-0.000645577
0.0079403
-0.000986006
0.0101989
-0.0010466
0.0119964
-0.00105692
0.0133093
-0.000984576
0.0141538
-0.000823251
0.014501
-0.000643883
0.0143202
-0.000471604
0.0135941
-0.000324922
0.0123388
-0.000205996
0.0106098
-0.000117725
0.00850958
-5.85091e-05
0.00616464
-2.28366e-05
0.0037032
-5.27257e-06
0.00122184
0.0097971
0.0105067
0.0127789
0.0109672
-0.0105257
0.0190606
0.00534054
0.0056836
0.00986873
0.00232804
0.00215116
0.00426331
0.00482215
0.000751747
0.00542392
0.00100283
-0.00575586
0.00585649
0.0022068
0.00164832
0.00111191
0.00174216
-0.00240741
0.003103
0.00010353
0.000102716
0.000348568
-1.5377e-06
0.000533545
-2.51697e-05
0.000492538
-4.35274e-05
0.00146207
-0.000114185
-5.68278e-05
-8.81966e-05
0.00489196
-7.2754e-05
0.00135834
-3.10073e-05
-1.43541e-05
0.000457948
-7.80813e-05
0.000429299
-7.90379e-05
0.000331902
-3.68528e-06
-0.000637782
0.00759209
-0.000818327
0.00997066
-0.000906878
0.0118464
-0.000946141
0.0132709
-0.00087455
0.0142051
-0.000749526
0.0146066
-0.000598191
0.0144468
-0.000450915
0.0137201
-0.000314638
0.0124474
-0.000200129
0.0106922
-0.000114932
0.00856601
-5.81601e-05
0.00619995
-2.40482e-05
0.00372199
-5.28743e-06
0.00122712
0.00933605
0.010504
0.0122149
0.0110708
0.0181454
0.0118823
0.0157205
-0.0155716
0.0027428
0.00244886
0.0153441
0.00605991
0.00614368
0.00204085
0.00651734
0.00177749
-0.00754358
0.00170281
0.00104985
0.00385475
0.00485758
-0.0065059
0.00622529
0.00248742
0.000101179
0.000311196
-4.46389e-06
0.000278327
-1.0661e-05
0.000387166
-7.20583e-05
0.000357275
-2.69436e-05
0.00128581
-1.01596e-05
-5.49835e-06
-8.90041e-05
0.00451504
-0.000171839
0.00122373
-4.64256e-06
-6.03067e-06
0.000335193
-8.9276e-06
0.000323856
-3.0165e-06
0.000228282
-2.80382e-05
0.000203574
-5.43301e-05
9.74933e-05
-0.000590536
0.00736434
-0.00066503
0.00972884
-0.00079844
0.0116987
-0.000834076
0.0132304
-0.000792764
0.0142483
-0.000690113
0.0146986
-0.000566121
0.014562
-0.000430169
0.0138356
-0.000301527
0.0125488
-0.00019419
0.0107715
-0.000113437
0.0086213
-5.91706e-05
0.00623507
-2.42611e-05
0.00374096
-5.13867e-06
0.00123226
0.00886318
0.010504
0.011594
0.0111248
0.016715
0.0125012
-0.0142278
0.029919
0.00525057
0.00628472
-0.00730704
0.00779622
0.00225362
-0.00774017
0.002882
-0.00513563
0.00218949
0.00257451
0.00667547
0.00159067
0.000909385
-0.00603736
-0.0049875
0.00248743
9.30293e-05
8.23682e-05
0.000131515
0.000104571
0.000315347
-1.65005e-06
0.000311095
-1.24481e-06
0.0011518
-6.30362e-06
-1.07608e-05
-0.000210501
0.00432138
-0.000186357
0.00103412
-1.54067e-05
-3.87477e-05
0.000307568
-1.11115e-06
0.00030228
-7.39954e-07
9.56436e-05
9.26272e-05
5.43301e-05
-0.000378368
0.00707772
-0.000561674
0.00949206
-0.000703057
0.0115677
-0.000763097
0.0132008
-0.000723491
0.0142817
-0.000645173
0.0147776
-0.000536158
0.014668
-0.000411557
0.0139457
-0.000289831
0.0126445
-0.000188741
0.0108468
-0.000113134
0.00867528
-5.93974e-05
0.0062702
-2.44483e-05
0.00376027
-5.22765e-06
0.00123747
0.00838408
0.010503
0.0109317
0.0111663
0.0150982
0.0127415
0.0280691
0.0143512
0.00699197
-0.00300359
-0.00140614
0.00154237
0.00112591
0.00847223
0.00480446
-0.002882
-0.00257451
0.0017604
0.00407811
9.09772e-05
8.97326e-05
0.000297099
-1.12139e-06
0.000288327
-1.98741e-06
0.000962441
-6.76474e-05
-7.11678e-05
-7.4038e-05
0.00403775
-2.06511e-05
0.000866267
-6.71928e-05
-2.29818e-05
0.000276478
-3.55381e-06
0.000246994
-9.26096e-06
8.86216e-05
8.78817e-05
-0.000255596
0.00677161
-0.00049936
0.00928836
-0.000668863
0.0114734
-0.000689157
0.0131664
-0.000668001
0.0143045
-0.00060834
0.0148498
-0.000509181
0.0147656
-0.000390976
0.0140468
-0.000277836
0.0127336
-0.000184529
0.0109182
-0.000111794
0.00872767
-5.83872e-05
0.00630413
-2.32157e-05
0.00377825
-4.98495e-06
0.00124245
0.00790379
0.0105004
0.0102371
0.0111976
0.0135497
0.0127148
0.0251689
0.0156418
-0.0043324
0.01686
0.0102957
0.000354254
-0.000778978
0.00123229
0.00108904
-0.000228901
0.00057583
-0.000891793
0.00259615
8.67604e-05
8.47732e-05
0.0002037
-2.43524e-05
0.000180139
-4.76063e-05
0.000800151
-6.8536e-06
-1.05298e-06
-1.39963e-05
0.00213238
-3.92814e-06
0.00166767
0.000779878
-3.08285e-07
-5.96376e-08
0.000112946
8.99651e-05
8.12195e-05
7.19586e-05
-9.80913e-05
0.00653752
-0.000167171
-0.000541809
0.00916131
-0.000602767
0.011387
-0.000623822
0.0131223
-0.000623826
0.01432
-0.000574492
0.0149151
-0.00048196
0.0148566
-0.000371377
0.0141403
-0.000268669
0.0128177
-0.000181079
0.0109874
-0.000109443
0.00877873
-5.67177e-05
0.00633762
-2.25777e-05
0.00379584
-5.36417e-06
0.00124781
0.00742945
0.0104932
0.00951604
0.0112215
0.0121618
0.0125853
0.0219885
0.0158952
0.01829
0.0142118
-0.00143206
0.0067542
0.00597042
-0.000996898
0.000125352
-0.000391128
0.000588375
-0.000109636
0.000294335
0.00159293
-0.000428848
4.76063e-05
8.31118e-05
8.20593e-05
0.000766495
-5.76234e-07
-4.81728e-08
-0.000188912
0.00222319
0.000442513
0.000319423
1.14424e-07
5.09631e-07
-3.37041e-06
0.00149286
-1.07345e-05
8.17513e-05
8.16914e-05
-0.000183723
0.00641231
-0.00023287
-0.000114531
0.00217055
-0.00048927
0.00904782
-0.00051592
0.0112791
-0.000571633
0.0130701
-0.00059063
0.0143362
-0.000544327
0.0149775
-0.000452985
0.0149382
-0.000355799
0.0142275
-0.000261679
0.0128983
-0.000174342
0.0110523
-0.000105438
0.00882744
-5.48937e-05
0.00636993
-2.16696e-05
0.00381214
-4.80486e-06
0.00125261
0.00696256
0.010484
0.00877408
0.0112351
0.0109336
0.0124498
0.0189244
0.0156495
0.0179394
0.0162458
0.0098984
0.0110676
0.0020724
0.00388527
3.17524e-05
-1.90157e-05
0.000943612
-0.000347583
1.57165e-05
0.00043876
-5.00712e-06
2.01036e-05
8.11149e-05
8.10665e-05
-3.5847e-05
0.000474989
0.000283109
4.66492e-07
8.11806e-05
8.16902e-05
-2.41205e-05
0.00141817
-1.57162e-05
-6.60534e-06
0.000470859
0.00211663
-0.000129803
-0.000209735
0.00630627
-0.000173492
0.00207525
-0.000191483
-0.000361729
0.00889364
-0.000452297
0.0111598
-0.000546059
0.0130255
-0.000565477
0.0143574
-0.000508795
0.0150333
-0.000431401
0.0150139
-0.000341744
0.0143075
-0.000252085
0.0129761
-0.0001699
0.0111168
-0.000102751
0.0088753
-5.28663e-05
0.00640112
-2.151e-05
0.00382884
-4.96994e-06
0.00125758
0.00650269
0.0104758
0.00802371
0.0112344
0.00982322
0.0123454
0.0161791
0.0151952
0.0166422
0.0169467
0.0114499
0.0146943
0.00475493
0.00838512
0.000641844
2.36547e-05
0.00321978
-0.000790116
0.000699998
0.000121872
0.000134481
0.000169534
-5.33022e-05
-2.50568e-05
1.07092e-05
3.08127e-05
0.00027782
-1.31746e-06
8.21566e-05
-0.000462351
0.000448251
-1.00185e-05
0.00134748
-1.99685e-05
-3.91429e-05
-7.20777e-06
0.00204502
-0.000179503
-0.000117007
0.00612318
-6.16228e-05
0.00200015
-0.000128612
0.00129922
-9.02561e-05
-5.29647e-05
-0.000278548
0.0087199
-0.000442295
0.0110561
-0.000542338
0.0130024
-0.000526756
0.0143754
-0.000478482
0.0150804
-0.000408302
0.0150804
-0.000326527
0.014382
-0.000242418
0.0130486
-0.00016629
0.0111803
-9.87656e-05
0.00892119
-5.12715e-05
0.00643087
-2.12967e-05
0.00384516
-5.50247e-06
0.00126308
0.0060513
0.0104665
0.00727375
0.0112256
0.0087879
0.0122698
0.0137976
0.0147269
0.0149453
0.016892
0.0117232
0.0166734
0.00683062
0.0126186
0.00224654
0.00678041
-0.00032723
0.000987514
3.38369e-05
2.95298e-05
0.000348377
-3.99101e-05
0.00291133
-0.000234304
3.38935e-06
2.55559e-05
2.47382e-05
4.49729e-05
-1.12284e-05
-2.12738e-05
-2.08006e-05
-5.47322e-06
0.00027221
-1.597e-06
8.08392e-05
0.000438112
-9.82796e-06
0.000264218
-2.02641e-06
0.000415972
-1.70026e-05
0.00127731
-7.8823e-05
-7.87618e-05
0.00194639
-6.3245e-05
-4.87268e-05
0.00593279
-3.94166e-05
0.00191423
-2.94591e-05
0.00121295
-1.88712e-05
-4.53806e-05
-0.000394557
0.000363826
-5.95236e-05
-3.15477e-05
-0.000286795
0.00856442
-0.000475852
0.0109896
-0.000508673
0.0129844
-0.000490251
0.0143871
-0.000447183
0.0151193
-0.000388346
0.0151422
-0.000314168
0.0144537
-0.000233456
0.0131158
-0.000157646
0.0112392
-9.52804e-05
0.00896519
-5.01599e-05
0.00645973
-2.14183e-05
0.00386108
-5.08231e-06
0.00126816
0.00560466
0.0104605
0.0065295
0.0112109
0.00779512
0.0122183
0.011739
0.0143285
0.0131643
0.0165079
0.0112037
0.0174115
0.00790966
0.0155944
0.00401818
0.010847
0.0012258
0.00590298
0.000943907
-1.39497e-05
1.76492e-05
-7.8113e-05
0.000104825
4.35229e-06
2.77174e-06
-4.1295e-05
3.49246e-06
2.69552e-06
-1.34773e-05
0.000283257
-6.00483e-05
0.00268811
-4.21239e-05
4.21791e-06
-2.65507e-05
9.98265e-06
-7.75834e-06
1.12226e-05
1.06638e-05
5.47322e-06
-2.62739e-05
7.92422e-05
0.000255986
-1.59401e-06
7.7216e-05
0.000242179
-3.19544e-06
0.000346091
-6.10852e-05
0.000322457
-5.5126e-05
0.00116325
-1.05735e-05
-2.96906e-06
0.00188397
-1.84636e-05
-4.00746e-05
0.00574963
-6.35434e-05
0.0018594
-1.48418e-05
0.00113723
-6.16736e-07
-2.82628e-06
-0.000297346
0.000284959
-6.48322e-06
-2.02684e-05
-0.000219106
0.000180781
-2.11982e-05
-8.47387e-06
-0.000374748
0.00846337
-0.000467324
0.0109483
-0.000464634
0.0129587
-0.00044489
0.0143848
-0.000415359
0.0151463
-0.000370279
0.0151983
-0.000302861
0.0145231
-0.000225898
0.013184
-0.000151977
0.0112959
-9.26471e-05
0.00900768
-5.03773e-05
0.00648869
-2.08164e-05
0.00387681
-3.82649e-06
0.00127199
0.00516436
0.0104534
0.00579846
0.0111914
0.00682889
0.0121772
0.0099322
0.0140252
0.0114442
0.0160486
0.010287
0.0174246
0.00813239
0.0171887
0.00531223
0.0143004
0.0024908
0.009582
0.00083159
0.00535465
0.000897924
-2.06135e-05
6.54893e-06
-0.000115991
0.000114403
-7.68186e-06
-4.67816e-06
7.71393e-07
5.71507e-06
-5.29511e-06
9.82171e-06
-1.74504e-07
-2.5234e-06
9.69033e-07
3.66454e-06
-6.80251e-06
-2.45712e-06
0.000253891
-6.96885e-05
0.00250391
4.3875e-06
-1.20741e-06
-1.50513e-05
7.56219e-05
7.24266e-05
0.000162453
-4.27547e-05
0.000107327
0.000276417
-2.03184e-06
0.000273967
-5.18721e-07
0.00112042
-1.262e-06
-3.88061e-07
0.00183586
-1.65385e-05
-8.30732e-05
0.00560716
-0.000149159
0.00179763
-2.52969e-05
0.00110705
-7.28579e-07
-7.41225e-07
-0.000271418
0.000270988
-1.84938e-07
-2.7713e-07
-8.70587e-05
8.05756e-05
-6.39527e-05
4.27547e-05
-0.000421667
0.00841775
-0.000411287
0.010895
-0.000399089
0.0129129
-0.000405199
0.0143747
-0.000398826
0.0151748
-0.000360128
0.0152556
-0.00029567
0.0145929
-0.000216645
0.0132487
-0.000146963
0.0113502
-9.33684e-05
0.00905067
-4.88957e-05
0.00651676
-2.01383e-05
0.00389312
-4.94458e-06
0.00127693
0.00472832
0.0104469
0.00507843
0.0111736
0.00587757
0.0121426
0.00830973
0.0137997
0.00983161
0.0156378
0.00922245
0.0171131
0.00780725
0.0177498
0.00593079
0.0165702
0.00366059
0.0131306
0.00171658
0.008697
0.000658357
0.0049502
0.000850884
-2.31967e-05
5.60053e-07
-0.000114121
0.000115906
-2.23973e-05
7.73968e-07
6.05423e-06
-1.31285e-05
1.08997e-05
-5.45336e-06
-1.5145e-05
-2.66145e-06
-1.40093e-05
-3.63047e-07
1.52803e-06
-1.74486e-07
1.20741e-06
0.000256063
-9.72873e-05
0.00234512
7.85437e-05
7.80251e-05
0.000269905
-1.78309e-07
0.000269509
9.0769e-09
0.00109204
-4.16578e-07
-1.10239e-06
0.00175823
-4.36608e-05
-0.00019544
0.00556925
-0.000188285
0.00169641
-8.73177e-05
0.00106951
-2.2581e-06
-5.03502e-07
-0.000268817
0.000268242
-1.52325e-07
-4.85737e-08
-7.77479e-05
7.75631e-05
-0.000336759
0.00834323
-0.00031458
0.0108105
-0.000346098
0.0128538
-0.000383215
0.0143591
-0.000389953
0.0152047
-0.000350139
0.0153101
-0.000282267
0.0146585
-0.000210362
0.0133121
-0.00014287
0.0113997
-8.89279e-05
0.0090907
-4.83833e-05
0.00654501
-2.08942e-05
0.00390908
-4.58942e-06
0.00128153
0.00429502
0.0104414
0.00437122
0.011154
0.0049387
0.0121126
0.00681791
0.0136346
0.00831773
0.0153135
0.00812718
0.0167331
0.00719691
0.0177234
0.00598721
0.0176934
0.0044082
0.0158226
0.00267882
0.0121683
0.00131462
0.00804073
0.000583909
0.00462235
0.00079846
-3.31377e-05
-1.17331e-05
-0.000112698
0.00010897
-1.94638e-05
3.77284e-06
-1.13583e-05
-4.76958e-06
-3.0067e-06
-1.56341e-06
-1.69925e-06
-1.18115e-05
1.22644e-06
5.14361e-06
1.67084e-06
-7.12407e-06
-9.90525e-07
-1.35354e-06
0.000278631
-0.000134005
0.0022005
7.73849e-05
7.7394e-05
0.000267953
-1.26865e-07
0.000266915
-6.37909e-08
0.00103197
-1.07661e-06
-5.03651e-06
0.00166119
-0.000160204
-0.00015537
0.00546048
-7.26173e-05
0.00163737
-0.000164444
0.000966534
-1.68297e-05
-5.03599e-06
-0.000266483
0.000264557
-3.29296e-07
-6.95511e-08
-7.73455e-05
7.71933e-05
-0.000197093
0.00822573
-0.000245964
0.0107103
-0.000324815
0.0127954
-0.000381939
0.014351
-0.000386894
0.0152414
-0.00034108
0.0153689
-0.0002689
0.014717
-0.000200783
0.01337
-0.000138968
0.0114497
-8.69062e-05
0.00912922
-4.72141e-05
0.00657133
-1.98708e-05
0.00392436
-4.45437e-06
0.00128599
0.0038683
0.0104336
0.00367926
0.0111335
0.00400762
0.012085
0.00541131
0.0135192
0.00687966
0.0150726
0.00704889
0.0163917
0.00647393
0.0174561
0.0056873
0.0180233
0.00467594
0.0174256
0.00341416
0.0150872
0.00209833
0.0113846
0.00110629
0.00751833
0.000561561
0.00433943
0.000747781
-6.11368e-05
-2.21793e-05
-0.000103357
9.54834e-05
-2.52662e-05
-6.12333e-06
-7.87117e-07
-7.3505e-06
-6.38438e-06
-4.93845e-06
-1.62659e-06
-1.54219e-07
4.01604e-06
-7.02265e-06
6.89705e-07
-1.02673e-06
2.31678e-06
-1.29009e-06
0.000310241
-0.000171408
0.00206167
7.70665e-05
7.70029e-05
0.000263787
-3.02233e-07
0.000259323
-5.6827e-07
0.000898828
-2.84607e-05
-6.40273e-05
0.00157804
-9.60421e-05
-4.52394e-05
0.00532602
-1.74064e-05
0.00154101
-3.55955e-05
0.000852478
-5.58484e-05
-6.22352e-05
-0.000255295
0.000241554
-3.08283e-06
-1.00392e-06
-7.69333e-05
7.66045e-05
-0.000129918
0.00810969
-0.000225145
0.0106107
-0.000334652
0.0127481
-0.000397259
0.0143614
-0.000383563
0.0152839
-0.000321145
0.0154211
-0.000260145
0.0147764
-0.000192819
0.0134238
-0.000134193
0.011497
-8.42293e-05
0.00916623
-4.32725e-05
0.00659474
-1.92928e-05
0.00393921
-4.31449e-06
0.00129032
0.00344655
0.0104269
0.00299827
0.0111144
0.00308033
0.0120609
0.00405462
0.0134417
0.00549813
0.0149006
0.00599128
0.0161302
0.00571775
0.0171479
0.00521033
0.017933
0.00458133
0.0181179
0.0037826
0.0170572
0.00277784
0.0144077
0.00175524
0.0107357
0.00100097
0.00707891
0.000565661
0.00408402
-0.00011369
0.000690064
-8.45983e-05
5.67784e-05
-3.33136e-05
-1.12916e-05
1.04549e-05
-1.86405e-05
-8.98581e-06
-8.09591e-06
-3.95606e-07
-2.62638e-06
8.89819e-06
-1.29546e-05
-2.32709e-06
6.26582e-06
-2.30477e-06
-8.64905e-06
-2.5365e-06
1.29009e-06
0.000331439
-0.000186668
0.0019169
7.63025e-05
7.57347e-05
0.000221619
-8.52257e-06
0.000178882
-2.1287e-05
0.000780722
-1.96471e-05
-4.638e-06
0.00150987
-1.4107e-05
-1.84062e-05
0.00522584
-1.13268e-05
0.00149845
-5.99007e-06
0.000746807
-8.72176e-08
-1.59774e-06
-0.000158489
0.000102641
-4.18395e-05
-7.47308e-05
7.16486e-05
-0.000110432
0.00799497
-0.00025175
0.0105278
-0.000374507
0.0127254
-0.000405633
0.0143835
-0.000360283
0.015323
-0.000306652
0.0154676
-0.000241657
0.0148252
-0.000182834
0.0134725
-0.000130025
0.0115428
-8.0994e-05
0.00920396
-4.53951e-05
0.00662084
-1.8613e-05
0.00395352
-4.17769e-06
0.00129451
0.00303246
0.010417
0.00233423
0.0110911
0.00215965
0.012035
0.00271914
0.0133964
0.00414827
0.0147916
0.00494792
0.0159439
0.0049576
0.0168904
0.00466092
0.0176973
0.00427146
0.0182429
0.00381231
0.0180882
0.00318557
0.0166495
0.00236799
0.0137949
0.00155655
0.0101801
0.00095353
0.00669104
0.0005745
0.00384096
2.42108e-05
-4.53713e-05
-2.43717e-05
-1.13789e-05
-0.000106694
0.000610091
2.06919e-05
-2.97922e-05
-3.50632e-06
-5.73227e-06
1.67331e-05
-1.96303e-05
-6.08866e-06
1.43106e-05
-5.67408e-06
-1.36907e-05
3.39312e-07
-2.00758e-06
4.84123e-06
-7.16831e-06
2.5365e-06
0.000358001
-0.000212607
0.00177151
6.31263e-05
4.18395e-05
8.29943e-05
7.83562e-05
0.000732991
-3.67121e-07
7.14529e-08
0.00148478
-4.72867e-06
-1.15026e-05
0.00513247
-5.56392e-06
0.00147845
-4.99125e-06
0.000727098
4.86979e-08
-1.48568e-07
-7.67584e-05
7.66709e-05
-0.000137394
0.0078806
-0.000316585
0.0104698
-0.000408457
0.0127282
-0.000378137
0.0144013
-0.000331035
0.0153474
-0.000279776
0.0155057
-0.000231177
0.0148736
-0.000178776
0.0135212
-0.000127409
0.0115892
-8.21689e-05
0.00924074
-4.50369e-05
0.00664727
-1.79461e-05
0.0039673
-4.22789e-06
0.00129875
0.00262802
0.0104052
0.00168661
0.0110644
0.00124318
0.0120077
0.00136889
0.0133854
0.00281429
0.0147303
0.00391537
0.0158241
0.00419844
0.0167031
0.00408966
0.0174617
0.00386004
0.0181087
0.00361258
0.0184426
0.00329199
0.0179818
0.0027838
0.0162337
0.00210826
0.0132432
0.00144289
0.00969076
0.000929058
0.00633648
0.000590175
0.00360879
-9.53744e-05
-3.47854e-05
-2.19092e-05
6.75141e-05
-7.74079e-05
-6.50802e-06
-7.97044e-06
6.65198e-05
-4.80435e-06
-5.57993e-06
-0.000127989
0.000525469
2.09599e-05
-3.48192e-06
-1.57655e-06
2.08276e-05
-2.02714e-05
-2.86459e-06
-5.04319e-06
1.45108e-05
-1.5722e-05
-4.87753e-06
8.83665e-06
-6.82907e-06
0.000376258
-0.00022715
0.0016224
7.63035e-05
7.63749e-05
0.000722515
-1.21082e-07
-2.29802e-08
0.00146992
-2.97275e-06
-7.80384e-06
0.00502375
-2.08785e-05
0.00146325
3.99543e-06
-2.89244e-06
0.000717858
-1.41394e-07
-1.92429e-07
-7.62263e-05
7.6275e-05
-0.000227738
0.00779175
-0.000400861
0.0104622
-0.000378354
0.0127284
-0.000338584
0.0144089
-0.000300611
0.0153682
-0.000263705
0.0155383
-0.000221909
0.0149167
-0.000175153
0.013569
-0.000125389
0.0116324
-7.89064e-05
0.00927461
-4.20482e-05
0.00667139
-1.78114e-05
0.0039809
-4.30529e-06
0.00130307
0.00223395
0.0103922
0.0010622
0.0110298
0.00033147
0.011976
-2.61732e-05
0.0134028
0.00147998
0.0147197
0.00288561
0.01576
0.00343905
0.0165836
0.00350997
0.0172828
0.00341149
0.0179102
0.00329106
0.0184302
0.00316655
0.0185681
0.00294147
0.0178241
0.00251918
0.0158227
0.00194687
0.0127392
0.0013758
0.00924402
0.000922037
0.00600461
0.000604079
0.00338097
-0.000149676
-4.31491e-05
-3.05347e-05
9.04875e-05
-0.000100662
-1.26136e-05
-1.19952e-05
-6.05278e-06
-2.77741e-06
2.28805e-05
-2.70315e-05
-2.35715e-06
1.82967e-05
-3.38661e-06
1.83171e-05
-4.82478e-06
1.27372e-05
-0.000134985
0.000433313
9.25534e-06
7.67883e-06
1.70182e-05
-1.23329e-06
-1.56804e-06
-4.87752e-06
0.00039649
-0.000248005
0.00147391
7.61539e-05
7.6131e-05
0.000417813
4.63531e-08
1.39901e-07
0.000296886
0.00145721
-1.22855e-06
-5.40906e-07
-2.33673e-05
0.00488567
-6.62896e-05
0.00143913
-2.39492e-07
-2.55793e-06
0.000450518
-2.87099e-05
0.000452443
-4.81817e-06
-7.59385e-05
7.57972e-05
-0.000367623
0.0077585
-0.000368934
0.0104528
-0.000320311
0.0127101
-0.000289138
0.0143974
-0.00027
0.0153745
-0.00024743
0.0155638
-0.000215527
0.0149571
-0.000173626
0.0136172
-0.000123286
0.0116768
-7.63477e-05
0.00930892
-4.14013e-05
0.00669499
-1.77264e-05
0.00399433
-4.15739e-06
0.00130724
0.00185594
0.0103751
0.000470417
0.0109838
-0.000572585
0.011934
-0.00149886
0.0134488
0.000125133
0.0147575
0.0018593
0.015746
0.00267918
0.0165199
0.00292602
0.0171675
0.00295049
0.0177438
0.00291709
0.0182842
0.0029047
0.0186921
0.00287283
0.0186367
0.00270789
0.0176354
0.00234761
0.015422
0.00184446
0.0122706
0.00133689
0.00882917
0.000920675
0.00568801
0.000618143
0.00315932
-0.000207812
-4.22199e-05
-3.46303e-05
0.000112103
-0.000128353
-2.68994e-05
-9.18607e-06
-9.90782e-06
3.60307e-05
-3.96437e-05
-8.99999e-06
3.25797e-05
-8.54451e-06
2.9514e-05
-2.98759e-06
-2.9463e-07
8.2114e-06
-1.05685e-05
4.82478e-06
-0.000153495
0.000338799
6.44556e-06
0.000410771
-0.000261909
0.00132504
7.58435e-05
7.59834e-05
0.000267027
1.14869e-06
0.000451748
-5.36135e-07
0.00045131
-1.04519e-07
0.00142158
-8.4323e-07
-4.98147e-06
-0.000107968
0.00481974
-0.000193739
0.00137394
-4.75796e-06
-1.38949e-05
0.000451126
-5.62136e-08
0.000448912
-3.45251e-07
0.000263715
-1.50642e-06
-0.000352316
0.00774188
-0.000275807
0.0104083
-0.000251796
0.0126728
-0.000247981
0.0143754
-0.00024989
0.015377
-0.000244584
0.0155928
-0.000221156
0.0150046
-0.000175372
0.0136693
-0.000125919
0.0117264
-8.06149e-05
0.00934814
-4.08348e-05
0.00671811
-1.5393e-05
0.00400559
-4.18055e-06
0.00131144
0.0014975
0.0103559
-7.35885e-05
0.0109193
-0.0014651
0.0118762
-0.00308394
0.013519
-0.00126638
0.0148403
0.000830918
0.0157858
0.00191485
0.0165103
0.00233759
0.0171083
0.0024826
0.0176354
0.00252758
0.0181333
0.00257905
0.0186099
0.00265372
0.0189112
0.00268055
0.0186641
0.00255861
0.0174244
0.00223434
0.0150321
0.00177848
0.011829
0.00131267
0.00843718
0.000921862
0.00538429
0.00062781
0.00294228
-0.000273218
-4.93648e-05
-3.87265e-05
0.000140732
-0.000152347
-3.06055e-05
-2.22509e-05
4.34651e-05
-0.000103112
-1.79725e-06
3.57291e-05
-1.18483e-06
4.28769e-05
-8.5982e-06
-6.67492e-06
2.23953e-05
-2.46755e-05
-6.71924e-06
1.38507e-05
1.08632e-05
-0.000163996
0.000240883
0.000425551
-0.000279743
0.00117921
7.71321e-05
0.000263371
-1.94386e-07
0.000263087
1.78367e-07
0.000448437
-3.69536e-07
0.000444927
-1.47223e-06
0.00132044
-1.67343e-05
-3.77374e-05
-0.000181836
0.00476792
-0.000118667
0.00126813
-5.37517e-05
-8.76774e-05
0.000442686
-2.51729e-06
0.000433172
-4.38117e-06
0.000262967
6.32874e-08
0.000262728
-1.07446e-07
7.56255e-05
-0.000196744
0.00766281
-0.000183157
0.0103397
-0.000196344
0.0126211
-0.0002242
0.0143497
-0.000250201
0.0153826
-0.000250577
0.0156223
-0.000220925
0.0150502
-0.000172148
0.0137155
-0.000116577
0.0117624
-7.30543e-05
0.00938037
-4.04986e-05
0.00674323
-1.72608e-05
0.00401869
-2.81758e-06
0.00131428
0.00116545
0.0103344
-0.000549302
0.0108314
-0.00234172
0.0117961
-0.00482515
0.0136175
-0.00271468
0.0149672
-0.000201925
0.0158731
0.0011489
0.0165518
0.00174374
0.0171042
0.00200887
0.0175821
0.00213148
0.0180315
0.00222925
0.0184831
0.00235653
0.018907
0.0024951
0.0190966
0.0025644
0.0186583
0.0024615
0.0171972
0.00216076
0.0146499
0.00173549
0.0114062
0.00129673
0.00806231
0.000921584
0.00509051
0.000636512
0.00273131
-0.000339485
-5.34375e-05
-4.42941e-05
0.000167608
-0.00018457
-3.24042e-05
-2.34667e-05
0.00011313
-0.000123955
-1.04148e-05
-9.36625e-06
-3.08114e-06
-9.15068e-06
1.21239e-05
-1.39212e-05
2.86331e-05
-1.50229e-06
1.09391e-05
-2.71753e-06
-6.71925e-06
-0.000184092
0.000145214
0.000434747
-0.000291823
0.00103626
7.5431e-05
7.56092e-05
0.000262286
7.16193e-08
0.000260944
-1.30555e-07
0.000424566
-8.13072e-06
0.000404085
-1.72581e-05
0.00123598
-7.77511e-05
-7.19379e-05
-5.76206e-05
0.00464277
-1.39686e-05
0.00117955
-4.31356e-05
-1.9109e-05
0.000383337
-3.30041e-05
0.000353092
-5.7432e-05