/*--------------------------------*- C++ -*----------------------------------*\
| =========                 |                                                 |
| \\      /  F ield         | OpenFOAM: The Open Source CFD Toolbox           |
|  \\    /   O peration     | Version:  v1912                                 |
|   \\  /    A nd           | Website:  www.openfoam.com                      |
|    \\/     M anipulation  |                                                 |
\*---------------------------------------------------------------------------*/
FoamFile
{
    version     2.0;
    format      ascii;
    class       volVectorField;
    location    "180";
    object      U;
}
// * * * * * * * * * * * * * * * * * * * * * * * * * * * * * * * * * * * * * //

dimensions      [0 1 -1 0 0 0 0];


internalField   nonuniform List<vector> 
3753
(
(0.440343 -0.0538533 -7.69742e-21)
(0.790314 -0.0842235 2.04705e-20)
(0.121772 -0.0463556 -9.04484e-21)
(0.927951 -0.0768407 1.15747e-20)
(0.440591 -0.104618 1.00729e-20)
(0.0875406 -0.0395865 0)
(0.977355 -0.064069 -2.64914e-20)
(0.689138 -0.140172 1.67905e-24)
(0.295416 -0.111673 -1.10145e-24)
(0.0897801 -0.039209 0)
(0.991482 -0.0552954 -1.07651e-24)
(0.841981 -0.154416 -2.86058e-20)
(0.515763 -0.169791 3.44693e-25)
(0.269984 -0.116283 0)
(0.096845 -0.0399083 -1.74476e-20)
(0.993774 -0.0496419 -5.91784e-20)
(0.921866 -0.156471 2.72332e-20)
(0.698717 -0.209858 -3.4931e-20)
(0.455081 -0.185949 -3.37932e-20)
(0.277494 -0.116806 0)
(0.0960646 -0.0395429 -1.06775e-20)
(0.993279 -0.0453598 1.29479e-19)
(0.957911 -0.152958 0)
(0.823125 -0.23288 7.70445e-20)
(0.627943 -0.242961 3.0996e-20)
(0.45017 -0.187262 -3.2988e-24)
(0.278017 -0.114843 1.35619e-20)
(0.0941452 -0.0391181 -1.16181e-20)
(0.992687 -0.0415926 -7.04729e-20)
(0.971492 -0.147228 -6.60494e-20)
(0.895007 -0.243619 -4.28898e-20)
(0.765123 -0.284664 -4.23345e-20)
(0.611889 -0.248574 0)
(0.44873 -0.183603 1.3733e-20)
(0.274385 -0.113652 7.5951e-21)
(0.0931898 -0.0386353 0)
(0.992463 -0.0378781 -9.8929e-24)
(0.974908 -0.140593 6.6113e-20)
(0.930433 -0.247027 0)
(0.858013 -0.312682 4.07879e-20)
(0.750093 -0.297612 -3.58304e-24)
(0.605555 -0.244345 -1.25632e-20)
(0.444118 -0.181621 -1.34051e-24)
(0.271611 -0.112346 2.18945e-21)
(0.0915475 -0.0379297 0)
(0.992509 -0.0339071 9.90352e-20)
(0.974064 -0.133244 -9.37795e-20)
(0.944164 -0.246545 -1.01163e-23)
(0.912655 -0.331252 6.43027e-20)
(0.85451 -0.333715 6.08189e-24)
(0.741987 -0.294764 0)
(0.599057 -0.241831 0)
(0.440192 -0.179622 8.1114e-22)
(0.268056 -0.110426 -1.60261e-25)
(0.0893886 -0.0371372 0)
(0.99268 -0.0294813 7.33274e-21)
(0.971311 -0.124859 2.01721e-19)
(0.94584 -0.243957 1.08821e-19)
(0.940623 -0.344887 1.57177e-20)
(0.925155 -0.359206 0)
(0.850538 -0.333582 -2.00373e-24)
(0.73411 -0.292601 -7.07293e-25)
(0.594385 -0.23937 -5.65696e-21)
(0.435598 -0.176869 4.05575e-26)
(0.263362 -0.10835 -8.7745e-21)
(0.0872868 -0.0363416 1.08911e-20)
(0.992913 -0.024472 -1.07605e-19)
(0.967388 -0.11492 -1.07802e-19)
(0.940411 -0.239841 -1.10112e-19)
(0.952157 -0.357053 -1.71633e-19)
(0.969747 -0.377816 -4.20397e-24)
(0.929167 -0.36184 0)
(0.843934 -0.332714 0)
(0.729204 -0.290165 2.90263e-21)
(0.589476 -0.236098 2.12004e-21)
(0.429666 -0.174001 6.37498e-22)
(0.258416 -0.106293 -1.34146e-20)
(0.0852617 -0.0355564 1.34741e-20)
(0.99323 -0.0188008 0)
(0.962459 -0.102813 0)
(0.929799 -0.234034 -6.83126e-23)
(0.9536 -0.369932 2.0412e-19)
(0.997622 -0.392963 2.6362e-20)
(0.982505 -0.382287 4.19468e-24)
(0.926295 -0.36258 -1.49943e-24)
(0.840187 -0.330885 -2.34143e-25)
(0.724615 -0.28676 -2.68034e-22)
(0.583263 -0.232789 6.47616e-21)
(0.423175 -0.171178 -1.0636e-20)
(0.2535 -0.104248 -1.65057e-20)
(0.0833113 -0.0348068 0)
(0.993717 -0.0124335 0)
(0.956547 -0.0878548 1.43212e-19)
(0.914409 -0.226018 1.80503e-19)
(0.947925 -0.384735 -1.0859e-19)
(1.01578 -0.40691 -2.56785e-20)
(1.01804 -0.397866 2.01605e-24)
(0.983943 -0.384128 1.52851e-24)
(0.925214 -0.361581 1.50248e-24)
(0.836764 -0.327761 -1.1546e-22)
(0.71885 -0.283322 5.27711e-21)
(0.576335 -0.229575 9.59746e-21)
(0.416518 -0.168357 1.79417e-24)
(0.248675 -0.102284 1.83325e-20)
(0.0814801 -0.0340918 -4.33864e-24)
(0.994495 -0.00539907 6.21938e-20)
(0.949697 -0.0693292 -6.67393e-20)
(0.894226 -0.215005 2.58967e-20)
(0.935658 -0.401953 3.28766e-23)
(1.02772 -0.420482 3.47069e-23)
(1.04181 -0.410488 7.60136e-21)
(1.02243 -0.399585 -9.13514e-21)
(0.985804 -0.383508 -1.26177e-24)
(0.923708 -0.358903 1.35511e-23)
(0.832043 -0.324454 -4.93193e-21)
(0.712311 -0.279989 8.15011e-21)
(0.569029 -0.226356 0)
(0.409841 -0.165636 -3.17871e-20)
(0.244044 -0.100393 -9.94883e-24)
(0.079726 -0.0334002 1.85567e-20)
(0.995642 0.00216216 -1.2429e-19)
(0.94225 -0.0466274 2.80971e-21)
(0.869414 -0.199449 -2.11564e-19)
(0.914511 -0.421587 0)
(1.03279 -0.432132 3.93202e-23)
(1.0555 -0.420124 -7.44297e-21)
(1.04594 -0.409979 8.93583e-21)
(1.02558 -0.3981 -1.53512e-24)
(0.985946 -0.380878 -1.35532e-21)
(0.9203 -0.355756 0)
(0.826388 -0.321145 -7.60834e-21)
(0.705191 -0.276623 -5.10777e-24)
(0.561503 -0.223244 1.40544e-20)
(0.403297 -0.162981 -4.0985e-24)
(0.239557 -0.098542 5.21225e-24)
(0.0780463 -0.0327438 1.94378e-20)
(0.997075 0.00978417 6.19744e-20)
(0.935664 -0.0192705 -7.65581e-20)
(0.839898 -0.17569 4.39446e-22)
(0.876403 -0.440703 0)
(1.02319 -0.436624 1.75269e-20)
(1.05342 -0.423084 3.77655e-21)
(1.05315 -0.413705 8.40232e-21)
(1.04637 -0.405398 1.83129e-25)
(1.02527 -0.394359 7.25599e-25)
(0.983155 -0.377422 4.47933e-21)
(0.915516 -0.35236 7.05226e-21)
(0.819887 -0.317715 -9.6593e-21)
(0.697608 -0.273362 5.99635e-24)
(0.553962 -0.220167 -7.45202e-24)
(0.396875 -0.16034 -1.86304e-20)
(0.235202 -0.0967744 5.64551e-24)
(0.0764896 -0.0321298 0)
(0.998752 0.0167617 -5.87901e-20)
(0.93398 0.0125099 3.03427e-21)
(0.803619 -0.135956 -9.46138e-22)
(0.802453 -0.442397 -1.19134e-19)
(0.975929 -0.425483 -1.77879e-20)
(1.01753 -0.409489 -2.4126e-21)
(1.03326 -0.404947 -8.43236e-21)
(1.04378 -0.4025 2.48591e-21)
(1.04118 -0.398529 -9.64564e-25)
(1.02075 -0.389448 -4.36817e-21)
(0.978272 -0.373389 -6.78328e-21)
(0.909451 -0.348674 9.15146e-21)
(0.812611 -0.314366 0)
(0.689808 -0.270085 -1.36752e-20)
(0.546416 -0.217037 1.66259e-20)
(0.390544 -0.157786 -4.71572e-24)
(0.231057 -0.0951144 -1.14914e-23)
(0.0750623 -0.0315604 -4.98658e-24)
(1.00043 0.0224094 5.81947e-20)
(0.942872 0.0407902 -7.10499e-20)
(0.751801 -0.0635861 2.57387e-20)
(0.656546 -0.39258 1.18021e-19)
(0.843569 -0.379938 0)
(0.911706 -0.363663 -1.48375e-21)
(0.963391 -0.372762 0)
(1.00423 -0.3828 -4.23059e-21)
(1.02712 -0.389829 2.31225e-21)
(1.03072 -0.390374 4.82861e-21)
(1.01339 -0.383673 1.37591e-24)
(0.97152 -0.368852 -4.21666e-24)
(0.902198 -0.345034 -5.14194e-24)
(0.804875 -0.310927 2.52615e-20)
(0.681797 -0.266656 3.68479e-24)
(0.53883 -0.213965 8.38333e-24)
(0.384401 -0.155367 0)
(0.227168 -0.0935573 5.84403e-24)
(0.0737341 -0.0310249 2.072e-20)
(1.00195 0.0263631 0)
(0.95271 0.0637671 1.33284e-19)
(0.819801 0.0504482 -4.18459e-20)
(0.826909 0.0715559 0)
(0.507761 -0.353314 2.10704e-21)
(0.384739 -0.264925 1.97321e-20)
(0.635802 -0.0240691 0)
(0.693477 -0.33279 9.31938e-23)
(0.3391 -0.244762 -2.93576e-20)
(0.510553 -0.22372 1.83251e-21)
(0.685743 -0.267321 7.69096e-22)
(0.565025 -0.212167 0)
(0.812978 -0.304287 0)
(0.906532 -0.337554 1.79502e-21)
(0.96936 -0.362182 -5.12347e-21)
(1.00549 -0.376559 -4.8753e-21)
(1.01718 -0.381384 1.43379e-24)
(1.00367 -0.377268 0)
(0.963119 -0.364379 -3.08137e-25)
(0.894211 -0.341219 -1.18832e-20)
(0.796676 -0.307215 0)
(0.673529 -0.26323 -3.70417e-24)
(0.531314 -0.211022 -4.2807e-24)
(0.378526 -0.153067 -2.04191e-20)
(0.223509 -0.0920765 0)
(0.0724772 -0.0305158 2.08538e-20)
(1.0029 0.0285788 -4.90864e-20)
(0.967306 0.0801989 -5.06082e-21)
(0.838258 0.0989826 0)
(0.854063 0.125989 2.9696e-20)
(0.640369 0.0589786 0)
(0.41378 -0.130407 -1.88329e-21)
(0.167877 -0.195829 -2.53392e-20)
(0.137427 -0.188343 -6.23107e-21)
(0.205899 -0.22669 3.2997e-20)
(0.383614 -0.0767307 0)
(0.321503 -0.157681 -2.78486e-21)
(0.132254 -0.0625946 0)
(0.327476 -0.119037 0)
(0.251009 -0.0834304 -1.01637e-23)
(0.439318 -0.160465 -1.34808e-21)
(0.564832 -0.196087 -2.00801e-22)
(0.37589 -0.133959 -4.51536e-25)
(0.732643 -0.261598 -1.20963e-22)
(0.851882 -0.310004 -3.57411e-22)
(0.933041 -0.343201 1.68445e-24)
(0.981994 -0.363191 0)
(1.00141 -0.371932 0)
(0.992017 -0.371134 0)
(0.953781 -0.359689 5.53575e-24)
(0.885516 -0.337001 3.01591e-24)
(0.787956 -0.303438 0)
(0.665144 -0.259907 -1.57992e-20)
(0.523986 -0.208189 1.80903e-20)
(0.372918 -0.150847 -1.00931e-23)
(0.220023 -0.0906555 0)
(0.0712865 -0.0300331 0)
(1.00318 0.0291311 3.84636e-21)
(0.984667 0.0895268 -5.70421e-20)
(0.873925 0.150607 -2.85608e-20)
(0.89617 0.167226 -2.39841e-20)
(0.659812 0.126584 0)
(0.688045 0.184533 -4.04032e-20)
(0.371437 0.03878 0)
(0.370719 -0.0183309 0)
(0.118322 -0.112926 3.0205e-21)
(0.0550833 -0.100395 0)
(0.0897369 -0.0292868 9.78579e-23)
(0.0777377 -0.0276353 -1.42104e-22)
(0.2204 -0.0739325 0)
(0.132259 -0.0409113 -1.56456e-21)
(0.33561 -0.11178 4.62722e-25)
(0.487234 -0.162527 4.68542e-22)
(0.316399 -0.102332 3.84292e-22)
(0.183467 -0.0612801 -1.07293e-24)
(0.6675 -0.233591 1.65063e-21)
(0.803206 -0.287629 -4.81248e-25)
(0.898239 -0.325752 8.60937e-21)
(0.957635 -0.350002 9.8205e-21)
(0.984013 -0.363336 0)
(0.979535 -0.364888 -1.13162e-20)
(0.943598 -0.354504 -1.25059e-20)
(0.876036 -0.332668 1.33997e-20)
(0.778893 -0.299735 1.46103e-20)
(0.656803 -0.256672 -1.60338e-20)
(0.516875 -0.205415 0)
(0.367522 -0.148691 -2.06257e-20)
(0.216687 -0.0892967 0)
(0.0701573 -0.029574 0)
(1.00327 0.0281945 4.59931e-20)
(0.999268 0.0922346 0)
(0.920864 0.181781 2.3993e-20)
(0.944203 0.181618 2.17679e-20)
(0.72728 0.233113 7.23679e-20)
(0.77677 0.264257 -3.20853e-20)
(0.383663 0.0978946 0)
(0.402594 0.155487 -1.85235e-20)
(0.454489 0.265367 0)
(0.426168 0.211844 1.7791e-20)
(0.0927577 -0.000386777 5.24048e-20)
(0.100223 -0.0576989 -2.57597e-20)
(0.0386928 -0.0111995 1.51832e-21)
(0.055262 -0.0165715 1.13499e-22)
(0.0494606 -0.0161175 7.58379e-24)
(0.163154 -0.0514762 3.87963e-22)
(0.288985 -0.0940992 -2.79791e-23)
(0.425884 -0.141838 2.75983e-21)
(0.262414 -0.0826502 -8.47738e-22)
(0.195357 -0.0638905 -1.08563e-22)
(0.193316 -0.0615405 7.55223e-23)
(0.0417359 -0.0137406 0)
(0.0444358 -0.0140606 0)
(0.616512 -0.212893 -2.27163e-24)
(0.760565 -0.268631 -9.37081e-21)
(0.865181 -0.309339 -1.03612e-20)
(0.932811 -0.338736 -1.05118e-20)
(0.966495 -0.354977 1.13746e-20)
(0.966365 -0.358155 1.23083e-20)
(0.932465 -0.349218 -2.59277e-20)
(0.86601 -0.328403 1.36661e-20)
(0.769702 -0.296101 1.48059e-20)
(0.648568 -0.253459 0)
(0.509945 -0.20268 1.81941e-20)
(0.362312 -0.146603 -2.05375e-20)
(0.213485 -0.0879965 0)
(0.0690943 -0.0291405 2.06524e-20)
(1.0031 0.0261863 1.6417e-22)
(1.01159 0.0908634 1.69726e-22)
(0.95808 0.24834 -3.66636e-20)
(0.828305 0.282216 0)
(0.870541 0.307017 -2.5691e-20)
(0.487721 0.314528 -1.41507e-20)
(0.529281 0.354376 1.27823e-20)
(0.636228 0.419604 1.19481e-20)
(0.580128 0.390384 -9.91423e-21)
(0.0981982 0.0632683 -2.64475e-20)
(0.112217 0.13051 2.44506e-20)
(0.165267 0.265039 4.25172e-20)
(0.13429 0.198303 -4.69575e-20)
(0.0383597 -0.0115302 -2.61836e-22)
(0.0378491 -0.0120315 -1.65986e-22)
(0.114597 -0.037576 0)
(0.18382 -0.0588865 3.57544e-23)
(0.175502 -0.0559336 -7.44365e-25)
(0.225685 -0.0737238 -9.11615e-22)
(0.38636 -0.127414 -2.42539e-21)
(0.209061 -0.0669777 2.99524e-22)
(0.163785 -0.053053 1.12598e-22)
(0.145105 -0.0422773 3.50224e-22)
(0.113165 -0.0356798 9.19604e-23)
(0.574038 -0.196224 2.34342e-24)
(0.721988 -0.250763 2.70779e-24)
(0.833493 -0.296282 1.11637e-20)
(0.909382 -0.3283 -2.75664e-24)
(0.948942 -0.346298 0)
(0.952313 -0.351456 1.28291e-20)
(0.920697 -0.344052 -2.64072e-20)
(0.855721 -0.324218 1.38351e-20)
(0.760492 -0.292457 3.61911e-24)
(0.640429 -0.250247 -1.61576e-20)
(0.503172 -0.199995 1.80761e-20)
(0.357263 -0.14459 0)
(0.210431 -0.0867614 2.36475e-20)
(0.068088 -0.0287246 2.0463e-20)
(1.00257 0.0234596 0)
(1.02057 0.085346 -1.55302e-22)
(1.01345 0.237893 4.20755e-20)
(0.865019 0.560276 -1.90363e-20)
(0.970034 0.571534 9.24415e-21)
(0.693351 0.444318 -6.57381e-22)
(0.741003 0.458147 9.20216e-21)
(0.764111 0.544991 1.84686e-20)
(0.207028 0.324778 -1.96291e-20)
(0.261358 0.371213 4.16069e-22)
(0.402791 0.497521 -2.24869e-20)
(0.31556 0.40098 1.94656e-20)
(0.0370373 -0.0119401 8.51124e-26)
(0.108179 -0.0340995 0)
(0.10289 -0.0324466 4.1229e-23)
(0.120061 -0.0389553 1.95063e-22)
(0.109188 -0.0348617 0)
(0.197146 -0.0632519 1.52961e-21)
(0.354689 -0.11644 0)
(0.190627 -0.060404 4.40629e-21)
(0.102498 -0.03253 0)
(0.0993828 -0.0312351 -7.91311e-22)
(0.0947535 -0.0301641 -7.64477e-25)
(0.0660367 -0.0172318 0)
(0.0365365 -0.0114084 -1.03469e-22)
(0.534329 -0.179093 0)
(0.686555 -0.237692 0)
(0.805346 -0.28471 0)
(0.887099 -0.317824 0)
(0.930909 -0.33793 0)
(0.937766 -0.34503 1.30574e-20)
(0.908644 -0.339043 -2.67137e-20)
(0.845321 -0.320016 1.39476e-20)
(0.751269 -0.288774 1.48921e-20)
(0.632371 -0.247055 -1.60518e-20)
(0.496545 -0.197383 -4.30606e-24)
(0.352397 -0.14266 -2.02552e-20)
(0.207515 -0.0855721 0)
(0.0671161 -0.0283218 0)
(1.00184 0.0202801 3.49002e-20)
(1.0266 0.0774 0)
(1.04031 0.208276 0)
(1.13829 0.496316 -5.35874e-21)
(0.832435 0.61363 1.09087e-21)
(0.651798 0.508904 -8.56178e-22)
(0.910206 0.481294 -5.71553e-23)
(0.541333 0.565522 2.44151e-22)
(0.615309 0.574726 -9.64602e-21)
(0.526579 0.448921 -5.9118e-23)
(0.468269 0.454372 1.43073e-21)
(0.154584 0.264999 -1.37791e-21)
(0.0350752 -0.010893 0)
(0.0334334 -0.0104736 -2.77007e-23)
(0.0420659 -0.0138421 0)
(0.0364277 -0.0115783 0)
(0.0962947 -0.0304186 -8.96525e-22)
(0.0949615 -0.0297342 -9.80228e-22)
(0.181762 -0.0583162 0)
(0.314113 -0.101505 2.1749e-21)
(0.172995 -0.0547408 5.67887e-22)
(0.0931571 -0.0292778 -2.25075e-21)
(0.0921408 -0.0287695 0)
(0.0331415 -0.0103762 8.56381e-25)
(0.032001 -0.00992898 6.8447e-22)
(0.0307246 -0.0100182 -2.26695e-23)
(0.0182389 -0.00478857 -2.75138e-22)
(0.499452 -0.16755 0)
(0.657147 -0.226744 0)
(0.779815 -0.273243 0)
(0.86495 -0.308009 -1.42323e-20)
(0.912811 -0.330078 3.27627e-24)
(0.923119 -0.338936 1.32193e-20)
(0.896508 -0.334064 -2.69748e-20)
(0.834842 -0.315758 -3.39527e-24)
(0.742038 -0.285081 1.4774e-20)
(0.624399 -0.243917 3.84464e-24)
(0.490088 -0.194858 8.75086e-26)
(0.347713 -0.140791 1.10072e-25)
(0.204711 -0.0844171 -1.11183e-23)
(0.0661781 -0.0279317 0)
(1.0011 0.0168513 -3.5393e-20)
(1.03046 0.0687314 3.2556e-20)
(1.05058 0.172478 -1.97503e-20)
(1.25851 0.452377 -1.46581e-21)
(0.78865 0.138124 -5.3157e-20)
(1.07314 0.204273 1.41943e-19)
(0.447925 0.266887 -3.46261e-21)
(0.280228 0.248059 0)
(0.592892 0.189351 -2.49539e-20)
(0.262363 0.101367 0)
(0.339141 0.442275 1.10607e-21)
(0.410186 0.449548 -1.65647e-21)
(0.0311403 -0.00966676 0)
(0.0306761 -0.00947121 0)
(0.0899306 -0.0283914 -1.27652e-21)
(0.0885442 -0.0277398 -1.28995e-24)
(0.149704 -0.0465461 6.84904e-22)
(0.283449 -0.0914095 2.04378e-21)
(0.122862 -0.0399969 -2.4244e-21)
(0.0863336 -0.0273071 0)
(0.0828324 -0.0259718 -7.29868e-22)
(0.0300777 -0.00933383 -3.83335e-24)
(0.0297425 -0.00919481 0)
(0.474101 -0.159261 0)
(0.631814 -0.215436 0)
(0.754742 -0.262797 1.52981e-20)
(0.843372 -0.298945 0)
(0.895044 -0.322843 1.49059e-26)
(0.908605 -0.332988 1.33729e-20)
(0.884329 -0.329056 0)
(0.8243 -0.311476 3.40539e-24)
(0.732814 -0.281422 1.45591e-20)
(0.616547 -0.240867 -1.56148e-20)
(0.48382 -0.192397 4.26015e-24)
(0.343188 -0.13896 4.82187e-24)
(0.201983 -0.0832851 2.90032e-25)
(0.0652617 -0.027552 0)
(1.00053 0.0133411 3.17328e-20)
(1.03241 0.0598336 -2.74818e-21)
(1.05419 0.139164 2.05451e-20)
(1.29478 0.393044 1.50921e-21)
(1.18076 0.149436 -8.48054e-20)
(0.221296 0.00728191 -1.30826e-20)
(0.476775 -0.0151391 3.71089e-20)
(0.276271 -0.0267748 -3.28645e-20)
(0.636728 -0.00997322 6.90046e-20)
(0.0291902 -0.00905613 1.47237e-21)
(0.0286922 -0.00886129 0)
(0.0754261 -0.0241008 -7.64816e-22)
(0.053503 -0.0138408 1.3265e-21)
(0.111349 -0.0349211 -4.32343e-21)
(0.267881 -0.0864262 4.07098e-24)
(0.108678 -0.0339512 -1.45483e-21)
(0.0340887 -0.0108072 -3.29625e-22)
(0.0286397 -0.0093947 -7.47158e-22)
(0.0279849 -0.00872881 8.23141e-22)
(0.0267783 -0.00838714 -4.04655e-22)
(0.453773 -0.150611 0)
(0.605903 -0.20549 4.28638e-24)
(0.73076 -0.253119 3.83032e-24)
(0.822741 -0.290867 0)
(0.877844 -0.315936 -6.70466e-24)
(0.894238 -0.327096 1.35526e-20)
(0.87212 -0.324044 0)
(0.81371 -0.307222 -2.74241e-20)
(0.723645 -0.27786 5.28204e-23)
(0.608862 -0.237876 0)
(0.477722 -0.189964 0)
(0.338781 -0.137158 0)
(0.199319 -0.0821837 1.10044e-23)
(0.0643865 -0.0271852 1.93208e-20)
(1.00018 0.00988698 -3.22272e-20)
(1.03261 0.05068 -3.11386e-20)
(1.05688 0.110512 -3.59556e-24)
(1.28347 0.324684 9.09919e-23)
(1.38212 0.156861 0)
(0.659887 -0.0334343 0)
(0.0712866 -0.0213527 2.14184e-20)
(0.279822 -0.0127633 9.83062e-23)
(0.123708 -0.0119843 -9.10148e-23)
(0.304166 -0.0552002 -1.11479e-19)
(0.0244046 -0.00808594 -6.18892e-24)
(0.0147155 -0.00382346 -9.27593e-22)
(0.026348 -0.00817457 1.39684e-25)
(0.0257166 -0.00803419 1.11026e-21)
(0.105553 -0.0332963 1.53779e-21)
(0.305041 -0.101791 -7.6254e-24)
(0.104463 -0.0326266 -1.64515e-21)
(0.20741 -0.0683103 -3.04781e-21)
(0.0255429 -0.00792883 5.52304e-25)
(0.0255287 -0.00785764 2.26671e-21)
(0.429029 -0.141322 -2.40406e-21)
(0.300888 -0.0986741 0)
(0.581033 -0.195986 -4.38061e-24)
(0.70847 -0.244827 0)
(0.803316 -0.283334 -1.46637e-20)
(0.861134 -0.309213 -2.78205e-20)
(0.879999 -0.321258 6.51825e-24)
(0.859886 -0.319082 1.32745e-20)
(0.803138 -0.303105 1.34782e-20)
(0.714619 -0.274359 0)
(0.601333 -0.234898 0)
(0.471755 -0.187556 0)
(0.334468 -0.135396 0)
(0.196727 -0.0811058 -2.18234e-20)
(0.06353 -0.0268309 9.15474e-24)
(1.00003 0.00658264 0)
(1.0315 0.0412277 2.76387e-20)
(1.06031 0.0862325 0)
(1.2531 0.260202 -1.05283e-22)
(1.45371 0.156201 0)
(1.09021 -0.0181142 1.56138e-19)
(0.348491 -0.0724125 -1.05794e-19)
(0.201901 -0.0119877 1.07559e-19)
(0.0205405 -0.00695209 4.67198e-20)
(0.0649971 -0.0251905 9.9013e-20)
(0.0250667 -0.00782155 -2.36212e-21)
(0.0250144 -0.00775138 -1.22733e-21)
(0.128587 -0.0421795 7.16116e-23)
(0.075856 -0.0246977 3.62289e-21)
(0.0247561 -0.00767551 4.87131e-24)
(0.0247564 -0.00762256 1.29568e-21)
(0.200559 -0.0650219 -2.41583e-23)
(0.128407 -0.0407857 2.20522e-21)
(0.289797 -0.0939813 3.96858e-21)
(0.403345 -0.132037 -2.52295e-21)
(0.278744 -0.0898978 3.98745e-21)
(0.558903 -0.18823 0)
(0.688222 -0.237309 1.59501e-20)
(0.7848 -0.276127 1.47434e-20)
(0.844809 -0.302623 -6.74374e-24)
(0.86586 -0.315515 -6.55077e-24)
(0.847695 -0.314338 -1.30433e-20)
(0.792713 -0.299065 -1.29208e-23)
(0.705742 -0.270861 1.37994e-20)
(0.593932 -0.231938 0)
(0.465906 -0.185191 1.62047e-20)
(0.330245 -0.133665 0)
(0.194205 -0.0800669 0)
(0.0626886 -0.0264862 1.8669e-20)
(1.00003 0.00346601 -3.01899e-20)
(1.02967 0.031541 -2.82746e-20)
(1.06375 0.065559 -1.07267e-20)
(1.22051 0.203835 0)
(1.45166 0.146503 1.63644e-23)
(1.34282 -0.00251135 -1.35988e-19)
(0.766427 -0.0808669 -1.53724e-22)
(0.265318 -0.0610689 0)
(0.131181 -0.0274296 9.13292e-20)
(0.121414 -0.0478919 -1.47492e-21)
(0.0487135 -0.00102128 -8.7094e-20)
(-0.00184671 -0.010309 -1.43819e-21)
(0.00655591 0.00313741 1.74534e-21)
(0.0757642 -0.0236392 -2.00716e-21)
(0.0246807 -0.00789788 -1.17243e-21)
(0.123714 -0.0395239 4.72074e-24)
(0.192628 -0.0615153 -2.40303e-21)
(0.126226 -0.0403915 0)
(0.263898 -0.0837515 8.53726e-21)
(0.383294 -0.125336 -2.44612e-21)
(0.251262 -0.0812058 -3.31365e-23)
(0.182197 -0.0581896 1.30602e-23)
(0.540058 -0.181543 -2.2464e-24)
(0.669268 -0.230251 0)
(0.766898 -0.269101 1.50415e-20)
(0.828783 -0.296158 1.34196e-23)
(0.851869 -0.310127 1.29984e-20)
(0.835727 -0.30972 -1.28415e-20)
(0.782452 -0.295031 -1.30081e-20)
(0.696984 -0.267373 6.68564e-24)
(0.586666 -0.229017 -1.44806e-20)
(0.460163 -0.182862 1.09803e-25)
(0.326113 -0.131982 1.78595e-20)
(0.191734 -0.0790592 5.00363e-24)
(0.0618952 -0.0261537 8.80014e-24)
(1.00009 0.000534913 3.0656e-20)
(1.02764 0.0217663 2.65494e-20)
(1.06618 0.0475191 8.94357e-22)
(1.19341 0.15533 -3.68225e-21)
(1.41431 0.126611 -6.12347e-20)
(1.45274 0.00754464 2.87768e-23)
(1.11362 -0.0800785 7.11808e-23)
(0.578076 -0.0937563 1.8451e-22)
(0.0740639 -0.0221772 1.25845e-22)
(0.234358 -0.0513766 0)
(0.0473542 -0.0140681 -1.7546e-20)
(0.021061 -0.0151714 5.64823e-20)
(0.00034988 0.00913167 5.47797e-20)
(0.00843294 -0.000488993 -2.408e-20)
(0.0741997 -0.0233957 0)
(0.024628 -0.00760968 1.35014e-21)
(0.120923 -0.0382757 -4.67918e-24)
(0.0724977 -0.0229175 1.06824e-21)
(0.118137 -0.0373398 -2.3516e-21)
(0.164034 -0.0510207 -4.49503e-21)
(0.242579 -0.0779323 -4.11135e-21)
(0.368908 -0.120435 5.02217e-21)
(0.237563 -0.0760883 8.29607e-21)
(0.149946 -0.047757 1.42271e-23)
(0.107634 -0.0341169 0)
(0.113686 -0.0360758 4.54273e-24)
(0.522783 -0.175447 2.06183e-23)
(0.650922 -0.223345 -1.64335e-20)
(0.749449 -0.262131 1.49897e-20)
(0.813067 -0.290245 -6.67299e-24)
(0.838284 -0.304947 1.28082e-20)
(0.824001 -0.305132 6.22495e-24)
(0.772327 -0.291012 -1.27812e-20)
(0.688351 -0.263916 0)
(0.579504 -0.226132 0)
(0.454521 -0.180583 -1.55071e-20)
(0.322064 -0.130349 -1.30163e-25)
(0.18935 -0.0780841 -2.02536e-20)
(0.0611405 -0.0258337 -8.89666e-24)
(1.00017 -0.00223256 0)
(1.02574 0.0120594 -4.05463e-20)
(1.06723 0.0311655 1.04944e-20)
(1.17358 0.11385 3.90969e-21)
(1.36725 0.102085 1.02203e-20)
(1.47362 0.00977158 2.34953e-23)
(1.32902 -0.0739651 -8.18332e-23)
(0.917428 -0.11113 -1.27749e-22)
(0.480339 -0.088937 0)
(0.0749479 -0.0186286 5.37493e-20)
(0.0155629 -0.000664028 -1.80672e-20)
(0.00755192 -0.00928832 -7.39731e-23)
(0.209485 -0.0445836 -2.02449e-19)
(0.0168666 -0.00273499 8.73157e-23)
(0.0124953 -0.0070959 -1.59197e-22)
(-0.00984912 -0.00459335 2.5662e-20)
(0.00281164 -0.000365529 0)
(-0.00703768 0.00225177 -1.30413e-20)
(0.000491125 0.000207818 -9.28422e-22)
(0.0240328 -0.00744973 -6.75528e-24)
(0.070847 -0.0222168 3.90537e-24)
(0.0234105 -0.00729647 -2.14381e-21)
(0.0692713 -0.021736 9.93699e-22)
(0.0946375 -0.0273974 2.06878e-23)
(0.0812052 -0.0263973 1.27293e-21)
(0.143827 -0.0454613 -1.74971e-21)
(0.232702 -0.074466 -8.35194e-21)
(0.356265 -0.116269 -1.13497e-23)
(0.229295 -0.0733793 8.51481e-21)
(0.140747 -0.0443366 -1.75817e-21)
(0.070875 -0.0224157 2.86887e-23)
(0.0744085 -0.0235456 -1.26356e-21)
(0.0617891 -0.0194674 0)
(0.0662572 -0.0208846 1.00321e-21)
(0.50559 -0.169355 -9.25208e-24)
(0.632841 -0.216163 -1.64002e-20)
(0.732448 -0.255976 1.44411e-20)
(0.798072 -0.284648 0)
(0.825104 -0.299848 1.27423e-20)
(0.812466 -0.300582 1.23969e-20)
(0.76234 -0.287029 -3.00612e-24)
(0.679841 -0.260503 1.2911e-20)
(0.572446 -0.223299 1.37262e-20)
(0.448972 -0.178369 0)
(0.318126 -0.128768 1.70541e-20)
(0.187056 -0.0771343 0)
(0.0603714 -0.0255137 0)
(1.00024 -0.0048601 -4.57303e-25)
(1.0241 0.00253808 2.73433e-20)
(1.0671 0.0158122 0)
(1.15974 0.078264 6.07057e-21)
(1.32419 0.0768878 1.06079e-19)
(1.45046 0.00621803 -2.43329e-23)
(1.42789 -0.0670227 -9.90475e-20)
(1.18422 -0.115193 5.92145e-23)
(0.779529 -0.117218 1.43631e-22)
(0.419707 -0.0797711 0)
(0.068962 -0.0162236 2.02839e-19)
(0.0186724 -0.0004181 -8.39635e-20)
(0.017313 -0.0084069 1.66214e-20)
(0.00290391 0.0018336 1.18865e-20)
(0.00117536 -0.000315186 2.1088e-20)
(0.000151985 -7.20181e-05 1.41727e-20)
(-0.00106414 -0.00249559 -1.29303e-20)
(0.0037372 -0.000212388 1.46591e-22)
(0.189859 -0.039854 0)
(0.00120564 0.00102393 1.62532e-20)
(-0.00917213 0.000777997 1.49542e-20)
(-0.00263606 0.00176889 0)
(0.0228778 -0.00710719 1.38884e-21)
(0.0224774 -0.00699161 1.36285e-21)
(0.0429255 -0.0108766 5.80908e-22)
(0.0280011 -0.00929837 3.68033e-22)
(0.069152 -0.0216347 -9.43692e-24)
(0.0683538 -0.0213802 2.4135e-21)
(0.138293 -0.0435699 0)
(0.225154 -0.0720972 -1.69866e-20)
(0.342394 -0.111769 4.06551e-23)
(0.221552 -0.070941 1.71201e-20)
(0.1363 -0.0429535 -5.24899e-21)
(0.0673804 -0.0210381 -2.44078e-21)
(0.0677149 -0.0211334 2.4271e-21)
(0.0227855 -0.00714601 -5.5868e-24)
(0.0245854 -0.00784252 8.59623e-22)
(0.0199069 -0.00654647 -8.65333e-23)
(0.0213688 -0.00673763 -1.33927e-21)
(0.487527 -0.162233 -2.76935e-23)
(0.615219 -0.210122 -1.58821e-20)
(0.716665 -0.250254 2.09763e-23)
(0.783743 -0.279208 -1.31434e-20)
(0.812222 -0.294831 0)
(0.801123 -0.296094 0)
(0.75251 -0.283101 -1.21666e-20)
(0.67144 -0.257145 -1.25769e-20)
(0.565489 -0.220545 0)
(0.443566 -0.176228 0)
(0.314303 -0.127219 0)
(0.184785 -0.0761996 0)
(0.0596302 -0.0252021 -8.25556e-24)
(1.00027 -0.0073644 0)
(1.0227 -0.00673169 -1.40034e-20)
(1.06621 0.00105241 0)
(1.14989 0.0472031 -6.38631e-21)
(1.28988 0.0522317 -6.2323e-21)
(1.41266 -0.000819459 8.03389e-20)
(1.45069 -0.0622243 5.8234e-21)
(1.34451 -0.111553 5.20554e-23)
(1.05573 -0.131669 5.44957e-23)
(0.682344 -0.112029 0)
(0.376183 -0.0717542 -1.51686e-22)
(0.0642606 -0.0148228 4.65472e-20)
(0.0187186 -9.72469e-05 0)
(0.0161957 -0.00759465 0)
(0.00378763 0.00108343 6.90586e-23)
(0.00399488 -0.00134424 1.96872e-20)
(0.00501496 -0.000764719 -1.89461e-20)
(0.00409585 -0.00254796 0)
(0.000409878 0.000284521 0)
(-0.000975319 -0.000296564 -1.6488e-21)
(0.173392 -0.0355493 0)
(-0.000119612 0.000331687 7.11862e-22)
(0.0118667 -0.00301791 -3.38299e-22)
(0.0221569 -0.00688178 -1.39792e-21)
(0.0219089 -0.00679914 1.40071e-21)
(0.0667297 -0.0208325 -2.42845e-21)
(0.0664776 -0.0207588 0)
(0.134209 -0.0423069 7.00738e-21)
(0.216455 -0.0694537 0)
(0.323898 -0.1048 -4.15581e-23)
(0.21054 -0.0675412 4.29651e-21)
(0.13208 -0.0416524 -7.07207e-21)
(0.0657241 -0.0205248 -9.59343e-24)
(0.0659713 -0.0206068 -2.43186e-21)
(0.0216133 -0.00670079 2.81613e-21)
(0.0217282 -0.00673439 1.40925e-21)
(0.469725 -0.156535 1.86008e-23)
(0.599635 -0.204656 -1.5653e-23)
(0.70192 -0.244796 -1.4334e-20)
(0.769874 -0.273912 -3.14871e-24)
(0.799622 -0.289914 -1.23296e-20)
(0.789991 -0.291673 0)
(0.742811 -0.279234 0)
(0.663153 -0.253882 0)
(0.558672 -0.217875 3.12301e-24)
(0.438282 -0.174125 6.85512e-24)
(0.310566 -0.125704 0)
(0.182584 -0.0752869 4.52033e-24)
(0.0589197 -0.0249006 1.64126e-23)
(1.00027 -0.00975295 0)
(1.02151 -0.0157241 0)
(1.0649 -0.0133356 6.36824e-21)
(1.14259 0.0194198 0)
(1.26428 0.0283255 -6.90593e-20)
(1.37565 -0.0101157 -7.38488e-21)
(1.43533 -0.0602758 9.42887e-20)
(1.41404 -0.10545 0)
(1.25305 -0.134816 -4.82751e-23)
(0.948725 -0.133717 -5.89152e-23)
(0.610944 -0.103959 -1.25751e-22)
(0.341817 -0.064701 1.57306e-22)
(0.0591541 -0.0128404 1.14156e-21)
(0.0175521 -0.000396166 -5.89063e-22)
(0.0157969 -0.00717372 0)
(0.000423967 0.00103698 -1.26613e-20)
(0.00441254 -0.000604198 -1.72785e-23)
(0.00301654 -0.00281245 0)
(-0.000979755 0.00109137 1.35147e-20)
(-4.97614e-05 -0.000143586 -1.1508e-20)
(0.00058961 -2.51806e-05 -1.04543e-20)
(0.000174647 -0.000655198 0)
(0.158672 -0.0311857 -1.72069e-19)
(0.0214455 -0.00664718 -2.63552e-24)
(0.0213538 -0.00662061 1.41868e-21)
(0.0651107 -0.0203352 -9.59301e-24)
(0.0648577 -0.0202546 1.92816e-23)
(0.12937 -0.040843 6.90945e-23)
(0.201268 -0.064694 8.62888e-24)
(0.304823 -0.0990027 -2.59096e-21)
(0.188976 -0.0592808 4.75391e-21)
(0.125458 -0.039701 -5.33747e-21)
(0.0640349 -0.0200005 2.49033e-21)
(0.0643416 -0.0201078 -9.65909e-24)
(0.0211138 -0.0065451 1.43984e-21)
(0.0212128 -0.00657774 6.97327e-25)
(0.455557 -0.151657 1.79569e-23)
(0.58563 -0.199619 1.58397e-20)
(0.687821 -0.239552 0)
(0.75638 -0.268757 1.27597e-20)
(0.787312 -0.285085 -2.89172e-24)
(0.77904 -0.287323 5.55939e-24)
(0.733233 -0.275482 0)
(0.655002 -0.250721 0)
(0.552005 -0.21526 -3.13119e-24)
(0.433118 -0.172059 -6.87685e-24)
(0.306931 -0.124217 0)
(0.180447 -0.0743927 -4.54582e-24)
(0.0582167 -0.0246073 -1.60428e-23)
(1.00022 -0.0120208 0)
(1.02045 -0.0244264 0)
(1.06338 -0.027481 -6.57459e-21)
(1.13709 -0.00611499 -6.90882e-26)
(1.24575 0.00513814 2.24181e-20)
(1.34538 -0.0209376 -7.91115e-20)
(1.4074 -0.0608558 0)
(1.42641 -0.0998653 -2.19856e-23)
(1.36157 -0.131436 0)
(1.16381 -0.143549 3.94549e-24)
(0.861679 -0.129241 0)
(0.555363 -0.095526 1.31648e-22)
(0.312802 -0.0580894 1.48271e-19)
(0.0538221 -0.0105671 1.6991e-19)
(0.015073 0.000285733 1.2558e-19)
(0.0143753 -0.00583347 -6.39253e-20)
(0.000170564 0.00120313 -5.91202e-20)
(-0.000804704 -0.000582576 1.28981e-20)
(-0.0014908 0.00115807 1.17772e-20)
(0.000267256 0.000324684 9.91884e-23)
(-0.00115007 -0.000184019 -8.26041e-23)
(-0.0011277 0.00102983 -9.65775e-23)
(0.14569 -0.0272131 0)
(0.0209515 -0.00649417 -2.72284e-24)
(0.0208532 -0.0064643 -8.8307e-26)
(0.0633752 -0.0198083 0)
(0.0629209 -0.0196589 0)
(0.118245 -0.0376558 8.68856e-22)
(0.176161 -0.0561471 4.27473e-21)
(0.293747 -0.0950367 5.25848e-21)
(0.170915 -0.0545912 -4.30466e-21)
(0.100086 -0.0306805 -5.07098e-21)
(0.0610258 -0.019119 0)
(0.0621362 -0.0194638 2.45074e-21)
(0.0205954 -0.00638335 2.71918e-24)
(0.0207122 -0.00642395 0)
(0.443692 -0.147529 -2.72011e-23)
(0.572491 -0.194875 1.59615e-20)
(0.674156 -0.234475 0)
(0.743219 -0.263693 0)
(0.775233 -0.28032 2.90121e-24)
(0.768239 -0.283121 -5.57541e-24)
(0.723822 -0.271873 5.37046e-24)
(0.647024 -0.24763 0)
(0.545477 -0.21268 0)
(0.428074 -0.170024 6.47485e-24)
(0.303361 -0.122748 0)
(0.178349 -0.0735242 0)
(0.0575288 -0.024319 7.96519e-24)
(1.00012 -0.014154 -2.32003e-24)
(1.01945 -0.0328292 -1.60677e-24)
(1.06167 -0.0414654 8.49027e-21)
(1.13301 -0.0302559 0)
(1.23273 -0.017521 6.8673e-24)
(1.32271 -0.0328241 0)
(1.38017 -0.0634152 4.24018e-20)
(1.41197 -0.0959316 2.16745e-23)
(1.40211 -0.125623 2.27905e-23)
(1.30132 -0.144435 -9.24572e-20)
(1.08217 -0.143983 9.61837e-23)
(0.790407 -0.122124 -1.09358e-19)
(0.509464 -0.0872432 -2.49718e-19)
(0.287573 -0.0519765 0)
(0.0493962 -0.00837139 -1.4196e-22)
(0.0120119 0.00156884 1.15591e-22)
(0.0119825 -0.00446489 0)
(-0.0018075 0.00179227 -4.7203e-20)
(-0.00163571 0.000238138 0)
(-0.00315885 0.00199588 1.5181e-20)
(-0.00237981 0.000431001 2.32273e-22)
(-0.00214977 7.45863e-05 0)
(-0.00198215 0.00167324 -1.29813e-20)
(-0.000627335 2.58505e-05 -1.14101e-21)
(-0.000438879 0.000303602 -8.3898e-21)
(0.133289 -0.0239641 -3.75224e-23)
(0.0204238 -0.00633276 1.46202e-21)