/*--------------------------------*- C++ -*----------------------------------*\
| =========                 |                                                 |
| \\      /  F ield         | OpenFOAM: The Open Source CFD Toolbox           |
|  \\    /   O peration     | Version:  v1912                                 |
|   \\  /    A nd           | Website:  www.openfoam.com                      |
|    \\/     M anipulation  |                                                 |
\*---------------------------------------------------------------------------*/
FoamFile
{
    version     2.0;
    format      ascii;
    class       volVectorField;
    location    "480";
    object      U;
}
// * * * * * * * * * * * * * * * * * * * * * * * * * * * * * * * * * * * * * //

dimensions      [0 1 -1 0 0 0 0];


internalField   nonuniform List<vector> 
3754
(
(0.995634 0.00296199 9.1525e-23)
(0.996038 0.0086188 0)
(0.950799 0.0118373 1.43601e-22)
(0.996667 0.0135909 0)
(0.955795 0.0334379 0)
(0.812861 0.0380034 -1.89641e-21)
(0.997174 0.0174509 0)
(0.965269 0.0511809 -1.10616e-20)
(0.84223 0.0991585 1.25773e-22)
(0.515392 0.051893 1.04116e-21)
(0.53201 0.146995 8.96837e-22)
(0.997539 0.0199993 -1.4954e-22)
(0.977299 0.0634164 1.10043e-20)
(0.893083 0.145297 0)
(0.578837 0.237858 8.10402e-22)
(0.646669 0.30661 -3.41204e-21)
(0.11781 0.102267 -2.11998e-22)
(0.111641 0.034435 2.17408e-22)
(0.158628 0.226513 0)
(0.132328 0.167248 0)
(0.997874 0.0213453 0)
(0.988776 0.0708034 4.61789e-22)
(0.935288 0.166949 0)
(0.719263 0.356821 2.56106e-21)
(0.802346 0.380869 -3.74704e-21)
(0.250686 0.313613 -1.09041e-22)
(0.198159 0.277153 2.18574e-21)
(0.479263 0.477562 -6.45574e-22)
(0.345735 0.411241 0)
(0.998254 0.0217414 0)
(0.997904 0.0742155 0)
(0.964824 0.167222 -1.48623e-22)
(0.955585 0.447607 -9.43469e-21)
(0.663121 0.551208 8.34394e-22)
(0.576451 0.518644 -7.70605e-22)
(0.780201 0.506322 0)
(0.29636 0.331722 -2.49402e-21)
(0.132984 0.204046 5.46215e-21)
(0.998675 0.0214381 0)
(1.00445 0.0744203 -6.14028e-23)
(0.987894 0.157965 0)
(1.06426 0.423561 1.19529e-20)
(0.891258 0.319169 -1.18636e-21)
(1.06416 0.38857 3.66465e-21)
(0.557569 0.40154 9.94484e-22)
(0.399264 0.343437 -9.02821e-22)
(0.757665 0.378784 -2.00483e-21)
(0.534449 0.272092 1.71646e-21)
(0.999087 0.0206201 -1.31985e-23)
(1.00894 0.0720949 0)
(1.00694 0.146275 5.48302e-23)
(1.10777 0.37179 0)
(1.19034 0.309622 -2.24182e-21)
(0.631134 0.0925987 -7.10145e-21)
(0.545586 0.146022 2.12911e-21)
(0.922504 0.143581 7.68213e-21)
(0.240981 0.150326 0)
(0.250436 0.0825084 0)
(0.999447 0.0194047 2.47677e-20)
(1.01204 0.0678562 1.43239e-23)
(1.02262 0.134149 1.74296e-23)
(1.12067 0.314972 -5.78757e-21)
(1.28815 0.299657 0)
(1.0184 0.142154 1.53756e-20)
(0.424754 0.0225073 -4.32896e-22)
(0.27215 0.0193269 1.75432e-22)
(0.37593 0.0484175 -1.38859e-22)
(0.726811 0.0702467 0)
(0.133706 0.00951594 -2.98352e-23)
(0.999738 0.0178737 -2.43951e-20)
(1.01428 0.0622499 0)
(1.03475 0.121763 0)
(1.12356 0.265555 1.06008e-20)
(1.30494 0.275477 8.85917e-24)
(1.27025 0.177911 -1.45258e-20)
(0.828299 0.0511807 -1.55024e-20)
(0.581391 0.0533781 4.03616e-21)
(0.202121 0.00144015 1.6873e-22)
(0.324153 0.0206552 -3.61437e-21)
(0.187077 0.00516006 3.36587e-22)
(0.0827444 0.00206345 7.05241e-23)
(0.999961 0.0160936 0)
(1.01599 0.0556976 -2.20328e-20)
(1.04356 0.109001 0)
(1.12454 0.223669 -4.72307e-21)
(1.29075 0.246115 0)
(1.35971 0.186373 -2.29329e-20)
(1.15951 0.103385 4.08526e-20)
(0.73837 0.0232859 -3.08312e-20)
(0.465844 0.0147474 0)
(0.495672 0.0169006 1.62913e-23)
(0.0585037 -0.000852588 -1.56872e-22)
(0.268553 0.00405088 -2.03401e-22)
(0.13961 0.00727335 6.64608e-22)
(0.159444 0.0039442 -1.69885e-22)
(0.0578615 0.000227017 -9.759e-23)
(1.00012 0.0141151 2.32188e-24)
(1.01734 0.0484797 4.13465e-20)
(1.04979 0.095858 1.4502e-20)
(1.12535 0.1875 0)
(1.27018 0.215115 -3.79234e-24)
(1.37078 0.179951 2.07445e-21)
(1.32178 0.129829 -2.49568e-20)
(1.06899 0.0677903 2.78723e-20)
(0.702139 0.0201097 -3.85365e-21)
(0.452312 0.00910375 4.37749e-22)
(0.447793 0.00336337 -4.40666e-22)
(0.254214 0.00303149 -4.12956e-22)
(0.121468 -0.00125019 -6.11972e-22)
(0.119455 0.00210111 1.05358e-21)
(0.0413828 0.000821042 1.50971e-24)
(0.0497345 0.000176975 -1.49545e-24)
(1.00022 0.0119757 0)
(1.01848 0.0407683 -1.93882e-20)
(1.05421 0.0824424 -1.42694e-20)
(1.12604 0.155784 1.99288e-21)
(1.25211 0.185466 0)
(1.35476 0.16576 2.1923e-20)
(1.37442 0.13713 0)
(1.26849 0.0985075 -5.95631e-24)
(1.00718 0.0521935 2.81774e-20)
(0.672998 0.0212009 3.86784e-21)
(0.454987 0.00968946 6.67427e-21)
(0.456272 0.00644061 0)
(0.270776 0.00285372 -5.75608e-21)
(0.251928 -0.000601081 -3.14018e-24)
(0.114426 0.00192227 2.87424e-22)
(0.115735 -0.000754694 5.83182e-22)
(0.0355381 -0.000506805 8.72846e-23)
(0.0361867 0.000261365 -1.69275e-22)
(1.00027 0.00970193 0)
(1.01951 0.0326693 1.60762e-24)
(1.05741 0.0688341 0)
(1.12664 0.127391 -2.11096e-21)
(1.23828 0.157933 4.56299e-24)
(1.33437 0.149542 0)
(1.37721 0.133937 -5.52461e-24)
(1.35488 0.113489 0)
(1.21989 0.0814591 -2.51871e-20)
(0.95825 0.0466755 0)
(0.641859 0.0211053 1.65023e-20)
(0.439091 0.00828405 -4.24565e-22)
(0.445458 0.00825073 -6.21423e-21)
(0.296336 0.00361764 -1.03618e-21)
(0.293182 0.00179343 -3.38701e-22)
(0.151587 0.00413477 1.67477e-20)
(0.131807 -0.00161139 0)
(0.113466 -0.00160351 0)
(0.120486 0.000342718 -2.22994e-21)
(0.0346561 0.000271284 -1.6198e-22)
(0.0352779 -0.000243068 0)
(1.00027 0.00730754 0)
(1.02051 0.0242423 0)
(1.05985 0.0550697 -8.77887e-21)
(1.12737 0.101359 0)
(1.22843 0.132173 0)
(1.31692 0.133317 -3.92499e-20)
(1.36447 0.126675 0)
(1.37694 0.117589 2.27932e-20)
(1.32944 0.100056 0)
(1.17457 0.0732061 2.48956e-20)
(0.916177 0.0437571 0)
(0.34679 0.00539567 -2.01428e-20)
(0.614248 0.0206769 -1.6149e-20)
(0.285844 0.00202823 -1.05597e-21)
(0.292482 0.00358627 -3.46304e-22)
(0.181351 0.00176108 0)
(0.180933 0.000944791 3.13617e-21)
(0.172322 -0.000317013 1.90776e-24)
(0.179274 0.00102705 -1.23353e-22)
(0.0674901 0.00386295 -1.61321e-20)
(0.0447174 -0.000526718 1.57113e-21)
(0.0347414 -0.0003781 0)
(0.0387028 -7.52634e-05 7.01788e-24)
(1.00023 0.00479749 4.58354e-25)
(1.02157 0.0155157 0)
(1.06182 0.0411798 8.48797e-21)
(1.12855 0.0768902 0)
(1.22221 0.10777 2.15703e-20)
(1.3039 0.1174 3.96614e-20)
(1.3503 0.118177 -4.48517e-20)
(1.37294 0.116197 -6.91759e-20)
(1.36837 0.108632 0)
(1.29986 0.0930897 -2.34606e-20)
(1.13267 0.0687745 0)
(0.87967 0.0423773 2.70749e-20)
(0.32881 0.00514719 1.8343e-20)
(0.127604 0.0018872 3.11463e-21)
(0.130084 -0.00067741 -9.1929e-22)
(0.59606 0.0223286 -3.11847e-20)
(0.172233 0.000443494 1.04597e-21)
(0.1741 0.0011539 5.12514e-22)
(0.179023 0.00112414 -1.2634e-22)
(0.178006 0.00170835 1.14507e-21)
(0.104751 0.000513612 0)
(0.104915 0.000315399 -8.63102e-22)
(0.0980298 -0.000301135 3.28926e-21)
(0.103195 0.00026587 -8.4395e-22)
(0.0187269 0.00102467 4.36389e-21)
(1.00016 0.00216403 0)
(1.02277 0.00649868 -1.40404e-20)
(1.06353 0.0271666 -6.58232e-21)
(1.13045 0.053249 -2.90036e-24)
(1.21948 0.0843627 -2.05929e-20)
(1.29539 0.101867 -9.92777e-24)
(1.33898 0.109429 4.43726e-20)
(1.36239 0.112635 1.31898e-22)
(1.37294 0.111107 0)
(1.35317 0.104256 0)
(1.26857 0.089264 0)
(1.09461 0.0663244 -2.3921e-20)
(0.849169 0.0427344 2.64818e-20)
(0.333347 0.00671005 -1.70936e-23)
(0.123292 0.00167901 0)
(0.121771 -0.00051799 -1.03642e-22)
(0.0291851 0.000420139 1.59881e-22)
(0.029399 3.24151e-05 0)
(0.0299528 8.23933e-05 8.04766e-23)
(0.030029 -0.000502 0)
(0.099114 -0.000411302 0)
(0.579153 0.0212297 -1.55617e-20)
(0.101103 0.000635471 -4.38294e-22)
(0.103415 0.000365959 2.16834e-22)
(0.102685 0.000525337 0)
(0.0332516 2.37164e-05 0)
(0.033458 9.03172e-06 0)
(0.0315564 -0.000574654 -2.23401e-21)
(0.0328492 -8.42178e-05 5.66741e-22)
(1.00008 -0.000609693 3.07509e-20)
(1.02417 -0.0027961 2.74203e-20)
(1.06506 0.0129944 6.37551e-21)
(1.13333 0.0296898 -2.96077e-24)
(1.2203 0.0615929 9.6786e-24)
(1.29139 0.0867618 -1.64427e-23)
(1.33148 0.100847 4.32284e-20)
(1.35268 0.108463 4.52638e-20)
(1.36587 0.110858 -4.62079e-20)
(1.36621 0.109209 0)
(1.33381 0.102151 2.67053e-24)
(1.23766 0.0868762 2.66368e-24)
(1.06061 0.0651996 0)
(0.821775 0.0407593 3.23396e-24)
(0.332056 0.00744817 1.28328e-20)
(0.159686 0.000881017 -3.72433e-22)
(0.138135 0.00103949 6.77139e-21)
(0.0296797 0.000428034 -1.39889e-21)
(0.027682 -0.000132373 8.18104e-23)
(0.0279969 2.2494e-05 -7.92064e-23)
(0.0279662 -0.000389864 7.93931e-23)
(0.0311882 -0.000283466 -1.83954e-23)
(0.557361 0.0201754 -1.51938e-20)
(0.0320958 6.80572e-05 1.82244e-23)
(0.0328316 8.7097e-06 -1.54239e-22)
(0.0326125 3.69823e-05 9.12761e-24)
(1.00001 -0.00354788 -3.02829e-20)
(1.02583 -0.0123426 -4.06841e-20)
(1.06636 -0.00141827 0)
(1.1374 0.00548201 0)
(1.22483 0.0391246 -3.96178e-24)
(1.29196 0.0721233 3.58156e-20)
(1.32805 0.0926266 -4.21785e-20)
(1.34593 0.10432 0)
(1.35732 0.109732 4.56285e-20)
(1.36292 0.111073 2.74069e-24)
(1.35488 0.108869 0)
(1.31275 0.100841 -2.15394e-20)
(1.20831 0.0852606 -2.6836e-24)
(1.02969 0.0626197 2.28834e-20)
(0.793872 0.0387568 0)
(0.317149 0.00699882 1.90554e-20)
(0.157653 0.00300065 0)
(0.160646 0.00114329 6.82758e-21)
(0.077571 0.000249212 0)
(0.0724788 0.000121713 5.53381e-23)
(0.0497258 0.00291822 -5.68228e-21)
(0.0336301 -0.000600645 1.62176e-21)
(0.535432 0.0190839 0)
(1.00001 -0.00667258 0)
(1.02774 -0.022074 2.66432e-20)
(1.06724 -0.0162006 0)
(1.14291 -0.0201277 0)
(1.23335 0.0166625 -6.87383e-24)
(1.29728 0.058012 -7.05825e-20)
(1.32884 0.0849013 4.24759e-20)
(1.34274 0.100488 -1.08982e-23)
(1.35081 0.108528 0)
(1.35568 0.111833 5.53699e-24)
(1.35552 0.112158 -2.73491e-24)
(1.34129 0.108827 2.13347e-20)
(1.29145 0.099733 0)
(1.18062 0.0826255 -2.10672e-20)
(0.999815 0.059856 -2.22864e-20)
(0.767119 0.0369374 0)
(0.301435 0.00623072 -7.98516e-24)
(0.147492 0.0027674 -2.85395e-21)
(0.151206 0.000709438 -3.78248e-22)
(0.0740634 0.00102478 1.18427e-22)
(0.0753844 0.00042385 2.37475e-22)
(0.077225 0.000618286 -2.35137e-22)
(0.0774917 0.0001419 -9.33484e-22)
(0.0245268 -4.49206e-05 0)
(0.0232812 -0.000502854 0)
(0.0137794 0.000832777 0)
(0.516709 0.0178643 0)
(1.00016 -0.00998616 -3.23603e-20)
(1.02978 -0.0318717 -2.8397e-20)
(1.06735 -0.031575 1.05453e-20)
(1.15022 -0.0479967 -6.32822e-21)
(1.24642 -0.00607908 2.24271e-20)
(1.30766 0.044508 3.47639e-20)
(1.33409 0.0778119 -4.14004e-20)
(1.34341 0.0971486 1.05078e-23)
(1.34746 0.107598 1.08979e-23)
(1.34941 0.112433 0)
(1.34973 0.114068 -2.62886e-24)
(1.34593 0.113119 -4.2567e-20)
(1.32683 0.108549 4.10993e-20)
(1.2704 0.0976829 2.01046e-20)
(1.15368 0.0796309 4.08435e-20)
(0.971494 0.0573174 0)
(0.743358 0.0350964 2.41506e-20)
(0.288829 0.00566751 4.08372e-21)
(0.138902 0.0024653 0)
(0.141749 0.000377333 1.87838e-22)
(0.0685744 0.000941235 0)
(0.0696518 0.000258482 1.16295e-22)
(0.0711158 0.000551906 0)
(0.0718516 -6.2063e-05 -2.34358e-22)
(0.0231425 0.000114511 -6.85388e-23)
(0.0238263 -5.54574e-06 -1.02818e-22)
(0.0245287 7.43582e-05 1.02946e-22)
(0.0247165 -4.09444e-06 0)
(0.504163 0.0178216 -2.77887e-20)
(1.00051 -0.0134504 3.18636e-20)
(1.03162 -0.0415791 2.77479e-20)
(1.06628 -0.0479508 9.03576e-22)
(1.16009 -0.0791593 6.01481e-21)
(1.26504 -0.0293595 -6.90618e-20)
(1.32376 0.0316993 0)
(1.34422 0.0715075 9.41073e-25)
(1.34825 0.0944661 0)
(1.34776 0.107144 4.50915e-20)
(1.34589 0.113285 4.48124e-20)
(1.34377 0.11568 0)
(1.34173 0.115751 4.21786e-20)
(1.33547 0.113527 -8.16726e-20)
(1.312 0.107312 -1.97832e-20)
(1.24933 0.0950598 -1.94512e-20)
(1.12779 0.0767474 0)
(0.945663 0.0548555 -2.10807e-20)
(0.723564 0.0341004 2.34646e-20)
(0.286171 0.0059966 0)
(0.132705 0.00238106 -5.93781e-21)
(0.134234 0.000271258 0)
(0.0643236 0.00084704 0)
(0.0651358 0.000180163 -1.14947e-22)
(0.0662595 0.000470421 -1.15269e-22)
(0.0667886 -0.000165691 0)
(0.021307 0.000104292 0)
(0.0218644 -3.06536e-05 6.75425e-23)
(0.0223808 7.74926e-05 0)
(0.0225071 -4.05579e-05 1.35818e-22)
(0.495498 0.0170195 2.70711e-20)
(1.00109 -0.0169714 -3.55553e-20)
(1.03274 -0.0510492 -3.12873e-20)
(1.06382 -0.0660195 -1.07743e-20)
(1.17398 -0.114873 3.82265e-21)
(1.29077 -0.053374 -6.2333e-21)
(1.3466 0.0197109 -7.91282e-20)
(1.35993 0.0661591 -4.36626e-20)
(1.35778 0.0926087 -1.05811e-23)
(1.35213 0.107328 -4.42889e-20)
(1.34587 0.114595 -4.42107e-20)
(1.34016 0.117489 1.03745e-23)
(1.33619 0.117917 -4.20075e-20)
(1.33302 0.116611 -4.36395e-23)
(1.3246 0.112953 -2.43832e-24)
(1.29673 0.105342 0)
(1.22855 0.0923296 0)
(1.10359 0.0739106 0)
(0.922653 0.0528969 0)
(0.706882 0.0325619 2.27805e-20)
(0.29092 0.00594745 -2.97201e-20)
(0.140974 0.00307732 3.54613e-22)
(0.132619 -0.000185449 2.55627e-21)
(0.06116 0.000796361 -4.5009e-22)
(0.061471 0.000159772 0)
(0.062424 0.000450775 0)
(0.0628132 -0.000165655 -1.12645e-22)
(0.0199496 9.47407e-05 0)
(0.0203943 -3.65594e-05 0)
(0.0207862 7.29998e-05 3.33373e-23)
(0.0208257 -5.16166e-05 -3.31322e-23)
(0.484596 0.0163245 2.64066e-20)
(1.00182 -0.0204115 3.49891e-20)
(1.03255 -0.0602192 -2.76516e-21)
(1.06036 -0.0867344 2.72255e-24)
(1.1939 -0.156506 -3.59847e-21)
(1.32529 -0.0781572 4.90403e-20)
(1.37712 0.00876869 -7.37483e-21)
(1.3819 0.0619816 4.2351e-20)
(1.3726 0.0917735 3.21983e-23)
(1.36111 0.108316 -4.4993e-20)
(1.34988 0.116507 4.43877e-20)
(1.33994 0.119721 4.31925e-20)
(1.33256 0.120196 8.3289e-20)
(1.32803 0.119065 4.01546e-20)
(1.32405 0.116446 3.87227e-20)
(1.31332 0.111563 -4.47391e-24)
(1.2813 0.103056 0)
(1.2086 0.0895212 0)
(1.0813 0.0713237 0)
(0.902147 0.0506236 -3.97263e-20)
(0.690508 0.0309449 -2.22576e-20)
(0.286346 0.0061847 -7.03459e-24)
(0.156469 0.00277032 0)
(0.153031 0.000670085 -2.62952e-21)
(0.0777935 0.00266004 -6.93545e-21)
(0.0683476 -0.00027595 0)
(0.0635771 0.000192514 -7.2323e-21)
(0.0609384 -0.000472029 0)
(0.018864 8.27863e-05 2.60191e-22)
(0.0191905 -3.66429e-05 0)
(0.0195384 7.35767e-05 -3.26895e-23)
(0.0195534 -4.66058e-05 9.77023e-23)
(0.471862 0.0156212 -6.15307e-24)
(1.00256 -0.0236029 0)
(1.03061 -0.0691317 3.28345e-20)
(1.05691 -0.111071 3.6458e-24)
(1.22116 -0.205195 -2.2662e-24)
(1.36861 -0.103501 6.43441e-20)
(1.41442 -0.000664661 8.02894e-20)
(1.40946 0.0592957 0)
(1.39255 0.0922103 2.1688e-23)
(1.3749 0.110299 8.90615e-20)
(1.3583 0.119162 -4.36484e-20)
(1.34369 0.122513 -4.26372e-20)
(1.33222 0.122855 -4.124e-20)
(1.32448 0.121545 -3.98378e-20)
(1.31976 0.119111 -3.83845e-20)
(1.31488 0.115419 0)
(1.30184 0.109717 4.45603e-24)
(1.26616 0.100552 0)
(1.18976 0.0867547 0)
(1.06086 0.0685475 7.93419e-23)
(0.882886 0.0482556 0)
(0.67412 0.0295098 0)
(0.277458 0.00600637 7.16301e-24)
(0.152605 0.0030669 9.17139e-24)
(0.15471 0.00116095 -1.31167e-21)
(0.0940353 0.00128253 0)
(0.093729 0.000619122 1.04252e-22)
(0.0922638 0.00052925 -1.02049e-22)
(0.0885429 -0.000176968 3.2448e-21)
(0.033996 0.00233839 4.45144e-21)
(0.0229918 -0.000223624 0)
(0.0205489 -8.30961e-05 2.11897e-21)
(0.0189293 -0.000127549 1.30964e-22)
(0.459328 0.0148463 -1.24819e-20)
(1.0031 -0.0263412 -1.64996e-22)
(1.02675 -0.0778133 0)
(1.05421 -0.139796 2.06094e-20)
(1.25391 -0.261781 -1.77301e-22)
(1.41591 -0.128181 -6.12284e-20)
(1.45246 -0.00784685 -1.96742e-23)
(1.43766 0.0585817 9.41992e-20)
(1.41458 0.0942189 -2.16686e-23)
(1.39204 0.113488 -1.34317e-19)
(1.37072 0.122711 4.40179e-20)
(1.35155 0.125985 -2.11381e-23)
(1.33578 0.126036 3.99453e-23)
(1.3241 0.124361 3.93913e-20)
(1.31641 0.121688 -3.79493e-20)
(1.3115 0.118255 0)
(1.30566 0.113852 0)
(1.29048 0.107555 -3.39778e-20)
(1.25157 0.097928 0)
(1.17209 0.0838218 1.67505e-20)
(1.04172 0.0656926 1.72692e-20)
(0.864514 0.0461084 0)
(0.658619 0.0281681 0)
(0.268441 0.00554092 1.22325e-20)
(0.146925 0.00270176 0)
(0.148748 0.00102559 -3.30135e-22)
(0.0904981 0.00138116 4.13086e-22)
(0.0915199 0.000770773 4.14946e-22)
(0.0926731 0.000902762 4.14673e-22)
(0.0931433 0.000306896 8.28605e-22)
(0.0534539 0.000368458 -8.66878e-23)
(0.0536552 0.00019862 2.68143e-22)
(0.0524943 0.000148237 0)
(0.0497339 -4.29571e-05 2.12682e-23)
(0.00938768 0.000625251 -4.68532e-22)
(0.44816 0.0141211 0)
(1.00328 -0.0283589 -4.62227e-20)
(1.02071 -0.0857723 1.56029e-22)
(1.05059 -0.173209 -1.98392e-20)
(1.28444 -0.326504 1.73218e-22)
(1.45338 -0.148183 -1.63412e-23)
(1.4756 -0.0115184 -2.34757e-23)
(1.45299 0.0604129 5.80612e-21)
(1.42909 0.0980387 2.19743e-23)
(1.40663 0.11802 8.87249e-20)
(1.38402 0.127269 -1.31076e-19)
(1.36222 0.130242 0)
(1.34298 0.129844 4.05286e-20)
(1.32746 0.127667 -9.30888e-25)
(1.31605 0.124539 7.50317e-20)
(1.3085 0.12088 9.02274e-24)
(1.30337 0.116803 8.29597e-24)
(1.29662 0.111911 3.35634e-20)
(1.27945 0.105168 -3.88587e-24)
(1.23764 0.0951105 -3.18516e-20)
(1.15537 0.0807996 -1.6107e-20)
(1.02364 0.0630337 0)
(0.847415 0.0441502 0)
(0.644697 0.0269362 0)
(0.260444 0.00514726 6.82651e-24)
(0.141039 0.00273084 0)
(0.143431 0.000735452 2.88801e-21)
(0.086332 0.000338964 0)
(0.0873465 0.000432243 0)
(0.0882937 0.00079223 0)
(0.0890485 0.000255938 8.16859e-22)
(0.0511227 0.000399268 0)
(0.0520379 0.000275541 -2.66989e-22)
(0.0527675 0.0002768 0)
(0.0529801 0.000140801 1.75938e-22)
(0.0166671 2.26844e-05 1.22005e-22)
(0.016893 1.70941e-06 -2.12197e-22)
(0.0164737 -6.16124e-05 -2.96743e-23)
(0.0158526 -0.000339048 9.28016e-22)
(0.439196 0.0134854 1.16777e-20)
(1.0032 -0.0293021 9.5271e-20)
(1.0117 -0.0913063 -1.70515e-22)
(1.04029 -0.209136 0)
(1.29585 -0.39506 1.60958e-21)
(1.45532 -0.157885 0)
(1.45423 -0.00933262 -2.87568e-23)
(1.42956 0.0651469 -9.88059e-20)
(1.41621 0.103535 0)
(1.40485 0.123679 -2.27724e-23)
(1.38949 0.13272 8.68705e-20)
(1.37081 0.135272 -3.96798e-23)
(1.35148 0.13433 -3.99846e-20)
(1.33379 0.131551 0)
(1.31915 0.127839 -8.11262e-23)
(1.30821 0.12371 -8.90795e-24)
(1.30085 0.119431 3.41974e-20)
(1.29554 0.114943 -8.24674e-24)
(1.28789 0.109697 3.1795e-20)
(1.26881 0.102562 3.10963e-20)
(1.22429 0.0921749 0)
(1.13949 0.0779152 0)
(1.0068 0.0605991 0)
(0.831892 0.0423767 0)
(0.632822 0.0258751 0)
(0.254334 0.00486726 -1.32777e-20)
(0.136129 0.00253638 0)
(0.137899 0.000716612 1.41737e-21)
(0.0644224 0.000511601 2.20221e-22)
(0.065839 2.91374e-05 -2.12654e-22)
(0.0489245 -0.000480933 -8.95768e-23)
(0.0498989 3.25736e-05 -1.19102e-25)
(0.0500667 0.00021201 8.75922e-23)
(0.0503767 0.000123624 -4.39234e-22)
(0.01582 2.9068e-05 -3.02725e-23)
(0.0162198 1.54258e-05 -3.03901e-23)
(0.0164798 1.6549e-05 0)
(0.0164893 -3.91352e-06 -1.21597e-22)
(0.433602 0.0131623 0)
(1.00292 -0.0287564 -4.84861e-20)
(0.999338 -0.0926996 0)
(1.01345 -0.238866 4.23666e-20)
(1.25965 -0.454467 -1.56319e-21)
(1.38339 -0.15843 2.96186e-23)
(1.34324 0.000822251 -1.35796e-19)
(1.32929 0.0721234 8.18109e-23)
(1.34527 0.109606 -5.20296e-23)
(1.36315 0.129408 0)
(1.37021 0.138334 8.96563e-20)
(1.36615 0.140679 -3.96942e-23)
(1.35462 0.139333 -7.95842e-20)
(1.33962 0.135991 3.79871e-20)
(1.32434 0.131656 -7.67779e-23)
(1.31096 0.126939 0)
(1.30067 0.122197 -3.3844e-20)
(1.29357 0.117549 3.60505e-25)
(1.28808 0.112788 -3.14783e-20)
(1.27951 0.107253 3.78835e-24)
(1.25854 0.099815 2.95268e-20)
(1.21149 0.0893106 0)
(1.12457 0.0752394 0)
(0.991322 0.0583869 0)
(0.818119 0.0408437 -1.66007e-20)
(0.623355 0.0251683 -1.85728e-20)
(0.252835 0.0046596 3.20903e-21)
(0.132831 0.00242809 3.0814e-21)
(0.13362 0.000613105 -3.43092e-22)
(0.061881 0.000459061 0)
(0.0629744 0.000141395 -1.21681e-21)
(0.0145375 0.00019784 -3.2098e-23)
(0.014682 -0.000119938 6.38972e-23)
(0.0147895 -0.000248865 -6.51513e-23)
(0.0149051 0.000150533 -4.84614e-26)
(0.0151224 -0.000217874 5.90965e-23)
(0.0155448 -2.98345e-05 2.96984e-23)
(0.0155472 1.37808e-05 -5.95047e-23)
(0.0155809 -5.76418e-06 5.97458e-23)
(0.431097 0.0132666 2.1502e-20)
(1.00197 -0.0265502 0)
(0.984731 -0.0900226 -5.80984e-20)
(0.958181 -0.24937 -6.67354e-20)
(1.1396 -0.498505 -5.33275e-21)
(1.18153 -0.150738 5.0374e-21)
(1.08916 0.0167173 1.5615e-19)
(1.11192 0.0784016 -7.12169e-23)
(1.1828 0.113299 -5.92475e-23)
(1.2525 0.132746 4.83247e-23)
(1.302 0.142268 -9.25275e-20)
(1.32961 0.145267 -4.04187e-23)
(1.33931 0.144179 7.97618e-20)
(1.33663 0.140668 3.77074e-20)
(1.32696 0.135888 -3.6018e-20)
(1.31471 0.130612 0)
(1.30296 0.125313 1.58404e-23)
(1.2935 0.120229 0)
(1.28671 0.115362 3.08185e-20)
(1.28099 0.11041 0)
(1.27143 0.104666 -2.90554e-20)
(1.24863 0.0970877 -3.52287e-24)
(1.19932 0.0866096 0)
(1.11067 0.072781 0)
(0.977236 0.0564385 1.48299e-20)
(0.806141 0.0396457 1.60226e-20)
(0.615914 0.0247833 1.7923e-20)
(0.25813 0.00509441 -3.00991e-20)
(0.135402 0.00226249 1.04905e-20)
(0.13245 0.000354864 -5.35852e-21)
(0.0600436 0.000427846 -2.23091e-21)
(0.0607145 0.000126882 -7.03739e-23)
(0.0139075 0.000187961 -3.13739e-23)
(0.0140297 -0.000125648 3.12681e-23)
(0.0142453 -0.000174263 6.33478e-23)
(0.014255 0.000149855 0)
(0.428005 0.0130059 0)
(1.00046 -0.022608 0)
(0.967396 -0.0807411 -5.08141e-21)
(0.944418 -0.182618 2.10445e-20)
(0.921123 -0.182835 2.40636e-20)
(0.970878 -0.574535 9.25081e-21)
(0.866112 -0.56342 1.90583e-20)
(0.870889 -0.308356 2.57455e-20)
(1.07454 -0.205156 1.43376e-19)
(0.912555 -0.483132 5.73669e-23)
(0.789769 -0.138744 -8.91903e-20)
(0.657589 0.0325211 0)
(0.635951 0.00913285 -6.91263e-20)
(0.763025 0.0794951 1.54048e-22)
(0.913784 0.109394 1.28071e-22)
(1.05256 0.129621 -5.46297e-23)
(1.1618 0.141312 -3.92139e-24)
(1.23886 0.146677 4.24089e-23)
(1.28657 0.147296 -8.18454e-20)
(1.31046 0.144649 -7.48164e-23)
(1.31729 0.140058 0)
(1.31363 0.134545 3.40218e-20)
(1.30492 0.128792 0)
(1.29514 0.123205 -1.57504e-23)
(1.28668 0.117951 -3.04707e-20)
(1.28024 0.112964 2.92744e-20)
(1.27422 0.107899 -6.8046e-24)
(1.26364 0.102071 2.75127e-20)
(1.23912 0.094478 0)
(1.18785 0.0840964 0)
(1.0978 0.070575 0)
(0.96451 0.0547989 -1.41933e-20)
(0.795687 0.038711 -1.5451e-20)
(0.608828 0.0241401 0)
(0.259901 0.00530809 0)
(0.149236 0.00221178 0)
(0.142664 0.00156672 9.84031e-21)
(0.0629182 4.39277e-05 -1.3398e-20)
(0.059843 -8.75137e-06 0)
(0.013384 0.00017545 -3.07588e-23)
(0.0134663 -0.000123886 -2.83263e-25)
(0.0136487 -0.000169341 6.19592e-23)
(0.013672 0.000146223 3.07066e-23)
(0.422488 0.0128355 0)
(0.998789 -0.016969 -5.11466e-22)
(0.952807 -0.0643608 6.48453e-20)
(0.896468 -0.16832 -2.40525e-20)
(0.874245 -0.151768 -2.91372e-20)
(0.828748 -0.283594 4.63663e-22)
(0.765466 -0.548444 -2.8995e-20)
(0.654441 -0.511268 -8.43622e-22)
(0.835151 -0.616406 1.07466e-21)
(0.594244 -0.189856 2.50254e-20)
(0.263188 -0.101685 -2.03718e-21)
(0.449738 -0.268038 3.48702e-21)
(0.221459 -0.00735317 -4.11405e-21)
(0.275755 0.02647 -3.29273e-20)
(0.476283 0.0146582 3.71386e-20)
(0.301882 0.0545504 1.11652e-19)
(0.344817 0.0714117 5.11944e-20)
(0.199642 0.0113184 -1.07762e-19)
(0.278529 0.0120739 -1.04085e-22)
(0.573404 0.092275 -1.85143e-22)
(0.774388 0.115282 -1.44149e-22)
(0.944 0.13147 5.91153e-23)
(1.07871 0.141567 -9.65198e-23)
(1.17751 0.146082 8.65436e-20)
(1.24288 0.146103 -7.83347e-20)
(1.28031 0.143015 0)
(1.29685 0.138107 -3.40825e-20)
(1.29968 0.132363 -8.11669e-25)
(1.29498 0.126457 0)
(1.28749 0.120776 0)
(1.28017 0.115467 -2.8982e-20)
(1.27408 0.110446 0)
(1.26774 0.105372 -2.71794e-20)
(1.25616 0.0995635 3.28128e-24)
(1.23008 0.0920243 0)
(1.17708 0.0818077 3.07472e-24)
(1.08591 0.0686504 -1.29574e-20)
(0.952979 0.0534085 0)
(0.78597 0.0377014 0)
(0.600867 0.0236211 0)
(0.256448 0.00533803 0)
(0.15048 0.00292094 2.40241e-21)
(0.150691 0.001189 0)
(0.0835047 0.000558025 2.03435e-21)
(0.0750663 0.000676417 6.30467e-23)
(0.0160942 0.00051005 4.7813e-21)
(0.0142072 -0.00033236 -6.66713e-23)
(0.0131569 -0.000197959 -3.04487e-23)
(0.0134517 0.000115498 9.26367e-23)
(0.415619 0.0126452 0)
(0.997115 -0.0099968 6.23388e-20)
(0.942945 -0.0414452 5.25197e-22)
(0.854404 -0.127212 2.94844e-20)
(0.838613 -0.100263 6.10383e-22)
(0.777337 -0.265877 -3.47541e-20)
(0.727947 -0.234941 7.29062e-20)
(0.694478 -0.447807 4.19415e-23)
(0.74199 -0.461348 9.20771e-21)
(0.470714 -0.456891 -1.38063e-21)
(0.529037 -0.451249 5.84267e-23)
(0.617318 -0.578968 9.64188e-21)
(0.281653 -0.249371 0)
(0.0709558 0.0212796 -2.14549e-20)
(0.122685 0.0115892 9.20616e-23)
(0.0634102 0.0247737 -9.77066e-20)
(0.118878 0.0472084 9.65964e-20)
(0.261473 0.0599054 0)
(0.128661 0.0266996 -9.16061e-20)
(0.0472672 0.000620263 8.57533e-20)
(0.4749 0.0872304 0)
(0.676083 0.109881 0)
(0.855636 0.126797 0)
(1.00484 0.137482 1.38708e-22)
(1.11931 0.14242 -3.9485e-23)
(1.19941 0.142792 0)
(1.24932 0.139988 0)
(1.2755 0.13526 3.23985e-23)
(1.28513 0.129622 -1.53603e-23)
(1.28483 0.123778 -2.92846e-20)
(1.2799 0.118142 0)
(1.27388 0.112876 0)
(1.26818 0.107916 -6.36863e-24)
(1.26154 0.102919 -6.18529e-24)
(1.24903 0.097191 0)
(1.22151 0.0897655 0)
(1.16698 0.0797687 2.46559e-20)
(1.07493 0.0669685 0)
(0.942259 0.0520786 0)
(0.776249 0.0368341 0)
(0.592279 0.023226 -1.62972e-20)
(0.251239 0.0051526 1.39064e-21)
(0.147447 0.00284967 2.34509e-21)
(0.148873 0.00135831 0)
(0.0839057 0.000896795 -2.25481e-21)
(0.0844848 0.000475432 -2.84566e-22)
(0.0396685 0.000321507 0)
(0.0387081 -1.26258e-05 -1.34658e-21)
(0.0246876 0.00169587 -1.61846e-20)
(0.0362824 0.000133418 0)
(0.408337 0.0124585 9.52296e-21)
(0.995679 -0.00238022 -1.25047e-19)
(0.934011 -0.0132337 -3.04502e-21)
(0.827295 -0.0729035 0)
(0.820207 -0.0518066 -4.31073e-20)
(0.688741 -0.186449 -4.01348e-20)
(0.660516 -0.128563 -6.40016e-22)
(0.63745 -0.4233 -1.19451e-20)
(0.581404 -0.394304 1.06134e-20)
(0.488884 -0.318671 1.41393e-20)
(0.530523 -0.35843 -1.27735e-20)
(0.5433 -0.570027 -2.46888e-22)
(0.412498 -0.45225 1.59839e-21)
(0.0201225 0.00682847 -4.67927e-20)
(-0.00230663 0.0102138 1.43972e-21)
(0.00608389 -0.00330337 -1.74731e-21)
(0.0194359 0.0147109 -5.65877e-20)
(0.0718084 0.021482 -1.2635e-22)
(0.230102 0.0500583 0)
(0.0457157 0.0135894 1.75876e-20)
(-0.00041456 -0.0093728 -5.48237e-20)
(0.00785686 0.000344133 2.41071e-20)
(0.413646 0.0778918 0)
(0.6038 0.101632 1.26724e-22)
(0.783225 0.119493 1.0375e-22)
(0.939267 0.131074 -4.99449e-23)
(1.06447 0.136939 4.05697e-23)
(1.15657 0.138183 -7.17135e-20)
(1.21778 0.136057 0)
(1.25335 0.13182 2.93044e-23)
(1.26998 0.12651 5.83155e-20)
(1.27439 0.120884 0)
(1.2723 0.115404 0)
(1.26772 0.110278 0)
(1.26251 0.105458 6.3173e-24)
(1.25561 0.100593 2.30526e-25)
(1.24223 0.0949927 0)
(1.2134 0.0877278 0)
(1.15753 0.0779623 0)
(1.06466 0.0654293 0)
(0.931924 0.0509261 0)
(0.766476 0.0361709 3.49828e-23)
(0.583546 0.0229068 -7.88722e-21)
(0.245718 0.00502221 1.3502e-21)
(0.143713 0.00267768 -2.28771e-21)
(0.145297 0.00122227 0)
(0.0816691 0.000830008 -2.21141e-21)
(0.0828319 0.000522108 0)
(0.0388973 0.000435828 0)
(0.0392179 -5.56629e-06 3.39828e-22)
(0.039527 -0.000110867 6.81971e-22)
(0.0396159 0.000343573 -3.40922e-22)
(0.0122701 4.65864e-05 -2.55649e-23)
(0.0120479 -6.81909e-05 -8.10203e-22)
(0.00677592 0.000471966 6.36883e-21)
(0.0115672 -0.000267483 0)
(0.401084 0.0123368 0)
(0.994529 0.00517722 6.25863e-20)
(0.935669 0.0185099 -7.84565e-20)
(0.752257 0.061881 3.53735e-20)
(0.641064 -0.0609972 0)
(0.636521 0.0219625 0)
(0.455548 -0.269547 0)
(0.427112 -0.216044 1.83717e-20)
(0.384393 -0.102053 0)
(0.403428 -0.159676 -1.85076e-20)
(0.404565 -0.501896 2.24193e-20)
(0.317075 -0.405045 -1.94112e-20)
(0.208115 -0.329184 -1.84708e-20)
(0.262704 -0.375537 -4.1521e-22)
(0.341148 -0.445286 1.23101e-21)
(-0.0106585 0.00434404 -2.56832e-20)
(0.00195752 0.000113896 0)
(0.00671807 0.00900392 7.41423e-23)
(0.0723435 0.0178194 -5.4001e-20)
(0.0145261 0.000346596 1.81219e-20)
(0.204775 0.0431605 2.03801e-19)
(0.0158265 0.00241645 -8.75004e-23)
(0.0115741 0.00682915 1.5967e-22)
(-0.00729114 -0.00233842 1.30515e-20)
(0.000325145 -0.000251033 9.29281e-22)
(0.369565 0.0697436 0)
(0.547459 0.0930428 -1.32775e-22)
(0.722241 0.111166 1.06558e-19)
(0.880487 0.123562 -2.78373e-24)
(1.01279 0.13052 7.78187e-20)
(1.11456 0.132799 1.84899e-24)
(1.18589 0.131557 0)
(1.23048 0.127993 -2.94786e-20)
(1.2542 0.123166 0)
(1.26359 0.11788 0)
(1.26458 0.112658 -2.55866e-20)
(1.26165 0.10775 0)
(1.25703 0.103125 5.79906e-24)
(1.24995 0.0984324 5.85962e-24)
(1.23577 0.0929977 0)
(1.20575 0.0859122 -2.2593e-20)
(1.14864 0.0763424 0)
(1.05487 0.0640998 0)
(0.921862 0.0500254 3.30536e-23)
(0.756849 0.0356698 0)
(0.574965 0.0226881 0)
(0.24024 0.00497473 0)
(0.139973 0.00260864 -2.22532e-21)
(0.141552 0.00116853 0)
(0.0793151 0.0007538 -3.61542e-22)
(0.0804368 0.000451309 2.39989e-22)
(0.0375516 0.000412647 0)
(0.0378828 -2.44587e-05 4.15647e-22)
(0.0384134 -0.000102214 -8.36473e-23)
(0.0382927 0.000336597 7.65523e-25)
(0.0119564 5.70606e-05 0)
(0.0121307 -2.45547e-05 0)
(0.0122221 -3.91036e-05 2.58411e-23)
(0.0122596 4.78805e-05 0)
(0.3942 0.0122916 0)
(0.993748 0.0122129 0)
(0.942216 0.0458589 3.45956e-21)
(0.803588 0.134197 9.48806e-22)
(0.384463 0.261404 -1.98776e-20)
(0.50756 0.349623 -2.12313e-21)
(0.372081 -0.04287 0)
(0.371284 0.0143461 0)
(0.414127 0.126684 1.89445e-21)
(0.384091 0.0728677 0)
(0.166101 -0.269491 -1.59312e-21)
(0.134885 -0.202745 -1.61002e-21)
(0.0983212 -0.0674781 -2.64345e-20)
(0.112582 -0.134851 2.52038e-20)
(0.155612 -0.267196 -1.36539e-21)
(-0.00944249 -0.000867179 -1.49686e-20)
(-0.00292874 -0.00185834 0)
(0.0031348 2.46132e-05 -1.46843e-22)
(-0.00125173 0.00242542 1.29556e-20)
(-6.72358e-05 6.6765e-07 -1.42026e-20)
(0.0160538 0.00800256 -1.56717e-20)
(0.0659974 0.0153368 -2.03902e-19)
(0.0172684 -1.27651e-05 8.31801e-20)
(0.000914718 0.000227781 -1.27608e-20)
(0.00249733 -0.00193738 -1.99628e-20)
(0.184745 0.0383257 0)
(0.000778955 -0.00112731 -1.62781e-20)
(0.334692 0.0625751 0)
(0.500886 0.084654 -2.52515e-19)
(0.669359 0.102658 4.90867e-23)
(0.827141 0.115728 8.68816e-20)
(0.963942 0.123647 0)
(1.07346 0.12699 3.33914e-23)
(1.15379 0.126714 0)
(1.20696 0.123935 -5.49571e-23)
(1.23778 0.119702 0)
(1.25235 0.114859 2.29835e-22)
(1.25669 0.109978 0)
(1.2556 0.105347 1.14017e-23)
(1.2517 0.100955 -2.30449e-20)
(1.24452 0.0964671 -5.4037e-24)
(1.22963 0.0912176 2.20953e-20)
(1.19849 0.0843031 0)
(1.14016 0.0749517 -2.17343e-20)
(1.04545 0.0630479 2.23263e-20)
(0.912125 0.0493554 0)
(0.747518 0.0353317 0)
(0.566813 0.0225918 0)
(0.234999 0.00497151 0)
(0.136295 0.00258155 0)
(0.137841 0.0011723 -1.09438e-21)
(0.0770432 0.000731659 1.1719e-22)
(0.0781365 0.000433537 1.17724e-22)