/*--------------------------------*- C++ -*----------------------------------*\
| =========                 |                                                 |
| \\      /  F ield         | OpenFOAM: The Open Source CFD Toolbox           |
|  \\    /   O peration     | Version:  v1912                                 |
|   \\  /    A nd           | Website:  www.openfoam.com                      |
|    \\/     M anipulation  |                                                 |
\*---------------------------------------------------------------------------*/
FoamFile
{
    version     2.0;
    format      ascii;
    class       surfaceScalarField;
    location    "10";
    object      phi;
}
// * * * * * * * * * * * * * * * * * * * * * * * * * * * * * * * * * * * * * //

dimensions      [0 3 -1 0 0 0 0];
oriented        oriented;


internalField   nonuniform List<scalar> 
7352
(
0.00684549
0.00325662
0.0101366
0.00677474
0.00167994
0.00163656
0.0115857
0.00865249
0.00402403
0.00446474
0.000124271
0.00152946
0.0120756
0.00956046
0.00601635
0.00672412
0.000833053
0.00373103
-5.25951e-05
0.00153761
0.0122877
0.00990728
0.00726828
0.00831659
0.00190739
0.00565683
-8.34746e-05
0.00378054
0.000112705
0.00137693
0.0123412
0.00998017
0.00797673
0.0092559
0.00289151
0.00731201
-7.39704e-06
0.00554222
5.61135e-05
0.00387408
6.76307e-05
0.00127917
0.0125124
0.00995608
0.00823576
0.00971595
0.00361704
0.00854136
0.000254346
0.00708793
-0.000213166
0.00574132
4.1842e-05
0.00395655
-0.000113282
0.00134491
0.0126177
0.00990848
0.00836476
0.00989797
0.00400646
0.00931135
0.000387679
0.008379
-0.000317377
0.00725189
-0.000244258
0.00598751
-0.000228586
0.00408703
-0.000204452
0.00154399
0.0129005
0.00986512
0.00831866
0.00993306
0.00419044
0.00973782
0.000426259
0.00932142
-0.000526897
0.00854452
-0.000483025
0.00754509
-0.000500203
0.00621331
-0.00038888
0.00429078
-0.000209595
0.0017148
0.0130554
0.00982719
0.00836616
0.0098966
0.00418114
0.0099323
0.00018791
0.00994597
-0.000692351
0.00955032
-0.000825683
0.00884851
-0.00076923
0.00784561
-0.000599859
0.00642926
-0.000374149
0.00445004
-0.000154586
0.00185153
0.0134148
0.00979508
0.00834272
0.00981456
0.00411955
0.00999008
-0.000183897
0.0103407
-0.00104891
0.0102755
-0.00111024
0.00988308
-0.00112336
0.00918947
-0.000835372
0.0081067
-0.000537394
0.00656874
-0.000281925
0.00457544
-0.000116058
0.00192282
0.0136029
0.00976025
0.00853822
0.00970493
0.00395966
0.00995331
-0.000788562
0.0105885
-0.00143456
0.0107738
-0.00151508
0.0106539
-0.00145473
0.0102508
-0.00112301
0.00948387
-0.000698458
0.00827314
-0.000386946
0.00666504
-0.000194538
0.00464313
-8.65575e-05
0.00197454
0.0140359
0.00972875
0.0086743
0.0095576
0.00386784
0.00984863
-0.00157593
0.0107402
-0.00199872
0.0111254
-0.00190712
0.0112034
-0.00184469
0.0110401
-0.00141349
0.010567
-0.000888603
0.00968233
-0.000485647
0.00837449
-0.000277851
0.00671361
-0.000146734
0.00469409
-8.34895e-05
0.00200658
0.0142462
0.00969668
0.00915557
0.00938001
0.00369717
0.00967693
-0.00255667
0.0108286
-0.00260573
0.0113705
-0.00238947
0.0115929
-0.00220717
0.0115963
-0.00171258
0.0113595
-0.00109822
0.0107876
-0.000613753
0.00980348
-0.000335514
0.00842783
-0.000216372
0.0067515
-0.000131282
0.00472722
-7.68694e-05
0.00202161
0.0147275
0.00967606
0.0095737
0.00916278
0.00370324
0.00942684
-0.00377273
0.0108448
-0.00331257
0.0115207
-0.00283949
0.0118484
-0.00258172
0.0119656
-0.00199034
0.0118956
-0.00131037
0.0115833
-0.000753263
0.0109255
-0.000415946
0.00987286
-0.000255291
0.00846156
-0.000209909
0.00677616
-0.000119214
0.00474639
-8.09061e-05
0.0020375
0.01491
0.00968388
0.0104854
0.00891948
0.00375838
0.00904987
-0.00507166
0.0107282
-0.00397357
0.0115246
-0.00327256
0.0119452
-0.00286361
0.0121499
-0.00222365
0.01221
-0.00150371
0.0120977
-0.000888369
0.0117264
-0.000502441
0.0110101
-0.000325152
0.00991098
-0.000243725
0.00848249
-0.000200505
0.00679291
-0.000115862
0.00477281
-8.46809e-05
0.00210371
0.0152894
0.00972407
0.0113244
0.00866571
0.00431275
0.00840553
-0.0063769
0.0102819
-0.00449821
0.0112325
-0.00349679
0.0117726
-0.00301931
0.0120932
-0.00234859
0.0122915
-0.00163432
0.0123598
-0.00102007
0.012223
-0.0005996
0.0118137
-0.000380875
0.0110549
-0.000307275
0.00993352
-0.000225157
0.00849939
-0.000201444
0.0068227
-0.000142665
0.00484483
-8.95791e-05
0.00215729
0.0153657
0.00966704
0.0126311
0.00859213
0.00574804
0.00723168
-0.0070138
0.00905476
-0.00450539
0.0102878
-0.00338226
0.0111204
-0.00288342
0.0116494
-0.0023137
0.0120599
-0.00168512
0.0123462
-0.00110079
0.0124417
-0.000682003
0.0123005
-0.000451972
0.0118619
-0.000344284
0.0110809
-0.000291758
0.00994946
-0.000231215
0.00852876
-0.000237276
0.00688859
-0.000147199
0.00490966
-5.11359e-05
0.00219212
0.0157015
0.00964253
0.0135907
0.00428855
0.00422887
0.00517017
0.00306277
0.00297657
0.00315541
-0.00284033
0.00353091
-0.00340737
0.00287107
-0.00156159
0.00809258
-0.00198945
-0.00269374
0.00962119
-0.00238037
0.0106134
-0.00202679
0.0113759
-0.00158845
0.0119738
-0.00112051
0.0123541
-0.000730797
0.0124891
-0.000505069
0.0123377
-0.000412523
0.0118907
-0.000312418
0.0110971
-0.000295
0.00997515
-0.000281561
0.00859296
-0.00024003
0.00695139
-9.5871e-05
0.00496659
-1.75811e-05
0.00217922
0.0156249
0.00982997
0.0148457
0.00417658
0.00435635
0.0055326
0.0038978
0.00618127
0.00364549
-0.00236053
0.00260796
-4.17834e-05
-0.000954979
0.000713519
0.000843849
0.0045566
0.00132731
0.00122207
-0.00151474
0.00348926
-0.00210602
0.000748173
0.000558847
-0.000343064
0.00212277
-0.000417629
-0.000491908
0.00681674
-0.000924005
-0.00114481
0.00264098
-0.00148193
0.00873637
-0.00151333
0.0100961
-0.00134222
0.0111204
-0.00103217
0.0118818
-0.00073157
0.0123483
-0.000546177
0.0125042
-0.000457038
0.0123672
-0.000361397
0.0119076
-0.000303958
0.0111161
-0.000353137
0.0100309
-0.000295397
0.00865554
-0.000183678
0.00701363
-2.98031e-05
0.00498784
5.72407e-06
0.00215459
0.0155628
0.0101588
0.0152947
0.00443013
0.00478922
0.00670318
0.00359138
0.00738921
0.00372849
0.00601258
0.0010556
0.00105915
0.000952292
0.00032615
-0.000561368
0.000551233
0.00126218
-0.000551233
0.000837948
0.000718625
-0.000312174
0.000719174
0.000246792
-0.000238601
0.00138203
-0.000165123
-0.000144257
0.000448445
0.00241033
-0.000256067
-0.000161376
0.00581267
-0.000316624
0.00184953
-0.000356725
-0.000892536
0.00812565
-0.000946662
0.00971065
-0.000844167
0.0109265
-0.000664978
0.0118127
-0.000545797
0.0123285
-0.000509173
0.0125294
-0.00038031
0.0123878
-0.000334726
0.011915
-0.000380255
0.0111574
-0.000379391
0.0100911
-0.000233321
0.00872264
-9.8322e-05
0.00705537
1.34915e-05
0.00499155
-3.89096e-06
0.0021296
0.0150494
0.0104676
0.0154644
0.00489696
0.0052066
0.00788298
0.00386373
0.00831057
0.00438447
0.0074594
0.0010704
0.00112019
0.00883021
0.00117142
0.00112193
-0.00139475
0.00197424
0.000493985
0.000502852
0.00016655
0.000102536
-0.000385899
0.000147378
0.00116368
-3.85362e-06
-3.06974e-05
-0.000102536
0.00173103
-3.78774e-05
-0.00023227
0.00537384
-0.000215272
0.00150348
-3.25289e-05
-4.94144e-05
0.000843226
-3.23612e-05
1.84621e-07
-0.000561823
0.00773274
-0.000587537
0.00944355
-0.000536406
0.0107983
-0.00050364
0.011747
-0.000537481
0.0123424
-0.000423427
0.0125542
-0.000322014
0.012384
-0.000410907
0.0119378
-0.000418039
0.0112088
-0.000318212
0.0101604
-0.000142855
0.00877594
-4.47515e-05
0.00708655
1.4651e-05
0.00498341
-1.88842e-05
0.00212566
0.0146302
0.0106158
0.0147623
0.0110683
0.00868067
0.00450117
0.00923022
0.00469507
0.0101067
0.00120287
0.00141244
0.0106792
0.00207322
0.00173716
0.00253609
0.000515846
0.00311578
0.000539107
-0.00367731
0.00427687
0.000576978
0.000560023
-0.000669402
0.00117838
0.000143595
0.000112981
0.000459451
6.75564e-06
-7.33154e-07
0.000342639
0.00141742
-6.95195e-05
-7.7476e-05
-0.000203195
0.00510919
-8.91589e-05
0.00133726
-6.4962e-05
-6.98833e-05
0.000495109
-6.7046e-05
0.000457782
-9.98766e-06
-0.000113166
8.09566e-05
-0.000309874
0.00744619
-0.000395301
0.0092959
-0.000429944
0.0106963
-0.000556569
0.0117472
-0.000452248
0.0123771
-0.00030885
0.0125378
-0.000400748
0.0123861
-0.000472904
0.0119752
-0.000370074
0.0112731
-0.000224668
0.0102211
-7.74271e-05
0.0088248
-3.24724e-05
0.00710537
-5.65476e-06
0.00498261
-3.947e-05
0.00213695
0.0139512
0.0106729
0.0141051
0.0113588
-0.0117957
0.0211551
0.00518164
0.00571097
0.0111376
0.00208343
0.00197504
0.00403802
0.00486477
0.000614657
0.00544379
0.000830516
-0.00578328
0.0059687
0.00188424
0.00139756
0.00170115
0.00223506
-0.00279509
0.00337548
8.778e-05
8.70683e-05
0.000283154
-6.99659e-06
0.000423206
-3.40898e-05
0.000390784
-4.33871e-05
0.00130589
-9.89164e-05
-6.70878e-05
-3.89968e-05
0.00483026
-6.02884e-06
0.00121682
-3.63352e-06
-2.0506e-06
0.000378772
-5.28374e-05
0.000347313
-3.95866e-05
0.000270667
4.37799e-06
-0.000265609
0.00731358
-0.000344058
0.00918738
-0.000539004
0.0106734
-0.000495602
0.0117966
-0.000279553
0.0123532
-0.000391052
0.0125183
-0.000485844
0.0124085
-0.000435079
0.0120318
-0.000275057
0.0113366
-0.000152451
0.0102785
-5.78969e-05
0.00886142
-5.196e-05
0.00712228
-3.38353e-05
0.00498708
-5.83363e-05
0.00216863
0.0133948
0.0107013
0.0132274
0.011473
0.0201876
0.0124028
0.0162308
-0.0156118
0.00243559
0.00213081
0.0162215
0.00573859
0.00632632
0.00172682
0.00679622
0.00151138
-0.00705638
0.00142634
0.000855515
0.00398774
0.00481668
-0.00621424
0.00585755
0.00223101
8.01726e-05
0.00024403
-6.78299e-06
0.000214113
-1.23056e-05
0.000321217
-7.06781e-05
0.000290432
-3.44314e-05
0.00119355
-1.33298e-05
-7.48912e-06
-3.50917e-05
0.00469585
-0.000104414
0.00114878
2.12929e-05
8.52433e-06
0.00028754
-2.20854e-06
0.000277999
4.86982e-06
0.000184043
-2.27727e-05
0.000186549
-4.27489e-05
8.45807e-05
-0.000298401
0.00725059
-0.000481204
0.00911553
-0.000553656
0.0107398
-0.000261288
0.0117763
-0.000345056
0.0123162
-0.00049753
0.0125254
-0.000468211
0.0124526
-0.000347948
0.0120896
-0.000200418
0.0113969
-0.000128069
0.0103271
-6.98265e-05
0.00889455
-7.8171e-05
0.00713478
-6.31218e-05
0.00500222
-7.38619e-05
0.00221453
0.0126555
0.0107188
0.0124922
0.0115077
0.018531
0.0130821
-0.0124341
0.0298263
0.00512514
0.006104
-0.0063439
0.00692759
0.0018604
-0.00654347
0.00232916
-0.00419164
0.00200499
0.00242131
0.00626866
0.00131769
0.000723425
-0.00511723
-0.00426495
0.00222678
7.78602e-05
6.55589e-05
0.000116026
8.15225e-05
0.000266913
-3.96266e-06
0.000263849
-6.19741e-06
0.0011331
-7.30759e-06
-1.37453e-05
-8.27499e-05
0.00469382
-0.00021762
0.00104007
7.49528e-06
-2.50686e-05
0.000277033
4.61484e-06
0.000275079
7.6855e-06
7.91714e-05
8.39518e-05
4.27489e-05
-0.000330793
0.00708391
-0.000591012
0.00917235
-0.000259385
0.0107417
-0.00029906
0.0117306
-0.000480806
0.0123057
-0.000508539
0.0125563
-0.000392157
0.0125063
-0.000270884
0.0121498
-0.00016734
0.0114481
-0.000134002
0.0103691
-9.1033e-05
0.00892022
-0.000107668
0.00714711
-9.23838e-05
0.00502858
-8.15883e-05
0.00226857
0.012031
0.0107344
0.0116539
0.0115007
0.0167277
0.013375
0.0283144
0.0146232
0.00660759
-0.00278651
-0.00125063
0.00144831
0.00108041
0.00808592
0.00462328
-0.00232916
-0.00242131
0.00163526
0.00354153
7.99104e-05
7.35295e-05
0.000269708
-2.56974e-06
0.000262574
-7.20145e-06
0.00106628
-5.86503e-05
-4.90794e-05
1.54481e-06
0.00442552
-8.51685e-05
0.000959369
-7.13427e-05
-4.16372e-05
0.000266125
1.61239e-06
0.000241008
-1.74842e-06
7.79816e-05
8.56305e-05
-0.000472671
0.00699112
-0.000271189
0.00918895
-0.000257885
0.0107059
-0.000462594
0.011706
-0.000518781
0.0123235
-0.000441824
0.012602
-0.000314617
0.0125592
-0.000233386
0.0121987
-0.000164937
0.0114918
-0.000148858
0.010403
-0.000114262
0.00894055
-0.000138519
0.00715938
-0.000111086
0.00506669
-7.96842e-05
0.00231984
0.0112688
0.0107438
0.0109585
0.0114821
0.0147943
0.0133992
0.0256558
0.0160201
-0.00372809
0.015673
0.0107502
0.00038448
-0.000714609
0.00108786
0.00107079
-0.000230651
0.000594547
-0.000751084
0.00273539
8.3042e-05
7.57131e-05
0.000208337
-2.58524e-05
0.000209521
-4.96488e-05
0.000952086
3.81492e-06
-2.94449e-06
-2.36483e-05
0.00219386
-1.46086e-05
0.0018291
0.000869542
5.09353e-07
-8.26395e-06
0.000138124
9.62719e-05
7.72163e-05
7.54702e-05
-0.000241532
0.00693076
3.56536e-05
-0.000253932
0.00918688
-0.000434439
0.0106807
-0.000519182
0.0117056
-0.000465189
0.0123523
-0.000368643
0.0126452
-0.000271179
0.012603
-0.000222468
0.0122408
-0.000172319
0.0115294
-0.000165806
0.0104311
-0.000141622
0.00895493
-0.000165673
0.00718052
-0.000118477
0.00511122
-7.22689e-05
0.00236357
0.0106054
0.0107466
0.0101895
0.0114689
0.0130731
0.0132603
0.0226484
0.0164353
0.0172147
0.0144722
-0.000957715
0.0056605
0.00713885
-0.00109102
0.000153854
-0.00034309
0.000663671
-0.000110496
0.000362426
0.00204051
-0.000262521
4.96488e-05
9.98817e-05
9.66924e-05
0.000855954
4.43232e-06
-3.69825e-06
-0.000337389
0.00229697
0.000460638
0.000373842
-1.1429e-05
2.63093e-05
-0.000101011
0.00156254
3.07985e-05
9.70103e-05
8.90161e-05
-0.000142188
0.00695364
-0.000132086
3.01954e-05
0.00230231
-0.000416309
0.00916706
-0.000484488
0.0106503
-0.000471301
0.0117065
-0.000392617
0.0123804
-0.000315809
0.0126797
-0.000249328
0.0126392
-0.0002259
0.0122786
-0.000182785
0.0115612
-0.00018347
0.0104471
-0.000169817
0.00897048
-0.000181287
0.00720893
-0.000111777
0.00515544
-5.62464e-05
0.00239103
0.00984978
0.0107414
0.00951196
0.0114655
0.0114705
0.0130471
0.019546
0.0163536
0.0172014
0.0164475
0.008274
0.0118737
0.00116655
0.00569337
-2.46785e-05
0.000313594
0.00132782
-0.000375316
4.33531e-05
0.000745326
2.03701e-05
-1.98722e-06
9.37487e-05
9.03301e-05
-9.98469e-05
0.000460926
0.000288623
-1.35113e-05
7.91799e-05
0.00010556
2.73184e-05
0.00154187
2.65593e-05
4.03208e-06
0.000489704
0.00230729
-0.000144227
-0.000144385
0.00693274
-0.000251143
0.00228699
-0.000113255
-0.000402974
0.0090871
-0.000422349
0.0106035
-0.000396433
0.0117049
-0.000334979
0.0123988
-0.00029101
0.0127086
-0.000250654
0.0126757
-0.000227972
0.0123096
-0.000192125
0.0115827
-0.000210538
0.0104624
-0.000192508
0.00899111
-0.000179618
0.00724297
-9.16534e-05
0.00519274
-3.79181e-05
0.00240076
0.00918345
0.0107336
0.00875946
0.0114613
0.0101374
0.0128467
0.0166496
0.0159732
0.0162344
0.0173158
0.00970426
0.0150111
0.00312772
0.0099667
-0.000272327
0.000596808
0.00541559
-0.00142442
0.00118474
0.000224344
0.000225714
0.000411801
-8.34836e-05
4.13935e-05
6.37262e-05
6.16916e-05
0.000295104
-8.01639e-07
9.21825e-05
-0.000504394
0.00050408
2.7611e-05
0.00149935
-4.69866e-05
-5.55497e-05
1.18789e-05
0.0023543
-0.000210298
-3.17903e-05
0.00676502
-0.000200465
0.00224438
-0.000141794
0.00149181
-7.50501e-05
-2.8565e-05
-0.000302943
0.00896644
-0.000349596
0.0105568
-0.000342314
0.0117009
-0.000303363
0.012416
-0.000289394
0.0127403
-0.000244588
0.0127063
-0.000225199
0.0123267
-0.000209447
0.0115948
-0.000237175
0.010481
-0.000197203
0.00901672
-0.000157077
0.00727489
-6.2576e-05
0.00521738
-2.33457e-05
0.00239621
0.00845311
0.0107195
0.0080644
0.0114593
0.0089019
0.0126782
0.0140139
0.0154771
0.0147457
0.0174689
0.0102091
0.0168193
0.00466483
0.0134583
0.000761376
0.00893113
-0.000696492
0.00236433
-0.000495218
0.000634536
-0.000368978
0.000340342
0.00550834
-0.000565836
-2.71506e-05
0.000123966
0.00010212
-2.86108e-05
-8.67715e-05
2.7486e-05
-2.45701e-05
1.60348e-05
0.000305708
1.35217e-06
9.13798e-05
0.000486816
-3.01765e-05
0.000319256
1.45427e-05
0.00046457
-3.21994e-05
0.00149819
-8.44102e-05
-0.000135716
0.00228623
-7.11509e-05
5.00184e-05
0.00656973
-0.000156372
0.0021441
-5.82549e-05
0.00141439
-4.14983e-05
-1.65032e-05
-0.000460758
0.000429592
-4.40467e-05
-2.52351e-05
-0.000245719
0.00885864
-0.000313638
0.0105206
-0.000314895
0.0117036
-0.000308756
0.0124439
-0.000279317
0.0127698
-0.000231495
0.0127247
-0.000234631
0.0123359
-0.000232861
0.0116017
-0.000241455
0.0104997
-0.000177475
0.0090426
-0.000121356
0.00730139
-3.62556e-05
0.0052287
-1.61174e-05
0.00238578
0.00779941
0.0107062
0.00730167
0.011455
0.00784378
0.0125601
0.0117364
0.0149865
0.0130074
0.0172108
0.0100325
0.017647
0.00565815
0.0158613
0.00194261
0.01231
-6.60277e-05
0.00865349
0.00253241
-0.000581536
0.000775267
-0.000745322
0.000311134
-0.000146975
9.39455e-05
-9.96425e-05
1.78943e-05
5.4918e-05
-8.07776e-05
-0.000854934
0.000619289
0.00577144
-0.000150313
2.35689e-05
-8.38033e-05
5.86901e-05
0.000102791
2.73547e-05
-8.83552e-06
-1.60348e-05
-8.5249e-06
9.27804e-05
0.000298253
-9.52233e-06
0.000107282
0.000276189
-9.27527e-06
0.000413782
-7.00035e-05
0.000374174
-9.61272e-05
0.00138238
-4.84721e-06
-3.2265e-05
0.00220515
-9.79596e-06
5.81258e-05
0.00640862
-0.000143763
0.0020812
-3.26312e-05
0.00131339
-1.26087e-05
2.3649e-05
-0.000374864
0.000339822
-6.37195e-06
-1.73726e-05
-0.000259987
0.000232957
-1.68101e-05
-9.26189e-06
-0.000261111
0.00879438
-0.000308009
0.0105143
-0.000331944
0.0117246
-0.000291667
0.0124677
-0.000248084
0.0127799
-0.000227511
0.0127304
-0.000255199
0.0123425
-0.00024404
0.0116146
-0.000222621
0.0105194
-0.000141955
0.00906631
-8.82019e-05
0.00732198
-2.20281e-05
0.0052333
-1.77193e-05
0.00237744
0.0070984
0.0106891
0.00658548
0.0114477
0.00681075
0.012474
0.00972414
0.0145693
0.0112292
0.0167768
0.00941857
0.0178311
0.0060768
0.0172253
0.00285068
0.0149589
0.000512917
0.0117535
-0.000914139
0.00872597
0.00286419
-0.000665332
0.000972466
-0.000925301
0.000443245
-0.000176107
8.50896e-05
-2.41235e-05
0.000193669
-0.000179315
3.83554e-05
-3.87251e-06
-8.52426e-05
-6.72745e-05
-1.23594e-05
-6.17466e-05
4.56774e-06
-0.00149002
0.0011252
0.00618368
-1.00457e-05
7.76122e-06
1.88812e-05
9.78347e-05
8.85406e-05
0.000224495
-6.24005e-05
0.000128347
0.000338537
-2.79209e-06
0.00031837
-1.12807e-05
0.00132161
6.89669e-06
-2.38705e-05
0.00214424
-3.48567e-06
2.32912e-05
0.00631714
-0.000201873
0.00202676
-2.84846e-05
0.00127611
-1.17011e-05
2.4856e-05
-0.000335525
0.00032028
2.79091e-06
6.57532e-06
-0.000110974
0.000104638
-7.92787e-05
6.24005e-05
-0.000314936
0.00879597
-0.000339385
0.0105273
-0.000303607
0.0117383
-0.000246319
0.0124764
-0.000235838
0.0127825
-0.000248215
0.0127343
-0.000269978
0.0123523
-0.000227613
0.0116274
-0.000185143
0.0105382
-0.000109647
0.0090896
-6.81154e-05
0.0073385
-2.49535e-05
0.00523839
-2.88859e-05
0.00238129
0.0064693
0.0106716
0.00581134
0.0114407
0.00587504
0.0124208
0.00798929
0.0142399
0.00948241
0.0163119
0.0085371
0.0176665
0.00610712
0.0178268
0.00343601
0.0166653
0.0011325
0.0143593
-0.000700856
0.0115476
-0.0016991
0.00895798
0.0033686
-0.00048677
0.00113174
-0.00109598
0.000687189
-0.000249494
2.41527e-05
0.000295077
-0.000226543
9.80306e-05
-4.63656e-05
-0.000173443
3.49085e-05
-0.00018607
-8.41474e-06
4.85778e-05
-3.7767e-06
-7.76122e-06
-0.0018698
0.00138016
0.00667724
0.000101915
9.06419e-05
0.000327652
-9.10083e-08
0.000313538
-9.27521e-06
0.00128893
7.9224e-06
-2.28813e-05
0.00207264
-2.63252e-05
-5.7337e-05
0.00635386
-0.000295306
0.0019476
-8.2252e-05
0.00124472
-1.0237e-05
2.47862e-05
-0.000331966
0.000317862
2.63099e-06
6.43687e-06
-9.72172e-05
0.000100039
-0.000332831
0.00879203
-0.000286011
0.0105189
-0.000238261
0.0117301
-0.000216159
0.0124665
-0.000253098
0.0127814
-0.000259797
0.0127347
-0.00025091
0.0123593
-0.000195595
0.0116425
-0.000147416
0.010552
-8.49721e-05
0.00910857
-6.9546e-05
0.00735424
-4.13524e-05
0.005249
-3.65106e-05
0.00239378
0.00579858
0.0106536
0.00507346
0.0114306
0.00491684
0.0123863
0.00641274
0.013996
0.00784542
0.0158923
0.00749996
0.017354
0.00581767
0.0179635
0.00369598
0.0175792
0.00163679
0.0161788
-0.000289745
0.0139604
-0.00166105
0.0115121
-0.00215792
0.00924342
0.00398044
-0.000320558
0.00108048
-0.00132137
0.000957748
-0.000112322
0.000509253
-0.000239741
0.000205858
-7.42083e-05
-0.000168994
3.13667e-05
-0.000278205
6.30544e-05
0.000114368
-7.16093e-05
2.53947e-05
-3.65253e-05
-4.48011e-05
-0.00198286
0.00144933
0.00721181
9.99917e-05
9.07174e-05
0.000326241
1.77922e-07
0.000312647
-8.757e-06
0.00123255
7.6206e-06
-2.42963e-05
0.00203011
-0.000140659
-4.93323e-05
0.00630061
-0.000222672
0.00193691
-0.000203304
0.00115185
-2.70868e-05
2.21268e-05
-0.000330892
0.000317274
2.89732e-06
6.32804e-06
-9.71542e-05
9.98315e-05
-0.000223637
0.00873802
-0.000196429
0.0104864
-0.000190751
0.0117066
-0.000233301
0.0124559
-0.000268302
0.0127836
-0.000249832
0.0127412
-0.000215649
0.0123629
-0.000155056
0.0116544
-0.000123266
0.0105684
-8.49742e-05
0.00912566
-8.52343e-05
0.00737078
-5.56511e-05
0.00526604
-3.83728e-05
0.00240985
0.0051988
0.0106323
0.0042876
0.0114172
0.00401363
0.0123705
0.00499774
0.0138324
0.006291
0.0155452
0.00640062
0.0170042
0.00533103
0.0178605
0.00371317
0.0179682
0.00196739
0.0172663
0.000160446
0.0157311
-0.00137192
0.0136854
-0.00220206
0.0115437
-0.00228743
0.00955286
0.00468601
-0.000253492
0.000995866
-0.00154509
0.00124025
-2.08445e-05
0.000491881
-0.000605309
0.000486476
-9.55599e-05
0.000109156
0.000176038
-5.91727e-05
-6.53223e-05
-8.54481e-06
-0.000119211
1.36894e-05
-3.39247e-05
2.02502e-05
-0.0018327
0.00133236
0.00774399
0.000100064
9.12867e-05
0.000324272
-1.35439e-07
0.000307965
-8.90032e-06
0.00112891
-2.27881e-05
-9.49547e-05
0.00197727
-8.67325e-05
2.52344e-05
0.00618447
-0.000123514
0.00183906
-8.0392e-05
0.00106619
-0.000106743
-3.39493e-05
-0.000323246
0.000295899
-1.03164e-06
5.65979e-06
-9.76147e-05
0.000100431
-0.000134232
0.00868222
-0.000137891
0.0104388
-0.000209855
0.0116842
-0.000261751
0.0124583
-0.000264965
0.0127913
-0.000215645
0.0127463
-0.000181686
0.0123738
-0.000129194
0.0116645
-0.000120107
0.010582
-0.00010122
0.00914294
-9.98396e-05
0.00738822
-6.18433e-05
0.00528853
-3.36601e-05
0.00242301
0.00456416
0.0106112
0.00353944
0.011402
0.00305504
0.0123641
0.00363134
0.0137356
0.00486074
0.0152806
0.0052741
0.016677
0.00469651
0.0176526
0.00353142
0.0180601
0.00212376
0.0178279
0.000556695
0.01688
-0.000979841
0.0153309
-0.00200202
0.0134894
-0.00237958
0.0116277
-0.00216502
0.00988255
0.000600753
0.00540745
-0.00173739
0.00137167
0.000113966
0.000500588
-0.000845906
0.000736569
-6.55298e-05
0.000155087
0.000162182
-3.24788e-05
-0.000175709
0.000107253
-2.5182e-05
-0.000100391
3.64031e-05
0.000167929
1.05248e-05
-2.02502e-05
-0.00172769
0.00134329
0.00814448
0.000100232
9.12164e-05
0.000282654
-9.61123e-06
0.000224268
-3.63482e-05
0.001013
-1.01706e-05
-2.18077e-05
0.00187164
-1.90827e-06
3.21722e-05
0.00611494
-8.90307e-05
0.00178389
-3.17206e-05
0.000938807
-1.28488e-05
9.63348e-06
-0.000240137
0.000133462
-4.97814e-05
-9.68762e-05
9.57194e-05
-7.58536e-05
0.00862779
-0.000166644
0.0104024
-0.000256454
0.0116793
-0.000269416
0.0124693
-0.000235847
0.0128029
-0.00018435
0.0127532
-0.000146356
0.0123766
-0.000120323
0.0116684
-0.000134757
0.010595
-0.000119165
0.0091641
-0.000111592
0.0074134
-5.70644e-05
0.00531145
-2.60571e-05
0.00243088
0.00400537
0.0105866
0.00275203
0.0113777
0.0021312
0.0123613
0.00233198
0.0136955
0.00348917
0.0151009
0.00416872
0.0164008
0.0039714
0.0174189
0.00320269
0.0180029
0.00212315
0.0180757
0.000825885
0.0175574
-0.000553086
0.0164681
-0.00168272
0.0149891
-0.00226751
0.0133737
-0.00229918
0.0117719
-0.00204114
0.0101819
-0.00116845
0.00286154
-0.00015573
0.000433146
0.000893152
0.00587511
-0.00104174
-9.89099e-06
0.000189274
3.03753e-06
-0.000268553
0.000218413
-1.58958e-05
-0.000199865
8.49574e-05
0.000228782
3.97418e-05
-4.79964e-06
-4.7028e-05
2.19361e-05
-1.05248e-05
-0.00173354
0.0013848
0.00852551
8.61272e-05
4.97814e-05
0.000123352
0.000101653
0.000939599
8.08911e-06
-7.8339e-06
0.00181854
1.86534e-06
-1.58579e-05
0.00608233
-2.19265e-05
0.0017592
-2.61098e-05
0.000911098
-7.43764e-06
7.17669e-06
-0.000111287
9.86605e-05
-0.000100744
0.00856961
-0.000231326
0.0103832
-0.000285988
0.0116938
-0.000248888
0.0124864
-0.000198679
0.0128095
-0.000144472
0.0127564
-0.00013729
0.0123799
-0.000135768
0.0116736
-0.000153964
0.0106105
-0.000132382
0.009187
-0.000108594
0.00744191
-4.61543e-05
0.00533228
-2.01722e-05
0.00243547
0.00341425
0.0105595
0.0020163
0.0113419
0.00115312
0.0123444
0.000988951
0.0137028
0.00220614
0.0149962
0.00309154
0.0161844
0.00319221
0.017196
0.00275574
0.017886
0.00198969
0.018153
0.000984152
0.0179307
-0.000213439
0.0172004
-0.00129795
0.0160771
-0.00202522
0.0147387
-0.00227979
0.0133515
-0.0022011
0.0119393
-0.0020387
0.0104782
0.00334512
-0.000128263
0.000529155
-0.000789906
0.000618458
-6.08538e-05
7.09173e-05
-0.000477547
4.98327e-06
0.000117554
0.000927914
0.00630788
-0.000271959
-1.8526e-05
1.73739e-05
-0.00021273
0.000319199
8.73481e-05
4.99778e-05
-0.000141627
0.000107983
1.75601e-05
-5.67903e-05
6.159e-05
-0.00179723
0.00144967
0.0088836
0.000106882
9.91662e-05
0.000915892
5.20232e-06
-5.72832e-06
0.00177729
-3.04206e-05
-2.34223e-05
0.00602962
-1.77289e-05
0.00174468
-5.93699e-06
1.84372e-05
0.000892085
-5.35094e-06
5.68157e-06
-0.000106343
9.91183e-05
-0.000196568
0.0085408
-0.000308005
0.0104094
-0.000278041
0.0117205
-0.000215251
0.0125065
-0.000159775
0.012818
-0.000129448
0.012753
-0.000145187
0.0123766
-0.000154439
0.0116783
-0.000164091
0.0106244
-0.000126884
0.00920816
-9.32926e-05
0.00746859
-3.678e-05
0.00535075
-1.9918e-05
0.00244297
0.00290161
0.0105312
0.00126924
0.0112874
0.000229155
0.0123041
-0.000356649
0.0137194
0.000939319
0.0149617
0.00207106
0.0160344
0.00239014
0.0170024
0.00222469
0.0177512
0.00174731
0.0181455
0.00100442
0.018124
5.53736e-05
0.0176626
-0.000943554
0.0168277
-0.00170965
0.0157599
-0.00212604
0.0145861
-0.00225049
0.0133759
-0.00218929
0.0121165
-0.00206903
0.0107387
0.00386027
-9.19426e-05
0.000521188
-0.00100752
0.000825177
-3.9882e-05
0.000104352
1.44482e-05
0.000126289
-0.000189576
0.000143178
-1.62331e-05
-0.000145268
2.55393e-05
-0.00016557
2.56452e-05
-4.79256e-05
0.00104087
0.00674036
-6.63979e-05
-4.90323e-05
-0.000169349
6.37562e-06
2.51894e-05
1.75224e-05
-0.00183538
0.00152145
0.00922008
0.00010443
9.8807e-05
0.000487607
-2.05926e-06
3.46926e-06
0.000374663
0.00175663
-1.84759e-05
-1.36581e-05
-4.31734e-05
0.00594494
-6.28064e-05
0.00172075
1.08352e-05
1.03785e-05
0.000539476
-5.66539e-05
0.000541021
1.77338e-05
-0.000104489
9.93421e-05
-0.000322381
0.00855891
-0.000313248
0.010447
-0.000241335
0.011744
-0.000159675
0.0125107
-0.000126866
0.012809
-0.000127585
0.0127404
-0.000158221
0.0123692
-0.00016425
0.0116838
-0.000159546
0.0106407
-0.000114415
0.00923243
-8.16702e-05
0.00749545
-3.5348e-05
0.00536966
-2.6718e-05
0.00246002
0.00236745
0.0104976
0.000610441
0.0112136
-0.00072472
0.0122309
-0.00178972
0.0137347
-0.000302562
0.0149779
0.00108947
0.0159504
0.00159263
0.0168467
0.00163178
0.0176183
0.00141205
0.0181009
0.000933843
0.0182202
0.000213293
0.0179541
-0.000635103
0.0173473
-0.00139065
0.0164997
-0.00191057
0.0155278
-0.00215096
0.0144953
-0.00224376
0.0134272
-0.00219467
0.0122606
-0.0020864
0.0109628
0.00431902
1.55013e-06
0.000567586
-0.00114614
0.0010819
-3.3951e-05
4.89292e-05
0.000149963
-0.000276618
0.000240275
-1.52035e-06
-0.00024319
6.96702e-05
-0.000240446
1.09286e-05
3.08339e-05
-5.11975e-05
3.50197e-05
-2.56452e-05
0.00106676
0.00716794
-4.27117e-05
-0.00182084
0.00151759
0.00951328
9.73919e-05
0.00010095
0.000323196
-4.41196e-06
0.000534232
-1.04613e-05
0.000535
-1.33392e-05
0.00172488
-1.89598e-05
-2.5284e-05
-0.000115804
0.0059527
-0.000209578
0.00165644
9.49685e-06
-1.90212e-06
0.000544687
2.31549e-06
0.00053811
1.81914e-05
0.000331116
1.05361e-05
-0.0003553
0.00860256
-0.000254362
0.0104614
-0.000166018
0.0117495
-0.000112395
0.0124996
-0.000116288
0.0127926
-0.000141314
0.0127294
-0.000173932
0.0123691
-0.000164426
0.0116941
-0.000153079
0.0106647
-0.00011025
0.0092649
-7.85621e-05
0.00752366
-4.13419e-05
0.00538956
-4.01451e-05
0.0024936
0.0019228
0.0104625
-2.28788e-05
0.0111167
-0.00161454
0.0121401
-0.00330627
0.0137756
-0.0016142
0.0150371
0.000136336
0.0159468
0.000815204
0.0167454
0.00101028
0.0174944
0.00100572
0.0180386
0.000767896
0.0182601
0.000281023
0.0181451
-0.000408486
0.0177103
-0.00110476
0.0170454
-0.00163557
0.0162367
-0.00199741
0.015357
-0.00216779
0.0144403
-0.00224765
0.0134588
-0.00217313
0.0123729
-0.00203463
0.0111445
0.00481463
6.24394e-05
0.000503577
-0.00137474
0.00128006
9.4642e-05
0.000273763
-0.000297827
0.000502955
-1.78986e-05
-0.000230625
7.70414e-06
-0.000317094
6.7906e-05
7.24866e-05
-0.000146476
0.000121824
2.49745e-05
-7.69377e-05
-6.58536e-05
0.00111721
0.00756929
-0.0017226
0.00151297
0.00975594
9.66092e-05
0.000324466
-2.90197e-06
0.000317357
-5.35396e-06
0.000532852
-1.24272e-05
0.000526712
-1.80873e-05
0.00163823
-3.31366e-05
-6.14642e-05
-0.000146122
0.00595961
-0.000211118
0.00156757
-4.91124e-05
-8.80085e-05
0.000536092
9.61027e-07
0.000519969
1.50302e-05
0.000322397
-1.85618e-06
0.000331592
1.00044e-05
0.000107242
-0.00022244
0.00857375
-0.000148134
0.0104462
-9.49707e-05
0.0117308
-9.04753e-05
0.0124796
-0.000128479
0.012776
-0.000154767
0.0127168
-0.000168659
0.0123647
-0.000152569
0.0116993
-0.000136341
0.010678
-0.000101673
0.0092927
-8.67744e-05
0.00755686
-6.38426e-05
0.00542016
-5.62028e-05
0.00254454
0.00146456
0.0104259
-0.000532501
0.0109952
-0.00254167
0.0120322
-0.0050338
0.0138635
-0.00299884
0.0151712
-0.000848645
0.0160288
5.045e-05
0.0167238
0.000376859
0.0174017
0.000554513
0.0179612
0.000532443
0.018268
0.000262411
0.0182693
-0.00025985
0.0179778
-0.000837848
0.0174553
-0.00138543
0.0167828
-0.00177504
0.0160199
-0.00205103
0.0152254
-0.0021642
0.0143794
-0.00220581
0.0134708
-0.00209174
0.0124481
-0.00190599
0.0112913
0.00526033
0.000124393
0.000524895
-0.00155522
0.00151762
8.79263e-05
0.00022893
-0.000691044
0.000703846
1.38302e-05
6.75149e-05
5.61722e-05
2.8835e-05
-6.44973e-05
4.6444e-05
-0.000172143
9.91388e-06
-5.67421e-05
2.18904e-05
2.49598e-05
0.00114598
0.00791665
-0.00151276
0.0013178
0.00996525
0.000104436
9.91713e-05
0.000323438
-3.29936e-06
0.000312845
-6.63553e-06
0.00050754
-1.95382e-05
0.00048309
-3.55709e-05
0.00161983
-7.58249e-05
-0.000119715
-1.80497e-06
0.00583339
-9.34474e-05
0.00149123
-3.86281e-05
-4.21675e-05
0.000471607
-3.63439e-05
0.000436717
-5.2534e-05
0.000316356
-1.92689e-06
0.000321804
1.03228e-05
9.74265e-05
0.000107538
-9.55584e-05
0.00852426