/*--------------------------------*- C++ -*----------------------------------*\
| =========                 |                                                 |
| \\      /  F ield         | OpenFOAM: The Open Source CFD Toolbox           |
|  \\    /   O peration     | Version:  v1912                                 |
|   \\  /    A nd           | Website:  www.openfoam.com                      |
|    \\/     M anipulation  |                                                 |
\*---------------------------------------------------------------------------*/
FoamFile
{
    version     2.0;
    format      ascii;
    class       volScalarField;
    location    "30";
    object      p;
}
// * * * * * * * * * * * * * * * * * * * * * * * * * * * * * * * * * * * * * //

dimensions      [0 2 -2 0 0 0 0];


internalField   nonuniform List<scalar> 
3675
(
0.0129569
0.0148608
0.0103186
0.0122062
0.00762296
0.0153635
0.00951311
0.00490744
0.0191724
0.0126435
0.00681067
0.00227701
0.0226539
0.0163984
0.00990778
0.00418717
-0.000141102
0.02527
0.0198136
0.0135848
0.00722881
0.0017639
-0.00223778
0.0270337
0.0223403
0.0169117
0.0107937
0.0047098
-0.000355514
-0.00391336
0.0283103
0.0240158
0.0193666
0.0139995
0.0081088
0.00246905
-0.00207246
-0.00513038
0.0294612
0.0252192
0.0210026
0.0163812
0.0111532
0.00566711
0.000617926
-0.00334196
-0.0059054
0.0307617
0.0263377
0.0222093
0.0180181
0.0134444
0.00850769
0.00359323
-0.000790729
-0.00418622
-0.00630007
0.0323721
0.0276397
0.0233756
0.019292
0.0150893
0.0106759
0.0062032
0.00196613
-0.00175741
-0.00465547
-0.00642184
0.0343504
0.0292858
0.0247595
0.0205746
0.0164662
0.0123238
0.00822855
0.00435432
0.000814132
-0.00233967
-0.00486407
-0.00638574
0.0365292
0.0312738
0.026505
0.0220999
0.0179087
0.0138098
0.00985712
0.00622401
0.00299983
8.05173e-05
-0.00264544
-0.00492419
-0.00630505
0.0386336
0.0333443
0.0285846
0.0239753
0.0195987
0.0154197
0.0114335
0.00780937
0.0047243
0.00211389
-0.000328513
-0.00280207
-0.00494661
-0.00625469
0.0411792
0.035189
0.0398007
0.0306587
0.0261635
0.0215914
0.0172808
0.0131957
0.0094403
0.00624443
0.00370349
0.0015864
-0.000572411
-0.00292824
-0.00500683
-0.00629158
0.0429916
0.0427081
0.0377542
0.0323025
0.0359852
0.0410738
0.0283553
0.0238084
0.0193938
0.0152122
0.0113061
0.00787431
0.00512512
0.00305507
0.0012635
-0.000769001
-0.0031036
-0.00515682
-0.00643752
0.0443688
0.044307
0.043557
0.0391603
0.0341551
0.0300838
0.0334109
0.0368515
0.041676
0.0425073
0.0259735
0.0216494
0.0174437
0.0134281
0.00977244
0.00669445
0.00435887
0.00263209
0.00100491
-0.00102608
-0.0033775
-0.00540452
-0.00669102
0.0453375
0.0460481
0.0453768
0.0444244
0.0405429
0.0396131
0.034698
0.0319383
0.0276994
0.0308382
0.0342649
0.0370524
0.0384951
0.042365
0.0433838
0.0237895
0.0197622
0.0157321
0.0119199
0.0085416
0.00580315
0.00379713
0.00228163
0.000689307
-0.00139289
-0.00375703
-0.00575018
-0.00703559
0.0463256
0.047189
0.0459352
0.044939
0.0412613
0.0402718
0.0349771
0.0356266
0.0329805
0.029465
0.0255305
0.0285879
0.0317055
0.0346777
0.0351686
0.0390581
0.0393681
0.0427332
0.043855
0.0219068
0.0180697
0.014211
0.0106211
0.00751239
0.00506474
0.00329619
0.00188379
0.00025919
-0.00188495
-0.00422799
-0.00617127
-0.0074383
0.0469262
0.0478281
0.0415522
0.0404821
0.0339283
0.0376596
0.0338077
0.033311
0.0305468
0.0273844
0.0236255
0.0265669
0.0295669
0.0321929
0.0326079
0.0350243
0.0359613
0.0390254
0.0392982
0.0201816
0.016487
0.0128078
0.00943313
0.00656793
0.00435549
0.00275237
0.00137549
-0.000302736
-0.00246382
-0.00476661
-0.00664025
-0.00786739
0.0314572
0.0342575
0.0337022
0.0315508
0.031131
0.0285136
0.0254471
0.0218191
0.0246372
0.0275566
0.0301465
0.0305557
0.0326631
0.0331445
0.0184958
0.0149399
0.0114387
0.00826454
0.00561256
0.0036008
0.00211649
0.000749326
-0.000958025
-0.00311891
-0.00534628
-0.00712673
-0.00827486
0.0320992
0.031634
0.0295246
0.0291
0.0265174
0.0235359
0.0200027
0.0227197
0.0255581
0.0280979
0.0285214
0.0306393
0.0311262
0.0167898
0.0133776
0.0100394
0.00705206
0.00460605
0.00277459
0.00138778
3.43478e-05
-0.00169025
-0.00380967
-0.00593386
-0.00758747
-0.00862772
0.0300729
0.0295924
0.0274749
0.0270431
0.0245191
0.0216001
0.0181478
0.0207711
0.0235493
0.0260291
0.0264604
0.0285573
0.0290659
0.0150436
0.011759
0.00858291
0.00579115
0.00355318
0.00189407
0.000595372
-0.00074787
-0.00246326
-0.00451731
-0.00650189
-0.00799099
-0.00887356
0.0279847
0.0274922
0.0254046
0.0249699
0.0224955
0.0196401
0.0162604
0.0187962
0.0215203
0.0239518
0.0243837
0.0264435
0.0269589
0.0132472
0.0101007
0.00709876
0.00451243
0.00248988
0.000991525
-0.000237392
-0.00156882
-0.00326053
-0.00520724
-0.00701006
-0.00829638
-0.00899663
0.0258699
0.0253787
0.0233261
0.0228927
0.0204669
0.0176655
0.0143576
0.0168271
0.0194947
0.0218794
0.0223091
0.0243278
0.0248383
0.0114512
0.00844782
0.00563316
0.00327208
0.00145461
9.15215e-05
-0.00108815
-0.00240998
-0.00404297
-0.00584151
-0.00742257
-0.00847202
-0.00896701
0.0237581
0.0232713
0.0212631
0.0208315
0.0184526
0.0157103
0.0124937
0.0148872
0.0174982
0.0198342
0.0202621
0.0222338
0.0227374
0.00969657
0.0068525
0.00424652
0.00210097
0.000466749
-0.000794246
-0.00194398
-0.00324136
-0.00478171
-0.00638423
-0.00770688
-0.0085083
-0.0087944
0.021676
0.0211969
0.019233
0.0188094
0.0164835
0.0138139
0.0107028
0.0130179
0.0155568
0.0178411
0.0182555
0.0201787
0.020681
0.00803908
0.00536695
0.00296288
0.00102147
-0.000466339
-0.00165873
-0.00278525
-0.00403295
-0.00543361
-0.00680514
-0.00785546
-0.00840878
-0.00845852
0.0196428
0.0191712
0.0172574
0.0168541
0.014584
0.0120043
0.0090268
0.011245
0.0136975
0.0159151
0.016313
0.0181896
0.0186731
0.00650498
0.00401296
0.00180803
3.20507e-05
-0.001346
-0.00248941
-0.00358185
-0.00474256
-0.00596725
-0.00708326
-0.00786582
-0.00815439
-0.00797823
0.0176711
0.0172209
0.0153577
0.014969
0.0127772
0.0103066
0.00748114
0.0095907
0.0119383
0.0140755
0.0144555
0.0162765
0.0167282
0.00511734
0.00280225
0.000760051
-0.000876712
-0.00216693
-0.00326092
-0.0042979
-0.00534001
-0.00635678
-0.00722409
-0.00773634
-0.00777382
-0.00736069
0.0157734
0.0153432
0.0135475
0.0131793
0.0110786
0.00873737
0.0060775
0.00806146
0.0102941
0.0123341
0.0126951
0.0144457
0.0148751
0.00386874
0.00170772
-0.000188932
-0.00170725
-0.00291367
-0.0039487
-0.00490744
-0.00580227
-0.00660635
-0.00722638
-0.00750009
-0.00726841
-0.0066066
0.0139661
0.0135603
0.0118427
0.0114914
0.00949813
0.00729208
0.00480158
0.00666196
0.00876597
0.0107026
0.0110441
0.0127092
0.0131169
0.00274449
0.000718705
-0.00105563
-0.002451
-0.00356465
-0.00453702
-0.00539794
-0.00612598
-0.0067222
-0.00712706
-0.00715089
-0.00664621
-0.00572019
0.0122617
0.0118739
0.010245
0.00992049
0.00803797
0.00596738
0.00364963
0.00538158
0.00735344
0.00917984
0.00949633
0.0110792
0.0114644
0.00172048
-0.000208569
-0.00183976
-0.00308837
-0.00412214
-0.00502543
-0.00576607
-0.00632129
-0.00672669
-0.00693005
-0.00670662
-0.00589692
-0.00468616
0.0106562
0.0103115
0.00875783
0.00845628
0.00668745
0.00475036
0.00258873
0.00419772
0.00605005
0.00776479
0.00806244
0.0095506
0.00990269
0.000741226
-0.00107712
-0.00251006
-0.00362751
-0.00459488
-0.0054197
-0.00602094
-0.00640229
-0.00663217
-0.00662774
-0.00613014
-0.00500777
-0.00355002
0.00915808
0.00883835
0.00738038
0.00709192
0.00543364
0.00362172
0.00158679
0.00308834
0.00483884
0.0064486
0.00673294
0.00812657
0.00845697
-0.000222011
-0.00185673
-0.00305746
-0.00408858
-0.005011
-0.00572669
-0.00616401
-0.00637127
-0.00642765
-0.00622272
-0.00544141
-0.00401731
-0.00233936
0.0077684
0.00745949
0.0060932
0.0058249
0.00426004
0.00256019
0.000599027
0.00202015
0.00368604
0.00521837
0.00548817
0.00679646
0.00711413
-0.00121088
-0.0024469
-0.00351506
-0.00453606
-0.00537406
-0.00593082
-0.0061926
-0.00623966
-0.00612837
-0.00568545
-0.00462481
-0.00293583
-0.00111219
0.00646357
0.00618043
0.00488724
0.00462913
0.00314212
0.00152432
-0.000584227
0.000964771
0.00257283
0.00404411
0.0043106
0.00555342
0.00585195
-0.00193819
-0.00288
-0.00401503
-0.00496447
-0.00565385
-0.006045
-0.00613313
-0.00600512
-0.00570342
-0.00503626
-0.00369872
-0.00182069
7.75275e-05
0.00523971
0.00496931
0.00373474
0.00347081
0.00203245
0.000438498
-0.00164342
-0.000351622
0.00146894
0.00288157
0.00316037
0.00436636
0.0046594
-0.00224051
-0.00344603
-0.00453236
-0.00534646
-0.00587495
-0.0060763
-0.00598223
-0.0056765
-0.00515784
-0.004224
-0.00269292
-0.000712243
0.00115456
0.00406316
0.00379832
0.0025692
0.00228392
0.000990036
-0.00122562
-0.00174423
-0.00109965
0.000360248
0.00165007
0.00197745
0.00318201
0.0034859
-0.00287972
-0.00409894
-0.00502742
-0.0056831
-0.00603604
-0.00605407
-0.00575471
-0.00520664
-0.00443518
-0.00330647
-0.00165071
0.000304136
0.00205801
0.00287507
0.0025721
0.00138739
0.00104773
-0.00154247
-0.00114628
-0.0024391
-0.00153776
-0.00087249
0.000777415
0.000922479
0.00189072
0.00224219
-0.003661
-0.0046862
-0.00548621
-0.00600331
-0.00616852
-0.0059555
-0.00539909
-0.00458364
-0.00357198
-0.00228682
-0.000658536
0.00118275
0.00276333
0.00157052
0.00121159
0.000891836
-0.0023235
-0.00075479
-0.00202647
-0.00325124
-0.00229829
-0.00129885
-0.000302111
0.000663642
0.000785842
0.00094008
-0.00433119
-0.00526036
-0.00595539
-0.00629296
-0.00623504
-0.00576567
-0.004907
-0.00378687
-0.00257719
-0.00128409
0.000228869
0.00187701
0.003255
0.000732551
-0.00465572
-0.000626393
-0.0008506
-0.00170019
-0.0026978
-0.00395013
-0.00296382
-0.00198778
-0.00124472
-0.0011394
-0.00496651
-0.00583443
-0.00640052
-0.00654725
-0.00623461
-0.00544435
-0.0042448
-0.00286293
-0.00155573
-0.000352783
0.000953678
0.00238144
0.00355506
-0.00142631
-0.00154834
-0.00230438
-0.00334912
-0.00461869
-0.00363603
-0.0026135
-0.00182225
-0.00170264
-0.0056186
-0.00642264
-0.00682715
-0.00673124
-0.00612094
-0.00499041
-0.00346157
-0.00187908
-0.00059551
0.000420568
0.0014882
0.00272107
0.0037341
-0.00198979
-0.00212881
-0.00295691
-0.0040369
-0.00532815
-0.00434846
-0.00329795
-0.00244048
-0.0023073
-0.00629574
-0.00697794
-0.00718529
-0.00683771
-0.00590137
-0.00440631
-0.00260272
-0.000950193
0.000213709
0.00100878
0.00188454
0.00296378
0.00383448
-0.00263864
-0.00279386
-0.00367148
-0.00477717
-0.00605468
-0.00511948
-0.00404632
-0.00315361
-0.00300033
-0.00695641
-0.00749955
-0.00748726
-0.00683754
-0.00555305
-0.00375067
-0.00177979
-0.000148762
0.000844151
0.00143807
0.00218724
0.0031473
0.00390649
-0.00337452
-0.00353887
-0.00445194
-0.00555389
-0.00678584
-0.00589824
-0.00484711
-0.00392874
-0.00377088
-0.00758508
-0.00794454
-0.00767963
-0.00672472
-0.00512113
-0.00307992
-0.0010447
0.000478048
0.0012964
0.00178916
0.00245798
0.00334298
0.00396233
-0.00417362
-0.00434734
-0.00525986
-0.00632865
-0.0074708
-0.00666493
-0.00565535
-0.00475638
-0.00458653
-0.00814163
-0.00830642
-0.00776649
-0.0064921
-0.00462332
-0.00245336
-0.00044454
0.000957141
0.00166776
0.00210556
0.00276752
0.00354371
0.00402529
-0.00500221
-0.00517617
-0.00605691
-0.00705922
-0.008093
-0.00736905
-0.00643544
-0.00557253
-0.00541288
-0.00861516
-0.00853259
-0.00769605
-0.00615248
-0.00409554
-0.00186611
7.42553e-05
0.00136173
0.0020226
0.00247928
0.00311712
0.0037503
0.00402203
-0.00580432
-0.0059775
-0.00680452
-0.00771692
-0.00861622
-0.00799455
-0.00714439
-0.00635216
-0.00620067
-0.00894183
-0.00859374
-0.00747118
-0.005691
-0.00351083
-0.00129466
0.000561003
0.0017862
0.00242064
0.00288734
0.00341954
0.00409818
0.00163762
-0.00656773
-0.00672312
-0.00746998
-0.00828084
-0.00902267
-0.00851606
-0.0077657
-0.00705237
-0.00691904
-0.0090995
-0.00844785
-0.00705767
-0.00510648
-0.00285536
-0.000664517
0.00110319
0.00223254
0.00283926
0.00320238
0.00395399
0.00179801
-0.00724028
-0.00737974
-0.00804293
-0.00874358
-0.00925943
-0.00894835
-0.00828852
-0.00766369
-0.00754842
-0.00902251
-0.00807504
-0.00646811
-0.00435998
-0.00206938
4.08562e-05
0.00167832
0.00269478
0.00311631
0.00366849
0.0017912
-0.00782635
-0.00794794
-0.00851079
-0.00912218
-0.00922971
-0.00937634
-0.00871097
-0.00818649
-0.00808209
-0.0086918
-0.00749298
-0.00567727
-0.00345243
-0.00116989
0.000818451
0.00225488
0.0029507
0.00338719
0.00162596
-0.00831137
-0.00841875
-0.00885111
-0.00968423
-0.00895045
-0.00916341
-0.00897023
-0.00862138
-0.00852663
-0.00815635
-0.00673948
-0.00471725
-0.0023888
-0.000190714
0.00155144
0.00257367
0.00305731
0.00141011
-0.00871705
-0.00882022
-0.0122807
-0.0103395
-0.00905936
-0.00850573
-0.00895198
-0.00957368
-0.0092993
-0.00905079
-0.00626069
-0.00891996
-0.00751202
-0.00582759
-0.00360708
-0.00127751
0.000712504
0.00201295
0.0026206
0.00115538
-0.00888422
-0.0091672
-0.00904904
-0.00876845
-0.00800564
-0.0086007
-0.00898243
-0.00888873
-0.00921028
-0.00912078
-0.0085468
-0.00676604
-0.00482217
-0.00246044
-0.000230884
0.00133334
0.00208797
0.00086075
-0.00911235
-0.00903486
-0.0089649
-0.00882654
-0.0087617
-0.00840968
-0.00747612
-0.00824059
-0.0087132
-0.00865193
-0.00889855
-0.00884064
-0.00917888
-0.00907351
-0.0059685
-0.00377025
-0.00137477
0.000509718
0.00147822
0.000557516
-0.008972
-0.00890065
-0.00879293
-0.00875539
-0.00860272
-0.00854563
-0.00805498
-0.0069196
-0.00789408
-0.00849176
-0.00844781
-0.0087253
-0.00869973
-0.00883394
-0.00879027
-0.00514144
-0.00278213
-0.000551951
0.000747104
0.000265725
-0.00875152
-0.00873477
-0.00867555
-0.00864465
-0.00838981
-0.00835
-0.00770361
-0.00634979
-0.00752749
-0.00829798
-0.00826313
-0.00862605
-0.00860204
-0.00871306
-0.00870631
-0.00434358
-0.00193094
-0.000213229
-3.04111e-05
-0.00869523
-0.00868225
-0.00857335
-0.00855985
-0.00820536
-0.0081575
-0.00732442
-0.00578275
-0.0071363
-0.0080925
-0.00803423
-0.00854279
-0.00852988
-0.00867548
-0.00866537
-0.00357275
-0.00149374
-0.00038103
-0.00865258
-0.00864885
-0.00850707
-0.00847717
-0.00796681
-0.00789912
-0.00693932
-0.00519752
-0.00674659
-0.0078263
-0.00775625
-0.00844896
-0.00841273
-0.00865169
-0.00865047
-0.00305972
-0.000857514
-0.00864332
-0.00862714
-0.00837002
-0.00831936
-0.00769956
-0.00761955
-0.00655088
-0.00474863
-0.00632399
-0.00755092
-0.00747459
-0.00827303
-0.00823323
-0.00862673
-0.00860004
-0.00148696
-0.00857211
-0.00853954
-0.0081888
-0.00813374
-0.00742334
-0.00732845
-0.006144
-0.00234742
-0.00589529
-0.00723697
-0.00713698
-0.00808648
-0.00803662
-0.00851693
-0.00848569
-0.00845624
-0.00842229
-0.00798148
-0.00790432
-0.00706417
-0.00692724
-0.00531144
-0.00235748
-0.00681007
-0.00663712
-0.00782751
-0.00774532
-0.00839251
-0.0083546
-0.00830119
-0.00823674
-0.00765092
-0.00752792
-0.00638848
-0.0060781
-0.00513309
-0.00199406
-0.00740589
-0.00723698
-0.00817028
-0.00809147
-0.00799263
-0.00789474
-0.00695631
-0.00665746
-0.00598978
-0.00206567
-0.00779599
-0.00767411
-0.00741668
-0.00712479
-0.00680018
-0.00255844
-0.00571249
-0.00892102
-0.00701573
-0.00887767
-0.00900239
-0.00706674
-0.00836638
-0.00894342
-0.00907809
-0.00678002
-0.00688544
-0.00827904
-0.00766981
-0.00889672
-0.00939131
-0.00589553
-0.00567049
-0.00838677
-0.00687799
-0.00896607
-0.00726977
-0.00922122
-0.00972253
-0.00505983
-0.00462261
-0.00398598
-0.00711962
-0.00921327
-0.00915825
-0.00618831
-0.00710594
-0.00939972
-0.0100414
-0.00385323
-0.00361546
-0.00589786
-0.00271953
-0.00190603
-0.00532631
-0.00812702
-0.00996566
-0.0100687
-0.00974028
-0.00986052
-0.00967226
-0.00669358
-0.00666289
-0.0103174
-0.00298891
-0.00248485
-0.00511394
-0.00476773
-0.00159398
-0.00638169
-0.00629398
-0.000573386
2.97656e-05
-0.00334143
-0.00657365
-0.00900559
-0.0107239
-0.0109542
-0.0106394
-0.010914
-0.0107479
-0.0104434
-0.010249
-0.0106432
-0.00133812
-0.00399151
-0.00379494
-0.00489329
0.000787454
-0.000414884
-0.00583945
-0.00573925
-0.00541177
-0.00526799
0.000636088
0.00144409
0.001635
-0.00150609
-0.00476209
-0.00765878
-0.00979506
-0.0112144
-0.0116674
-0.0114448
-0.011833
-0.0116932
-0.0114291
-0.0112578
-0.0114547
-0.0112164
-0.0109248
0.00021936
0.000722424
-0.00478488
-0.00467609
-0.00402111
-0.00441632
-0.00429119
-0.00227376
-0.000646147
0.00176832
0.0027266
0.0031522
0.0029254
-2.24245e-06
-0.00308816
-0.00614432
-0.00865944
-0.0103954
-0.0113509
-0.0120464
-0.0119688
-0.0124938
-0.0124099
-0.0122347
-0.0121079
-0.0123961
-0.0122032
-0.0119644
-0.0117265
0.000974684
0.00175897
0.00281317
-0.00403234
-0.00414632
-0.00583757
-0.00102763
-0.00248099
-0.00178272
-0.000154225
0.00386716
0.00451197
0.00452933
0.00399524
0.00119822
-0.00170916
-0.00469871
-0.00739053
-0.00940118
-0.0106353
-0.0110319
-0.0119724
-0.0120906
-0.012753
-0.0127565
-0.0126979
-0.0126479
-0.0130344
-0.0129249
-0.0127761
-0.0126091
0.00166667
0.00258643
-0.000175954
0.00373524
0.00489862
-0.00451074
-0.0039169
-0.00253305
-0.00131521
-0.00261661
0.00572071
0.00597867
0.00566313
0.00496391
0.00221488
-0.000588963
-0.00346753
-0.00620687
-0.00841541
-0.00986916
-0.0105002
-0.0102443
-0.0113747
-0.0117218
-0.0124741
-0.0125919
-0.0126854
-0.0127419
-0.0132261
-0.0132345
-0.0131975
-0.013143
0.0022455
0.00328371
0.000446444
0.000401993
0.00456055
0.00586571
0.00684135
-0.00402267
-0.00354636
-0.0021981
-0.000812003
-0.00224873
-0.00336115
0.00728569
0.00718517
0.00666207
0.00591241
0.00316956
0.000397005
-0.00241514
-0.00516067
-0.00750363
-0.00912825
-0.0099153
-0.00987175
-0.00874695
-0.0102376
-0.0108266
-0.0116047
-0.0118461
-0.012105
-0.0122833
-0.0128352
-0.0129909
-0.0131059
-0.013188
0.00310549
0.00397795
0.000910423
0.000788017
0.00532703
-0.000511583
0.00673712
0.00785019
0.00846929
-0.00385522
-0.00178452
-0.00288322
-0.00172929
-0.00310308
-0.00368061
0.00856384
0.0082238
0.00760612
0.00687138
0.00413314
0.00136135
-0.00143291
-0.00419904
-0.00666464
-0.00848692
-0.00945645
-0.00955195
-0.00869924
-0.0068242
-0.00829174
-0.00933262
-0.0100773
-0.0104848
-0.0109082
-0.011225
-0.0118074
-0.0121196
-0.0123963
-0.0126327
0.00373595
0.00484746
0.00138778
0.00164475
0.00614
-0.000200154
-0.000138746
0.00761106
-0.00131359
-0.00134925
0.00883858
0.0095896
0.00982919
-0.00261536
-0.00321166
-0.00238469
-0.00345829
0.00964887
0.00917618
0.00854007
0.0078418
0.00512504
0.00235914
-0.000431256
-0.00322819
-0.00581709
-0.00786327
-0.00907584
-0.00933066
-0.00864118
-0.00704424
-0.00478384
-0.00630419
-0.0069089
-0.00758964
-0.00832836
-0.0090164
-0.00950726
-0.0100532
-0.0105662
-0.0110292
-0.0114225
0.00409565
0.00549457
0.00216534
0.0020562
0.00695781
0.000116769
0.000822483
0.00845827
-0.00096369
-0.000960031
-0.000778398
-0.000713117
0.00976252
-0.00186041
-0.00208399
0.010629
0.0110089
0.0109727
-0.0029513
-0.00267227
0.010627
0.0100962
0.00947591
0.00880881
0.00613213
0.00339218
0.000619986
-0.00219254
-0.00487867
-0.00714184
-0.00865692
-0.00918818
-0.0086915
-0.00725072
-0.00505806
-0.00186386
-0.00382786
-0.00495187
-0.00543158
-0.0058539
-0.00643364
-0.0063884
-0.00783012
-0.0082154
-0.00885079
-0.00944495
0.00437824
0.00587644
0.00259065
0.0024858
0.0076335
0.00100305
0.000972214
0.00930457
-0.000618583
-0.000699521
0.000443821
-0.000381489
0.0106995
-0.00161381
-0.00142787
-0.00114315
-0.00122544
0.0116578
-0.00207295
-0.00235735
0.0121336
0.012206
0.0119771
0.0115438
0.0110032
0.0104075
0.0097529
0.0071306
0.00443475
0.00170269
-0.0010937
-0.0038285
-0.00625474
-0.00806505
-0.00895503
-0.00875821
-0.00748626
-0.00535973
-0.00227025
-0.000140846
-0.000986823
-0.002234
-0.00294791
-0.00347545
-0.00415975
-0.00463449
-0.00480211
-0.00553423
-0.00638521
-0.00550784
0.00450579
0.00610796
0.00298004
0.00277472
0.00805468
0.00128853
0.00145945
0.00996233
0.000151659
7.99757e-06
0.000171744
0.00021985
0.0115151
-0.00111085
-0.00135112
0.000564318
-0.00168649
0.0126043
-0.00179535
-0.00154678
-0.00115226
-0.00130777
0.0132065
0.0133857
0.0132564
0.0129146
0.0124398
0.011905
0.0113227
0.0106622
0.00809744
0.00545691
0.00277879
2.68638e-05
-0.00270339
-0.00521377
-0.00724549
-0.00848956
-0.0086847
-0.00771719
-0.005725
-0.00271193
-0.000451468
0.000383524
0.000396372
-0.000372983
-0.000934855
-0.00160856
-0.00216178
-0.00240941
-0.00299347
-0.00358826
-0.00414607
-0.00435113
-0.00496001
-0.0056126
-0.00348464
0.00446045
0.00619113
0.00315886
0.00287981
0.00825837
0.00169271
0.00174885
0.0103822
0.000508099
0.000428567
0.000620266
0.000708276
0.0121741
-0.0013828
-0.000630412
-0.00017902
-0.000306152
0.0134669
-0.00107686
-0.00114511
0.00214785
-0.00146733
0.0142375
0.0145439
0.014497
0.0142219
0.0138084
0.0133181
0.01279
0.0122097
0.011526
0.00902059
0.00643509
0.0038149
0.00111894
-0.00156991
-0.00409056
-0.00624017
-0.00775182
-0.00833735
-0.00777421
-0.00606998
-0.00319032
-0.000769396
0.000514592
0.00133092
0.000889554
0.000277362
-6.63133e-05
-0.000608703
-0.00118947
-0.00177589
-0.00211146
-0.00269024
-0.00325247
-0.00379441
0.00422314
0.00612761
0.00315622
0.00281239
0.00830443
0.00188134
0.00184203
0.0105778
0.000880992
0.000765788
0.000864979
0.00100122
0.0125968
-1.74728e-05
2.43805e-05
0.000201233
0.000157842
0.0141204
0.015099
0.0155917
0.0156861
0.0154931
0.0151328
0.0146833
0.0141837
0.0136553
0.0130603
0.0123369
0.00989088
0.00736005
0.00479102
0.00214807
-0.00048856
-0.00297378
-0.00515085
-0.0068124
-0.00769804
-0.00754033
-0.00622967
-0.00362037
-0.00111498
0.000475857
0.00146678
0.000995427
0.000439378
9.62459e-05
-0.000403895
-0.000949357
-0.00152255
0.0041271
0.00597873
0.00297839
0.0025723
0.00823059
0.00188298
0.0017688
0.0105911
0.00107895
0.0009302
0.000933037
0.00110162
0.0127588
0.000310829
0.000327694
0.000438752
0.000448702
0.0145138
0.0157605
0.0165076
0.0168067
0.0167419
0.0164352
0.01601
0.0155328
0.0150276
0.0144893
0.0138646
0.0130973
0.0107017
0.00822602
0.00570357
0.00309972
0.000507043
-0.00193283
-0.00408437
-0.00579428
-0.00685796
-0.00702126
-0.00611251
-0.00387751
-0.00142292
0.000403297
0.00133299
0.000978907
0.000528175
0.00472828
0.00607238
0.00266722
0.00223173
0.00816462
0.00172785
0.001564
0.010514
0.00109287
0.000913384
0.000852708
0.00103543
0.0127401
0.000516495
0.000492174
0.00050176
0.000544526
0.0146556
0.0161529
0.0171757
0.0177285
0.0178702
0.0176915
0.0173159
0.0168564
0.0163669
0.0158501
0.0152873
0.0146273
0.0138117
0.0114567
0.00902796
0.00655173
0.00397787
0.00140936
-0.000997084
-0.00311178
-0.00481262
-0.00595049
-0.00631782
-0.0057401
-0.00390093
-0.00163369
0.00498507
0.00658632
0.00270831
0.00294006
0.00834059
0.00143726
0.00105626
0.0104951
0.000963796
0.000770947
0.000678013
0.000865859
0.0126515
0.000525288
0.000459282
0.000413437
0.000476781
0.014602
0.0162587
0.017545
0.0184063
0.0188341
0.0188665
0.0186008
0.0181677
0.0176793
0.017174
0.0166383
0.0160488
0.0153483
0.0144907
0.0121603
0.00976967
0.00733345
0.00478841
0.00222912
-0.00016681
-0.00225942
-0.00393672
-0.00508955
-0.00556161
-0.0052124
-0.00371736
-0.00172416
0.00553872
0.00699587
0.00307481
0.00294045
0.00878955
0.00121222
0.00209994
0.0106918
0.000758161
0.000542079
0.000218006
0.00052515
0.0126465
0.000400703
0.000318106
0.000255732
0.000319267
0.0144917
0.0161709
0.0176335
0.018783
0.0195247
0.0198297
0.0197633
0.0194366
0.0189759
0.0184748
0.0179545
0.0173978
0.0167727
0.0160338
0.0151559
0.012828
0.0104548
0.00805165
0.00553349
0.0029804
0.00057537
-0.00151924
-0.00318695
-0.00433725
-0.00485545
-0.00464631
-0.00341223
-0.00171329
0.00640258
0.00754805
0.00358959
0.00360472
0.00927197
0.00151588
0.00163208
0.0111043
8.46976e-05
-0.000302456
0.000121379
0.00156726
0.0128403
0.000228714
0.000146569
-7.03293e-05
9.92681e-05
0.0144777
0.0160333
0.0175156
0.0188411
0.0198769
0.0205181
0.0207455
0.0206179
0.020248
0.0197598
0.0192383
0.018701
0.018116
0.0174568
0.0166998
0.0158382
0.0134877
0.0110976
0.00870709
0.006216
0.0036706
0.00124955
-0.000868605
-0.00254984
-0.00370641
-0.00425003
-0.0041251
-0.00307425
-0.00164227
0.00720471
0.00823405
0.00448106
0.0046512
0.00981149
0.00199791
0.00226418
0.0116024
0.000597491
0.000683741
0.000923851
0.00107507
0.0132287
-0.000152032
-0.000679275
0.00246886
0.0146538
0.0159961
0.0173481
0.0186965
0.0199228
0.0208722
0.021429
0.0215763
0.021396
0.0210002
0.0204978
0.0199682
0.0194113
0.0187946
0.0181139
0.0173626
0.0165265
0.0141637
0.0117267
0.0093105
0.00683447
0.00430408
0.0018689
-0.000283542
-0.00199924
-0.00318113
-0.00375197
-0.00368587
-0.00276339
-0.00155077
0.00743607
0.00873553
0.00565728
0.00597732
0.0103277
0.00277822
0.0032289
0.0121207
0.00127662
0.00111042
0.00140421
0.00150085
0.013717
0.0150184
0.0161472
0.0172825
0.0184986
0.0197467
0.020885
0.0217483
0.022235
0.0223456
0.0221427
0.0217245
0.0212068
0.0206582
0.0200739
0.0194382
0.0187601
0.0180259
0.0171747
0.0148734
0.0123786
0.009888
0.00739431
0.00487791
0.00243982
0.000253467
-0.00150937
-0.00273428
-0.00334383
-0.00333037
-0.00250419
-0.0014646
0.00726416
0.00879081
0.00647367
0.00600453
0.0106266
0.0037159
0.00644347
0.00486053
0.0125394
0.00187214
0.00180022
0.00228604
0.00230022
0.0142094
0.0154856
0.0164808
0.0174047
0.0184053
0.0195176
0.0206735
0.0217325
0.0225387
0.0229867
0.0230573
0.0228221
0.0223935
0.0218682
0.0213028
0.0206996
0.0200562
0.0193932
0.0186814
0.0178521
0.0155859
0.0130612
0.0104687
0.00791655
0.00539373
0.00295977
0.00075099
-0.00106069
-0.00234075
-0.00300136
-0.00304275
-0.00229669
-0.00139399
0.00750527
0.00864405
0.00648836
0.00572857
0.0106018
0.00500907
0.00461634
0.00480746
0.00457314
0.0127349
0.00278567
0.00141946
0.00260888
0.00303018
0.0145796
0.0159455
0.0169159
0.017706
0.0184986
0.0193945
0.0204111
0.0214836
0.0224756
0.0232328
0.0236507
0.0237122
0.023476
0.0230349
0.0224894
0.0219021
0.0212865
0.0206441
0.0199647
0.0192227
0.0183024
0.0162195
0.0137331
0.0110798
0.00843642
0.00586961
0.00342811
0.00120737
-0.000643447
-0.00198158
-0.00270207
-0.00280351
-0.00213031
-0.00133918
0.00717346
0.00866613
0.00613345
0.00611494
0.0104364
0.00507503
0.00477751
0.00482694
0.00449209
0.0126789
0.00322964
0.00320268
0.00335138
0.00342095
0.0147393
0.00212914
0.00248837
0.0162847
0.0173377
0.018103
0.018769
0.0194609
0.0202579
0.021183
0.0221839
0.0231361
0.0238817
0.0242897
0.0243299
0.0240716
0.0236169
0.023054
0.0224456
0.0218286
0.0212023
0.0204986
0.0196435
0.0186309
0.0167433
0.0143957
0.0117192
0.00897674
0.00633229
0.00385755
0.00162135
-0.000257324
-0.00164647
-0.0024296
-0.00259574
-0.00199293
-0.00129694
0.00641188
0.00822604
0.0064137
0.00582806
0.0102381
0.00481257
0.00440923
0.00450583
0.00524545
0.0124789
0.00360278
0.00361289
0.00368205
0.00362842
0.0146801
0.00249726
0.00252963
0.0026746
0.00284151
0.0164314
0.0176446
0.0184821
0.0191261
0.0197005
0.0202976
0.0209986
0.0218451
0.0228001
0.0237317
0.0244585
0.0248565
0.0249019
0.0246445
0.0241661
0.0235617
0.0229175
0.0222753
0.0216128
0.0208274
0.0198319
0.0187345
0.0171006
0.0148785
0.0123002
0.00954029
0.0068244
0.00428096
0.00200428
9.6365e-05
-0.00133417
-0.00217484
-0.00240644
-0.0018742
-0.00126342
0.00548962
0.00735873
0.0060423
0.0052927
0.00971283
0.00513096
0.00498818
0.00514476
0.00495609
0.0121415
0.00361717
0.00322061
0.00269327
0.0049145
0.0144494
0.00299084
0.00311077
0.00323859
0.00329694
0.0163732
0.0177751
0.0187483
0.0194589
0.0200176
0.0205033
0.021007
0.0216264
0.0224222
0.0233576
0.024287
0.0250278
0.0254281
0.0254432
0.025141
0.0246147
0.0239741
0.0233277
0.0226732
0.0219223
0.0209959
0.0198569
0.019017
0.0173653
0.0188388
0.0152064
0.0128342
0.0101563
0.00737905
0.00473284
0.00238148
0.000426232
-0.00104541
-0.00193644
-0.00222894
-0.00176576
-0.00123489
0.00416045
0.00625754
0.00533155
0.00439816
0.00880303
0.00525002
0.00484281
0.00481897
0.00444879
0.0115261
0.00314138
0.00406569
0.00443713
0.00450601
0.0140295
0.00327727
0.00311174
0.00257631
0.00596803
0.0161192
0.017706
0.018844
0.0196738
0.0202988
0.0207759
0.0211738
0.0215968
0.022165
0.0229433
0.0238825
0.0248248
0.0255541
0.0259276
0.025926
0.0255926
0.0250073
0.0243082
0.023622
0.0229135
0.0220565
0.0210215
0.0201666
0.0198746
0.0193242
0.0179954
0.0154231
0.0172618
0.0191284
0.0132423
0.010722
0.00795265
0.00523888
0.00279897
0.000762111
-0.000772045
-0.00171525
-0.00206285
-0.00166344
-0.00120814
0.00224907
0.00477211
0.0042298
0.0031418
0.0075743
0.00463765
0.00416163
0.00404908
0.00360934
0.0105636
0.00449252
0.00425819
0.00420549
0.00403549
0.013335
0.01564
0.0174234
0.0187412
0.0197167
0.0204528
0.0209955
0.0213897
0.021713
0.0220889
0.0226434
0.023435
0.0244035
0.0253633
0.0260903
0.0264259
0.026341
0.0259145
0.0252706
0.0245524
0.0238341
0.0230571
0.0221277
0.0213038
0.0210456
0.0204724
0.0199693
0.0197277
0.0196006
0.0186914
0.0161488
0.0136034
0.0156216
0.0174369
0.0194016
0.0192325
0.011251
0.0085812
0.00585714
0.00331006
0.00114449
-0.000489855
-0.00150531
-0.00191059
-0.00156859
-0.00118134
0.000190823
0.00284435
0.00267484
0.00135003
0.00597467
0.00370533
0.00316613
0.00296254
0.0024514
0.00924634
0.00392059
0.00363611
0.00352336
0.00329007
0.0123118
0.0148816
0.0168937
0.0184136
0.0195569
0.0204286
0.0210776
0.0215359
0.0218551
0.0221358
0.0225066
0.0230866
0.0239279
0.0249409
0.0259075
0.0265906
0.0268576
0.0266922
0.0261694
0.0254518
0.0246956
0.0239291
0.0231083
0.0223593
0.0221315
0.0215322
0.0210736
0.0207235
0.0206555
0.0201939
0.0202715
0.0200438
0.0197222
0.0196859
0.0183468
0.016629
0.0144558
0.0116634
0.013752
0.0159038
0.017683
0.0178963
0.0183673
0.0191769
0.00914763
0.0064869
0.00389059
0.0016133
-0.000148639
-0.00127908
-0.00176684
-0.00148509
-0.00115493
-0.00102979
0.000912451
0.000507918
-0.00102462
0.00406026
0.0023999
0.00176504
0.00142099
0.000804562
0.00758702
0.00310195
0.00274851
0.00255083
0.00224621
0.0109361
0.0138016
0.0160785
0.0178282
0.0191639
0.0201941
0.0209733
0.0215323
0.0219117
0.0221874
0.022464
0.0228698
0.0235228
0.0244433
0.0255043
0.0264654
0.027088
0.0272369
0.0269219
0.0262883
0.0255292
0.0247667
0.0239905
0.0233092
0.0231236
0.0225441
0.0221071
0.0216843
0.0216008
0.0211267
0.0212236
0.0208965
0.0207349
0.020327
0.0204948
0.0207041
0.0174624
0.0172663
0.0169929
0.0149061
0.0124383
0.00958211
0.0116159
0.0138889
0.0160659
0.0164284
0.0178599
0.0177706
0.00709244
0.004569
0.00223632
0.000314395
-0.000992782
-0.00161066
-0.00141175
-0.00113032
-0.00355688
-0.000804003
-0.000866907
-0.00231672
0.00209099
0.000571437
-0.000204141
-0.000867823
-0.00182154
0.00566476
0.00192572
0.00146334