/*--------------------------------*- C++ -*----------------------------------*\
| =========                 |                                                 |
| \\      /  F ield         | OpenFOAM: The Open Source CFD Toolbox           |
|  \\    /   O peration     | Version:  v1912                                 |
|   \\  /    A nd           | Website:  www.openfoam.com                      |
|    \\/     M anipulation  |                                                 |
\*---------------------------------------------------------------------------*/
FoamFile
{
    version     2.0;
    format      ascii;
    class       volVectorField;
    location    "30";
    object      U;
}
// * * * * * * * * * * * * * * * * * * * * * * * * * * * * * * * * * * * * * //

dimensions      [0 1 -1 0 0 0 0];


internalField   nonuniform List<vector> 
3675
(
(0.0822626 -0.0255843 0)
(0.23768 -0.0763028 0)
(0.0821233 -0.0254822 4.26904e-21)
(0.236533 -0.0760285 5.55262e-21)
(0.0822507 -0.0254745 0)
(0.386016 -0.125101 -4.55719e-21)
(0.235863 -0.0760329 4.27329e-24)
(0.082521 -0.0255338 0)
(0.526269 -0.169947 0)
(0.38421 -0.124821 0)
(0.235554 -0.0761658 0)
(0.0827609 -0.025636 0)
(0.649247 -0.206575 0)
(0.52335 -0.169341 0)
(0.382867 -0.12483 0)
(0.235426 -0.0763428 0)
(0.0828488 -0.0257644 -3.38161e-22)
(0.74765 -0.23265 0)
(0.645166 -0.20561 -4.50451e-24)
(0.520831 -0.168993 0)
(0.38181 -0.12486 0)
(0.235326 -0.0765185 3.26204e-22)
(0.0826833 -0.0259035 0)
(0.816691 -0.247699 0)
(0.742512 -0.231357 -2.67586e-21)
(0.641488 -0.204853 4.50015e-24)
(0.518649 -0.168689 0)
(0.380882 -0.124848 0)
(0.23506 -0.0766516 0)
(0.0822142 -0.0260339 0)
(0.853808 -0.252359 -3.07376e-21)
(0.810697 -0.246141 2.53381e-21)
(0.737742 -0.230217 0)
(0.638122 -0.204132 0)
(0.516681 -0.168359 0)
(0.379959 -0.124782 4.96441e-25)
(0.234517 -0.0767229 0)
(0.0814623 -0.0261441 -3.93319e-21)
(0.857663 -0.24742 6.26202e-21)
(0.847233 -0.250618 0)
(0.805017 -0.244705 0)
(0.733272 -0.229115 -1.98249e-21)
(0.635036 -0.203414 0)
(0.5148 -0.167982 0)
(0.378907 -0.124629 -4.96008e-25)
(0.233641 -0.0767189 1.70032e-21)
(0.0804776 -0.0262173 0)
(0.827287 -0.233277 -3.27254e-21)
(0.850788 -0.245587 -2.8614e-21)
(0.840912 -0.249002 2.42082e-21)
(0.799606 -0.243309 1.87745e-21)
(0.729059 -0.228021 2.71407e-24)
(0.632087 -0.202674 0)
(0.512895 -0.167522 0)
(0.377632 -0.124362 -4.08608e-25)
(0.232387 -0.0766309 0)
(0.0793698 -0.0262542 0)
(0.762258 -0.210135 -7.61581e-24)
(0.820322 -0.231426 2.92831e-21)
(0.844097 -0.243896 -2.42294e-21)
(0.834809 -0.24743 -2.10858e-21)
(0.794426 -0.241932 0)
(0.725032 -0.22694 -2.71326e-24)
(0.629167 -0.201889 0)
(0.510857 -0.16695 0)
(0.376079 -0.123992 1.72154e-24)
(0.230858 -0.0764906 0)
(0.078248 -0.0262471 0)
(0.66395 -0.178751 -4.3718e-21)
(0.755268 -0.208315 0)
(0.813462 -0.22975 0)
(0.837583 -0.242264 -1.23615e-22)
(0.828916 -0.245889 -1.9977e-23)
(0.789425 -0.240592 1.4261e-21)
(0.721056 -0.22586 -1.04127e-21)
(0.626173 -0.201031 0)
(0.508621 -0.166262 0)
(0.374232 -0.123529 -2.11038e-24)
(0.229141 -0.0763074 0)
(0.0772074 -0.0261971 0)
(0.537238 -0.141321 4.92339e-21)
(0.656849 -0.177026 -1.59399e-23)
(0.748266 -0.206698 -2.24974e-23)
(0.80677 -0.228156 2.2942e-21)
(0.831277 -0.240674 -1.59255e-23)
(0.823191 -0.244402 -1.37535e-21)
(0.784495 -0.239294 9.8732e-22)
(0.717029 -0.224759 0)
(0.623013 -0.20008 9.65395e-22)
(0.506149 -0.165471 0)
(0.372201 -0.123032 4.88052e-22)
(0.227362 -0.0760904 1.54968e-21)
(0.0763194 -0.0261113 0)
(0.389953 -0.101118 3.15983e-21)
(0.529753 -0.139767 3.8356e-23)
(0.649505 -0.175462 2.65564e-23)
(0.741511 -0.205213 2.25097e-23)
(0.800334 -0.226607 2.25145e-21)
(0.825147 -0.239145 1.18518e-23)
(0.817544 -0.242985 0)
(0.779535 -0.238028 2.99908e-24)
(0.712893 -0.223624 -8.91162e-22)
(0.619687 -0.19905 0)
(0.50351 -0.164624 -4.16915e-22)
(0.370057 -0.122511 -1.26463e-21)
(0.225629 -0.075841 0)
(0.0755915 -0.0259822 -2.66774e-21)
(0.268278 -0.0682469 -2.67835e-21)
(0.381522 -0.0996901 1.40702e-21)
(0.265761 -0.0675605 -2.57937e-21)
(0.521386 -0.138115 0)
(0.642606 -0.174096 3.36397e-21)
(0.735191 -0.203782 -2.35526e-21)
(0.794146 -0.225128 1.3791e-23)
(0.819122 -0.237707 -1.18703e-23)
(0.811896 -0.241638 -7.19772e-24)
(0.774498 -0.236776 -5.4261e-24)
(0.708608 -0.222436 2.6551e-24)
(0.616201 -0.197946 0)
(0.500755 -0.163742 0)
(0.367875 -0.121979 6.04667e-22)
(0.224021 -0.0755498 0)
(0.0750277 -0.0258153 0)
(0.270272 -0.0679785 2.83188e-21)
(0.182889 -0.0464383 6.53048e-22)
(0.261259 -0.0674748 0)
(0.369795 -0.0973737 -1.30934e-21)
(0.25469 -0.0655601 -2.33844e-21)
(0.181056 -0.0460106 -6.75395e-23)
(0.513981 -0.136676 -3.84898e-21)
(0.636539 -0.172804 3.06281e-21)
(0.729243 -0.202414 -2.36936e-21)
(0.788103 -0.22375 -2.59957e-23)
(0.813127 -0.236362 -1.30585e-21)
(0.806202 -0.240341 7.20352e-24)
(0.769355 -0.235509 3.44073e-24)
(0.704217 -0.22119 -7.59828e-25)
(0.612634 -0.196797 -4.85742e-22)
(0.49799 -0.162862 -5.17545e-22)
(0.365764 -0.121442 -6.74681e-22)
(0.222554 -0.0751999 -1.7112e-21)
(0.0745999 -0.0256267 0)
(0.18403 -0.0464023 0)
(0.115578 -0.0288176 -7.14463e-24)
(0.115271 -0.0286324 -8.84065e-22)
(0.177515 -0.0456788 -5.20574e-22)
(0.24509 -0.0634902 -2.27756e-21)
(0.36093 -0.0952961 1.25717e-21)
(0.237208 -0.0615252 4.46786e-21)
(0.169837 -0.0437769 0)
(0.114013 -0.0284148 8.48211e-22)
(0.114747 -0.0286818 -1.73169e-21)
(0.508195 -0.135391 3.31627e-22)
(0.631106 -0.171591 2.61616e-21)
(0.723545 -0.201173 -2.12168e-21)
(0.782145 -0.222487 1.36057e-21)
(0.807123 -0.23509 1.14214e-21)
(0.800447 -0.23906 0)
(0.764148 -0.234205 -1.0129e-24)
(0.699773 -0.219888 4.48285e-22)
(0.609061 -0.195621 -4.0998e-22)
(0.49525 -0.161976 5.77464e-22)
(0.363754 -0.120882 1.39199e-21)
(0.221269 -0.0748061 -1.8361e-21)
(0.0742686 -0.0254247 -5.53053e-21)
(0.115934 -0.0286353 7.15009e-24)
(0.116027 -0.028831 9.52215e-22)
(0.0685653 -0.0169704 -8.4875e-22)
(0.0683865 -0.0168551 0)
(0.112764 -0.0286 -2.55449e-23)
(0.110708 -0.0280556 1.57427e-23)
(0.155363 -0.0400916 1.93197e-21)
(0.231977 -0.0602119 -2.10484e-21)
(0.355564 -0.0937636 -4.35204e-21)
(0.229181 -0.0589007 -3.18697e-23)
(0.144822 -0.037654 -2.20234e-21)
(0.100952 -0.0254133 -7.1759e-23)
(0.107188 -0.027585 4.8581e-23)
(0.0677124 -0.0166958 -1.25711e-23)
(0.0681306 -0.0168583 8.17562e-22)
(0.503407 -0.134304 3.46912e-21)
(0.626019 -0.170522 2.32063e-21)
(0.717979 -0.200056 0)
(0.776218 -0.221306 -2.62132e-21)
(0.801107 -0.233851 3.81299e-24)
(0.794674 -0.237758 0)
(0.758936 -0.232842 -7.57705e-25)
(0.695358 -0.218532 3.78083e-22)
(0.605565 -0.194432 0)
(0.492626 -0.161097 1.58276e-22)
(0.361837 -0.120277 1.4954e-21)
(0.220123 -0.0743711 4.93454e-22)
(0.0739951 -0.0252218 3.01726e-21)
(0.0687362 -0.016914 8.6725e-22)
(0.0687683 -0.01703 -8.73725e-22)
(0.0224713 -0.00542602 -3.86904e-24)
(0.0224413 -0.00539471 6.58553e-22)
(0.0669471 -0.0167415 0)
(0.0655967 -0.0164748 7.49675e-22)
(0.0891946 -0.0217687 4.20172e-22)
(0.078668 -0.0206888 -2.35295e-23)
(0.140385 -0.0362737 5.2904e-22)
(0.226888 -0.0584704 3.18876e-23)
(0.351706 -0.0928462 -4.05593e-21)
(0.225523 -0.0578453 2.97049e-23)
(0.138425 -0.0354499 -3.07486e-23)
(0.0698057 -0.0178864 -6.95922e-22)
(0.0727596 -0.0189352 7.28016e-22)
(0.0580333 -0.0138582 -8.66012e-23)
(0.0629272 -0.015972 0)
(0.0222498 -0.00533152 4.95012e-24)
(0.0223533 -0.0053839 -4.9526e-24)
(0.499098 -0.133423 3.26675e-21)
(0.621141 -0.169591 -2.40949e-21)
(0.712504 -0.199026 1.50806e-21)
(0.770333 -0.220163 9.6316e-24)
(0.795117 -0.232598 9.0392e-22)
(0.788941 -0.236398 6.20822e-22)
(0.753788 -0.231404 7.57855e-25)
(0.691039 -0.217128 0)
(0.602168 -0.193228 -1.41098e-22)
(0.490085 -0.160199 0)
(0.360051 -0.119648 1.62597e-21)
(0.219086 -0.073912 0)
(0.0737515 -0.025025 0)
(0.0225088 -0.00541501 4.16129e-24)
(0.0225014 -0.0054574 -6.99713e-22)
(0.022035 -0.00534874 5.96567e-22)
(0.0216117 -0.00528352 6.13231e-22)
(0.0393911 -0.00727051 7.32797e-23)
(0.027273 -0.00747659 -1.53517e-22)
(0.0684356 -0.0174006 -7.09856e-22)
(0.0677355 -0.0170545 7.0935e-22)
(0.137028 -0.0352115 -4.58635e-22)
(0.224031 -0.0578331 -1.95502e-21)
(0.348426 -0.0922374 -4.68701e-21)
(0.223127 -0.0574563 2.86622e-23)
(0.136135 -0.034903 -4.78828e-22)
(0.0670686 -0.0167542 6.75349e-22)
(0.0673223 -0.0169461 -1.07161e-23)
(0.022972 -0.00582507 5.61074e-22)
(0.0246432 -0.00659837 -4.50879e-22)
(0.019208 -0.00492094 2.97175e-22)
(0.0205604 -0.00524519 5.41672e-22)
(0.495072 -0.132685 2.72993e-21)
(0.616399 -0.168737 1.70505e-23)
(0.707104 -0.198018 -1.60386e-21)
(0.764503 -0.219 2.14988e-22)
(0.789204 -0.231286 -6.21138e-22)
(0.783311 -0.234952 0)
(0.748768 -0.229888 0)
(0.686855 -0.215684 0)
(0.598883 -0.192018 -5.55601e-23)
(0.487647 -0.159295 4.76791e-22)
(0.358358 -0.118989 0)
(0.218135 -0.0734416 0)
(0.0735004 -0.0248396 3.38243e-21)
(0.0109485 -0.00182942 1.27815e-22)
(0.0223205 -0.00557803 0)
(0.0220328 -0.00544208 -1.00137e-21)
(0.0667315 -0.0168188 -6.61482e-22)
(0.0665588 -0.0167193 6.43133e-22)
(0.135291 -0.034881 1.77095e-21)
(0.221875 -0.0574979 -7.73596e-23)
(0.345476 -0.0917133 -9.76657e-22)
(0.221109 -0.0571485 1.70677e-21)
(0.13467 -0.0346758 0)
(0.0662558 -0.016593 -6.32099e-22)
(0.0663516 -0.016716 6.28386e-22)
(0.0217995 -0.00534537 -9.69704e-22)
(0.0218859 -0.00541745 4.94114e-22)
(0.491246 -0.131996 -2.75259e-21)
(0.611764 -0.167886 3.74754e-21)
(0.701796 -0.196981 -1.20783e-21)
(0.758784 -0.217773 0)
(0.783423 -0.229882 -6.76737e-22)
(0.777828 -0.233407 0)
(0.743899 -0.228299 -2.67508e-22)
(0.6828 -0.214211 -7.14471e-23)
(0.595714 -0.190806 -4.25131e-22)
(0.485298 -0.15838 0)
(0.356743 -0.118309 0)
(0.217232 -0.0729706 0)
(0.0732132 -0.0246671 0)
(0.0217021 -0.00536941 -3.84921e-24)
(0.0216198 -0.00533541 -4.71331e-22)
(0.0660056 -0.0166913 -6.191e-22)
(0.0658854 -0.0166132 -6.1009e-22)
(0.133997 -0.0346676 1.65312e-21)
(0.219963 -0.0571678 1.62084e-21)
(0.342755 -0.0911632 4.06222e-21)
(0.21929 -0.056798 1.54363e-21)
(0.133461 -0.0344548 -2.00579e-21)
(0.0656319 -0.0165075 0)
(0.0657104 -0.0166258 5.98895e-22)
(0.0215398 -0.00529626 -7.01092e-24)
(0.0215634 -0.00534604 4.6454e-22)
(0.487558 -0.131277 -2.29409e-21)
(0.607251 -0.166984 1.81376e-21)
(0.696602 -0.195863 1.26503e-21)
(0.753203 -0.216449 -1.62964e-22)
(0.777797 -0.228371 0)
(0.772505 -0.231763 -7.67659e-23)
(0.73918 -0.226652 1.16867e-22)
(0.67888 -0.212723 0)
(0.592645 -0.189595 0)
(0.483041 -0.15746 -1.13056e-24)
(0.355209 -0.117617 0)
(0.216363 -0.0725003 3.04155e-24)
(0.0728507 -0.0245072 3.72421e-21)
(0.0214684 -0.0053292 4.48678e-22)
(0.0214046 -0.00530142 -3.47012e-24)
(0.0653973 -0.0165974 1.22041e-23)
(0.0652915 -0.0165159 -8.56684e-24)
(0.132839 -0.0344122 -1.92068e-21)
(0.218229 -0.056792 -1.50494e-21)
(0.340209 -0.0905494 -1.34818e-23)
(0.21761 -0.056392 4.28868e-23)
(0.132359 -0.0341759 -3.83469e-22)
(0.0650586 -0.016401 5.38026e-22)
(0.0651298 -0.016524 5.55707e-22)
(0.0213416 -0.00526681 -4.27461e-22)
(0.0213615 -0.00531571 3.84545e-24)
(0.484013 -0.130485 -2.04878e-21)
(0.602857 -0.165988 -1.38179e-21)
(0.69154 -0.194646 9.04555e-22)
(0.747765 -0.215014 0)
(0.77232 -0.226749 3.39178e-22)
(0.76733 -0.230038 0)
(0.734599 -0.224965 0)
(0.675078 -0.211232 0)
(0.589679 -0.18839 0)
(0.48084 -0.156521 1.08135e-21)
(0.353702 -0.116899 -1.90123e-21)
(0.215449 -0.0720201 -3.04032e-24)
(0.0723769 -0.0243434 -3.69054e-24)
(0.0212749 -0.00529757 -8.34511e-22)
(0.0212164 -0.00526853 -3.17623e-24)
(0.0648326 -0.0164767 0)
(0.0647328 -0.0163878 -7.61062e-24)
(0.131795 -0.0341201 1.04061e-21)
(0.216596 -0.0563575 -1.36397e-21)
(0.337797 -0.0898626 -7.15407e-22)
(0.216029 -0.0559357 1.30287e-21)
(0.131345 -0.0338716 -1.34728e-21)
(0.0645215 -0.016263 0)
(0.0645831 -0.0163884 1.01365e-21)
(0.021155 -0.00523032 -3.06819e-24)
(0.0211751 -0.0052805 -4.01185e-22)
(0.480593 -0.129609 -3.48814e-24)
(0.59857 -0.164897 1.36751e-21)
(0.686602 -0.193329 -9.02439e-22)
(0.742446 -0.213473 0)
(0.766965 -0.225032 -6.31808e-25)
(0.762287 -0.228248 1.30708e-22)
(0.730145 -0.223257 1.41316e-25)
(0.671383 -0.209745 1.5223e-22)
(0.586788 -0.187185 -6.12158e-22)
(0.478709 -0.155572 1.62445e-21)
(0.352221 -0.116165 0)
(0.214449 -0.0715235 0)
(0.0718049 -0.0241915 -3.89178e-21)
(0.0210894 -0.00525707 -3.85499e-22)
(0.0210346 -0.00522648 7.59977e-22)
(0.0643098 -0.0163343 4.89571e-22)
(0.0642201 -0.0162423 4.73386e-22)
(0.130815 -0.0338059 1.94141e-21)
(0.215067 -0.0558873 1.16984e-21)
(0.335482 -0.0891317 6.02373e-22)
(0.214524 -0.0554511 1.168e-21)
(0.130391 -0.0335565 -9.0224e-22)
(0.0640194 -0.0161137 0)
(0.064079 -0.016241 4.6889e-22)
(0.0209779 -0.00518456 -3.66357e-22)
(0.0209977 -0.00523504 3.23113e-24)
(0.477274 -0.128669 1.76674e-22)
(0.594365 -0.163722 9.8748e-22)
(0.681733 -0.191917 0)
(0.737218 -0.211843 -4.13421e-22)
(0.761716 -0.22324 -1.30549e-22)
(0.757354 -0.226418 0)
(0.725807 -0.221544 -4.24187e-23)
(0.667795 -0.208272 -3.24541e-22)
(0.583972 -0.18598 0)
(0.476592 -0.154596 0)
(0.350676 -0.115391 0)
(0.213353 -0.0710234 -3.22968e-21)
(0.0711543 -0.0240472 3.88567e-21)
(0.0209167 -0.00521038 -7.12766e-22)
(0.0208651 -0.00517921 0)
(0.0638182 -0.0161808 6.62621e-24)
(0.063733 -0.0160874 -8.6486e-22)
(0.129887 -0.0334914 3.02483e-22)
(0.21361 -0.0554055 0)
(0.33323 -0.0883881 -1.4485e-21)
(0.213084 -0.0549779 -1.00112e-21)
(0.129484 -0.0332482 -8.08612e-22)
(0.0635545 -0.0159613 0)
(0.0636026 -0.0160877 -4.16385e-22)
(0.0208123 -0.00513671 -3.35809e-22)
(0.0208312 -0.00518696 3.05336e-24)
(0.473991 -0.127679 -1.47743e-21)
(0.590204 -0.162488 0)
(0.676903 -0.190427 4.37195e-22)
(0.73203 -0.210126 -3.35625e-25)
(0.756538 -0.221386 -4.01982e-25)
(0.752526 -0.224563 -1.0047e-22)
(0.721577 -0.219838 0)
(0.66429 -0.206808 0)
(0.581198 -0.184767 5.44457e-22)
(0.47447 -0.153588 0)
(0.349067 -0.114584 2.61973e-21)
(0.212132 -0.070506 3.29677e-24)
(0.0703819 -0.0238957 -7.55142e-21)
(0.0207543 -0.00516113 -6.52075e-22)
(0.020703 -0.00513007 6.38336e-22)
(0.0633599 -0.0160287 -3.94582e-22)
(0.0632814 -0.0159366 -3.95409e-22)
(0.129001 -0.0331939 5.34367e-22)
(0.212207 -0.0549362 0)
(0.331012 -0.0876579 1.68779e-21)
(0.211698 -0.0545278 3.50174e-23)
(0.128609 -0.032966 2.60709e-22)
(0.0631081 -0.0158159 0)
(0.0631545 -0.0159373 9.83705e-24)
(0.0206614 -0.00508915 0)
(0.0206758 -0.00513919 0)
(0.470733 -0.126672 1.23511e-21)
(0.586026 -0.161199 0)
(0.672065 -0.188869 0)
(0.72687 -0.208349 3.35636e-25)
(0.751428 -0.219491 0)
(0.747792 -0.222699 -4.31971e-25)
(0.717442 -0.218145 0)
(0.660852 -0.205357 -5.03171e-22)
(0.57844 -0.183537 0)
(0.472272 -0.152527 0)
(0.347368 -0.113743 0)
(0.210775 -0.0699839 3.42816e-21)
(0.06953 -0.0237393 -3.61974e-21)
(0.0206044 -0.00511394 0)
(0.0205575 -0.00508328 -2.58925e-24)
(0.0629193 -0.0158841 9.90505e-24)
(0.0628617 -0.0158009 6.60412e-24)
(0.128147 -0.0329215 2.37119e-22)
(0.210847 -0.0544919 3.08873e-24)
(0.328776 -0.0869438 -1.80279e-21)
(0.210338 -0.0541101 -7.91807e-22)
(0.127768 -0.0327122 -6.27587e-22)
(0.0626813 -0.0156865 0)
(0.0627277 -0.0157982 -3.34187e-22)
(0.0205122 -0.00504394 0)
(0.0205272 -0.00509186 2.99404e-24)
(0.467432 -0.125648 5.35506e-24)
(0.581797 -0.15987 0)
(0.667184 -0.187254 0)
(0.721708 -0.206514 4.36004e-23)
(0.746371 -0.217566 7.33276e-25)
(0.74314 -0.220841 -2.4757e-22)
(0.713376 -0.216474 0)
(0.657433 -0.20391 1.12257e-24)
(0.575631 -0.182277 -6.93819e-22)
(0.470007 -0.151424 0)
(0.345524 -0.112865 2.44006e-21)
(0.209307 -0.0694564 3.3117e-21)
(0.0686419 -0.0235725 1.35229e-23)
(0.020457 -0.00506927 2.96732e-24)
(0.0204148 -0.00504044 -2.59324e-22)
(0.0625053 -0.0157542 0)
(0.0624545 -0.0156778 6.78546e-24)
(0.127324 -0.0326764 4.21202e-22)
(0.209509 -0.0540756 7.27217e-22)
(0.326536 -0.0862556 3.44821e-22)
(0.208998 -0.0537207 -3.91593e-23)
(0.126949 -0.0324855 7.42502e-22)
(0.0622829 -0.0155737 0)
(0.0623257 -0.0156778 -2.95572e-22)
(0.0203681 -0.00500471 0)
(0.0203974 -0.00505171 2.54765e-22)
(0.464062 -0.124614 -3.29714e-24)
(0.577484 -0.158501 0)
(0.662222 -0.185576 -4.64031e-23)
(0.71653 -0.204631 0)
(0.741352 -0.215626 2.48356e-22)
(0.738549 -0.219001 3.28367e-22)
(0.709346 -0.214828 0)
(0.653998 -0.202464 6.17099e-23)
(0.572747 -0.180977 -2.96314e-24)
(0.46763 -0.150272 -2.08273e-21)
(0.343599 -0.111964 0)
(0.207743 -0.0689009 0)
(0.0677034 -0.0233938 -3.20019e-21)
(0.0203222 -0.00502995 -2.40315e-22)
(0.0202821 -0.00500318 -4.67174e-22)
(0.0621116 -0.0156392 9.93592e-24)
(0.0620615 -0.0155695 6.9795e-24)
(0.126518 -0.0324538 -3.14744e-22)
(0.208178 -0.0536782 -5.61048e-22)
(0.32425 -0.0855737 0)
(0.207665 -0.0533497 5.6986e-22)
(0.126148 -0.0322794 8.07727e-22)
(0.0618966 -0.015475 0)
(0.0619383 -0.0155712 0)
(0.020239 -0.00497143 -2.20639e-22)
(0.0202663 -0.00501576 1.80262e-24)
(0.460583 -0.123558 0)
(0.573015 -0.157082 0)
(0.657145 -0.183841 3.1151e-23)
(0.711308 -0.202703 1.516e-22)
(0.736352 -0.213684 -3.29574e-22)
(0.73399 -0.217194 -3.99003e-22)
(0.705316 -0.213209 5.58086e-22)
(0.650501 -0.201004 -6.39727e-22)
(0.569772 -0.179634 -7.79936e-22)
(0.465156 -0.149067 0)
(0.341581 -0.111025 -2.36148e-21)
(0.206126 -0.0683264 2.91439e-21)
(0.0666887 -0.0231914 0)
(0.0201927 -0.00499538 -4.23693e-22)
(0.0201512 -0.00497035 -2.04636e-22)
(0.0617359 -0.0155386 -2.41053e-22)
(0.0616882 -0.0154748 -2.3644e-22)
(0.125734 -0.0322469 3.16823e-22)
(0.206877 -0.0533053 -1.85322e-24)
(0.321882 -0.084884 0)
(0.20635 -0.0529929 4.78227e-22)
(0.125372 -0.032082 -3.91325e-22)
(0.0615302 -0.0153896 0)
(0.0615675 -0.0154776 -2.24619e-22)
(0.0201101 -0.00494151 -1.94626e-22)
(0.0201378 -0.00498341 0)
(0.456941 -0.122481 4.65262e-22)
(0.568327 -0.155604 -3.38589e-23)
(0.651897 -0.182026 -1.60521e-22)
(0.706007 -0.200733 0)
(0.731362 -0.211767 4.65797e-23)
(0.729445 -0.215429 1.98115e-24)
(0.701256 -0.211607 3.52015e-23)
(0.646937 -0.199521 7.18366e-22)
(0.566707 -0.178236 -8.04996e-22)
(0.462596 -0.147813 2.01654e-21)
(0.339499 -0.110053 -2.27168e-21)
(0.204405 -0.0677039 2.65972e-21)
(0.0655445 -0.0229527 2.54637e-21)
(0.0200698 -0.0049658 -1.87805e-22)
(0.0200288 -0.00494186 -1.8347e-22)
(0.0613701 -0.0154471 -2.09569e-22)
(0.0613252 -0.015391 8.87085e-24)
(0.124961 -0.032043 2.69926e-22)
(0.205568 -0.0529366 0)
(0.319423 -0.0841767 -3.4986e-22)
(0.205017 -0.052635 -3.88508e-22)
(0.124611 -0.0318874 -2.01837e-22)
(0.0611709 -0.0153064 0)
(0.0612124 -0.0153871 -1.92536e-22)
(0.0199925 -0.00491639 -1.71405e-22)
(0.0200156 -0.00495571 1.39944e-24)
(0.45301 -0.121347 0)
(0.563284 -0.154015 3.40625e-23)
(0.646391 -0.180105 0)
(0.700644 -0.198751 6.6982e-22)
(0.726388 -0.209896 -7.97576e-25)
(0.724909 -0.213709 1.06052e-21)
(0.69716 -0.210008 4.72529e-24)
(0.643294 -0.197999 1.44836e-21)
(0.56356 -0.176786 0)
(0.459951 -0.146514 1.93638e-21)
(0.337314 -0.109051 -2.1484e-21)
(0.202525 -0.0670307 8.1657e-23)
(0.0643155 -0.0226663 6.71255e-23)
(0.0199448 -0.00493883 1.30369e-24)
(0.0199163 -0.00492118 2.83891e-24)
(0.0610197 -0.0153586 9.38622e-24)
(0.0609794 -0.0153082 7.10417e-24)
(0.12421 -0.0318405 -1.11619e-22)
(0.204233 -0.0525571 -6.43573e-22)
(0.316744 -0.0834153 -1.47875e-23)
(0.203675 -0.0522622 0)
(0.123866 -0.0316876 3.65537e-22)
(0.0608273 -0.0152285 -1.58776e-22)
(0.0608719 -0.0153039 -1.62809e-22)
(0.0198709 -0.00488934 -1.47007e-22)
(0.0198977 -0.00492586 0)
(0.448579 -0.120099 -3.89348e-23)
(0.557743 -0.152251 -8.10049e-23)
(0.64065 -0.178089 -3.23797e-22)
(0.69527 -0.196807 3.64896e-22)
(0.721471 -0.208094 -9.68105e-22)
(0.720394 -0.212018 -4.6152e-24)
(0.693023 -0.208391 -6.63603e-22)
(0.639574 -0.196435 0)
(0.560309 -0.175298 0)
(0.457217 -0.145198 3.64657e-24)
(0.335011 -0.108003 4.48141e-23)
(0.200496 -0.0662589 -1.93516e-21)
(0.0630624 -0.0223416 -1.55988e-21)
(0.0198273 -0.00491216 -2.79023e-22)
(0.0198015 -0.00489628 2.78066e-24)
(0.0606865 -0.0152745 0)
(0.060649 -0.0152249 1.4479e-22)
(0.123478 -0.0316285 2.31213e-22)
(0.202871 -0.0521645 2.22487e-22)
(0.313601 -0.0825616 8.40339e-23)
(0.202195 -0.0518462 -1.98521e-22)
(0.123119 -0.0314657 8.18298e-23)
(0.0605075 -0.0151474 -1.31442e-22)
(0.0605453 -0.0152197 1.35292e-22)
(0.0197567 -0.00486631 9.58045e-25)
(0.0197852 -0.00490074 0)
(0.443327 -0.118619 9.43427e-23)
(0.551525 -0.150208 -1.4517e-24)
(0.634783 -0.176072 -3.88909e-22)
(0.690022 -0.194964 5.89172e-23)
(0.716664 -0.206346 -3.98619e-24)
(0.715895 -0.210333 5.93179e-22)
(0.688829 -0.206758 -1.03906e-23)
(0.635757 -0.194848 5.60009e-24)
(0.556965 -0.173786 0)
(0.454375 -0.143842 -3.43653e-24)
(0.332592 -0.106884 3.63966e-24)
(0.198361 -0.0654067 3.51475e-24)
(0.0618157 -0.0219938 1.31639e-22)
(0.0197201 -0.00488817 1.18895e-22)
(0.019695 -0.00487129 1.15292e-22)
(0.0603694 -0.0151853 1.22085e-22)
(0.0603356 -0.0151386 0)
(0.122743 -0.0313906 -2.76259e-24)
(0.20128 -0.0517245 1.93117e-22)
(0.309479 -0.0814633 -5.72144e-24)
(0.200323 -0.0513597 -1.26893e-22)
(0.122339 -0.0312108 -6.50983e-23)
(0.0601938 -0.0150566 6.31516e-24)
(0.0602374 -0.0151287 0)
(0.0196575 -0.00484251 0)
(0.0196793 -0.00487596 -1.09882e-22)
(0.43659 -0.116616 -1.29696e-22)
(0.544857 -0.148036 2.7474e-22)
(0.629137 -0.174214 7.27399e-23)
(0.685022 -0.193204 0)
(0.711962 -0.204635 -5.8556e-22)
(0.711384 -0.20866 0)
(0.684558 -0.205115 5.23488e-24)
(0.631847 -0.193245 -5.60137e-24)
(0.553526 -0.172259 -1.51702e-21)
(0.451448 -0.142446 3.19912e-24)
(0.33004 -0.105676 0)
(0.196183 -0.064502 -1.05249e-21)
(0.0606287 -0.0216276 1.56667e-22)
(0.0196172 -0.00486101 0)
(0.019595 -0.0048459 0)
(0.0600638 -0.0150862 9.71947e-23)
(0.0600316 -0.0150379 -9.37163e-23)
(0.121921 -0.0311084 -1.84266e-22)
(0.198967 -0.0511813 0)
(0.302525 -0.0796341 1.67086e-22)
(0.197129 -0.0506299 0)
(0.121392 -0.0308962 -4.76993e-23)
(0.0598908 -0.0149542 0)
(0.0599349 -0.0150267 8.52492e-23)
(0.0195559 -0.00481509 -8.29751e-23)
(0.0195822 -0.00484879 0)
(0.428387 -0.114118 -5.80819e-23)
(0.538556 -0.146158 4.07841e-22)
(0.623991 -0.172495 7.72674e-24)
(0.68027 -0.191512 -5.19433e-22)
(0.707326 -0.202956 -4.58563e-24)
(0.706844 -0.206995 0)
(0.680219 -0.203473 0)
(0.627854 -0.191632 -6.81758e-22)
(0.549999 -0.17069 -1.39688e-21)
(0.448396 -0.14098 2.48647e-24)
(0.327408 -0.104421 0)
(0.193975 -0.0635795 -5.8511e-22)
(0.0595772 -0.0212555 1.40609e-22)
(0.0195206 -0.00483067 -8.18663e-23)
(0.0194988 -0.00481454 0)
(0.059755 -0.0149697 0)
(0.0597285 -0.0149177 7.57459e-23)
(0.120709 -0.0307351 -3.84754e-23)
(0.194215 -0.0502101 -9.76719e-26)
(0.29053 -0.0763713 -2.42306e-22)
(0.189307 -0.0486609 -2.75813e-23)
(0.119644 -0.0304378 0)
(0.0595615 -0.0148222 6.3187e-23)
(0.0596258 -0.0149029 6.1547e-23)
(0.0194668 -0.0047843 -6.78277e-23)
(0.019489 -0.00481744 -7.22896e-23)
(0.420913 -0.112087 -5.8177e-24)
(0.533288 -0.144506 0)
(0.619351 -0.170865 5.43234e-22)
(0.67572 -0.189882 -9.44378e-24)
(0.702737 -0.201313 0)
(0.702282 -0.205342 0)
(0.675831 -0.201821 6.50779e-22)
(0.623805 -0.189994 1.29359e-21)
(0.546381 -0.16909 2.29894e-24)
(0.445252 -0.139479 -2.48587e-24)
(0.324662 -0.103138 -9.65856e-22)
(0.191801 -0.0626733 -1.27441e-22)
(0.0587406 -0.0208813 -3.23445e-22)
(0.0194326 -0.00479572 0)
(0.0194121 -0.00477775 -5.66853e-23)
(0.059406 -0.014833 -7.0917e-24)
(0.0593164 -0.0147591 -5.06094e-23)
(0.117908 -0.0301404 1.66515e-23)
(0.180054 -0.0460078 -1.40585e-22)
(0.280767 -0.073817 -5.69385e-23)
(0.170218 -0.0441329 3.41737e-23)
(0.114278 -0.0292133 0)
(0.0589477 -0.0146425 0)
(0.059168 -0.0147422 -4.38985e-23)
(0.0193749 -0.00474241 -9.68267e-23)
(0.0194045 -0.00477802 0)
(0.415557 -0.11041 -3.76505e-22)
(0.528909 -0.142974 -5.04509e-22)
(0.615067 -0.169335 0)
(0.671318 -0.188313 9.45965e-24)
(0.698202 -0.199689 0)
(0.697725 -0.203686 -4.9891e-24)
(0.671412 -0.20016 -2.36411e-24)
(0.61968 -0.188335 0)
(0.542662 -0.16745 -2.29835e-24)
(0.441974 -0.137951 1.76905e-21)
(0.321907 -0.101896 3.63387e-25)
(0.189728 -0.0618084 2.9187e-22)
(0.0581386 -0.0205179 0)
(0.0193474 -0.00475383 4.25089e-23)
(0.0193055 -0.00472348 -2.12174e-24)
(0.0586248 -0.0146607 0)
(0.0580695 -0.0145405 -2.14062e-23)
(0.102074 -0.0257086 4.5774e-23)
(0.16411 -0.0423578 -5.38291e-24)
(0.275879 -0.0719774 3.44193e-22)
(0.161435 -0.0412644 2.1565e-22)
(0.0866294 -0.0229859 -3.33068e-23)
(0.0548934 -0.0135309 -1.64852e-23)
(0.0570974 -0.0144795 0)
(0.0192187 -0.00467908 0)
(0.0192887 -0.00472086 -1.95126e-24)
(0.411693 -0.109013 5.55458e-22)
(0.525111 -0.141596 -1.16327e-24)
(0.611086 -0.1679 -1.04204e-23)
(0.66707 -0.186783 -6.57382e-22)
(0.693736 -0.198079 5.17071e-24)
(0.693175 -0.202029 9.85388e-24)
(0.666955 -0.198479 -6.05423e-22)
(0.615465 -0.186643 0)
(0.538829 -0.1658 -8.43589e-22)
(0.438618 -0.136451 0)
(0.31912 -0.100703 -3.13369e-22)
(0.187828 -0.0610048 0)
(0.0577893 -0.0201566 2.25761e-21)
(0.0191239 -0.00468322 2.44271e-23)
(0.0189339 -0.00464138 1.85513e-23)
(0.0501744 -0.011727 -5.89803e-25)
(0.0340061 -0.00595942 0)
(0.0811321 -0.0209057 -2.14221e-24)
(0.159788 -0.0405974 -1.31255e-22)
(0.27308 -0.0708557 7.68469e-24)
(0.15886 -0.0401573 1.65704e-22)
(0.0798089 -0.0201519 -1.12345e-22)
(0.020875 -0.0056678 1.04472e-24)
(0.0233563 -0.005947 -1.61361e-24)
(0.0177694 -0.00451721 2.49404e-23)
(0.0185844 -0.0046365 6.75406e-25)
(0.408549 -0.107836 -1.51002e-24)
(0.521708 -0.140344 9.98591e-24)
(0.607353 -0.166537 2.02907e-23)
(0.662957 -0.185281 0)
(0.689325 -0.196468 -5.16771e-24)
(0.688625 -0.200358 1.22588e-21)
(0.662438 -0.196778 5.63517e-22)
(0.611154 -0.184933 0)
(0.534899 -0.164142 0)
(0.435224 -0.135002 -1.23291e-22)
(0.31643 -0.0996056 1.99758e-23)
(0.186184 -0.0602676 -1.49709e-21)
(0.0576655 -0.0198073 1.94045e-22)
(0.0165546 -0.00421274 -1.41671e-24)
(0.00938205 -0.0014933 7.49633e-23)
(0.0195455 -0.00498256 1.13234e-23)
(0.0190382 -0.00477279 1.41046e-23)
(0.0790926 -0.0198925 1.24466e-22)
(0.158042 -0.0399537 2.0186e-22)
(0.271008 -0.0700716 -5.79382e-24)
(0.157548 -0.0397167 -2.14581e-22)
(0.0786435 -0.0196966 0)
(0.0188502 -0.00462127 -2.11227e-23)
(0.0189383 -0.00468865 2.04214e-23)
(0.405892 -0.106836 4.6429e-24)
(0.518656 -0.139201 2.7817e-23)
(0.603823 -0.165211 0)
(0.65896 -0.183787 -7.34185e-22)
(0.684961 -0.194858 -1.32562e-21)
(0.684056 -0.198672 -5.49872e-22)
(0.65785 -0.19504 1.63255e-24)
(0.606757 -0.183193 0)
(0.530919 -0.16251 3.48344e-22)
(0.43185 -0.133627 -1.70292e-23)
(0.313878 -0.0985835 4.56868e-22)
(0.18479 -0.0595535 1.13053e-21)
(0.0576204 -0.0194708 2.97279e-21)
(0.0188042 -0.00462594 0)
(0.0187853 -0.00460137 -2.62481e-23)
(0.0783133 -0.0196127 3.48672e-23)
(0.156934 -0.0395868 0)
(0.26929 -0.0694132 1.8912e-22)
(0.156564 -0.0393882 0)
(0.0780731 -0.019489 0)
(0.0187324 -0.00455981 3.06606e-23)
(0.018744 -0.00458613 2.90978e-23)
(0.403593 -0.105941 8.48826e-22)
(0.515861 -0.138115 -1.28731e-23)
(0.600462 -0.163915 1.58301e-21)
(0.655051 -0.182303 -5.50654e-23)
(0.680624 -0.19323 -6.95707e-22)
(0.679457 -0.196944 -5.80484e-22)
(0.653204 -0.193263 -4.28355e-22)
(0.602329 -0.181441 0)
(0.526951 -0.160903 -1.8963e-22)
(0.42859 -0.132322 0)
(0.311478 -0.0976164 0)
(0.183573 -0.0588646 -1.25973e-21)
(0.0575952 -0.0191699 -1.48828e-21)
(0.0186886 -0.00456899 -6.94027e-23)
(0.0186848 -0.00455061 2.72861e-25)
(0.0778293 -0.019424 4.57371e-23)
(0.156037 -0.0392805 -2.98486e-22)
(0.267888 -0.0688219 0)
(0.15576 -0.0390931 0)
(0.0776224 -0.0193077 9.10281e-25)
(0.0186399 -0.00451817 0)
(0.0186417 -0.004541 3.91467e-23)
(0.401585 -0.105121 6.89717e-24)
(0.513255 -0.137061 1.50055e-23)
(0.597225 -0.162619 -4.47135e-23)
(0.651208 -0.180798 7.19259e-22)
(0.676294 -0.191567 5.80285e-22)
(0.674833 -0.195167 9.48962e-22)
(0.648549 -0.191433 -3.44681e-22)
(0.597931 -0.179669 3.30824e-22)
(0.523094 -0.159342 0)
(0.425482 -0.13109 2.55051e-22)
(0.309236 -0.0966769 0)
(0.182457 -0.0581736 1.34498e-21)
(0.057516 -0.0189163 1.70477e-21)
(0.0185885 -0.00452607 -9.12159e-23)
(0.0185817 -0.00450684 -4.74203e-23)
(0.0774131 -0.019251 -9.10081e-25)
(0.155318 -0.0390005 0)
(0.266706 -0.0682657 -4.34373e-24)
(0.15512 -0.0388179 0)
(0.0772553 -0.0191431 0)
(0.0185305 -0.00447667 0)
(0.0185389 -0.00450031 0)
(0.399764 -0.104319 -1.03971e-21)
(0.510803 -0.136007 9.40942e-22)
(0.59409 -0.161316 0)
(0.647415 -0.17927 -5.85505e-24)
(0.671973 -0.189848 -5.32758e-22)
(0.67022 -0.193319 3.37562e-22)
(0.64394 -0.189558 -4.12165e-22)
(0.593643 -0.177895 -6.78488e-23)
(0.519404 -0.157812 -2.27588e-22)
(0.422496 -0.129874 3.76534e-22)
(0.3071 -0.0957394 0)
(0.181295 -0.0574949 0)
(0.0573411 -0.0187361 -1.61258e-21)
(0.0184841 -0.00448889 -5.73439e-23)
(0.0184839 -0.00447255 -6.01453e-23)
(0.0770987 -0.0190952 0)
(0.15474 -0.0387316 -1.57524e-24)
(0.265674 -0.0677075 1.93032e-24)
(0.154597 -0.0385471 1.57389e-24)
(0.0769891 -0.0189984 0)
(0.0184447 -0.00444731 0)
(0.0184472 -0.00446938 6.4124e-23)
(0.398101 -0.103525 8.3959e-24)
(0.508477 -0.134949 0)
(0.591024 -0.159978 -9.28654e-22)
(0.643655 -0.177685 -7.93791e-22)
(0.667683 -0.188066 1.20727e-24)
(0.665665 -0.19141 2.58278e-22)
(0.639448 -0.187635 6.50894e-23)
(0.589523 -0.17611 0)
(0.515844 -0.1563 -3.35946e-22)
(0.419602 -0.128667 4.76371e-22)
(0.304879 -0.0947665 0)
(0.180036 -0.0568803 1.45808e-21)
(0.0571169 -0.018597 -1.73606e-24)
(0.0184116 -0.00446135 7.10194e-23)
(0.0184133 -0.00444394 -7.39783e-23)
(0.0768584 -0.0189505 0)
(0.154276 -0.0384639 1.78492e-24)
(0.264744 -0.0671466 -2.20647e-25)
(0.154149 -0.038277 -1.78318e-24)
(0.0767575 -0.0188528 0)
(0.0183951 -0.00442284 8.10245e-23)
(0.0183835 -0.00444323 7.81074e-23)
(0.396553 -0.10271 1.19803e-21)
(0.50623 -0.133849 2.09888e-21)
(0.58801 -0.158599 8.41003e-22)
(0.639932 -0.176049 0)
(0.663451 -0.186215 1.01393e-24)
(0.661216 -0.189441 0)
(0.635095 -0.18569 0)
(0.585535 -0.174332 5.86939e-23)
(0.512357 -0.15478 -4.24979e-22)
(0.416657 -0.127431 0)
(0.302558 -0.093807 0)
(0.178655 -0.056394 -1.43392e-24)
(0.0571236 -0.0183876 1.79462e-21)
(0.018363 -0.0044365 8.45898e-23)
(0.0183672 -0.00441814 -8.82701e-23)
(0.0766444 -0.01881 0)
(0.153858 -0.0381851 3.95823e-24)
(0.263891 -0.0665776 -1.05735e-21)
(0.153762 -0.038011 -6.02129e-24)
(0.0765506 -0.0187158 0)
(0.0183386 -0.00439649 -9.50483e-23)
(0.0183395 -0.00441776 9.30313e-23)
(0.395086 -0.101876 -1.24651e-21)
(0.504035 -0.132716 4.19829e-24)
(0.585027 -0.157172 0)
(0.636251 -0.17436 7.45721e-22)
(0.659293 -0.184326 5.21341e-22)