/*--------------------------------*- C++ -*----------------------------------*\
| =========                 |                                                 |
| \\      /  F ield         | OpenFOAM: The Open Source CFD Toolbox           |
|  \\    /   O peration     | Version:  v1912                                 |
|   \\  /    A nd           | Website:  www.openfoam.com                      |
|    \\/     M anipulation  |                                                 |
\*---------------------------------------------------------------------------*/
FoamFile
{
    version     2.0;
    format      ascii;
    class       surfaceScalarField;
    location    "440";
    object      phi;
}
// * * * * * * * * * * * * * * * * * * * * * * * * * * * * * * * * * * * * * //

dimensions      [0 3 -1 0 0 0 0];
oriented        oriented;


internalField   nonuniform List<scalar> 
7191
(
-1.95255e-06
0.00132371
-9.0745e-06
0.00397508
-2.10508e-06
0.00132581
-2.41742e-05
0.00658647
-9.46051e-06
0.00398243
-2.10858e-06
0.00132792
-4.4821e-05
0.00907074
-2.4042e-05
0.00660105
-9.46388e-06
0.00398979
-1.98974e-06
0.00132991
-7.5107e-05
0.0113157
-4.80944e-05
0.0090948
-2.35635e-05
0.00661515
-9.33829e-06
0.00399714
-2.03222e-06
0.00133194
-0.000115905
0.0131841
-7.91448e-05
0.0113468
-4.53828e-05
0.00911661
-2.41804e-05
0.00663
-9.72338e-06
0.00400483
-1.71576e-06
0.00133366
-0.000162386
0.0145481
-0.000119579
0.0132246
-7.90378e-05
0.0113804
-4.63695e-05
0.0091388
-2.17582e-05
0.00664203
-8.07987e-06
0.00401119
-1.59206e-06
0.00133525
-0.00020692
0.0152943
-0.000165313
0.0145938
-0.000117925
0.0132635
-7.33517e-05
0.0114074
-4.14386e-05
0.00915848
-1.95595e-05
0.00665351
-7.26017e-06
0.00401686
-1.48861e-06
0.00133674
-0.000250065
0.0153562
-0.000215775
0.0153447
-0.00016265
0.0146386
-0.000112623
0.0133027
-7.07496e-05
0.0114367
-3.77942e-05
0.00917672
-1.82216e-05
0.00666447
-6.63757e-06
0.00402201
-1.16257e-06
0.0013379
-0.00028051
0.0146943
-0.000259002
0.0153994
-0.000211876
0.0153939
-0.000156139
0.0146821
-0.000101093
0.0133331
-6.17693e-05
0.0114607
-3.35592e-05
0.00919206
-1.55264e-05
0.00667336
-4.56521e-06
0.00402541
-1.17694e-06
0.00133908
-0.000293229
0.0133466
-0.000301434
0.0147367
-0.000258929
0.0154465
-0.000198198
0.015436
-0.000137259
0.0147182
-9.21912e-05
0.0133635
-5.43394e-05
0.0114815
-2.99405e-05
0.00920647
-1.41725e-05
0.00668297
-5.19346e-06
0.00402943
-8.44221e-07
0.00133993
-0.000286456
0.011398
-0.000332612
0.0133777
-0.000298218
0.014776
-0.000237846
0.0154861
-0.000174701
0.0154734
-0.000122758
0.0147488
-7.85615e-05
0.0133877
-4.75724e-05
0.0114991
-2.56643e-05
0.00921796
-1.08901e-05
0.00668867
-4.57238e-06
0.00403316
-7.49911e-07
0.00134068
-0.000246479
0.00898117
-0.00035306
0.0114184
-0.000327757
0.0134073
-0.000264338
0.0148025
-0.000201502
0.0155129
-0.000148739
0.0154994
-0.00010258
0.0147728
-6.58614e-05
0.013406
-3.95033e-05
0.0115129
-2.14498e-05
0.00922852
-1.13735e-05
0.00669547
-4.16696e-06
0.00403657
-7.86346e-07
0.00134146
0.00624923
-0.000110303
-5.04476e-05
-0.000358068
0.00898617
-0.000344421
0.0114351
-0.000277738
0.0134207
-0.000217176
0.0148182
-0.000166999
0.0155312
-0.000119841
0.0155167
-8.43383e-05
0.0147913
-5.80392e-05
0.0134245
-3.63666e-05
0.0115279
-2.06491e-05
0.0092378
-1.02414e-05
0.00670154
-4.00634e-06
0.00403979
-7.71241e-07
0.00134223
0.00623485
-0.000201428
-0.000142261
-0.00212087
0.00207431
-6.37369e-05
-3.27439e-05
-0.00213858
-0.000350225
0.00899198
-0.000269669
0.011427
-0.000211378
0.0134149
-0.00016736
0.0148185
-0.000129807
0.0155412
-0.000101402
0.0155337
-7.37268e-05
0.014807
-4.78407e-05
0.013436
-3.02863e-05
0.0115375
-1.74261e-05
0.00924498
-8.68667e-06
0.00670622
-3.88437e-06
0.00404291
-8.39405e-07
0.00134307
0.00622081
-0.000140229
-0.000195959
-0.00204355
0.00201631
-0.000174184
-0.00011151
-0.00139807
0.00135478
-1.55317e-05
-4.9142e-06
-9.14726e-07
-0.00142324
-6.66106e-06
-2.01317e-05
-0.000228669
0.00895098
-0.000184109
0.0113997
-0.000154404
0.0134019
-0.000128988
0.0148177
-0.000105453
0.0155452
-8.08242e-05
0.0155408
-5.75703e-05
0.0148167
-4.23878e-05
0.0134481
-2.77406e-05
0.0115478
-1.88141e-05
0.00925511
-1.02254e-05
0.00671256
-3.42812e-06
0.00404549
-1.08195e-06
0.00134415
0.00613448
-4.19689e-05
-0.000100374
-0.00199222
0.00196143
-0.000109437
-0.000171868
-0.0013
0.00126592
-8.7054e-05
-5.30532e-05
-1.70087e-05
-3.97229e-05
-0.000439291
0.000429257
-5.49825e-06
-0.00044156
-2.64554e-06
0.000446461
-0.000446606
-7.6956e-07
-3.61256e-06
-6.2229e-08
-1.75972e-06
-0.00012544
0.00889231
-0.000117347
0.0113627
-0.000107769
0.0133807
-9.62664e-05
0.0148085
-8.02225e-05
0.0155446
-6.397e-05
0.0155472
-5.21814e-05
0.0148265
-3.84676e-05
0.0134588
-2.71206e-05
0.0115561
-1.71666e-05
0.00926205
-1.07645e-05
0.0067199
-4.98747e-06
0.0040494
-1.14287e-06
0.0013453
0.00605388
-8.25364e-06
-3.65858e-05
-0.00191559
0.00189797
-2.43512e-05
-5.45345e-05
-0.0012378
0.00118587
-1.70363e-05
-4.04722e-05
-8.01e-05
-6.36423e-05
-0.000380199
0.000353157
-6.00115e-05
-0.000400016
-3.3236e-05
0.000421449
-9.20059e-06
-1.82898e-05
-0.000257752
0.000253017
-7.63013e-07
-0.000259984
-4.14114e-07
-0.000449154
-1.06456e-06
0.000261467
-0.000262175
-6.23478e-08
-1.94873e-08
-2.76146e-07
-6.72039e-05
0.00884217
-7.48596e-05
0.0113298
-7.6345e-05
0.0133608
-7.26221e-05
0.0148009
-6.50772e-05
0.0155457
-5.80716e-05
0.0155531
-4.68524e-05
0.0148349
-3.67781e-05
0.0134685
-2.91695e-05
0.0115681
-2.0558e-05
0.00927185
-1.06083e-05
0.00672552
-5.31147e-06
0.00405357
-1.21008e-06
0.00134651
0.00600266
-6.31872e-07
-1.53453e-05
-0.00187395
0.00187114
-5.44446e-06
-1.25647e-05
-0.00114433
0.00112329
-1.76172e-07
-3.14221e-06
-1.04142e-05
-2.57475e-06
-0.000289682
0.000278966
-6.32034e-06
-0.000311461
-1.86925e-05
0.000331545
-5.84885e-05
-4.35584e-05
-0.000207541
0.000168846
-2.1316e-05
-0.000231039
-9.73863e-06
0.000245543
-1.72683e-06
-3.78514e-06
-7.50327e-05
7.42697e-05
-7.54468e-05
-0.000263125
-1.14296e-07
7.5723e-05
-7.57853e-05
-4.50716e-08
-3.73476e-05
0.00880465
-4.90542e-05
0.0113025
-5.43898e-05
0.0133426
-5.47545e-05
0.0147906
-5.42392e-05
0.0155419
-4.90845e-05
0.0155554
-4.32028e-05
0.0148413
-3.80268e-05
0.0134774
-2.95408e-05
0.0115771
-2.03593e-05
0.0092816
-1.36279e-05
0.00673384
-6.15865e-06
0.00405852
-1.53426e-06
0.00134804
0.00597226
9.5085e-07
-7.90231e-06
-0.00185934
0.00185971
-1.00764e-06
-3.54253e-06
-0.00111171
0.00110636
5.50373e-07
-6.3919e-07
-1.20303e-06
2.16953e-07
-0.000266163
0.00026608
-9.31016e-08
-0.00026893
-3.75459e-07
0.000270832
-2.28078e-06
-6.72143e-07
-8.58097e-05
7.94893e-05
-0.000104502
0.000148061
-3.77031e-05
-5.90191e-05
3.77031e-05
-6.87577e-05
7.25429e-05
-7.58996e-05
-2.20832e-05
0.00877768
-3.35645e-05
0.0112816
-4.0697e-05
0.0133285
-4.68119e-05
0.0147832
-4.77042e-05
0.0155405
-4.67736e-05
0.0155589
-4.59369e-05
0.0148492
-4.06653e-05
0.0134885
-3.26047e-05
0.0115893
-2.51119e-05
0.00929308
-1.51207e-05
0.0067428
-6.92698e-06
0.00406391
-1.57245e-06
0.00134961
0.00595354
1.64662e-06
-5.01016e-06
-0.00185323
0.00185481
-6.29622e-07
-1.41948e-06
-0.00110293
0.00110184
4.035e-07
-3.23676e-07
-3.3481e-07
2.24625e-07
-0.000264547
0.000265038
5.93677e-08
-0.000265242
5.65928e-08
0.00026505
-1.73333e-07
2.46533e-08
-7.6161e-05
7.60679e-05
-7.65364e-05
7.72086e-05
-1.40642e-05
0.00875818
-2.49734e-05
0.0112659
-3.20826e-05
0.0133138
-3.78548e-05
0.0147733
-4.44958e-05
0.0155382
-4.77505e-05
0.0155607
-4.93503e-05
0.0148579
-4.53781e-05
0.0135013
-3.93862e-05
0.0116036
-2.85393e-05
0.0093065
-1.70122e-05
0.00675288
-7.77443e-06
0.00407011
-1.9359e-06
0.00135155
0.00594167
9.6024e-07
-3.15556e-06
-0.00185046
0.00185214
-3.29759e-08
-6.59832e-07
-0.00110046
0.00109972
2.63564e-07
-1.61981e-07
-1.88817e-07
1.51787e-07
-0.000264554
0.000264924
3.29929e-08
-0.000264958
8.06735e-08
0.000264789
-8.64083e-08
5.57114e-08
-7.59758e-05
7.60351e-05
-7.59192e-05
7.58945e-05
-1.01982e-05
0.00874341
-1.73086e-05
0.0112511
-2.7518e-05
0.0133034
-3.56039e-05
0.0147644
-4.38433e-05
0.0155343
-5.34762e-05
0.0155649
-5.57889e-05
0.0148683
-5.42636e-05
0.0135161
-4.52378e-05
0.0116203
-3.40234e-05
0.00932351
-2.04341e-05
0.00676554
-9.34355e-06
0.00407752
-2.03644e-06
0.00135359
0.00593261
7.34767e-07
-1.86992e-06
-0.00184953
0.00185027
2.21897e-07
-5.48471e-07
-0.00109917
0.00109898
2.52824e-07
-9.61854e-08
-1.52509e-07
4.67454e-08
-0.000264696
0.000264949
1.05571e-08
-0.000264923
6.57376e-08
0.000264804
-6.86269e-08
3.26668e-08
-7.60851e-05
7.61181e-05
-7.60044e-05
7.59487e-05
-7.09836e-06
0.0087332
-1.43316e-05
0.011238
-2.50366e-05
0.0132929
-3.6402e-05
0.014757
-4.92741e-05
0.0155301
-5.91584e-05
0.0155682
-6.59036e-05
0.01488
-6.35421e-05
0.0135344
-5.34125e-05
0.0116397
-3.59092e-05
0.00933899
-2.07671e-05
0.00677697
-8.88469e-06
0.00408437
-1.84825e-06
0.00135543
0.00592584
1.15754e-06
-1.48698e-06
-0.00184879
0.00184935
1.77945e-07
-3.92462e-07
-0.00109849
0.00109865
1.64053e-07
-1.08643e-07
-8.82763e-08
3.44379e-08
-0.000264739
0.000264983
8.19376e-09
-0.000264906
7.10443e-08
0.000264876
-7.96794e-08
1.67664e-08
-7.61479e-05
7.61584e-05
-7.60822e-05
7.60495e-05
-5.95285e-06
0.00872482
-1.30504e-05
0.011226
-2.40413e-05
0.0132805
-4.21754e-05
0.0147499
-6.09687e-05
0.0155319
-7.57244e-05
0.0155781
-7.95915e-05
0.014896
-7.32304e-05
0.0135543
-5.87332e-05
0.0116625
-4.11323e-05
0.00935935
-2.29177e-05
0.006791
-8.79122e-06
0.00409131
-1.91843e-06
0.00135735
0.0059201
9.67274e-07
-1.1835e-06
-0.00184808
0.00184901
2.23229e-07
-2.14316e-07
-0.00109833
0.00109838
1.62393e-07
-4.37065e-08
-2.04264e-08
-4.47911e-08
-0.000264819
0.000264981
2.0331e-09
-0.000264996
6.83417e-08
0.000264975
-8.05471e-08
1.40093e-08
-7.61666e-05
7.61748e-05
-7.60955e-05
7.60788e-05
-4.13251e-06
0.0087159
-1.27709e-05
0.0112147
-2.85212e-05
0.0132668
-4.73956e-05
0.0147363
-7.09471e-05
0.0155272
-8.95949e-05
0.0155881
-9.74965e-05
0.0149203
-8.69736e-05
0.0135825
-6.64778e-05
0.0116879
-4.34308e-05
0.00937986
-2.2417e-05
0.00680463
-9.49093e-06
0.00409888
-2.49932e-06
0.00135985
0.0059158
8.21156e-07
-6.501e-07
-0.00184802
0.00184875
2.32183e-07
-1.86679e-07
-0.00109823
0.00109832
1.66139e-07
-3.18302e-08
-1.8947e-08
-3.88745e-08
-0.000264847
0.000265004
5.43849e-09
-0.000264987
9.71426e-08
0.000265041
-8.02089e-08
8.47854e-09
-7.61766e-05
7.61786e-05
-7.61082e-05
7.60942e-05
-4.69884e-06
0.00870783
-1.51559e-05
0.0112013
-3.49673e-05
0.0132544
-6.50624e-05
0.0147304
-9.43204e-05
0.0155319
-0.000113144
0.0156037
-0.000113322
0.0149466
-9.73976e-05
0.0136134
-7.14742e-05
0.0117159
-4.46579e-05
0.0094021
-2.27603e-05
0.00681789
-7.73337e-06
0.00410412
-7.22913e-07
0.00136058
0.00591101
4.37719e-07
-3.43884e-07
-0.00184809
0.00184864
2.67006e-07
9.70562e-09
-0.00109819
0.00109828
1.6483e-07
-2.26424e-08
-1.1705e-08
-4.90696e-08
-0.000264916
0.000265076
6.0125e-09
-0.000265013
6.54249e-08
0.000265068
-8.3664e-08
1.62182e-08
-7.6204e-05
7.62095e-05
-7.61069e-05
7.60984e-05
-4.75094e-06
0.00869742
-2.03936e-05
0.0111868
-4.75278e-05
0.0132369
-8.48672e-05
0.014721
-0.000118824
0.0155376
-0.00013693
0.0156273
-0.00013022
0.0149795
-0.000106871
0.0136488
-7.51187e-05
0.0117464
-4.20563e-05
0.0094214
-2.1349e-05
0.00683151
-6.71088e-06
0.00411011
-6.53853e-07
0.00136123
0.00590683
-7.53781e-07
1.78607e-07
-0.00184824
0.00184855
1.35421e-07
5.70749e-08
-0.00109834
0.00109845
1.68605e-07
-1.67795e-08
-7.00243e-09
-3.89169e-08
-0.000264986
0.000265157
-6.56301e-09
-0.000264995
-1.34949e-08
0.000265152
-8.81145e-08
1.08646e-07
-7.62074e-05
7.62135e-05
-7.6142e-05
7.61258e-05
-7.57308e-06
0.0086846
-2.78361e-05
0.0111671
-6.50208e-05
0.013217
-0.000113897
0.014716
-0.000151644
0.0155523
-0.000163829
0.0156609
-0.000145141
0.0150177
-0.000111157
0.0136849
-7.23231e-05
0.0117767
-4.11331e-05
0.00944118
-1.74413e-05
0.00684224
-6.20469e-06
0.00411566
-4.03013e-07
0.00136163
0.00589925
-1.04628e-06
1.05639e-06
-0.00184863
0.00184773
1.43318e-07
9.62119e-08
-0.00109854
0.00109852
1.70487e-07
-1.32729e-08
3.18257e-09
-3.29679e-08
-0.00026504
0.000265215
-5.53079e-09
-0.000265046
-1.16002e-08
0.000265197
-4.6583e-08
1.12007e-07
-7.62205e-05
7.62139e-05
-7.6234e-05
7.61253e-05
-1.12263e-05
0.00866799
-4.06966e-05
0.0111427
-9.54737e-05
0.0131986
-0.000152006
0.0147164
-0.000189417
0.0155779
-0.000186096
0.0157019
-0.000155237
0.0150618
-0.000110471
0.013723
-6.8251e-05
0.0118038
-3.64207e-05
0.00946016
-1.59798e-05
0.00685202
-2.99331e-06
0.00411825
-1.8193e-07
0.00136181
0.00588864
-2.01158e-06
1.39241e-06
-0.00184862
0.00184776
-1.92736e-07
1.69739e-07
-0.00109863
0.00109863
1.65502e-07
-2.03786e-08
3.48957e-09
-2.38741e-08
-0.000265148
0.000265324
-5.43359e-09
-0.000265151
-1.01427e-08
0.000265297
-7.90409e-08
1.12808e-07
-7.62678e-05
7.62622e-05
-7.62794e-05
7.61673e-05
-1.83662e-05
0.00864566
-6.47904e-05
0.0111121
-0.000135845
0.0131825
-0.000199929
0.0147269
-0.000223105
0.0156149
-0.000197944
0.0157446
-0.000153903
0.0151052
-0.000102706
0.0137575
-6.107e-05
0.0118284
-3.09814e-05
0.00947517
-1.06933e-05
0.00685972
-2.73761e-06
0.0041208
1.91578e-07
0.00136162
0.00587283
-3.4589e-06
9.06685e-07
-0.00184869
0.0018471
-4.13726e-07
4.63778e-07
-0.00109883
0.00109846
1.79146e-07
2.55857e-09
-6.98856e-10
-3.01033e-08
-0.000265225
0.000265399
-8.37343e-09
-0.000265267
2.21404e-08
0.000265371
-4.37115e-08
7.9835e-08
-7.62858e-05
7.62804e-05
-7.6296e-05
7.61832e-05
-3.09297e-05
0.0086118
-0.00010112
0.0110773
-0.000192293
0.0131748
-0.000249594
0.0147534
-0.000241842
0.0156588
-0.000200456
0.0157911
-0.000142943
0.0151455
-9.28716e-05
0.0137893
-5.18847e-05
0.0118493
-2.28698e-05
0.00948734
-6.49019e-06
0.00686347
7.62054e-07
0.00412023
1.74603e-06
0.00135988
0.00584617
-5.90831e-06
1.6322e-06
-0.00184746
0.00184465
-6.45088e-07
5.42127e-07
-0.00109892
0.00109839
1.08361e-07
6.74993e-09
1.79952e-08
-1.21424e-08
-0.000265354
0.00026553
2.49772e-09
-0.000265361
9.39227e-09
0.000265482
-8.40945e-08
9.13802e-08
-7.63387e-05
7.63303e-05
-7.63165e-05
7.62367e-05
-5.55605e-05
0.00856624
-0.000161686
0.0110467
-0.000260729
0.013186
-0.00028197
0.0147935
-0.000245468
0.0157038
-0.000185765
0.015834
-0.000126794
0.0151794
-7.73025e-05
0.0138147
-4.13252e-05
0.0118678
-1.56981e-05
0.00949655
-3.04184e-06
0.00686727
1.66399e-06
0.00412031
2.07796e-06
0.0013578
0.00580289
-1.20825e-05
-1.92423e-07
-0.00184632
0.00184136
-9.52374e-07
-4.2829e-08
-0.0010989
0.00109812
5.01489e-08
8.07236e-08
9.36802e-08
-6.35819e-08
-0.000265512
0.000265622
-1.67757e-09
-0.000265517
1.18202e-08
0.000265626
-7.78472e-08
9.67068e-08
-7.6347e-05
7.63495e-05
-7.63376e-05
7.62462e-05
-0.000104636
0.00850919
-0.000243832
0.0110298
-0.000311611
0.0132156
-0.000288634
0.0148367
-0.000225544
0.0157436
-0.000159142
0.0158663
-0.00010394
0.015206
-6.16519e-05
0.013835
-2.87202e-05
0.0118808
-9.3468e-06
0.00950286
1.01937e-06
0.00686792
5.28021e-06
0.00411711
2.47583e-06
0.00135532
0.0057313
-2.78235e-05
-5.22846e-06
-0.00184198
0.00183279
-2.88642e-06
-8.11257e-07
-0.00109803
0.00109698
-4.96683e-10
9.8932e-08
1.77373e-07
-1.26587e-07
-0.000265664
0.000265708
5.55415e-09
-0.000265629
4.55443e-08
0.000265761
-4.53482e-08
6.91052e-08
-7.63802e-05
7.63785e-05
-7.63683e-05
7.62716e-05
-0.000192834
0.0084582
-0.000330088
0.0110483
-0.000323429
0.0132504
-0.000256207
0.0148674
-0.000189149
0.0157736
-0.000131006
0.0158934
-8.24894e-05
0.0152269
-4.38205e-05
0.0138501
-1.84513e-05
0.0118899
-2.33338e-06
0.00950621
3.68644e-06
0.00686951
7.33027e-06
0.00411226
2.85646e-06
0.00135247
0.0056358
-7.17787e-05
-2.55494e-05
-0.00183086
0.00181181
-8.76975e-06
-3.30172e-06
-0.00109615
0.00109348
-3.13858e-07
9.77516e-08
1.92654e-07
-1.70986e-07
-0.000265813
0.000265842
-2.99183e-08
-0.000265729
1.52747e-08
0.000265959
-7.28388e-08
1.02725e-07
-7.64478e-05
7.64533e-05
-7.64022e-05
7.63331e-05
-0.000324136
0.00845224
-0.000350061
0.0110749
-0.000276365
0.0132705
-0.00020763
0.0148858
-0.000147724
0.0157903
-9.91721e-05
0.0159101
-5.8824e-05
0.0152419
-2.92756e-05
0.0138609
-8.53487e-06
0.0118961
4.01877e-06
0.00950588
1.08558e-05
0.00686599
7.65535e-06
0.00410746
3.33117e-06
0.00134914
0.0055828
-0.00017539
-9.57533e-05
-0.00180035
0.00175968
-3.11099e-05
-1.4094e-05
-0.00109022
0.0010821
-8.07449e-07
1.58556e-07
4.47026e-07
-4.91801e-07
-0.00026586
0.000265581
-3.44227e-08
-0.000265814
5.17134e-08
0.000266063
-2.77752e-08
7.79054e-08
-7.64985e-05
7.64686e-05
-7.64832e-05
7.63805e-05
-0.00036363
0.00846581
-0.000276089
0.0110747
-0.000206737
0.0132697
-0.000154489
0.0148926
-0.000108721
0.0157998
-7.04679e-05
0.0159217
-3.9445e-05
0.015252
-1.38474e-05
0.0138662
2.87682e-06
0.0118972
1.15318e-05
0.0095052
1.19931e-05
0.00686165
9.21658e-06
0.00410157
3.86909e-06
0.00134527
0.00557638
-0.000161094
-0.000196107
-0.00172346
0.00167473
-0.000126657
-5.95315e-05
-0.0010693
0.00104205
-3.59856e-06
-2.55433e-07
1.39701e-07
-1.44073e-06
-0.000265639
0.000264908
-7.69258e-08
-0.000265505
2.4938e-08
0.000266075
-4.71821e-08
7.8017e-08
-7.65704e-05
7.6536e-05
-7.65187e-05
7.64408e-05
-0.000240145
0.00842987
-0.000179496
0.0110474
-0.000139645
0.0132548
-0.000104012
0.0148879
-7.43274e-05
0.0158037
-4.69295e-05
0.0159292
-2.07023e-05
0.0152589
-3.63586e-06
0.0138728
1.08624e-05
0.0118979
1.54071e-05
0.00950179
1.95322e-05
0.00685133
1.07555e-05
0.00409469
4.59904e-06
0.00134067
0.00548588
-4.27614e-05
-0.000106888
-0.00164737
0.00161354
-0.000127264
-0.000168748
-0.000995196
0.000919967
-3.71087e-05
-1.43195e-05
-2.104e-06
-1.05748e-05
-0.000263549
0.000260475
-5.24382e-07
-0.000263735
-6.98494e-08
0.000265149
-1.01422e-07
-2.65996e-08
-7.65918e-05
7.65148e-05
-7.65668e-05
7.64888e-05
-0.000121459
0.00837183
-0.000106842
0.0110146
-8.9866e-05
0.0132407
-6.96903e-05
0.0148833
-4.87053e-05
0.0158055
-2.49334e-05
0.0159334
-6.05911e-06
0.0152613
8.33437e-06
0.0138753
1.815e-05
0.0118952
2.16364e-05
0.00949968
1.75225e-05
0.00684457
1.52026e-05
0.00408408
6.31754e-06
0.00133435
0.0054015
-5.3072e-06
-3.17718e-05
-0.00156155
0.0015389
-2.0115e-05
-5.48956e-05
-0.000874443
0.000810826
-1.86687e-05
-4.49786e-05
-5.95316e-05
-6.36923e-05
-0.000239638
0.000212507
-9.97792e-06
-0.000250104
-3.85304e-06
0.000258977
-6.05217e-07
-1.70243e-06
-7.6317e-05
7.57926e-05
-7.63868e-05
7.64134e-05
-5.70661e-05
0.00832206
-5.96356e-05
0.0109844
-5.33106e-05
0.0132243
-4.12286e-05
0.0148758
-2.33704e-05
0.0158039
-7.19224e-06
0.0159346
6.00492e-06
0.0152637
2.06503e-05
0.0138728
2.58054e-05
0.011891
2.83069e-05
0.0094889
2.55828e-05
0.00683419
1.53555e-05
0.00407505
5.77466e-06
0.00132858
0.00535373
1.7656e-06
-1.10567e-05
-0.00151562
0.00151291
-2.59916e-06
-8.48672e-06
-0.000763542
0.000744208
9.83763e-08
-8.79315e-07
-6.36618e-06
-1.24471e-06
-0.000103958
8.52898e-05
-0.000148937
0.000175068
-2.20925e-05
-3.75615e-05
-6.96319e-05
5.9654e-05
-7.34849e-05
7.51874e-05
-2.7053e-05
0.00828947
-3.25142e-05
0.0109636
-2.85082e-05
0.0132116
-1.94481e-05
0.0148719
-9.0274e-06
0.0158058
4.35044e-06
0.0159362
1.70396e-05
0.0152673
2.73964e-05
0.0138712
3.1592e-05
0.0118877
3.28201e-05
0.00948166
2.79926e-05
0.00682155
1.91265e-05
0.00406169
6.59439e-06
0.00132198
0.00532854
3.15033e-06
-5.01222e-06
-0.00150322
0.00150488
1.00935e-07
-1.36581e-06
-0.00073577
0.000733109
1.46172e-07
-8.4151e-08
-1.94921e-07
1.45566e-07
-7.67996e-05
7.68979e-05
-7.76789e-05
7.89236e-05
3.75615e-05
-1.1343e-05
0.0082683
-1.39109e-05
0.010949
-1.22564e-05
0.0132044
-4.10515e-06
0.0148669
6.69201e-06
0.0158034
1.83003e-05
0.015935
2.92731e-05
0.0152654
3.54264e-05
0.0138674
3.98322e-05
0.0118807
4.12564e-05
0.0094684
3.18533e-05
0.00680882
2.15177e-05
0.00404677
8.5139e-06
0.00131347
0.00531711
2.89801e-06
-2.81451e-06
-0.0015
0.00150273
4.27265e-07
-1.34297e-07
-0.000731636
0.000731672
9.54572e-08
-3.05826e-08
-1.84733e-08
1.25671e-07
-7.67644e-05
7.69106e-05
-7.68486e-05
7.6703e-05
-3.3833e-06
0.00825777
-3.27444e-06
0.01094
9.75345e-07
0.0131993
8.65413e-06
0.014865
1.92165e-05
0.0158025
2.84516e-05
0.0159358
3.85221e-05
0.0152623
4.40904e-05
0.0138631
4.85162e-05
0.0118734
4.35796e-05
0.00945667
3.72748e-05
0.00679306
2.15815e-05
0.0040337
8.06749e-06
0.0013054
0.0053122
2.72475e-06
-1.19742e-06
-0.0014998
0.00150217
5.26135e-07
1.12183e-07
-0.000731478
0.000731862
6.37785e-08
-1.97404e-08
-3.06538e-08
9.01238e-08
-7.69872e-05
7.70827e-05
-7.70178e-05
7.68921e-05
1.84236e-06
0.00825266
3.79987e-06
0.0109372
9.43211e-06
0.0131985
1.67769e-05
0.0148674
2.67867e-05
0.0158042
3.84583e-05
0.0159358
4.56759e-05
0.0152607
5.40584e-05
0.0138576
5.55837e-05
0.0118614
4.96679e-05
0.00944428
4.08107e-05
0.00677383
2.43781e-05
0.00401739
8.96878e-06
0.00129643
0.00531124
3.06948e-06
-2.67204e-07
-0.00150065
0.00150279
5.84229e-07
3.28075e-07
-0.000731895
0.000732396
5.28042e-08
-2.77831e-08
-4.25414e-09
8.2747e-08
-7.71224e-05
7.71862e-05
-7.71422e-05
7.70521e-05
4.29149e-06
0.00825217
9.07972e-06
0.0109375
1.69076e-05
0.0131984
2.62651e-05
0.0148679
3.6184e-05
0.0158064
4.69671e-05
0.0159345
5.62898e-05
0.0152585
6.08476e-05
0.0138523
5.76799e-05
0.0118534
5.50798e-05
0.00943001
4.2498e-05
0.00675571
2.98993e-05
0.00399646
9.37266e-06
0.00128706
0.00531267
2.96207e-06
-1.04974e-07
-0.00150209
0.00150457
5.97478e-07
4.2467e-07
-0.000732647
0.00073312
3.30814e-08
7.76259e-08
2.82843e-08
4.95051e-08
-7.72369e-05
7.72897e-05
-7.72647e-05
7.7182e-05
7.49625e-06
0.00825375
1.43754e-05
0.0109401
2.25237e-05
0.0132021
3.38805e-05
0.0148702
4.6109e-05
0.0158073
5.55234e-05
0.0159353
6.36393e-05
0.0152557
6.92761e-05
0.0138407
7.2067e-05
0.0118364
6.28105e-05
0.0094097
5.28483e-05
0.00673277
3.05322e-05
0.0039753
9.94828e-06
0.00127711
0.00531685
2.50678e-06
8.15591e-07
-0.00150402
0.00150636
6.24569e-07
4.37079e-07
-0.000733459
0.000734037
2.04119e-08
-1.01123e-09
3.12937e-08
5.50749e-08
-7.74451e-05
7.74782e-05
-7.73675e-05
7.7318e-05
8.98969e-06
0.00825913
1.70596e-05
0.0109455
2.7454e-05
0.0132086
4.08417e-05
0.0148755
5.21974e-05
0.0158106
6.49144e-05
0.015934
7.52757e-05
0.0152497
7.9188e-05
0.0138336
8.15466e-05
0.0118177
7.24176e-05
0.00939013
5.44198e-05
0.00670888
3.43073e-05
0.00395094
1.34239e-05
0.00126369
0.00532216
2.57733e-06
1.09555e-06
-0.00150656
0.0015084
6.72425e-07
6.15511e-07
-0.000734423
0.000734994
2.43922e-08
2.92641e-08
7.25834e-09
4.29364e-08
-7.75636e-05
7.7584e-05
-7.75646e-05
7.75095e-05
1.04208e-05
0.00826577
2.10173e-05
0.010952
3.35168e-05
0.0132159
4.67133e-05
0.014881
6.0978e-05
0.0158146
7.44655e-05
0.0159348
8.31674e-05
0.0152457
8.7533e-05
0.0138276
8.46904e-05
0.0118054
8.01269e-05
0.00936442
6.13527e-05
0.00668183
3.77375e-05
0.00392663
2.76731e-05
0.00123601
0.005329
2.32389e-06
1.25812e-06
-0.00150883
0.00151047
9.39523e-07
6.61345e-07
-0.000735519
0.000736158
2.79046e-08
5.05088e-09
3.33532e-08
5.77309e-08
-7.76635e-05
7.76878e-05
-7.76342e-05
7.75913e-05
1.15352e-05
0.00827526
2.49217e-05
0.0109606
4.13333e-05
0.0132213
5.5514e-05
0.0148865
7.18157e-05
0.0158172
8.23595e-05
0.0159357
9.28068e-05
0.0152404
9.78189e-05
0.0138145
9.62121e-05
0.0117894
8.59771e-05
0.00933979
6.79883e-05
0.00665158
5.82297e-05
0.00389607
5.46347e-05
0.00533779
1.60993e-06
1.13482e-06
-0.00151097
0.00151275
5.49869e-07
7.5438e-07
-0.000736726
0.000737554
1.05721e-07
5.93674e-09
3.47792e-08
5.90607e-08
-7.7784e-05
7.78119e-05
-7.77789e-05
7.77212e-05
1.30455e-05
0.00828713
2.79784e-05
0.0109739
4.50534e-05
0.0132317
6.32837e-05
0.014895
7.91437e-05
0.0158204
9.39688e-05
0.0159345
0.000102997
0.0152353
0.000106545
0.0138041
0.000103923
0.0117714
9.13753e-05
0.00931641
8.77021e-05
0.00662211
9.95624e-05
0.00534894
1.13795e-06
7.59824e-07
-0.00151358
0.0015154
-2.05838e-07
3.00876e-07
-0.000738205
0.000738697
3.10426e-08
2.65833e-08
7.18724e-08
3.15332e-08
-7.79117e-05
7.80174e-05
-7.79057e-05
7.78467e-05
1.71687e-05
0.00829794
3.3857e-05
0.0109851
5.11897e-05
0.0132438
6.95184e-05
0.0149046
8.68747e-05
0.0158275
0.000102839
0.0159347
0.000112464
0.0152293
0.000119759
0.0137883
0.00011676
0.011746
0.000114001
0.00929011
0.000129522
0.00535951
5.12792e-06
1.47476e-06
-0.0015175
0.00152058
-1.93885e-06
-1.34293e-06
-0.000738933
0.000738778
-1.02055e-09
-5.01197e-08
1.58103e-08
4.90463e-08
-7.81474e-05
7.81784e-05
-7.81208e-05
7.80893e-05
2.07968e-05
0.008311
3.69506e-05
0.0109994
5.79644e-05
0.0132554
7.84947e-05
0.014913
9.82367e-05
0.0158321
0.000110924
0.0159362
0.000123013
0.0152261
0.000128286
0.0137768
0.000133846
0.0117262
0.000151094
0.00536977
5.21933e-06
5.31717e-06
-0.00151858
0.00152288
1.2294e-06
-4.05822e-07
-1.73702e-06
5.20933e-06
-0.00073739
0.000436172
0.000299505
-2.21035e-07
-4.6855e-09
2.3112e-08
2.21364e-08
-7.81931e-05
7.81921e-05
-7.82433e-05
7.81942e-05
2.23511e-05
0.0083256
4.2347e-05
0.011015
6.31474e-05
0.0132707
8.67693e-05
0.0149245
0.000104589
0.0158385
0.000121367
0.0159378
0.000130233
0.0152241
0.000143092
0.0137675
0.000159757
0.00538303
4.47847e-06
4.60646e-06
-0.00152514
0.00152761
1.50589e-06
1.23838e-06
1.82102e-06
1.23898e-06
-0.000464866
0.000467022
-9.26504e-07
-0.0004622
-3.07181e-06
-0.000457119
-6.81785e-06
-1.57379e-05
0.000280924
2.84296e-06
-7.82327e-05
7.80116e-05
-7.82374e-05
7.82152e-05
2.42424e-05
0.00834371
4.66393e-05
0.0110315
7.13337e-05
0.0132861
9.45476e-05
0.0149345
0.000113634
0.0158462
0.000129982
0.0159381
0.00014616
0.0152211
0.000164478
0.00539791
4.52656e-06
4.83667e-06
-0.00152992
0.00153256
1.07576e-06
7.65675e-07
1.28398e-06
1.01844e-06
-0.000469849
0.000470542
8.13119e-07
-0.000469253
6.42379e-07
-0.000467958
5.25496e-07
3.031e-07
-0.000272971
0.000272561
-5.15853e-07
-0.000274995
-1.04799e-06
-8.89225e-07
8.08546e-05
2.76508e-05
0.00836269
5.13817e-05
0.0110514
7.90889e-05
0.0133016
0.000100784
0.0149474
0.000120514
0.0158557
0.00013876
0.0159455
0.000157878
0.00541541
4.9563e-06
5.20016e-06
-0.00153561
0.00153827
8.19795e-07
1.05573e-06
9.99863e-07
7.7802e-07
-0.000472183
0.000472692
5.66825e-07
-0.000471829
4.11811e-07
-0.000470964
4.18755e-07
5.96459e-07
-0.000273766
0.000274433
1.46257e-07
-0.000273285
1.61075e-07
-0.000272864
1.0474e-07
-5.44286e-10
-7.89174e-05
7.84015e-05
-7.99654e-05
3.04757e-05
0.0083836
5.78965e-05
0.0110726
8.42923e-05
0.0133181
0.00010663
0.0149612
0.000127131
0.0158673
0.000141145
0.00543462
5.3687e-06
5.88959e-06
-0.00154162
0.00154466
7.92508e-07
1.11886e-06
8.04104e-07
1.04304e-06
-0.000474272
0.00047472
3.71523e-07
-0.000473592
3.75911e-07
-0.000473054
4.61788e-07
4.15876e-07
-0.000275443
0.000275911
9.9013e-08
-0.000275129
9.77248e-08
-0.000274845
1.34351e-07
1.84858e-07
-7.86668e-05
7.88131e-05
-7.85057e-05
-7.8401e-05
3.50042e-05
0.00840649
6.45696e-05
0.0110924
9.01092e-05
0.0133346
0.000110083
0.0149783
0.000117417
0.0054568
6.1926e-06
6.63289e-06
-0.00154842
0.00155169
8.8294e-07
1.2176e-06
8.9816e-07
1.23025e-06
-0.000476392
0.000476782
4.02168e-07
-0.000475606
3.32843e-07
-0.000475184
3.81874e-07
5.7985e-07
-0.000276888
0.000277167
9.21495e-08
-0.000276568
5.62992e-08
-0.000276233
1.26664e-07
9.38566e-08
-7.923e-05
7.9329e-05
-7.91323e-05
-7.89979e-05
4.05519e-05
0.00843051
7.13859e-05
0.0111111
9.09392e-05
0.0133538
9.13273e-05
0.00548223
7.09375e-06
8.02933e-06
-0.00155568
0.00155946
1.28577e-06
1.12606e-06
1.28422e-06
1.36418e-06
-0.000478722
0.000478992
6.13062e-07
-0.000477875
3.70754e-07
-0.000477391
4.1425e-07
6.21373e-07
-0.000278148
0.000278449
1.00584e-07
-0.000277911
9.66181e-08
-0.000277622
9.27362e-08
1.24865e-07
-7.96058e-05
7.9698e-05
-7.95495e-05
-7.94228e-05
4.92618e-05
0.00845263
7.24614e-05
0.0111296
6.4678e-05
0.00551079
1.02259e-05
1.04776e-05
-0.00156471
0.00156889
1.49161e-06
1.42089e-06
1.46819e-06
1.30656e-06
-0.000481288
0.000481892
6.81405e-07
-0.000480651
4.88746e-07
-0.000479841
4.74017e-07
5.15357e-07
-0.00027947
0.000279972
1.11449e-07
-0.000279182
8.21737e-08
-0.000278975
2.07346e-07
9.56431e-08
-8.00122e-05
8.01127e-05
-7.99155e-05
-7.98228e-05
5.39526e-05
0.00847114
4.20205e-05
0.0055344
1.57843e-05
1.45535e-05
-0.00157569
0.00158138
2.36334e-06
2.165e-06
1.95632e-06
1.72922e-06
-0.000484426
0.000485078
8.40278e-07
-0.000483521
5.15851e-07
-0.000482614
5.60476e-07
5.85262e-07
-0.000281073
0.000281676
7.86309e-08
-0.000280702
1.17369e-07
-0.000280344
1.16153e-07
1.43691e-07
-8.04979e-05
8.06093e-05
-8.04157e-05
-8.02084e-05
2.79927e-05
1.23003e-05
3.11082e-05
-0.0015898
0.0015968
4.96696e-06
3.81895e-06
3.36735e-06
2.76953e-06
-0.000488509
0.000489555
1.31727e-06
-0.0004873
9.56163e-07
-0.000486087
7.43624e-07
7.1972e-07
-0.000282912
0.000283609
1.433e-07
-0.000282534
1.37932e-07
-0.000282109
1.34554e-07
1.52403e-07
-8.09865e-05
8.10652e-05
-8.08692e-05
-8.0753e-05
-0.00160907
7.82873e-06
1.6107e-05
1.07838e-05
8.05551e-06
-0.000494694
0.000496835
2.82595e-06
-0.000492681
1.80585e-06
-0.000490917
1.60339e-06
1.40738e-06
-0.00028545
0.000286476
2.91272e-07
-0.000284711
2.17155e-07
-0.000284143
1.75204e-07
1.86402e-07
-8.149e-05
8.16333e-05
-8.13521e-05
-8.12176e-05
-0.000507646
1.12549e-05
-0.000503255
1.17157e-05
-0.000499969
7.49772e-06
4.92183e-06
-0.000290074
0.000292171
7.28997e-07
-0.000288752
4.83033e-07
-0.000287533
3.84345e-07
3.50812e-07
-8.22121e-05
8.25033e-05
-8.19949e-05
-8.18197e-05
-0.000303988
1.53238e-05
-0.000299727
7.45446e-06
-0.000295614
3.38504e-06
1.47883e-06
-8.37215e-05
8.44505e-05
-8.32385e-05
-8.28542e-05
-9.67688e-05
-8.93144e-05
-8.59293e-05
3.3027e-06
-3.30283e-06
1.25063e-05
3.78284e-06
-1.29868e-05
1.92726e-06
-5.23018e-06
9.09006e-06
3.41599e-06
2.02764e-05
4.47225e-06
-2.09663e-05
3.95204e-06
-1.50119e-05
9.86259e-07
-6.21659e-06
1.70644e-06
7.38354e-06
1.95197e-05
4.17238e-06
-4.43967e-06
4.79731e-05
7.5997e-06
-4.66631e-05
-2.14541e-05
2.72526e-06
-1.67512e-05
5.21147e-07
-6.73784e-06
2.70088e-06
1.8525e-05
6.48079e-07
6.73535e-06
7.39285e-06
4.74526e-05
-7.84963e-06
-3.72579e-05
1.79555e-05
3.47458e-05
-4.01336e-06
-4.78278e-05
-2.67229e-06
-2.27423e-05
1.78025e-06
-1.80106e-05
2.23492e-07
-6.96145e-06
1.70492e-06
1.74679e-05
2.12286e-07
6.52293e-06
-5.79657e-06
-4.36519e-05
1.95785e-05
-8.74933e-07
4.42352e-05
-0.000641405
3.6957e-05
0.000622396
-8.11852e-06
2.94461e-05
2.0885e-05
-7.47279e-06
-5.19832e-05
-2.30789e-06
-1.65621e-06