/*--------------------------------*- C++ -*----------------------------------*\
| =========                 |                                                 |
| \\      /  F ield         | OpenFOAM: The Open Source CFD Toolbox           |
|  \\    /   O peration     | Version:  v1912                                 |
|   \\  /    A nd           | Website:  www.openfoam.com                      |
|    \\/     M anipulation  |                                                 |
\*---------------------------------------------------------------------------*/
FoamFile
{
    version     2.0;
    format      ascii;
    class       volScalarField;
    location    "300";
    object      p;
}
// * * * * * * * * * * * * * * * * * * * * * * * * * * * * * * * * * * * * * //

dimensions      [0 2 -2 0 0 0 0];


internalField   nonuniform List<scalar> 
3673
(
0.00167123
0.00191604
0.00151844
0.00216045
0.00175355
0.00137372
0.00237359
0.00199084
0.00160323
0.00124102
0.00256277
0.00220135
0.00183276
0.00146431
0.00112136
0.00271721
0.0023914
0.00203752
0.00169285
0.00134036
0.00100622
0.00282531
0.00254666
0.00222632
0.00189614
0.00156127
0.0012198
0.000901834
0.00287216
0.00265621
0.00238473
0.00207791
0.00175565
0.00143389
0.00111054
0.000806042
0.00285049
0.00270898
0.00250014
0.00223354
0.00193628
0.00162704
0.00132194
0.00101152
0.000714967
0.00276314
0.00269948
0.00256617
0.00235535
0.00209118
0.00180419
0.00151062
0.00121665
0.000913882
0.000635596
0.00262031
0.00262014
0.00257639
0.00243111
0.0022082
0.00195387
0.00168125
0.00140025
0.00111757
0.000830656
0.000560407
0.00244156
0.00247122
0.00252726
0.00245921
0.00228504
0.00206924
0.00182659
0.00156854
0.00129874
0.001028
0.000751333
0.000492949
0.00227847
0.00224423
0.00242597
0.00244509
0.00231835
0.00213949
0.00193465
0.00170645
0.00145915
0.00120066
0.000945767
0.000678862
0.000425892
0.00220495
0.00194846
0.0022691
0.0023952
0.00230723
0.00216081
0.00199876
0.0018086
0.0015954
0.00136063
0.00111912
0.000868687
0.00061063
0.000370144
0.00167949
0.00196999
0.00222642
0.00201605
0.00232816
0.00225681
0.0021355
0.00201344
0.00186784
0.00169713
0.00149313
0.00127157
0.00103348
0.000795509
0.000550637
0.000319407
0.00168457
0.00138225
0.00184575
0.00198556
0.00210714
0.00223896
0.0022396
0.00217222
0.00206125
0.00197692
0.00187773
0.00175109
0.00158541
0.00139474
0.00118223
0.000959174
0.000731488
0.000494546
0.000275994
0.00207524
0.00183611
0.00139045
0.00131236
0.00189279
0.00181396
0.00196207
0.00205629
0.00216794
0.00192718
0.00206558
0.00194318
0.00189401
0.001838
0.00175566
0.00163514
0.00148444
0.00130486
0.00110508
0.000890971
0.000673363
0.000448236
0.000237968
0.00190066
0.00181755
0.00187153
0.00180022
0.000938149
0.00113131
0.00181139
0.00192174
0.00173445
0.00178799
0.00186101
0.00203315
0.00197718
0.00215647
0.00188749
0.00179506
0.00177212
0.00175457
0.00171132
0.00163715
0.00153047
0.00139139
0.00122192
0.00103076
0.000830062
0.000621972
0.000406225
0.000206096
0.00162996
0.00163717
0.0016474
0.00165198
0.00182435
0.00182708
0.00174874
0.000292492
0.00143111
0.00253616
0.00202339
0.0018071
0.00182378
0.00172659
0.00180075
0.0019963
0.00191256
0.00208807
0.00185528
0.00161682
0.00163286
0.0016238
0.00159098
0.00152775
0.00143317
0.00130216
0.00114456
0.000966086
0.000768951
0.00057689
0.000370841
0.000181682
0.00145161
0.00146038
0.00148378
0.00149993
0.00154328
0.00153958
0.00152228
0.00165007
0.0016497
0.00175359
0.00205786
-0.00102049
0.00286533
0.00226513
0.00167795
0.00169242
0.00172038
0.00196592
0.00203494
0.00148139
0.00150075
0.00150028
0.00147719
0.00142787
0.00134031
0.00121979
0.00107038
0.00089911
0.000724604
0.000537501
0.0003428
0.000161961
0.00131453
0.0013015
0.00133905
0.00135037
0.00140817
0.00141552
0.00142071
0.00146526
0.00146585
0.00147501
0.00149885
0.00159609
0.00154976
-0.00352927
0.00135112
0.00137355
0.00138691
0.00137717
0.00133297
0.00125436
0.00114174
0.00100187
0.000850126
0.000678941
0.000504411
0.000319221
0.000150673
0.00118303
0.00116199
0.00120217
0.00119957
0.00125863
0.00126458
0.0012869
0.00134913
0.00133026
0.00136091
0.00139575
0.00142767
0.00141869
0.00122672
0.00126509
0.00128604
0.00128135
0.00124427
0.00117204
0.0010686
0.00094471
0.000799478
0.000644321
0.000480754
0.000305719
0.000141258
0.0010621
0.00103021
0.00107078
0.00106304
0.00111979
0.00111317
0.0011411
0.00120519
0.00117782
0.0012122
0.0012592
0.00131087
0.00128961
0.00111954
0.00116145
0.00118822
0.00119146
0.00115882
0.00109309
0.00100194
0.000889
0.000760378
0.000613963
0.00046113
0.000294463
0.000144452
0.00095522
0.000907874
0.00095302
0.000933985
0.000985662
0.00097502
0.00100184
0.00106244
0.00103391
0.00106157
0.0011093
0.00116449
0.00113764
0.00101244
0.00106585
0.00109959
0.00110236
0.00107584
0.00101899
0.000938112
0.000840121
0.00072151
0.000589983
0.000447282
0.000290266
0.000149879
0.00085012
0.000801531
0.000842262
0.00081643
0.000864799
0.000846819
0.000872983
0.000928567
0.000901494
0.000923478
0.000965333
0.00101849
0.000995859
0.000918979
0.000977136
0.00101154
0.00102227
0.000997555
0.000947878
0.000881243
0.00079773
0.000697335
0.000575217
0.000439757
0.000296127
0.000165164
0.000756732
0.000699044
0.000737949
0.000708856
0.000752812
0.000729556
0.000758114
0.000807059
0.000779458
0.000795981
0.00083593
0.000883855
0.00086368
0.00082884
0.000890421
0.000931825
0.000938152
0.000917576
0.000881636
0.000833296
0.000766674
0.000675958
0.00056499
0.000441539
0.000306371
0.000176382
0.000666941
0.000605573
0.000644134
0.000608254
0.000650176
0.000624091
0.000648369
0.000694027
0.000668065
0.000676507
0.000722766
0.000761014
0.000742277
0.000745628
0.000809665
0.00084624
0.000853673
0.000841039
0.000821037
0.000792605
0.000741838
0.000663268
0.000559587
0.000446036
0.000312327
0.000200116
0.000583528
0.000517169
0.000556499
0.00051634
0.000555641
0.000526178
0.000546229
0.000588475
0.000572113
0.000572155
0.000612997
0.000650527
0.000629276
0.000665539
0.000730209
0.000766158
0.000768617
0.000767742
0.000769933
0.000762468
0.000725365
0.000651941
0.000560527
0.000452612
0.000335938
0.000228191
0.000505494
0.000433732
0.00047564
0.000430304
0.000468204
0.000436549
0.000454431
0.000493242
0.00047785
0.000479738
0.00050612
0.000547165
0.000532823
0.000591989
0.000653652
0.00067323
0.000681251
0.000702147
0.000733597
0.000742225
0.000710957
0.000650119
0.000562542
0.000472818
0.000358907
0.000262777
0.000433804
0.000352057
0.000402877
0.000350522
0.000386879
0.000352478
0.000369548
0.000404183
0.000392237
0.000390999
0.000414781
0.000450774
0.000438839
0.00051687
0.000563082
0.000575655
0.000597374
0.000654244
0.000712529
0.000727712
0.000701278
0.000646771
0.000577178
0.000487754
0.000392557
0.000304423
0.000359638
0.000276064
0.000331585
0.000272654
0.000310585
0.00027489
0.000292333
0.000324013
0.000310153
0.00030706
0.000330474
0.000361645
0.000353767
0.000439272
0.000467434
0.000470753
0.000530358
0.000632156
0.000699192
0.000713865
0.000693154
0.000649185
0.000587292
0.000518171
0.000428022
0.000349708
0.000292854
0.000203087
0.000261707
0.000197498
0.000240712
0.000199647
0.000213363
0.000246594
0.000238143
0.000230406
0.000254333
0.000282767
0.000270928
0.000356016
0.000342734
0.000372536
0.000504467
0.000626498
0.000686571
0.000699411
0.000685145
0.000654447
0.000607993
0.000548923
0.000471706
0.000407624
0.000221386
0.000126913
0.000193535
0.000125884
0.000171089
0.00012761
0.000142866
0.000174234
0.000167544
0.000155129
0.000170036
0.000203197
0.000209249
0.000238853
0.000207509
0.00033131
0.000512259
0.000624768
0.000665452
0.000678484
0.000680591
0.000665362
0.000636054
0.000590069
0.000524576
0.000473933
0.00014071
4.60359e-05
0.000126365
5.59541e-05
0.000100682
5.56975e-05
7.66468e-05
0.000108325
9.47735e-05
8.47247e-05
0.000100654
0.000130952
0.000138484
8.45054e-05
0.000112408
0.000361403
0.000538461
0.00060071
0.000631981
0.000660581
0.000677539
0.00068356
0.000667565
0.000638021
0.000585785
0.000550652
3.57873e-05
-4.33999e-05
6.36201e-05
-2.41569e-05
2.96171e-05
-1.5307e-05
7.55361e-06
3.86096e-05
2.64201e-05
1.33652e-05
3.71448e-05
6.73508e-05
6.42359e-05
-0.000131085
0.000163408
0.000439546
0.000516546
0.000552773
0.000598192
0.000643335
0.000683235
0.000705587
0.000709936
0.000690153
0.000659633
0.000638161
-0.000275531
-0.000139631
-3.40192e-06
-0.000101851
-3.96583e-05
-9.38466e-05
-6.34291e-05
-2.96751e-05
-4.6475e-05
-5.49999e-05
-3.20256e-05
-2.8763e-06
-1.19254e-06
-0.000129082
0.000341565
0.000422513
0.000448429
0.000501075
0.000565594
0.000632438
0.000689767
0.000733129
0.000750805
0.000765006
0.000741606
0.000738105
-0.000498987
-0.000466169
-0.00011642
-0.000163365
-0.000114767
-0.000181555
-0.00013886
-9.83701e-05
-0.000127223
-0.00012941
-0.000100589
-7.15694e-05
-7.31847e-05
0.000248234
0.000331922
0.000329651
0.000379289
0.000452679
0.000536261
0.000622343
0.000701756
0.000765885
0.000816819
0.000834355
0.000838151
0.000851405
0.000121816
-0.000365294
-0.000805872
-0.000195989
-9.61869e-05
-0.000287489
-0.000211575
-0.000180403
-0.000222953
-0.000214771
-0.000178817
-0.000145804
-0.000148109
0.000243929
0.000194269
0.00024008
0.000315427
0.000405628
0.00050885
0.000617188
0.000721779
0.000813027
0.000876155
0.000930428
0.000942039
0.000972289
0.000108855
-3.54077e-05
-1.70478e-05
-0.000468966
-0.00142211
-6.84651e-06
-8.46322e-05
-0.000207945
-0.00028594
-0.000324975
-0.000271151
-0.000225125
-0.000247982
5.12146e-05
8.92843e-05
0.000166165
0.000255646
0.000362063
0.000482645
0.000614486
0.00074585
0.000861535
0.000961222
0.00102033
0.00106243
0.0011193
-8.95401e-05
-0.000135679
-0.000163422
-0.000177304
-5.50689e-06
-6.02075e-05
0.00055833
0.000372503
-0.00227373
-0.000143535
-0.000281883
-0.000310163
-0.000345736
-6.42054e-05
1.71696e-05
9.98235e-05
0.000196959
0.00031494
0.000458675
0.000616435
0.000777293
0.000924589
0.00104349
0.00113996
0.00120059
0.00127933
-0.000200561
-0.000218316
-0.000226
-0.000251213
-0.000256175
-0.000288663
-0.00032697
-0.000167593
-0.000206817
8.21508e-05
-0.00449508
-0.000130579
-5.33089e-05
2.8274e-05
0.000133812
0.000270892
0.000437631
0.000625128
0.000817345
0.000997678
0.00114526
0.00126968
0.00135321
0.00145429
-0.000268905
-0.000296174
-0.000291746
-0.000302963
-0.000280084
-0.000297264
-0.000310955
-0.000316707
-0.000297749
-0.000198644
-0.000129837
-4.32188e-05
7.39983e-05
0.000226947
0.000417542
0.000636746
0.000864631
0.00107487
0.00126483
0.00141143
0.00152388
0.00165432
-0.000338536
-0.000369761
-0.000358352
-0.000375612
-0.000345003
-0.000346502
-0.000348391
-0.000316027
-0.00032074
-0.000273897
-0.00020619
-0.000116688
8.26103e-06
0.000180348
0.000400691
0.000655206
0.000918724
0.00117318
0.00139225
0.00157662
0.00171974
0.0018723
-0.000407673
-0.000443669
-0.000423444
-0.000446813
-0.000414158
-0.000428565
-0.000417845
-0.000375098
-0.000390713
-0.000353152
-0.000286798
-0.000194523
-5.99537e-05
0.000135152
0.000388044
0.000679037
0.000986479
0.00128638
0.00153997
0.0017648
0.00192746
0.00210803
-0.000484808
-0.000515607
-0.000490873
-0.000515049
-0.000484631
-0.000498762
-0.000489242
-0.000449184
-0.000463558
-0.000431086
-0.000368905
-0.000277895
-0.000129364
9.12868e-05
0.000377547
0.000713725
0.00107067
0.00140487
0.00171118
0.00195581
0.00216982
0.00236739
-0.000560065
-0.000589949
-0.000564015
-0.000585266
-0.00055047
-0.000571562
-0.000553716
-0.000520112
-0.000534729
-0.000515118
-0.000463353
-0.00036945
-0.000201654
4.6247e-05
0.0003735
0.000755208
0.00115417
0.00154185
0.00188697
0.0021927
0.00243659
0.00268953
-0.000640359
-0.000667933
-0.00063593
-0.00065808
-0.000621445
-0.000637814
-0.000624153
-0.000588609
-0.000602855
-0.000610692
-0.000567205
-0.000465779
-0.000277842
4.81149e-06
0.000373115
0.000802896
0.0012558
0.00170077
0.00209888
0.00245588
0.00275587
0.00303909
-0.000728522
-0.000743269
-0.00071122
-0.000732259
-0.00069444
-0.000709879
-0.000693922
-0.000652054
-0.000671241
-0.000717979
-0.000679347
-0.000562723
-0.000350476
-3.4168e-05
0.000378054
0.000862194
0.00137923
0.00187169
0.00234347
0.00273217
0.00329087
0.00126875
-0.000831177
-0.000825091
-0.000787416
-0.000804588
-0.000768544
-0.000781652
-0.000767322
-0.000729149
-0.000744785
-0.000843655
-0.000800482
-0.000659997
-0.000424286
-7.43209e-05
0.000387965
0.000931946
0.00150425
0.00208366
0.0025608
0.00333799
0.0014799
-0.000958747
-0.000915937
-0.000871732
-0.000881133
-0.000843904
-0.000853125
-0.000839482
-0.000801572
-0.000817563
-0.000987234
-0.00090926
-0.000761101
-0.000505282
-0.000113886
0.000404873
0.00100819
0.00166509
0.00224098
0.00312446
0.00153971
-0.00109998
-0.00111948
-0.000978652
-0.000947111
-0.000915979
-0.000935014
-0.000914547
-0.000877665
-0.000895141
-0.00110312
-0.00101999
-0.000870071
-0.000587546
-0.00014852
0.00042572
0.00111055
0.00176311
0.0027251
0.00139596
-0.00123818
-0.00114495
-0.00143104
-0.000925016
-0.000945741
-0.00101879
-0.000995491
-0.000954574
-0.000975519
-0.00120503
-0.001147
-0.000989125
-0.000670295
-0.000183384
0.000466478
0.00115721
0.00215686
0.00112595
-0.00133375
-0.00131486
-0.00122755
-0.00140859
-0.00156423
-0.00212828
-0.0037271
0.00138459
-0.00114198
-0.00110464
-0.001041
-0.001069
-0.00133744
-0.00129266
-0.0011136
-0.000755502
-0.000205157
0.000463794
0.00144302
0.000771055
-0.00145965
-0.0014217
-0.00136397
-0.00135648
-0.0013585
-0.00134292
-0.00136755
-0.00138354
-0.00136728
-0.000966382
-0.000691426
-0.00149633
-0.00144771
-0.00123961
-0.000835297
-0.00025144
0.000631681
0.000360675
-0.00161683
-0.00155577
-0.00148236
-0.0014562
-0.00143425
-0.00140025
-0.00138051
-0.0013855
-0.00137973
-0.00138029
-0.00137884
-0.00144242
-0.00144925
-0.00128421
-0.00167041
-0.00160833
-0.00137021
-0.000918291
-0.000204087
-6.53145e-05
-0.00179633
-0.00171088
-0.00162594
-0.00159757
-0.00155879
-0.00152184
-0.0014926
-0.00147581
-0.00144678
-0.00142146
-0.00140006
-0.00140351
-0.00139806
-0.00141022
-0.00141837
-0.00185457
-0.00177903
-0.00148274
-0.000987605
-0.000472379
-0.00199197
-0.00188796
-0.00178913
-0.0017518
-0.0017069
-0.00166982
-0.00162622
-0.0016112
-0.00157819
-0.00153863
-0.00150903
-0.00148871
-0.00145588
-0.00143729
-0.00141177
-0.00205837
-0.00191953
-0.00165612
-0.000827345
-0.00222035
-0.00208318
-0.00197226
-0.00192166
-0.00187646
-0.00183194
-0.00178337
-0.00176211
-0.00172293
-0.00168501
-0.00164182
-0.00162237
-0.00158822
-0.00155255
-0.00152013
-0.00223753
-0.00217922
-0.00110857
-0.00245239
-0.0023181
-0.00218476
-0.00211314
-0.00206559
-0.0020143
-0.00196101
-0.00192962
-0.00188763
-0.00184117
-0.00180021
-0.00177053
-0.00173299
-0.00169375
-0.00165443
-0.00257273
-0.00131349
-0.00290488
-0.00254602
-0.00241633
-0.00233973
-0.00228315
-0.00222052
-0.00216383
-0.00211916
-0.00206911
-0.00202143
-0.00197518
-0.00193568
-0.00189852
-0.0018462
-0.00180852
-0.00145359
-0.00167752
-0.00302109
-0.00272442
-0.00257826
-0.00251462
-0.00245874
-0.00239456
-0.00233721
-0.0022815
-0.00222439
-0.00217101
-0.00211788
-0.00207477
-0.00202539
-0.00198037
-0.00159271
-0.00319796
-0.00298316
-0.00287142
-0.00274308
-0.00265164
-0.00257814
-0.0025136
-0.0024552
-0.00239624
-0.00233362
-0.00227998
-0.00222378
-0.00217005
-0.00136689
-0.00330646
-0.0033541
-0.00310386
-0.00295397
-0.00285083
-0.00274547
-0.00265603
-0.00256271
-0.00250389
-0.0024456
-0.00238958
-0.00133973
-0.00363094
-0.0033684
-0.00306977
-0.002936
-0.00282319
-0.00272361
-0.00263535
-0.00164486
-0.00393199
-0.00334764
-0.00305379
-0.0674678
-0.067637
-0.0665902
-0.0681117
-0.0676462
-0.066774
-0.0660224
-0.068772
-0.0682813
-0.0674858
-0.0669372
-0.0661786
-0.0654042
-0.0689424
-0.0694286
-0.0688032
-0.0671596
-0.0661648
-0.0663131
-0.0655382
-0.0647454
-0.0695958
-0.0701062
-0.0698168
-0.0701475
-0.067538
-0.0645847
-0.0648885
-0.0656602
-0.06488
-0.0641314
-0.0702777
-0.070858
-0.0725371
-0.0702047
-0.0715017
-0.0678975
-0.0649712
-0.0620306
-0.0635989
-0.0650193
-0.0643837
-0.0642526
-0.0635089
-0.0709823
-0.0715608
-0.0753112
-0.0729515
-0.0728911
-0.0705642
-0.0716855
-0.0682255
-0.0653182
-0.0624332
-0.0623388
-0.059564
-0.0610946
-0.0637579
-0.0631132
-0.0636467
-0.0628732
-0.0722026
-0.0781671
-0.0757444
-0.0756907
-0.0742736
-0.0733144
-0.0730349
-0.0723522
-0.0708918
-0.0685242
-0.0656339
-0.0627838
-0.0599544
-0.0624753
-0.0618523
-0.0598828
-0.0571601
-0.058635
-0.0612422
-0.0605964
-0.0630038
-0.0622136
-0.0728675
-0.0811204
-0.0786144
-0.0785572
-0.0771105
-0.0761213
-0.0758399
-0.0751427
-0.0744616
-0.0737453
-0.0736379
-0.0711946
-0.0688121
-0.065926
-0.0630977
-0.0603027
-0.057545
-0.0623466
-0.0617266
-0.0599586
-0.059296
-0.0574473
-0.0548224
-0.0562618
-0.0583067
-0.0611238
-0.0604767
-0.0616052
-0.0736215
-0.0841471
-0.0815686
-0.0815021
-0.0800221
-0.0790027
-0.0787149
-0.0780012
-0.0773049
-0.0765708
-0.0764549
-0.0756688
-0.0749905
-0.0743366
-0.0739397
-0.0714866
-0.0690992
-0.0662038
-0.0633857
-0.0606124
-0.0578844
-0.0551943
-0.0598047
-0.0590872
-0.0572045
-0.0551015
-0.0525361
-0.053935
-0.0560427
-0.0579343
-0.0585652
-0.0609896
-0.0603583
-0.0871515
-0.084565
-0.0845356
-0.0829991
-0.0819567
-0.0816678
-0.0809381
-0.0802228
-0.0794694
-0.0793436
-0.0785414
-0.0778471
-0.0771789
-0.076445
-0.0767625
-0.0742371
-0.0717823
-0.0693972
-0.0664813
-0.0636595
-0.0608971
-0.0581852
-0.0555216
-0.0528878
-0.0597177
-0.0591464
-0.0573315
-0.0567442
-0.0548758
-0.0527965
-0.0502861
-0.0516582
-0.0537172
-0.0555863
-0.0561756
-0.0903229
-0.0876015
-0.0875599
-0.0860316
-0.0849535
-0.0846908
-0.0839351
-0.083196
-0.0824345
-0.0822979
-0.081496
-0.0807846
-0.0800981
-0.0793439
-0.0796584
-0.0770619
-0.0745406
-0.0720926
-0.0697112
-0.0667696
-0.0639286
-0.0611678
-0.0584638
-0.0558151
-0.0532098
-0.0506298
-0.0549816
-0.0544063
-0.0525585
-0.0505501
-0.0481049
-0.0494276
-0.0514358
-0.0532684
-0.0538476
-0.0933581
-0.0908173
-0.0907771
-0.089174
-0.0880163
-0.0876555
-0.0869305
-0.0862905
-0.0854568
-0.085304
-0.0844899
-0.0837685
-0.083076
-0.082314
-0.0826131
-0.0799624
-0.077369
-0.0748603
-0.0724214
-0.0700349
-0.0670703
-0.0642063
-0.0614345
-0.05873
-0.0560889
-0.0535035
-0.0509522
-0.0484468
-0.0526681
-0.05209
-0.0503963
-0.0483484
-0.0459431
-0.0472556
-0.0492371
-0.0509212
-0.0515144
-0.0940613
-0.0940573
-0.0923573
-0.0954398
-0.0961529
-0.0912223
-0.0909351
-0.0901597
-0.0894124
-0.0885524
-0.0883831
-0.0860444
-0.0852677
-0.0856279
-0.0829218
-0.080274
-0.0776975
-0.0752002
-0.0727607
-0.0703563
-0.0673769
-0.0644931
-0.0617066
-0.0589952
-0.056352
-0.0537757
-0.0512477
-0.0487633
-0.0462999
-0.050337
-0.0500427
-0.0481214
-0.0461858
-0.0438333
-0.0451247
-0.0470343
-0.0487424
-0.0492825
-0.0974017
-0.0945162
-0.095783
-0.0942484
-0.0934338
-0.0926342
-0.0917811
-0.0977085
-0.0975674
-0.0915746
-0.0887198
-0.0859451
-0.0832418
-0.0806084
-0.078049
-0.0755534
-0.0730988
-0.0706628
-0.0676803
-0.0647851
-0.0619838
-0.0592596
-0.0566115
-0.0540335
-0.0515173
-0.0490531
-0.0466167
-0.0441897
-0.0500015
-0.0482162
-0.0476773
-0.0459726
-0.0440798
-0.0417799
-0.0430415
-0.0449195
-0.0466186
-0.0471584
-0.0486146
-0.0490884
-0.0979053
-0.0948646
-0.0967242
-0.096926
-0.0959787
-0.0951093
-0.0995629
-0.097731
-0.0993201
-0.0919145
-0.0890507
-0.0862797
-0.083586
-0.0809706
-0.078417
-0.0759089
-0.0734225
-0.0709451
-0.0679683
-0.0650723
-0.0622619
-0.0595282
-0.0568704
-0.0542878
-0.0517725
-0.0493185
-0.0469022
-0.0445051
-0.0421296
-0.0480908
-0.0475643
-0.0460797
-0.0455479
-0.0438768
-0.0420218
-0.039775
-0.0410038
-0.0428438
-0.0445045
-0.0450349
-0.0465017
-0.047038
-0.0982585
-0.0952121
-0.0976454
-0.0967958
-0.0986759
-0.099566
-0.0922574
-0.0893991
-0.0866409
-0.0839632
-0.0813537
-0.0787901
-0.076251
-0.0737237
-0.071197
-0.0682323
-0.0653418
-0.0625305
-0.0597945
-0.0571307
-0.0545403
-0.0520223
-0.0495693
-0.047165
-0.0447878
-0.0424399
-0.0401164
-0.0459577
-0.0454321
-0.0439742
-0.0434542
-0.0418218
-0.0400076
-0.0378159
-0.039008
-0.0408087
-0.0424333
-0.0429511
-0.0443853
-0.0449108
-0.0986111
-0.0955598
-0.0985314
-0.0975039
-0.0994134
-0.0926146
-0.0897786
-0.0870351
-0.0843644
-0.0817445
-0.079152
-0.0765712
-0.0739937
-0.0714145
-0.0684663
-0.0655866
-0.0627798
-0.0600488
-0.0573844
-0.0547892
-0.0522652
-0.0498095
-0.0474105
-0.0450477
-0.042718
-0.0404199
-0.0381442
-0.0438515
-0.0433374
-0.0419141
-0.0414057
-0.0398071
-0.0380337
-0.03589
-0.0370513
-0.0388126
-0.0404052
-0.0409121
-0.0423141
-0.0428278
-0.0989653
-0.0959265
-0.0983772
-0.0992427
-0.0930057
-0.0901915
-0.0874552
-0.0847737
-0.0821253
-0.0794913
-0.0768599
-0.0742289
-0.0716015
-0.0686673
-0.0658011
-0.0630037
-0.0602788
-0.057621
-0.0550291
-0.0525038
-0.0500441
-0.0476448
-0.0452906
-0.0429736
-0.0406918
-0.0384393
-0.036203
-0.041792
-0.0412892
-0.0398967
-0.0394
-0.0378296
-0.0360945
-0.0340013
-0.0351379
-0.036852
-0.0384199
-0.0389148
-0.0402872
-0.0407907
-0.0993376
-0.0963295
-0.0934357
-0.0906309
-0.0878859
-0.0851747
-0.0824848
-0.0797986
-0.0771128
-0.0744312
-0.0717554
-0.0688382
-0.0659833
-0.0631974
-0.0604819
-0.0578334
-0.0552507
-0.0527304
-0.0502722
-0.0478729
-0.0455223
-0.0432139
-0.0409433
-0.0387074
-0.0364954
-0.0343075
-0.0397766
-0.0392858
-0.0379211
-0.0374342
-0.0358925
-0.034207
-0.0321516
-0.0332591
-0.0349717
-0.036469
-0.0369553
-0.0383033
-0.0387951
-0.0997477
-0.0967728
-0.0938939
-0.0910813
-0.0883079
-0.0855553
-0.0828122
-0.0800697
-0.0773315
-0.074599
-0.0718864
-0.0689782
-0.0661371
-0.0633598
-0.0606545
-0.0580173
-0.0554446
-0.0529359
-0.0504847
-0.0480886
-0.0457439
-0.0434408
-0.0411791
-0.0389544
-0.0367643
-0.0345991
-0.0324616
-0.037804
-0.0373206
-0.0359706
-0.0354862
-0.0340559
-0.0323431
-0.0303284
-0.031418
-0.0330783
-0.0345751
-0.0350199
-0.036352
-0.0368384
-0.100204
-0.0972473
-0.0943644
-0.0915235
-0.0887083
-0.0859031
-0.0831023
-0.0803058
-0.077514
-0.074741
-0.0720076
-0.0690984
-0.0662625
-0.0634949
-0.0607963
-0.0581694
-0.0556086
-0.053111
-0.0506725
-0.0482873
-0.045952
-0.0436563
-0.041402
-0.0391882
-0.0370123
-0.0348689
-0.0327506
-0.030646
-0.0358486
-0.0353485
-0.034182
-0.0336137
-0.0321425
-0.0305135
-0.028558
-0.0296058
-0.0312221
-0.0326814
-0.0331561
-0.0343305
-0.0348391
-0.100696
-0.0977367
-0.094827
-0.0919437
-0.0890751
-0.0862125
-0.0833564
-0.0805043
-0.0776697
-0.0748722
-0.072138
-0.0692124
-0.0663697
-0.0636027
-0.0609116
-0.0582908
-0.0557405
-0.053255
-0.0508294
-0.0484607
-0.0461391
-0.0438568
-0.0416126
-0.0394096
-0.0372448
-0.035117
-0.0330173
-0.0309357
-0.0288701
-0.0342239
-0.0334198
-0.0322262
-0.0317631
-0.0303194
-0.0287158
-0.0268428
-0.0278079
-0.0294172
-0.0308627
-0.0313225
-0.0325646
-0.0330015
-0.101205
-0.0982194
-0.0952669
-0.0923298
-0.0894029
-0.0864848
-0.0835719
-0.0806746
-0.0778126
-0.0750087
-0.0722975
-0.0693366
-0.0664741
-0.0636945
-0.0610012
-0.0583863
-0.0558417
-0.0533667
-0.0509542
-0.0486004
-0.0462964
-0.0440336
-0.0418067
-0.0396169
-0.0374618
-0.0353459
-0.0332625
-0.0312006
-0.0291557
-0.0271533
-0.0342634
-0.0332888
-0.0321192
-0.0316667
-0.0304101
-0.0299551
-0.0285213
-0.0269057
-0.0251271
-0.0258976
-0.0276236
-0.0290623
-0.0295164
-0.0307672
-0.031222
-0.0324602
-0.0328872
-0.101708
-0.0986799
-0.0956719
-0.0926758
-0.0896925
-0.0867175
-0.0837579
-0.0808312
-0.0779596
-0.0751718
-0.0725014
-0.0694933
-0.0665933
-0.0637855
-0.0610757
-0.0584574
-0.0559177
-0.0534478
-0.0510458
-0.0487056
-0.0464183
-0.0441791
-0.0419736
-0.0398029
-0.0376633
-0.0355607
-0.0334898
-0.0314453
-0.0294187
-0.0274219
-0.0254578
-0.0320103
-0.0315654
-0.0303148
-0.0298629
-0.0286117
-0.0281642
-0.0267543
-0.0245947
-0.0234739
-0.0257659
-0.0272945
-0.0277294
-0.028967
-0.0294184
-0.0306616
-0.0311106
-0.102187
-0.099104
-0.0960358
-0.0929824
-0.089941
-0.08692
-0.0839289
-0.0809912
-0.078134
-0.0753795
-0.0727534
-0.0696984
-0.0667464
-0.0638922
-0.0611511
-0.0585155
-0.0559708
-0.0535047
-0.0511072
-0.0487773
-0.0465056
-0.0442848
-0.0421051
-0.0399589
-0.0378421
-0.0357542
-0.0336984
-0.0316693
-0.0296598
-0.0276777
-0.0257225
-0.023789
-0.0302033
-0.0297588
-0.0285174
-0.0280687
-0.026885
-0.0265607
-0.0249406
-0.023091
-0.0240948
-0.0218531
-0.0257176
-0.0271761
-0.0276261
-0.0288603
-0.0293062
-0.102629
-0.0994856
-0.0963588
-0.0932468
-0.0901575
-0.0871065
-0.0841027
-0.0811786
-0.0783541
-0.0756387
-0.0730451
-0.0699561
-0.0669487
-0.0640357
-0.0612444
-0.0585764
-0.0560127
-0.0535395
-0.0511447
-0.0488187
-0.0465581
-0.0443535
-0.0421958
-0.0400775
-0.0379883
-0.0359238
-0.0338876
-0.0318746
-0.0298815
-0.0279135
-0.0259716
-0.0240552
-0.0221565
-0.028407
-0.0279662
-0.0267002
-0.0260457
-0.0250319
-0.0246076
-0.023293
-0.021504
-0.0224786
-0.0241932
-0.0237675
-0.0202555
-0.025875
-0.0254523
-0.027084
-0.0275203
-0.103028
-0.0998249
-0.0966379
-0.0934778
-0.0903565
-0.087294
-0.0843032
-0.0814127
-0.0786289
-0.0759427
-0.0733529
-0.0702575
-0.0672046
-0.0642294
-0.0613767
-0.0586575
-0.056059
-0.0535644
-0.0511621
-0.0488377
-0.0465806
-0.0443872
-0.0422476
-0.040153
-0.0380942
-0.0360597
-0.0340493
-0.0320574
-0.0300845
-0.028132
-0.0262019
-0.024301
-0.0224213
-0.0205473
-0.0266499
-0.0262211
-0.0233475
-0.0229483
-0.0216663
-0.0199493
-0.0208589
-0.022558
-0.0221398
-0.0186884
-0.103383
-0.100119
-0.0968816
-0.0936886
-0.0905545
-0.0875052
-0.0845497
-0.0817028
-0.0789551
-0.0762757
-0.0736388
-0.0705828
-0.0675039
-0.0644743
-0.0615588
-0.0587772
-0.0561274
-0.0535968
-0.0511725
-0.0488378
-0.0465812
-0.0443912
-0.0422638
-0.0401879
-0.0381543
-0.0361523
-0.0341729
-0.0322106
-0.0302625
-0.028328
-0.0264149
-0.0245276
-0.0226624
-0.0208138
-0.0189715
-0.0217191
-0.0213301
-0.0200441
-0.0184096
-0.0193019
-0.0209456
-0.0205318
-0.0171439
-0.10369
-0.100376
-0.097103
-0.0938967
-0.090776
-0.0877606
-0.0848526
-0.0820453
-0.0793171
-0.0766261
-0.0739078
-0.0709108
-0.0678242
-0.0647582
-0.0617909
-0.0589494
-0.0562393
-0.0536553
-0.0511927
-0.0488323
-0.0465645
-0.0443739
-0.0422493
-0.0401858
-0.0381719
-0.0361971
-0.0342525
-0.0323249
-0.0304086
-0.0285013
-0.0266064
-0.0247334
-0.0228828
-0.0210547
-0.0192377
-0.0174311
-0.0200936
-0.0196739
-0.0186049
-0.0168221
-0.017695
-0.0192564
-0.0188106
-0.0156193
-0.103958
-0.100608
-0.0973181
-0.094124
-0.0910401
-0.0880696
-0.0852037
-0.0824201
-0.0796923
-0.0769872
-0.0712325
-0.0734364
-0.0747726
-0.0681399
-0.0650599
-0.062064
-0.0591765
-0.0564068
-0.053759
-0.0512414
-0.0488397
-0.0465446
-0.0443412
-0.042215
-0.0401537
-0.0381524
-0.0361986
-0.0342826
-0.0323912
-0.0305129
-0.0286402
-0.0267745
-0.0249213
-0.0230847
-0.0212744
-0.0194789
-0.0176945
-0.0159104
-0.018776
-0.0180447
-0.0169345
-0.015292
-0.0161739
-0.0177156
-0.0173512
-0.0141216
-0.104199
-0.10083
-0.0975514
-0.0943902
-0.0913544
-0.0884247
-0.0855807
-0.0827912
-0.0800372
-0.0764176
-0.0779767
-0.0684206
-0.0707
-0.0721091
-0.0736104
-0.074763
-0.0653543
-0.0623597
-0.0594464
-0.056629
-0.0539198
-0.0513388
-0.0488785
-0.0465407
-0.0443083
-0.0421661
-0.040102
-0.0381028
-0.036162
-0.0342674
-0.0324066
-0.0305679
-0.0287353
-0.0269061
-0.0250806
-0.0232686
-0.0214747
-0.0196972
-0.0179338
-0.0161738
-0.0144136
-0.0188851
-0.017929
-0.0169941
-0.0166139
-0.0154277
-0.0138014
-0.014675
-0.0162498
-0.015865
-0.0176212
-0.0172719
-0.0126526
-0.104428
-0.101066
-0.0978237
-0.0947085
-0.0917134
-0.0888045
-0.08595
-0.0831179
-0.0794469
-0.0810214
-0.0766274
-0.0780901
-0.065621
-0.0678859
-0.0692647
-0.0707762
-0.0722368
-0.0734499
-0.074235
-0.0756108
-0.0743194
-0.0626533
-0.0597399
-0.0568955
-0.0541393
-0.0514952
-0.0489687
-0.0465723
-0.0442937
-0.0421192
-0.0400384
-0.0380346
-0.0360952
-0.0342135
-0.0323759
-0.0305689
-0.0287789
-0.0269932
-0.0252059
-0.023423
-0.0216519
-0.0198924
-0.018149
-0.0164118
-0.0146768
-0.0129441
-0.0168904
-0.0165173
-0.0154868
-0.0151116
-0.0139367
-0.0123352
-0.0131934
-0.0147441
-0.0143641
-0.0161602
-0.0157758
-0.0112071
-0.104669
-0.101338
-0.0981451
-0.095074
-0.0920983
-0.0891779
-0.0862805
-0.0825337
-0.0841347
-0.0795762
-0.0811203
-0.0763741
-0.0770839
-0.0785215
-0.0777491
-0.0629218
-0.0651333
-0.0664824
-0.0679771
-0.0693605
-0.0705135
-0.0712044
-0.0726499
-0.0719391
-0.073369
-0.0741565
-0.073628
-0.0600319
-0.0571855
-0.0544028
-0.0517098
-0.049122
-0.0466576
-0.0443165
-0.0420943
-0.0399793
-0.0379559
-0.0360106
-0.0341302
-0.032306
-0.0305227
-0.0287683
-0.0270263
-0.0252841
-0.0235403
-0.0217974
-0.0200614
-0.0183391
-0.016624
-0.0149128
-0.0132052
-0.0115005
-0.0153786
-0.0150089
-0.013989
-0.0136202
-0.0124635
-0.0108882
-0.0117309
-0.0132568
-0.012883
-0.0146506
-0.0142706
-0.00978337
-0.104943
-0.101661
-0.0985136
-0.0954669
-0.0924798
-0.0895187
-0.0856938
-0.0873221
-0.0826717
-0.084249
-0.0792861
-0.0800632
-0.0815774
-0.0807999
-0.0602981
-0.0624514
-0.0637746
-0.0652366
-0.0665937
-0.06772
-0.0684088
-0.0697849
-0.0690951
-0.070557
-0.0712484
-0.0726621
-0.0719607
-0.0574727
-0.0546889
-0.0519693
-0.0493346
-0.0468057
-0.0443965
-0.0421104
-0.0399439
-0.0378838
-0.035917
-0.03403
-0.0322061
-0.0304373
-0.0287083
-0.0270019
-0.0253075
-0.023609
-0.0219049
-0.0202005
-0.0185019
-0.0168103
-0.0151213
-0.0134376
-0.0117606
-0.0100807
-0.0138804
-0.0135168
-0.0125127
-0.0121492
-0.0110089
-0.00945788
-0.0102855
-0.0117908
-0.0114219
-0.0131631
-0.0127891
-0.00837734
-0.105267
-0.102034
-0.0989131
-0.0958588
-0.0928326
-0.0889235
-0.090584
-0.085836
-0.0874444
-0.0823758
-0.0831652
-0.0847131
-0.0839213
-0.0577347
-0.0598336
-0.0611308
-0.0625551
-0.0638844
-0.0649795
-0.0656583
-0.0670107
-0.0663274
-0.0677659
-0.0684514
-0.0698332
-0.0691418
-0.054972
-0.0522511
-0.0495908
-0.047014
-0.0445413
-0.042185
-0.0399527
-0.0378393
-0.035833
-0.0339224
-0.03209
-0.0303219
-0.0286075
-0.0269286
-0.0252717
-0.0236201
-0.021963
-0.0203001
-0.0186347
-0.0169665
-0.0152987
-0.0136376
-0.011986
-0.010339
-0.00867971
-0.0124052
-0.0120465
-0.0110552
-0.0106971
-0.00956922
-0.00804083
-0.00885311
-0.010342
-0.00997736
-0.0116974
-0.0113278
-0.00698553
-0.105642
-0.102439
-0.0993146
-0.0962241
-0.0922272
-0.0939228
-0.0890693
-0.0907124
-0.0855328
-0.0863377
-0.0879187
-0.0871104
-0.0552293
-0.0572768
-0.058547
-0.0599353
-0.0612355
-0.0623008
-0.0629657
-0.0642891
-0.0636184