/*--------------------------------*- C++ -*----------------------------------*\
| =========                 |                                                 |
| \\      /  F ield         | OpenFOAM: The Open Source CFD Toolbox           |
|  \\    /   O peration     | Version:  v1912                                 |
|   \\  /    A nd           | Website:  www.openfoam.com                      |
|    \\/     M anipulation  |                                                 |
\*---------------------------------------------------------------------------*/
FoamFile
{
    version     2.0;
    format      ascii;
    class       surfaceScalarField;
    location    "420";
    object      phi;
}
// * * * * * * * * * * * * * * * * * * * * * * * * * * * * * * * * * * * * * //

dimensions      [0 3 -1 0 0 0 0];
oriented        oriented;


internalField   nonuniform List<scalar> 
7196
(
0.00510566
0.00490134
0.00622857
0.00888508
0.00245817
0.00244318
0.00618444
0.0100511
0.00446842
0.00687483
0.000925365
0.00151781
0.00596021
0.0102332
0.00522025
0.0092993
0.00258239
0.00521781
0.000293781
0.00122403
0.00577207
0.0101971
0.00526675
0.0101867
0.0037341
0.00814759
0.00128435
0.00422724
7.74288e-05
0.0011466
0.00562739
0.0101557
0.00510446
0.0103594
0.00418758
0.00973324
0.00232507
0.00710686
0.000562795
0.00374187
9.83013e-08
0.0011465
0.00550254
0.0101358
0.00493672
0.0103234
0.00422479
0.0103222
0.00295908
0.00909924
0.0012791
0.00639055
0.000192641
0.00354933
-2.94737e-05
0.00117597
0.0053869
0.0101276
0.00480357
0.010269
0.00411634
0.0104319
0.00318005
0.0101012
0.00186065
0.00851769
0.000596617
0.00598657
1.18078e-05
0.00350805
-3.85191e-05
0.00121449
0.00527835
0.0101206
0.00470172
0.0102295
0.00399379
0.0103916
0.00316759
0.0104443
0.00214829
0.00981361
0.00101036
0.00810395
0.000189763
0.00580862
-6.86095e-05
0.00353814
-3.64519e-05
0.00125094
0.00517397
0.0101144
0.00462084
0.0102014
0.00389449
0.0103288
0.0030723
0.0104868
0.00219247
0.0104001
0.00125563
0.00956833
0.000424048
0.00786967
-2.55713e-05
0.00576558
-9.2835e-05
0.00359452
-2.97999e-05
0.00128074
0.00507631
0.0101057
0.00456074
0.0101745
0.0038253
0.0102706
0.00296914
0.0104319
0.00210943
0.0105699
0.00130016
0.0103556
0.000576811
0.00941557
6.9392e-05
0.0077747
-0.000120201
0.00579294
-9.0838e-05
0.00365556
-2.31815e-05
0.00130392
0.00498655
0.0100938
0.00452324
0.0101432
0.00378789
0.0102119
0.00288787
0.0103519
0.00198308
0.0105583
0.00120185
0.0106682
0.00058066
0.0103518
0.000129029
0.00935593
-0.000112017
0.00776652
-0.000147339
0.00584944
-7.83681e-05
0.00371075
-1.69352e-05
0.00132086
0.00490331
0.0100822
0.00450776
0.0101092
0.00378437
0.0101467
0.00283925
0.0102605
0.00185552
0.0104794
0.00102699
0.0107332
0.000444727
0.0108041
8.28958e-05
0.0103979
-0.000118959
0.00936287
-0.000186714
0.0078059
-0.000144209
0.00591529
-6.34585e-05
0.00375727
-1.12415e-05
0.0013321
0.00482645
0.0100699
0.00451677
0.0100732
0.00382337
0.0100702
0.00283515
0.0101508
0.00174717
0.0103688
0.000817237
0.0106892
0.000210436
0.0109674
-8.19394e-05
0.010969
-0.000195226
0.0104742
-0.000232966
0.00940912
-0.000205995
0.00786768
-0.000127333
0.00597916
-4.84148e-05
0.00379445
-6.95837e-06
0.00133906
0.00475397
0.0100575
0.00454983
0.0100368
0.00390933
0.00998727
0.0028875
0.0100179
0.00167606
0.0102219
0.000596925
0.0105892
-9.32773e-05
0.0109929
-0.00035089
0.0112364
-0.00036654
0.0111403
-0.000327396
0.0105686
-0.000275744
0.00947887
-0.000197925
0.00793827
-0.00010636
0.00603711
-3.47907e-05
0.00382228
-3.33082e-06
0.00134239
0.00468303
0.0100499
0.00460183
0.0100055
0.00404813
0.00989799
0.00301627
0.00985849
0.00166713
0.0100268
0.00038361
0.0104352
-0.000454012
0.0109499
-0.000707726
0.0113497
-0.000625124
0.011495
-0.000491055
0.0113039
-0.000381997
0.0106749
-0.000281081
0.00956203
-0.000177405
0.00800932
-8.38458e-05
0.00608616
-2.38194e-05
0.00384277
-1.16333e-06
0.00134355
0.00461007
0.010046
0.00466828
0.0099835
0.00423792
0.00981569
0.00323686
0.0096774
0.00175187
0.00977375
0.000196884
0.0102136
-0.000873916
0.0108551
-0.00115295
0.0113951
-0.000958881
0.0116835
-0.000724851
0.0117288
-0.000542408
0.0114643
-0.000393132
0.0107869
-0.00026396
0.00964858
-0.000151485
0.00807696
-6.51392e-05
0.00612748
-1.50446e-05
0.00385665
8.01112e-07
0.00134275
0.00453138
0.0100497
0.00473558
0.00997865
0.00447003
0.00975139
0.00356644
0.00948611
0.00197428
0.009455
7.43785e-05
0.00989625
-0.00135841
0.010698
-0.00170126
0.0114034
-0.00136431
0.0118005
-0.00101419
0.0119728
-0.000754954
0.0119413
-0.000548968
0.0116202
-0.000378789
0.0109017
-0.000238177
0.00973528
-0.000126389
0.00813821
-4.85648e-05
0.006161
-8.3103e-06
0.00386576
1.95535e-06
0.0013408
0.00444255
0.0100608
0.00479184
0.00999343
0.00472631
0.00972237
0.0040061
0.00931174
0.00239096
0.00906944
8.03257e-05
0.00944905
-0.00191558
0.0104534
-0.002386
0.0113828
-0.00184175
0.0118809
-0.00134719
0.0121335
-0.00101197
0.0122298
-0.000749536
0.0121419
-0.000530158
0.0117716
-0.000350616
0.0110142
-0.00020998
0.00981887
-0.000104324
0.00819397
-3.58605e-05
0.00618855
-3.94845e-06
0.00387167
2.58442e-06
0.00133821
0.0043402
0.0100783
0.0048229
0.0100298
0.00497583
0.00974391
0.0045299
0.00919856
0.00305809
0.0086446
0.000335849
0.00881391
-0.0025352
0.0100687
-0.00324443
0.0113119
-0.00239472
0.0119357
-0.00171774
0.0122514
-0.00129639
0.012418
-0.000980627
0.0124609
-0.000718372
0.0123301
-0.000497698
0.0119186
-0.000321247
0.0111254
-0.000183898
0.00989844
-8.60008e-05
0.00824411
-2.59316e-05
0.00621054
-5.17996e-09
0.00387426
3.31349e-06
0.0013349
0.00422245
0.0101007
0.00481395
0.0100873
0.00518792
0.00981768
0.00508373
0.00919009
0.0039687
0.00828795
0.00108869
0.00789177
-0.00311847
0.00939719
-0.00427972
0.011104
-0.00299089
0.011908
-0.00209536
0.0123134
-0.00158475
0.0125398
-0.00122658
0.0126639
-0.000931793
0.0126744
-0.000677073
0.0125095
-0.00046305
0.0120604
-0.000290226
0.0112318
-0.000159563
0.009972
-6.98767e-05
0.00828806
-1.77578e-05
0.00622829
2.40582e-06
0.00387516
3.56687e-06
0.00133133
0.00409096
0.0101225
0.00475802
0.0101567
0.00532878
0.00994643
0.00559745
0.00930396
0.00501767
0.00814113
0.00264048
0.00673615
-0.00325554
0.00802884
-0.00534834
0.0104658
-0.00345387
0.0115669
-0.00238444
0.0121971
-0.00182309
0.0125517
-0.0014512
0.0127644
-0.00114864
0.0128808
-0.000878914
0.0128762
-0.000634865
0.0126813
-0.000426866
0.0121971
-0.000260503
0.0113327
-0.000139014
0.0100411
-5.67884e-05
0.00832709
-1.20985e-05
0.00624279
3.64117e-06
0.00387509
3.67428e-06
0.00132766
0.00394653
0.0101414
0.00465518
0.0102253
0.00537366
0.0101118
0.00598977
0.00955411
0.00608514
0.00823648
0.00456323
0.00318059
0.00303779
-0.000244384
0.00289042
-0.00144871
0.00228329
-0.00326942
0.00450164
-0.00237068
0.00381897
-0.00190604
0.0103161
-0.00139816
-0.00234679
0.0115293
-0.00188238
0.0122564
-0.00158181
0.0126823
-0.00132712
0.0129429
-0.00107528
0.0130771
-0.000824316
0.0130657
-0.00059085
0.0128453
-0.000392375
0.012329
-0.000235435
0.0114291
-0.00012165
0.010106
-4.74081e-05
0.0083624
-7.94274e-06
0.00625438
4.96993e-06
0.00387379
3.42342e-06
0.00132424
0.00379346
0.0101551
0.00451323
0.0102834
0.00532251
0.0102765
0.00619592
0.00990565
0.00696006
0.0086792
0.0067555
0.00299338
0.00305083
0.000561917
0.00237429
0.00151148
0.00208823
-0.00324182
0.00286281
-0.000734975
0.000876316
0.000784247
-0.00128709
-0.00114056
0.000572642
0.00089648
-0.00176234
0.00435794
-0.000997387
0.00128093
0.00088903
-0.000680446
-0.000649183
0.00323339
-0.000527583
-0.000923756
0.00958236
-0.00068926
-0.00100045
0.00396023
-0.00155853
0.0112054
-0.00148946
0.012164
-0.00139003
0.0127452
-0.00122665
0.0130943
-0.00100604
0.0132589
-0.000766737
0.0132415
-0.00054578
0.0129987
-0.00035865
0.0124522
-0.000213449
0.0115209
-0.000106773
0.0101654
-3.99491e-05
0.0083944
-5.70903e-06
0.00626506
4.93973e-06
0.00387228
3.45608e-06
0.00132078
0.00363504
0.0101634
0.00434035
0.0103279
0.00518887
0.010417
0.00621293
0.0102595
0.00743813
0.00942758
0.00860781
0.00327233
0.00355456
0.00258242
0.00192244
0.00353876
0.00105782
0.00103667
0.000414402
0.000400971
0.000537878
-0.0011054
0.000694622
-0.00087351
0.000552357
-0.000943916
0.000497979
0.00107062
-0.000497979
0.000969713
-0.000493267
0.00112502
0.00068503
-0.000289267
0.000289267
-0.000172292
0.00267123
-0.000265992
-0.00032427
0.000921703
0.00357002
-0.000533548
-0.000428795
0.00878319
-0.000330569
0.00323279
-0.000352022
-0.00106116
0.0107771
-0.00123117
0.0120052
-0.00125635
0.0127749
-0.00113666
0.0132249
-0.000930379
0.0134225
-0.000706969
0.0134027
-0.000501591
0.0131416
-0.0003279
0.0125666
-0.00019302
0.0116072
-9.58121e-05
0.0102212
-3.50573e-05
0.00842375
-3.85327e-06
0.00627385
5.04008e-06
0.00387069
3.0127e-06
0.00131777
0.00347319
0.0101689
0.0041451
0.0103587
0.00499448
0.0105223
0.00608165
0.0105483
0.00753477
0.0101628
0.00952323
0.00407284
0.00443932
0.00461168
0.00219941
0.00542089
0.00274536
0.00102779
0.000270899
0.000251641
0.000786512
-0.00141207
0.0017511
0.000718801
0.000652376
0.000727191
-0.000326221
0.000391559
-0.000391559
0.000360759
-0.000772199
0.000653896
-5.39892e-05
0.00227669
-8.14269e-05
-5.75828e-05
-0.000116488
0.00301802
-0.000214029
-0.0002155
0.00812293
-0.000185399
0.0028439
-0.000156445
0.0020063
-3.8075e-05
-4.35551e-05
-0.000810713
0.0103567
-0.00109088
0.0118397
-0.0011609
0.0127992
-0.00103881
0.0133333
-0.000849495
0.013565
-0.000647859
0.013549
-0.000460095
0.0132738
-0.000302376
0.012676
-0.000177704
0.0116891
-8.84413e-05
0.0102746
-3.11827e-05
0.00845108
-3.51352e-06
0.00628241
4.70693e-06
0.003869
2.87115e-06
0.0013149
0.00330844
0.0101727
0.00393324
0.0103807
0.00475639
0.0105968
0.0058445
0.0107595
0.00735431
0.0107288
0.00965071
0.0100354
0.00603034
0.00346338
0.00644901
0.00402065
0.00491204
-0.00160416
0.000303249
0.00033937
0.00624894
0.00087693
0.000531533
-5.53216e-05
0.00019632
0.0011698
0.000269089
0.00028444
0.000244271
0.000591892
-1.94222e-05
0.000190282
0.000547457
-1.31485e-05
0.00184234
-2.68586e-05
-2.32076e-05
0.00272748
-9.90826e-05
-0.000138013
0.00759492
-0.000144687
0.00262222
-8.01379e-05
0.00172328
-1.80568e-05
-1.93367e-05
-0.000512824
0.000484228
-9.47866e-06
-8.92186e-06
-0.000724021
0.00998984
-0.00102988
0.0117087
-0.00104589
0.0128063
-0.000931187
0.013415
-0.000766387
0.0136836
-0.000590789
0.0136797
-0.000425307
0.0133968
-0.000281511
0.0127798
-0.000166023
0.0117666
-8.23606e-05
0.0103258
-2.96093e-05
0.00847718
-3.48958e-06
0.0062906
4.03973e-06
0.00386783
2.32069e-06
0.00131258
0.00314098
0.0101755
0.00371128
0.0103947
0.00448883
0.0106483
0.00553568
0.0109056
0.00700508
0.0111087
0.00924055
0.0111389
-0.00755232
0.014016
0.00468768
0.005333
0.00706063
0.00126366
0.00138804
0.00189152
0.00163744
0.0010531
-0.000749849
0.00139247
-0.001924
0.00280093
0.000465409
0.00017086
0.000157711
0.00046306
-5.6905e-06
0.000445128
-5.27564e-06
0.00164643
-1.16975e-05
-1.0532e-05
0.00254406
-5.98529e-05
-0.000121521
0.00715036
-0.000157941
0.0024589
-5.95317e-05
0.00158399
-8.76877e-06
-8.93151e-06
-0.000429936
0.000416422
-4.54302e-06
-4.14466e-06
-0.00014879
0.000139311
-0.000749604
0.00970956
-0.000934356
0.0115971
-0.000915135
0.0127902
-0.000819201
0.0134678
-0.000686097
0.0137789
-0.000540015
0.0137944
-0.000395622
0.0135109
-0.000265156
0.0128789
-0.000157304
0.0118416
-7.84903e-05
0.0103747
-2.82106e-05
0.0085019
-3.75073e-06
0.00629839
3.23429e-06
0.00386692
2.14658e-06
0.00131043
0.00297366
0.0101753
0.00348346
0.0104033
0.00420081
0.0106827
0.00518269
0.0110013
0.00656243
0.0113482
0.0085932
0.0117561
0.0128144
0.0123405
0.00875849
-0.00416219
-0.00336612
0.00195549
0.00150201
0.0088165
0.00527499
0.00299194
0.00107265
0.00343854
0.000941441
-0.00390369
0.00163301
0.00117229
0.00013362
0.000128345
0.000407198
-2.47374e-06
0.000398937
-2.27019e-06
0.00153664
-6.08647e-06
-6.41101e-06
0.00239182
-5.44336e-05
-0.000162742
0.00680629
-0.000242784
0.00230069
-6.68158e-05
0.00148938
-6.50852e-06
-5.7657e-06
-0.000391844
0.000385113
-2.03742e-06
-1.83847e-06
-0.0001242
0.000119657
-0.000747591
0.0095228
-0.000786258
0.0114683
-0.000770478
0.0127415
-0.000713977
0.0134957
-0.000618922
0.0138578
-0.000500916
0.0138997
-0.000374366
0.0136201
-0.000253759
0.0129754
-0.000151716
0.0119148
-7.5272e-05
0.0104217
-2.75862e-05
0.00852573
-4.27092e-06
0.0063059
2.63501e-06
0.00386643
1.79723e-06
0.00130863
0.00280612
0.0101765
0.00325093
0.0104078
0.00390173
0.0107024
0.00480512
0.0110603
0.00606796
0.0114957
0.00788467
0.0120568
0.0112177
0.0133528
-0.00681454
0.0159458
0.00546049
0.00656529
-0.00318638
0.00145327
-0.00295528
0.0031233
0.00178747
-0.00145327
-0.00178747
0.00182337
0.00154786
0.00107265
0.00201409
0.000117183
0.000114913
0.000380376
-1.34964e-06
0.000375095
-1.13035e-06
0.00144539
-4.61557e-06
-5.82655e-06
0.00222201
-8.40651e-05
-0.000292357
0.00662978
-0.000278729
0.00211674
-0.000137512
0.00139048
-7.24288e-06
-4.66364e-06
-0.000370571
0.000365531
-1.46823e-06
-1.24176e-06
-0.000113075
0.000111037
-0.00057707
0.00931361
-0.000614263
0.0113121
-0.000643459
0.012671
-0.000628515
0.0135053
-0.000568523
0.0139254
-0.000473219
0.0139985
-0.000358784
0.0137251
-0.000243971
0.0130676
-0.000145365
0.0119849
-7.18003e-05
0.010466
-2.69114e-05
0.00854838
-5.32153e-06
0.00631385
1.73605e-06
0.00386649
1.64964e-06
0.00130698
0.00263878
0.0101763
0.00301795
0.0104095
0.00359556
0.010714
0.00441202
0.0110955
0.00554917
0.0115791
0.00716355
0.0122169
0.00971856
0.0135559
0.0143179
0.0149806
0.00503119
-0.00201148
-0.00135974
0.00197648
0.00182405
0.00588009
0.00571639
-0.00154786
0.00135974
0.000109688
0.000108557
0.000361968
-1.05262e-06
0.000357177
-1.03572e-06
0.0013217
-4.87515e-06
-1.04076e-05
0.00204367
-0.000219286
-0.000212542
0.00638358
-0.000118323
0.00198719
-0.000222249
0.00122093
-2.64825e-05
-1.02579e-05
-0.000353494
0.000347619
-1.36853e-06
-9.79725e-07
-0.000107316
0.000105847
-0.000379963
0.00907931
-0.000478588
0.0111472
-0.000547565
0.01259
-0.000567423
0.0135042
-0.000534903
0.0139871
-0.000456044
0.0140958
-0.000349265
0.0138304
-0.000236891
0.0131592
-0.000140506
0.0120536
-7.04037e-05
0.0105094
-2.71971e-05
0.00857025
-5.49841e-06
0.00632109
1.16706e-06
0.00386698
1.15899e-06
0.00130582
0.00247097
0.0101768
0.0027841
0.0104102
0.00328751
0.0107176
0.00401531
0.0111107
0.00502669
0.0116179
0.00644521
0.0122974
0.00845323
0.0134822
0.0121092
0.0157646
-0.00412363
0.011823
0.0131614
-0.00107863
0.00147414
0.00158097
0.000745422
-0.000981775
0.00404867
0.000104795
0.000103759
0.000343896
-1.15145e-06
0.00033509
-1.60219e-06
0.00112507
-4.07699e-05
-8.26576e-05
0.00189864
-0.000123989
-8.23277e-05
0.00613054
-4.45997e-05
0.00183533
-5.50182e-05
0.0010482
-6.54517e-05
-7.99328e-05
-0.000327129
0.000305857
-5.21005e-06
-2.29704e-06
-0.000102779
0.000101411
-0.000263964
0.00886469
-0.000389051
0.0109887
-0.000485663
0.0125082
-0.000532301
0.0135016
-0.000517643
0.0140487
-0.000444371
0.0141909
-0.000337436
0.0139309
-0.00022761
0.0132463
-0.000134488
0.0121177
-6.79015e-05
0.0105501
-2.64068e-05
0.00859116
-6.65753e-06
0.00632891
3.13711e-07
0.00386782
8.83886e-07
0.00130494
0.00230491
0.0101771
0.00255249
0.0104084
0.00298131
0.0107164
0.00361957
0.0111133
0.00451034
0.0116271
0.00574541
0.0123177
0.0073898
0.0133609
0.0100924
0.0154989
0.0113712
0.0162164
-0.00200206
0.00702512
0.0095403
-0.00140201
-0.000427353
0.00102654
0.000318069
0.00273715
-0.000389832
-0.000300704
0.000100259
9.86572e-05
0.000277498
-1.24107e-05
0.000222433
-2.75922e-05
0.000955457
-2.45146e-05
-6.7277e-06
0.00178096
-2.79551e-05
-4.33471e-05
0.00593911
-2.91884e-05
0.0017527
-1.634e-05
0.000903841
-6.33376e-07
-2.76894e-06
-0.000193647
0.000128196
-5.11473e-05
-9.63602e-05
9.11502e-05
-0.00020479
0.00868043
-0.000337362
0.0108404
-0.000455444
0.0124314
-0.000521848
0.0135058
-0.000511098
0.0141154
-0.00043307
0.0142865
-0.00032341
0.0140267
-0.000216547
0.0133283
-0.000127263
0.0121771
-6.45184e-05
0.0105883
-2.70618e-05
0.00861156
-7.5719e-06
0.0063368
-7.99886e-07
0.0038695
8.12751e-07
0.00130413
0.00213879
0.0101771
0.00232187
0.0104077
0.00267564
0.0107141
0.00322603
0.0111099
0.00400396
0.0116197
0.00507478
0.0122977
0.00645844
0.0132491
0.00846138
0.0149919
0.0100097
0.0168605
0.00845355
0.0147879
0.00348699
0.00675204
-0.000266257
-0.000432466
0.00167295
-0.00016055
-0.000177251
-0.000122744
0.000759455
0.000195325
0.000534851
-7.61001e-05
7.87395e-05
5.11473e-05
0.000103681
9.69533e-05
0.000877341
-1.0311e-06
-4.2304e-07
0.00172247
-1.31155e-05
-3.18434e-05
0.0057935
-2.73369e-05
0.00170381
-1.05304e-05
0.000862051
-3.48893e-07
-7.01497e-07
-9.41844e-05
9.3551e-05
-0.000171871
0.00851493
-0.000316775
0.0107017
-0.000454885
0.0123644
-0.000526892
0.0135216
-0.000502499
0.0141848
-0.000414737
0.0143779
-0.000305604
0.0141158
-0.000203575
0.0134046
-0.000121295
0.0122338
-6.27248e-05
0.0106239
-2.73181e-05
0.00863131
-8.5367e-06
0.00634454
-1.22103e-06
0.00387154
1.91576e-07
0.00130394
0.00197482
0.010177
0.00209388
0.0104051
0.00237566
0.0107077
0.00283954
0.0111006
0.00351228
0.0116016
0.00443666
0.0122578
0.00561479
0.0131414
0.00716431
0.0145462
0.00854198
0.0164596
0.00832971
0.0169843
0.0055691
0.0127058
0.0014848
0.00515781
4.77876e-05
6.16381e-05
-0.00130082
0.00107057
-9.3522e-06
-2.66494e-05
-2.48206e-05
-3.55246e-05
-0.000396756
0.000275107
-3.8901e-05
-3.91558e-05
0.000119225
9.252e-05
9.20969e-05
0.000849878
-5.6317e-07
-3.79674e-07
0.0016827
-1.07292e-05
-2.48672e-05
0.0056671
-2.06009e-05
0.00166703
-1.16722e-05
0.00084018
-3.43532e-07
-4.88038e-07
-9.13954e-05
9.10466e-05
-0.000160468
0.00835863
-0.000330291
0.0105771
-0.000482133
0.0123197
-0.000533323
0.0135524
-0.000482931
0.014253
-0.000388644
0.0144609
-0.000286308
0.0141985
-0.000190482
0.0134738
-0.000115119
0.0122862
-6.21272e-05
0.0106587
-2.77375e-05
0.00865051
-1.03996e-05
0.00635372
-2.5927e-06
0.00387432
1.79997e-07
0.00130376
0.00181121
0.0101766
0.00186907
0.0104018
0.002078
0.0107028
0.00245873
0.0110885
0.00303423
0.0115786
0.00382959
0.0122087
0.00484067
0.0130319
0.00609334
0.0142123
0.00725064
0.0158375
0.00752663
0.0172627
0.00633655
0.0162169
0.00343191
0.0107587
0.000711268
0.00448461
-3.95526e-05
1.48124e-06
-0.00102115
0.000999514
2.18734e-05
4.75534e-05
6.13097e-05
4.97439e-05
-0.000195423
0.000187375
-1.3038e-06
-0.000215573
-6.49979e-06
-0.000236332
-4.06133e-06
3.25025e-06
-8.00689e-05
4.11679e-05
9.04834e-05
9.01037e-05
0.000830374
-4.71164e-07
-4.52719e-07
0.00165185
-9.68355e-06
-1.77132e-05
0.00554464
-2.02913e-05
0.00163636
1.72949e-06
-6.8419e-06
0.000819683
-4.82266e-07
-4.98213e-07
-8.96157e-05
8.92722e-05
-0.000177074
0.00820541
-0.000379384
0.0104744
-0.000518099
0.0123044
-0.000515291
0.0135848
-0.00044882
0.0143132
-0.000357321
0.0145319
-0.000262355
0.0142704
-0.000177962
0.0135367
-0.000110695
0.0123348
-6.13586e-05
0.0106924
-3.03443e-05
0.00867046
-1.24246e-05
0.00636355
-3.22906e-06
0.00387773
-3.94298e-07
0.00130415
0.00165028
0.0101749
0.00164808
0.0103976
0.00178635
0.0106934
0.00208574
0.0110758
0.00256741
0.0115553
0.00325022
0.012158
0.00412295
0.0129264
0.00516968
0.0139556
0.00616004
0.0153029
0.00658119
0.0167829
0.00617733
0.0174219
0.00460568
0.0150431
0.00208081
0.00938919
0.000316434
0.00414398
3.41319e-05
-9.93115e-06
-0.00098651
0.000977835
-3.08786e-05
-1.98981e-06
1.64745e-05
-0.000243393
0.000251707
1.35589e-05
-0.000224602
2.87627e-05
-0.000203737
4.04439e-05
3.33821e-05
-3.3857e-05
3.25532e-05
-4.03568e-05
-4.44182e-05
8.8801e-05
8.83483e-05
0.000474971
-2.70422e-07
-2.45814e-07
0.000335544
0.00162536
-4.20577e-06
-2.50848e-06
-1.55548e-05
0.00541026
-2.71385e-05
0.00160969
-2.00889e-06
-2.60991e-06
0.000505555
-2.88543e-05
0.000507141
-8.42812e-06
-8.78501e-05
8.73679e-05
-0.000236722
0.00806275
-0.000462805
0.0104191
-0.000510254
0.0122994
-0.000471706
0.0136077
-0.000403501
0.0143594
-0.000322562
0.0145921
-0.000242323
0.0143348
-0.000168539
0.0135945
-0.000108955
0.0123824
-6.34285e-05
0.0107254
-3.25854e-05
0.00869062
-1.40366e-05
0.00637436
-4.16759e-06
0.00388151
-4.6535e-07
0.00130462
0.00149039
0.0101749
0.00143075
0.0103923
0.00149936
0.0106846
0.0017174
0.0110618
0.00211117
0.011532
0.0026933
0.0121122
0.00345064
0.0128303
0.00434795
0.0137481
0.00521639
0.0148992
0.00568939
0.0161947
0.00561397
0.0173463
0.00490078
0.0171268
0.00324874
0.0138752
0.00123804
0.00846758
0.000106393
0.00393487
4.10036e-05
6.17092e-05
-0.000958856
0.000947329
4.56578e-05
9.04805e-06
-0.000234456
0.000355718
-1.49358e-06
-0.000149671
-9.76777e-07
-0.000255084
1.86384e-05
1.30975e-05
-0.000110365
0.000121078
2.84556e-06
-8.92935e-05
7.69136e-06
-6.59354e-05
1.70857e-05
8.70974e-05
8.68516e-05
0.000304897
1.79289e-06
0.000505721
-2.78503e-06
0.000504594
-1.3822e-06
0.00159899
-1.82786e-06
-3.03151e-06
-2.26154e-05
0.00524737
-5.12145e-05
0.00157832
-2.33366e-06
-4.13243e-06
0.000503543
-9.57437e-07
0.000501524
-5.91065e-07
0.000298532
-2.06275e-06
-0.000361288
0.00796123
-0.000482146
0.010391
-0.000457102
0.0122848
-0.000409963
0.0136141
-0.000354908
0.0143917
-0.000292396
0.0146422
-0.00022554
0.0143918
-0.000164125
0.0136497
-0.000108963
0.0124279
-6.62144e-05
0.0107591
-3.5422e-05
0.008712
-1.57986e-05
0.00638599
-5.27408e-06
0.00388632
-9.1705e-07
0.00130554
0.00133207
0.0101733
0.00122019
0.0103854
0.0012191
0.0106725
0.00135686
0.0110451
0.00166354
0.0115094
0.00215328
0.012072
0.00281292
0.0127499
0.00359709
0.0135812
0.0043767
0.0145878
0.00488201
0.0157066
0.00496249
0.0168462
0.00466478
0.0175823
0.00378927
0.0165863
0.00224215
0.0128711
0.000731729
0.00784224
3.38976e-05
0.0038519
2.29632e-05
2.61072e-05
-0.00093805
0.000944513
3.454e-05
7.09884e-05
-0.000363033
0.00038509
1.7878e-05
5.722e-06
-8.33614e-08
1.81614e-06
-2.97889e-05
2.82953e-05
-0.000130439
-5.93443e-07
-3.07657e-05
3.73658e-06
-2.4777e-05
2.76226e-05
-1.70857e-05
8.86445e-05
0.000296705
-9.58433e-07
0.000295608
-2.84725e-07
0.000500399
-7.02203e-07
0.0004986
-1.23336e-06
0.0015624
-2.01416e-06
-4.68241e-06
-6.49201e-05
0.00509066
-0.000139658
0.00152339
-3.65957e-06
-8.54135e-06
0.000497521
-1.25376e-06
0.000494436
-1.04821e-06
0.000294836
-1.85965e-07
0.000294312
-6.64813e-08
8.65818e-05
-0.00044765
0.00792674
-0.000406748
0.0103406
-0.000372387
0.0122472
-0.000346235
0.0136054
-0.000311575
0.0144109
-0.000267427
0.0146841
-0.000216188
0.0144438
-0.000162462
0.0137032
-0.00011289
0.0124746
-7.04701e-05
0.0107941
-3.85789e-05
0.00873478
-1.74924e-05
0.00639821
-6.1805e-06
0.00389158
-8.88855e-07
0.00130642
0.00117846
0.0101691
0.0010159
0.0103776
0.000946078
0.0106585
0.00100353
0.0110259
0.0012228
0.0114859
0.00162367
0.012039
0.0021996
0.0126853
0.00289737
0.0134496
0.00361194
0.0143459
0.00413929
0.0153305
0.00432733
0.0163418
0.00421956
0.0172915
0.00379803
0.0175735
0.00287034
0.0159581
0.00154321
0.0120596
0.000438609
0.00743753
-4.80177e-05
0.00378159
6.89138e-05
4.94146e-05
-0.000953431
0.00096406
1.23338e-05
1.71887e-05
-0.000409172
0.000433363
9.87508e-07
9.36143e-06
2.58034e-05
2.11028e-05
-3.575e-05
5.36279e-05
-3.0028e-05
2.82119e-05
-3.13591e-05
8.56233e-05
8.53386e-05
0.000293774
-1.64146e-07
0.000292736
-1.95295e-07
0.000493461
-1.03906e-06
0.000490457
-1.67803e-06
0.00148234
-6.81409e-06
-1.7051e-05
-0.000202513
0.00504812
-0.000202603
0.00140626
-2.04088e-05
-4.31744e-05
0.000488658
-1.86026e-06
0.000482601
-2.48504e-06
0.000291718
-2.35905e-07
0.000290916
-2.46724e-07
8.51527e-05
8.50862e-05
-0.000324718
0.00784471
-0.000292784
0.010261
-0.000294053
0.012195
-0.000292143
0.013586
-0.000279767
0.0144232
-0.000252658
0.0147206
-0.000213665
0.014495
-0.000166949
0.0137572
-0.00011725
0.0125214
-7.38294e-05
0.0108294
-3.97929e-05
0.00875708
-1.82367e-05
0.00641026
-6.37982e-06
0.00389707
-1.26113e-06
0.00130769
0.00102766
0.0101653
0.00081986
0.0103651
0.000684597
0.0106391
0.000657608
0.0110044
0.000786577
0.0114621
0.00110159
0.0120079
0.00160111
0.0126375
0.00223309
0.0133496
0.00290318
0.0141584
0.00344477
0.0150405
0.00372102
0.0159368
0.0037314
0.0168299
0.00353208
0.0175574
0.00304559
0.0173983
0.00215854
0.0153428
0.00106485
0.0114333
0.000245731
0.00714378
-7.66607e-05
0.00374232
4.53643e-05
7.05658e-05
-0.000971476
0.000976823
6.35664e-05
4.19991e-05
-0.000448897
0.000461535
7.01024e-07
-1.00547e-06
1.8165e-06
-1.6142e-07
-8.85261e-05
8.96962e-05
-1.82653e-07
-8.09817e-05
1.81699e-06
6.62449e-05
1.31863e-05
6.36593e-06
8.49221e-05
8.47268e-05
0.00029006
-1.82142e-07
0.000288695
-3.13944e-07
0.000479204
-3.41655e-06
0.000468681
-6.52814e-06
0.00135939
-5.80552e-05
-9.75889e-05
-0.000134211
0.00491211
-5.44918e-05
0.00131792
-8.75204e-05
-7.36144e-05
0.000458585
-1.03124e-05
0.000435134
-1.97241e-05
0.000287161
-3.2606e-07
0.00028508
-4.0375e-07
8.44909e-05
8.42441e-05
-0.000175298
0.00772722
-0.000205265
0.0101722
-0.000234892
0.0121378
-0.000255743
0.013562
-0.000261198
0.0144318
-0.000249669
0.0147566
-0.000217966
0.014546
-0.000172332
0.0138123
-0.000121552
0.0125691
-7.64902e-05
0.0108661
-4.23801e-05
0.00878123
-1.96996e-05
0.00642358
-6.99417e-06
0.0039028
-1.04714e-06
0.00130873
0.000881913
0.010158
0.000635974
0.0103492
0.000434833
0.0106149
0.000322451
0.0109743
0.000355576
0.0114354
0.000580221
0.0119834
0.00100727
0.0126018
0.0015883
0.0132823
0.00222866
0.0140241
0.00278638
0.0148168
0.00313684
0.0156246
0.00324825
0.01642
0.0031701
0.0171919
0.0029198
0.0176832
0.00242137
0.0171354
0.00162051
0.0147871
0.000734883
0.0109442
0.000134891
0.00693223
-6.83213e-05
0.00376421
1.36365e-05
3.27948e-05
-0.000984302
0.000995849
3.38164e-05
6.30869e-05
-0.000483597
0.000498322
2.63505e-05
2.24903e-05
5.91306e-06
1.40237e-05
-9.03227e-05
9.12995e-05
-2.75892e-07
-9.10044e-05
-3.23871e-07
9.09187e-05
5.93878e-07
-2.47128e-07
-2.13692e-05
2.11865e-05
-1.95522e-05
1.31863e-05
8.4062e-05
8.37481e-05
0.000282209
-5.45841e-07
0.000276708
-1.02646e-06
0.000413643
-3.6564e-05
0.000379304
-6.32495e-05
0.00124873
-4.52663e-05
-1.97477e-05
-3.23168e-05
0.00477758
-8.45128e-06
0.00120848
-1.10294e-05
-3.21844e-06
0.000357094
-6.53103e-05
0.000334074
-5.05951e-05
0.000268239
-1.8434e-06
0.00025251
-3.9959e-06
8.3422e-05
8.30183e-05
-0.000101329
0.00762328
-0.000152681
0.01009
-0.00019767
0.0120797
-0.000235546
0.0135363
-0.00025596
0.0144381
-0.00025337
0.014792
-0.000225963
0.0145997
-0.000178638
0.0138694
-0.000126561
0.0126192
-7.82379e-05
0.0109019
-4.30747e-05
0.0088046
-1.95186e-05
0.00643611
-6.67094e-06
0.00390843
-1.14313e-06
0.00130988
0.00074216
0.0101484
0.000466297
0.0103277
0.000203171
0.0105808
6.42441e-07
0.0109367
-7.05584e-05
0.0114004
5.7598e-05
0.011958
0.000411351
0.0125794
0.00094974
0.0132403
0.00157712
0.0139338
0.00215732
0.0146532
0.00256863
0.015385
0.00277074
0.0161022
0.00278585
0.0168043
0.00266337
0.0174483
0.00239794
0.0177066
0.00191964
0.0168363
0.00122011
0.0143019
0.000514143
0.0105649
7.04274e-05
0.00679348
-9.23138e-05
8.24872e-05
0.00377404
-0.00100074
0.000950265
6.41109e-05
2.79043e-05
-0.000517099
0.00053756
3.70505e-06
9.64977e-06
2.84083e-05
1.59015e-05
-0.000111684
0.000119778
1.82568e-05
-0.000103613
1.44191e-05
9.50707e-05
2.14181e-06
5.48147e-06
-2.12094e-05
2.09335e-05
-2.15333e-05
2.17804e-05
8.24724e-05
8.1446e-05
0.000226269
-1.0323e-05
0.000185618
-2.25982e-05
0.000309548
-2.07399e-05
0.000296774
-6.97329e-06
0.0011802
-3.36196e-06
-6.6989e-07
-1.23079e-05
0.00469245
-3.88866e-06
0.00117252
-9.6648e-07
1.89708e-07
0.000288156
-2.4114e-06
0.000285635
-6.97378e-07
0.000162993
-4.26855e-05
0.000112398
7.96026e-05
7.56067e-05
-6.86974e-05
0.0075393
-0.000122685
0.010015
-0.000179095
0.0120233
-0.000229872
0.0135102
-0.000264628
0.0144493
-0.000267986
0.014834
-0.000237732
0.0146588
-0.000185304
0.0139281
-0.000128268
0.0126692
-7.86125e-05
0.0109375
-4.1855e-05
0.00882694
-1.92862e-05
0.00644872
-6.33856e-06
0.00391362
-1.03166e-06
0.00131091
0.00060968
0.0101357
0.000314923
0.0102997
-5.62744e-06
0.0105365
-0.000302358
0.0108838
-0.0004877
0.0113539
-0.000472095
0.0119301
-0.000197729
0.0125671
0.00030402
0.0132251
0.000933349
0.0138841
0.00154449
0.0145467
0.00201496
0.0152069
0.00229805
0.0158577
0.00240012
0.0164879
0.00236371
0.0171039
0.0022221
0.0176242
0.00196482
0.0176614
0.00152374
0.0165327
0.000925277
0.0138908
0.000363604
0.0102718
1.59023e-05
0.00668526
-0.000632063
0.0015989
4.72938e-05
1.86252e-05
-0.000113778
0.000121028
0.00376678
-0.000558221
-9.73139e-06
6.09663e-06
1.1471e-06
-0.000143369
0.000145434
1.63987e-06
-0.000137759
4.04019e-06
0.000130768
1.74177e-05
8.91072e-06
-4.29758e-05
5.09834e-05
1.02491e-05
-2.85568e-05
2.30753e-05
6.52837e-05
4.26855e-05
9.16584e-05
8.46851e-05
0.000282672
-3.98733e-07
0.000282237
-2.35525e-07
0.0011617
-1.10131e-06
-3.79012e-07
-8.15197e-06
0.00463568
-3.77772e-06
0.00115857
-6.36112e-07
-1.30819e-07
0.000281417
-1.45938e-07
0.000281478
1.28576e-07
8.22738e-05
8.15764e-05
-5.34676e-05
0.00747008
-0.000108187
0.00994411
-0.000174876
0.0119683
-0.000241101
0.0134867
-0.000282985
0.0144643
-0.000283958
0.0148802
-0.00024621
0.0147197
-0.000187011
0.0139869
-0.000126323
0.0127169
-7.65909e-05
0.0109722
-4.13535e-05
0.00884901
-1.86635e-05
0.00646105
-6.18071e-06
0.00391877
-8.95556e-07
0.0013118
0.000485835
0.01012
0.000186113
0.0102645
-0.000184099
0.0104782
-0.000576944
0.0108111
-0.000892163
0.0112883
-0.00100917
0.0118909
-0.000826495
0.0125588
-0.000361779
0.0132329
0.000286032
0.0138724
0.000941101
0.0144875
0.00147124
0.0150904
0.00182841
0.0156765
0.00201099
0.0162468
0.0020533
0.0167983
0.00198999
0.017336
0.00185188
0.0177371
0.00161078
0.0175744
0.00121459
0.0162434
0.000709647
0.0135447
0.000252083
0.0100356
-2.26234e-05
0.00659411
0.00162975
3.28306e-05
5.73464e-05
-0.000234446
0.000263398
1.342e-05
4.92191e-06
-0.000217828
1.67262e-06
3.33658e-07
-0.000100462
7.63184e-05
0.00379093
-0.000137329
-2.66099e-07
-3.0845e-07
-8.96558e-05
0.000147041
4.48955e-06
1.08589e-05
-7.34519e-05
7.49911e-05
1.00564e-07
-7.0059e-05
6.47291e-07
6.30983e-05
5.30278e-06
1.94994e-06
1.02491e-05
8.11777e-05
8.09421e-05
0.000280426
-4.90755e-08
0.000280228
-1.81673e-07
0.0011517
-8.23129e-07
-4.53732e-07
-5.94921e-06