/*--------------------------------*- C++ -*----------------------------------*\
| =========                 |                                                 |
| \\      /  F ield         | OpenFOAM: The Open Source CFD Toolbox           |
|  \\    /   O peration     | Version:  v1912                                 |
|   \\  /    A nd           | Website:  www.openfoam.com                      |
|    \\/     M anipulation  |                                                 |
\*---------------------------------------------------------------------------*/
FoamFile
{
    version     2.0;
    format      ascii;
    class       volVectorField;
    location    "420";
    object      U;
}
// * * * * * * * * * * * * * * * * * * * * * * * * * * * * * * * * * * * * * //

dimensions      [0 1 -1 0 0 0 0];


internalField   nonuniform List<vector> 
3673
(
(0.648257 -0.0256078 -1.62634e-21)
(0.974712 -0.0153631 -5.28041e-20)
(0.298446 -0.0525883 -3.7824e-24)
(1.01654 -0.0105049 2.4639e-20)
(0.7662 -0.0576411 -2.31876e-24)
(0.17566 -0.0544148 1.97807e-20)
(1.00674 -0.0139721 -1.92383e-37)
(0.96171 -0.0542874 1.54255e-24)
(0.569338 -0.0968626 -1.80909e-20)
(0.125032 -0.0463269 2.43014e-20)
(0.999504 -0.0165666 -2.65429e-41)
(1.00913 -0.0525274 0)
(0.844302 -0.10424 -2.37389e-20)
(0.437003 -0.110799 -2.40359e-20)
(0.108605 -0.0401343 2.83522e-20)
(0.997588 -0.017158 -4.1045e-24)
(1.00897 -0.0523661 -7.0242e-24)
(0.969714 -0.100972 4.82542e-20)
(0.721202 -0.138682 2.52978e-20)
(0.366001 -0.111254 0)
(0.105338 -0.037607 -3.11398e-20)
(0.997507 -0.0167904 -3.76841e-51)
(1.00227 -0.0524901 1.80904e-20)
(1.00446 -0.0971831 -2.58948e-20)
(0.899221 -0.145393 -2.22323e-20)
(0.627101 -0.157067 2.82932e-20)
(0.333869 -0.109682 3.38528e-20)
(0.106077 -0.0369496 0)
(0.997704 -0.0159519 0)
(0.998162 -0.0518803 1.7957e-21)
(1.00482 -0.094669 0)
(0.976962 -0.144084 7.04679e-24)
(0.825725 -0.178542 3.78917e-21)
(0.568548 -0.166192 0)
(0.321417 -0.108926 0)
(0.108167 -0.03702 0)
(0.997856 -0.0147793 2.2943e-20)
(0.996161 -0.0501856 -2.01813e-20)
(0.998453 -0.092467 0)
(0.997281 -0.140951 1.74274e-20)
(0.936988 -0.185351 -2.6163e-20)
(0.767543 -0.200947 0)
(0.537 -0.170684 -7.36517e-24)
(0.318227 -0.108865 0)
(0.110374 -0.0372872 0)
(0.997967 -0.0132989 -2.30652e-20)
(0.994874 -0.0474452 0)
(0.99305 -0.0896491 2.03407e-23)
(0.995642 -0.137755 -1.7472e-20)
(0.981223 -0.185633 0)
(0.89813 -0.218021 1.3501e-23)
(0.728801 -0.214958 6.71149e-24)
(0.522117 -0.172665 -3.08431e-20)
(0.318903 -0.108955 3.39585e-20)
(0.112043 -0.037528 -6.8131e-24)
(0.998076 -0.0114944 0)
(0.993648 -0.0437019 0)
(0.988866 -0.0857457 -2.26666e-23)
(0.988963 -0.134382 -4.15993e-23)
(0.990273 -0.183936 -3.61376e-23)
(0.96293 -0.224701 0)
(0.868038 -0.241531 -1.41358e-23)
(0.706066 -0.222615 2.71936e-20)
(0.516218 -0.173118 5.44975e-22)
(0.32057 -0.108934 -3.21484e-20)
(0.113035 -0.0376696 1.32181e-23)
(0.998207 -0.00935125 -2.54806e-23)
(0.992335 -0.0389146 0)
(0.98496 -0.0804617 0)
(0.981951 -0.130233 2.3607e-23)
(0.986021 -0.181837 2.13308e-23)
(0.985029 -0.227004 1.82469e-23)
(0.947866 -0.255548 0)
(0.848132 -0.256321 0)
(0.693911 -0.225748 7.92382e-22)
(0.514356 -0.17271 -4.11855e-22)
(0.321945 -0.108754 0)
(0.113429 -0.0376877 -6.40448e-24)
(0.998369 -0.00687693 0)
(0.990969 -0.0330171 -2.80735e-20)
(0.980812 -0.0735138 0)
(0.974729 -0.124674 0)
(0.977808 -0.179316 0)
(0.986531 -0.228226 -2.21743e-20)
(0.982781 -0.263178 0)
(0.938184 -0.27675 1.28627e-23)
(0.836132 -0.26387 1.11372e-21)
(0.687635 -0.22621 2.45049e-20)
(0.513881 -0.171905 -2.59556e-20)
(0.322604 -0.108381 0)
(0.113298 -0.037581 0)
(0.998571 -0.00411096 2.78319e-20)
(0.989649 -0.0259773 2.81539e-20)
(0.976338 -0.0646145 1.93963e-24)
(0.966667 -0.117064 0)
(0.96776 -0.175737 2.92459e-20)
(0.979755 -0.22943 2.24395e-20)
(0.992393 -0.268941 3.95147e-23)
(0.984451 -0.289375 -1.36027e-23)
(0.932776 -0.288782 -3.70586e-20)
(0.828935 -0.266669 0)
(0.684247 -0.225417 4.61356e-20)
(0.513573 -0.170864 0)
(0.322426 -0.107799 0)
(0.112746 -0.0373719 1.00327e-23)
(0.998819 -0.0011332 -5.5997e-20)
(0.988513 -0.0178461 -2.86985e-23)
(0.971713 -0.0535179 3.16837e-20)
(0.957457 -0.106728 3.32088e-20)
(0.955537 -0.170224 -2.9586e-20)
(0.968823 -0.230469 0)
(0.990212 -0.275165 0)
(1.0034 -0.299239 1.71085e-20)
(0.988206 -0.304897 1.23759e-20)
(0.929494 -0.294371 1.13829e-20)
(0.824433 -0.266997 -2.11747e-20)
(0.682143 -0.224031 5.01683e-24)
(0.512865 -0.169628 -2.2231e-20)
(0.321441 -0.107038 -2.374e-20)
(0.111872 -0.0370853 -8.88718e-25)
(0.999115 0.00193422 2.81852e-20)
(0.987734 -0.00879677 3.02599e-20)
(0.9673 -0.040088 -3.15818e-20)
(0.947218 -0.0929509 -6.88147e-20)
(0.940507 -0.161692 -6.72535e-23)
(0.953863 -0.23063 5.84334e-23)
(0.981969 -0.282672 0)
(1.0087 -0.309616 -1.67866e-20)
(1.01598 -0.317074 1.36513e-20)
(0.991501 -0.312692 -1.09268e-20)
(0.927257 -0.296431 0)
(0.821498 -0.266063 -1.97971e-20)
(0.680411 -0.222311 1.95886e-20)
(0.511493 -0.168248 2.01297e-20)
(0.319763 -0.106158 1.00718e-23)
(0.110788 -0.0367429 -9.26824e-24)
(0.999453 0.00493209 5.54218e-23)
(0.9875 0.000844383 -3.00997e-20)
(0.963632 -0.0244015 1.35485e-22)
(0.936484 -0.0750442 -2.09294e-21)
(0.922369 -0.148779 0)
(0.93374 -0.228813 -3.88276e-20)
(0.968448 -0.2916 -5.72173e-23)
(1.00743 -0.322246 3.3085e-23)
(1.0293 -0.328849 -1.34091e-20)
(1.02603 -0.325992 0)
(0.993797 -0.316281 0)
(0.925823 -0.296556 9.14682e-21)
(0.819316 -0.264421 -1.81658e-20)
(0.678494 -0.220436 1.31008e-23)
(0.509429 -0.166804 0)
(0.317554 -0.105185 -1.01026e-23)
(0.109559 -0.0363618 0)
(0.999819 0.00768113 0)
(0.987967 0.0105945 -5.75179e-23)
(0.961387 -0.00687066 -3.33969e-20)
(0.926292 -0.0524951 7.59397e-20)
(0.901323 -0.129741 -9.11676e-24)
(0.907097 -0.223422 3.97747e-20)
(0.948212 -0.301858 0)
(1.0017 -0.338211 0)
(1.03624 -0.342198 -3.21718e-23)
(1.04531 -0.337726 0)
(1.03315 -0.330366 -9.15947e-24)
(0.995707 -0.317484 8.94258e-21)
(0.924827 -0.295521 1.69684e-20)
(0.817278 -0.262455 8.47153e-24)
(0.676165 -0.218542 -8.48437e-24)
(0.506753 -0.165321 0)
(0.314948 -0.104151 -8.41741e-24)
(0.108236 -0.0359555 -1.53794e-20)
(1.00019 0.0100088 0)
(0.989202 0.0198531 -1.19389e-22)
(0.961259 0.0116549 3.32422e-20)
(0.918304 -0.0252976 -7.69567e-20)
(0.878296 -0.102375 -4.73582e-20)
(0.872686 -0.212047 1.86842e-22)
(0.918778 -0.313293 0)
(0.991137 -0.358608 -2.37674e-20)
(1.04025 -0.358154 2.54033e-23)
(1.0577 -0.349872 0)
(1.05643 -0.341965 0)
(1.03877 -0.332165 9.09017e-25)
(0.997349 -0.317172 8.35844e-24)
(0.92383 -0.293896 -7.78089e-21)
(0.815073 -0.260417 -7.11834e-24)
(0.673374 -0.216678 0)
(0.50357 -0.163818 -7.27131e-24)
(0.312067 -0.10308 1.62646e-20)
(0.106871 -0.0355348 6.46485e-24)
(1.00053 0.0117793 2.49848e-20)
(0.991141 0.0279839 -2.77644e-20)
(0.963738 0.0299268 1.20086e-22)
(0.914682 0.00558306 7.62966e-20)
(0.855679 -0.0645188 4.59082e-20)
(0.829833 -0.190257 0)
(0.876383 -0.325808 0)
(0.974128 -0.384814 2.31491e-20)
(1.04212 -0.377166 2.49863e-23)
(1.06702 -0.363239 -4.68519e-24)
(1.07174 -0.352986 0)
(1.06506 -0.343635 0)
(1.0434 -0.332252 7.76882e-25)
(0.998496 -0.316039 1.78475e-23)
(0.922622 -0.292067 0)
(0.812595 -0.258421 1.39671e-20)
(0.670153 -0.214861 -6.49186e-24)
(0.500006 -0.16231 1.39254e-23)
(0.309005 -0.101984 -7.01939e-24)
(0.105481 -0.0351069 -1.24173e-23)
(1.00082 0.012919 -4.89376e-20)
(0.993587 0.0344351 1.27995e-21)
(0.96887 0.0464771 2.96219e-20)
(0.917221 0.0379098 -3.73582e-20)
(0.838864 -0.0160153 -8.35554e-22)
(0.779785 -0.149106 -6.5697e-20)
(0.813489 -0.337453 5.21381e-20)
(0.945751 -0.417854 -7.77688e-23)
(1.03971 -0.398306 -4.76131e-23)
(1.07317 -0.377276 -1.05346e-20)
(1.08255 -0.363865 -2.0208e-23)
(1.08215 -0.353616 0)
(1.07199 -0.343518 -7.66708e-21)
(1.04694 -0.331391 7.17151e-21)
(0.999109 -0.314566 -6.91483e-24)
(0.921142 -0.290215 -1.2992e-20)
(0.809798 -0.256498 5.94886e-24)
(0.666552 -0.213088 6.49651e-24)
(0.496148 -0.160796 -6.65372e-24)
(0.305824 -0.10088 7.04216e-24)
(0.104089 -0.0346783 -1.17869e-20)
(1.00103 0.013426 2.39638e-20)
(0.996248 0.0388541 2.65116e-20)
(0.976143 0.0599233 -2.94393e-20)
(0.926633 0.068394 1.27682e-22)
(0.835796 0.0394528 4.53978e-20)
(0.7305 -0.0779191 6.71385e-20)
(0.714091 -0.332562 -5.44745e-20)
(0.888031 -0.452128 -3.1395e-20)
(1.02036 -0.416121 7.7334e-23)
(1.0687 -0.387785 1.04897e-20)
(1.08635 -0.372701 -1.9596e-23)
(1.09251 -0.361956 0)
(1.08991 -0.352419 7.52387e-21)
(1.07716 -0.342405 6.58264e-25)
(1.04949 -0.330098 6.46426e-21)
(0.999238 -0.312979 0)
(0.919345 -0.288412 0)
(0.806681 -0.254653 1.16557e-20)
(0.662623 -0.211352 0)
(0.492078 -0.159292 0)
(0.30259 -0.099781 1.23587e-20)
(0.10271 -0.0342527 5.44093e-24)
(1.00116 0.0133616 0)
(0.998815 0.0411594 -2.34893e-20)
(0.984552 0.0692983 -5.06794e-23)
(0.942229 0.0935817 -3.01811e-20)
(0.849498 0.0951818 -8.42377e-20)
(0.701501 0.0217994 -6.32047e-20)
(0.561981 -0.26916 -4.19417e-20)
(0.75343 -0.456739 3.81178e-20)
(0.94156 -0.407986 0)
(1.0258 -0.382149 3.42082e-23)
(1.06877 -0.371873 8.60054e-21)
(1.09053 -0.365252 0)
(1.09816 -0.35813 7.1568e-21)
(1.09495 -0.350183 -6.25441e-24)
(1.0808 -0.340795 -6.31555e-21)
(1.05122 -0.328614 0)
(0.998897 -0.311393 5.63617e-21)
(0.917221 -0.286682 -5.39591e-21)
(0.80326 -0.252876 5.42982e-24)
(0.658442 -0.209653 -1.06557e-20)
(0.487878 -0.157802 -5.05324e-24)
(0.299333 -0.0986934 -5.24849e-25)
(0.101367 -0.0338371 -4.53048e-24)
(1.00121 0.0128237 0)
(1.00105 0.0415188 2.36954e-20)
(0.99292 0.0742937 -9.44059e-23)
(0.961655 0.110852 2.95396e-20)
(0.879816 0.142909 7.24597e-20)
(0.708335 0.129245 5.79011e-20)
(0.5312 -0.0921707 3.71828e-20)
(0.497658 -0.00831531 9.41952e-22)
(0.539994 -0.468443 0)
(0.356848 -0.211917 7.38478e-20)
(0.385481 -0.386063 -3.66752e-22)
(0.810294 -0.386418 0)
(0.505082 -0.313784 -1.23067e-20)
(0.637877 -0.295915 0)
(0.87768 -0.329163 0)
(0.737514 -0.290305 0)
(0.991857 -0.343772 -9.04975e-21)
(1.05621 -0.353801 7.63129e-21)
(1.08804 -0.356002 -7.16706e-21)
(1.09964 -0.353246 3.03083e-24)
(1.09768 -0.34736 6.02016e-21)
(1.08317 -0.338912 1.659e-23)
(1.0522 -0.327078 -5.42606e-21)
(0.998105 -0.30984 -5.15737e-21)
(0.91478 -0.285012 -4.96296e-21)
(0.799566 -0.251151 9.61957e-21)
(0.654065 -0.207986 0)
(0.483601 -0.156338 4.47329e-25)
(0.296107 -0.0976277 -5.36492e-24)
(0.100057 -0.0334315 -9.04628e-21)
(1.00121 0.0119218 -3.90177e-23)
(1.00284 0.0402533 0)
(1.00035 0.0752628 0)
(0.981583 0.119495 -2.00896e-22)
(0.920175 0.174899 -3.31572e-20)
(0.761093 0.225154 -4.0298e-22)
(0.490106 0.0979947 0)
(0.51496 0.197719 -2.47937e-20)
(0.279533 -0.0816357 -3.73206e-20)
(0.290205 -0.324488 3.21012e-22)
(0.203192 -0.256378 -1.15172e-20)
(0.199064 -0.237642 8.63656e-21)
(0.169255 -0.155895 4.11008e-21)
(0.30304 -0.251701 -2.01194e-22)
(0.460983 -0.215882 3.60755e-23)
(0.257306 -0.107478 0)
(0.165904 -0.114719 -5.70134e-22)
(0.50942 -0.188429 -6.06111e-22)
(0.360148 -0.146549 -9.76926e-22)
(0.655319 -0.233171 0)
(0.793104 -0.262451 0)
(0.588202 -0.194257 -1.22269e-23)
(0.949812 -0.310331 -8.18483e-21)
(1.03643 -0.335812 0)
(1.08004 -0.346129 0)
(1.09783 -0.347731 -1.55663e-22)
(1.09852 -0.344164 0)
(1.08439 -0.336934 -1.07011e-23)
(1.0525 -0.325526 -1.01216e-23)
(0.996877 -0.308307 9.41202e-21)
(0.912023 -0.283388 4.53219e-21)
(0.795638 -0.249473 0)
(0.649554 -0.206359 0)
(0.479295 -0.154899 4.62571e-24)
(0.292921 -0.0965892 9.40732e-21)
(0.0987917 -0.0330384 8.2971e-21)
(1.00117 0.0107566 -3.69248e-23)
(1.00417 0.0377297 3.94407e-23)
(1.0064 0.0729791 0)
(0.999141 0.120537 0)
(0.960895 0.188719 1.92163e-22)
(0.848257 0.283427 7.18189e-22)
(0.557916 0.292655 2.36738e-20)
(0.621281 0.367649 -7.37654e-23)
(0.23734 0.0583138 0)
(0.344405 0.250598 8.33151e-23)
(0.318175 0.182591 0)
(0.0654989 -0.0970179 6.71513e-22)
(0.107767 -0.169557 7.83853e-21)
(0.116986 -0.159172 -3.79653e-21)
(0.0781546 -0.0985719 0)
(0.14823 -0.0588841 7.85609e-22)
(0.0851071 -0.0375954 -2.48813e-21)
(0.244138 -0.0762338 6.43658e-22)
(0.421472 -0.131149 0)
(0.288619 -0.0995344 9.24687e-22)
(0.541301 -0.166867 3.21638e-21)
(0.726611 -0.219835 -1.91008e-21)
(0.507219 -0.14919 0)
(0.367535 -0.108591 -1.0841e-23)
(0.907762 -0.283924 7.13316e-21)
(1.01231 -0.319167 -1.19015e-23)
(1.06836 -0.336059 -5.90275e-21)
(1.0935 -0.341838 4.63554e-24)
(1.09773 -0.34088 0)
(1.08463 -0.334899 8.98175e-24)
(1.05216 -0.323936 -4.53466e-21)
(0.995218 -0.306785 -4.2954e-21)
(0.908969 -0.281803 4.14063e-21)
(0.791524 -0.247841 3.77469e-24)
(0.64495 -0.204765 8.13099e-21)
(0.475 -0.153499 0)
(0.289801 -0.09558 -8.6025e-21)
(0.0975717 -0.0326589 -3.48622e-24)
(1.0011 0.00941174 0)
(1.0051 0.0342922 -1.86065e-20)
(1.01098 0.0683111 0)
(1.01294 0.115825 -1.88373e-20)
(0.996875 0.187154 -1.94282e-20)
(0.937402 0.301132 2.13957e-20)
(0.698321 0.42905 0)
(0.782051 0.457655 -7.29844e-22)
(0.317799 0.348826 2.24226e-20)
(0.423963 0.461956 -2.04149e-20)
(0.0422496 -0.046941 0)
(0.0314248 0.00752348 0)
(0.171054 0.150618 -1.17857e-20)
(0.19305 0.236384 1.15823e-20)
(0.0394687 -0.0792996 -1.46561e-20)
(0.105219 -0.0314428 5.13942e-22)
(0.214923 -0.060335 1.34003e-23)
(0.0816514 -0.022363 -4.04622e-23)
(0.199635 -0.0545156 8.62982e-22)
(0.332518 -0.0930217 -3.65309e-21)
(0.480864 -0.136029 -3.33173e-21)
(0.67601 -0.195209 -7.91178e-21)
(0.461285 -0.127364 2.0361e-22)
(0.307924 -0.084395 0)
(0.175204 -0.0472965 7.19507e-24)
(0.185075 -0.0498509 -1.4339e-23)
(0.867553 -0.263008 -6.68555e-21)
(0.986309 -0.303846 1.27527e-23)
(1.05429 -0.326028 -1.0107e-23)
(1.08724 -0.33609 -7.98056e-25)
(1.09568 -0.337553 8.76478e-24)
(1.084 -0.332769 -1.71774e-23)
(1.05121 -0.322305 4.11734e-21)
(0.993147 -0.305274 -3.92458e-21)
(0.905656 -0.280254 7.39311e-24)
(0.787253 -0.246248 -1.47471e-20)
(0.640296 -0.203213 7.43574e-21)
(0.470744 -0.152136 0)
(0.286758 -0.0946047 -3.74707e-24)
(0.0964044 -0.0322939 3.50495e-24)
(1.00101 0.00795273 0)
(1.00572 0.0302294 1.08607e-21)
(1.01423 0.0620062 0)
(1.023 0.107261 1.91076e-20)
(1.02435 0.175663 3.59519e-20)
(1.0062 0.2888 -4.79965e-21)
(0.897778 0.543077 -5.45809e-21)
(0.559801 0.55247 0)
(0.692841 0.607222 1.03739e-20)
(0.0642224 0.190839 2.69152e-21)
(0.100177 0.248277 0)
(0.206951 0.347953 -1.27374e-21)
(0.148866 0.301238 -8.94926e-22)
(0.0310279 0.06861 -3.73779e-22)
(0.0412075 0.129508 0)
(0.0696662 -0.0176518 0)
(0.0645994 -0.016189 -5.55445e-22)
(0.16507 -0.0433198 9.85206e-22)
(0.158996 -0.0416131 -7.4929e-24)
(0.290765 -0.0770559 3.75404e-21)
(0.443706 -0.120984 -3.28245e-24)
(0.634546 -0.179058 5.58776e-21)
(0.429575 -0.115964 -3.23605e-21)
(0.278161 -0.0729637 2.26192e-21)
(0.147448 -0.0383915 0)
(0.152109 -0.0395339 -9.58268e-22)
(0.0566497 -0.0142494 -2.70208e-25)
(0.0601292 -0.0149805 2.695e-25)
(0.829516 -0.245459 6.23061e-21)
(0.959619 -0.289462 -6.99482e-25)
(1.03884 -0.316936 -8.68891e-24)
(1.07982 -0.330522 -4.59258e-21)
(1.09262 -0.334136 -1.6803e-23)
(1.08255 -0.330555 -4.02199e-21)
(1.04968 -0.320643 3.86154e-24)
(0.990699 -0.303769 3.66831e-24)
(0.90211 -0.278735 1.03168e-20)
(0.782865 -0.244695 1.16459e-22)
(0.635624 -0.201703 2.9425e-25)
(0.466545 -0.150814 3.23482e-24)
(0.283809 -0.0936628 3.24993e-25)
(0.0952861 -0.031943 0)
(1.00092 0.0064289 0)
(1.00608 0.025769 2.64224e-20)
(1.0164 0.0546371 0)
(1.02996 0.0963788 0)
(1.04303 0.159081 -2.47016e-21)
(1.05185 0.259446 -1.58514e-20)
(1.04989 0.491278 7.41389e-21)
(0.768539 0.691148 -1.71315e-22)
(0.961557 0.743993 2.57055e-21)
(0.277845 0.47097 -3.67732e-21)
(0.433524 0.582606 7.49049e-21)
(0.655597 0.681899 0)
(0.549857 0.632678 -2.97957e-21)
(0.0533015 -0.0132368 0)
(0.0513088 -0.0127694 5.82304e-25)
(0.142474 -0.0363426 -2.36291e-23)
(0.139693 -0.0355552 -9.99527e-22)
(0.268102 -0.0694833 -7.48135e-22)
(0.415485 -0.111797 5.02756e-23)
(0.596739 -0.165884 -6.9383e-21)
(0.402997 -0.107637 0)
(0.259489 -0.0671554 2.92553e-21)
(0.134018 -0.0340091 1.01297e-21)
(0.136276 -0.0346094 3.94351e-24)
(0.0474658 -0.0118548 2.40276e-24)
(0.049175 -0.0122065 6.10812e-22)
(0.792411 -0.229112 -1.20512e-23)
(0.933438 -0.27749 -1.97314e-23)
(1.02335 -0.308641 4.74913e-21)
(1.07168 -0.325051 0)
(1.08867 -0.330667 8.04054e-24)
(1.08036 -0.328288 3.44348e-24)
(1.04761 -0.318956 0)
(0.987908 -0.302271 -3.272e-21)
(0.898363 -0.277244 -3.09913e-21)
(0.778385 -0.243181 -6.2209e-21)
(0.630959 -0.200236 2.67131e-25)
(0.462425 -0.149532 -6.20509e-24)
(0.280951 -0.0927539 6.85778e-21)
(0.0942129 -0.0316045 -2.69303e-24)
(1.00082 0.00487691 0)
(1.00627 0.0210816 -8.60538e-21)
(1.01774 0.0466284 0)
(1.03448 0.0842269 1.43699e-20)
(1.05491 0.140228 -1.45181e-20)
(1.08024 0.225827 0)
(1.12164 0.4047 -1.25485e-20)
(1.17802 0.628744 -1.47567e-21)
(0.458772 0.472318 0)
(0.597262 0.476671 -5.64027e-21)
(0.380842 0.324255 4.35227e-21)
(0.80733 0.496759 -3.34415e-23)
(0.0996982 0.200567 0)
(0.253381 0.347162 0)
(0.344684 0.370836 0)
(0.0458476 -0.011332 -1.26107e-21)
(0.0449649 -0.0111162 5.36959e-24)
(0.131193 -0.0330933 1.00831e-21)
(0.129607 -0.0325932 1.01609e-21)
(0.251638 -0.0648013 2.14359e-21)
(0.389141 -0.104049 0)
(0.554937 -0.151252 1.52715e-21)
(0.374489 -0.099251 0)
(0.244068 -0.062842 -6.54453e-22)
(0.125738 -0.0316535 -9.92254e-22)
(0.127304 -0.0321438 1.99417e-21)
(0.0431749 -0.0106753 0)
(0.0439661 -0.0108622 -3.09988e-25)
(0.75822 -0.216484 -4.37588e-23)
(0.90982 -0.267254 2.00633e-23)
(1.00831 -0.300916 0)
(1.06299 -0.31974 -3.67873e-24)
(1.08396 -0.327201 -3.58982e-21)
(1.07751 -0.325987 -3.43731e-24)
(1.04507 -0.317246 3.15843e-21)
(0.984805 -0.300777 -2.99562e-21)
(0.894434 -0.275781 5.73693e-21)
(0.77383 -0.241705 -2.88782e-24)
(0.626314 -0.198807 2.88824e-24)
(0.458394 -0.148289 -5.70691e-21)
(0.278189 -0.0918727 2.88562e-24)
(0.0931789 -0.0312778 5.40629e-21)
(1.00072 0.00332273 0)
(1.00632 0.0162904 1.53564e-23)
(1.01846 0.0382902 -1.28139e-23)
(1.03715 0.0714687 -1.45907e-20)
(1.06201 0.12055 0)
(1.09706 0.19356 0)
(1.15003 0.322544 7.97721e-21)
(1.31849 0.540425 3.00549e-24)
(0.824122 0.262935 0)
(1.16794 0.393771 6.46226e-23)
(0.186697 0.213671 -4.39537e-23)
(0.208621 0.139019 0)
(0.610623 0.280077 5.46511e-23)
(0.236531 0.120499 5.57507e-21)
(0.0423217 -0.010433 -6.42664e-22)
(0.0418297 -0.0102917 0)
(0.123568 -0.0311038 -9.59372e-25)
(0.122273 -0.0306387 1.05886e-23)
(0.236133 -0.0606886 -1.32105e-21)
(0.354512 -0.0939521 -2.78414e-21)
(0.516524 -0.139958 0)
(0.32936 -0.0850357 -2.69602e-21)
(0.226487 -0.0582893 1.01909e-23)
(0.118983 -0.0298469 5.50457e-24)
(0.120365 -0.0303375 3.67562e-24)
(0.0406208 -0.010007 0)
(0.0411843 -0.0101588 -6.34334e-22)
(0.730545 -0.206304 4.48206e-23)
(0.888795 -0.258247 1.72431e-23)
(0.993714 -0.29378 3.76973e-24)
(1.05388 -0.314631 3.65318e-21)
(1.07862 -0.323763 0)
(1.07409 -0.323661 -3.09484e-21)
(1.0421 -0.315518 0)
(0.981412 -0.299292 2.80943e-24)
(0.89034 -0.274348 2.70364e-24)
(0.769228 -0.240266 5.23751e-21)
(0.621722 -0.197415 -2.4256e-24)
(0.454454 -0.147074 0)
(0.275511 -0.0910194 -5.54506e-21)
(0.0921888 -0.0309633 4.86069e-21)
(1.00063 0.00178496 0)
(1.00627 0.011483 0)
(1.01874 0.0298378 -1.50158e-23)
(1.03848 0.0585265 2.74204e-23)
(1.0658 0.100915 5.18774e-21)
(1.10573 0.163118 0)
(1.16205 0.257827 -3.18469e-21)
(1.33429 0.429974 0)
(1.34851 0.348767 -5.05509e-20)
(0.19643 0.0518906 4.80915e-21)
(0.658664 0.16693 0)
(0.312605 0.0779092 0)
(0.900304 0.16625 3.46357e-20)
(0.0399806 -0.00984783 -6.20021e-22)
(0.0395541 -0.00971591 6.14375e-22)
(0.117032 -0.0294478 4.77583e-24)
(0.115535 -0.0289196 1.80888e-21)
(0.211047 -0.0543957 2.12492e-21)
(0.306199 -0.0800277 0)
(0.491962 -0.131752 0)
(0.294669 -0.0766978 0)
(0.176517 -0.0438646 0)
(0.110623 -0.0278161 1.73489e-21)
(0.113376 -0.0286387 -3.77781e-24)
(0.038535 -0.00947317 5.96384e-22)
(0.0390216 -0.00961732 -5.8467e-25)
(0.707946 -0.198001 1.93613e-23)
(0.869709 -0.25032 -1.74842e-23)
(0.979537 -0.287182 -3.79979e-24)
(1.04447 -0.309727 3.31515e-21)
(1.07275 -0.32036 0)
(1.07016 -0.321313 -2.65823e-24)
(1.03873 -0.313781 0)
(0.977752 -0.297827 -4.74285e-24)
(0.886109 -0.272946 -4.81587e-21)
(0.764603 -0.238853 -1.99966e-25)
(0.617174 -0.196043 2.01815e-25)
(0.450607 -0.14589 4.96554e-21)
(0.272921 -0.0901924 0)
(0.0912436 -0.0306621 -2.08477e-24)
(1.00054 0.000277009 0)
(1.00617 0.00671993 -7.84796e-21)
(1.01872 0.0214146 0)
(1.03888 0.0456686 1.09653e-23)
(1.06734 0.0818331 -5.28055e-21)
(1.10885 0.134372 -3.12605e-21)
(1.16695 0.207289 -1.1678e-21)
(1.30672 0.331283 -2.98584e-23)
(1.48326 0.339417 3.60156e-20)
(1.03738 0.098883 2.67947e-20)
(0.460883 0.0513609 4.70738e-22)
(0.179206 0.0101238 -1.05972e-20)
(0.60541 0.0138514 2.56464e-20)
(0.0379752 -0.00934976 3.33756e-24)
(0.0374901 -0.00920379 -1.15226e-21)
(0.105496 -0.0270358 -8.40474e-22)
(0.0971053 -0.0232846 4.20014e-22)
(0.15184 -0.0387185 6.00489e-22)
(0.286553 -0.0741849 0)
(0.474362 -0.126203 -1.45834e-21)
(0.281148 -0.0722088 0)
(0.145156 -0.0365327 -5.55258e-22)
(0.0431787 -0.011703 -1.79927e-22)
(0.0652261 -0.0121137 -2.63832e-22)
(0.0360199 -0.00887765 -5.54617e-22)
(0.0368796 -0.00910648 -5.67065e-22)
(0.68854 -0.191066 -4.81768e-21)
(0.852126 -0.243239 0)
(0.965704 -0.281046 -3.4849e-21)
(1.03481 -0.305006 0)
(1.06642 -0.316981 0)
(1.06576 -0.318957 2.65296e-24)
(1.03499 -0.312057 0)
(0.973853 -0.296387 9.09159e-24)
(0.881763 -0.271557 0)
(0.759957 -0.237451 -2.22535e-24)
(0.612688 -0.194695 -4.29422e-21)
(0.446857 -0.144733 2.29105e-24)
(0.270429 -0.0893937 0)
(0.0903261 -0.0303696 2.0942e-24)
(1.00046 -0.00119038 0)
(1.00601 0.00204379 1.58339e-20)
(1.01848 0.0131105 -7.12517e-21)
(1.03866 0.0330498 0)
(1.0674 0.0635149 -1.80512e-23)
(1.10865 0.107511 3.19537e-21)
(1.1668 0.165807 1.21688e-21)
(1.27624 0.253634 6.14318e-21)
(1.47203 0.289439 3.2259e-23)
(1.41619 0.163028 -9.35493e-20)
(0.674302 -0.0334346 -9.26705e-20)
(0.370386 -0.0179586 3.92327e-20)
(0.317547 -0.0143778 0)
(0.0974165 -0.0164098 9.96843e-21)
(0.231749 -0.0240749 1.44208e-20)
(0.0340595 -0.00868725 9.63795e-24)
(0.0315546 -0.00827227 0)
(0.037631 -0.00957985 -4.917e-22)
(0.0350699 -0.00890151 -6.09461e-22)
(0.141515 -0.0354474 -6.0405e-22)
(0.275655 -0.0710682 2.49666e-21)
(0.459857 -0.12197 5.45748e-21)
(0.271733 -0.0697101 0)
(0.138731 -0.0346641 5.58989e-22)
(0.0339828 -0.00832691 0)
(0.0343405 -0.00855773 5.77998e-22)
(0.0181668 -0.00320832 9.72872e-23)
(0.671419 -0.184976 0)
(0.835589 -0.236811 -6.99578e-24)
(0.952078 -0.275287 0)
(1.0249 -0.300405 0)
(1.05966 -0.313625 0)
(1.06094 -0.316629 2.39666e-21)
(1.03092 -0.310369 2.26021e-21)
(0.969748 -0.294954 -4.35059e-24)
(0.877315 -0.270165 0)
(0.7553 -0.236053 1.87581e-24)
(0.608267 -0.193365 4.06644e-21)
(0.443207 -0.143603 0)
(0.268006 -0.0886185 -2.04612e-24)
(0.0894503 -0.0300895 1.75909e-24)
(1.00039 -0.00260732 8.19709e-21)
(1.00582 -0.00251395 -7.99067e-21)
(1.0181 0.00498085 7.24236e-21)
(1.03806 0.0207488 -6.01253e-21)
(1.06654 0.0459969 0)
(1.10664 0.0825979 7.16118e-24)
(1.16295 0.130198 0)
(1.253 0.194276 -9.40234e-21)
(1.41558 0.232482 -1.20346e-23)
(1.52906 0.172895 7.99169e-21)
(1.20169 0.0309488 5.39737e-20)
(0.481666 -0.073693 -7.87207e-20)
(0.193506 -0.0283016 4.95372e-20)
(0.234803 -0.047372 -2.02706e-20)
(0.117757 -0.00999065 0)
(0.159079 -0.0225808 1.45594e-23)
(0.0613764 -0.0134614 3.902e-23)
(0.0335563 -0.0082942 5.50444e-22)
(0.0333705 -0.00816784 -5.41346e-22)
(0.136296 -0.0341077 5.37095e-22)
(0.267117 -0.0688942 -2.30233e-21)
(0.447707 -0.117847 1.21272e-21)
(0.263651 -0.0678174 -1.68288e-23)
(0.134227 -0.0335489 5.34747e-22)
(0.0328502 -0.00803098 -5.23699e-22)
(0.0329745 -0.00813944 -2.06013e-24)
(0.655638 -0.179567 -4.18063e-21)
(0.819648 -0.230878 7.05189e-24)
(0.938493 -0.269747 -2.76946e-24)
(1.01472 -0.295869 0)
(1.05252 -0.310344 -2.39803e-21)
(1.05576 -0.314385 -2.21953e-21)
(1.02658 -0.3087 -3.89804e-24)
(0.965463 -0.293504 -3.67842e-24)
(0.872775 -0.268758 1.7633e-24)
(0.750654 -0.23466 -3.627e-21)
(0.603913 -0.192051 -3.73533e-21)
(0.439651 -0.142503 1.77214e-24)
(0.265674 -0.0878705 1.71452e-25)
(0.0886096 -0.029819 -3.38252e-24)
(1.00032 -0.00396319 -8.26451e-21)
(1.00559 -0.00692547 0)
(1.01761 -0.0029384 8.29141e-25)
(1.0372 0.0087967 3.40221e-23)
(1.06515 0.029233 3.52694e-24)
(1.10376 0.0594775 0)
(1.15704 0.098722 1.27125e-24)
(1.23508 0.147653 3.01435e-22)
(1.36147 0.181206 7.1745e-21)
(1.50925 0.155262 5.77793e-20)
(1.46479 0.066423 0)
(0.996008 -0.043728 5.69522e-20)
(0.400263 -0.0723813 -2.0296e-20)
(0.182763 -0.0369385 -2.6674e-22)
(0.170737 -0.0456954 4.70222e-21)
(0.0630574 -0.00908682 -1.95699e-22)
(0.0670719 -0.0146469 -1.22465e-20)
(0.0778957 -0.0153385 1.28709e-20)
(0.0825204 -0.0233506 1.31463e-20)
(0.0229198 -0.00484616 0)
(0.037238 -0.00982226 -9.37995e-21)
(0.0324613 -0.00801646 -5.13151e-22)
(0.0323462 -0.00791605 -5.04448e-22)
(0.132113 -0.0331043 1.52426e-21)
(0.260065 -0.0674042 -2.17753e-21)
(0.436234 -0.114441 5.91374e-21)
(0.258039 -0.0657951 -1.84434e-21)
(0.129991 -0.0326417 0)
(0.031886 -0.00779577 1.92068e-24)
(0.0319909 -0.00789952 -9.92306e-22)
(0.640512 -0.174581 -3.93837e-21)
(0.803878 -0.225189 -3.19031e-21)
(0.92474 -0.26425 2.77707e-24)
(1.00428 -0.291459 -4.60695e-24)
(1.0451 -0.307258 -3.20262e-25)
(1.05033 -0.312207 2.05258e-21)
(1.02202 -0.307011 3.89297e-24)
(0.961007 -0.292024 3.67365e-24)
(0.868164 -0.267338 1.74351e-21)
(0.746017 -0.23327 3.3289e-21)
(0.599641 -0.190762 0)
(0.436203 -0.141432 -1.77408e-24)
(0.263419 -0.0871454 1.88242e-24)
(0.0878022 -0.0295599 -3.25934e-21)
(1.00025 -0.00524438 0)
(1.00531 -0.0111615 2.09597e-24)
(1.017 -0.0106195 0)
(1.03618 -0.00280569 6.18661e-21)
(1.06349 0.0131421 4.58018e-21)
(1.10057 0.0378776 -4.8398e-24)
(1.15048 0.0703865 0)
(1.21981 0.109236 2.8669e-21)
(1.32085 0.138105 -1.39244e-20)
(1.45121 0.127644 -2.69434e-20)
(1.52837 0.0736146 6.42927e-23)
(1.34782 -0.011208 0)
(0.844946 -0.0814907 -1.19881e-22)
(0.355651 -0.0663751 -7.97928e-20)
(0.170145 -0.0309865 -5.55308e-22)
(0.175054 -0.0401981 3.20793e-20)
(0.0913288 -0.0192581 -1.54588e-22)
(0.0871593 -0.0209216 0)
(0.0754421 -0.0175835 -5.62136e-21)
(0.061902 -0.0204688 0)
(0.0111813 -0.00228886 8.03698e-21)
(0.0135837 -0.003945 0)
(0.0170251 -0.00434262 -6.37783e-23)
(0.01465 -0.0064014 -8.18812e-21)
(0.0315199 -0.00778904 4.75902e-22)
(0.0314061 -0.00768894 -4.69482e-22)
(0.128089 -0.0323889 2.29608e-21)
(0.253392 -0.0645612 -4.48126e-22)
(0.425431 -0.111378 5.49492e-21)
(0.250747 -0.0636452 -2.19603e-21)
(0.158134 -0.0420367 0)
(0.158332 -0.0409 5.62555e-22)
(0.0308889 -0.00758362 -1.76057e-24)
(0.0310293 -0.00767046 -4.59359e-22)
(0.625309 -0.169727 3.67117e-21)
(0.787642 -0.219396 0)
(0.910791 -0.258807 0)
(0.993775 -0.287428 4.61767e-24)
(1.03761 -0.304337 -2.07196e-21)
(1.04472 -0.310035 1.89868e-21)
(1.01724 -0.305289 0)
(0.956399 -0.290515 -1.64181e-21)
(0.863498 -0.265907 0)
(0.741418 -0.231888 0)
(0.595463 -0.189494 0)
(0.432854 -0.140391 -3.25963e-21)
(0.26124 -0.0864455 3.29741e-21)
(0.0870244 -0.029311 -2.85293e-24)
(1.00019 -0.00643389 0)
(1.00498 -0.015186 -4.15523e-24)
(1.01628 -0.0180318 3.56426e-24)
(1.03501 -0.0140684 0)
(1.06169 -0.00238017 -9.44132e-21)
(1.09737 0.0174982 2.70246e-21)
(1.14415 0.0444846 1.37387e-24)
(1.20635 0.0762467 0)
(1.29089 0.101606 6.66247e-21)
(1.39703 0.0992955 -1.14373e-23)
(1.49919 0.0652816 0)
(1.49548 0.00621133 -1.35028e-22)
(1.22655 -0.0645156 -4.23978e-20)
(0.741649 -0.0965455 6.0832e-20)
(0.334582 -0.0640884 -9.44828e-20)
(0.156984 -0.0294685 3.32501e-20)
(0.157845 -0.035235 -1.30094e-22)
(0.0621223 -0.0132814 -6.81946e-21)
(0.0900136 -0.0207359 -1.01315e-20)
(0.089907 -0.0227207 9.96495e-21)
(0.043636 -0.010179 -1.33658e-22)
(0.0414936 -0.00933911 0)
(0.0252142 -0.00340086 3.84631e-21)
(0.0121299 -0.0041175 -8.50521e-21)
(0.0305675 -0.00755824 -4.49378e-22)
(0.0303444 -0.00757867 -4.39282e-22)
(0.0937993 -0.0252641 -6.07487e-22)
(0.157204 -0.0398459 5.71197e-22)
(0.156682 -0.039332 0)
(0.247629 -0.0631735 3.34741e-24)
(0.414315 -0.108252 -9.7314e-22)
(0.245074 -0.0622861 -1.63497e-21)
(0.155843 -0.0391115 5.54379e-22)
(0.155184 -0.038853 5.50164e-22)
(0.0939536 -0.0241717 -1.0095e-21)
(0.608774 -0.164556 0)
(0.770723 -0.213182 0)
(0.897027 -0.254022 0)
(0.983594 -0.283721 8.01164e-24)
(1.03015 -0.301486 -1.90842e-21)
(1.03894 -0.307854 0)
(1.01227 -0.303541 0)
(0.951674 -0.288985 0)
(0.858804 -0.264465 0)
(0.73687 -0.230516 0)
(0.591376 -0.188253 5.71357e-21)
(0.429596 -0.139377 -1.37691e-24)
(0.259135 -0.085772 -3.19044e-21)
(0.0862803 -0.0290713 2.75962e-21)
(1.00013 -0.00750902 4.59997e-24)
(1.00458 -0.0189503 8.75823e-24)
(1.0154 -0.0251332 4.15542e-24)
(1.03366 -0.0249961 -3.53885e-24)
(1.05982 -0.017438 9.90976e-21)
(1.09436 -0.00196007 -5.65841e-21)
(1.13847 0.0204175 0)
(1.1948 0.0470142 0)
(1.26764 0.0697226 -5.28448e-21)
(1.35558 0.0728541 0)
(1.44809 0.0508708 -1.21101e-20)
(1.5117 0.0101161 0)
(1.43702 -0.0465481 3.77559e-20)
(1.11973 -0.0968304 -8.59501e-23)
(0.673149 -0.101086 6.04984e-20)
(0.319615 -0.0626144 -3.6249e-20)
(0.16135 -0.0318435 -7.06944e-22)
(0.157509 -0.0350224 6.20597e-20)
(0.0584315 -0.013353 -2.88151e-20)
(0.0570127 -0.0135935 7.03863e-21)
(0.0112888 -0.0024116 6.41811e-21)
(0.0451277 -0.0113676 -1.61989e-22)
(0.01143 -0.00354289 0)
(0.0448797 -0.0116238 -8.4228e-21)
(0.0107122 -0.00304238 -6.01846e-21)
(0.01083 -0.00307703 -5.95496e-21)
(0.00645569 -0.000871096 4.58594e-21)
(0.0306284 -0.00795634 4.25443e-22)
(0.0923089 -0.0232097 1.96235e-24)
(0.0917346 -0.0228249 -5.01781e-22)
(0.154251 -0.0387756 5.36706e-22)
(0.153586 -0.0385622 5.25902e-22)
(0.241913 -0.0617062 0)
(0.40079 -0.104597 -1.01564e-21)
(0.238842 -0.0606292 1.51436e-21)
(0.152667 -0.0384039 4.9986e-25)
(0.15193 -0.0381131 -5.0061e-25)
(0.0912957 -0.0226767 -9.84152e-22)
(0.0909102 -0.022554 -4.90622e-22)
(0.0305982 -0.00769228 3.74525e-22)
(0.58937 -0.157875 0)
(0.754157 -0.208028 0)
(0.88428 -0.249769 8.5191e-24)
(0.973855 -0.280184 1.96076e-21)
(1.02268 -0.298689 0)
(1.03299 -0.305675 3.01845e-24)
(1.00714 -0.301772 0)
(0.946859 -0.287433 1.4139e-21)
(0.854106 -0.26302 -1.36125e-21)
(0.732384 -0.22916 -2.58817e-21)
(0.587386 -0.187039 2.68179e-21)
(0.426434 -0.138395 2.6354e-21)
(0.257105 -0.0851209 -2.77431e-21)
(0.0855597 -0.0288386 -2.29574e-24)
(1.00006 -0.00844003 0)
(1.00408 -0.0223893 4.45001e-24)