/*--------------------------------*- C++ -*----------------------------------*\
| =========                 |                                                 |
| \\      /  F ield         | OpenFOAM: The Open Source CFD Toolbox           |
|  \\    /   O peration     | Version:  v1912                                 |
|   \\  /    A nd           | Website:  www.openfoam.com                      |
|    \\/     M anipulation  |                                                 |
\*---------------------------------------------------------------------------*/
FoamFile
{
    version     2.0;
    format      ascii;
    class       surfaceScalarField;
    location    "210";
    object      phi;
}
// * * * * * * * * * * * * * * * * * * * * * * * * * * * * * * * * * * * * * //

dimensions      [0 3 -1 0 0 0 0];
oriented        oriented;


internalField   nonuniform List<scalar> 
7351
(
-3.42873e-06
0.00134579
-1.29507e-05
0.00412472
-2.66007e-06
0.0013485
-3.34645e-05
0.00693511
-1.32138e-05
0.00413533
-3.7478e-06
0.00135231
-6.08532e-05
0.00966661
-3.31315e-05
0.00695506
-1.39631e-05
0.00414561
-2.76821e-06
0.00135514
-9.43102e-05
0.0121408
-5.98727e-05
0.00969338
-3.16641e-05
0.0069728
-1.1416e-05
0.00415432
-2.84405e-06
0.00135804
-0.000142843
0.0141556
-9.41906e-05
0.0121752
-5.54812e-05
0.00971723
-3.01322e-05
0.00699155
-1.1456e-05
0.00416298
-2.83965e-06
0.00136091
-0.000184333
0.0154866
-0.000136366
0.0141978
-9.13666e-05
0.0122111
-5.52169e-05
0.00974235
-2.58083e-05
0.00700593
-1.13463e-05
0.00417152
-1.82785e-06
0.00136277
-0.000236182
0.0159826
-0.000185568
0.0155358
-0.000132458
0.0142389
-8.58078e-05
0.0122417
-4.56221e-05
0.0097622
-2.27166e-05
0.00701733
-9.36824e-06
0.0041791
-1.75115e-06
0.00136454
-0.000276302
0.0155438
-0.000229962
0.0160271
-0.000177019
0.0155804
-0.000120409
0.0142735
-7.11921e-05
0.0122673
-4.14673e-05
0.00978097
-1.97563e-05
0.00702774
-7.2919e-06
0.00418466
-1.62169e-06
0.00136618
-0.000310547
0.0142225
-0.000278755
0.0155926
-0.000218547
0.0160686
-0.000150634
0.0156106
-9.95954e-05
0.0143019
-6.40244e-05
0.0122898
-3.72301e-05
0.00979846
-1.82409e-05
0.0070387
-6.37744e-06
0.00418944
-1.66547e-06
0.00136787
-0.000334864
0.0121433
-0.00032223
0.014266
-0.000258546
0.0156327
-0.000186201
0.0161042
-0.000130122
0.0156411
-8.28551e-05
0.0143208
-5.23658e-05
0.012305
-2.778e-05
0.00980802
-1.52477e-05
0.00704758
-6.85138e-06
0.00419465
-1.69289e-06
0.00136959
-0.000342568
0.00950763
-0.000351267
0.0121724
-0.000276813
0.0142843
-0.000206169
0.0156526
-0.000148445
0.0161225
-0.000104473
0.0156628
-6.94874e-05
0.0143379
-4.27103e-05
0.0123199
-2.72804e-05
0.00982007
-1.18545e-05
0.0070526
-4.24368e-06
0.00419722
-1.32225e-06
0.00137094
0.00653412
-0.000193294
-0.00011392
-0.000371605
0.00952795
-0.000286286
0.0121819
-0.000211473
0.0142896
-0.000159488
0.0156637
-0.000113091
0.0161311
-7.92336e-05
0.0156725
-5.14728e-05
0.0143467
-3.5723e-05
0.0123284
-1.80833e-05
0.00982631
-1.18859e-05
0.00706026
-5.9728e-06
0.00420191
-7.14027e-07
0.00137169
0.00653944
-0.000176707
-0.000200203
-0.00214758
0.00210589
-0.000151592
-8.39397e-05
-0.000259075
0.00950077
-0.000190566
0.012161
-0.000150979
0.0142811
-0.000110515
0.0156611
-8.76788e-05
0.0161396
-6.52868e-05
0.0156864
-4.55242e-05
0.0143565
-3.07911e-05
0.0123411
-2.2643e-05
0.00983708
-1.13906e-05
0.0070657
-4.75863e-06
0.00420597
-1.43598e-06
0.00137314
0.00646968
-5.95802e-05
-0.000129726
-0.00208834
0.00206458
-0.000152934
-0.000182649
-0.00137587
0.00131814
-6.21218e-05
-3.17242e-05
-2.48462e-05
-0.00014087
0.00945106
-0.000119206
0.0121292
-9.5535e-05
0.0142661
-7.9652e-05
0.0156531
-6.29276e-05
0.0161373
-4.62855e-05
0.0156871
-3.96749e-05
0.0143654
-2.56233e-05
0.0123441
-1.71067e-05
0.00984282
-1.22405e-05
0.00707319
-5.52209e-06
0.00421008
-2.17983e-06
0.00137533
0.00638526
-1.08335e-05
-4.56042e-05
-0.00201643
0.0019931
-3.62378e-05
-8.15748e-05
-0.00130054
0.00125645
-3.88344e-05
-7.00036e-05
-8.28671e-05
-8.21818e-05
-0.000416453
0.000389482
-3.51471e-05
-0.000430293
-1.78813e-05
-9.66968e-06
-6.78233e-05
0.0093997
-6.53111e-05
0.012099
-6.24803e-05
0.0142489
-5.13964e-05
0.0156416
-4.39458e-05
0.0161349
-3.81373e-05
0.0156856
-3.20463e-05
0.0143718
-2.50199e-05
0.012352
-2.15299e-05
0.00985212
-1.3309e-05
0.00708099
-7.53397e-06
0.00421544
-1.13832e-06
0.00137648
0.00633447
-5.44295e-07
-1.6479e-05
-0.00196465
0.00196001
-6.18884e-06
-1.71506e-05
-0.00120378
0.00117353
-8.00663e-07
-5.1835e-06
-2.18766e-05
-7.02239e-06
-0.000320113
0.000301199
-1.9918e-05
-0.00034329
-4.68262e-05
0.000364381
-5.77651e-05
-6.10911e-05
-0.000238164
0.00021275
-9.73052e-06
-0.000252153
-3.8909e-06
-1.62803e-06
-3.51758e-05
0.00936955
-3.89772e-05
0.0120755
-3.76639e-05
0.0142352
-3.86621e-05
0.0156363
-3.25943e-05
0.0161294
-3.39005e-05
0.0156875
-2.6476e-05
0.0143733
-2.85729e-05
0.012359
-2.08529e-05
0.00985967
-1.52733e-05
0.00708874
-7.2569e-06
0.00422157
-2.80759e-06
0.00137931
0.00630226
3.932e-06
-6.88862e-06
-0.001947
0.00194753
-1.06068e-06
-3.46516e-06
-0.00115785
0.00115166
1.04153e-06
-1.03749e-06
-1.78362e-06
3.19574e-07
-0.000276397
0.000276
-4.00604e-07
-0.00028108
-4.97848e-07
0.000285992
-6.66689e-06
-2.10905e-06
-0.000107882
8.79648e-05
-0.000154708
0.000175605
-2.06194e-05
-4.01942e-05
-7.05436e-05
6.08136e-05
-7.44344e-05
-1.48814e-05
0.00934547
-2.40132e-05
0.0120618
-2.5414e-05
0.0142219
-2.31536e-05
0.0156269
-2.97961e-05
0.0161253
-2.61975e-05
0.0156872
-3.69702e-05
0.0143817
-3.35081e-05
0.0123717
-2.68867e-05
0.00987129
-1.82852e-05
0.00709977
-1.01401e-05
0.00422892
-1.90045e-06
0.00138123
0.00628808
3.56749e-06
-4.25479e-06
-0.00194138
0.00194446
8.54648e-07
-7.32924e-07
-0.00114823
0.0011469
2.5426e-07
2.35382e-08
-4.99655e-07
4.66306e-07
-0.00027353
0.00027437
2.04361e-07
-0.000274714
1.46403e-07
0.000274258
-4.1273e-08
-1.35313e-07
-7.8692e-05
7.82921e-05
-7.91893e-05
8.12984e-05
4.01942e-05
-6.52528e-06
0.00932797
-7.31725e-06
0.0120437
-1.32133e-05
0.014212
-2.07296e-05
0.0156178
-2.58885e-05
0.016125
-3.72301e-05
0.0156874
-3.41616e-05
0.0143824
-3.65326e-05
0.0123814
-3.05357e-05
0.00988355
-1.99431e-05
0.00710959
-1.05571e-05
0.0042376
-2.61755e-06
0.00138387
0.00628073
1.79503e-06
-9.70268e-07
-0.00194032
0.00194333
5.63385e-07
-1.06391e-07
-0.00114587
0.00114662
-1.62849e-07
2.72139e-07
-9.26879e-08
3.91233e-07
-0.00027427
0.00027446
6.69937e-08
-0.00027438
1.36169e-07
0.000274098
-2.25417e-07
1.86088e-07
-7.82621e-05
7.84671e-05
-7.81156e-05
7.82509e-05
-5.36263e-07
0.00932121
-6.96396e-06
0.0120375
-1.15072e-05
0.0142028
-1.54275e-05
0.0156074
-2.81904e-05
0.016116
-4.12518e-05
0.0156945
-5.0615e-05
0.0143965
-4.34657e-05
0.0123943
-3.61945e-05
0.00989981
-2.53427e-05
0.00712439
-1.10304e-05
0.00424603
-3.38877e-06
0.00138727
0.00627778
1.87493e-06
5.47533e-07
-0.00194253
0.001943
1.32914e-06
-1.77197e-07
-0.00114599
0.00114657
1.36683e-07
-1.51226e-07
2.0794e-07
3.19602e-07
-0.000274992
0.000274794
3.61184e-08
-0.000274675
-4.38448e-08
0.000274359
9.00791e-09
7.52657e-08
-7.85649e-05
7.86326e-05
-7.84282e-05
7.82422e-05
-7.17296e-07
0.00931495
-1.52828e-07
0.0120261
-6.87236e-06
0.0141942
-2.59483e-05
0.0156051
-3.91657e-05
0.0161139
-4.99118e-05
0.0156938
-5.83254e-05
0.0144113
-5.72996e-05
0.0124154
-4.61401e-05
0.00992062
-2.683e-05
0.0071402
-1.10987e-05
0.00425376
-2.32359e-06
0.00138961
0.00627486
1.81075e-06
4.00403e-07
-0.00194335
0.00194383
1.40172e-06
2.02737e-07
-0.00114569
0.00114709
2.4834e-07
-3.18548e-07
3.25872e-07
3.80714e-07
-0.000274947
0.000275126
-4.10308e-08
-0.000275254
1.57947e-07
0.000275053
-4.96151e-08
1.19682e-07
-7.86733e-05
7.87099e-05
-7.87171e-05
7.86418e-05
5.13449e-06
0.00930967
1.3804e-07
0.0120191
-1.06965e-05
0.014179
-2.5166e-05
0.0155911
-4.97457e-05
0.0161137
-6.67457e-05
0.0157023
-7.19193e-05
0.0144259
-6.73938e-05
0.0124367
-4.91099e-05
0.00994291
-2.9282e-05
0.0071584
-1.41108e-05
0.00426556
-3.03192e-06
0.00139265
0.00627567
2.39164e-06
1.93751e-06
-0.00194336
0.00194492
2.55811e-07
8.6916e-07
-0.00114735
0.00114824
1.9141e-07
3.23541e-07
-3.13815e-07
2.58974e-07
-0.000275502
0.00027571
4.12381e-08
-0.000275963
1.41706e-07
0.000275441
1.15457e-08
-1.41096e-07
-7.89386e-05
7.8898e-05
-7.87803e-05
7.86606e-05
1.92151e-06
0.00930788
-3.16834e-06
0.0120116
-1.99103e-05
0.0141737
-4.30598e-05
0.0155844
-6.96861e-05
0.0161167
-9.08512e-05
0.0157212
-9.56358e-05
0.0144542
-7.86046e-05
0.0124662
-5.39391e-05
0.00996758
-2.97521e-05
0.00717405
-1.20645e-05
0.0042746
-3.34286e-06
0.00139601
0.00627537
3.05804e-07
1.91536e-06
-0.00194561
0.0019469
1.11165e-06
1.25068e-06
-0.00114896
0.00114878
2.56423e-07
1.77276e-07
-1.63399e-07
3.13969e-07
-0.0002758
0.000276236
-2.42984e-07
-0.000275633
1.58232e-07
0.000275469
-7.13229e-08
9.60043e-08
-7.89102e-05
7.89516e-05
-7.87684e-05
7.89095e-05
1.81312e-06
0.00930291
-6.34975e-06
0.0119981
-2.34473e-05
0.0141541
-5.88955e-05
0.0155736
-9.06166e-05
0.0161164
-0.000110742
0.0157363
-0.000106077
0.0144817
-8.55684e-05
0.0124978
-5.88347e-05
0.00999667
-3.24467e-05
0.00719444
-1.33746e-05
0.00428464
-2.8023e-06
0.00139881
0.00627342
1.88792e-06
1.88712e-06
-0.00194864
0.00194763
1.3192e-06
1.72589e-07
-0.00115
0.00115113
-2.86555e-07
2.69582e-07
-2.80466e-07
3.19182e-07
-0.000276332
0.000276559
3.05635e-08
-0.000276247
9.24513e-08
0.000276075
-1.52028e-09
1.41791e-07
-7.91352e-05
7.88927e-05
-7.89766e-05
7.88806e-05
-4.87788e-07
0.00929704
-1.37148e-05
0.0119883
-4.57872e-05
0.014141
-8.78534e-05
0.0155709
-0.000127985
0.0161337
-0.000137663
0.0157679
-0.000128399
0.0145245
-9.47359e-05
0.0125337
-5.84802e-05
0.0100227
-3.16046e-05
0.00721268
-1.12655e-05
0.0042931
-1.88359e-06
0.0014007
0.00627071
4.14919e-07
1.80814e-06
-0.00194869
0.00195021
3.68693e-07
8.30776e-07
-0.00115064
0.00115198
-1.76677e-07
1.57897e-07
3.17117e-07
3.45815e-07
-0.000276658
0.000276635
-2.62006e-07
-0.000276489
1.02107e-07
0.000276274
6.14015e-09
1.0556e-07
-7.91256e-05
7.91565e-05
-7.9033e-05
7.88912e-05
-2.70682e-06
0.00928605
-2.42737e-05
0.0119668
-7.00644e-05
0.0141232
-0.000126256
0.0155692
-0.000162594
0.0161586
-0.00016977
0.0158093
-0.00013515
0.0145649
-9.77072e-05
0.012573
-6.02146e-05
0.0100513
-2.81538e-05
0.00722957
-1.07982e-05
0.00430202
-1.73922e-06
0.00140244
0.00626563
4.85219e-07
1.88807e-06
-0.00195091
0.00195097
3.55128e-07
1.11155e-06
-0.00115231
0.00115273
1.58775e-07
-2.08673e-07
3.3913e-07
1.65234e-07
-0.000277199
0.00027699
3.31263e-08
-0.000277101
5.94408e-08
0.000276927
2.54894e-08
1.72404e-07
-7.93709e-05
7.91094e-05
-7.92685e-05
7.91629e-05
-8.75986e-06
0.00927053
-4.54397e-05
0.0119422
-0.000109522
0.0141065
-0.000170352
0.0155769
-0.000204791
0.0161936
-0.000182367
0.0158565
-0.000142069
0.0146093
-9.53559e-05
0.0126081
-5.1014e-05
0.0100742
-2.37808e-05
0.00724255
-8.59368e-06
0.00430888
-1.39717e-06
0.00140384
0.00625588
-8.66275e-07
1.86788e-06
-0.00195191
0.00195204
3.54931e-07
9.53899e-07
-0.00115322
0.00115365
2.62134e-07
-3.36976e-07
3.27804e-07
2.98254e-07
-0.000277087
0.000277487
-2.39975e-07
-0.00027738
8.50346e-08
0.000277269
6.17674e-08
5.47635e-08
-7.93669e-05
7.94003e-05
-7.93074e-05
7.9135e-05
-1.79589e-05
0.00924306
-7.68014e-05
0.0119095
-0.000161521
0.0140977
-0.000228384
0.0156005
-0.000229911
0.0162412
-0.000196121
0.0159106
-0.000141624
0.0146556
-8.55032e-05
0.0126426
-4.63183e-05
0.0100967
-2.03479e-05
0.00725431
-5.66134e-06
0.00431314
-3.51905e-07
0.00140419
0.00623852
-2.56653e-06
1.97377e-06
-0.00195268
0.00195174
7.80737e-08
1.23175e-06
-0.00115455
0.00115442
1.51118e-07
3.29947e-07
3.43003e-07
-2.85395e-07
-0.000277525
0.000277812
-2.42718e-08
-0.000277946
8.38085e-08
0.000277758
5.67728e-08
1.10316e-07
-7.96023e-05
7.93626e-05
-7.9517e-05
7.94623e-05
-3.8581e-05
0.00920483
-0.000130377
0.0118783
-0.000234233
0.0141035
-0.000275135
0.0156457
-0.000248331
0.0162934
-0.00018739
0.0159563
-0.000125788
0.0146959
-7.27184e-05
0.012669
-3.83636e-05
0.0101147
-1.67793e-05
0.00726543
-3.31879e-06
0.00431611
-1.98782e-07
0.00140439
0.00620636
-8.39747e-06
1.98186e-06
-0.00195342
0.00195069
1.65174e-07
2.94965e-07
-0.00115549
0.00115559
-1.48984e-07
1.29578e-07
3.01837e-07
-1.34146e-07
-0.000278161
0.000278244
6.95797e-08
-0.000277685
-1.4471e-07
0.000278088
6.81914e-08
1.17543e-07
-7.96135e-05
7.95895e-05
-7.95297e-05
7.94194e-05
-7.69119e-05
0.00915138
-0.000207858
0.011852
-0.00029874
0.0141271
-0.000295763
0.0156932
-0.000234122
0.0163401
-0.000168599
0.0159991
-0.000106915
0.01473
-6.28809e-05
0.0126935
-3.20819e-05
0.01013
-9.65063e-06
0.00727176
-2.52517e-06
0.00431844
8.05402e-07
0.00140359
0.00614916
-1.88423e-05
-8.62544e-07
-0.00195224
0.00194555
-1.70734e-06
4.4102e-07
-0.00115542
0.00115555
-2.90632e-07
3.26292e-07
3.0792e-07
1.55193e-07
-0.000278376
0.000278219
9.15183e-09
-0.000278362
1.15468e-07
0.000278539
7.6426e-09
4.27864e-08
-7.9631e-05
7.97009e-05
-7.97754e-05
7.96579e-05
-0.000146289
0.00908981
-0.00030925
0.0118625
-0.000340984
0.0141723
-0.000284032
0.0157431
-0.000208958
0.0163805
-0.00014096
0.0160332
-8.69081e-05
0.0147541
-4.7601e-05
0.012709
-1.95725e-05
0.01014
-5.76226e-06
0.007275
1.44466e-06
0.0043178
1.19639e-06
0.00140239
0.00605969
-4.61793e-05
-1.06378e-05
-0.00194627
0.0019316
-4.15996e-06
-1.58567e-06
-0.00115578
0.00115404
-1.05208e-07
1.43124e-07
3.13113e-07
-1.00908e-07
-0.000279031
0.000278681
6.08759e-08
-0.000278571
-1.32812e-07
0.000278517
1.10253e-08
1.02667e-07
-7.9867e-05
7.98765e-05
-7.97515e-05
7.97087e-05
-0.000277147
0.00905772
-0.00036898
0.0118905
-0.00031789
0.0142062
-0.000237486
0.0157716
-0.000168911
0.0164084
-0.000107282
0.0160536
-6.38108e-05
0.0147703
-3.38043e-05
0.0127233
-1.12155e-05
0.0101454
-9.97023e-07
0.00727744
3.03287e-06
0.00431596
1.54829e-06
0.00140084
0.00595824
-0.000121712
-5.3981e-05
-0.00192824
0.00189827
-1.62039e-05
-7.28336e-06
-0.0011524
0.00114817
-2.33201e-07
3.09934e-07
3.0599e-07
-2.52289e-07
-0.000278852
0.000278938
-1.9072e-07
-0.000278827
1.1822e-07
0.000278979
1.51975e-08
5.18066e-08
-7.9858e-05
7.99193e-05
-7.99905e-05
7.98878e-05
-0.00038529
0.00907401
-0.000336395
0.011909
-0.000252323
0.014221
-0.000183043
0.0157857
-0.00012341
0.0164246
-8.00142e-05
0.0160698
-4.2456e-05
0.0147789
-1.71638e-05
0.0127292
-4.6931e-06
0.0101491
3.08414e-06
0.00727739
3.5677e-06
0.00431394
2.85341e-06
0.00139799
0.00595278
-0.000209148
-0.000170677
-0.001874
0.00181565
-6.33643e-05
-2.97065e-05
-0.00114109
0.00112632
-1.55256e-06
1.1846e-07
3.66809e-07
-5.6871e-07
-0.000279124
0.00027882
7.11982e-08
-0.000278877
6.4029e-08
0.000279232
1.32465e-08
1.03096e-07
-8.01047e-05
7.99142e-05
-7.99864e-05
7.99346e-05
-0.000333086
0.00907072
-0.000238459
0.0118951
-0.000174813
0.0142128
-0.000128917
0.0157912
-8.86244e-05
0.0164332
-5.58289e-05
0.0160831
-2.9572e-05
0.0147913
-1.05902e-05
0.0127351
3.89621e-06
0.0101483
6.59262e-06
0.00727436
7.16867e-06
0.00430962
3.41532e-06
0.00139457
0.00589721
-9.76467e-05
-0.000179875
-0.00177843
0.00174655
-0.000177269
-0.000133453
-0.00110069
0.00105014
-1.08607e-05
-1.95851e-06
-4.31667e-07
-3.63965e-06
-0.00027863
0.000277323
-2.45017e-07
-0.000278681
1.69523e-07
0.000279135
5.17495e-08
-1.13719e-07
-8.0095e-05
8.01665e-05
-8.00308e-05
7.99277e-05
-0.000182364
0.0090146
-0.000146605
0.0118669
-0.000116507
0.0142004
-8.41442e-05
0.0157868
-5.74868e-05
0.0164348
-3.17653e-05
0.0160853
-1.38277e-05
0.0147946
-1.32535e-07
0.0127391
8.0176e-06
0.0101469
1.30411e-05
0.00726849
1.00832e-05
0.00430295
3.83429e-06
0.00139074
0.00579464
-1.77953e-05
-6.2003e-05
-0.00170204
0.00166196
-5.7572e-05
-0.000135364
-0.000969182
0.000921909
-6.62972e-05
-6.36986e-05
-1.45187e-05
-3.79721e-05
-0.000272316
0.00026326
-1.80445e-06
-0.000273684
-5.88739e-07
0.000277101
-2.08945e-07
-2.22398e-07
-8.02742e-05
8.00294e-05
-8.01046e-05
8.02183e-05
-8.50788e-05
0.00895309
-8.12077e-05
0.0118316
-6.92583e-05
0.0141855
-5.24121e-05
0.0157817
-3.37903e-05
0.0164368
-1.53332e-05
0.0160868
-5.12931e-07
0.014795
1.2097e-05
0.012735
1.59779e-05
0.0101439
1.4621e-05
0.00726395
9.60231e-06
0.00429718
4.85581e-06
0.00138588
0.00572769
1.31458e-07
-1.82688e-05
-0.00162291
0.00161226
-7.15272e-06
-2.29523e-05
-0.000855088
0.000805587
-1.34761e-06
-6.7246e-06
-4.88811e-05
-1.9661e-05
-0.000183761
0.000157979
-4.05156e-05
-0.000225
-2.24592e-05
0.000252796
-4.05429e-06
-1.01765e-05
-7.90099e-05
7.72057e-05
-7.95983e-05
7.98207e-05
-4.03755e-05
0.00891222
-4.30328e-05
0.0118053
-3.84591e-05
0.0141715
-2.9366e-05
0.0157772
-1.61219e-05
0.0164376
-3.0487e-06
0.0160894
1.29354e-05
0.0147941
1.59578e-05
0.0127351
2.08063e-05
0.0101378
1.76658e-05
0.00725588
1.36753e-05
0.00428837
5.10814e-06
0.00138078
0.00569129
3.24517e-06
-7.2247e-06
-0.00159763
0.00159812
-3.58965e-07
-3.63861e-06
-0.000783335
0.00077617
2.81747e-07
-2.71096e-07
-7.27025e-07
2.56432e-08
-8.27128e-05
8.1365e-05
-8.94372e-05
0.000109098
-4.05156e-05
-6.29749e-05
7.31514e-05
-1.80892e-05
0.0088873
-2.19768e-05
0.0117889
-1.87999e-05
0.014161
-7.81797e-06
0.0157689
1.32227e-07
0.0164345
1.25293e-05
0.0160898
1.58339e-05
0.0147942
2.5368e-05
0.0127305
2.50099e-05
0.0101304
2.3297e-05
0.00724626
1.5746e-05
0.00427773
5.92115e-06
0.00137486
0.00567371
3.80738e-06
-4.33744e-06
-0.00159189
0.00159402
1.11e-06
-1.00564e-06
-0.000772455
0.000772034
1.12976e-07
-5.31601e-08
-4.0304e-08
1.16542e-07
-8.03919e-05
8.06734e-05
-8.06633e-05
8.06377e-05
-4.73352e-06
0.00887001
-8.64884e-06
0.0117787
-3.99411e-06
0.0141571
2.9603e-06
0.0157661
1.37623e-05
0.0164332
1.96708e-05
0.0160859
3.17071e-05
0.0147879
3.2614e-05
0.0127229
3.25604e-05
0.0101211
2.78561e-05
0.00723415
1.74883e-05
0.00426616
6.85013e-06
0.00136801
0.00566769
3.37295e-06
-2.08187e-06
-0.00158959
0.00159333
6.10642e-08
8.7989e-08
-0.000770764
0.00077179
1.87312e-07
-1.08978e-07
1.0467e-07
1.57139e-07
-8.06965e-05
8.08087e-05
-8.07496e-05
8.06331e-05
-4.78565e-07
0.00886187
1.82113e-06
0.0117729
4.96473e-06
0.0141551
1.12787e-05
0.0157686
2.34992e-05
0.0164294
3.03581e-05
0.0160873
3.18179e-05
0.0147887
3.61971e-05
0.0127193
3.49876e-05
0.010114
3.12318e-05
0.0072204
2.07662e-05
0.00425225
7.83985e-06
0.00136017
0.00566552
2.63765e-06
-9.61763e-07
-0.00159089
0.00159341
8.46677e-07
3.49751e-07
-0.000771716
0.000771886
2.71885e-08
-1.40801e-07
9.22455e-08
6.78227e-08
-8.09602e-05
8.11464e-05
-8.10699e-05
8.09127e-05
2.42041e-06
0.00886122
8.40433e-06
0.0117694
1.51357e-05
0.0141513
2.25566e-05
0.0157695
2.65677e-05
0.0164332
4.01946e-05
0.0160789
4.61144e-05
0.0147788
4.8371e-05
0.0127059
4.28056e-05
0.0101024
3.60178e-05
0.00720515
2.32092e-05
0.00423688
8.81216e-06
0.00135136
0.00566522
2.66829e-06
6.11234e-08
-0.00159263
0.0015944
8.64764e-07
-1.81104e-07
-0.000772115
0.000773031
3.93186e-08
-1.12818e-07
6.47154e-08
5.13794e-08
-8.11652e-05
8.1191e-05
-8.13063e-05
8.12384e-05
6.8715e-06
0.00886279
1.34555e-05
0.0117711
1.76734e-05
0.0141561
3.1532e-05
0.0157646
4.15927e-05
0.0164318
4.66306e-05
0.0160784
4.93937e-05
0.0147778
5.35789e-05
0.0126951
5.07118e-05
0.0100877
4.14105e-05
0.00718695
2.70009e-05
0.00421869
9.69456e-06
0.00134167
0.00566917
2.75599e-06
1.53375e-07
-0.00159381
0.0015959
5.74107e-07
6.44746e-07
-0.000772719
0.000773559
-6.64131e-08
9.17173e-08
7.07859e-08
5.98798e-08
-8.11926e-05
8.12309e-05
-8.13063e-05
8.12549e-05
8.13995e-06
0.00886805
1.48335e-05
0.0117739
2.71596e-05
0.0141605
3.46611e-05
0.0157715
4.35519e-05
0.0164349
5.40021e-05
0.0160738
6.14849e-05
0.0147698
6.06087e-05
0.0126852
5.82794e-05
0.0100709
4.52733e-05
0.00716868
3.00885e-05
0.0041983
1.10364e-05
0.00133064
0.00567304
2.92925e-06
1.34396e-06
-0.00159538
0.00159753
6.08404e-07
6.79853e-07
-0.000774063
0.000774527
4.24215e-08
6.66156e-08
7.30926e-08
6.5713e-08
-8.14534e-05
8.13865e-05
-8.13616e-05
8.13017e-05
1.01002e-05
0.00887283
1.92621e-05
0.0117819
2.82723e-05
0.0141669
4.11811e-05
0.0157739
5.46052e-05
0.0164343
6.23479e-05
0.0160729
7.07474e-05
0.0147597
7.00456e-05
0.0126734
6.58589e-05
0.0100503
5.40315e-05
0.00714474
3.25936e-05
0.00417675
1.1949e-05
0.00131869
0.00567981
2.91821e-06
3.96302e-07
-0.00159815
0.00160031
7.63829e-07
7.16037e-07
-0.000775275
0.000775774
4.69626e-08
6.37835e-08
-1.09634e-07
4.31166e-08
-8.15908e-05
8.16328e-05
-8.15247e-05
8.1459e-05
1.13005e-05
0.00888073
2.11604e-05
0.0117889
3.44845e-05
0.0141736
4.5962e-05
0.0157825
6.10326e-05
0.0164356
7.18046e-05
0.0160719
7.7469e-05
0.0147523
8.40883e-05
0.0126552
7.54206e-05
0.0100289
6.05329e-05
0.0071168
3.79075e-05
0.00415079
1.22549e-05
0.00130644
0.00568669
2.95556e-06
1.4762e-06
-0.00159996
0.00160217
7.04926e-07
7.50792e-07
-0.000776294
0.000777046
8.41046e-08
-7.45139e-08
7.56148e-08
1.17665e-07
-8.16306e-05
8.1677e-05
-8.15665e-05
8.15234e-05
1.12881e-05
0.00889064
2.37024e-05
0.0117997
4.05837e-05
0.014179
5.8002e-05
0.0157855
7.13675e-05
0.016436
8.51553e-05
0.0160642
9.31135e-05
0.0147433
9.26556e-05
0.012638
8.59987e-05
0.0100034
6.63392e-05
0.00708837
4.03869e-05
0.00412266
1.07e-05
0.00129575
0.00569511
2.55243e-06
2.96671e-07
-0.00160288
0.00160512
7.11922e-07
7.58243e-07
-0.000777653
0.000778424
3.9573e-08
-1.0595e-07
8.07037e-08
6.32293e-08
-8.17944e-05
8.18775e-05
-8.18696e-05
8.1752e-05
1.24775e-05
0.00890182
2.76318e-05
0.0118127
4.51772e-05
0.0141918
6.4379e-05
0.0157925
8.01167e-05
0.0164411
9.33582e-05
0.0160639
0.000105152
0.0147308
0.000101473
0.0126225
9.5123e-05
0.00997465
7.55004e-05
0.00705326
4.31653e-05
0.0040902
1.33263e-05
0.00128242
0.005706
8.48561e-07
7.56628e-07
-0.00160477
0.00160693
3.97102e-07
6.4386e-07
-0.000779042
0.000779808
-1.21968e-07
6.5081e-08
7.64682e-08
6.00456e-08
-8.19156e-05
8.19541e-05
-8.20215e-05
8.19583e-05
1.55233e-05
0.00891397
3.21646e-05
0.0118257
5.44804e-05
0.0142017
7.07584e-05
0.0158019
9.16626e-05
0.0164428
0.00010723
0.0160619
0.000116635
0.0147156
0.000119773
0.0125979
0.000106744
0.00994341
8.14693e-05
0.00701496
4.37465e-05
0.00405978
3.18925e-05
0.00125053
0.0057175
2.22609e-06
1.78837e-06
-0.00160789
0.00161067
-1.9366e-06
-2.03655e-07
-0.000780313
0.000780517
1.01735e-07
9.2156e-08
7.13887e-08
6.83362e-08
-8.2154e-05
8.20309e-05
-8.20898e-05
8.20298e-05
1.93021e-05
0.00892678
3.89546e-05
0.0118412
5.81059e-05
0.0142144
8.32124e-05
0.0158104
0.000104902
0.0164451
0.000122985
0.0160555
0.000132286
0.0147031
0.000128455
0.0125761
0.000118714
0.00990617
8.67586e-05
0.00697195
7.43656e-05
0.00401731
7.42415e-05
0.00572762
5.22299e-06
3.97773e-06
-0.00161616
0.00161357
-1.5711e-06
6.39162e-06
-3.69378e-06
-0.000780412
0.000778485
-3.07703e-09
-6.24575e-09
3.88389e-08
-1.40015e-07
-8.22631e-05
8.23641e-05
-8.21708e-05
8.21024e-05
2.38768e-05
0.00894189
4.10608e-05
0.0118583
6.60018e-05
0.0142316
8.98817e-05
0.0158254
0.000114672
0.0164534
0.000134125
0.0160537
0.000146224
0.0146853
0.000147605
0.0125473
0.000127093
0.00986583
0.000114814
0.0069315
0.000136001
0.00574105
5.29931e-06
5.13905e-06
-0.00161624
0.00161784
2.26806e-06
1.3603e-06
1.92344e-06
-6.1155e-07
-0.000484373
0.000489684
-6.88166e-06
-0.000459282
-1.86962e-05
0.000315787
-1.04321e-08
-2.63591e-07
-8.22554e-05
8.22517e-05
-8.22623e-05
8.24023e-05
2.36073e-05
0.0089593
4.8096e-05
0.0118762
7.40852e-05
0.0142474
0.000106802
0.0158332
0.000134459
0.0164531
0.000154044
0.0160459
0.000164613
0.0146683
0.000161711
0.0125126
0.000154808
0.00982584
0.000179086
0.00575617
4.16127e-06
4.3325e-06
-0.00161993
0.00162309
1.38257e-06
7.56596e-07
1.81385e-06
1.23438e-06
-0.000494963
0.000496039
1.18949e-06
-0.000494138
5.35177e-07
-0.000491478
-7.38251e-07
-2.40644e-06
-0.00029404
0.000288524
-1.36382e-06
3.05304e-06
8.22423e-05
8.19796e-05
2.69827e-05
0.00898043
5.27308e-05
0.0118975
8.47562e-05
0.0142694
0.000116088
0.0158516
0.000144767
0.0164623
0.000170641
0.0160398
0.000177202
0.0146528
0.000186688
0.0124808
0.000210485
0.00577297
4.62544e-06
5.54826e-06
-0.0016255
0.00162801
1.01884e-06
6.3691e-07
1.31279e-06
6.08596e-07
-0.000498201
0.000498796
7.8674e-07
-0.000497662
2.18095e-07
-0.000496631
7.79774e-07
6.41189e-07
-0.000287308
0.000288408
8.94042e-08
-0.000286823
4.71573e-08
-0.000287184
-3.78387e-07
-1.0672e-06
-8.50327e-05
8.36696e-05
2.97468e-05
0.00900338
6.10111e-05
0.0119213
9.62224e-05
0.0142893
0.000133561
0.0158628
0.000164708
0.0164683
0.00018226
0.0160348
0.000207368
0.0146322
0.000228642
0.0057916
5.09779e-06
6.02751e-06
-0.0016317
0.00163447
1.1336e-06
7.22944e-07
1.1197e-06
7.42957e-07
-0.0005001
0.000500589
5.29921e-07
-0.000499863
4.00705e-07
-0.000498757
2.0596e-07
6.46546e-07
-0.000289353
0.000289979
1.61392e-07
-0.000289323
1.84684e-07
-0.000288789
2.44494e-07
2.59446e-07
-8.22705e-05
8.23588e-05
-8.22239e-05
-8.26024e-05
3.57677e-05
0.00902864
6.74849e-05
0.01195
0.000108608
0.0143143
0.000146747
0.0158808
0.000175118
0.0164754
0.000210671
0.0160315
0.000234008
0.00581591
5.79852e-06
5.65386e-06
-0.00163847
0.0016416
1.17098e-06
8.00609e-07
1.20929e-06
8.23917e-07
-0.000501956
0.000502883
2.0603e-07
-0.000501691
4.58783e-07
-0.000501014
4.42203e-07
3.17191e-07
-0.000291005
0.000291421
1.15191e-07
-0.000290722
1.15553e-07
-0.00029047
-4.68191e-08
1.56208e-07
-8.30464e-05
8.3207e-05
-8.28623e-05
-8.26182e-05
3.84715e-05
0.00905762
7.98811e-05
0.0119787
0.000123587
0.0143374
0.000160064
0.0158959
0.000198991
0.0164871
0.000222838
0.00584052
6.41378e-06
7.45089e-06
-0.00164485
0.00164864
1.30209e-06
7.14367e-07
1.49528e-06
9.01998e-07
-0.000504381
0.000504955
5.96474e-07
-0.000503655
7.51925e-08
-0.000502938
4.91352e-07
7.6899e-07
-0.000292432
0.000292502
1.36604e-07
-0.000291933
-4.10181e-08
-0.000291618
1.26942e-07
1.20177e-07
-8.34316e-05
8.35464e-05
-8.33163e-05
-8.33632e-05
4.61789e-05
0.00909134
9.04438e-05
0.0120119
0.000133385
0.0143641
0.000174248
0.0159206
0.000197809
0.00587018
7.63262e-06
8.87371e-06
-0.00165337
0.00165737
1.5049e-06
9.10557e-07
1.64923e-06
1.07409e-06
-0.000506671
0.000507307
6.66435e-07
-0.000506452
4.96352e-07
-0.00050509
1.33519e-07
7.66406e-07
-0.000293383
0.000294041
-6.07726e-08
-0.00029343
1.21303e-07
-0.000293087
1.46883e-07
1.84176e-07
-8.37523e-05
8.38886e-05
-8.37935e-05
-8.36666e-05
5.50018e-05
0.00912676
0.000105909
0.0120394
0.000145325
0.014393
0.000159011
0.00590549
9.75974e-06
9.9375e-06
-0.00166309
0.00166788
1.70078e-06
1.13953e-06
1.87285e-06
1.28072e-06
-0.000509288
0.000510291
5.02072e-07
-0.000508978
6.00907e-07
-0.000507926
5.96939e-07
4.55383e-07
-0.00029498
0.000295675
-2.69633e-08
-0.000294677
1.92828e-07
-0.000294669
1.25656e-07
1.38507e-07
-8.43406e-05
8.42796e-05
-8.42196e-05
-8.40728e-05
6.94994e-05
0.00916318
0.000110876
0.0120738
0.000116342
0.00594697
1.44712e-05
1.35364e-05
-0.00167419
0.00168068
1.37094e-06
1.8956e-06
1.55156e-06
2.07776e-06
-0.000512717
0.000513463
9.54215e-07
-0.000511884
3.06577e-07
-0.000510728
7.17297e-07
8.42859e-07
-0.000296841
0.000297167
1.77491e-07
-0.000296413
1.71821e-07
-0.000295979
1.62438e-07
1.51437e-07
-8.47366e-05
8.47096e-05
-8.45439e-05
-8.44181e-05
8.12154e-05
0.00919283
7.27757e-05
0.00598614
2.33811e-05
1.86505e-05
-0.00168928
0.00169749
3.41508e-06
2.84243e-06
2.45364e-06
2.47756e-06
-0.000516863
0.000517207
1.02566e-06
-0.000515762
7.93343e-07
-0.000514609
3.97925e-07
9.31361e-07
-0.000298605
0.000299372
1.87685e-07
-0.000298478
1.78675e-07
-0.000297787
2.62099e-08
2.22591e-07
-8.51953e-05
8.53726e-05
-8.50236e-05
-8.48611e-05
4.35278e-05
1.54163e-05
4.22154e-05
-0.00170802
0.00171912
7.40541e-06
4.86574e-06
4.08926e-06
4.03516e-06
-0.000522082
0.000523572
1.92461e-06
-0.000520451
1.21088e-06
-0.000518617
6.18237e-07
1.06774e-06
-0.00030106
0.00030189
1.95121e-07
-0.000300295
2.67786e-08
-0.000300099
2.01558e-07
2.04356e-07
-8.57999e-05
8.59873e-05
-8.56214e-05
-8.55952e-05
-0.00173672
8.74884e-06
2.13054e-05
1.46951e-05
9.91659e-06
-0.000530176
0.000533883
3.69567e-06
-0.000527752
2.44089e-06
-0.000525903
2.23947e-06
1.70369e-06
-0.000304028
0.000305572
3.80913e-07
-0.000303115
2.97488e-07
-0.000302735
2.37618e-07
2.23236e-07
-8.64199e-05
8.66147e-05
-8.63932e-05
-8.61917e-05
-0.000547566
1.32301e-05
-0.000541389
1.51252e-05
-0.000536941
1.02447e-05
6.85834e-06
-0.000310343
0.000313061
9.77135e-07
-0.000308497
5.93743e-07
-0.000306853
5.95569e-07
4.22418e-07
-8.73728e-05
8.77536e-05
-8.70754e-05
-8.68379e-05
-0.000328633
2.04409e-05
-0.00032344
9.93152e-06
-0.000317898
4.70116e-06
2.02041e-06
-8.93653e-05
9.0342e-05
-8.87716e-05
-8.81761e-05
-0.000106994
-9.70632e-05
-9.23624e-05
-1.38552e-05
1.38448e-05
7.11284e-06
-2.09701e-05
-5.92823e-05
5.29542e-05
2.01432e-05
1.93689e-05
-7.15412e-05
3.51594e-06
-2.44976e-05
1.63466e-05
3.65681e-05
-0.000117964
0.000111084
2.69851e-05
2.94836e-05
-0.00012808
1.18888e-05
-7.99072e-05
1.55805e-06
-2.6048e-05
2.29039e-05
0.000104491
6.87867e-06
2.96552e-05
-0.000408574
6.36598e-05
0.000394726
-1.86796e-05
6.58157e-05
-0.000426266
-0.000134865
6.99175e-06
-8.53239e-05
8.21124e-07
-2.6865e-05
1.47187e-05
9.66134e-05
2.33691e-06
2.73031e-05
-4.04294e-05
-0.00142499
0.00138411
0.000144518
-6.63526e-06
0.000375614
-4.27768e-05
0.00015304
-0.00146952
-1.43923e-05
-0.000446959
-7.70889e-06
-0.000142263
4.08105e-06
-8.85826e-05
2.63836e-07
-2.71383e-05
9.23161e-05
1.07334e-06
2.62384e-05
-2.46718e-05
0.000102735
-0.00198854
0.00194215
0.000190632
-4.44307e-06
-1.79568e-06
0.000201228
-0.00203687
-2.92462e-05
0.000123336
-0.00154519
-1.85708e-05
-0.000466731
-6.10624e-06
-3.39582e-06
-0.000145902
2.16095e-06
-9.05088e-05
3.01199e-07
-2.74559e-05
8.89498e-05
4.83024e-07
2.57645e-05
0.000167022
-0.00230173
0.0022517
0.000240378
8.76382e-05
0.000251717
-0.00235232
0.000195029
-0.00210861
0.000108993
-1.54832e-05
-0.00162403
-1.48047e-05
-0.000479306
-3.59056e-06
-2.46182e-06
-0.000149851
-1.50532e-06
-0.000151755
-9.17178e-05
2.5624e-07
-2.77202e-05
2.06962e-07
0.000225389
-0.0023504
0.00230578
0.000284771
0.000294972
-0.00239375
0.000258341
-0.00241564
0.000194582
-0.00219422
-0.000490031
-2.18687e-06
-2.61641e-06
0.000120386
-1.60197e-05
-0.00170812
-2.04581e-05
-0.00049998
-3.68134e-06
-1.22718e-06
-0.00015396
-1.39815e-06
-0.000155259
-1.18586e-06
-9.28627e-05
2.54932e-07
-2.79887e-05
0.000274802
-0.00211501
0.00208439
0.000315142
0.000321694
-0.00214181
0.00030662
-0.00244203