/*--------------------------------*- C++ -*----------------------------------*\
| =========                 |                                                 |
| \\      /  F ield         | OpenFOAM: The Open Source CFD Toolbox           |
|  \\    /   O peration     | Version:  v1912                                 |
|   \\  /    A nd           | Website:  www.openfoam.com                      |
|    \\/     M anipulation  |                                                 |
\*---------------------------------------------------------------------------*/
FoamFile
{
    version     2.0;
    format      ascii;
    class       volScalarField;
    location    "350";
    object      p;
}
// * * * * * * * * * * * * * * * * * * * * * * * * * * * * * * * * * * * * * //

dimensions      [0 2 -2 0 0 0 0];


internalField   nonuniform List<scalar> 
3675
(
0.00181326
0.00206421
0.0016383
0.00188291
0.00148643
0.00212718
0.00172133
0.00134264
0.00234017
0.00195847
0.00157194
0.00121086
0.0025292
0.00216884
0.0018013
0.00143394
0.00109212
0.00268348
0.00235874
0.0020059
0.00166231
0.0013109
0.000977884
0.00279137
0.00251387
0.00219455
0.00186545
0.00153165
0.00119125
0.000874407
0.00283799
0.00262328
0.00235282
0.00204706
0.00172587
0.00140517
0.00108289
0.000779513
0.00281636
0.00267582
0.0024681
0.00220252
0.00190634
0.00159817
0.00129412
0.000984775
0.000689325
0.00272839
0.00266619
0.00253399
0.00232416
0.00206106
0.00177516
0.00148265
0.00118974
0.000888017
0.000610834
0.00258411
0.00258682
0.00254396
0.00239979
0.0021779
0.00192468
0.00165313
0.00137318
0.00109154
0.00080567
0.000536514
0.00240395
0.00243871
0.00249508
0.00242742
0.0022546
0.00203983
0.00179831
0.0015413
0.00127254
0.00100285
0.000727216
0.000469917
0.0022412
0.0022129
0.00239271
0.00241329
0.00228734
0.00210993
0.0019062
0.00167905
0.00143279
0.00117534
0.000921481
0.000655605
0.000403709
0.00216831
0.00191471
0.00223445
0.00236398
0.0022753
0.00213132
0.00197009
0.00178103
0.00156887
0.00133514
0.00109467
0.00084526
0.000588223
0.000348802
0.00219009
0.00164234
0.00193293
0.00198266
0.00229662
0.00222432
0.00210588
0.00198479
0.00184004
0.00167043
0.00146748
0.00124696
0.00100989
0.000772931
0.000529071
0.000298897
0.00220308
0.00207188
0.00181292
0.0016534
0.00134273
0.00194725
0.00220703
0.00214029
0.00203144
0.00194808
0.00184971
0.00172417
0.00155958
0.00136995
0.00115847
0.000936431
0.000709751
0.000473811
0.000256308
0.00213088
0.00201991
0.00189123
0.0018593
0.00135771
0.00204214
0.00180345
0.00127562
0.00177656
0.00192537
0.00203441
0.00191272
0.00186494
0.00180968
0.00172849
0.0016091
0.00145947
0.00128092
0.00108217
0.000869068
0.000652458
0.000428324
0.000219095
0.0019961
0.00211933
0.00194047
0.0018512
0.00188759
0.00169779
0.000903722
0.00183741
0.00186864
0.00178542
0.00176688
0.0010956
0.00177619
0.00175118
0.00182468
0.0017639
0.00174258
0.00172601
0.00168386
0.0016109
0.0015053
0.00136727
0.00119883
0.00100869
0.000808991
0.000601889
0.000387127
0.000188028
0.00195929
0.00205097
0.00187582
0.0018189
0.00177127
0.00178807
0.000257094
0.00139649
0.00179102
0.00161469
0.00159856
0.00160505
0.00161911
0.00179361
0.00171482
0.00250096
0.00198808
0.00168985
0.00176436
0.00158681
0.00160408
0.00159609
0.00156446
0.00150236
0.00140885
0.00127889
0.00112231
0.000944846
0.000748698
0.000557622
0.000352548
0.000164411
0.0019289
0.00199776
0.00165618
0.00168481
-0.00105647
0.00283119
0.00161669
0.00161649
0.0015106
0.00145214
0.00142134
0.00142922
0.0014677
0.00150664
0.00148913
0.00172003
0.00202395
0.00222964
0.00164233
0.00145235
0.00147279
0.00147349
0.00145154
0.00140332
0.00131683
0.00119736
0.00104896
0.000878684
0.000705168
0.000519038
0.000325304
0.000145478
-0.00356639
0.00156266
0.00151648
0.00143246
0.00143323
0.00137641
0.00130833
0.00128519
0.00127125
0.00131906
0.0013833
0.00138827
0.00144204
0.00146569
0.0013229
0.00134646
0.00136098
0.00135235
0.00130926
0.00123171
0.00112013
0.000981265
0.000830516
0.000660308
0.000486744
0.000302513
0.00013497
0.00139482
0.001386
0.00131713
0.00129849
0.00122775
0.00117235
0.00115452
0.00113263
0.00116915
0.00123325
0.00125535
0.0013286
0.00136324
0.00119935
0.00123887
0.00126095
0.00125738
0.0012214
0.00115022
0.0010478
0.000924915
0.00078067
0.000626486
0.000463878
0.000289791
0.000126323
0.00127879
0.00125775
0.00117408
0.00114694
0.00108982
0.00104183
0.00103445
0.0010017
0.00103351
0.00108274
0.00111045
0.00118078
0.00122756
0.00109304
0.00113607
0.00116396
0.00116834
0.00113677
0.00107208
0.000981942
0.000870006
0.000742368
0.000596916
0.000445033
0.000279305
0.00013028
0.00113331
0.00110668
0.00103224
0.00100393
0.000956564
0.000924929
0.000928436
0.000880218
0.000905327
0.000945488
0.000972084
0.00103106
0.00107857
0.000986752
0.00104129
0.00107621
0.00108008
0.0010546
0.000998764
0.000918913
0.000821922
0.000704282
0.000573715
0.000431956
0.000275869
0.000136459
0.000988207
0.000965805
0.000899252
0.000872397
0.000836566
0.000815032
0.000824153
0.000774742
0.000788629
0.000818157
0.000844099
0.000893865
0.000935502
0.00089432
0.000953355
0.000988869
0.00100089
0.000977054
0.000928453
0.000862842
0.00078031
0.000680887
0.000559724
0.000425193
0.000282485
0.000152486
0.000854464
0.000834509
0.00077861
0.000751224
0.000725436
0.00071156
0.000731908
0.000673052
0.000681917
0.00070175
0.000730092
0.000767239
0.000806975
0.000804045
0.000867577
0.000910846
0.000917169
0.000897917
0.000863022
0.000815667
0.000750024
0.000660283
0.00055026
0.000427732
0.000293471
0.000164433
0.00073249
0.000713969
0.000666436
0.000640687
0.000623654
0.000618636
0.00064189
0.000580576
0.000582132
0.000597144
0.000621206
0.000648622
0.000694673
0.000723382
0.000788214
0.000824343
0.000833799
0.00082221
0.000803177
0.000775735
0.00072597
0.000648356
0.000545617
0.000432969
0.000300155
0.000188888
0.000622862
0.000601825
0.000561739
0.00054559
0.000529949
0.000531716
0.00056074
0.000492684
0.000491141
0.000500062
0.000519901
0.000545129
0.000585763
0.000643152
0.000708225
0.000746084
0.000749591
0.000749591
0.000752861
0.000746378
0.000710102
0.000637846
0.00054729
0.000440275
0.000324492
0.000217674
0.000520356
0.000506225
0.000467344
0.000452167
0.000443386
0.000451788
0.000482781
0.000410393
0.000405791
0.000411328
0.000428986
0.000453547
0.000479721
0.000570221
0.000633361
0.000654027
0.000662723
0.000685131
0.00071712
0.000726805
0.000697022
0.000636646
0.000550043
0.000461212
0.000348171
0.000252963
0.000424805
0.000413089
0.000379144
0.000367397
0.000362799
0.000379882
0.000411916
0.000329431
0.00032695
0.000327965
0.000344847
0.000365706
0.000389266
0.000496174
0.000543573
0.000556974
0.000579932
0.000637217
0.000696882
0.000713688
0.000687266
0.000634138
0.000565412
0.000476856
0.000382526
0.0002953
0.000336535
0.000328846
0.000299724
0.000286081
0.000287456
0.000309365
0.00033865
0.000254247
0.000249924
0.000251313
0.000268521
0.000282462
0.000305699
0.00041939
0.000448529
0.00045279
0.000513175
0.000616345
0.000684395
0.000699587
0.000680423
0.000637273
0.000576228
0.000507978
0.000418682
0.000341264
0.000258395
0.000246779
0.000223244
0.000215014
0.000218371
0.000240309
0.000272674
0.000182081
0.000175553
0.00017692
0.000190428
0.000206755
0.000230444
0.000336886
0.000324301
0.000355348
0.00048845
0.000611186
0.000672629
0.00068635
0.00067314
0.000643201
0.000597635
0.000539425
0.000463048
0.000399843
0.000179778
0.000186057
0.000151698
0.000145208
0.000149549
0.000172941
0.000202067
0.000106687
0.000104742
0.000105663
0.000120719
0.000132333
0.000147037
0.000220131
0.00019086
0.000314439
0.000496842
0.000610871
0.000652109
0.000666278
0.000669163
0.000654822
0.000626393
0.000581248
0.000516581
0.000466809
0.00010835
0.000116084
8.65811e-05
7.32297e-05
7.99453e-05
0.000106572
0.000121955
2.66338e-05
3.56021e-05
3.45509e-05
5.53001e-05
6.27061e-05
7.84376e-05
6.76108e-05
9.38279e-05
0.000346137
0.000523582
0.000587298
0.000619468
0.000648953
0.000666795
0.000673724
0.000658583
0.00062987
0.000578448
0.000544175
4.55352e-05
4.26237e-05
1.76677e-05
5.67863e-06
9.66562e-06
4.47731e-05
1.8329e-05
-6.28611e-05
-4.3727e-05
-3.56612e-05
-1.29959e-05
-7.85401e-06
1.57278e-05
-0.000149774
0.000148305
0.000424306
0.000503282
0.000539896
0.000586275
0.000632409
0.000673199
0.000696433
0.00070162
0.000682655
0.000652945
0.000632326
-2.38897e-05
-2.20006e-05
-4.98244e-05
-6.64274e-05
-5.87735e-05
-2.23702e-05
-0.000293666
-0.000154728
-0.000120668
-0.000113427
-8.31923e-05
-7.54236e-05
-5.26438e-05
-0.000144903
0.000326453
0.000408865
0.000435245
0.000488851
0.000554529
0.000622185
0.000680406
0.000724637
0.000743145
0.000758167
0.000735561
0.0007329
-9.1788e-05
-9.31997e-05
-0.000117743
-0.000146381
-0.000133375
-0.000137383
-0.000515757
-0.000481571
-0.00018023
-0.000200269
-0.000157797
-0.000149052
-0.000120414
0.000232756
0.000317584
0.000316209
0.000366798
0.000441235
0.000525848
0.000612646
0.000693088
0.00075805
0.000809815
0.00082815
0.000832738
0.000846823
-0.000165246
-0.000167341
-0.000199034
-0.000241629
-0.00011647
-0.000824072
0.000105523
-0.000382174
-0.000211338
-0.00030481
-0.000229703
-0.000233603
-0.00019787
0.000229281
0.000180613
0.000227397
0.000303709
0.000394834
0.000499021
0.000608405
0.000713734
0.000805842
0.000869793
0.000924865
0.000937248
0.000968313
-0.000243808
-0.000266674
-0.000226939
-0.000304743
-0.00144044
-3.34771e-05
9.39137e-05
-5.10215e-05
-0.000486803
-2.4184e-05
-0.000101034
-0.000342529
-0.000289475
3.78697e-05
7.68601e-05
0.000153999
0.000244674
0.000351964
0.000473745
0.000606048
0.000738491
0.000854996
0.000955495
0.00101538
0.00105825
0.00111593
-0.000327637
-0.000366083
0.000354125
-0.00229066
-2.15929e-05
-0.000178789
-0.000102976
-0.000150652
-0.000193196
-7.73382e-05
0.00054101
-0.000161547
-0.000298013
-7.75375e-05
4.19816e-06
8.86295e-05
0.000186641
0.000305549
0.000449902
0.000608907
0.000770559
0.000918678
0.00103839
0.00113563
0.00119702
0.00127655
6.44526e-05
-0.00451326
-0.000184166
-0.000223138
-0.000271735
-0.000240448
-0.000214393
-0.000232273
-0.000266337
-0.00030467
-0.000343205
-0.000143498
-6.46847e-05
1.77272e-05
0.000124117
0.000262051
0.000429721
0.000618216
0.000811223
0.000992396
0.00114077
0.00126595
0.00135023
0.00145209
-0.000332492
-0.000313303
-0.000294742
-0.000305504
-0.000281605
-0.000309627
-0.000317134
-0.000312374
-0.000326295
-0.000210218
-0.000140577
-5.3212e-05
6.49263e-05
0.000218784
0.000410349
0.000630396
0.000859129
0.0010702
0.00126095
0.00140831
0.00152148
0.00165269
-0.00033088
-0.000335358
-0.00035881
-0.000371434
-0.000350522
-0.000382469
-0.000389118
-0.000360638
-0.000362757
-0.000284945
-0.000216462
-0.000126054
-1.7955e-07
0.000172851
0.000394081
0.000649458
0.00091384
0.00116911
0.00138896
0.00157408
0.00171791
0.00187123
-0.000389062
-0.000404505
-0.000427358
-0.000435836
-0.000419054
-0.000455723
-0.00045967
-0.000442075
-0.00043151
-0.000363681
-0.000296432
-0.000203236
-6.7765e-05
0.000128253
0.00038203
0.000673904
0.000982198
0.00128291
0.00153727
0.00176284
0.00192619
0.0021075
-0.000462543
-0.000476758
-0.000497145
-0.0005026
-0.000495554
-0.000526999
-0.000527221
-0.000511628
-0.000502279
-0.000440959
-0.000377881
-0.00028599
-0.000136562
8.49854e-05
0.000372134
0.000709195
0.00106699
0.001402
0.00170906
0.0019544
0.00216911
0.00236739
-0.0005328
-0.000547245
-0.000562306
-0.000575088
-0.000570163
-0.000600689
-0.000596771
-0.000583742
-0.000566064
-0.000524342
-0.000471709
-0.000376937
-0.000208258
4.0534e-05
0.000368706
0.000751186
0.00115109
0.00153955
0.00188542
0.00219185
0.00243642
0.00269004
-0.000600616
-0.000614693
-0.000632625
-0.000646356
-0.000649816
-0.000678035
-0.000668935
-0.000649326
-0.00063583
-0.000619296
-0.000574966
-0.000472678
-0.000283857
-3.00659e-07
0.000368864
0.000799662
0.00125326
0.00169904
0.00209789
0.00245559
0.00275623
0.00304011
-0.000663398
-0.000682423
-0.000704976
-0.000721008
-0.000737359
-0.000752736
-0.000742474
-0.000720743
-0.000704947
-0.000725985
-0.000686515
-0.000569029
-0.000355904
-3.87241e-05
0.000374628
0.000859239
0.00137729
0.00187052
0.00234305
0.0027324
0.00329185
0.0012693
-0.00073985
-0.000755324
-0.000778442
-0.000796574
-0.000839405
-0.000833935
-0.000814168
-0.000791876
-0.000777706
-0.000851074
-0.000807071
-0.000665723
-0.00042914
-7.82608e-05
0.000384623
0.000929794
0.00150287
0.00208308
0.0025609
0.00333891
0.0014805
-0.000811634
-0.000827466
-0.000853171
-0.000880271
-0.000966391
-0.000924169
-0.000890087
-0.000862715
-0.00084923
-0.000994085
-0.000915261
-0.000766249
-0.000509566
-0.000117354
0.0004023
0.00100658
0.00166427
0.00224092
0.00312528
0.0015403
-0.000887096
-0.000904414
-0.000924623
-0.000986592
-0.00110705
-0.00112717
-0.000955441
-0.00094398
-0.000923667
-0.00110939
-0.00102541
-0.000874647
-0.000591288
-0.000151398
0.000423764
0.00110945
0.0017628
0.00272575
0.00139644
-0.000963381
-0.000984171
-0.000953749
-0.00143854
-0.00124468
-0.00115201
-0.000932744
-0.00102714
-0.00100399
-0.0012107
-0.00115183
-0.000993172
-0.000673499
-0.000185706
0.000465048
0.0011566
0.00215726
0.00112627
-0.00104919
-0.00107704
-0.00373569
-0.00213607
-0.00123434
-0.00133965
-0.00132136
-0.00157162
-0.00141576
-0.00114974
0.00137791
-0.00111254
-0.00134253
-0.00129697
-0.001117
-0.000758225
-0.000206936
0.00046284
0.00144309
0.000771175
-0.000973782
-0.00137455
-0.00134974
-0.00137019
-0.00146497
-0.00142761
-0.00136517
-0.00136299
-0.00137467
-0.00139077
-0.000698876
-0.00150088
-0.00145128
-0.0012431
-0.000837236
-0.000252797
0.000631361
0.000360563
-0.00129176
-0.00138589
-0.00138717
-0.00138688
-0.00140646
-0.00148798
-0.00162159
-0.00156111
-0.00144032
-0.00146212
-0.00138646
-0.00139207
-0.00145671
-0.00144972
-0.00167436
-0.00161202
-0.00137189
-0.000920417
-0.000204725
-6.56679e-05
-0.00142548
-0.00141717
-0.00140648
-0.00142772
-0.00149838
-0.00152747
-0.001631
-0.00180052
-0.00171566
-0.00156428
-0.00160292
-0.0014529
-0.00148178
-0.00140484
-0.00141013
-0.00185807
-0.00178129
-0.00148509
-0.000988347
-0.000472949
-0.00141824
-0.00144361
-0.00151486
-0.00154431
-0.00163143
-0.00167488
-0.00179362
-0.00199563
-0.00189218
-0.00171183
-0.00175658
-0.00158374
-0.00161661
-0.00146205
-0.00149474
-0.00206123
-0.00192182
-0.00165742
-0.00082807
-0.00152601
-0.00155828
-0.00164708
-0.00169013
-0.00178802
-0.00183645
-0.00197621
-0.00222346
-0.00208685
-0.00188083
-0.00192589
-0.00172791
-0.00176695
-0.00159382
-0.00162782
-0.00223988
-0.002181
-0.00110948
-0.00165974
-0.00169892
-0.00180491
-0.00184573
-0.00196511
-0.00201826
-0.00218816
-0.00245493
-0.00232123
-0.00206941
-0.00211682
-0.00189206
-0.0019339
-0.00173802
-0.00177543
-0.00257463
-0.00131444
-0.00181327
-0.00185081
-0.00197933
-0.00202544
-0.00216738
-0.00222393
-0.00241918
-0.00290694
-0.00254858
-0.00228643
-0.00234287
-0.00207299
-0.0021229
-0.001903
-0.00194002
-0.00145456
-0.00198457
-0.00202945
-0.00217461
-0.00222785
-0.00239756
-0.0024616
-0.0027267
-0.00167857
-0.0030231
-0.00251734
-0.00258084
-0.00228483
-0.0023404
-0.0020787
-0.00212167
-0.0021737
-0.0022273
-0.00239929
-0.00245812
-0.00265408
-0.00274538
-0.00319973
-0.00159355
-0.00287358
-0.00298516
-0.00251638
-0.00258078
-0.00228336
-0.00233687
-0.00239269
-0.00244858
-0.00265853
-0.00274783
-0.00310572
-0.00335585
-0.00330804
-0.00136757
-0.00285305
-0.00295605
-0.00250673
-0.00256542
-0.00263791
-0.00272604
-0.00307169
-0.00337022
-0.00363265
-0.00134044
-0.00282548
-0.00293815
-0.00305581
-0.00334955
-0.00393386
-0.00164572
-0.0183363
-0.0173413
-0.0181961
-0.0174491
-0.0170446
-0.0180205
-0.0181918
-0.0171345
-0.016708
-0.0178228
-0.0186872
-0.0171188
-0.0186349
-0.0167826
-0.0163388
-0.0193155
-0.0180885
-0.0162725
-0.0194034
-0.0163807
-0.0190439
-0.016439
-0.015977
-0.0208252
-0.0196113
-0.0183589
-0.016585
-0.0147893
-0.0156437
-0.0201984
-0.0194534
-0.01607
-0.0156315
-0.0223722
-0.0211647
-0.0209845
-0.0198919
-0.0186128
-0.0168602
-0.0151053
-0.0133456
-0.0141918
-0.0149219
-0.0153452
-0.0157184
-0.0198811
-0.0202832
-0.015259
-0.0238365
-0.0227443
-0.0217768
-0.0225704
-0.0214581
-0.0206578
-0.0210363
-0.0201472
-0.0188415
-0.0171109
-0.0153843
-0.0136546
-0.0119261
-0.0127568
-0.0134772
-0.0138907
-0.0142591
-0.0146152
-0.0149793
-0.0148741
-0.024357
-0.0233525
-0.0241763
-0.0249436
-0.0251473
-0.0230484
-0.0214465
-0.0218538
-0.0222344
-0.0226235
-0.0217125
-0.0203766
-0.0190477
-0.0173372
-0.0156349
-0.0139342
-0.0122322
-0.0105258
-0.0113411
-0.0120504
-0.0124563
-0.0128183
-0.0131704
-0.0135277
-0.0138002
-0.0141683
-0.0145156
-0.0260353
-0.0246755
-0.0230331
-0.023448
-0.0249245
-0.0238525
-0.0242675
-0.025946
-0.0261059
-0.0233043
-0.0219427
-0.0205854
-0.0192336
-0.0175392
-0.0158594
-0.0141848
-0.0125121
-0.010834
-0.00914206
-0.0099423
-0.0106423
-0.0110419
-0.011399
-0.0117459
-0.0120979
-0.0123654
-0.0127276
-0.0130701
-0.0134223
-0.0277046
-0.0263291
-0.0249297
-0.0246771
-0.0250879
-0.0252162
-0.0257943
-0.0260874
-0.0267952
-0.0269789
-0.0235392
-0.0221533
-0.0207776
-0.0193995
-0.0177177
-0.0160582
-0.0144083
-0.0127616
-0.0111165
-0.00945739
-0.00777081
-0.0085561
-0.00924865
-0.00964378
-0.00999671
-0.0103404
-0.0106869
-0.0109508
-0.0113085
-0.0116465
-0.0119938
-0.0294329
-0.0280052
-0.0278627
-0.0265873
-0.0251678
-0.025418
-0.0258908
-0.0264791
-0.027672
-0.0269018
-0.0237565
-0.0223488
-0.020953
-0.0195461
-0.0178741
-0.0162325
-0.0146046
-0.0129822
-0.011366
-0.00974516
-0.00809838
-0.00641629
-0.00717638
-0.00786303
-0.00825618
-0.00860603
-0.00894768
-0.00929085
-0.0095518
-0.00990579
-0.0102423
-0.0105833
-0.0312147
-0.0297394
-0.0287305
-0.0296166
-0.0282798
-0.0268321
-0.0253892
-0.0258461
-0.0263605
-0.0277621
-0.0285469
-0.0273253
-0.0268006
-0.0239569
-0.0225337
-0.0211086
-0.0196683
-0.0180107
-0.0163812
-0.0147721
-0.0131714
-0.0115807
-0.00999423
-0.00839278
-0.00675305
-0.00510188
-0.00579455
-0.00647835
-0.0068723
-0.00722052
-0.00756134
-0.00790225
-0.00816158
-0.00851363
-0.00884865
-0.00918755
-0.0330264
-0.0315141
-0.0304993
-0.0314041
-0.0300176
-0.0294278
-0.028532
-0.0270592
-0.0255977
-0.026272
-0.0282013
-0.0276705
-0.0286449
-0.0272325
-0.0266982
-0.0241474
-0.0227007
-0.021243
-0.0197597
-0.0181173
-0.0165023
-0.0149135
-0.0133312
-0.0117603
-0.0102007
-0.00864021
-0.00705115
-0.00541653
-0.00380761
-0.00448685
-0.00509767
-0.00548322
-0.00583065
-0.00617525
-0.00651474
-0.00677298
-0.00712439
-0.00745989
-0.00779767
-0.0348744
-0.0333214
-0.0323
-0.0332309
-0.0317919
-0.0303088
-0.0312073
-0.0302715
-0.0295173
-0.0290726
-0.0287649
-0.0272744
-0.0257931
-0.028109
-0.0275632
-0.0285495
-0.0271333
-0.0243216
-0.022847
-0.0213471
-0.0198138
-0.0181927
-0.0165954
-0.0150249
-0.0134614
-0.0119078
-0.0103676
-0.00883628
-0.00729512
-0.00570714
-0.00408966
-0.00249511
-0.0031661
-0.00384223
-0.0041471
-0.0044305
-0.00476366
-0.00510798
-0.00537358
-0.00572987
-0.00606791
-0.00640881
-0.03676
-0.0351768
-0.0341398
-0.0350746
-0.0336014
-0.0321229
-0.0330865
-0.0320482
-0.0299585
-0.0304081
-0.0312904
-0.030837
-0.0305079
-0.0294244
-0.0289832
-0.0289829
-0.0274759
-0.0259781
-0.0280052
-0.0284402
-0.0244785
-0.0229643
-0.0214148
-0.0198271
-0.0182331
-0.0166584
-0.0151073
-0.0135615
-0.0120206
-0.0104941
-0.0089828
-0.00747613
-0.00594211
-0.00435338
-0.00274959
-0.00126973
-0.00194425
-0.00250447
-0.00281347
-0.0031322
-0.00345965
-0.00389406
-0.00383071
-0.00423721
-0.00461905
-0.00499155
-0.0386806
-0.0370778
-0.0360124
-0.0369748
-0.0354586
-0.033979
-0.0348768
-0.0338608
-0.031733
-0.0321991
-0.0332168
-0.0326469
-0.0322863
-0.0298658
-0.03031
-0.0311855
-0.0307437
-0.0307302
-0.0293157
-0.028882
-0.0291916
-0.0276671
-0.0261436
-0.0246079
-0.0230439
-0.0214413
-0.019803
-0.0182359
-0.0166858
-0.0151567
-0.0136313
-0.0121051
-0.0105867
-0.00908527
-0.00759683
-0.00610275
-0.00456232
-0.00295246
-0.00139907
-0.000275128
-0.000900374
-0.00136829
-0.0016433
-0.00191752
-0.00219781
-0.0024889
-0.00267035
-0.00294744
-0.00320851
-0.00393512
-0.0406478
-0.0390117
-0.0379306
-0.0389106
-0.0373628
-0.0358175
-0.036776
-0.035718
-0.0335906
-0.0340229
-0.0349538
-0.0344795
-0.0341016
-0.0316185
-0.0320425
-0.0332682
-0.0324445
-0.0325118
-0.0297632
-0.0302015
-0.0310797
-0.0306455
-0.0309431
-0.02939
-0.0278419
-0.0262844
-0.0247022
-0.0230835
-0.0214286
-0.0197468
-0.0182025
-0.0166757
-0.0151698
-0.0136675
-0.012159
-0.01065
-0.00915319
-0.00766907
-0.00619227
-0.00468933
-0.00310479
-0.00147246
-0.000341976
-6.22526e-05
-0.000458296
-0.000680475
-0.000883879
-0.00111462
-0.00135349
-0.00151546
-0.00179649
-0.00207431
-0.00236461
-0.00255201
-0.00283924
-0.00311933
-0.00414411
-0.042664
-0.040987
-0.0398883
-0.0408872
-0.0393054
-0.0377399
-0.0387151
-0.0376213
-0.0354436
-0.0359195
-0.0368663
-0.0363895
-0.0359591
-0.0333346
-0.0338417
-0.0348351
-0.0343438
-0.0343293
-0.0315181
-0.031934
-0.033338
-0.0323218
-0.0327283
-0.0311471
-0.0295739
-0.0279939
-0.026391
-0.0247554
-0.0230843
-0.0213829
-0.0196662
-0.0181385
-0.016632
-0.0151463
-0.0136689
-0.0121821
-0.010686
-0.00919106
-0.00770229
-0.00622655
-0.0047361
-0.00318522
-0.00150177
-0.000392727
1.25185e-05
-0.000185198
-0.000338051
-0.000484902
-0.000568473
-0.000771727
-0.000992391
-0.00123695
-0.00137557
-0.00165863
-0.00194775
-0.00224051
-0.0447363
-0.0430101
-0.0418883
-0.0429083
-0.0412871
-0.0396977
-0.040692
-0.0395682
-0.0373556
-0.0378404
-0.0388034
-0.0383166
-0.037862
-0.0353291
-0.0358056
-0.0367519
-0.0362783
-0.0361902
-0.0345526
-0.0329396
-0.0313397
-0.0297356
-0.0281142
-0.0264581
-0.0247698
-0.0230505
-0.021312
-0.0195725
-0.0180514
-0.0165592
-0.0150901
-0.0136351
-0.0121711
-0.0106926
-0.00920524
-0.0077115
-0.00622298
-0.00472211
-0.00319231
-0.00147671
-0.000424342
3.53218e-05
-0.000154802
-0.000258863
-0.00038881
-0.000434206
-0.000632509
-0.000855119
-0.00109787
-0.0468631
-0.0450835
-0.0439343
-0.0449777
-0.0433154
-0.0416953
-0.0427098
-0.0415565
-0.0393024
-0.0397996
-0.040783
-0.040284
-0.0398131
-0.0372413
-0.0377234
-0.0386858
-0.0382048
-0.0380955
-0.0364162
-0.0347692
-0.0331422
-0.0315145
-0.0298685
-0.0281967
-0.0264879
-0.0247505
-0.0229906
-0.0212268
-0.0194742
-0.0179521
-0.0164643
-0.0150068
-0.0135703
-0.0121306
-0.0106776
-0.00920119
-0.00770651
-0.00620359
-0.00467832
-0.00314747
-0.00139677
-0.000442097
6.0581e-05
-6.97033e-05
-0.000147507
-0.000263298
-0.049014
-0.0471963
-0.0460289
-0.0471048
-0.0453905
-0.043734
-0.0447691
-0.0435894
-0.0412927
-0.0418012
-0.0428061
-0.0422952
-0.0418062
-0.0391868
-0.0396808
-0.0406634
-0.04017
-0.0400486
-0.0383265
-0.0366423
-0.0349809
-0.0333277
-0.0316616
-0.0299661
-0.0282415
-0.0264838
-0.0247041
-0.022916
-0.0211362
-0.0193867
-0.017849
-0.0163591
-0.0149033
-0.0134786
-0.0120619
-0.0106344
-0.0091814
-0.00769467
-0.00618004
-0.00462713
-0.00308074
-0.00128207
-0.000445023
-0.0512281
-0.0493472
-0.0481687
-0.0492781
-0.0475033
-0.0458123
-0.0468802
-0.0456673
-0.0433268
-0.0438482
-0.0448753
-0.0443522
-0.0438442
-0.0411759
-0.0416803
-0.0426858
-0.0421808
-0.0420466
-0.0402823
-0.0385579
-0.0368646
-0.0351806
-0.0334902
-0.0317759
-0.030029
-0.0282537
-0.0264529
-0.0246428
-0.0228355
-0.021056
-0.0193293
-0.0177583
-0.016251
-0.01479
-0.0133693
-0.0119698
-0.0105668
-0.00913963
-0.00767031
-0.00616029
-0.00458834
-0.00301848
-0.00116167
-0.000440627
-0.0534813
-0.0515712
-0.0503646
-0.0514853
-0.0496596
-0.0479812
-0.0491335
-0.0477848
-0.0454044
-0.0459358
-0.0469743
-0.0464442
-0.0459246
-0.04321
-0.0437265
-0.0447556
-0.0442387
-0.0440887
-0.0422846
-0.0405198
-0.0387884
-0.0370755
-0.0353581
-0.0336208
-0.0318558
-0.0300593
-0.028239
-0.0264065
-0.0245744
-0.0227651
-0.0210046
-0.0193176
-0.0176963
-0.016155
-0.0146739
-0.0132507
-0.0118613
-0.01048
-0.00908046
-0.00764169
-0.00614758
-0.00457144
-0.00298899
-0.00107536
-0.000445924
-0.0557876
-0.0538445
-0.0526086
-0.0537585
-0.0518843
-0.0501444
-0.051251
-0.0499468
-0.0474883
-0.048019
-0.0490576
-0.0487934
-0.0480456
-0.0452901
-0.0458178
-0.0468518
-0.0463347
-0.0461713
-0.044332
-0.0425265
-0.0407601
-0.0390123
-0.0372679
-0.0355061
-0.0337189
-0.0319037
-0.0300625
-0.0282085
-0.0263517
-0.0245156
-0.0227235
-0.0209997
-0.0193634
-0.0176789
-0.0160886
-0.0145714
-0.0131306
-0.0117426
-0.0103775
-0.00900482
-0.00759733
-0.00613578
-0.00457633
-0.0029937
-0.00104961
-0.000476153
-0.0581603
-0.0561635
-0.0549035
-0.0560731
-0.0541634
-0.0523947
-0.0535374
-0.0521701
-0.0496347
-0.0502211
-0.0513608
-0.0507911
-0.0502117
-0.0473662
-0.0478278
-0.0487777
-0.0482983
-0.0464187
-0.0445811
-0.042774
-0.0409944
-0.0392197
-0.0374333
-0.0356232
-0.0337861
-0.0319248
-0.030049
-0.0281692
-0.0263054
-0.024485
-0.0227272
-0.021054
-0.0194691
-0.0177192
-0.0160678
-0.0144997
-0.0130225
-0.0116225
-0.0102657
-0.00891592
-0.00754219
-0.0061192
-0.00459612
-0.0030368
-0.00109498
-0.000532988
-0.0605956
-0.0585419
-0.0572454
-0.0584816
-0.0564943
-0.0546883
-0.0558346
-0.0544496
-0.0519533
-0.0525241
-0.0536424
-0.0530753
-0.0524378
-0.0504689
-0.0485515
-0.0466762
-0.0448373
-0.0430216
-0.0412162
-0.0394025
-0.0375688
-0.0357099
-0.0338269
-0.0319293
-0.0300264
-0.0281377
-0.0262864
-0.0244993
-0.0227903
-0.0211692
-0.0196269
-0.0178185
-0.0161036
-0.0144735
-0.0129443
-0.0115132
-0.0101499
-0.00881647
-0.00747477
-0.00609499
-0.00462183
-0.00310628
-0.00120626
-0.000613581
-0.0631191
-0.0609898
-0.0596741
-0.0609029
-0.0588817
-0.0569202
-0.0579265
-0.0585624
-0.056788
-0.0542388
-0.0548202
-0.055961
-0.0553813
-0.0547194
-0.0526982
-0.0507322
-0.0488154
-0.0469414
-0.0450954
-0.0432593
-0.0414166
-0.0395577
-0.0376752
-0.0357696
-0.0338499
-0.0319229
-0.0300094
-0.0281317
-0.0263125
-0.024573
-0.0229161
-0.0213374
-0.0198207
-0.0179694
-0.0161993
-0.014506
-0.012912
-0.0114322
-0.0100434
-0.00871062
-0.00739566
-0.00605843
-0.00464029
-0.00318057
-0.00135671
-0.000705308
-0.0656696
-0.0634981
-0.0621469
-0.0634215
-0.0613324
-0.0591861
-0.0598221
-0.060424
-0.0610391
-0.0591845
-0.0565555
-0.057665
-0.0571776
-0.0584
-0.0570631
-0.0549855
-0.0529667
-0.0510054
-0.0490941
-0.0472127
-0.0453464
-0.043476
-0.0415907
-0.0396836
-0.0377546
-0.0358111
-0.0338607
-0.0319205
-0.0300155
-0.0281672
-0.0263959
-0.0247084
-0.0230971
-0.0215426
-0.0200262
-0.0181542
-0.0163466
-0.014599
-0.012938
-0.0113937
-0.00996052
-0.0086122
-0.00730885
-0.00600865
-0.00464572
-0.00325024
-0.00152129
-0.000800344
-0.0682967
-0.0660385
-0.0646839
-0.0659965
-0.0638375
-0.0616685
-0.0623057
-0.062923
-0.0635515
-0.0616402
-0.0590663
-0.0597053
-0.0603004
-0.0609126
-0.0594665
-0.0577452
-0.0583171
-0.0573331
-0.0552599
-0.0532502
-0.0512953
-0.0493812
-0.0474815
-0.0455816
-0.0436686
-0.0417366
-0.0397829
-0.0378152
-0.0358387
-0.0338727
-0.0319388
-0.0300613
-0.0282579
-0.0265385
-0.0248963
-0.023313
-0.0217659
-0.0202282
-0.0183487
-0.0165306
-0.0147442
-0.0130232
-0.0114102
-0.00991621
-0.0085321
-0.00722335
-0.00594901
-0.00463506
-0.00330754
-0.00167474
-0.000900003
-0.070988
-0.0686764
-0.0672961
-0.068624
-0.0663891
-0.0641837
-0.0648305
-0.0654483
-0.0661609
-0.0641475
-0.0615613
-0.0621963
-0.0627944
-0.0634141
-0.0619269
-0.0589504
-0.0595734
-0.0601811
-0.0607816
-0.0597424
-0.0576143
-0.0555508
-0.0535516
-0.0515963
-0.0496658
-0.0477359
-0.0457947
-0.043835
-0.0418557
-0.0398623
-0.0378605
-0.0358664
-0.0339035
-0.031994
-0.03016
-0.0284079
-0.0267329
-0.0251189
-0.023544
-0.0219893
-0.0204253
-0.0185333
-0.0167288
-0.0149236
-0.0131601
-0.0114848
-0.00992325
-0.0084853
-0.00714946
-0.00588459
-0.00461095
-0.00334873
-0.00180055
-0.00100971
-0.0737368
-0.0713949
-0.0699651
-0.0713407
-0.0690278
-0.0667795
-0.0674316
-0.0680786
-0.0687536
-0.0667105
-0.0640632
-0.064694
-0.0652772
-0.0661615
-0.0644384
-0.0614328
-0.0620605
-0.0626755
-0.0632818
-0.0622074
-0.0600268
-0.0579119
-0.0558647
-0.0538679
-0.0518995
-0.0499377
-0.0479684
-0.045981
-0.0439745
-0.0419547
-0.0399255
-0.0379032
-0.0359094
-0.0339677
-0.0320993
-0.0303133
-0.0286059
-0.026959
-0.025353
-0.0237661
-0.0221884
-0.0209846
-0.0187093
-0.020079
-0.016922
-0.0151175
-0.013331
-0.0116104
-0.00998615
-0.00848376
-0.00710223
-0.00582457
-0.00457677
-0.00337281
-0.00189425
-0.00113851
-0.076568
-0.0741624
-0.0727109
-0.0741149
-0.0717502
-0.0694519
-0.0701478
-0.0708084
-0.0714842
-0.0693488
-0.0665991
-0.0672603
-0.0679129
-0.0685848
-0.067007
-0.0639322
-0.0645422
-0.0650987
-0.0660169
-0.0647231
-0.062496
-0.0603338
-0.0582353
-0.0561956
-0.0541884
-0.0521924
-0.0501911
-0.0481755
-0.0461407
-0.0440929
-0.0420351
-0.0399839
-0.0379587
-0.0359838
-0.0340794
-0.0322588
-0.0305146
-0.0288337
-0.0271937
-0.0255717
-0.0239522
-0.0227415
-0.0218402
-0.0210521
-0.0192138
-0.0171038
-0.0184075
-0.0201618
-0.015306
-0.0135178
-0.0117724
-0.0101004
-0.00853402
-0.00709429
-0.00578155
-0.00454002
-0.00337981
-0.00196043
-0.00128889
-0.0794967
-0.0770077
-0.0755224
-0.0769569
-0.0745322
-0.0721883
-0.0728979
-0.0735728
-0.0742635
-0.0720674
-0.0693293
-0.0700249
-0.0706607
-0.0713191
-0.0696488
-0.0673006
-0.0650201
-0.0628103
-0.0606673
-0.0585801
-0.0565322
-0.0545002
-0.0524664
-0.0504194
-0.0483558
-0.0462788
-0.0441915
-0.0421083
-0.0400516
-0.0380415
-0.0361034
-0.034243
-0.0324639
-0.0307461
-0.0290705
-0.0274137
-0.025757
-0.0245241
-0.0236067
-0.0227887
-0.021906
-0.0213007
-0.0208566
-0.0192722
-0.0175993
-0.0154708
-0.0167895
-0.0184855
-0.0199752
-0.0204314
-0.0137002
-0.0119536
-0.0102536
-0.00863402
-0.00713139
-0.00576611
-0.00450903
-0.00337233
-0.00200872
-0.00144619
-0.0825023
-0.0799382
-0.0784094
-0.0798778
-0.0773886
-0.0749879
-0.0757158
-0.0764062
-0.0771139
-0.0748594
-0.0720658
-0.0727743
-0.0734223
-0.0740943
-0.0723668
-0.069946
-0.0676061
-0.065345
-0.0631545
-0.0610248
-0.0589353
-0.0568635
-0.0547951
-0.0527158
-0.050621
-0.0485138
-0.0463957
-0.0442814
-0.0421895
-0.0401444
-0.038166
-0.0362716
-0.0344517
-0.0326978
-0.0309853
-0.0292932
-0.0276028
-0.0263431
-0.0254125
-0.0245799
-0.0236743
-0.0230559
-0.0226068
-0.0217296
-0.022179
-0.0213121
-0.0208738
-0.0194783
-0.0191188
-0.0176622
-0.0159623
-0.01386
-0.0151677
-0.0168328
-0.0183228
-0.0187186
-0.0200728
-0.0204448
-0.012133
-0.0104283
-0.00877328
-0.00721371