/*--------------------------------*- C++ -*----------------------------------*\
| =========                 |                                                 |
| \\      /  F ield         | OpenFOAM: The Open Source CFD Toolbox           |
|  \\    /   O peration     | Version:  v1912                                 |
|   \\  /    A nd           | Website:  www.openfoam.com                      |
|    \\/     M anipulation  |                                                 |
\*---------------------------------------------------------------------------*/
FoamFile
{
    version     2.0;
    format      ascii;
    class       volScalarField;
    location    "480";
    object      p;
}
// * * * * * * * * * * * * * * * * * * * * * * * * * * * * * * * * * * * * * //

dimensions      [0 2 -2 0 0 0 0];


internalField   nonuniform List<scalar> 
3673
(
0.15546
0.138622
0.0855621
0.140045
0.0943826
0.0587958
0.156364
0.11708
0.0737158
0.0725499
0.175034
0.140039
0.0951972
0.0792679
0.0859774
0.192982
0.160283
0.119116
0.0913591
0.0884739
0.0924866
0.210322
0.179529
0.143116
0.109953
0.0951112
0.0936942
0.0943624
0.226948
0.198402
0.166333
0.132729
0.107991
0.0976686
0.0952284
0.0929861
0.242568
0.21673
0.188562
0.156746
0.126571
0.106356
0.0977114
0.0938898
0.0893315
0.25688
0.234276
0.209945
0.180716
0.148405
0.120432
0.103351
0.0955743
0.0903787
0.0843212
0.269558
0.250778
0.230622
0.204481
0.171793
0.138663
0.113187
0.099057
0.0916918
0.0855096
0.0786447
0.280252
0.265898
0.250541
0.22817
0.196183
0.15958
0.126937
0.105242
0.0938151
0.0866933
0.0799401
0.0727231
0.288608
0.279235
0.269453
0.251839
0.221605
0.182491
0.143641
0.114292
0.0973373
0.0881062
0.0811031
0.0740817
0.0668276
0.294295
0.290343
0.286943
0.275366
0.248248
0.207409
0.162667
0.125675
0.102474
0.0900952
0.0822087
0.0752422
0.0682103
0.0611524
0.297039
0.298751
0.302442
0.29841
0.27626
0.234729
0.183991
0.138821
0.108913
0.0928236
0.0834631
0.0761945
0.0693651
0.0625292
0.0557966
0.296675
0.304006
0.315229
0.320356
0.30562
0.265029
0.208095
0.15347
0.116101
0.0961362
0.0849932
0.077064
0.0702281
0.0636691
0.0571473
0.050819
0.293185
0.305733
0.324459
0.34024
0.336016
0.298954
0.235844
0.169672
0.123466
0.0996352
0.0867618
0.0779307
0.0708696
0.06449
0.0582743
0.0521271
0.0462221
0.286731
0.303722
0.329254
0.356666
0.366656
0.337139
0.268516
0.187701
0.130398
0.102814
0.0885633
0.0788029
0.0713297
0.0650355
0.0590839
0.0532249
0.0474773
0.042013
0.277665
0.298002
0.32888
0.367766
0.395913
0.380098
0.307894
0.208071
0.136096
0.105071
0.0900993
0.0795831
0.0716262
0.0653128
0.059609
0.0540252
0.0485423
0.0432111
0.0381729
0.266502
0.288889
0.323002
0.37144
0.420578
0.428168
0.356245
0.231496
0.139406
0.10565
0.0910122
0.0800897
0.071712
0.0653398
0.059845
0.0545578
0.0493317
0.0442362
0.0393093
0.0346785
0.253867
0.276981
0.311848
0.366083
0.435248
0.480006
0.416974
0.258459
0.138401
0.103669
0.0908551
0.0800892
0.0714781
0.0651064
0.0598028
0.0548046
0.0498734
0.0450064
0.0402883
0.0357531
0.0315108
0.240418
0.263081
0.296287
0.351356
0.434531
0.525063
0.498037
0.289883
0.129236
0.0980894
0.0891316
0.0792858
0.0707785
0.0645574
0.0594854
0.0547708
0.0501466
0.045554
0.0410367
0.0366885
0.0325261
0.02864
0.226781
0.248079
0.277711
0.328511
0.416073
0.540205
0.604478
0.332124
0.109071
0.0869158
0.0854768
0.0773256
0.0694526
0.0636137
0.0588692
0.0544657
0.0501559
0.0458578
0.0415866
0.0374131
0.0334156
0.0295959
0.026046
0.213489
0.232797
0.257741
0.300387
0.380545
0.520187
0.62771
0.656674
0.486854
0.718647
0.571725
0.118968
0.271187
0.0911351
0.0704794
0.0706566
0.0792491
0.0740338
0.0673467
0.0622038
0.0579083
0.05388
0.0499132
0.0459155
0.041914
0.0379585
0.0341123
0.0304416
0.0269471
0.023696
0.200962
0.217906
0.237818
0.270573
0.333811
0.460438
0.654488
0.620391
0.757057
0.670717
0.722265
0.594023
0.386822
0.365227
0.100077
0.102962
0.27711
0.0595788
0.0526728
0.0698513
0.0695832
0.0584669
0.0697427
0.0644743
0.0603091
0.0565647
0.0529883
0.0494234
0.0457385
0.0420104
0.0383004
0.0346512
0.0311145
0.027748
0.0245444
0.0215761
0.18951
0.203899
0.218946
0.241897
0.285103
0.376486
0.577727
0.511664
0.768381
0.680596
0.703309
0.789366
0.761084
0.625236
0.529444
0.0652948
0.103662
0.0403249
0.0621596
0.0506975
0.0614263
0.0648849
0.0581329
0.0557958
0.0614414
0.0580408
0.0548515
0.0517755
0.0486924
0.0453389
0.0418823
0.0384305
0.0350075
0.0316457
0.0283918
0.0253063
0.0223746
0.0196546
0.17935
0.191119
0.201708
0.215978
0.241091
0.295497
0.438365
0.342036
0.646397
0.563885
0.817734
0.825603
0.782105
0.733295
0.735516
0.0414106
0.0503415
0.0329113
0.0504909
0.0564072
0.0598155
0.0591304
0.0577125
0.0553672
0.0502635
0.0512094
0.0558898
0.0528868
0.0502742
0.0477488
0.0447346
0.041541
0.0383493
0.0351684
0.0320121
0.0289124
0.0259273
0.0230964
0.0204071
0.0179188
0.170624
0.179788
0.186387
0.193459
0.20463
0.223813
0.241389
0.470213
0.365222
0.720839
0.645153
0.45385
0.550004
0.812876
0.781825
0.0437882
0.0455805
0.0525465
0.05259
0.0567906
0.0574326
0.0544914
0.0551946
0.055972
0.0531124
0.0531641
0.0472424
0.047893
0.0510696
0.048552
0.0466873
0.0439656
0.0410033
0.0380635
0.0351319
0.0321985
0.0292869
0.0264385
0.0236926
0.0210936
0.0186282
0.0163409
0.163415
0.170039
0.173103
0.174348
0.175327
0.171961
0.138444
0.0350491
-0.0337491
0.445806
0.296941
0.213342
0.253102
0.0503405
0.050718
0.0546656
0.0548241
0.0558042
0.0541604
0.0499571
0.0517505
0.0541948
0.0546654
0.0549188
0.0517091
0.0517315
0.0466577
0.0456828
0.0431215
0.0403076
0.0375918
0.0349038
0.0322014
0.0294969
0.0268188
0.0241948
0.0216673
0.0192786
0.0170102
0.0149104
0.157765
0.161948
0.161888
0.158433
0.15186
0.136489
0.0842013
-0.197127
0.072024
-0.22532
-0.283966
-0.39826
0.422076
0.135093
0.0317171
0.0535376
0.0539008
0.054893
0.0544519
0.0530995
0.0503869
0.0448051
0.0477546
0.051125
0.0531351
0.0538593
0.0539711
0.0541934
0.0448634
0.0423416
0.0395319
0.0369785
0.0345043
0.0320245
0.0295339
0.0270487
0.024582
0.0221599
0.0198284
0.0176294
0.0155429
0.0136078
0.153685
0.155542
0.152714
0.14546
0.133292
0.110664
0.0538046
-0.151745
-0.811577
-0.680847
0.00589412
-0.470158
-0.652213
-0.577006
0.0542815
0.0539583
0.0527317
0.0518967
0.0496889
0.0456025
0.0441736
0.0421787
0.0477774
0.0500959
0.0511015
0.052731
0.0534184
0.0417256
0.038784
0.0363025
0.0339792
0.0316878
0.0293992
0.0271167
0.0248351
0.022555
0.0203119
0.0181578
0.016129
0.014206
0.0124256
0.151167
0.150821
0.145526
0.135172
0.118897
0.091594
0.0335009
-0.117199
-0.629468
-1.01945
-0.809697
-0.733889
-0.82498
0.0523016
0.0515791
0.0495328
0.0484653
0.0457521
0.0443156
0.0411079
0.0429198
0.039885
0.0467401
0.047893
0.0498152
0.0507505
0.0381667
0.0356571
0.0334009
0.0312394
0.0291122
0.0270201
0.0249393
0.0228346
0.020713
0.0186268
0.0166312
0.0147645
0.0129921
0.0113476
0.150184
0.147766
0.140255
0.127325
0.108001
0.0777975
0.0206779
-0.0970012
-0.461543
-0.75019
-0.904733
-0.912712
-0.812762
0.0491403
0.048204
0.0464399
0.0465697
0.0445005
0.0410024
0.0376702
0.0394658
0.0426155
0.0442302
0.0365672
0.0464797
0.0474242
0.0351094
0.0328465
0.0307522
0.0287212
0.0267708
0.0248857
0.0229823
0.0210148
0.0190238
0.0170825
0.0152455
0.0135224
0.011886
0.0103629
0.150702
0.146346
0.136831
0.121714
0.100047
0.0680394
0.01326
-0.0847285
-0.338505
-0.623161
-0.629519
-0.786857
-0.865118
-0.894814
-0.856576
0.0454328
0.0471967
0.0445737
0.0438806
0.0405419
0.0378986
0.0346582
0.0364475
0.0390543
0.0416795
0.0424663
0.0330851
0.0323779
0.0302926
0.0283062
0.0264106
0.0246798
0.0229888
0.0212072
0.0193357
0.0174707
0.015678
0.0139813
0.0123908
0.0108733
0.00947069
0.152676
0.146521
0.135189
0.118171
0.0946164
0.0614138
0.00925584
-0.0756325
-0.258556
-0.495842
-0.583722
-0.543375
-0.632752
-0.686062
-0.772115
-0.809786
-0.869215
0.0406338
0.0399008
0.0375884
0.0350355
0.0319524
0.0336578
0.0361498
0.038517
0.0391652
0.0298907
0.0279427
0.0260128
0.0243458
0.022857
0.0212865
0.0195542
0.0177807
0.0160509
0.0143964
0.0128268
0.0113562
0.00995744
0.00865134
0.156051
0.148248
0.13527
0.116565
0.0913994
0.0573072
0.00749323
-0.0678656
-0.206251
-0.39563
-0.514301
-0.528132
-0.499833
-0.537711
-0.571365
-0.615842
-0.646678
-0.67357
-0.706357
-0.772695
-0.812909
0.037748
0.0370134
0.0347869
0.0323917
0.029582
0.0297913
0.0334967
0.0356388
0.0362879
0.0276533
0.0256699
0.0239259
0.022602
0.0212632
0.019676
0.0180002
0.0163512
0.0147558
0.0132233
0.0117765
0.0104175
0.00911434
0.00790618
0.16076
0.151476
0.137029
0.116801
0.0901771
0.0552946
0.00733339
-0.060809
-0.170722
-0.321527
-0.440681
-0.491059
-0.491408
-0.4603
-0.488108
-0.509854
-0.528991
-0.545955
-0.559533
-0.581516
-0.613705
-0.643796
-0.671499
-0.700765
0.0349185
0.0342298
0.032703
0.0298053
0.0273871
0.0286668
0.0264319
0.028675
0.032974
0.0335539
0.0254554
0.023479
0.0222432
0.0211657
0.0197122
0.0181252
0.0165657
0.0150461
0.0135698
0.012157
0.0108177
0.00955549
0.0083484
0.00722152
0.166724
0.156148
0.140422
0.118818
0.0908092
0.0550856
0.00839917
-0.0542708
-0.145519
-0.267571
-0.37714
-0.441882
-0.468802
-0.456147
-0.426775
-0.449593
-0.467635
-0.486284
-0.498907
-0.513632
-0.528071
-0.546087
-0.557637
-0.579882
0.0325227
0.0319092
0.0356335
0.029502
0.0292192
0.0276678
0.025323
0.0264687
0.0287098
0.0282447
0.0295981
0.0231587
0.0217492
0.0210387
0.0196907
0.0181608
0.0166876
0.0152564
0.0138516
0.0124867
0.0111809
0.00994029
0.00877051
0.00764489
0.00659861
0.173843
0.162196
0.145416
0.122588
0.0932189
0.056506
0.0104736
-0.0481877
-0.126852
-0.228095
-0.326064
-0.394343
-0.434936
-0.443794
-0.424871
-0.399942
-0.418961
-0.432746
-0.448696
-0.466041
-0.480342
-0.503443
-0.491457
-0.512349
-0.52623
-0.54275
-0.551467
0.0323513
0.0292884
0.0290162
0.027781
0.0271774
0.0256189
0.023163
0.0244086
0.0266362
0.0260925
0.0285839
0.0281586
0.0293404
0.0209921
0.0209294
0.0196443
0.0181233
0.0167199
0.0153795
0.0140557
0.0127537
0.0114973
0.0102907
0.00914143
0.00805207
0.00700404
0.00602291
0.18199
0.169536
0.151976
0.128107
0.09739
0.0594709
0.0134538
-0.0425008
-0.112559
-0.198758
-0.285768
-0.353033
-0.398752
-0.421856
-0.41795
-0.398924
-0.375391
-0.392474
-0.405352
-0.418362
-0.431341
-0.444586
-0.452081
-0.469182
-0.460172
-0.501842
-0.510763
0.029116
0.0289004
0.0276459
0.0270706
0.0256967
0.0250867
0.0236576
0.0200602
0.0224809
0.024593
0.024003
0.0265557
0.0260425
0.0284822
0.0280873
0.0208182
0.0196032
0.0180306
0.0166761
0.015418
0.0141765
0.0129476
0.0117519
0.0105944
0.00947934
0.00840891
0.00739396
0.00641105
0.00549716
0.191005
0.17806
0.160065
0.135397
0.103361
0.06398
0.0173173
-0.0371278
-0.101373
-0.176689
-0.254095
-0.318391
-0.365354
-0.395205
-0.403965
-0.394448
-0.375261
-0.354667
-0.368693
-0.380217
-0.391535
-0.404108
-0.413867
-0.421143
-0.433477
-0.428113
0.0275648
0.0270186
0.0255503
0.0249812
0.0236888
0.023063
0.0210021
0.0206083
0.0190878
0.0228126
0.0221854
0.0245088
0.0239683
0.0264736
0.0259868
0.0195651
0.0178972
0.016573
0.0153844
0.0142175
0.0130615
0.0119326
0.010836
0.00977111
0.0087363
0.0077394
0.00678868
0.00587069
0.00500914
0.200689
0.187627
0.16963
0.144498
0.111227
0.0701105
0.022105
-0.0319754
-0.0925163
-0.160023
-0.229314
-0.289781
-0.336307
-0.368775
-0.385064
-0.385148
-0.372707
-0.354771
-0.335976
-0.34889
-0.35863
-0.367754
-0.379288
-0.387643
-0.39388
-0.406275
-0.399824
-0.41304
-0.420075
-0.430022
-0.427053
0.0254657
0.0249331
0.0235077
0.0229606
0.0218399
0.0206187
0.0204251
0.0193993
0.0201604
0.0178161
0.0202255
0.0226641
0.0223005
0.0244317
0.0239193
0.0177375
0.0164239
0.0152965
0.01419
0.0131
0.0120341
0.0110033
0.010003
0.00902364
0.00806016
0.0071252
0.00623226
0.00536782
0.00456087
0.210792
0.198055
0.180593
0.155462
0.121133
0.0780282
0.027928
-0.0269443
-0.0855106
-0.14753
-0.210139
-0.266432
-0.311631
-0.344869
-0.364973
-0.371753
-0.366687
-0.353201
-0.336628
-0.319263
-0.327862
-0.339261
-0.348315
-0.357866
-0.36405
-0.370107
-0.38127
-0.37551
-0.387023
-0.393036
-0.405292
-0.399201
0.0234139
0.0228979
0.021941
0.0229118
0.0205747
0.0203978
0.0192625
0.0175544
0.018597
0.0199329
0.0196952
0.0153458
0.0224075
0.0224969
0.0221885
0.016245
0.0151643
0.0141105
0.013076
0.0120622
0.0110906
0.0101607
0.00925295
0.00834267
0.00743722
0.00655399
0.00571713
0.00490605
0.00414598
0.221009
0.209104
0.192836
0.168341
0.13328
0.0879853
0.0349748
-0.0219277
-0.0800874
-0.138428
-0.195617
-0.247702
-0.290941
-0.324017
-0.345986
-0.356701
-0.357315
-0.349225
-0.335579
-0.319798
-0.317571
-0.304116
-0.332321
-0.338566
-0.345168
-0.350005
-0.359595
-0.354643
-0.363328
-0.370268
-0.380346
-0.375025
0.0214752
0.0227279
0.0209097
0.020269
0.0192427
0.0189155
0.0176911
0.0160486
0.016992
0.018559
0.0182843
0.0198243
0.0195455
0.0123782
0.0149919
0.0139889
0.0130039
0.0120334
0.0111041
0.0102346
0.00940713
0.00857337
0.00771632
0.00685656
0.00602865
0.00524239
0.00447905
0.00376335
0.230981
0.220465
0.206175
0.183164
0.147921
0.100345
0.043535
-0.0167919
-0.0761364
-0.132281
-0.185074
-0.23308
-0.273889
-0.306143
-0.328918
-0.341912
-0.346148
-0.342683
-0.332921
-0.319291
-0.304695
-0.302873
-0.312883
-0.3212
-0.291018
-0.330421
-0.339811
-0.334172
-0.344595
-0.349358
-0.35976
-0.354143
-0.361078
0.0191876
0.0188484
0.0178193
0.0174053
0.0162129
0.0147809
0.015559
0.0170331
0.0167327
0.0185241
0.018254
0.0138248
0.0128905
0.0119659
0.0110612
0.0102257
0.00947449
0.00873558
0.00795177
0.00713198
0.00631907
0.00554021
0.00480223
0.00408485
0.00341042
0.240296
0.231755
0.220333
0.199901
0.165348
0.115606
0.0540256
-0.0113591
-0.0736917
-0.128939
-0.178096
-0.222164
-0.260209
-0.291093
-0.313931
-0.328252
-0.334739
-0.334475
-0.328361
-0.317644
-0.304538
-0.291382
-0.290168
-0.298954
-0.30512
-0.311149
-0.31446
-0.318163
-0.322137
-0.278105
-0.326806
-0.331369
-0.336743
-0.339578
-0.344017
-0.348632
-0.358578
-0.353428
0.0177886
0.0173555
0.0163203
0.015931
0.0148982
0.0136157
0.0142932
0.0155895
0.0153168
0.0169898
0.0166995
0.0127351
0.0118679
0.0109855
0.0101534
0.00945166
0.00881535
0.00813112
0.00736868
0.00658063
0.00581562
0.00508699
0.00439841
0.0037214
0.00308704
0.248509
0.2425
0.2349
0.218412
0.185864
0.134425
0.0670645
-0.00538275
-0.072941
-0.128518
-0.174504
-0.214679
-0.249685
-0.278743
-0.301028
-0.315987
-0.323925
-0.325762
-0.322369
-0.314538
-0.303525
-0.291269
-0.27862
-0.277229
-0.285835
-0.292452
-0.296823
-0.300284
-0.303684
-0.305734
-0.265936
-0.335661
-0.338921
0.016268
0.0158706
0.0149724
0.0146218
0.0137082
0.0125326
0.0131417
0.0143224
0.0140556
0.0155362
0.0152733
0.0117279
0.0108964
0.0100458
0.0093457
0.00880265
0.00824302
0.00755902
0.00680672
0.00606179
0.00534892
0.00467277
0.00402408
0.00338713
0.00279029
0.255175
0.25215
0.249298
0.238388
0.209727
0.157653
0.0835463
0.00150369
-0.0743168
-0.131424
-0.174347
-0.21047
-0.242158
-0.268987
-0.29019
-0.305196
-0.314019
-0.317279
-0.315772
-0.310226
-0.301423
-0.290571
-0.278732
-0.266605
-0.264981
-0.273211
-0.279415
-0.283664
-0.287025
-0.290145
-0.293324
-0.296496
-0.299905
-0.302952
-0.303622
-0.255318
0.0149112
0.014561
0.0137692
0.0134337
0.0126147
0.0115315
0.0120717
0.013165
0.0129206
0.0142673
0.014013
0.0107834
0.00993805
0.00917933
0.00869136
0.00828229
0.00769959
0.00699055
0.00626904
0.00557782
0.00492007
0.00428727
0.00367954
0.00308121
0.00251965
0.259888
0.260113
0.262737
0.259236
0.237053
0.18628
0.104823
0.00987699
-0.0786153
-0.138442
-0.177885
-0.209518
-0.237526
-0.261741
-0.281395
-0.295919
-0.305131
-0.309351
-0.30918
-0.305293
-0.298352
-0.289111
-0.278377
-0.266918
-0.255803
-0.254609
-0.261563
-0.266899
-0.271245
-0.2744
-0.277214
-0.280251
-0.283419
-0.286737
-0.289645
-0.292643
-0.244958
0.0137068
0.01337
0.0126541
0.0123559
0.0116025
0.0106025
0.011079
0.0120926
0.0118659
0.0131121
0.0128817
0.00985182
0.00900175
0.00847369
0.00824557
0.00779311
0.00712838
0.0064303
0.00576488
0.00513208
0.00452288
0.00393386
0.00336554
0.002801
0.00227483
0.262338
0.265817
0.274228
0.279858
0.267698
0.221368
0.132878
0.0206703
-0.0872382
-0.150885
-0.185622
-0.211919
-0.235763
-0.256947
-0.274614
-0.28818
-0.297324
-0.302106
-0.302893
-0.300224
-0.294701
-0.286925
-0.277449
-0.266859
-0.256081
-0.245482
-0.24421
-0.250852
-0.256494
-0.259901
-0.262603
-0.264689
-0.267951
-0.271056
-0.274067
-0.276741
-0.279583
-0.234959
0.012589
0.0122941
0.0116297
0.0113493
0.0106609
0.00971757
0.0101399
0.0111049
0.0108818
0.0120408
0.0118302
0.00891524
0.00813371
0.00812837
0.00785124
0.00722364
0.00654164
0.00590165
0.00529814
0.00471996
0.00415983
0.0036119
0.00307762
0.0025468
0.00204912
0.268805
0.282703
0.298448
0.300715
0.264514
0.170231
0.0349709
-0.102684
-0.170772
-0.198331
-0.217886
-0.236907
-0.254579
-0.269816
-0.281987
-0.290641
-0.295614
-0.297043
-0.295287
-0.290843
-0.284243
-0.275949
-0.266358
-0.256132
-0.245836
-0.235587
-0.234161
-0.240859
-0.245891
-0.24796
-0.251591
-0.254495
-0.257216
-0.2597
-0.262892
-0.264039
-0.267978
-0.2259
0.0115625
0.0112882
0.0106746
0.0104101
0.00976933
0.00894516
0.00922203
0.0101733
0.00994859
0.0110577
0.0108467
0.0077172
0.00789341
0.00789092
0.00728199
0.00660385
0.00598521
0.0054102
0.00486738
0.00434476
0.0038296
0.00331713
0.00281401
0.0023135
0.00184692
0.287221
0.312723
0.333016
0.317994
0.220726
0.0526543
-0.129762
-0.200989
-0.217095
-0.227751
-0.241067
-0.254639
-0.266974
-0.277333
-0.285112
-0.289926
-0.2917
-0.290608
-0.287004
-0.281334
-0.274024
-0.265405
-0.2559
-0.24602
-0.236059
-0.226469
-0.2252
-0.230977
-0.235962
-0.240314
-0.245094
-0.24986
-0.251576
-0.254092
-0.256754
-0.259234
-0.262248
-0.262648
-0.21736
0.0106111
0.0103492
0.0097683
0.00950718
0.00896691
0.00748487
0.00847365
0.00926789
0.00902023
0.0101302
0.00992099
0.00741163
0.00793992
0.00730519
0.00662049
0.0060182
0.00546562
0.00495595
0.00447691
0.00400627
0.00352723
0.00304568
0.00257519
0.00210196
0.320526
0.359508
0.37811
0.295013
0.075304
-0.176619
-0.246416
-0.243049
-0.242006
-0.248409
-0.257157
-0.266059
-0.274196
-0.280744
-0.285079
-0.286916
-0.286255
-0.283297
-0.278379
-0.27187
-0.264089
-0.255343
-0.246002
-0.236389
-0.226929
-0.217883
-0.21668
-0.222394
-0.22674
-0.230337
-0.235447
-0.238675
-0.241176
-0.246042
-0.243416
-0.249158
-0.251217
-0.253787
-0.256328
-0.209014
0.00969777
0.00945054
0.00889445
0.00863864
0.00820588
0.00667039
0.00713734
0.00849283
0.00820047
0.00923088
0.00900244
0.0079987
0.00729291
0.00659043
0.00600969
0.00546812
0.00497962
0.00454573
0.00412957
0.00369731
0.00325222
0.002802
0.00235475
0.374798
0.428957
0.406406
0.117856
-0.251095
-0.315726
-0.276944
-0.261263
-0.259151
-0.262164
-0.267039
-0.272543
-0.277527
-0.281089
-0.282729
-0.282276
-0.279786
-0.275472
-0.269628
-0.262548
-0.254496
-0.245752
-0.23657
-0.227312
-0.21833
-0.209562
-0.208345
-0.213866
-0.218135
-0.221949
-0.226348
-0.228659
-0.231638
-0.236079
-0.23377
-0.20103
0.00880981
0.00857877
0.00815585
0.00786424
0.00554987
0.00792349
0.00740977
0.00790545
0.00810693
0.00842754
0.00816826
0.00724199
0.00650884
0.00597009
0.00543112
0.00494038
0.00454413
0.0041888
0.00381599
0.00341859
0.00300187
0.00257703
0.0021537
0.461533
0.464149
0.519407
0.272522
0.372619
0.528102
-0.231419
0.0498808
-0.289776
-0.403159
-0.425948
-0.319348
-0.285636
-0.273525
-0.269644
-0.26986
-0.272324
-0.275434
-0.277955
-0.279161
-0.278709
-0.276513
-0.272668
-0.267379
-0.260892
-0.253446
-0.245273
-0.236577
-0.227621
-0.218745
-0.210058
-0.201619
-0.200358
-0.205698
-0.209767
-0.213379
-0.217571
-0.220472
-0.222648
-0.227185
-0.224803
-0.227557
-0.193679
0.00794654
0.0077254
0.00395425
0.00788103
0.00760062
0.00709725
0.00740432
0.00756293
0.00733818
0.00748889
0.00840492
0.00638348
0.00590724
0.00537371
0.00484985
0.00446862
0.00417855
0.00387373
0.00353299
0.00316211
0.00277043
0.00237138
0.552838
0.571576
0.587873
0.471987
0.231177
0.194912
-0.231548
-0.211068
-0.00662898
-0.502624
-0.340306
-0.438473
-0.36516
-0.438637
-0.313015
-0.291326
-0.279397
-0.274413
-0.273465
-0.274419
-0.275656
-0.276215
-0.275577
-0.273514
-0.270005
-0.265168
-0.259188
-0.252269
-0.244614
-0.236402
-0.227823
-0.219136
-0.210539
-0.202161
-0.194223
-0.193066
-0.19781
-0.201768
-0.205289
-0.209243
-0.211994
-0.214087
-0.218184
-0.216095
-0.22017
-0.222301
-0.226713
-0.224368
-0.18675
0.00138818
0.00729294
0.00733005
0.00695959
0.00622537
0.00666727
0.0072111
0.00717807
0.00582965
0.00530832
0.00473496
0.00431793
0.00409789
0.00386619
0.00358883
0.00327259
0.00292718
0.00256509
0.641704
0.670125
0.63034
0.561314
0.299807
0.280381
0.530857
0.00132319
-0.250221
-0.14552
-0.547812
-0.478744
-0.493307
-0.402408
-0.33744
-0.385608
-0.449755
-0.309735
-0.290814
-0.280403
-0.275864
-0.274415
-0.274154
-0.273878
-0.272889
-0.270813
-0.267513
-0.263025
-0.257473
-0.251017
-0.243828
-0.236068
-0.227889
-0.219475
-0.211024
-0.202703
-0.194747
-0.187211
-0.185971
-0.190619
-0.194257
-0.197368
-0.201339
-0.203941
-0.205956
-0.209849
-0.20783
-0.21173
-0.213773
-0.217847
-0.215829
-0.179944
0.00696968
0.00681652
0.00622729
0.00570333
0.00594265
0.00665504
0.00652166
0.00528861
0.00459209
0.0041216
0.00394213
0.00379755
0.00358362
0.00332568
0.00303438
0.00272106
0.668081
0.705385
0.743638
0.729559
0.631401
0.400442
0.221322
-0.513244
-0.516928
-0.512225
-0.416096
-0.365177
-0.321892
-0.351332
-0.389615
-0.457005
-0.475317
-0.301822
-0.287204
-0.279293
-0.275332
-0.273391
-0.27212
-0.270641
-0.268425
-0.265218
-0.260979
-0.255775
-0.249721
-0.242952
-0.235608
-0.227819
-0.219727
-0.211491
-0.203269
-0.195294
-0.187699
-0.180411
-0.179331
-0.18225
-0.186905
-0.190308
-0.193857
-0.195996
-0.198097
-0.20193
-0.199975
-0.203674
-0.205633
-0.209521
-0.207577
-0.173382
0.00627365
0.00607172
0.00563078
0.00537064
0.00540164
0.00592118
0.00580349
0.00440804
0.00395322
0.00370586
0.00367373
0.00352293
0.00331938
0.003083
0.0028244
0.657858
0.710503
0.776777
0.758032
0.603874
-0.433151
-0.420236
-0.373683
-0.334528
-0.308426
-0.325036
-0.355057
-0.396958
-0.393274
-0.293579
-0.283273
-0.277019
-0.273293
-0.270898
-0.268816
-0.266353
-0.263135
-0.25905
-0.254117
-0.248404
-0.24201
-0.235047
-0.227629
-0.219872
-0.2119
-0.203841
-0.195895
-0.188242
-0.180921
-0.173889
-0.178321
-0.172794
-0.184195
-0.186757
-0.189125
-0.190892
-0.194396
-0.192639
-0.195664
-0.198156
-0.201583
-0.199761
-0.167221
0.00562962
0.00547004
0.00517822
0.00489267
0.00498674
0.00535281
0.00525272
0.00310223
0.0035417
0.00347183
0.00342125
0.00325946
0.00307081
0.00286828
-0.381661
-0.371319
-0.337573
-0.315191
-0.297802
-0.308683
-0.326851
-0.352103
-0.360583
-0.39827
-0.386582
-0.287045
-0.279186
-0.27377
-0.27016
-0.267391
-0.264599
-0.261275
-0.257254
-0.252516
-0.247084
-0.241019
-0.234405
-0.227335
-0.219908
-0.212223
-0.204383
-0.196536
-0.188863
-0.181482
-0.174412
-0.167727
-0.172079
-0.176306
-0.179624
-0.166635
-0.181925
-0.184166
-0.18725
-0.185558
-0.188854
-0.190631
-0.19447
-0.192423
-0.194692
-0.161423
0.0051351
0.00500508
0.00477179
-0.000448888
0.0044393
0.00745123
0.00491348
0.00483926
0.00351776
0.00189496
0.00323575
0.0032699
0.00316488
0.0030069
0.00284881
-0.38187
-0.371851
-0.342459
-0.33584
-0.316986
-0.302361
-0.289889
-0.297669
-0.310014
-0.325226
-0.330341
-0.352871
-0.361093
-0.281426
-0.2747
-0.26986
-0.266344
-0.263168
-0.259651
-0.255606
-0.250986
-0.245777
-0.239995
-0.233696
-0.226951
-0.219839
-0.212447
-0.204857
-0.197176
-0.189553
-0.182127
-0.174991
-0.16823
-0.161871
-0.165975
-0.170012
-0.173151
-0.17523
-0.176971
-0.178504
-0.180207
-0.182706
-0.160926
-0.183759
-0.187007
-0.185308
-0.188589
-0.190323
-0.193982
-0.192094
-0.155693
0.00473565
0.00460678
0.00500809
0.00436429
0.00404856
0.0025163
0.00290169
0.00310832
0.00296053
0.00305753
0.00304743
0.00290715
0.00277081
-0.34291
-0.336422
-0.319974
-0.315892
-0.303635
-0.293322
-0.283428
-0.289611
-0.298748
-0.309103
-0.312452
-0.325735
-0.330673
-0.275985
-0.269957
-0.265675
-0.262083
-0.258283
-0.254118
-0.249543
-0.244495
-0.238952
-0.232933
-0.226486
-0.219676
-0.21257
-0.205241
-0.197769
-0.190267
-0.182855
-0.175662
-0.168795
-0.162334
-0.156146
-0.160332
-0.164113
-0.166823
-0.169233
-0.170557
-0.171976
-0.173494
-0.182176
-0.155186
-0.183498
-0.186727
-0.185097
-0.150111
0.00654852
-6.58121e-05
0.00393967
0.00382293
0.00150486
0.00261015
0.00285334
0.00287243
0.00278901
0.0027142
0.00289071
0.00279266
0.00264868
-0.320289
-0.316319
-0.305749
-0.302998
-0.29428
-0.286286
-0.277564
-0.283023
-0.290527
-0.298241
-0.300619
-0.309528
-0.312744
-0.270494
-0.265383
-0.261414
-0.257218
-0.252819
-0.248203
-0.243254
-0.2379
-0.232125
-0.225953
-0.219424
-0.212596
-0.205528
-0.198286
-0.190954
-0.183628
-0.176426
-0.169467
-0.162875
-0.156611
-0.150573
-0.154561
-0.158325
-0.161248
-0.163128
-0.164621
-0.166095
-0.167123
-0.149619
-0.144746
0.00253138
0.00405665
0.00224275
0.0023316
0.00266871
0.00274675
0.00271532
0.00265591
0.00264364
0.00247421
0.00246455
0.00266965
0.00251697
-0.306045
-0.303376
-0.295919
-0.29389
-0.287058
-0.280225
-0.271642
-0.277113
-0.283859
-0.290232
-0.292099
-0.298627
-0.300905
-0.265441
-0.261276
-0.256538
-0.251762
-0.246999
-0.242072
-0.236853
-0.231285
-0.225359
-0.219094
-0.212531
-0.205718
-0.198712
-0.191579
-0.184393
-0.177246
-0.170249
-0.163536
-0.157153
-0.151054
-0.145222
-0.149058
-0.152649
-0.155457
-0.157322
-0.1588
-0.160205
-0.161615
-0.16294
-0.164416
-0.165726
-0.166206
-0.144222
-0.139695
0.0022002
0.00228156
0.00222689
0.00251748
0.00252355
0.00261501
0.00260893
0.00252227
0.00248013
0.00254659
0.00253891
0.00253995
0.0023624
0.00231397
0.00239926
-0.29621
-0.29425
-0.288453
-0.286785
-0.280884
-0.274429
-0.265943
-0.271041
-0.277953
-0.283653
-0.285291
-0.290607
-0.292387
-0.26175
-0.25635
-0.251031
-0.245994
-0.240989
-0.235833
-0.230424
-0.224713
-0.218693
-0.212382
-0.205816
-0.199043
-0.19212
-0.185106
-0.178071
-0.171103
-0.164321
-0.157817
-0.151609
-0.145708
-0.140138
-0.14364
-0.147209
-0.149922
-0.15169
-0.153125
-0.154454
-0.155824
-0.157163
-0.158635
-0.159956
-0.16131
-0.139223
-0.134793
0.00203152
0.00207485
0.00242177
0.00244974
0.00253179
0.00250826
0.00248428
0.00243088
0.00229163
0.00227144
0.00237915
0.00244611
0.00248694
0.00247385
0.00246997
0.00226453
0.00218701
-0.288744
-0.28714
-0.282156
-0.280618
-0.275239
-0.267619
-0.2627
-0.266619
-0.272117
-0.277707
-0.279308
-0.284025
-0.285578
-0.256717
-0.250735
-0.245295
-0.240072
-0.234881
-0.229564
-0.224031
-0.218231
-0.212156
-0.205828
-0.199283
-0.19257
-0.185744
-0.178858
-0.171979
-0.165196
-0.158608
-0.152281
-0.146266
-0.140601
-0.135217
-0.138708
-0.141858
-0.144495
-0.146269
-0.14766
-0.148924
-0.150261
-0.151532
-0.152956
-0.154217
-0.155528
-0.134337
-0.129991
0.00234112
0.00238663
0.00247
0.00245181
0.00242113
0.00237491
0.00230472
0.00223391
0.00218315
0.00227704
0.00233586
0.00239148
0.00242802
0.002417
0.00241722
-0.282435
-0.280972
-0.276437
-0.274916
-0.267396
-0.264782
-0.257479
-0.262141
-0.267685
-0.272218
-0.273876
-0.278062
-0.279561
-0.250962
-0.245036
-0.239427
-0.234072
-0.228748
-0.223332
-0.217719
-0.211863
-0.205761
-0.199437
-0.192931
-0.186295
-0.179575
-0.172824
-0.166105
-0.159499
-0.153085
-0.146944
-0.141142
-0.135665
-0.130416
-0.133802
-0.136981
-0.139495
-0.141077
-0.142196
-0.143541
-0.144851
-0.146091
-0.147472
-0.148689
-0.149967
-0.129541
-0.125347
0.00241856
0.00240833
0.00236302
0.00232352
0.00224804
0.00218653
0.00209986
0.00207514
0.00214627
0.00222864
0.00227803
0.00234428
0.00238088
-0.276623
-0.275241
-0.270223
-0.265559
-0.265495
-0.259306
-0.251686
-0.256706
-0.262601
-0.267947
-0.269297
-0.273241
-0.27415
-0.245305
-0.239206
-0.233507
-0.228055
-0.222659
-0.217179
-0.211515
-0.205626
-0.199513
-0.193208
-0.186758
-0.180211
-0.173608
-0.166997
-0.160436
-0.153994
-0.147755
-0.141809
-0.136195
-0.130868
-0.125771
-0.129017
-0.13205
-0.134548
-0.136101
-0.137363
-0.138595
-0.13984
-0.141079
-0.142058
-0.143495
-0.144571
-0.124906
-0.120889
0.00231438
0.00228242
0.00218501
0.00214251
0.00204748
0.00196406
0.0020285
0.00208398
0.0021857
0.00223276
-0.273248
-0.263066
-0.266358
-0.265162
-0.259814
-0.253813
-0.246031
-0.251129
-0.257201
-0.262378
-0.263581
-0.268515
-0.272657
-0.239545
-0.233302
-0.227591
-0.22209
-0.216655
-0.211134
-0.205435
-0.199522
-0.193408
-0.187139
-0.180761
-0.174314
-0.167835
-0.161366
-0.154956
-0.148676
-0.142618
-0.136853
-0.1314
-0.126223
-0.121313
-0.12442
-0.127392
-0.129723
-0.130737
-0.132331
-0.133613
-0.134847
-0.135945
-0.137205
-0.138379
-0.139637
-0.140757
-0.141413
-0.120437
-0.116639
0.00212833
0.00210811
0.00198632
0.00192053
0.00198865
0.00203757
-0.259563
-0.266752
-0.265365
-0.260874
-0.259649
-0.254408
-0.248259
-0.2396
-0.24547
-0.251703
-0.257007
-0.258298
-0.262663
-0.263917
-0.268244
-0.27225
-0.233681
-0.227443
-0.221742
-0.216217
-0.210757
-0.20521
-0.199479
-0.193543
-0.187444
-0.181229
-0.174938
-0.168601
-0.162249
-0.155918
-0.149659
-0.143544
-0.137656
-0.132056
-0.126754
-0.121758
-0.117038
-0.11994
-0.12286
-0.125134
-0.127061
-0.129265
-0.131319
-0.132283
-0.133429
-0.13463
-0.135757
-0.136996
-0.138193
-0.139364
-0.116223
-0.112495
0.00193554
0.00188746
-0.266939
-0.265588
-0.261235
-0.259968
-0.255529
-0.254204
-0.2489
-0.242219
-0.234467
-0.234982
-0.24628
-0.251473
-0.252839
-0.257328
-0.258631
-0.262953
-0.264194
-0.227716
-0.221715
-0.215976
-0.210448
-0.204988
-0.19941
-0.193631
-0.187684
-0.181622
-0.17548
-0.169286
-0.163063
-0.156839
-0.150647
-0.144538
-0.138582
-0.132857
-0.12741
-0.122281
-0.117463
-0.112883
-0.115766
-0.118459
-0.120595
-0.12258
-0.124787
-0.126274
-0.127434
-0.129713
-0.128498
-0.131082
-0.132105
-0.133264
-0.134429
-0.112083
-0.108444
-0.261533
-0.260264
-0.255867
-0.254524
-0.250001
-0.248634
-0.243101
-0.235009
-0.228299
-0.245198
-0.245931
-0.247303
-0.251779
-0.253144
-0.257632
-0.258911
-0.222082
-0.216037
-0.210292
-0.204823
-0.199356
-0.193697
-0.187874
-0.181948
-0.175948
-0.169892
-0.163801
-0.157696
-0.151601
-0.145547
-0.139586
-0.133785
-0.128209
-0.122929
-0.117968
-0.113297
-0.108827
-0.111604
-0.11429
-0.116411
-0.118218
-0.120271
-0.121748
-0.122883
-0.125068
-0.123943
-0.108039
-0.10452
-0.25615
-0.254814
-0.250304
-0.248928
-0.243849
-0.239504
-0.237641
-0.228861