/*--------------------------------*- C++ -*----------------------------------*\
| =========                 |                                                 |
| \\      /  F ield         | OpenFOAM: The Open Source CFD Toolbox           |
|  \\    /   O peration     | Version:  v1912                                 |
|   \\  /    A nd           | Website:  www.openfoam.com                      |
|    \\/     M anipulation  |                                                 |
\*---------------------------------------------------------------------------*/
FoamFile
{
    version     2.0;
    format      ascii;
    class       surfaceScalarField;
    location    "480";
    object      phi;
}
// * * * * * * * * * * * * * * * * * * * * * * * * * * * * * * * * * * * * * //

dimensions      [0 3 -1 0 0 0 0];
oriented        oriented;


internalField   nonuniform List<scalar> 
7196
(
0.00510534
0.00490166
0.00622792
0.00888542
0.00245775
0.0024439
0.0061836
0.0100513
0.00446724
0.00687594
0.000925029
0.00151887
0.00595929
0.0102333
0.00521839
0.00930017
0.00258116
0.00521981
0.000293492
0.00122538
0.00577109
0.0101972
0.00526445
0.0101872
0.0037318
0.00814952
0.00128323
0.00423007
7.71718e-05
0.00114821
0.00562633
0.0101558
0.00510187
0.0103598
0.00418441
0.00973464
0.00232276
0.00710998
0.000561833
0.00374541
-1.09306e-07
0.00114831
0.00550138
0.0101359
0.00493389
0.0103237
0.00422101
0.0103232
0.00295557
0.00910183
0.00127702
0.00639479
0.000191858
0.00355344
-2.96137e-05
0.00117793
0.00538564
0.0101277
0.00480048
0.0102694
0.00411211
0.0104326
0.00317559
0.0101032
0.00185726
0.00852159
0.000594888
0.00599176
1.12309e-05
0.0035126
-3.85877e-05
0.00121651
0.00527698
0.0101207
0.00469834
0.0102299
0.00398912
0.0103923
0.0031624
0.0104458
0.0021437
0.00981672
0.0010074
0.00810907
0.000188441
0.00581455
-6.8967e-05
0.00354298
-3.64572e-05
0.00125297
0.0051725
0.0101145
0.00461714
0.0102019
0.00388934
0.0103297
0.00306647
0.0104883
0.00218689
0.0104026
0.0012514
0.00957272
0.000421693
0.00787582
-2.6466e-05
0.00577205
-9.29864e-05
0.00359951
-2.97581e-05
0.00128273
0.00507474
0.0101058
0.00455672
0.0101749
0.00381962
0.0102716
0.00296265
0.0104335
0.002103
0.0105722
0.00129478
0.0103593
0.000573267
0.00942114
6.76963e-05
0.00778166
-0.000120697
0.00579976
-9.08261e-05
0.00366057
-2.31104e-05
0.00130584
0.00498489
0.0100938
0.00451889
0.0101436
0.00378164
0.0102129
0.00288064
0.0103536
0.0019758
0.0105607
0.00119545
0.0106715
0.000575948
0.0103566
0.000126337
0.0093625
-0.000113086
0.00777405
-0.00014751
0.00585644
-7.82396e-05
0.0037157
-1.68469e-05
0.00132269
0.00490157
0.0100823
0.0045031
0.0101096
0.00377752
0.0101477
0.00283118
0.0102623
0.0018473
0.0104821
0.0010196
0.0107365
0.000438934
0.0108085
7.91541e-05
0.0104038
-0.000120796
0.00937021
-0.000187262
0.0078138
-0.000144138
0.00592234
-6.32534e-05
0.00376211
-1.11451e-05
0.00133383
0.00482465
0.0100699
0.00451182
0.0100736
0.00381593
0.0100712
0.00282619
0.0101527
0.00173787
0.0103718
0.000808763
0.0106929
0.000203578
0.0109719
-8.66863e-05
0.0109744
-0.000197925
0.0104809
-0.000234079
0.00941703
-0.000206147
0.00787581
-0.00012709
0.00598618
-4.81644e-05
0.00379913
-6.86136e-06
0.00134069
0.00475214
0.0100575
0.00454464
0.0100371
0.00390131
0.00998821
0.00287758
0.0100198
0.00166554
0.010225
0.000587199
0.0105933
-0.000101281
0.0109978
-0.000356606
0.0112418
-0.000370093
0.0111465
-0.00032919
0.010576
-0.000276294
0.00948717
-0.000197787
0.00794651
-0.000106007
0.00604402
-3.45195e-05
0.00382679
-3.23715e-06
0.00134393
0.00468118
0.01005
0.00459646
0.0100057
0.0040396
0.00989881
0.00300539
0.00986039
0.00165526
0.0100301
0.000372426
0.0104398
-0.000463342
0.0109554
-0.000714443
0.0113556
-0.000629477
0.0115012
-0.000493549
0.0113109
-0.000383074
0.0106828
-0.000281211
0.0095706
-0.000177068
0.00801757
-8.34271e-05
0.00609293
-2.35451e-05
0.0038471
-1.0762e-06
0.00134501
0.00460825
0.0100459
0.00466281
0.00998361
0.00422897
0.00981633
0.00322505
0.00967915
0.00173854
0.00977711
0.000184003
0.0102185
-0.000884853
0.0108613
-0.00116078
0.0114017
-0.000964004
0.0116901
-0.000727997
0.0117356
-0.000544054
0.0114719
-0.000393658
0.0107952
-0.000263787
0.00965732
-0.000151019
0.00808516
-6.46924e-05
0.00613407
-1.47783e-05
0.0038608
8.81137e-07
0.00134413
0.0045296
0.0100496
0.00473009
0.00997865
0.00446078
0.0097518
0.00355379
0.00948759
0.00195942
0.00945827
5.95339e-05
0.00990158
-0.00137133
0.010705
-0.00171038
0.0114109
-0.00137021
0.0118079
-0.00101794
0.0119801
-0.000757137
0.0119487
-0.000549949
0.0116282
-0.000378908
0.0109104
-0.0002378
0.0097441
-0.000125852
0.00814632
-4.81136e-05
0.00616741
-8.05867e-06
0.00386974
2.02755e-06
0.0013421
0.00444084
0.0100608
0.00478644
0.0099933
0.00471691
0.00972251
0.00399278
0.00931281
0.00237458
0.00907243
6.32208e-05
0.00945459
-0.00193102
0.0104613
-0.00239664
0.0113913
-0.00184848
0.0118892
-0.00135149
0.0121415
-0.00101463
0.0122376
-0.00075096
0.0121497
-0.00053064
0.0117799
-0.00035045
0.011023
-0.000209474
0.00982772
-0.000103756
0.00820197
-3.5422e-05
0.00619477
-3.71611e-06
0.00387548
2.64883e-06
0.00133945
0.0043386
0.0100782
0.00481766
0.0100295
0.00496646
0.00974376
0.00451616
0.00919913
0.00304037
0.00864702
0.000316178
0.00881947
-0.00255379
0.0100774
-0.00325686
0.0113215
-0.00240231
0.0119451
-0.00172258
0.0122603
-0.00129947
0.0124263
-0.000982442
0.012469
-0.00071922
0.0123383
-0.000497822
0.0119273
-0.000320894
0.0111344
-0.000183322
0.00990729
-8.54295e-05
0.00825197
-2.55161e-05
0.00621657
2.0726e-07
0.00387793
3.37094e-06
0.00133608
0.00422096
0.0101006
0.00480897
0.0100869
0.00517877
0.00981722
0.00506985
0.00919007
0.00394997
0.00828953
0.00106631
0.00789689
-0.00314078
0.00940646
-0.004294
0.0111145
-0.0029992
0.0119184
-0.00210062
0.0123232
-0.00158818
0.012549
-0.00122872
0.0126726
-0.000932967
0.0126828
-0.000677503
0.012518
-0.000462928
0.0120693
-0.000289754
0.0112409
-0.000158955
0.00998081
-6.93206e-05
0.00829578
-1.73708e-05
0.00623415
2.59793e-06
0.0038787
3.61775e-06
0.00133246
0.00408959
0.0101224
0.00475336
0.0101562
0.00532002
0.00994569
0.00558378
0.00930329
0.00499842
0.00814163
0.00261563
0.0067402
-0.00328168
0.00803779
-0.00536395
0.0104764
-0.0034623
0.0115776
-0.00238977
0.0122075
-0.00182666
0.0125616
-0.00145355
0.0127738
-0.00115007
0.0128897
-0.000879626
0.0128849
-0.000635005
0.0126901
-0.000426582
0.0122061
-0.000259965
0.0113419
-0.000138404
0.0100499
-5.62597e-05
0.00833467
-1.1743e-05
0.00624849
3.81342e-06
0.0038785
3.71927e-06
0.00132875
0.00394528
0.0101413
0.00465088
0.0102249
0.00536544
0.0101108
0.00597663
0.00955284
0.00606598
0.00823573
0.00453695
0.00318176
0.00303855
-0.000259343
0.00289452
-0.00146365
0.002287
-0.00327958
0.00450656
-0.00237624
0.00382312
-0.00191019
0.0103254
-0.00140108
-0.00235136
0.0115392
-0.00188564
0.0122665
-0.00158414
0.0126922
-0.0013287
0.0129524
-0.00107621
0.0130863
-0.000824701
0.0130746
-0.000590791
0.0128543
-0.000391991
0.0123381
-0.000234869
0.0114383
-0.000121057
0.0101147
-4.6915e-05
0.00836984
-7.61932e-06
0.00625993
5.12425e-06
0.0038771
3.46298e-06
0.00132528
0.00379234
0.0101549
0.00450931
0.0102829
0.00531493
0.0102754
0.00618359
0.00990386
0.00694156
0.00867726
0.00672907
0.00299325
0.00305035
0.00054589
0.00237653
0.00149484
0.0020896
-0.00325232
0.00286726
-0.000751157
0.000877997
0.000786041
-0.00129281
-0.00114437
0.000573714
0.000898138
-0.00176579
0.00436215
-0.000999659
0.00128242
0.000890068
-0.000681815
-0.000650353
0.00323617
-0.000528488
-0.000925296
0.00958958
-0.000690274
-0.00100221
0.00396328
-0.00156077
0.0112143
-0.00149134
0.0121737
-0.00139152
0.0127551
-0.00122768
0.0131039
-0.00100662
0.0132682
-0.000766894
0.0132507
-0.00054559
0.0130079
-0.000358211
0.0124615
-0.000212884
0.0115302
-0.000106209
0.010174
-3.94947e-05
0.00840172
-5.41739e-06
0.00627047
5.07685e-06
0.00387549
3.49115e-06
0.00132179
0.00363403
0.0101633
0.00433681
0.0103274
0.00518196
0.0104158
0.00620161
0.0102574
0.00742086
0.00942456
0.00858232
0.0032712
0.00355282
0.00256554
0.00192256
0.00352192
0.00105752
0.00103644
0.000396955
0.000402082
0.000539401
-0.00111114
0.000696323
-0.000879078
0.00055398
-0.000947293
0.00049925
0.00107296
-0.00049925
0.000971443
-0.000494044
0.00112611
0.000685652
-0.000289628
0.000289628
-0.000172515
0.00267282
-0.000266344
-0.000324705
0.000922329
0.00357228
-0.000534295
-0.000429215
0.00878886
-0.000330828
0.00323444
-0.000352439
-0.00106214
0.0107851
-0.00123223
0.0120144
-0.0012573
0.0127847
-0.00113733
0.0132346
-0.000930708
0.013432
-0.000706973
0.0134121
-0.000501322
0.013151
-0.000327439
0.012576
-0.000192472
0.0116164
-9.52864e-05
0.0102298
-3.46433e-05
0.00843094
-3.59122e-06
0.00627914
5.16206e-06
0.00387382
3.04352e-06
0.00131875
0.00347229
0.0101687
0.00414193
0.0103582
0.00498826
0.0105211
0.00607139
0.0105461
0.00751907
0.0101592
0.00949979
0.00407044
0.00443665
0.00459466
0.00219847
0.00540433
0.00274314
0.00101867
0.000271255
0.000251624
0.000777958
-0.0014028
0.00174184
0.000718482
0.000652313
0.00073299
-0.000330908
0.000393313
-0.000393313
0.000360947
-0.000772588
0.000654118
-5.40455e-05
0.00227764
-8.14908e-05
-5.76251e-05
-0.000116603
0.00301941
-0.00021418
-0.000215553
0.00812769
-0.000185416
0.0028451
-0.000156518
0.0020069
-3.81101e-05
-4.35881e-05
-0.000811114
0.010364
-0.00109149
0.0118486
-0.00116151
0.0128088
-0.00103922
0.0133431
-0.000849652
0.0135747
-0.000647764
0.0135585
-0.000459784
0.0132833
-0.000301918
0.0126855
-0.000177186
0.0116983
-8.79586e-05
0.0102831
-3.0808e-05
0.00845816
-3.27952e-06
0.00628758
4.81521e-06
0.00387204
2.89852e-06
0.00131585
0.00330764
0.0101726
0.00393041
0.0103803
0.00475082
0.0105956
0.00583532
0.0107572
0.00734026
0.0107249
0.00962986
0.0100291
0.0060145
0.00346027
0.00643392
0.00401723
0.00489354
-0.00159545
0.000303091
0.000339124
0.00623054
0.000875345
0.000530801
-5.96526e-05
0.000191972
0.00116128
0.000268991
0.000284317
0.000244344
0.000592054
-1.94269e-05
0.000190298
0.000547582
-1.31528e-05
0.0018428
-2.68691e-05
-2.32153e-05
0.00272861
-9.90623e-05
-0.000137971
0.00759919
-0.000144648
0.0026233
-8.01062e-05
0.00172368
-1.80608e-05
-1.93401e-05
-0.000512918
0.000484295
-9.48702e-06
-8.92412e-06
-0.000724184
0.0099967
-0.00103026
0.0117174
-0.00104626
0.0128159
-0.000931417
0.0134249
-0.000766428
0.0136934
-0.000590636
0.0136894
-0.000424985
0.0134064
-0.000281073
0.0127894
-0.000165544
0.0117759
-8.19217e-05
0.0103342
-2.92731e-05
0.00848415
-3.28105e-06
0.00629568
4.13574e-06
0.00387081
2.34478e-06
0.00131351
0.00314027
0.0101754
0.00370876
0.0103943
0.00448388
0.0106472
0.00552753
0.0109034
0.00699265
0.0111048
0.00922232
0.0111324
-0.00753578
0.0139882
0.00468268
0.00532785
0.00704316
0.0012616
0.00138606
0.00188924
0.00163537
0.00104837
-0.00074528
0.00138749
-0.00191829
0.00279364
0.000460963
0.000170872
0.000157719
0.000463116
-5.68982e-06
0.000445177
-5.27632e-06
0.00164683
-1.16891e-05
-1.05228e-05
0.00254513
-5.9798e-05
-0.000121467
0.00715438
-0.000157908
0.00245996
-5.9486e-05
0.00158441
-8.76134e-06
-8.92285e-06
-0.000429981
0.000416464
-4.54429e-06
-4.14361e-06
-0.000148795
0.000139308
-0.000749721
0.00971616
-0.000934591
0.0116057
-0.000915338
0.0127998
-0.000819306
0.0134778
-0.000686066
0.0137888
-0.000539836
0.0138042
-0.000395309
0.0135206
-0.00026475
0.0128886
-0.000156868
0.0118509
-7.80953e-05
0.010383
-2.79099e-05
0.00850878
-3.56513e-06
0.00630338
3.31943e-06
0.00386983
2.16811e-06
0.00131134
0.00297304
0.0101752
0.00348123
0.0104029
0.00419643
0.0106817
0.0051755
0.0109992
0.00655152
0.0113446
0.00857744
0.0117497
0.0127904
0.0123303
0.00874434
-0.00415444
-0.00336046
0.00195312
0.00150012
0.00880277
0.00526943
0.00298496
0.00107027
0.00343113
0.00093989
-0.00389593
0.00163073
0.00117056
0.000133618
0.000128342
0.000407245
-2.4701e-06
0.00039899
-2.26724e-06
0.00153709
-6.07508e-06
-6.39999e-06
0.00239288
-5.43853e-05
-0.000162719
0.00681019
-0.000242809
0.00230176
-6.67813e-05
0.00148986
-6.5007e-06
-5.75661e-06
-0.000391903
0.000385177
-2.03565e-06
-1.83533e-06
-0.000124198
0.000119654
-0.000747718
0.00952929
-0.000786369
0.0114767
-0.000770559
0.0127511
-0.000714002
0.0135057
-0.000618857
0.0138678
-0.000500738
0.0139097
-0.000374079
0.01363
-0.000253393
0.0129851
-0.000151326
0.0119241
-7.49187e-05
0.01043
-2.73183e-05
0.00853254
-4.10587e-06
0.0063108
2.71077e-06
0.00386929
1.81639e-06
0.00130952
0.00280557
0.0101765
0.00324896
0.0104075
0.00389786
0.0107015
0.0047988
0.0110584
0.00605842
0.0114923
0.00787109
0.0120509
0.0111974
0.0133427
-0.00680576
0.0159229
0.00545597
0.00655996
-0.00318073
0.001451
-0.00295112
0.00311907
0.00178517
-0.001451
-0.00178517
0.00182165
0.00154626
0.00107027
0.00201016
0.000117184
0.000114916
0.000380448
-1.34595e-06
0.000375175
-1.12719e-06
0.0014459
-4.60606e-06
-5.8178e-06
0.00222308
-8.40419e-05
-0.000292425
0.0066337
-0.000278803
0.00211779
-0.000137522
0.00139101
-7.23694e-06
-4.65606e-06
-0.000370657
0.000365623
-1.46635e-06
-1.23897e-06
-0.000113081
0.000111045
-0.000577113
0.00932004
-0.000614269
0.0113204
-0.000643464
0.0126805
-0.000628501
0.0135154
-0.000568452
0.0139355
-0.000473061
0.0140087
-0.000358532
0.0137351
-0.000243647
0.0130774
-0.000145018
0.0119942
-7.14855e-05
0.0104742
-2.6673e-05
0.0085551
-5.17511e-06
0.00631869
1.80338e-06
0.0038693
1.66691e-06
0.00130786
0.0026383
0.0101763
0.00301621
0.0104092
0.00359216
0.0107132
0.00440648
0.0110938
0.00554087
0.011576
0.00715184
0.0122116
0.00970176
0.0135466
0.0142965
0.014969
0.00502582
-0.00200944
-0.00135847
0.00197521
0.00182284
0.00587333
0.00571245
-0.00154626
0.00135847
0.000109699
0.000108572
0.000362067
-1.04978e-06
0.000357283
-1.03329e-06
0.00132224
-4.86795e-06
-1.04028e-05
0.00204471
-0.000219347
-0.000212591
0.00638751
-0.000118323
0.00198824
-0.000222328
0.00122146
-2.6486e-05
-1.02542e-05
-0.000353604
0.000347734
-1.36702e-06
-9.77519e-07
-0.000107333
0.000105867
-0.000379915
0.00908568
-0.000478534
0.0111555
-0.000547536
0.0125996
-0.000567402
0.0135143
-0.00053485
0.0139973
-0.00045592
0.014106
-0.000349055
0.0138405
-0.000236612
0.013169
-0.000140201
0.0120629
-7.01255e-05
0.0105177
-2.69858e-05
0.00857691
-5.36782e-06
0.00632586
1.22726e-06
0.00386974
1.17438e-06
0.00130668
0.00247054
0.0101768
0.00278256
0.0104099
0.00328452
0.0107169
0.00401046
0.0111092
0.00501948
0.0116152
0.00643511
0.0122927
0.00843931
0.013474
0.0120906
0.0157525
-0.00411925
0.0118082
0.0131533
-0.00107778
0.00147282
0.00158017
0.000745068
-0.00098088
0.0040469
0.000104817
0.000103784
0.000344016
-1.14937e-06
0.000335214
-1.60057e-06
0.00112558
-4.07805e-05
-8.26874e-05
0.00189967
-0.000124023
-8.23153e-05
0.00613447
-4.45676e-05
0.00183637
-5.50191e-05
0.0010487
-6.54786e-05
-7.9966e-05
-0.000327255
0.000305979
-5.21025e-06
-2.29578e-06
-0.000102806
0.000101439
-0.000263879
0.00887103
-0.000388978
0.010997
-0.000485634
0.0125178
-0.000532301
0.0135118
-0.000517627
0.014059
-0.000444289
0.0142013
-0.000337267
0.0139412
-0.000227371
0.0132562
-0.00013422
0.012127
-6.76558e-05
0.0105583
-2.6219e-05
0.00859777
-6.5416e-06
0.00633363
3.67464e-07
0.00387055
8.9777e-07
0.00130578
0.00230453
0.010177
0.00255114
0.0104082
0.00297869
0.0107157
0.00361533
0.011112
0.00450409
0.0116246
0.00573672
0.0123136
0.00737815
0.0133539
0.010077
0.0154877
0.011356
0.0162048
-0.00200017
0.0070172
0.00953703
-0.00140073
-0.000427008
0.0010263
0.00031806
0.00273677
-0.000389546
-0.000300496
0.00010029
9.86895e-05
0.000277613
-1.24137e-05
0.000222527
-2.76017e-05
0.000955928
-2.45237e-05
-6.72895e-06
0.001782
-2.79453e-05
-4.33225e-05
0.00594308
-2.91575e-05
0.00175376
-1.63257e-05
0.00090431
-6.32248e-07
-2.76881e-06
-0.000193729
0.000128251
-5.1168e-05
-9.63937e-05
9.11835e-05
-0.000204705
0.00868676
-0.000337301
0.0108486
-0.000455445
0.0124409
-0.000521893
0.013516
-0.000511128
0.0141259
-0.00043303
0.014297
-0.000323279
0.0140371
-0.000216344
0.0133383
-0.000127029
0.0121864
-6.43012e-05
0.0105964
-2.68959e-05
0.00861812
-7.46875e-06
0.00634147
-7.51981e-07
0.0038722
8.25469e-07
0.00130496
0.00213845
0.0101771
0.00232068
0.0104075
0.00267334
0.0107135
0.00322233
0.0111087
0.00399855
0.0116175
0.00506731
0.012294
0.0064486
0.0132431
0.00844864
0.0149822
0.00999577
0.0168479
0.00844308
0.0147789
0.00348366
0.00675178
-0.00026612
-0.000432295
0.0016736
-0.000160433
-0.000177121
-0.00012268
0.000759433
0.00019538
0.000534995
-7.60579e-05
7.87698e-05
5.1168e-05
0.000103727
9.69981e-05
0.000877817
-1.03027e-06
-4.21941e-07
0.00172354
-1.31024e-05
-3.18214e-05
0.00579751
-2.73141e-05
0.0017049
-1.05175e-05
0.00086254
-3.47908e-07
-7.00668e-07
-9.42293e-05
9.35971e-05
-0.000171801
0.00852126
-0.000316748
0.0107099
-0.000454938
0.012374
-0.000526993
0.0135319
-0.000502574
0.0141954
-0.000414732
0.0143885
-0.000305505
0.0141263
-0.000203405
0.0134147
-0.000121093
0.0122432
-6.25342e-05
0.0106321
-2.71714e-05
0.00863782
-8.44486e-06
0.00634916
-1.17783e-06
0.0038742
2.02875e-07
0.00130476
0.00197452
0.0101769
0.00209283
0.0104049
0.00237364
0.0107072
0.00283631
0.0110996
0.00350759
0.0115997
0.00443024
0.0122546
0.00560642
0.0131362
0.00715377
0.014538
0.00853004
0.0164479
0.00831887
0.0169721
0.00556293
0.0126996
0.0014839
0.0051586
4.77383e-05
6.1548e-05
-0.00130169
0.00107151
-9.31154e-06
-2.66343e-05
-2.48352e-05
-3.55444e-05
-0.000397006
0.000275446
-3.88729e-05
-3.91322e-05
0.000119322
9.25669e-05
9.21449e-05
0.000850379
-5.6235e-07
-3.78784e-07
0.00168379
-1.07191e-05
-2.48482e-05
0.00567113
-2.05809e-05
0.00166814
-1.16642e-05
0.000840692
-3.4277e-07
-4.87332e-07
-9.14443e-05
9.10964e-05
-0.000160424
0.00836493
-0.000330321
0.0105853
-0.000482259
0.0123292
-0.000533481
0.0135628
-0.00048304
0.0142637
-0.000388666
0.0144717
-0.000286238
0.0142091
-0.000190341
0.0134839
-0.000114945
0.0122956
-6.19613e-05
0.0106668
-2.76079e-05
0.00865699
-1.03184e-05
0.0063583
-2.55434e-06
0.00387696
1.90438e-07
0.00130457
0.00181095
0.0101766
0.00186815
0.0104016
0.00207623
0.0107023
0.00245591
0.0110876
0.00303017
0.011577
0.00382408
0.0122059
0.00483355
0.0130275
0.00608453
0.0142055
0.00724065
0.0158274
0.00751673
0.0172501
0.00632903
0.016206
0.00342893
0.0107546
0.000711358
0.00448543
-3.96041e-05
1.41304e-06
-0.00102198
0.00100026
2.1884e-05
4.75801e-05
6.13197e-05
4.97563e-05
-0.000195761
0.000187726
-1.27614e-06
-0.000215904
-6.49089e-06
-0.000236672
-4.068e-06
3.22935e-06
-8.01896e-05
4.13167e-05
9.0534e-05
9.01552e-05
0.000830895
-4.70537e-07
-4.52115e-07
0.00165297
-9.67503e-06
-1.76956e-05
0.00554868
-2.02779e-05
0.00163749
1.73737e-06
-6.84003e-06
0.000820211
-4.81801e-07
-4.97709e-07
-8.96679e-05
8.93252e-05
-0.000177075
0.00821169
-0.000379496
0.0104825
-0.000518302
0.0123141
-0.000515483
0.0135952
-0.000448949
0.014324
-0.000357362
0.0145428
-0.000262306
0.0142811
-0.000177846
0.0135468
-0.000110546
0.0123442
-6.12144e-05
0.0107005
-3.02314e-05
0.0086769
-1.23531e-05
0.0063681
-3.1945e-06
0.00388035
-3.84977e-07
0.00130495
0.00165004
0.0101749
0.00164727
0.0103974
0.00178479
0.0106931
0.00208328
0.011075
0.00256389
0.0115538
0.00324547
0.0121556
0.00411688
0.0129225
0.00516227
0.0139497
0.00615167
0.0152944
0.00657268
0.0167714
0.00616986
0.0174092
0.00460118
0.0150338
0.0020799
0.00938605
0.000317053
0.00414435
3.40409e-05
-1.00208e-05
-0.000987206
0.000978487
-3.08857e-05
-2.00456e-06
1.64684e-05
-0.000243694
0.000252003
1.35751e-05
-0.000224911
2.87967e-05
-0.000204066
4.04751e-05
3.34155e-05
-3.39871e-05
3.2711e-05
-4.04781e-05
-4.45461e-05
8.88546e-05
8.84025e-05
0.000475286
-2.699e-07
-2.45336e-07
0.000335764
0.0016265
-4.20259e-06
-2.50428e-06
-1.55419e-05
0.00541429
-2.71358e-05
0.00161084
-2.00484e-06
-2.60656e-06
0.000505895
-2.88708e-05
0.000507486
-8.43128e-06
-8.79048e-05
8.7423e-05
-0.000236796
0.00806899
-0.000463023
0.0104273
-0.000510497
0.0123091
-0.000471908
0.0136182
-0.000403636
0.0143703
-0.000322615
0.0146031
-0.000242295
0.0143455
-0.000168447
0.0136047
-0.000108832
0.0123918
-6.33058e-05
0.0107335
-3.24873e-05
0.00869703
-1.39734e-05
0.00637888
-4.13662e-06
0.0038841
-4.56728e-07
0.00130541
0.00149018
0.0101749
0.00143003
0.0103921
0.001498
0.0106842
0.00171526
0.0110611
0.00210811
0.0115307
0.00268922
0.0121101
0.00344547
0.012827
0.00434169
0.0137431
0.00520935
0.014892
0.00568221
0.0161849
0.00560732
0.017334
0.00489581
0.0171146
0.0032467
0.013867
0.00123848
0.00846462
0.000107409
0.00393458
4.08187e-05
6.15429e-05
-0.000959441
0.000947823
4.56584e-05
9.02458e-06
-0.000234724
0.000356198
-1.49491e-06
-0.000149886
-9.78875e-07
-0.000255376
1.86472e-05
1.30949e-05
-0.000110558
0.000121281
2.85227e-06
-8.94712e-05
7.71005e-06
-6.61265e-05
1.71303e-05
8.71531e-05
8.69078e-05
0.000305099
1.79472e-06
0.000506067
-2.78408e-06
0.000504944
-1.38032e-06
0.00160015
-1.82437e-06
-3.02906e-06
-2.26129e-05
0.00525134
-5.12348e-05
0.00157948
-2.33109e-06
-4.13137e-06
0.000503894
-9.55542e-07
0.000501877
-5.89223e-07
0.000298731
-2.06372e-06
-0.000361485
0.00796745
-0.000482419
0.0103992
-0.00045734
0.0122945
-0.000410156
0.0136247
-0.000355043
0.0144027
-0.000292461
0.0146533
-0.000225532
0.0144026
-0.000164058
0.01366
-0.000108863
0.0124373
-6.61115e-05
0.0107671
-3.53377e-05
0.0087184
-1.57429e-05
0.00639048
-5.24644e-06
0.00388889
-9.09305e-07
0.00130632
0.00133188
0.0101733
0.00121956
0.0103853
0.0012179
0.0106722
0.00135498
0.0110445
0.00166089
0.0115083
0.00214976
0.0120702
0.00280851
0.0127471
0.0035918
0.0135769
0.00437077
0.0145817
0.00487596
0.0156983
0.00495683
0.0168354
0.00466013
0.0175697
0.00378663
0.0165747
0.00224201
0.0128634
0.0007331
0.00783893
3.52317e-05
0.00385078
2.27039e-05
2.58657e-05
-0.000938422
0.000944765
3.44756e-05
7.09433e-05
-0.000363491
0.000385509
1.79071e-05
5.73239e-06
-8.60905e-08
1.8174e-06
-2.98504e-05
2.83554e-05
-0.000130642
-5.97042e-07
-3.08293e-05
3.73373e-06
-2.48403e-05
2.76926e-05
-1.71303e-05
8.87025e-05
0.000296906
-9.58457e-07
0.00029581
-2.84228e-07
0.000500753
-7.00518e-07
0.000498956
-1.2321e-06
0.00156356
-2.01184e-06
-4.68218e-06
-6.49541e-05
0.00509456
-0.000139751
0.00152453
-3.65891e-06
-8.54446e-06
0.000497878
-1.25272e-06
0.000494794
-1.04725e-06
0.00029504
-1.85447e-07
0.000294517
-6.60162e-08
8.66388e-05
-0.000447945
0.00793298
-0.000406991
0.0103488
-0.000372592
0.0122569
-0.000346412
0.0136161
-0.000311709
0.014422
-0.000267504
0.0146952
-0.000216201
0.0144547
-0.00016242
0.0137135
-0.000112815
0.012484
-7.03861e-05
0.0108022
-3.85071e-05
0.00874116
-1.74435e-05
0.00640268
-6.15574e-06
0.00389414
-8.816e-07
0.0013072
0.0011783
0.0101691
0.00101534
0.0103775
0.000945023
0.0106582
0.00100189
0.0110253
0.00122049
0.0114849
0.00162064
0.0120374
0.00219583
0.0126829
0.00289289
0.013446
0.00360695
0.0143407
0.00413419
0.0153235
0.00432259
0.0163325
0.00421558
0.0172799
0.00379541
0.0175609
0.00286975
0.0159469
0.00154452
0.012052
0.000440676
0.00743348
-4.63482e-05
0.00377949
6.85516e-05
4.90892e-05
-0.000953547
0.000964027
1.22234e-05
1.70837e-05
-0.000409515
0.000433647
9.80718e-07
9.36261e-06
2.58212e-05
2.11159e-05
-3.58191e-05
5.37261e-05
-3.00867e-05
2.82693e-05
-3.14263e-05
8.56804e-05
8.53961e-05
0.00029398
-1.63736e-07
0.000292943
-1.94926e-07
0.00049382
-1.03811e-06
0.000490816
-1.67756e-06
0.00148345
-6.81617e-06
-1.70609e-05
-0.000202659
0.00505203
-0.000202753
0.00140732
-2.04215e-05
-4.32044e-05
0.000489017
-1.86008e-06
0.000482958
-2.48552e-06
0.000291926
-2.35598e-07
0.000291125
-2.46528e-07
8.52107e-05
8.51447e-05
-0.000324934
0.00785092
-0.000292962
0.0102692
-0.000294225
0.0122048
-0.000292307
0.0135967
-0.000279906
0.0144344
-0.000252752
0.0147318
-0.000213702
0.014506
-0.000166933
0.0137676
-0.000117197
0.0125308
-7.37618e-05
0.0108375
-3.97311e-05
0.00876345
-1.81932e-05
0.00641472
-6.35721e-06
0.00389961
-1.25458e-06
0.00130845
0.00102752
0.0101653
0.000819363
0.0103651
0.000683667
0.0106389
0.000656171
0.0110039
0.000784572
0.0114613
0.00109897
0.0120066
0.00159788
0.0126354
0.0022293
0.0133465
0.00289898
0.0141539
0.00344049
0.0150344
0.00371707
0.015929
0.00372813
0.01682
0.00352985
0.0175455
0.00304491
0.0173857
0.00215969
0.0153317
0.00106731
0.0114254
0.000248392
0.00713874
-7.46806e-05
0.00373911
4.49182e-05
7.01328e-05
-0.000971266
0.00097643
6.33871e-05
4.18498e-05
-0.000449104
0.000461656
6.89201e-07
-1.01814e-06
1.80254e-06
-1.75829e-07
-8.8623e-05
8.97872e-05
-1.83509e-07
-8.1079e-05
1.81848e-06
6.6338e-05
1.32092e-05
6.3749e-06
8.4981e-05
8.4786e-05
0.000290269
-1.81872e-07
0.000288905
-3.13772e-07
0.000479559
-3.41772e-06
0.00046903
-6.53165e-06
0.00136042
-5.80973e-05
-9.76613e-05
-0.00013431
0.00491593
-5.45289e-05
0.00131893
-8.75865e-05
-7.367e-05
0.000458928
-1.03189e-05
0.000435461
-1.97378e-05
0.000287371
-3.25918e-07
0.000285289
-4.03755e-07
8.45504e-05
8.43039e-05
-0.00017541
0.00773337
-0.000205394
0.0101804
-0.000235041
0.0121475
-0.000255904
0.0135727
-0.000261348
0.014443
-0.000249784
0.0147679
-0.000218028
0.0145571
-0.00017234
0.0138228
-0.000121518
0.0125786
-7.6437e-05
0.0108742
-4.23281e-05
0.00878759
-1.96615e-05
0.00642802
-6.97379e-06
0.00390533
-1.04087e-06
0.0013095
0.000881783
0.010158
0.000635532
0.0103491
0.00043401
0.0106147
0.000321188
0.0109739
0.000353828
0.0114347
0.000577961
0.0119823
0.0010045
0.0125999
0.00158508
0.0132796
0.00222513
0.0140203
0.00278279
0.0148116
0.00313355
0.0156179
0.0032456
0.0164115
0.00316837
0.0171815
0.00291932
0.0176711
0.00242248
0.0171229
0.00162314
0.0147759
0.000738296
0.0109355
0.000138079
0.00692598
-6.60501e-05
0.00375974
1.31285e-05
3.22994e-05
-0.000983705
0.000995044
3.3579e-05
6.28574e-05
-0.000483602
0.000498197
2.63231e-05
2.24688e-05
5.8963e-06
1.4008e-05
-9.03828e-05
9.135e-05
-2.78056e-07
-9.10743e-05
-3.26739e-07
9.09997e-05
5.89925e-07
-2.50423e-07
-2.14026e-05
2.12191e-05
-1.95841e-05
1.32092e-05
8.41221e-05
8.38083e-05
0.000282417
-5.45918e-07
0.000276913
-1.02689e-06
0.000413954
-3.65906e-05
0.00037959
-6.32965e-05
0.00124968
-4.53001e-05
-1.97619e-05
-3.23372e-05
0.00478131
-8.45356e-06
0.00120941
-1.1037e-05
-3.22019e-06
0.000357363
-6.53596e-05
0.000334326
-5.0633e-05
0.000268438
-1.84446e-06
0.000252699
-3.99862e-06
8.34824e-05
8.30786e-05
-0.000101393
0.00762937
-0.000152785
0.0100981
-0.00019781
0.0120894
-0.000235713
0.013547
-0.000256128
0.0144493
-0.000253509
0.0148033
-0.000226052
0.0146108
-0.000178669
0.0138799
-0.000126545
0.0126287
-7.81969e-05
0.01091
-4.30304e-05
0.00881095
-1.94842e-05
0.00644053
-6.65196e-06
0.00391094
-1.1373e-06
0.00131063
0.000742044
0.0101483
0.000465902
0.0103277
0.000202441
0.0105807
-4.70362e-07
0.0109364
-7.20867e-05
0.0113998
5.56388e-05
0.011957
0.000408976
0.0125778
0.000947006
0.013238
0.00157416
0.0139306
0.00215434
0.0146488
0.00256593
0.0153792
0.00276861
0.0160949
0.00278459
0.0167953
0.00266322
0.0174376
0.00239915
0.0176944
0.00192236
0.0168237
0.00122401
0.0142902
0.000518382
0.0105552
7.41101e-05
0.00678582
-8.9709e-05
8.1261e-05
0.00376818
-0.000999711
0.000949072
6.37675e-05
2.76323e-05
-0.000516829
0.000537139
3.663e-06
9.60616e-06
2.83652e-05
1.58596e-05
-0.000111689
0.000119764
1.82479e-05
-0.000103636
1.4416e-05
9.5108e-05
2.1382e-06
5.47986e-06
-2.12318e-05
2.09537e-05
-2.15585e-05
2.1809e-05
8.25327e-05
8.15058e-05
0.000226439
-1.03305e-05
0.000185757
-2.2615e-05
0.000309781
-2.07553e-05
0.000296997
-6.97826e-06
0.0011811
-3.36386e-06
-6.69784e-07
-1.23147e-05
0.00469612
-3.88968e-06
0.00117343
-9.66656e-07
1.90355e-07
0.000288373
-2.413e-06
0.000285851
-6.97764e-07
0.000163115
-4.27173e-05
0.000112482
7.96614e-05
7.56627e-05
-6.87449e-05
0.00754533
-0.000122779
0.0100231
-0.000179238
0.0120329
-0.000230053
0.013521
-0.000264822
0.0144606
-0.000268156
0.0148454
-0.000237848
0.01467
-0.000185356
0.0139388
-0.000128267
0.0126788
-7.85815e-05
0.0109456
-4.1816e-05
0.00883329
-1.92552e-05
0.00645314
-6.32084e-06
0.00391613
-1.0261e-06
0.00131166
0.000609576
0.0101357
0.000314569
0.0102997
-6.27764e-06
0.0105364
-0.000303342
0.0108836
-0.00048904
0.0113533
-0.000473798
0.0119292
-0.000199772
0.0125657
0.000301696
0.0132231
0.00093086
0.0138813
0.00154202
0.0145429
0.00201276
0.0152019
0.00229639
0.0158515
0.00239926
0.0164802
0.00236389
0.0170946
0.00222351
0.0176132
0.00196766
0.0176491
0.00152793
0.0165198
0.000930301
0.0138783
0.000368598
0.0102607
2.00994e-05
0.00667602
-0.000631201
0.00159593
4.71038e-05
1.84998e-05
-0.000110821
0.000119547
0.00375946
-0.000557624
-9.81008e-06
6.04661e-06
1.10102e-06
-0.000143281
0.000145322
1.62158e-06
-0.000137696
4.02163e-06
0.000130729
1.73996e-05
8.89277e-06
-4.29877e-05
5.09847e-05
1.02509e-05
-2.85718e-05
2.30919e-05
6.53323e-05
4.27173e-05
9.17266e-05
8.47483e-05
0.000282886
-3.98845e-07
0.000282452
-2.35533e-07
0.00116259
-1.10171e-06
-3.78919e-07
-8.15753e-06
0.00463932
-3.78049e-06
0.00115947
-6.36366e-07
-1.30756e-07
0.000281631
-1.45918e-07
0.000281693
1.28762e-07
8.23353e-05
8.16376e-05
-5.35109e-05
0.00747606
-0.00010828
0.00995214
-0.00017503
0.0119779
-0.000241306
0.0134975
-0.00028321
0.0144757
-0.000284156
0.0148918
-0.000246348
0.014731
-0.000187078
0.0139976
-0.000126332
0.0127265
-7.6567e-05
0.0109803
-4.13199e-05
0.00885535
-1.86352e-05
0.00646545
-6.1642e-06
0.00392126
-8.90219e-07
0.00131255
0.000485741
0.01012
0.000185796
0.0102644
-0.00018468
0.0104781
-0.000577818
0.0108109
-0.000893345
0.0112879
-0.00101066
0.0118902
-0.000828256
0.0125577
-0.000363757
0.0132312
0.000283945
0.01387
0.000939066
0.0144843
0.00146947
0.0150862
0.00182715
0.0156712
0.00201048
0.0162403
0.00205377
0.0167903
0.00199162
0.0173265
0.00185484
0.017726
0.00161514
0.0175619
0.00122013
0.01623
0.000715697
0.0135312
0.000257799
0.010023
-1.79127e-05
0.00658311
0.0016258
3.25951e-05
5.70801e-05
-0.000234008
0.000262822
1.33835e-05
4.90609e-06
-0.000217501
1.66491e-06
3.28257e-07
-9.71887e-05
7.47129e-05
0.00378193
-0.000137179
-2.69599e-07
-3.11662e-07
-8.95513e-05
0.000146904
4.46484e-06
1.08259e-05
-7.34096e-05
7.49345e-05
9.66128e-08
-7.00312e-05
6.43187e-07
6.30849e-05
5.29938e-06
1.94635e-06
1.02509e-05
8.12387e-05
8.10032e-05
0.00028064
-4.89832e-08
0.000280443
-1.81693e-07
0.00115259
-8.23621e-07
-4.53993e-07
-5.9543e-06
0.0045956