/*--------------------------------*- C++ -*----------------------------------*\
| =========                 |                                                 |
| \\      /  F ield         | OpenFOAM: The Open Source CFD Toolbox           |
|  \\    /   O peration     | Version:  v1912                                 |
|   \\  /    A nd           | Website:  www.openfoam.com                      |
|    \\/     M anipulation  |                                                 |
\*---------------------------------------------------------------------------*/
FoamFile
{
    version     2.0;
    format      ascii;
    class       volVectorField;
    location    "480";
    object      U;
}
// * * * * * * * * * * * * * * * * * * * * * * * * * * * * * * * * * * * * * //

dimensions      [0 1 -1 0 0 0 0];


internalField   nonuniform List<vector> 
3673
(
(0.648268 -0.0256171 -1.62442e-21)
(0.974714 -0.0153882 -5.2933e-20)
(0.298497 -0.052609 -3.7921e-24)
(1.01653 -0.0105414 2.47035e-20)
(0.766263 -0.0576998 -2.32675e-24)
(0.175748 -0.0544454 1.98584e-20)
(1.00674 -0.0140147 -1.92907e-37)
(0.961748 -0.0543773 1.54692e-24)
(0.569489 -0.0969468 -1.81621e-20)
(0.125149 -0.0463663 2.43717e-20)
(0.999499 -0.0166127 -2.66143e-41)
(1.00915 -0.0526396 0)
(0.844431 -0.104369 -2.38064e-20)
(0.437237 -0.110907 -2.41043e-20)
(0.108745 -0.0401803 2.84106e-20)
(0.997584 -0.0172078 -4.11536e-24)
(1.00898 -0.0524933 -7.04267e-24)
(0.969797 -0.101138 4.83874e-20)
(0.721444 -0.138842 2.53601e-20)
(0.366304 -0.11138 0)
(0.105499 -0.0376581 -3.11854e-20)
(0.997502 -0.0168445 -3.77868e-51)
(1.00229 -0.0526297 1.81386e-20)
(1.00451 -0.0973763 -2.59644e-20)
(0.899406 -0.145598 -2.2289e-20)
(0.627451 -0.157251 2.83467e-20)
(0.334228 -0.109822 3.38975e-20)
(0.106252 -0.0370043 0)
(0.9977 -0.0160109 0)
(0.998179 -0.0520329 1.80084e-21)
(1.00487 -0.0948846 0)
(0.977091 -0.144326 7.06417e-24)
(0.826031 -0.178775 3.79322e-21)
(0.568991 -0.166394 0)
(0.321817 -0.109072 0)
(0.108349 -0.0370763 0)
(0.997851 -0.0148434 2.301e-20)
(0.99618 -0.0503525 -2.02358e-20)
(0.998505 -0.0927046 0)
(0.997383 -0.141225 1.74659e-20)
(0.937221 -0.185625 -2.62145e-20)
(0.767966 -0.201195 0)
(0.537515 -0.170894 -7.36998e-24)
(0.318655 -0.109014 0)
(0.110557 -0.0373435 0)
(0.997961 -0.0133682 -2.31327e-20)
(0.994894 -0.0476275 0)
(0.993108 -0.0899106 2.03882e-23)
(0.995742 -0.138061 -1.75111e-20)
(0.981406 -0.185945 0)
(0.898479 -0.21831 1.35178e-23)
(0.729324 -0.215212 6.7163e-24)
(0.522683 -0.172876 -3.08518e-20)
(0.319345 -0.109102 3.39569e-20)
(0.112221 -0.0375831 -6.81001e-24)
(0.99807 -0.0115688 0)
(0.993668 -0.0439002 0)
(0.988929 -0.0860332 -2.27203e-23)
(0.989074 -0.134721 -4.16903e-23)
(0.990442 -0.184287 -3.62035e-23)
(0.963213 -0.225029 0)
(0.868499 -0.24182 -1.4152e-23)
(0.706665 -0.222866 2.72039e-20)
(0.516817 -0.173325 5.45226e-22)
(0.321014 -0.109077 -3.21347e-20)
(0.113206 -0.0377227 1.32097e-23)
(0.9982 -0.0094303 -2.55612e-23)
(0.992353 -0.039129 0)
(0.985025 -0.0807772 0)
(0.982072 -0.130609 2.3664e-23)
(0.986201 -0.182231 2.13736e-23)
(0.985285 -0.227375 1.82757e-23)
(0.948255 -0.255874 0)
(0.848687 -0.256601 0)
(0.694564 -0.22599 7.91283e-22)
(0.514969 -0.17291 -4.12171e-22)
(0.322382 -0.108892 0)
(0.113591 -0.0377383 -6.39923e-24)
(0.998362 -0.00696013 0)
(0.990986 -0.0332469 -2.81648e-20)
(0.980877 -0.0738581 0)
(0.974858 -0.125091 0)
(0.978007 -0.179758 0)
(0.986795 -0.228646 -2.22032e-20)
(0.983133 -0.263546 0)
(0.938671 -0.277059 1.2866e-23)
(0.836759 -0.264134 1.11123e-21)
(0.688321 -0.226442 2.44929e-20)
(0.514498 -0.172098 -2.59338e-20)
(0.323028 -0.108513 0)
(0.11345 -0.0376289 0)
(0.998564 -0.0041975 2.79387e-20)
(0.989664 -0.0262212 2.82458e-20)
(0.9764 -0.0649875 1.92118e-24)
(0.9668 -0.117525 0)
(0.967976 -0.176233 2.93006e-20)
(0.980046 -0.229907 2.24697e-20)
(0.99275 -0.269361 3.95563e-23)
(0.984896 -0.28972 -1.3602e-23)
(0.933344 -0.289067 -3.70489e-20)
(0.829613 -0.266918 0)
(0.684951 -0.22564 4.6096e-20)
(0.514182 -0.171048 0)
(0.322833 -0.107925 0)
(0.112889 -0.037417 1.00134e-23)
(0.998811 -0.00122204 -5.62203e-20)
(0.988524 -0.0181022 -2.88048e-23)
(0.97177 -0.0539185 3.17837e-20)
(0.957589 -0.107234 3.32943e-20)
(0.955767 -0.17078 -2.96428e-20)
(0.969145 -0.23101 0)
(0.990603 -0.275645 0)
(1.00384 -0.29963 1.71026e-20)
(0.988731 -0.305209 1.23714e-20)
(0.930123 -0.294633 1.13751e-20)
(0.825144 -0.267232 -2.11568e-20)
(0.682851 -0.224244 5.01e-24)
(0.513461 -0.169804 -2.2197e-20)
(0.32183 -0.107158 -2.36964e-20)
(0.112005 -0.0371277 -8.9047e-25)
(0.999107 0.0018443 2.83017e-20)
(0.98774 -0.00906211 3.038e-20)
(0.967347 -0.0405133 -3.16823e-20)
(0.947343 -0.0935022 -6.9e-20)
(0.940744 -0.162312 -6.74085e-23)
(0.954213 -0.231245 5.84985e-23)
(0.982408 -0.283223 0)
(1.00919 -0.310064 -1.67798e-20)
(1.01651 -0.317424 1.36407e-20)
(0.992088 -0.312973 -1.09194e-20)
(0.92793 -0.296674 0)
(0.822229 -0.266287 -1.97726e-20)
(0.681116 -0.222515 1.95582e-20)
(0.512071 -0.168417 2.0091e-20)
(0.320132 -0.106271 1.00476e-23)
(0.110912 -0.0367827 -9.24709e-24)
(0.999445 0.00484247 5.56701e-23)
(0.987501 0.000573409 -3.02194e-20)
(0.963667 -0.0248472 1.35924e-22)
(0.936596 -0.0756389 -2.1053e-21)
(0.922606 -0.149468 0)
(0.934113 -0.22951 -3.88852e-20)
(0.968937 -0.292234 -5.72182e-23)
(1.00799 -0.32276 3.30527e-23)
(1.02986 -0.329245 -1.3398e-20)
(1.02661 -0.326301 0)
(0.994431 -0.316536 0)
(0.926527 -0.296784 9.13666e-21)
(0.820056 -0.264635 -1.81374e-20)
(0.679189 -0.220632 1.30756e-23)
(0.509987 -0.166966 0)
(0.317903 -0.105292 -1.00784e-23)
(0.109675 -0.0363993 0)
(0.99981 0.00759321 0)
(0.987963 0.0103221 -5.77845e-23)
(0.961407 -0.00733067 -3.35299e-20)
(0.926382 -0.0531285 7.61783e-20)
(0.901547 -0.130501 -9.03544e-24)
(0.907483 -0.224211 3.98375e-20)
(0.94875 -0.302589 0)
(1.00233 -0.3388 0)
(1.03687 -0.342647 -3.21422e-23)
(1.04593 -0.338073 0)
(1.03377 -0.330643 -9.1468e-24)
(0.996377 -0.31772 8.93104e-21)
(0.925552 -0.295738 1.69423e-20)
(0.81802 -0.262661 8.45717e-24)
(0.676846 -0.218731 -8.46709e-24)
(0.507289 -0.165476 0)
(0.315279 -0.104253 -8.39101e-24)
(0.108344 -0.0359908 -1.53303e-20)
(1.00018 0.00992392 0)
(0.989192 0.0195837 -1.19942e-22)
(0.961261 0.0111881 3.3375e-20)
(0.918364 -0.0259614 -7.72215e-20)
(0.878492 -0.103203 -4.7489e-20)
(0.873071 -0.212939 1.87237e-22)
(0.919362 -0.314142 0)
(0.991849 -0.359283 -2.37349e-20)
(1.04097 -0.358662 2.5356e-23)
(1.05838 -0.350261 0)
(1.05708 -0.342272 0)
(1.03943 -0.332416 9.10155e-25)
(0.998046 -0.317392 8.34595e-24)
(0.924568 -0.294104 -7.76588e-21)
(0.815811 -0.260618 -7.10154e-24)
(0.674039 -0.216861 0)
(0.504085 -0.163968 -7.24863e-24)
(0.312381 -0.103177 1.62094e-20)
(0.106973 -0.0355682 6.43984e-24)
(1.00052 0.0116986 2.51444e-20)
(0.991126 0.027722 -2.79203e-20)
(0.963722 0.0294615 1.20663e-22)
(0.914705 0.00490067 7.65864e-20)
(0.855828 -0.0654065 4.60388e-20)
(0.830201 -0.191264 0)
(0.877007 -0.326802 0)
(0.974936 -0.38559 2.31153e-20)
(1.04294 -0.377737 2.4926e-23)
(1.06778 -0.363674 -4.68402e-24)
(1.07246 -0.353327 0)
(1.06574 -0.34391 0)
(1.04409 -0.332484 7.77699e-25)
(0.999212 -0.316249 1.86095e-23)
(0.923366 -0.292269 0)
(0.813325 -0.258616 1.39316e-20)
(0.6708 -0.21504 -6.47182e-24)
(0.5005 -0.162453 1.38796e-23)
(0.309304 -0.102076 -6.9918e-24)
(0.105577 -0.0351385 -1.23667e-23)
(1.00081 0.0128435 -4.92653e-20)
(0.993568 0.0341847 1.27167e-21)
(0.968836 0.046022 2.97811e-20)
(0.917203 0.0372228 -3.75076e-20)
(0.838947 -0.0169466 -8.37977e-22)
(0.78011 -0.150231 -6.58654e-20)
(0.81413 -0.338628 5.20947e-20)
(0.946657 -0.41874 -7.75596e-23)
(1.04063 -0.398941 -4.74614e-23)
(1.07402 -0.377755 -1.05026e-20)
(1.08334 -0.364242 -2.01652e-23)
(1.08289 -0.353919 0)
(1.0727 -0.343769 -7.65059e-21)
(1.04764 -0.331609 7.15707e-21)
(0.999838 -0.314768 -6.90035e-24)
(0.921887 -0.290413 -1.29593e-20)
(0.810518 -0.25669 5.93073e-24)
(0.66718 -0.213262 6.4765e-24)
(0.496622 -0.160935 -6.63047e-24)
(0.306108 -0.100968 7.01456e-24)
(0.104179 -0.0347083 -1.17345e-20)
(1.00102 0.0133562 2.41321e-20)
(0.996225 0.0386186 2.66755e-20)
(0.976093 0.0594867 -2.95971e-20)
(0.926574 0.0677178 1.2832e-22)
(0.835797 0.0385014 4.55829e-20)
(0.730733 -0.0791507 6.73224e-20)
(0.714694 -0.333941 -5.44172e-20)
(0.889001 -0.453114 -3.13153e-20)
(1.02135 -0.416799 7.71395e-23)
(1.06963 -0.388295 1.04574e-20)
(1.08721 -0.373107 -1.95438e-23)
(1.09331 -0.362287 0)
(1.09066 -0.352693 7.50746e-21)
(1.07789 -0.342638 6.58464e-25)
(1.05021 -0.330307 6.4486e-21)
(0.999976 -0.313178 0)
(0.920089 -0.288608 0)
(0.807389 -0.254842 1.16181e-20)
(0.663233 -0.211522 0)
(0.492534 -0.159426 0)
(0.302861 -0.0998657 1.23013e-20)
(0.102796 -0.0342813 5.41507e-24)
(1.00115 0.0132978 0)
(0.99879 0.040941 -2.36672e-20)
(0.98449 0.0688871 -5.10092e-23)
(0.942134 0.0929315 -3.03567e-20)
(0.849416 0.0942383 -8.46088e-20)
(0.701586 0.0205004 -6.34417e-20)
(0.562496 -0.270695 -4.19097e-20)
(0.754361 -0.457784 3.80128e-20)
(0.942501 -0.408627 0)
(1.02672 -0.382644 3.40513e-23)
(1.06966 -0.372284 8.56773e-21)
(1.09139 -0.3656 0)
(1.09897 -0.358425 7.13629e-21)
(1.09572 -0.350435 -6.23802e-24)
(1.08154 -0.341016 -6.30018e-21)
(1.05195 -0.328817 0)
(0.999641 -0.311589 5.61983e-21)
(0.917962 -0.286875 -5.37857e-21)
(0.803955 -0.253062 5.41134e-24)
(0.659035 -0.209818 -1.06131e-20)
(0.488317 -0.157932 -5.02942e-24)
(0.299593 -0.0987748 -5.24826e-25)
(0.101449 -0.0338644 -4.50449e-24)
(1.00121 0.0127659 0)
(1.00102 0.0413188 2.38744e-20)
(0.992852 0.0739127 -9.50896e-23)
(0.961531 0.110241 2.97107e-20)
(0.879658 0.142 7.28335e-20)
(0.708255 0.127941 5.81197e-20)
(0.531457 -0.0937832 3.72237e-20)
(0.497769 -0.00998294 9.44898e-22)
(0.540863 -0.469762 0)
(0.357323 -0.213559 7.37967e-20)
(0.38625 -0.387269 -3.66413e-22)
(0.811168 -0.387025 0)
(0.505803 -0.314408 -1.22621e-20)
(0.638555 -0.296362 0)
(0.878396 -0.329537 0)
(0.738144 -0.290686 0)
(0.99267 -0.344128 -9.01559e-21)
(1.05706 -0.354135 7.60218e-21)
(1.08889 -0.356305 -7.14638e-21)
(1.10045 -0.353515 3.022e-24)
(1.09846 -0.347597 6.00304e-21)
(1.08391 -0.339125 1.65437e-23)
(1.05294 -0.327278 -5.41037e-21)
(0.998851 -0.310035 -5.14092e-21)
(0.915516 -0.285205 -4.94534e-21)
(0.800249 -0.251335 9.581e-21)
(0.654641 -0.208148 0)
(0.484024 -0.156464 4.47294e-25)
(0.296356 -0.0977061 -5.3369e-24)
(0.100135 -0.0334578 -8.99299e-21)
(1.00121 0.0118698 -3.93936e-23)
(1.00281 0.0400719 0)
(1.00028 0.0749147 0)
(0.98144 0.118932 -2.02346e-22)
(0.919958 0.174048 -3.33429e-20)
(0.760865 0.223903 -4.04817e-22)
(0.490105 0.0963271 0)
(0.514825 0.196048 -2.48959e-20)
(0.279853 -0.0833609 -3.73568e-20)
(0.290842 -0.325891 3.20705e-22)
(0.203705 -0.257685 -1.15136e-20)
(0.199587 -0.238396 8.62795e-21)
(0.169594 -0.156253 4.10034e-21)
(0.303587 -0.252232 -2.01787e-22)
(0.461487 -0.216186 3.58739e-23)
(0.257578 -0.107601 0)
(0.166151 -0.114929 -5.70806e-22)
(0.509775 -0.188621 -5.97203e-22)
(0.360439 -0.146728 -9.60953e-22)
(0.655767 -0.233389 0)
(0.793643 -0.262659 0)
(0.588528 -0.194404 -1.2133e-23)
(0.950535 -0.310593 -8.15414e-21)
(1.03724 -0.336089 0)
(1.08087 -0.346398 0)
(1.09864 -0.347979 -1.56786e-22)
(1.09929 -0.34439 0)
(1.08515 -0.337142 -1.06703e-23)
(1.05325 -0.325725 -1.00905e-23)
(0.997624 -0.308502 9.37866e-21)
(0.912752 -0.283579 4.51444e-21)
(0.796308 -0.249655 0)
(0.650114 -0.206518 0)
(0.479704 -0.155022 4.60191e-24)
(0.29316 -0.0966649 9.3502e-21)
(0.0988663 -0.0330636 8.24381e-21)
(1.00117 0.01071 -3.73131e-23)
(1.00414 0.0375664 3.9825e-23)
(1.00633 0.0726645 0)
(0.998989 0.120026 0)
(0.960642 0.187943 1.93589e-22)
(0.847908 0.282273 7.23044e-22)
(0.557652 0.291022 2.37711e-20)
(0.620905 0.366064 -7.41574e-23)
(0.237462 0.0565314 0)
(0.344254 0.248735 8.36139e-23)
(0.318146 0.180732 0)
(0.0657727 -0.0979563 6.7174e-22)
(0.108133 -0.170673 7.83562e-21)
(0.117336 -0.159778 -3.79325e-21)
(0.0783351 -0.0988323 0)
(0.148327 -0.0589343 7.72858e-22)
(0.0852013 -0.0376416 -2.46224e-21)
(0.244236 -0.0762831 6.30463e-22)
(0.421668 -0.131224 0)
(0.288781 -0.0996071 9.11284e-22)
(0.54156 -0.166952 3.19289e-21)
(0.727048 -0.219963 -1.90043e-21)
(0.507438 -0.149259 0)
(0.367658 -0.108637 -1.07501e-23)
(0.908414 -0.284128 7.10299e-21)
(1.01308 -0.319405 -1.18587e-23)
(1.06917 -0.336304 -5.88419e-21)
(1.0943 -0.342073 4.61943e-24)
(1.09851 -0.341099 0)
(1.08539 -0.335105 8.95076e-24)
(1.05292 -0.324134 -4.51859e-21)
(0.995964 -0.30698 -4.27862e-21)
(0.909691 -0.281995 4.12285e-21)
(0.792181 -0.248021 3.75587e-24)
(0.645495 -0.204921 8.08839e-21)
(0.475396 -0.153618 0)
(0.290032 -0.0956533 -8.54572e-21)
(0.0976435 -0.0326833 -3.46037e-24)
(1.0011 0.00937017 0)
(1.00508 0.0341461 -1.88111e-20)
(1.01091 0.0680291 0)
(1.01279 0.115368 -1.9029e-20)
(0.996605 0.186461 -1.96191e-20)
(0.936975 0.300104 2.15958e-20)
(0.697867 0.427532 0)
(0.781543 0.45621 -7.35648e-22)
(0.317524 0.347053 2.25344e-20)
(0.423504 0.460235 -2.05167e-20)
(0.0424244 -0.0479043 0)
(0.0315014 0.00655187 0)
(0.171051 0.148923 -1.18236e-20)
(0.192956 0.234691 1.16192e-20)
(0.0396079 -0.079696 -1.46588e-20)
(0.105257 -0.0314566 5.03504e-22)
(0.214986 -0.0603495 1.32192e-23)
(0.0816652 -0.0223709 -4.06315e-23)
(0.199685 -0.0545328 8.52403e-22)
(0.332606 -0.0930464 -3.62602e-21)
(0.481064 -0.136074 -3.31279e-21)
(0.676393 -0.195305 -7.87955e-21)
(0.461474 -0.12741 2.03822e-22)
(0.307996 -0.0844142 0)
(0.175231 -0.0473092 7.12184e-24)
(0.185113 -0.0498591 -1.41874e-23)
(0.868154 -0.263177 -6.65864e-21)
(0.987044 -0.304057 1.27071e-23)
(1.05509 -0.326255 -1.00718e-23)
(1.08804 -0.336315 -7.97344e-25)
(1.09646 -0.337769 8.73359e-24)
(1.08477 -0.332974 -1.71154e-23)
(1.05197 -0.322504 4.10119e-21)
(0.993892 -0.30547 -3.90775e-21)
(0.906371 -0.280445 7.35838e-24)
(0.787898 -0.246427 -1.46701e-20)
(0.640827 -0.203367 7.39341e-21)
(0.471128 -0.152252 0)
(0.286981 -0.0946758 -3.71971e-24)
(0.0964736 -0.0323174 3.47897e-24)
(1.00101 0.00791576 0)
(1.0057 0.0300993 1.08175e-21)
(1.01416 0.0617549 0)
(1.02285 0.106854 1.93014e-20)
(1.02408 0.175051 3.63347e-20)
(1.00575 0.287906 -4.79515e-21)
(0.897099 0.541723 -5.50726e-21)
(0.559198 0.550804 0)
(0.692147 0.605657 1.0472e-20)
(0.0640688 0.189817 2.70098e-21)
(0.0999322 0.247259 0)
(0.206519 0.346948 -1.28315e-21)
(0.148526 0.300227 -8.99765e-22)
(0.0310282 0.0676025 -3.74673e-22)
(0.0411336 0.128487 0)
(0.0696697 -0.0176527 0)
(0.0646029 -0.016191 -5.48642e-22)
(0.165091 -0.0433227 9.77001e-22)
(0.159014 -0.0416198 -7.43004e-24)
(0.290833 -0.0770687 3.73258e-21)
(0.44389 -0.121021 -3.26653e-24)
(0.6349 -0.17914 5.56664e-21)
(0.429758 -0.116005 -3.22156e-21)
(0.278231 -0.0729779 2.25038e-21)
(0.147463 -0.0383971 0)
(0.152125 -0.0395358 -9.50974e-22)
(0.0566499 -0.014251 -2.67231e-25)
(0.0601317 -0.0149812 2.66531e-25)
(0.83008 -0.245606 6.20601e-21)
(0.960328 -0.289654 -6.96945e-25)
(1.03962 -0.317151 -8.65594e-24)
(1.08061 -0.33074 -4.57587e-21)
(1.0934 -0.334349 -1.67407e-23)
(1.08332 -0.33076 -4.00619e-21)
(1.05043 -0.320843 3.84579e-24)
(0.991443 -0.303967 3.65195e-24)
(0.902818 -0.278927 1.02637e-20)
(0.783499 -0.244873 1.16545e-22)
(0.636143 -0.201854 2.94059e-25)
(0.466917 -0.150928 3.2117e-24)
(0.284025 -0.0937319 3.24671e-25)
(0.0953529 -0.0319657 0)
(1.00091 0.00639609 0)
(1.00607 0.0256535 2.67439e-20)
(1.01634 0.0544141 0)
(1.02982 0.0960191 0)
(1.04277 0.158544 -2.46896e-21)
(1.05141 0.258678 -1.60436e-20)
(1.04915 0.490109 7.60244e-21)
(0.767639 0.689923 -1.77068e-22)
(0.960578 0.742692 2.47329e-21)
(0.277325 0.469764 -3.71218e-21)
(0.432865 0.581243 7.57324e-21)
(0.654758 0.680483 0)
(0.549091 0.631295 -3.01836e-21)
(0.0533 -0.0132366 0)
(0.0513076 -0.01277 5.77584e-25)
(0.14249 -0.0363435 -2.37535e-23)
(0.13971 -0.0355594 -9.93525e-22)
(0.268177 -0.069497 -7.44547e-22)
(0.415667 -0.111835 5.05639e-23)
(0.597077 -0.165962 -6.9118e-21)
(0.40318 -0.107679 0)
(0.259569 -0.0671719 2.91266e-21)
(0.134038 -0.0340145 1.0076e-21)
(0.136296 -0.0346117 3.92203e-24)
(0.0474645 -0.0118554 2.38623e-24)
(0.0491739 -0.0122064 6.06167e-22)
(0.79295 -0.229246 -1.20046e-23)
(0.934126 -0.277671 -1.96572e-23)
(1.02412 -0.308848 4.73185e-21)
(1.07247 -0.325266 0)
(1.08946 -0.330879 8.00947e-24)
(1.08113 -0.328495 3.42808e-24)
(1.04837 -0.319158 0)
(0.988649 -0.302469 -3.25531e-21)
(0.899064 -0.277435 -3.08145e-21)
(0.779008 -0.243357 -6.18314e-21)
(0.631466 -0.200385 2.66908e-25)
(0.462787 -0.149643 -6.15908e-24)
(0.281161 -0.0928212 6.80247e-21)
(0.0942776 -0.0316266 -2.66771e-24)
(1.00082 0.00484784 0)
(1.00625 0.0209793 -8.71515e-21)
(1.01768 0.0464312 0)
(1.03435 0.0839102 1.45769e-20)
(1.05467 0.139758 -1.47163e-20)
(1.07982 0.225169 0)
(1.12092 0.403719 -1.29318e-20)
(1.17699 0.627731 -1.42077e-21)
(0.458083 0.471497 0)
(0.596524 0.475987 -5.55107e-21)
(0.380328 0.323758 4.28106e-21)
(0.806501 0.496108 -3.31965e-23)
(0.0994867 0.200072 0)
(0.252927 0.34643 0)
(0.344117 0.370121 0)
(0.0458468 -0.0113318 -1.25292e-21)
(0.0449655 -0.0111169 5.38383e-24)
(0.131217 -0.0330967 1.00323e-21)
(0.129633 -0.0325991 1.01124e-21)
(0.251723 -0.0648186 2.13475e-21)
(0.389324 -0.104089 0)
(0.555259 -0.151325 1.52077e-21)
(0.374672 -0.0992928 0)
(0.244158 -0.0628616 -6.51756e-22)
(0.125768 -0.0316608 -9.87804e-22)
(0.127333 -0.032149 1.98496e-21)
(0.0431776 -0.0106765 0)
(0.043968 -0.0108627 -3.08165e-25)
(0.75874 -0.216612 -4.35912e-23)
(0.910493 -0.267427 1.9988e-23)
(1.00907 -0.301117 0)
(1.06378 -0.319953 -3.66298e-24)
(1.08474 -0.327413 -3.57402e-21)
(1.07828 -0.326195 -3.42192e-24)
(1.04583 -0.317451 3.14247e-21)
(0.985544 -0.300976 -2.97904e-21)
(0.895128 -0.275972 5.70204e-21)
(0.774444 -0.24188 -2.86945e-24)
(0.62681 -0.198954 2.86803e-24)
(0.458747 -0.148398 -5.66037e-21)
(0.278393 -0.0919383 2.85912e-24)
(0.0932417 -0.0312993 5.35453e-21)
(1.00072 0.003297 0)
(1.0063 0.0161999 1.55784e-23)
(1.01841 0.0381163 -1.30324e-23)
(1.03704 0.0711907 -1.48003e-20)
(1.06178 0.120141 0)
(1.09668 0.192995 0)
(1.14937 0.321737 8.36294e-21)
(1.31742 0.539481 2.98006e-24)
(0.823473 0.262639 0)
(1.16703 0.393266 6.41539e-23)
(0.186407 0.213314 -1.30919e-22)
(0.208357 0.138824 0)
(0.610059 0.27979 5.42321e-23)
(0.23628 0.120364 5.53228e-21)
(0.0423255 -0.0104339 -6.39429e-22)
(0.0418347 -0.0102932 0)
(0.123601 -0.0311101 -9.55135e-25)
(0.122308 -0.0306468 1.05795e-23)
(0.236226 -0.060709 -1.31575e-21)
(0.35469 -0.0939918 -2.7731e-21)
(0.516835 -0.14003 0)
(0.32953 -0.0850755 -2.68508e-21)
(0.226583 -0.058311 1.01499e-23)
(0.119021 -0.0298561 5.51346e-24)
(0.120402 -0.0303451 3.66043e-24)
(0.0406279 -0.010009 0)
(0.0411906 -0.0101603 -6.31383e-22)
(0.731053 -0.206428 4.46488e-23)
(0.889456 -0.258416 1.7171e-23)
(0.994466 -0.293979 3.75322e-24)
(1.05467 -0.314843 3.63707e-21)
(1.07941 -0.323976 0)
(1.07487 -0.323871 -3.07919e-21)
(1.04286 -0.315724 0)
(0.982148 -0.299493 2.79337e-24)
(0.891027 -0.27454 2.68673e-24)
(0.769832 -0.24044 5.20056e-21)
(0.622208 -0.19756 -2.4059e-24)
(0.4548 -0.147181 0)
(0.275709 -0.0910835 -5.49108e-21)
(0.0922498 -0.0309842 4.80943e-21)
(1.00063 0.00176221 0)
(1.00626 0.0114032 0)
(1.0187 0.0296847 -1.52341e-23)
(1.03838 0.0582828 2.78403e-23)
(1.0656 0.10056 5.29305e-21)
(1.10538 0.162631 0)
(1.16146 0.257165 -3.38344e-21)
(1.33328 0.429142 0)
(1.34752 0.348239 -5.02486e-20)
(0.196257 0.0518408 4.78611e-21)
(0.658281 0.166768 0)
(0.312432 0.0778527 0)
(0.899782 0.166025 3.44616e-20)
(0.0399886 -0.00984977 -6.17306e-22)
(0.039563 -0.00971829 6.11763e-22)
(0.117072 -0.0294564 4.80448e-24)
(0.115576 -0.0289294 1.80167e-21)
(0.211142 -0.0544175 2.1166e-21)
(0.306363 -0.0800649 0)
(0.492271 -0.131824 0)
(0.294832 -0.0767363 0)
(0.176599 -0.0438837 0)
(0.110667 -0.0278265 1.72807e-21)
(0.113419 -0.0286483 -3.80204e-24)
(0.0385455 -0.00947593 5.93931e-22)
(0.0390315 -0.00961973 -5.82238e-25)
(0.708448 -0.198124 1.92795e-23)
(0.870361 -0.250487 -1.7411e-23)
(0.980282 -0.287379 -3.78314e-24)
(1.04526 -0.309939 3.29912e-21)
(1.07354 -0.320574 0)
(1.07094 -0.321525 -2.64316e-24)
(1.03949 -0.31399 0)
(0.978485 -0.298029 -4.7114e-24)
(0.88679 -0.273138 -4.78181e-21)
(0.765198 -0.239026 -1.99727e-25)
(0.617651 -0.196186 2.01532e-25)
(0.450945 -0.145995 4.92018e-21)
(0.273115 -0.0902551 0)
(0.091303 -0.0306825 -2.06023e-24)
(1.00054 0.0002569 0)
(1.00615 0.00664951 -7.96703e-21)
(1.01868 0.02128 0)
(1.03879 0.0454552 1.11854e-23)
(1.06716 0.0815246 -5.3874e-21)
(1.10854 0.133953 -3.23028e-21)
(1.16644 0.206739 -1.36876e-21)
(1.30583 0.330583 -2.94629e-23)
(1.48211 0.338829 3.57897e-20)
(1.03687 0.0986788 2.66372e-20)
(0.460714 0.0512745 4.70685e-22)
(0.179165 0.0101059 -1.05471e-20)
(0.605244 0.0137877 2.55177e-20)
(0.0379864 -0.00935249 3.33565e-24)
(0.0375019 -0.00920682 -1.14764e-21)
(0.10554 -0.0270458 -8.37186e-22)
(0.0971462 -0.0232939 4.18421e-22)
(0.151913 -0.0387358 5.98272e-22)
(0.286717 -0.0742227 0)
(0.474673 -0.126276 -1.45236e-21)
(0.281314 -0.0722481 0)
(0.145229 -0.0365501 -5.53175e-22)
(0.043197 -0.011708 -1.79256e-22)
(0.065254 -0.0121181 -2.62473e-22)
(0.0360328 -0.00888091 -5.52435e-22)
(0.0368921 -0.00910954 -5.64829e-22)
(0.689038 -0.191189 -4.7965e-21)
(0.852771 -0.243405 0)
(0.966443 -0.281242 -3.46806e-21)
(1.03559 -0.305217 0)
(1.06721 -0.317196 0)
(1.06654 -0.319171 2.6379e-24)
(1.03575 -0.312267 0)
(0.974584 -0.29659 9.02915e-24)
(0.882438 -0.271749 0)
(0.760544 -0.237623 -2.20767e-24)
(0.613157 -0.194836 -4.25474e-21)
(0.447188 -0.144837 2.26905e-24)
(0.270619 -0.0894551 0)
(0.090384 -0.0303896 2.06955e-24)
(1.00046 -0.00120815 0)
(1.006 0.00198171 1.60756e-20)
(1.01845 0.0129921 -7.24334e-21)
(1.03858 0.0328631 0)
(1.06724 0.063247 -1.84842e-23)
(1.10837 0.107149 3.30183e-21)
(1.16635 0.165344 1.42482e-21)
(1.27549 0.253058 5.94671e-21)
(1.47092 0.288881 3.18509e-23)
(1.41523 0.162699 -9.30448e-20)
(0.674206 -0.0334757 -9.21287e-20)
(0.370439 -0.0180187 3.90342e-20)
(0.317515 -0.0143952 0)
(0.0974338 -0.01641 9.92207e-21)
(0.231774 -0.0240994 1.43512e-20)
(0.0340722 -0.00869048 9.6253e-24)
(0.031567 -0.00827562 0)
(0.0376476 -0.00958377 -4.89904e-22)
(0.0350857 -0.00890568 -6.07238e-22)
(0.14159 -0.0354652 -6.01743e-22)
(0.275823 -0.0711077 2.48676e-21)
(0.46017 -0.122045 5.43405e-21)
(0.271904 -0.069751 0)
(0.138808 -0.0346825 5.56814e-22)
(0.0339992 -0.00833107 0)
(0.0343568 -0.00856163 5.75855e-22)
(0.0181743 -0.00320951 9.67869e-23)
(0.671914 -0.185099 0)
(0.836228 -0.236976 -6.96014e-24)
(0.952811 -0.275482 0)
(1.02568 -0.300617 0)
(1.06045 -0.313842 0)
(1.06172 -0.316845 2.3815e-21)
(1.03168 -0.310581 2.24491e-21)
(0.970476 -0.295159 -4.31959e-24)
(0.877984 -0.270357 0)
(0.75588 -0.236223 1.85865e-24)
(0.608728 -0.193505 4.02752e-21)
(0.443532 -0.143704 0)
(0.268192 -0.0886787 -2.02107e-24)
(0.0895069 -0.030109 1.73516e-24)
(1.00038 -0.00262303 8.31798e-21)
(1.00581 -0.00256868 -8.11346e-21)
(1.01807 0.00487689 7.36238e-21)
(1.03798 0.0205855 -6.13022e-21)
(1.0664 0.0457643 0)
(1.10639 0.0822867 7.37242e-24)
(1.16255 0.129805 0)
(1.25237 0.193799 -9.09214e-21)
(1.41459 0.231993 -1.18418e-23)
(1.52792 0.172529 7.97977e-21)
(1.20104 0.0308085 5.36711e-20)
(0.48173 -0.0736868 -7.81962e-20)
(0.193657 -0.028339 4.92434e-20)
(0.234956 -0.0473839 -2.01576e-20)
(0.117861 -0.0100322 0)
(0.159157 -0.0226056 1.44888e-23)
(0.0614077 -0.0134684 3.88378e-23)
(0.0335732 -0.00829826 5.48362e-22)
(0.0333876 -0.00817213 -5.39284e-22)
(0.136375 -0.0341266 5.34978e-22)
(0.267289 -0.0689355 -2.29267e-21)
(0.448021 -0.117923 1.20686e-21)
(0.263824 -0.0678598 -1.67576e-23)
(0.134308 -0.0335683 5.32588e-22)
(0.0328678 -0.0080354 -5.21684e-22)
(0.032992 -0.00814366 -2.05221e-24)
(0.65613 -0.179691 -4.15981e-21)
(0.820281 -0.231043 7.01593e-24)
(0.93922 -0.269942 -2.75324e-24)
(1.01549 -0.296082 0)
(1.05331 -0.310563 -2.38284e-21)
(1.05654 -0.314603 -2.20448e-21)
(1.02734 -0.308914 -3.86866e-24)
(0.966188 -0.29371 -3.64825e-24)
(0.873439 -0.26895 1.74752e-24)
(0.751227 -0.234829 -3.59214e-21)
(0.604366 -0.192189 -3.69704e-21)
(0.43997 -0.142603 1.75117e-24)
(0.265856 -0.0879296 1.71009e-25)
(0.0886649 -0.0298381 -3.33487e-24)
(1.00032 -0.00397709 -8.38637e-21)
(1.00558 -0.00697372 0)
(1.01758 -0.00302974 8.44244e-25)
(1.03714 0.0086539 3.3136e-23)
(1.06503 0.0290308 3.64206e-24)
(1.10355 0.0592093 0)
(1.15669 0.0983863 1.16235e-24)
(1.23454 0.147254 2.99653e-22)
(1.36064 0.18079 7.07173e-21)
(1.50814 0.154912 5.73485e-20)
(1.46377 0.0662259 0)
(0.995589 -0.0437522 5.65897e-20)
(0.400344 -0.0723724 -2.01538e-20)
(0.182901 -0.0369651 -2.64991e-22)
(0.170894 -0.0457045 4.67169e-21)
(0.0631699 -0.00911736 -1.94546e-22)
(0.0671841 -0.0146705 -1.21753e-20)
(0.0780103 -0.0153645 1.27988e-20)
(0.0826451 -0.0233668 1.30743e-20)
(0.022974 -0.00485978 0)
(0.0372832 -0.00983121 -9.334e-21)
(0.0324794 -0.00802083 -5.11149e-22)
(0.0323644 -0.00792059 -5.02458e-22)
(0.132195 -0.0331242 1.51798e-21)
(0.26024 -0.0674469 -2.16792e-21)
(0.436549 -0.114518 5.88474e-21)
(0.258215 -0.0658381 -1.8357e-21)
(0.130074 -0.0326619 0)
(0.0319046 -0.00780042 1.91297e-24)
(0.0320095 -0.00790402 -9.88342e-22)
(0.640999 -0.174705 -3.91744e-21)
(0.804504 -0.225354 -3.17207e-21)
(0.925461 -0.264445 2.7608e-24)
(1.00505 -0.291671 -4.57671e-24)
(1.04589 -0.307478 -3.19916e-25)
(1.05111 -0.312427 2.03781e-21)
(1.02278 -0.307226 3.86361e-24)
(0.961729 -0.29223 3.64352e-24)
(0.868823 -0.267529 1.72751e-21)
(0.746583 -0.233438 3.29464e-21)
(0.600088 -0.190898 0)
(0.436517 -0.141531 -1.75309e-24)
(0.263597 -0.0872034 1.85772e-24)
(0.0878563 -0.0295786 -3.21122e-21)
(1.00025 -0.00525669 0)
(1.0053 -0.0112041 2.12717e-24)
(1.01698 -0.0106998 0)
(1.03612 -0.0029306 6.30905e-21)
(1.06338 0.0129663 4.69993e-21)
(1.10038 0.0376463 -5.06629e-24)
(1.15018 0.0700993 0)
(1.21934 0.108899 2.75729e-21)
(1.32016 0.137753 -1.37098e-20)
(1.45024 0.127333 -2.67225e-20)
(1.52724 0.0734058 6.38477e-23)
(1.34695 -0.0112684 0)
(0.844657 -0.0814493 -1.19074e-22)
(0.355707 -0.066358 -7.91869e-20)
(0.170259 -0.0310124 -5.51359e-22)
(0.175183 -0.0402145 3.1854e-20)
(0.0914368 -0.0192832 -1.53533e-22)
(0.0872713 -0.0209425 0)
(0.0755553 -0.0176018 -5.58513e-21)
(0.0620161 -0.0204851 0)
(0.011231 -0.00230196 7.98892e-21)
(0.0136303 -0.00395536 0)
(0.0170722 -0.00435364 -6.3427e-23)
(0.0147062 -0.00641068 -8.14368e-21)
(0.0315388 -0.00779366 4.73953e-22)
(0.0314251 -0.00769367 -4.67532e-22)
(0.128172 -0.0324094 2.28612e-21)
(0.253568 -0.0646041 -4.4598e-22)
(0.425745 -0.111456 5.46614e-21)
(0.250924 -0.0636886 -2.18534e-21)
(0.15824 -0.0420638 0)
(0.158439 -0.040927 5.5983e-22)
(0.0309083 -0.00758842 -1.75302e-24)
(0.0310485 -0.00767516 -4.57422e-22)
(0.625791 -0.16985 3.65038e-21)
(0.78826 -0.21956 0)
(0.911505 -0.259001 0)
(0.994543 -0.28764 4.58733e-24)
(1.0384 -0.304557 -2.05703e-21)
(1.04551 -0.310256 1.88402e-21)
(1.018 -0.305505 0)
(0.957119 -0.290722 -1.62672e-21)
(0.864152 -0.266098 0)
(0.741978 -0.232055 0)
(0.595904 -0.18963 0)
(0.433162 -0.140488 -3.21772e-21)
(0.261416 -0.0865025 3.24823e-21)
(0.0870774 -0.0293294 -2.80665e-24)
(1.00019 -0.0064448 0)
(1.00498 -0.0152236 -4.21882e-24)
(1.01626 -0.0181024 3.62712e-24)
(1.03496 -0.0141777 0)
(1.0616 -0.0025331 -9.68631e-21)
(1.09721 0.0172984 2.8214e-21)
(1.14388 0.0442386 1.48487e-24)
(1.20595 0.0759609 0)
(1.2903 0.101306 6.55132e-21)
(1.39621 0.099027 -1.13289e-23)
(1.49814 0.0650859 0)
(1.4944 0.00613282 -1.3408e-22)
(1.22581 -0.0644741 -4.20961e-20)
(0.741407 -0.0964641 6.03824e-20)
(0.334589 -0.0640533 -9.37274e-20)
(0.157074 -0.0294838 3.29942e-20)
(0.157948 -0.0352466 -1.29106e-22)
(0.0622049 -0.013302 -6.76997e-21)
(0.090114 -0.0207579 -1.00602e-20)
(0.090012 -0.0227394 9.89614e-21)
(0.04371 -0.0101965 -1.32747e-22)
(0.0415679 -0.00935567 0)
(0.0252759 -0.00341242 3.82125e-21)
(0.0121812 -0.00412961 -8.45205e-21)
(0.0305869 -0.00756301 -4.47448e-22)
(0.0303639 -0.00758356 -4.37361e-22)
(0.0938612 -0.0252805 -6.05008e-22)
(0.157312 -0.0398722 5.68501e-22)
(0.15679 -0.0393583 0)
(0.247806 -0.0632172 3.33077e-24)
(0.414627 -0.108331 -9.67534e-22)
(0.245252 -0.06233 -1.62647e-21)
(0.155951 -0.0391379 5.51693e-22)
(0.155293 -0.0388796 5.47483e-22)
(0.0940161 -0.0241875 -1.00466e-21)
(0.609248 -0.164678 0)
(0.771332 -0.213344 0)
(0.897734 -0.254215 0)
(0.984358 -0.283934 7.95217e-24)
(1.03093 -0.301707 -1.89367e-21)
(1.03972 -0.308076 0)
(1.01303 -0.303758 0)
(0.952391 -0.289193 0)
(0.859454 -0.264656 0)
(0.737424 -0.230682 0)
(0.591811 -0.188387 5.64102e-21)
(0.4299 -0.139473 -1.35703e-24)
(0.259308 -0.0858282 -3.14197e-21)
(0.0863323 -0.0290893 2.71286e-21)
(1.00013 -0.0075187 4.66203e-24)
(1.00458 -0.0189835 8.88742e-24)
(1.01538 -0.0251953 4.21915e-24)
(1.03362 -0.0250919 -3.60139e-24)
(1.05973 -0.0175712 1.01609e-20)
(1.09422 -0.00213288 -5.90241e-21)
(1.13824 0.0202064 0)
(1.19446 0.0467712 0)
(1.26714 0.0694677 -5.17288e-21)
(1.35489 0.0726233 0)
(1.44718 0.0506979 -1.19991e-20)
(1.51061 0.0100346 0)
(1.43601 -0.0465139 3.74907e-20)
(1.11907 -0.0967147 -8.53018e-23)
(0.672897 -0.100973 6.00223e-20)
(0.31956 -0.0625586 -3.59451e-20)
(0.161404 -0.0318442 -7.01243e-22)
(0.157583 -0.0350214 6.15674e-20)
(0.0585023 -0.013369 -2.85936e-20)
(0.0570889 -0.0136097 6.98581e-21)
(0.0113119 -0.00241778 6.37181e-21)
(0.0451958 -0.0113841 -1.61087e-22)
(0.0114537 -0.00354766 0)
(0.0449524 -0.0116394 -8.36473e-21)
(0.0107399 -0.00304898 -5.97794e-21)
(0.0108572 -0.00308373 -5.91589e-21)
(0.00647321 -0.000874326 4.55601e-21)
(0.0306483 -0.00796153 4.23717e-22)
(0.0923711 -0.023225 1.95298e-24)
(0.091797 -0.0228401 -4.99376e-22)
(0.15436 -0.0388022 5.34033e-22)
(0.153695 -0.038589 5.23231e-22)
(0.242091 -0.0617502 0)
(0.401096 -0.104674 -1.0095e-21)
(0.239019 -0.0606732 1.50589e-21)
(0.152777 -0.0384307 4.97256e-25)
(0.152039 -0.03814 -4.98002e-25)
(0.0913585 -0.022692 -9.79395e-22)
(0.0909732 -0.0225694 -4.88218e-22)
(0.0306182 -0.00769735 3.72748e-22)
(0.589833 -0.157995 0)
(0.754756 -0.208188 0)
(0.884981 -0.249961 8.45589e-24)
(0.974615 -0.280397 1.94564e-21)
(1.02346 -0.298912 0)
(1.03377 -0.305899 2.99075e-24)
(1.0079 -0.30199 0)
(0.947573 -0.287641 1.39933e-21)
(0.854752 -0.263211 -1.34604e-21)
(0.732933 -0.229325 -2.55574e-21)
(0.587816 -0.187172 2.64612e-21)
(0.426733 -0.13849 2.59513e-21)
(0.257275 -0.0851762 -2.72689e-21)
(0.0856108 -0.0288564 -2.25137e-24)
(1.00006 -0.00844864 0)