/*--------------------------------*- C++ -*----------------------------------*\
| =========                 |                                                 |
| \\      /  F ield         | OpenFOAM: The Open Source CFD Toolbox           |
|  \\    /   O peration     | Version:  v1912                                 |
|   \\  /    A nd           | Website:  www.openfoam.com                      |
|    \\/     M anipulation  |                                                 |
\*---------------------------------------------------------------------------*/
FoamFile
{
    version     2.0;
    format      ascii;
    class       volVectorField;
    location    "280";
    object      U;
}
// * * * * * * * * * * * * * * * * * * * * * * * * * * * * * * * * * * * * * //

dimensions      [0 1 -1 0 0 0 0];


internalField   nonuniform List<vector> 
3754
(
(0.995633 0.00295825 9.18715e-23)
(0.996038 0.00861581 0)
(0.950793 0.0118309 1.43953e-22)
(0.996666 0.0135888 0)
(0.955788 0.0334336 0)
(0.812845 0.0379957 -1.90054e-21)
(0.997173 0.0174497 0)
(0.965262 0.0511791 -1.1106e-20)
(0.842212 0.0991527 1.26109e-22)
(0.515371 0.0518895 1.0432e-21)
(0.531988 0.146989 8.98643e-22)
(0.997537 0.0199991 -1.50222e-22)
(0.977291 0.0634175 1.10483e-20)
(0.893061 0.145295 0)
(0.578812 0.23785 8.12071e-22)
(0.64664 0.306601 -3.41995e-21)
(0.117804 0.102269 -2.12303e-22)
(0.111635 0.0344411 2.17721e-22)
(0.158621 0.226509 0)
(0.132321 0.167248 0)
(0.997872 0.0213462 0)
(0.988767 0.0708074 4.63863e-22)
(0.935263 0.166952 0)
(0.71923 0.356812 2.56719e-21)
(0.802309 0.38086 -3.76012e-21)
(0.250674 0.313603 -1.09028e-22)
(0.198149 0.277146 2.1897e-21)
(0.479238 0.477546 -6.47654e-22)
(0.345716 0.411226 0)
(0.998253 0.0217434 0)
(0.997895 0.0742226 0)
(0.964798 0.167231 -1.49213e-22)
(0.955529 0.447601 -9.48439e-21)
(0.663087 0.551191 8.36492e-22)
(0.576421 0.518627 -7.72541e-22)
(0.780153 0.506308 0)
(0.296345 0.331705 -2.50076e-21)
(0.132976 0.204035 5.48186e-21)
(0.998674 0.0214413 0)
(1.00444 0.0744308 -6.17538e-23)
(0.987868 0.15798 0)
(1.0642 0.423567 1.2012e-20)
(0.891179 0.319152 -1.18318e-21)
(1.06407 0.388554 3.65058e-21)
(0.557534 0.401517 1.00255e-21)
(0.399242 0.343419 -9.10137e-22)
(0.757605 0.37876 -1.99449e-21)
(0.534404 0.27207 1.70759e-21)
(0.999085 0.0206245 -1.32793e-23)
(1.00893 0.072109 0)
(1.00691 0.146297 5.51431e-23)
(1.10771 0.371809 0)
(1.19023 0.309632 -2.2332e-21)
(0.631029 0.0925957 -7.08498e-21)
(0.545526 0.146013 2.12338e-21)
(0.922373 0.143588 7.66432e-21)
(0.24096 0.150313 0)
(0.250405 0.0824994 0)
(0.999445 0.0194103 2.49296e-20)
(1.01203 0.0678739 1.44116e-23)
(1.02259 0.134176 1.75948e-23)
(1.12062 0.315003 -5.85375e-21)
(1.28804 0.299687 0)
(1.01819 0.142167 1.53294e-20)
(0.424637 0.0225071 -4.31685e-22)
(0.272092 0.0193281 1.75046e-22)
(0.37587 0.0484121 -1.38554e-22)
(0.726648 0.0702476 0)
(0.133682 0.00951414 -2.97704e-23)
(0.999737 0.0178805 -2.45546e-20)
(1.01427 0.0622714 0)
(1.03472 0.121796 0)
(1.12351 0.265596 1.07417e-20)
(1.30485 0.275524 8.82251e-24)
(1.27006 0.177953 -1.44816e-20)
(0.82801 0.0511976 -1.54463e-20)
(0.58121 0.053387 4.02467e-21)
(0.202061 0.00143885 1.68292e-22)
(0.324029 0.0206573 -3.60397e-21)
(0.187016 0.00516122 3.35659e-22)
(0.0827241 0.00206359 7.03612e-23)
(0.999959 0.0161017 0)
(1.01598 0.0557228 -2.22045e-20)
(1.04353 0.109039 0)
(1.12448 0.223719 -4.79817e-21)
(1.29066 0.246173 0)
(1.35956 0.186439 -2.28482e-20)
(1.15923 0.103432 4.06993e-20)
(0.738003 0.0233105 -3.07076e-20)
(0.465619 0.0147604 0)
(0.495469 0.0169014 1.62415e-23)
(0.0584834 -0.000852891 -1.56478e-22)
(0.268417 0.00405131 -2.02697e-22)
(0.139544 0.00727512 6.62671e-22)
(0.15938 0.00394341 -1.69413e-22)
(0.0578409 0.000227168 -9.73225e-23)
(1.00012 0.0141246 2.34064e-24)
(1.01733 0.0485088 4.16806e-20)
(1.04976 0.0959028 1.46804e-20)
(1.1253 0.187558 0)
(1.2701 0.215183 -3.71798e-24)
(1.37065 0.180032 2.07341e-21)
(1.32156 0.129907 -2.48606e-20)
(1.06861 0.0678426 2.77577e-20)
(0.701683 0.0201418 -3.83749e-21)
(0.452023 0.00912012 4.36028e-22)
(0.447537 0.00336896 -4.38923e-22)
(0.254066 0.00303538 -4.11503e-22)
(0.1214 -0.00125137 -6.09979e-22)
(0.119386 0.00210237 1.05004e-21)
(0.0413603 0.000821364 1.50539e-24)
(0.049713 0.000176764 -1.49117e-24)
(1.00022 0.0119865 0)
(1.01847 0.0408014 -1.95509e-20)
(1.05418 0.0824932 -1.44461e-20)
(1.12598 0.15585 2.16046e-21)
(1.25203 0.185543 0)
(1.35464 0.165852 2.1834e-20)
(1.37425 0.13723 0)
(1.26819 0.0985957 -5.93021e-24)
(1.0067 0.0522555 2.80567e-20)
(0.672443 0.021239 3.85037e-21)
(0.454616 0.00971107 6.6455e-21)
(0.455939 0.00644907 0)
(0.270576 0.00285821 -5.73216e-21)
(0.251759 -0.000598118 -3.12853e-24)
(0.114349 0.00192452 2.86371e-22)
(0.115662 -0.000755029 5.81109e-22)
(0.0355147 -0.000507081 8.70023e-23)
(0.0361634 0.000261561 -1.68701e-22)
(1.00027 0.00971418 0)
(1.0195 0.0327065 1.62701e-24)
(1.05738 0.0688911 0)
(1.12658 0.127466 -2.28782e-21)
(1.2382 0.158019 4.48078e-24)
(1.33425 0.149642 0)
(1.37705 0.134052 -5.50071e-24)
(1.35464 0.113607 0)
(1.21949 0.0815603 -2.50742e-20)
(0.957662 0.0467483 0)
(0.641197 0.0211505 1.64214e-20)
(0.438634 0.00831172 -4.22604e-22)
(0.445045 0.0082617 -6.18615e-21)
(0.296063 0.00362586 -1.03163e-21)
(0.292942 0.00179842 -3.37232e-22)
(0.151463 0.0041353 1.6677e-20)
(0.131703 -0.00161055 0)
(0.113382 -0.00160394 0)
(0.120396 0.000345075 -2.22107e-21)
(0.0346298 0.000271636 -1.61384e-22)
(0.0352534 -0.000243231 0)
(1.00027 0.00732127 0)
(1.0205 0.0242839 0)
(1.05981 0.0551332 -8.94107e-21)
(1.12731 0.101442 0)
(1.22834 0.132267 0)
(1.3168 0.133426 -3.90613e-20)
(1.36432 0.1268 0)
(1.37675 0.117727 2.26921e-20)
(1.32913 0.100194 0)
(1.17406 0.0733227 2.47768e-20)
(0.915465 0.0438425 0)
(0.346326 0.00541075 -2.00435e-20)
(0.613464 0.0207275 -1.60696e-20)
(0.28551 0.0020402 -1.051e-21)
(0.292177 0.00359202 -3.44725e-22)
(0.181166 0.00176611 0)
(0.180758 0.000946071 3.12227e-21)
(0.172173 -0.000316416 1.89967e-24)
(0.179112 0.00103096 -1.22812e-22)
(0.0674306 0.00386172 -1.60631e-20)
(0.0446788 -0.00052568 1.56479e-21)
(0.0347129 -0.000378236 0)
(0.038671 -7.45311e-05 7.04103e-24)
(1.00023 0.00481281 4.6265e-25)
(1.02156 0.0155618 0)
(1.06179 0.04125 8.64485e-21)
(1.12849 0.0769809 0)
(1.22211 0.107873 2.13966e-20)
(1.30378 0.117516 3.94774e-20)
(1.35015 0.11831 -4.4663e-20)
(1.37276 0.116348 -6.88829e-20)
(1.36813 0.108795 0)
(1.29946 0.0932494 -2.33462e-20)
(1.13204 0.0689086 0)
(0.878822 0.0424739 2.69346e-20)
(0.328261 0.00516344 1.82494e-20)
(0.127397 0.00189384 3.09863e-21)
(0.129889 -0.00068085 -9.14675e-22)
(0.595135 0.0223809 -3.10212e-20)
(0.172009 0.000450887 1.04091e-21)
(0.173886 0.00115524 5.10072e-22)
(0.178826 0.00112442 -1.25753e-22)
(0.177801 0.00171251 1.13971e-21)
(0.104636 0.000515095 0)
(0.104808 0.000316113 -8.59262e-22)
(0.0979396 -0.000300358 3.27528e-21)
(0.103097 0.000266952 -8.40266e-22)
(0.0187098 0.00102418 4.34515e-21)
(1.00016 0.00218104 0)
(1.02275 0.00654966 -1.41826e-20)
(1.06349 0.0272437 -6.73209e-21)
(1.13039 0.0533482 -2.86106e-24)
(1.21939 0.0844743 -2.04272e-20)
(1.29527 0.101991 -9.88519e-24)
(1.33883 0.10957 4.41947e-20)
(1.36222 0.112796 1.30122e-22)
(1.37273 0.111288 0)
(1.35286 0.104449 0)
(1.26807 0.0894478 0)
(1.09383 0.0664758 -2.3789e-20)
(0.848167 0.0428395 2.63351e-20)
(0.33268 0.0067276 -1.70046e-23)
(0.123042 0.00168744 0)
(0.121544 -0.000521435 -1.03091e-22)
(0.0291332 0.000421963 1.59036e-22)
(0.0293485 3.23445e-05 0)
(0.0299041 8.25346e-05 8.00666e-23)
(0.0299812 -0.000503766 0)
(0.0989771 -0.000408265 0)
(0.578073 0.0212905 -1.54716e-20)
(0.100972 0.000635971 -4.36194e-22)
(0.103294 0.000366242 2.1583e-22)
(0.10256 0.000526381 0)
(0.0332125 2.3829e-05 0)
(0.0334217 9.1073e-06 0)
(0.0315253 -0.000574466 -2.22447e-21)
(0.0328156 -8.40807e-05 5.64257e-22)
(1.00008 -0.000590867 3.1017e-20)
(1.02415 -0.00274001 2.76965e-20)
(1.06502 0.0130789 6.52061e-21)
(1.13326 0.0297978 -2.9234e-24)
(1.22021 0.0617129 9.60163e-24)
(1.29126 0.0868934 -1.63623e-23)
(1.33133 0.100995 4.30576e-20)
(1.3525 0.108632 4.50838e-20)
(1.36567 0.111049 -4.60218e-20)
(1.36595 0.109424 0)
(1.33343 0.102375 2.65599e-24)
(1.23705 0.0870851 2.64818e-24)
(1.05968 0.065368 0)
(0.820598 0.0408781 3.21496e-24)
(0.331263 0.0074684 1.27579e-20)
(0.159305 0.000895344 -3.70267e-22)
(0.137826 0.00103252 6.73223e-21)
(0.0296135 0.000430906 -1.39083e-21)
(0.0276226 -0.000131949 8.13561e-23)
(0.0279403 2.27951e-05 -7.87664e-23)
(0.0279111 -0.000391749 7.89613e-23)
(0.0311421 -0.000282991 -1.83062e-23)
(0.556115 0.0202446 -1.50977e-20)
(0.0320513 6.80834e-05 1.81359e-23)
(0.0327904 8.67393e-06 -1.5352e-22)
(0.0325701 3.70371e-05 9.08479e-24)
(1.00001 -0.00352709 -3.05451e-20)
(1.02581 -0.012281 -4.10837e-20)
(1.06632 -0.00132581 0)
(1.13733 0.0055995 0)
(1.22472 0.0392531 -3.96052e-24)
(1.29183 0.0722625 3.56581e-20)
(1.3279 0.0927823 -4.20121e-20)
(1.34575 0.104496 0)
(1.35712 0.109932 4.54452e-20)
(1.36269 0.111301 2.72875e-24)
(1.35457 0.109121 0)
(1.31228 0.101099 -2.14186e-20)
(1.20756 0.0854954 -2.66806e-24)
(1.02859 0.0628092 2.27402e-20)
(0.792505 0.0388907 0)
(0.31624 0.00702118 1.89337e-20)
(0.157201 0.00301229 0)
(0.16022 0.00114024 6.78563e-21)
(0.0773688 0.000255086 0)
(0.072298 0.000122338 5.50075e-23)
(0.049605 0.0029151 -5.64845e-21)
(0.0335495 -0.000600913 1.61244e-21)
(0.534009 0.019161 0)
(1.00001 -0.00664961 0)
(1.02772 -0.0220066 2.69024e-20)
(1.0672 -0.0160995 0)
(1.14283 -0.0200001 0)
(1.23324 0.0167993 -6.83837e-24)
(1.29714 0.0581585 -7.02792e-20)
(1.32869 0.0850641 4.23166e-20)
(1.34257 0.100672 -1.08563e-23)
(1.35061 0.108737 0)
(1.35545 0.112072 5.51471e-24)
(1.35525 0.112427 -2.72321e-24)
(1.34093 0.109119 2.12224e-20)
(1.29088 0.100026 0)
(1.17971 0.08289 -2.09309e-20)
(0.998523 0.0600688 -2.21371e-20)
(0.765545 0.0370865 0)
(0.300406 0.00625638 -7.92862e-24)
(0.146983 0.00277977 -2.8345e-21)
(0.150722 0.000706494 -3.75703e-22)
(0.0738294 0.00102925 1.17652e-22)
(0.0751567 0.000423655 2.35949e-22)
(0.0770037 0.000620128 -2.33649e-22)
(0.0772767 0.000139211 -9.27656e-22)
(0.0244582 -4.40555e-05 0)
(0.0232203 -0.000502199 0)
(0.0137454 0.000831662 0)
(0.515097 0.0179513 0)
(1.00016 -0.00996086 -3.26048e-20)
(1.02976 -0.031798 -2.8644e-20)
(1.06731 -0.0314643 1.08008e-20)
(1.15013 -0.0478581 -6.07209e-21)
(1.2463 -0.00593393 2.22909e-20)
(1.30752 0.0446615 3.46179e-20)
(1.33393 0.0779815 -4.12453e-20)
(1.34323 0.0973397 1.04685e-23)
(1.34726 0.107815 1.08566e-23)
(1.34918 0.11268 0)
(1.34947 0.114349 -2.61698e-24)
(1.34562 0.113434 -4.23682e-20)
(1.3264 0.108885 4.08714e-20)
(1.26971 0.0980153 1.99741e-20)
(1.1526 0.079928 4.05614e-20)
(0.969993 0.0575542 0)
(0.741562 0.0352618 2.39717e-20)
(0.287669 0.00569752 4.05502e-21)
(0.138332 0.00247885 0)
(0.141207 0.000375446 1.86497e-22)
(0.0683142 0.000945863 0)
(0.0693983 0.000258625 1.15479e-22)
(0.070869 0.000553755 0)
(0.0716092 -6.46078e-05 -2.32784e-22)
(0.0230636 0.000115044 -6.80854e-23)
(0.0237503 -5.93178e-06 -1.02149e-22)
(0.0244548 7.47671e-05 1.0229e-22)
(0.0246433 -4.59572e-06 0)
(0.502336 0.0179152 -2.75961e-20)
(1.00051 -0.0134226 3.21044e-20)
(1.0316 -0.0414986 2.79894e-20)
(1.06623 -0.0478293 9.00969e-22)
(1.15999 -0.0790088 5.7714e-21)
(1.26491 -0.029206 -6.86727e-20)
(1.32361 0.0318595 0)
(1.34405 0.0716836 9.40109e-25)
(1.34807 0.094664 0)
(1.34755 0.107368 4.49257e-20)
(1.34566 0.113541 4.46379e-20)
(1.34352 0.115971 0)
(1.34144 0.116081 4.19819e-20)
(1.33511 0.113891 -8.12616e-20)
(1.31148 0.107696 -1.96635e-20)
(1.2485 0.0954349 -1.93133e-20)
(1.12652 0.0770789 0)
(0.943934 0.0551175 -2.0918e-20)
(0.721528 0.0342815 2.32883e-20)
(0.284843 0.00602904 0)
(0.132064 0.00239598 -5.89156e-21)
(0.133628 0.000270081 0)
(0.0640339 0.000851943 0)
(0.0648535 0.000180572 -1.14092e-22)
(0.0659848 0.000472599 -1.1443e-22)
(0.0665191 -0.000167885 0)
(0.0212196 0.000104832 0)
(0.0217802 -3.09864e-05 6.70685e-23)
(0.0222989 7.78855e-05 0)
(0.0224256 -4.10263e-05 1.34896e-22)
(0.493433 0.0171265 2.68731e-20)
(1.00108 -0.0169409 -3.57846e-20)
(1.03272 -0.0509611 -3.15167e-20)
(1.06376 -0.0658854 -1.1012e-20)
(1.17387 -0.114709 3.59359e-21)
(1.29063 -0.0532123 -6.23323e-21)
(1.34643 0.0198776 -7.88621e-20)
(1.35975 0.0663413 -4.35203e-20)
(1.35759 0.0928131 -1.05444e-23)
(1.35192 0.10756 -4.41264e-20)
(1.34564 0.114859 -4.40389e-20)
(1.33991 0.11779 1.03298e-23)
(1.3359 0.118258 -4.18201e-20)
(1.33269 0.116994 -4.77318e-23)
(1.32418 0.113371 -2.42578e-24)
(1.29611 0.105778 0)
(1.22757 0.0927499 0)
(1.10211 0.0742781 0)
(0.920677 0.0531848 0)
(0.704581 0.0327632 2.26151e-20)
(0.289387 0.00598924 -2.94872e-20)
(0.140194 0.00309127 3.51719e-22)
(0.131922 -0.000183011 2.53557e-21)
(0.0608352 0.000801755 -4.46393e-22)
(0.0611564 0.000160384 0)
(0.0621181 0.00045317 0)
(0.0625136 -0.000167735 -1.11765e-22)
(0.0198526 9.52948e-05 0)
(0.0203008 -3.68676e-05 0)
(0.0206953 7.34356e-05 3.30905e-23)
(0.0207355 -5.20241e-05 -3.28869e-23)
(0.482281 0.0164458 2.62017e-20)
(1.00182 -0.020378 3.52149e-20)
(1.03253 -0.0601225 -2.76121e-21)
(1.06029 -0.0865857 2.83704e-24)
(1.19378 -0.156328 -3.38282e-21)
(1.32513 -0.0779875 4.8806e-20)
(1.37694 0.00894131 -7.37636e-21)
(1.38171 0.0621696 4.2213e-20)
(1.3724 0.091984 3.20901e-23)
(1.36089 0.108555 -4.48381e-20)
(1.34964 0.116779 4.42244e-20)
(1.33967 0.120031 4.30204e-20)
(1.33227 0.120548 8.29228e-20)
(1.3277 0.119461 3.99595e-20)
(1.32367 0.116887 3.85215e-20)
(1.31283 0.11204 -4.4471e-24)
(1.28058 0.103547 0)
(1.20746 0.0899889 0)
(1.0796 0.0717288 0)
(0.899907 0.0509417 -3.94021e-20)
(0.687926 0.0311688 -2.20757e-20)
(0.284618 0.00623213 -6.97283e-24)
(0.155491 0.00279434 0)
(0.152129 0.00067488 -2.60698e-21)
(0.077325 0.00265643 -6.87443e-21)
(0.0679446 -0.000271537 0)
(0.0632127 0.000197486 -7.17074e-21)
(0.0605978 -0.00047206 0)
(0.0187557 8.34432e-05 2.58021e-22)
(0.0190865 -3.69358e-05 0)
(0.0194373 7.40351e-05 -3.24283e-23)
(0.0194532 -4.69979e-05 9.69264e-23)
(0.469289 0.015756 -6.09392e-24)
(1.00256 -0.0235659 0)
(1.03058 -0.0690252 3.30521e-20)
(1.05684 -0.110905 3.75583e-24)
(1.22101 -0.205002 -2.36157e-24)
(1.36844 -0.103324 6.41205e-20)
(1.41423 -0.00048701 8.00448e-20)
(1.40926 0.0594888 0)
(1.39234 0.0924266 2.16198e-23)
(1.37468 0.110545 8.8761e-20)
(1.35806 0.119442 -4.34883e-20)
(1.34342 0.122832 -4.24678e-20)
(1.33193 0.123217 -4.10613e-20)
(1.32416 0.121953 -3.96534e-20)
(1.3194 0.119568 -3.81854e-20)
(1.31445 0.115924 0)
(1.30127 0.110258 4.4299e-24)
(1.26531 0.101102 0)
(1.18844 0.0872722 0)
(1.05891 0.0689937 7.6644e-23)
(0.880359 0.0486066 0)
(0.671238 0.0297564 0)
(0.275543 0.00605879 7.09907e-24)
(0.15151 0.00309149 9.16246e-24)
(0.153667 0.00116557 -1.29945e-21)
(0.0933935 0.00129323 0)
(0.0931104 0.000624215 1.03293e-22)
(0.0916751 0.000536883 -1.01108e-22)
(0.0879922 -0.00017482 3.21562e-21)
(0.0337772 0.00232884 4.41155e-21)
(0.0228465 -0.000220478 0)
(0.0204235 -8.08852e-05 2.10058e-21)
(0.0188152 -0.000127308 1.29837e-22)
(0.456482 0.0149942 -1.23605e-20)
(1.00309 -0.0263004 -1.65806e-22)
(1.02672 -0.0776959 0)
(1.05412 -0.139613 2.08133e-20)
(1.25376 -0.261574 -3.6782e-22)
(1.41572 -0.128 -6.10151e-20)
(1.45228 -0.00766632 -1.96239e-23)
(1.43746 0.0587783 9.39468e-20)
(1.41438 0.09444 -2.16013e-23)
(1.39181 0.11374 -1.33884e-19)
(1.37047 0.122999 4.38663e-20)
(1.35127 0.126313 -2.10606e-23)
(1.33548 0.126408 3.97789e-23)
(1.32377 0.124781 3.92095e-20)
(1.31605 0.122159 -3.77621e-20)
(1.3111 0.118779 0)
(1.30518 0.114426 0)
(1.28983 0.108163 -3.37579e-20)
(1.25059 0.09854 0)
(1.17056 0.084393 1.66088e-20)
(1.0395 0.0661835 1.71196e-20)
(0.861676 0.0464937 0)
(0.655416 0.0284384 0)
(0.266333 0.00559909 1.21108e-20)
(0.145715 0.00273151 0)
(0.147595 0.00103174 -3.26846e-22)
(0.0897864 0.00139205 4.08886e-22)
(0.0908243 0.000775697 4.108e-22)
(0.0919945 0.000908913 4.10606e-22)
(0.0924802 0.000307154 8.20589e-22)
(0.0530656 0.000371294 -8.58514e-23)
(0.0532827 0.000200676 2.6563e-22)
(0.0521424 0.000150937 0)
(0.0494071 -4.06013e-05 2.10765e-23)
(0.00932522 0.000622263 -4.64254e-22)
(0.44502 0.0142823 0)
(1.00327 -0.028314 -4.64188e-20)
(1.02067 -0.0856432 1.56812e-22)
(1.05049 -0.173006 -2.00356e-20)
(1.28427 -0.326285 3.51084e-22)
(1.45321 -0.148004 -1.62492e-23)
(1.47544 -0.0113396 -2.34197e-23)
(1.45283 0.0606099 5.80937e-21)
(1.42891 0.0982626 2.19089e-23)
(1.40642 0.118278 8.84414e-20)
(1.38377 0.127565 -1.30635e-19)
(1.36194 0.130579 0)
(1.34268 0.130227 4.03668e-20)
(1.32712 0.128098 -9.3397e-25)
(1.31568 0.125023 7.46673e-20)
(1.3081 0.12142 8.97673e-24)
(1.30292 0.1174 8.24531e-24)
(1.29608 0.112559 3.33455e-20)
(1.2787 0.105849 -3.85749e-24)
(1.23651 0.0957882 -3.16142e-20)
(1.15362 0.0814287 -1.59766e-20)
(1.02114 0.0635723 0)
(0.844243 0.0445712 0)
(0.641151 0.0272312 0)
(0.258128 0.00520996 6.75873e-24)
(0.139719 0.00276117 0)
(0.142162 0.000745374 2.85709e-21)
(0.0855502 0.000361547 0)
(0.0865824 0.000440592 0)
(0.087549 0.000799533 0)
(0.0883179 0.000256566 8.08361e-22)
(0.0506938 0.00040219 0)
(0.0516206 0.000277329 -2.64283e-22)
(0.0523604 0.000278659 0)
(0.0525799 0.000141451 1.74215e-22)
(0.016537 2.28536e-05 1.20823e-22)
(0.0167687 1.9127e-06 -2.10176e-22)
(0.016357 -6.09471e-05 -2.93943e-23)
(0.015742 -0.0003373 9.19558e-22)
(0.435738 0.0136618 1.15662e-20)
(1.00319 -0.0292529 9.56532e-20)
(1.01166 -0.0911649 -1.7127e-22)
(1.04019 -0.208914 0)
(1.29569 -0.394836 1.78146e-21)
(1.45517 -0.157717 0)
(1.45413 -0.00916386 -2.86933e-23)
(1.42947 0.0653381 -9.8554e-20)
(1.4161 0.103757 0)
(1.4047 0.12394 -2.27054e-23)
(1.38929 0.133022 8.65792e-20)
(1.37056 0.135619 -3.95309e-23)
(1.35119 0.134723 -3.9825e-20)
(1.33345 0.131995 0)
(1.31877 0.128337 -7.61421e-23)
(1.3078 0.124265 -8.86381e-24)
(1.3004 0.120046 3.40054e-20)
(1.29504 0.115618 -8.19742e-24)
(1.28728 0.110423 3.158e-20)
(1.26796 0.103318 3.08614e-20)
(1.22299 0.0929226 0)
(1.1375 0.0786054 0)
(1.004 0.0611874 0)
(0.828367 0.0428351 0)
(0.62891 0.026196 0)
(0.251788 0.00493666 -1.31394e-20)
(0.134684 0.00256849 0)
(0.136514 0.000724303 1.4013e-21)
(0.0637382 0.00051728 2.17724e-22)
(0.0651797 3.26855e-05 -2.10217e-22)
(0.0484522 -0.000469063 -8.85954e-23)
(0.0494376 3.65112e-05 -1.26522e-25)
(0.0496208 0.000214384 8.66529e-23)
(0.0499371 0.000124311 -4.34604e-22)
(0.0156771 2.92399e-05 -2.99598e-23)
(0.0160815 1.55235e-05 -3.00813e-23)
(0.0163448 1.66663e-05 0)
(0.0163558 -3.91002e-06 -1.20391e-22)
(0.429799 0.0133534 0)
(1.00291 -0.0287031 -4.86704e-20)
(0.999302 -0.0925453 0)
(1.01336 -0.238624 4.25505e-20)
(1.25951 -0.454243 -1.7301e-21)
(1.38328 -0.158285 2.95662e-23)
(1.34323 0.000970046 -1.35549e-19)
(1.32932 0.0722997 8.16152e-23)
(1.34529 0.10982 -5.18952e-23)
(1.36313 0.129666 0)
(1.37012 0.138639 8.93716e-20)
(1.36598 0.141033 -3.9548e-23)
(1.35438 0.139737 -7.92825e-20)
(1.3393 0.136447 3.78299e-20)
(1.32397 0.132167 -7.17941e-23)
(1.31055 0.127509 0)
(1.30022 0.122828 -3.36546e-20)
(1.29308 0.118244 3.62491e-25)
(1.28752 0.113546 -3.12654e-20)
(1.27882 0.108063 3.76182e-24)
(1.25757 0.100652 2.92947e-20)
(1.21001 0.0901321 0)
(1.12233 0.0759933 0)
(0.988191 0.0590267 0)
(0.814218 0.0413411 -1.64397e-20)
(0.619053 0.025515 -1.83861e-20)
(0.250019 0.00473776 3.17466e-21)
(0.131242 0.00246382 3.04363e-21)
(0.132103 0.000622653 -3.38907e-22)
(0.0611332 0.000465047 0)
(0.0622567 0.000142873 -1.20219e-21)
(0.0143682 0.000199907 -3.17135e-23)
(0.0145161 -0.000121118 6.31297e-23)
(0.0146294 -0.000250052 -6.44041e-23)
(0.0147433 0.000152155 -4.89272e-26)
(0.0149657 -0.000215781 5.84322e-23)
(0.015392 -2.9387e-05 2.9373e-23)
(0.0153999 1.38987e-05 -5.88583e-23)
(0.0154347 -5.79318e-06 5.91076e-23)
(0.426914 0.0134724 2.12731e-20)
(1.00196 -0.0264935 0)
(0.984701 -0.0898563 -5.82742e-20)
(0.958098 -0.24911 -6.69935e-20)
(1.13946 -0.498284 -5.3751e-21)
(1.18147 -0.150628 5.03925e-21)
(1.08925 0.0168313 1.55855e-19)
(1.1121 0.0785524 -7.10655e-23)
(1.18299 0.113496 -5.90972e-23)
(1.25267 0.132995 4.81756e-23)
(1.3021 0.142571 -9.22242e-20)
(1.32961 0.145625 -4.02708e-23)
(1.33919 0.144592 7.94542e-20)
(1.3364 0.141136 3.75588e-20)
(1.32664 0.136414 -3.58544e-20)
(1.31431 0.131197 0)
(1.3025 0.125961 1.57518e-23)
(1.293 0.120942 0)
(1.28617 0.116143 3.06216e-20)
(1.28037 0.111256 0)
(1.27066 0.105564 -2.88252e-20)
(1.24753 0.0980095 -3.49422e-24)
(1.19764 0.0875087 0)
(1.10815 0.0736016 0)
(0.973755 0.0571325 1.46799e-20)
(0.801842 0.0401834 1.58565e-20)
(0.611194 0.0251569 1.77326e-20)
(0.254976 0.00518122 -2.97498e-20)
(0.133605 0.00230463 1.03549e-20)
(0.130768 0.000370635 -5.29025e-21)
(0.0592235 0.000434559 -2.20127e-21)
(0.0599307 0.000128664 -6.94761e-23)
(0.0137231 0.000190136 -3.09696e-23)
(0.0138489 -0.000126927 3.08651e-23)
(0.0140708 -0.000176219 6.25631e-23)
(0.0140789 0.000151429 0)
(0.423421 0.0132345 0)
(1.00045 -0.0225489 0)
(0.967375 -0.0805646 -5.07414e-21)
(0.944363 -0.182361 2.11172e-20)
(0.921077 -0.182571 2.41275e-20)
(0.970757 -0.574239 9.32508e-21)
(0.865992 -0.563133 1.91267e-20)
(0.870809 -0.308067 2.58211e-20)
(1.07446 -0.205077 1.43155e-19)
(0.912424 -0.483 5.4993e-23)
(0.789713 -0.138694 -8.90545e-20)
(0.657765 0.0325909 0)
(0.636015 0.00918891 -6.90262e-20)
(0.763309 0.0796114 1.53662e-22)
(0.91413 0.109564 1.27705e-22)
(1.05293 0.12985 -5.44581e-23)
(1.16213 0.141605 -3.92325e-24)
(1.2391 0.147033 4.2252e-23)
(1.28667 0.147713 -8.15373e-20)
(1.31041 0.145128 -6.57212e-23)
(1.3171 0.140597 0)
(1.31331 0.135145 3.38614e-20)
(1.30451 0.129457 0)
(1.29465 0.123937 -1.56643e-23)
(1.28614 0.118751 -3.02765e-20)
(1.27964 0.113835 2.90748e-20)
(1.27354 0.108837 -6.75051e-24)
(1.26277 0.103062 2.72862e-20)
(1.23788 0.095489 0)
(1.18596 0.085077 0)
(1.09498 0.0714662 0)
(0.960657 0.0555499 -1.40438e-20)
(0.790962 0.0392913 -1.52815e-20)
(0.603664 0.0245475 0)
(0.25641 0.00540656 0)
(0.147081 0.00226674 0)
(0.140688 0.00157278 9.70739e-21)
(0.0619633 5.79299e-05 -1.32098e-20)
(0.0589744 -4.07587e-06 0)
(0.0131835 0.000177787 -3.03327e-23)
(0.01327 -0.000125144 -2.86467e-25)
(0.0134591 -0.000171317 6.11338e-23)
(0.0134805 0.000147831 3.02883e-23)
(0.417495 0.0130844 0)
(0.99878 -0.0169088 -5.12688e-22)
(0.952797 -0.0641786 6.50188e-20)
(0.896429 -0.168049 -2.41165e-20)
(0.874215 -0.15149 -2.91989e-20)
(0.828678 -0.283288 4.64798e-22)
(0.76535 -0.548151 -2.90923e-20)
(0.654309 -0.511106 -8.68768e-22)
(0.835008 -0.616214 1.10671e-21)
(0.594182 -0.189822 2.49865e-20)
(0.263149 -0.101664 -2.03361e-21)
(0.449652 -0.267972 3.47693e-21)
(0.221456 -0.0073471 -4.10895e-21)
(0.275793 0.0264879 -3.28838e-20)
(0.476326 0.0146883 3.70897e-20)
(0.302042 0.0545923 1.11466e-19)
(0.345102 0.0714918 5.10681e-20)
(0.199802 0.0113694 -1.07561e-19)
(0.278614 0.0121179 -1.03673e-22)
(0.573802 0.0924107 -1.84663e-22)
(0.77488 0.115483 -1.43726e-22)
(0.944535 0.131741 5.89254e-23)
(1.07922 0.14191 -9.61691e-23)
(1.17792 0.146497 8.62019e-20)
(1.24313 0.146587 -7.8005e-20)
(1.28037 0.143565 0)
(1.29672 0.138723 -3.39183e-20)
(1.29938 0.133044 -8.14371e-25)
(1.29456 0.127206 0)
(1.28696 0.121596 0)
(1.27958 0.11636 -2.87848e-20)
(1.27343 0.111413 0)
(1.26699 0.106408 -2.69549e-20)
(1.2552 0.100652 3.25326e-24)
(1.22869 0.0931293 0)
(1.17495 0.0828743 3.04136e-24)
(1.08278 0.0696161 -1.28215e-20)
(0.948729 0.0542199 0)
(0.780792 0.0383301 0)
(0.595237 0.0240629 0)
(0.252643 0.00544385 0)
(0.148086 0.00297364 2.36687e-21)
(0.1484 0.0012157 0)
(0.0821547 0.000574903 2.00399e-21)
(0.0738979 0.000675625 6.21501e-23)
(0.0158218 0.000514651 4.71025e-21)
(0.0139745 -0.000329385 -6.56978e-23)
(0.0129508 -0.000199353 -3.00104e-23)
(0.0132388 0.000117992 9.1289e-23)
(0.410203 0.0129118 0)
(0.997107 -0.00993691 6.2488e-20)
(0.942944 -0.0412635 5.26516e-22)
(0.854384 -0.126931 2.9547e-20)
(0.838606 -0.0999777 6.11376e-22)
(0.777281 -0.265557 -3.48224e-20)
(0.727908 -0.234613 7.30413e-20)
(0.69439 -0.447495 4.20534e-23)
(0.741898 -0.461041 9.23496e-21)
(0.470598 -0.456727 -1.40912e-21)
(0.528921 -0.451095 5.91882e-23)
(0.617199 -0.578678 9.67012e-21)
(0.281583 -0.2493 0)
(0.0709777 0.0212837 -2.14278e-20)
(0.12275 0.0116152 9.21353e-23)
(0.0635193 0.0247999 -9.75442e-20)
(0.119066 0.047257 9.63807e-20)
(0.261785 0.0600045 0)
(0.128848 0.0267576 -9.13804e-20)
(0.0473675 0.000649826 8.55939e-20)
(0.47538 0.0873931 0)
(0.676707 0.110119 0)
(0.856341 0.127115 0)
(1.00554 0.137882 1.3814e-22)
(1.11991 0.142899 -3.93089e-23)
(1.19982 0.143346 0)
(1.2495 0.140615 0)
(1.27546 0.135957 3.22397e-23)
(1.28487 0.13039 -1.52795e-23)
(1.2844 0.124617 -2.91128e-20)
(1.27935 0.119055 0)
(1.27324 0.113867 0)
(1.26747 0.108985 -6.31622e-24)
(1.26071 0.104059 -6.12923e-24)
(1.24795 0.0983829 0)
(1.21995 0.0909697 0)
(1.16461 0.0809263 2.43797e-20)
(1.07146 0.0680133 0)
(0.937585 0.0529562 0)
(0.77059 0.0375139 0)
(0.586158 0.0237008 -1.60943e-20)
(0.247126 0.00526635 1.37004e-21)
(0.144852 0.00290496 2.30738e-21)
(0.146372 0.00138367 0)
(0.0824019 0.000911662 -2.21867e-21)
(0.0830447 0.000485565 -2.80231e-22)
(0.0389704 0.000329665 0)
(0.0380435 -1.2942e-05 -1.32543e-21)
(0.0242727 0.00167142 -1.59398e-20)
(0.0356725 0.000142405 0)
(0.402479 0.0127419 9.38728e-21)
(0.995672 -0.00232143 -1.25338e-19)
(0.934018 -0.013058 -3.04986e-21)
(0.827303 -0.0726147 0)
(0.820235 -0.0515176 -4.31743e-20)
(0.688722 -0.186112 -4.02053e-20)
(0.660518 -0.128219 -6.4109e-22)
(0.637368 -0.422984 -1.19685e-20)
(0.581329 -0.393984 1.06341e-20)
(0.48883 -0.318343 1.41624e-20)
(0.530458 -0.358107 -1.27943e-20)
(0.543185 -0.569719 -2.46688e-22)
(0.412385 -0.452074 1.63138e-21)
(0.0201492 0.00683666 -4.67293e-20)
(-0.00227587 0.0102196 1.43738e-21)
(0.00611503 -0.00329303 -1.74446e-21)
(0.0195535 0.0147423 -5.6463e-20)
(0.0719863 0.0215365 -1.26017e-22)
(0.23046 0.0501737 0)
(0.0458331 0.0136255 1.75455e-20)
(-0.00036262 -0.00935596 -5.47214e-20)
(0.00789495 0.000354047 2.40643e-20)
(0.41421 0.0780821 0)
(0.604551 0.101908 1.26206e-22)
(0.7841 0.119861 1.03294e-22)
(0.940165 0.131534 -4.97461e-23)
(1.06527 0.137487 4.03861e-23)
(1.15718 0.138813 -7.13619e-20)
(1.21813 0.136765 0)
(1.25342 0.132603 2.91361e-23)
(1.26978 0.127368 5.79711e-20)
(1.27398 0.121817 0)
(1.27173 0.116416 0)
(1.26705 0.111371 0)
(1.26174 0.106633 6.26631e-24)
(1.25471 0.101843 2.33057e-25)
(1.24104 0.0962939 0)
(1.21167 0.0890372 0)
(1.1549 0.0792168 0)
(1.06083 0.0665593 0)
(0.926801 0.051874 0)
(0.760308 0.0369024 3.21623e-23)
(0.576907 0.023414 -7.78147e-21)
(0.241288 0.00514331 1.32865e-21)
(0.140918 0.00273754 -2.24876e-21)
(0.142597 0.00125176 0)
(0.0800456 0.000846115 -2.17337e-21)
(0.0812649 0.000531382 0)
(0.0381349 0.00044274 0)
(0.0384699 -5.56649e-06 3.34138e-22)
(0.0388088 -0.000111883 6.70922e-22)
(0.0388836 0.000349257 -3.35338e-22)
(0.0120381 4.76394e-05 -2.5148e-23)
(0.0118277 -6.78994e-05 -7.97339e-22)
(0.00665879 0.000465056 6.27115e-21)
(0.0113615 -0.000261852 0)
(0.394766 0.012637 0)
(0.994523 0.00523441 6.27275e-20)
(0.935681 0.0186775 -7.8606e-20)
(0.752312 0.0621937 3.54315e-20)
(0.641088 -0.0606529 0)
(0.636558 0.0223033 0)
(0.455506 -0.269213 0)
(0.427084 -0.215702 1.8395e-20)
(0.384391 -0.101702 0)
(0.403413 -0.15933 -1.85312e-20)
(0.404461 -0.5016 2.24661e-20)
(0.316991 -0.404775 -1.94515e-20)
(0.208055 -0.328894 -1.84973e-20)
(0.26263 -0.375255 -4.15941e-22)
(0.341043 -0.445094 1.23885e-21)
(-0.0106012 0.00436026 -2.5629e-20)
(0.00201703 0.000131075 0)
(0.00678145 0.00902477 7.39554e-23)
(0.0725522 0.0178845 -5.38275e-20)
(0.0146039 0.000369556 1.80701e-20)
(0.205193 0.0432935 2.03068e-19)
(0.015899 0.00243986 -8.72809e-23)
(0.0116377 0.00684768 1.59607e-22)
(-0.00727373 -0.00233273 1.30268e-20)
(0.000335536 -0.000248347 9.27586e-22)
(0.370219 0.0699618 0)
(0.548342 0.093359 -1.3222e-22)
(0.723292 0.111585 1.06059e-19)
(0.881597 0.124084 -2.78659e-24)
(1.01382 0.131139 7.74124e-20)
(1.11539 0.133508 1.85304e-24)
(1.18643 0.13235 0)
(1.23069 0.128866 -2.93002e-20)
(1.25409 0.124118 0)
(1.26321 0.118912 0)
(1.26401 0.113774 -2.53994e-20)
(1.26094 0.108953 0)
(1.2562 0.104413 5.74484e-24)
(1.24896 0.0997979 5.80408e-24)
(1.23446 0.0944149 0)
(1.20382 0.0873335 -2.23334e-20)
(1.14573 0.0777006 0)
(1.05066 0.0653207 0)
(0.916258 0.0510463 2.88659e-23)
(0.750139 0.0364539 0)
(0.567778 0.0232279 0)
(0.235479 0.00510182 0)
(0.136973 0.00267107 -2.18503e-21)
(0.13865 0.00120097 0)
(0.0775714 0.000771774 -3.54977e-22)
(0.0787514 0.00046231 2.35648e-22)
(0.0367343 0.000419838 0)
(0.0370795 -2.40664e-05 4.08209e-22)
(0.0376357 -0.000103442 -8.21884e-23)
(0.0375047 0.000342148 7.76684e-25)
(0.0117038 5.79703e-05 0)
(0.0118835 -2.50302e-05 0)
(0.0119838 -3.96873e-05 2.54198e-23)
(0.0120175 4.86231e-05 0)
(0.387393 0.0126094 0)
(0.993743 0.0122679 0)
(0.942233 0.0460183 3.46988e-21)
(0.803667 0.134486 9.50403e-22)
(0.384557 0.261757 -1.98816e-20)
(0.507663 0.349998 -2.12391e-21)
(0.37209 -0.0425171 0)
(0.371305 0.0147021 0)
(0.414184 0.127053 1.89558e-21)
(0.384125 0.073231 0)
(0.166053 -0.269195 -1.59126e-21)
(0.13485 -0.202445 -1.60848e-21)
(0.0983132 -0.0671836 -2.6458e-20)
(0.11256 -0.134553 2.5232e-20)
(0.155551 -0.267053 -1.3713e-21)
(-0.00942319 -0.000861403 -1.49367e-20)
(-0.00290859 -0.00185218 0)
(0.00317625 3.7993e-05 -1.46493e-22)
(-0.00123767 0.00243038 1.29222e-20)
(-5.11394e-05 5.68718e-06 -1.41647e-20)
(0.0161482 0.00803291 -1.56243e-20)
(0.0662481 0.0154135 -2.03185e-19)
(0.0173758 1.98549e-05 8.29202e-20)
(0.000933675 0.000233944 -1.27259e-20)
(0.00252665 -0.00193027 -1.99067e-20)
(0.185228 0.0384782 0)
(0.000807715 -0.00112014 -1.62403e-20)
(0.335443 0.0628229 0)
(0.501907 0.0850099 -2.51291e-19)
(0.670593 0.103128 4.88231e-23)
(0.828475 0.116312 8.64083e-20)
(0.965225 0.124338 0)
(1.07454 0.12778 3.32012e-23)
(1.15455 0.127595 0)
(1.20734 0.124902 -5.46025e-23)
(1.23779 0.120753 0)
(1.25203 0.115995 2.21771e-22)
(1.25613 0.111203 0)
(1.25487 0.106664 1.12986e-23)
(1.25082 0.102363 -2.28287e-20)
(1.24345 0.0979557 -5.34462e-24)
(1.22818 0.0927582 2.18365e-20)
(1.19636 0.0858441 0)
(1.13695 0.0764205 -2.14527e-20)
(1.04083 0.0643643 2.20192e-20)
(0.90601 0.0504519 0)
(0.740233 0.0361693 0)
(0.559049 0.0231653 0)
(0.229891 0.00510459 0)
(0.133081 0.00264574 0)
(0.13473 0.00120613 -1.07387e-21)
(0.0751744 0.000750313 1.14914e-22)