/*--------------------------------*- C++ -*----------------------------------*\
| =========                 |                                                 |
| \\      /  F ield         | OpenFOAM: The Open Source CFD Toolbox           |
|  \\    /   O peration     | Version:  v1912                                 |
|   \\  /    A nd           | Website:  www.openfoam.com                      |
|    \\/     M anipulation  |                                                 |
\*---------------------------------------------------------------------------*/
FoamFile
{
    version     2.0;
    format      ascii;
    class       volVectorField;
    location    "220";
    object      U;
}
// * * * * * * * * * * * * * * * * * * * * * * * * * * * * * * * * * * * * * //

dimensions      [0 1 -1 0 0 0 0];


internalField   nonuniform List<vector> 
3753
(
(0.440334 -0.0538431 -7.69607e-21)
(0.790311 -0.0841926 2.78453e-20)
(0.121718 -0.0463307 -1.3681e-20)
(0.927966 -0.0767913 1.15629e-20)
(0.440453 -0.104535 1.52357e-20)
(0.0874617 -0.0395532 0)
(0.977384 -0.0640076 -2.96978e-20)
(0.688986 -0.140031 2.08027e-24)
(0.295148 -0.111556 -1.48601e-24)
(0.0896875 -0.0391699 0)
(0.991512 -0.0552298 -1.17313e-24)
(0.841875 -0.154227 -3.25871e-20)
(0.515368 -0.169577 3.41827e-25)
(0.269631 -0.116151 0)
(0.0968007 -0.0398898 -2.26338e-20)
(0.993798 -0.0495756 -6.23084e-20)
(0.921817 -0.156248 3.10203e-20)
(0.69832 -0.209562 -3.9798e-20)
(0.454491 -0.185705 -3.98046e-20)
(0.277181 -0.116726 0)
(0.0961084 -0.0395541 -1.58556e-20)
(0.993295 -0.0452933 1.35756e-19)
(0.957897 -0.152707 0)
(0.822812 -0.232526 8.61076e-20)
(0.627243 -0.242622 3.65052e-20)
(0.449546 -0.187087 -4.03764e-24)
(0.277858 -0.114826 2.01411e-20)
(0.0942421 -0.0391531 -2.19031e-20)
(0.992696 -0.0415251 -7.36256e-20)
(0.971485 -0.146952 -6.96871e-20)
(0.894793 -0.24322 -4.72521e-20)
(0.764457 -0.284258 -4.7518e-20)
(0.611044 -0.248317 0)
(0.44824 -0.183496 1.96978e-20)
(0.27436 -0.113691 1.40854e-20)
(0.0933353 -0.0386919 0)
(0.992471 -0.037809 -1.02804e-23)
(0.974891 -0.140289 6.9752e-20)
(0.93028 -0.24658 0)
(0.857454 -0.312222 4.57708e-20)
(0.74918 -0.297307 -4.22306e-24)
(0.604765 -0.24415 -1.80219e-20)
(0.443781 -0.181575 -2.06591e-24)
(0.271708 -0.112439 8.6291e-21)
(0.0917471 -0.0380071 0)
(0.992517 -0.033836 1.02178e-19)
(0.97403 -0.132911 -9.7382e-20)
(0.944028 -0.24604 -1.06348e-23)
(0.912189 -0.330729 6.93089e-20)
(0.853645 -0.333382 7.29464e-24)
(0.741034 -0.294513 0)
(0.598373 -0.241687 0)
(0.440005 -0.179646 8.31207e-22)
(0.268281 -0.11057 6.25557e-25)
(0.0896295 -0.037231 0)
(0.992691 -0.0294086 7.31253e-21)
(0.971264 -0.124496 2.08923e-19)
(0.945693 -0.243384 1.13095e-19)
(0.940182 -0.344274 1.57691e-20)
(0.924359 -0.35884 0)
(0.849562 -0.333302 -2.60587e-24)
(0.733177 -0.292381 -1.30828e-24)
(0.593822 -0.239291 -1.61953e-20)
(0.435573 -0.176956 -6.62425e-25)
(0.263697 -0.108535 -2.52679e-21)
(0.0875606 -0.0364493 5.92212e-21)
(0.992928 -0.0243989 -1.10766e-19)
(0.967336 -0.114527 -1.11394e-19)
(0.940244 -0.239187 -1.14423e-19)
(0.951676 -0.356318 -1.81524e-19)
(0.968958 -0.377392 -5.34277e-24)
(0.928228 -0.361532 0)
(0.84289 -0.332447 0)
(0.728318 -0.289994 7.78615e-21)
(0.589059 -0.236077 -3.04946e-21)
(0.42979 -0.174138 6.55606e-22)
(0.258843 -0.106514 -7.29274e-21)
(0.0855684 -0.0356756 8.56521e-21)
(0.993248 -0.0187298 0)
(0.962411 -0.102396 0)
(0.929622 -0.233287 -7.03875e-23)
(0.953035 -0.369044 2.13896e-19)
(0.996755 -0.392451 3.11448e-20)
(0.981572 -0.381931 5.33015e-24)
(0.925226 -0.362274 -2.58934e-24)
(0.839101 -0.330646 -1.34305e-24)
(0.723815 -0.286628 -2.84139e-22)
(0.582988 -0.232811 1.43845e-21)
(0.423425 -0.171361 -5.17455e-21)
(0.254011 -0.1045 -1.04898e-20)
(0.0836494 -0.0349372 0)
(0.993737 -0.0123678 0)
(0.956513 -0.0874201 1.46688e-19)
(0.914241 -0.225162 1.84752e-19)
(0.947248 -0.383662 -1.13388e-19)
(1.01476 -0.406282 -3.03434e-20)
(1.01703 -0.397431 2.06842e-24)
(0.982849 -0.383769 2.58485e-24)
(0.924027 -0.361286 2.59455e-24)
(0.835683 -0.327538 -1.31167e-22)
(0.718143 -0.283214 6.09407e-22)
(0.576184 -0.229638 4.67018e-21)
(0.416883 -0.168582 1.15282e-24)
(0.249265 -0.102564 1.2404e-20)
(0.0818443 -0.0342323 -3.19719e-24)
(0.994516 -0.00534363 6.37536e-20)
(0.94969 -0.0688906 -6.84857e-20)
(0.89409 -0.214025 2.58105e-20)
(0.934858 -0.400661 3.28311e-23)
(1.0265 -0.419715 3.6985e-23)
(1.04067 -0.409948 1.19732e-20)
(1.02125 -0.399147 -1.34162e-20)
(0.984544 -0.383149 -1.29185e-24)
(0.922453 -0.358603 -3.60038e-24)
(0.830981 -0.32423 -5.69223e-22)
(0.711686 -0.279904 3.59703e-21)
(0.568992 -0.226458 0)
(0.410313 -0.165898 -2.13415e-20)
(0.244703 -0.1007 -7.11638e-24)
(0.0801132 -0.0335498 1.38747e-20)
(0.995662 0.00220218 -1.27411e-19)
(0.942282 -0.0462052 2.7815e-21)
(0.869342 -0.198328 -2.15735e-19)
(0.913596 -0.420044 0)
(1.03137 -0.431231 4.16036e-23)
(1.05419 -0.419471 -1.17271e-20)
(1.04463 -0.409446 1.31256e-20)
(1.02422 -0.397659 -2.56877e-24)
(0.984569 -0.3805 2.78126e-21)
(0.918991 -0.355431 0)
(0.825341 -0.320918 -3.35809e-21)
(0.704644 -0.276562 -2.9453e-24)
(0.561573 -0.223382 9.36217e-21)
(0.403866 -0.163277 -2.83056e-24)
(0.240278 -0.0988718 3.80111e-24)
(0.0784548 -0.0329005 1.48327e-20)
(0.997094 0.00980871 6.35329e-20)
(0.935735 -0.0189047 -7.81986e-20)
(0.839954 -0.174413 4.4715e-22)
(0.875419 -0.438929 0)
(1.02162 -0.435644 2.24659e-20)
(1.05202 -0.422356 8.08214e-21)
(1.05173 -0.413098 1.25849e-20)
(1.04489 -0.404871 1.17413e-24)
(1.02378 -0.393897 -2.46701e-25)
(0.981673 -0.377007 4.55529e-22)
(0.914152 -0.352011 2.99569e-21)
(0.818857 -0.31749 -5.5106e-21)
(0.697137 -0.273323 3.89261e-24)
(0.55413 -0.220336 -5.21486e-24)
(0.39753 -0.160665 -1.36337e-20)
(0.235978 -0.0971221 4.31033e-24)
(0.0769147 -0.0322934 0)
(0.998759 0.0167747 -6.0353e-20)
(0.934069 0.0127728 3.08304e-21)
(0.803973 -0.134571 -9.60727e-22)
(0.801489 -0.440459 -1.21675e-19)
(0.974412 -0.424492 -2.28003e-20)
(1.01625 -0.408815 -2.38506e-21)
(1.03187 -0.404346 -1.26303e-20)
(1.04226 -0.40193 6.63746e-21)
(1.0396 -0.397993 -1.00148e-24)
(1.01914 -0.388948 -4.44243e-22)
(0.976687 -0.372934 -2.88171e-21)
(0.90804 -0.348304 5.2221e-21)
(0.811604 -0.314144 0)
(0.689409 -0.270067 -9.47872e-21)
(0.546674 -0.217233 1.21708e-20)
(0.391276 -0.158133 -3.50592e-24)
(0.231878 -0.0954778 -8.83406e-24)
(0.0754984 -0.0317287 -3.92048e-24)
(1.00042 0.0224117 5.97441e-20)
(0.942995 0.0409115 -7.2612e-20)
(0.752816 -0.0624102 2.60554e-20)
(0.655722 -0.390314 1.20568e-19)
(0.842404 -0.379004 0)
(0.910935 -0.363256 -6.11155e-21)
(0.962341 -0.372318 0)
(1.00287 -0.382288 -1.27003e-20)
(1.02557 -0.389279 -1.73793e-21)
(1.02906 -0.389818 9.19155e-22)
(1.01166 -0.383134 4.26003e-25)
(0.969843 -0.368362 -2.36062e-24)
(0.900751 -0.344647 -3.27772e-24)
(0.803892 -0.310707 1.7461e-20)
(0.681466 -0.266653 2.7073e-24)
(0.539168 -0.214179 6.26018e-24)
(0.385196 -0.155731 0)
(0.228022 -0.0939322 4.52307e-24)
(0.0741782 -0.0311969 1.63595e-20)
(1.00193 0.0263574 0)
(0.952821 0.0637864 1.3634e-19)
(0.820593 0.051189 -4.24043e-20)
(0.827566 0.0722899 0)
(0.507926 -0.349161 2.14043e-21)
(0.384719 -0.260916 2.00119e-20)
(0.637112 -0.0223527 0)
(0.691914 -0.332015 9.7593e-23)
(0.337488 -0.243744 -2.99836e-20)
(0.50938 -0.223144 2.09236e-21)
(0.685829 -0.267376 1.21512e-22)
(0.564967 -0.211701 0)
(0.812596 -0.304168 0)
(0.905642 -0.337234 6.27494e-21)
(0.968085 -0.361726 3.23384e-21)
(1.00393 -0.376019 -9.28872e-22)
(1.01543 -0.380804 4.86549e-25)
(1.00184 -0.376692 0)
(0.961363 -0.36386 -3.38663e-25)
(0.892735 -0.340816 -8.19031e-21)
(0.79572 -0.306992 0)
(0.673259 -0.263233 -2.72153e-24)
(0.531717 -0.211248 -3.22999e-24)
(0.379369 -0.153445 -1.57794e-20)
(0.224387 -0.0924602 0)
(0.0729272 -0.0306899 1.65731e-20)
(1.00288 0.0285737 -5.0666e-20)
(0.967349 0.0801603 -5.05481e-21)
(0.838794 0.0996347 0)
(0.854514 0.126572 3.01985e-20)
(0.641564 0.0605494 0)
(0.41451 -0.126178 -1.90591e-21)
(0.167109 -0.191574 -2.56769e-20)
(0.136195 -0.186257 -6.33625e-21)
(0.204421 -0.224706 3.36853e-20)
(0.384459 -0.0722361 0)
(0.320565 -0.157265 -3.17911e-21)
(0.131846 -0.0624235 0)
(0.327753 -0.118967 0)
(0.250622 -0.0832324 -7.32639e-24)
(0.440004 -0.160747 -2.1304e-22)
(0.565141 -0.196326 -8.40215e-22)
(0.376563 -0.134211 9.05218e-26)
(0.732413 -0.261544 2.38194e-21)
(0.85114 -0.309753 -3.38469e-22)
(0.93183 -0.342784 6.92261e-25)
(0.98041 -0.362651 0)
(0.999589 -0.371327 0)
(0.990101 -0.370528 0)
(0.951959 -0.359144 3.78896e-24)
(0.884022 -0.336579 2.12467e-24)
(0.787026 -0.303205 0)
(0.664923 -0.259911 -1.19494e-20)
(0.524439 -0.208424 1.39854e-20)
(0.373796 -0.151235 -7.88909e-24)
(0.220918 -0.0910443 0)
(0.0717408 -0.0302092 0)
(1.00316 0.0291343 3.84845e-21)
(0.984617 0.0894616 -5.85309e-20)
(0.874294 0.151116 -2.90482e-20)
(0.896458 0.167659 -2.4489e-20)
(0.660914 0.128106 0)
(0.689034 0.186001 -4.08623e-20)
(0.372392 0.0436814 0)
(0.371621 -0.0136104 0)
(0.11761 -0.108636 3.05792e-21)
(0.0544918 -0.0987785 0)
(0.0896046 -0.029213 7.10618e-23)
(0.0779426 -0.0276544 -1.04563e-22)
(0.221122 -0.0741806 0)
(0.132436 -0.0410612 -1.25972e-21)
(0.336107 -0.112066 -9.27745e-26)
(0.487482 -0.162644 -2.85583e-21)
(0.316759 -0.102508 1.10404e-21)
(0.184022 -0.0615242 -1.75126e-25)
(0.667378 -0.233567 -8.697e-22)
(0.802561 -0.287421 -2.1217e-25)
(0.897065 -0.325353 4.50819e-21)
(0.956029 -0.349455 5.97534e-21)
(0.982124 -0.362711 0)
(0.977545 -0.364257 -7.78167e-21)
(0.941725 -0.35393 -9.03051e-21)
(0.874528 -0.33222 9.91558e-21)
(0.77798 -0.299488 1.10553e-20)
(0.656618 -0.256674 -1.22962e-20)
(0.517364 -0.205655 0)
(0.368425 -0.149083 -1.62218e-20)
(0.217594 -0.0896897 0)
(0.0706143 -0.0297512 0)
(1.00325 0.0282073 4.75968e-20)
(0.999192 0.0921768 0)
(0.921053 0.182183 2.45009e-20)
(0.944276 0.181962 2.23401e-20)
(0.72814 0.234496 7.32439e-20)
(0.777401 0.265364 -3.25008e-20)
(0.384694 0.102913 0)
(0.403726 0.160566 -1.86409e-20)
(0.45586 0.270475 0)
(0.427417 0.21696 1.7905e-20)
(0.0925928 0.0046711 5.28194e-20)
(0.099781 -0.0528688 -2.60509e-20)
(0.0387332 -0.0112351 1.22829e-21)
(0.0554909 -0.0166977 8.51708e-23)
(0.049705 -0.0161583 4.0513e-24)
(0.163548 -0.051625 -5.17174e-22)
(0.289238 -0.0942201 -2.67226e-22)
(0.426147 -0.141933 -7.01917e-22)
(0.262655 -0.0827046 5.98845e-22)
(0.1957 -0.064054 2.09528e-22)
(0.193568 -0.0616531 -2.33975e-22)
(0.0418993 -0.0137845 0)
(0.0446141 -0.0141458 0)
(0.616451 -0.212893 -1.04769e-24)
(0.759976 -0.268441 -4.90549e-21)
(0.864032 -0.308946 -6.30318e-21)
(0.931184 -0.338187 -6.73606e-21)
(0.964553 -0.354341 7.82208e-21)
(0.964318 -0.357497 8.88912e-21)
(0.93055 -0.348607 -1.9201e-20)
(0.864485 -0.327926 1.02875e-20)
(0.768799 -0.295838 1.13602e-20)
(0.648408 -0.253457 0)
(0.510459 -0.20292 1.43158e-20)
(0.363232 -0.146999 -1.62481e-20)
(0.2144 -0.0883923 0)
(0.0695536 -0.0293192 1.66166e-20)
(1.00307 0.0262041 1.70568e-22)
(1.01157 0.0908328 1.75707e-22)
(0.957848 0.248742 -3.78797e-20)
(0.828676 0.283013 0)
(0.870724 0.307833 -2.62358e-20)
(0.489206 0.319602 -1.42705e-20)
(0.530847 0.359332 1.28924e-20)
(0.637725 0.424025 1.20813e-20)
(0.581718 0.395142 -1.00298e-20)
(0.0983285 0.0685882 -2.65711e-20)
(0.112661 0.135998 2.45538e-20)
(0.166324 0.270673 4.26965e-20)
(0.135034 0.203926 -4.71528e-20)
(0.0384788 -0.0115802 1.43024e-22)
(0.0379694 -0.012055 6.32491e-22)
(0.114848 -0.0376731 0)
(0.184016 -0.0589696 3.43484e-22)
(0.175685 -0.0559916 1.57666e-24)
(0.225913 -0.0738215 3.56715e-22)
(0.386637 -0.12752 -1.0532e-21)
(0.209305 -0.0670348 6.07364e-23)
(0.163955 -0.0531163 -1.91865e-22)
(0.145264 -0.0423119 2.93817e-23)
(0.11334 -0.0357559 -1.72101e-22)
(0.574006 -0.196226 1.08077e-24)
(0.721441 -0.250578 1.59891e-24)
(0.832363 -0.295897 7.15231e-21)
(0.907741 -0.327756 -1.83927e-24)
(0.946964 -0.345647 0)
(0.950219 -0.350763 9.50706e-21)
(0.918741 -0.343405 -1.98801e-20)
(0.854176 -0.323712 1.05591e-20)
(0.759591 -0.292178 2.78762e-24)
(0.640283 -0.250237 -1.26388e-20)
(0.503701 -0.200235 1.43075e-20)
(0.358193 -0.144988 0)
(0.211352 -0.0871603 1.89195e-20)
(0.06855 -0.0289046 1.65063e-20)
(1.00254 0.0234779 0)
(1.0206 0.0853461 -1.61346e-22)
(1.01301 0.238283 4.33855e-20)
(0.866246 0.563922 -1.9468e-20)
(0.970892 0.57493 9.7236e-21)
(0.694703 0.448431 -6.66181e-22)
(0.742146 0.461848 9.3719e-21)
(0.765731 0.549096 1.88745e-20)
(0.208416 0.330352 -1.97168e-20)
(0.263079 0.376681 4.1901e-22)
(0.405036 0.503002 -2.26496e-20)
(0.317491 0.406098 1.96113e-20)
(0.0371331 -0.0119691 -6.11655e-25)
(0.10831 -0.0341441 0)
(0.103009 -0.0324854 -2.13589e-22)
(0.120201 -0.0390073 -1.38589e-22)
(0.109331 -0.0349006 0)
(0.197382 -0.0633542 5.28482e-22)
(0.354955 -0.116538 0)
(0.190863 -0.0604641 1.93762e-21)
(0.102637 -0.0325812 0)
(0.0995214 -0.0312705 -1.64074e-22)
(0.0948615 -0.0302029 -2.47181e-22)
(0.0661193 -0.0172602 0)
(0.0366033 -0.0114329 2.45995e-22)
(0.534327 -0.179092 0)
(0.686041 -0.237517 0)
(0.804234 -0.284344 0)
(0.885457 -0.317281 0)
(0.928905 -0.337254 0)
(0.93563 -0.3443 9.82942e-21)
(0.906651 -0.338361 -2.03822e-20)
(0.843755 -0.319483 1.07762e-20)
(0.750363 -0.288477 1.16555e-20)
(0.632229 -0.247037 -1.26375e-20)
(0.497081 -0.197621 -3.42474e-24)
(0.353334 -0.143061 -1.62081e-20)
(0.208442 -0.0859736 0)
(0.0675806 -0.028503 0)
(1.0018 0.0202966 3.65684e-20)
(1.02666 0.0774321 0)
(1.03983 0.208574 0)
(1.13978 0.498746 -5.64001e-21)
(0.836001 0.617077 1.24499e-21)
(0.655272 0.511829 -9.77386e-22)
(0.913269 0.483547 -4.39011e-23)
(0.54384 0.571167 2.47589e-22)
(0.617884 0.580025 -9.80169e-21)
(0.529827 0.451824 -6.23596e-23)
(0.471497 0.457524 1.5116e-21)
(0.155889 0.267751 -1.39168e-21)
(0.0351235 -0.010907 0)
(0.0334771 -0.0104874 1.44419e-22)
(0.0421256 -0.0138621 0)
(0.0364823 -0.0115931 0)
(0.0964312 -0.0304717 -2.80624e-22)
(0.0951057 -0.0297732 -3.67868e-22)
(0.18198 -0.0584091 0)
(0.314386 -0.101593 1.48154e-21)
(0.17321 -0.0547938 3.41119e-22)
(0.0932925 -0.0293281 -1.03787e-21)
(0.0922729 -0.0288046 0)
(0.0331927 -0.010394 1.53098e-25)
(0.0320527 -0.0099443 1.56431e-22)
(0.0307642 -0.0100304 3.21478e-22)
(0.018262 -0.00479678 -1.24903e-22)
(0.499476 -0.167556 0)
(0.656664 -0.226595 0)
(0.778732 -0.272895 0)
(0.863317 -0.307456 -1.06996e-20)
(0.910787 -0.329374 2.48565e-24)
(0.920947 -0.338173 1.00817e-20)
(0.89448 -0.333349 -2.08391e-20)
(0.833252 -0.315199 -2.65897e-24)
(0.741121 -0.284767 1.16384e-20)
(0.624254 -0.243891 3.05073e-24)
(0.490627 -0.195096 5.82702e-26)
(0.348656 -0.141194 7.78094e-26)
(0.205644 -0.0848208 -8.96275e-24)
(0.0666438 -0.028114 0)
(1.00106 0.0168648 -3.70849e-20)
(1.03054 0.068793 3.41519e-20)
(1.05015 0.172654 -2.10921e-20)
(1.25969 0.454618 -2.59067e-21)
(0.790128 0.138865 -5.29113e-20)
(1.07497 0.205289 1.41154e-19)
(0.450318 0.268349 -3.44475e-21)
(0.282098 0.249743 0)
(0.594685 0.189982 -2.48522e-20)
(0.263452 0.101768 0)
(0.34175 0.446064 1.11585e-21)
(0.413221 0.452932 -1.75e-21)
(0.0311935 -0.00968263 0)
(0.0307295 -0.00948435 0)
(0.0900571 -0.0284397 -6.81808e-22)
(0.0886775 -0.0277752 -7.09832e-25)
(0.149897 -0.0466209 4.388e-22)
(0.28373 -0.091502 1.33035e-21)
(0.12305 -0.0400362 -1.65059e-21)
(0.0864577 -0.0273533 0)
(0.08295 -0.0260025 -4.3971e-22)
(0.0301277 -0.00935076 -3.65262e-24)
(0.0297914 -0.00920951 0)
(0.474146 -0.159292 0)
(0.631369 -0.215314 0)
(0.753695 -0.262449 1.14972e-20)
(0.841747 -0.298376 0)
(0.893003 -0.322115 4.14045e-26)
(0.906404 -0.332197 1.03284e-20)
(0.88227 -0.328312 0)
(0.822683 -0.310893 2.66707e-24)
(0.73188 -0.281093 1.15004e-20)
(0.616395 -0.240836 -1.23977e-20)
(0.48436 -0.192635 3.39955e-24)
(0.344137 -0.139363 3.86744e-24)
(0.20292 -0.0836905 2.19214e-25)
(0.0657277 -0.0277351 0)
(1.00049 0.0133506 3.3444e-20)
(1.0325 0.0599187 -2.7524e-21)
(1.05381 0.139264 2.19419e-20)
(1.29579 0.395152 2.6678e-21)
(1.18175 0.150957 -8.42562e-20)
(0.22152 0.00736625 -1.3056e-20)
(0.476181 -0.0145241 3.69391e-20)
(0.275624 -0.0263752 -3.27215e-20)
(0.635799 -0.00892118 6.86393e-20)
(0.0292391 -0.00907043 7.90059e-22)
(0.0287416 -0.00887323 0)
(0.0755336 -0.0241425 -4.90781e-22)
(0.0535906 -0.0138629 9.74951e-22)
(0.111523 -0.0349955 -2.82669e-21)
(0.268172 -0.0865286 3.0734e-24)
(0.108858 -0.033991 -9.74068e-22)
(0.0341512 -0.0108308 -2.35431e-22)
(0.0286925 -0.00940373 -5.093e-22)
(0.0280308 -0.00874438 4.88717e-22)
(0.0268215 -0.00840011 -2.43939e-22)
(0.453839 -0.150664 0)
(0.605499 -0.205369 3.2641e-24)
(0.729744 -0.252763 2.90108e-24)
(0.82113 -0.290286 0)
(0.875798 -0.31519 -5.17949e-24)
(0.892014 -0.32628 1.05851e-20)
(0.870029 -0.323275 0)
(0.812064 -0.30662 -2.16603e-20)
(0.722691 -0.27752 6.82721e-23)
(0.608702 -0.23784 0)
(0.478263 -0.190199 0)
(0.339732 -0.137562 0)
(0.200257 -0.0825903 8.88508e-24)
(0.0648521 -0.0273688 1.56609e-20)
(1.00014 0.0098921 -3.39651e-20)
(1.03271 0.0507812 -3.27969e-20)
(1.05656 0.110573 -4.33545e-24)
(1.28429 0.326506 1.29064e-21)
(1.38367 0.158625 0)
(0.657151 -0.0323391 0)
(0.070864 -0.0212541 2.13245e-20)
(0.278182 -0.0118831 1.05356e-22)
(0.122402 -0.0114828 -9.32176e-23)
(0.301329 -0.0543683 -1.10713e-19)
(0.0244446 -0.00809824 -3.73419e-24)
(0.0147398 -0.00382959 -6.96489e-22)
(0.0263957 -0.00819634 9.25884e-26)
(0.0257686 -0.00804784 7.31994e-22)
(0.105728 -0.0333682 1.05342e-21)
(0.305286 -0.101916 -5.68173e-24)
(0.104653 -0.0326668 -1.17495e-21)
(0.20768 -0.0684064 -2.25474e-21)
(0.025593 -0.00794504 3.69818e-25)
(0.025579 -0.00786519 1.52026e-21)
(0.429106 -0.141368 -1.84363e-21)
(0.301112 -0.0987424 0)
(0.580658 -0.195854 -3.33595e-24)
(0.707484 -0.244466 0)
(0.801726 -0.282745 -1.13595e-20)
(0.859088 -0.308452 -2.17468e-20)
(0.877754 -0.320423 5.13659e-24)
(0.857763 -0.318293 1.04817e-20)
(0.801463 -0.302487 1.0689e-20)
(0.713647 -0.274009 0)
(0.601165 -0.234855 0)
(0.472295 -0.187789 0)
(0.33542 -0.1358 0)
(0.197665 -0.0815129 -1.76768e-20)
(0.0639945 -0.0270147 7.43893e-24)
(0.999995 0.00658351 0)
(1.03159 0.041338 2.93238e-20)
(1.06006 0.0862767 0)
(1.2537 0.261691 -1.38562e-21)
(1.45561 0.158037 0)
(1.08907 -0.0164849 1.54566e-19)
(0.344155 -0.071237 -1.04882e-19)
(0.199129 -0.0111765 1.06763e-19)
(0.0200097 -0.00679486 4.64808e-20)
(0.0630178 -0.0246473 9.83372e-20)
(0.0251142 -0.00784183 -1.61738e-21)
(0.025067 -0.00776475 -8.56022e-22)
(0.128792 -0.0422542 7.33979e-23)
(0.075997 -0.0247437 2.62243e-21)
(0.0248088 -0.00769198 3.41962e-24)
(0.0248118 -0.00763009 9.25481e-22)
(0.200792 -0.0651065 -1.80139e-23)
(0.128606 -0.040845 1.63326e-21)
(0.289998 -0.0940824 3.03024e-21)
(0.403431 -0.132062 -1.95395e-21)
(0.278939 -0.0899486 3.05756e-21)
(0.55856 -0.188094 0)
(0.687277 -0.236949 1.23512e-20)
(0.783239 -0.275536 1.15317e-20)
(0.842768 -0.301853 -5.32345e-24)
(0.863596 -0.314665 -5.16256e-24)
(0.845544 -0.313534 -1.03205e-20)
(0.791013 -0.298434 -1.02733e-23)
(0.704752 -0.2705 1.10149e-20)
(0.593756 -0.231887 0)
(0.466442 -0.185419 1.30179e-20)
(0.331196 -0.134067 0)
(0.195141 -0.0804735 0)
(0.0631514 -0.0266698 1.51739e-20)
(0.999995 0.00346333 -3.19749e-20)
(1.02975 0.0316523 -2.99983e-20)
(1.06358 0.0656032 -1.2271e-20)
(1.22089 0.205035 0)
(1.45362 0.148274 1.57924e-23)
(1.34349 -0.000593855 -1.34478e-19)
(0.762544 -0.0792977 -1.52108e-22)
(0.26091 -0.0597467 0)
(0.128138 -0.0265755 9.05131e-20)
(0.118345 -0.0470409 -1.46873e-21)
(0.0469247 -0.000535089 -8.63823e-20)
(-0.00242603 -0.0101841 -1.4275e-21)
(0.0059586 0.00335324 1.73251e-21)
(0.0758982 -0.023683 -1.5192e-21)
(0.024734 -0.00791301 -8.4151e-22)
(0.123887 -0.0395768 3.6338e-24)
(0.192843 -0.0615909 -1.83143e-21)
(0.126405 -0.0404612 0)
(0.264078 -0.083821 6.63453e-21)
(0.383403 -0.125356 -1.89872e-21)
(0.25145 -0.0812433 -2.56185e-23)
(0.182388 -0.0582569 1.01433e-23)
(0.539759 -0.181412 -1.75524e-24)
(0.668372 -0.229898 0)
(0.76537 -0.268513 1.18975e-20)
(0.826748 -0.295383 1.06054e-23)
(0.849591 -0.309268 1.02862e-20)
(0.833552 -0.308904 -1.01991e-20)
(0.780729 -0.294388 -1.0389e-20)
(0.695977 -0.267001 5.34712e-24)
(0.58648 -0.228959 -1.16416e-20)
(0.460693 -0.183086 8.5139e-26)
(0.32706 -0.132381 1.44023e-20)
(0.192666 -0.0794645 4.05319e-24)
(0.0623559 -0.0263367 7.15489e-24)
(1.00007 0.000529298 3.24687e-20)
(1.02771 0.0218717 2.83041e-20)
(1.06609 0.0475757 8.94737e-22)
(1.19362 0.156301 -2.26866e-21)
(1.41603 0.128193 -5.99929e-20)
(1.45467 0.00951341 2.83865e-23)
(1.11188 -0.0782119 7.03916e-23)
(0.572811 -0.0921233 1.8286e-22)
(0.0714716 -0.0213661 1.24806e-22)
(0.229554 -0.0498842 0)
(0.0453447 -0.0135041 -1.73787e-20)
(0.0190735 -0.0145833 5.5959e-20)
(-0.000603086 0.00943046 5.42769e-20)
(0.00770675 -0.000310012 -2.3884e-20)
(0.0743237 -0.0234366 0)
(0.0246798 -0.00762528 1.02196e-21)
(0.121085 -0.0383359 -3.60184e-24)
(0.0726147 -0.0229567 8.27061e-22)
(0.118295 -0.0373848 -1.80752e-21)
(0.164215 -0.0510715 -3.50089e-21)
(0.242767 -0.0780019 -3.16467e-21)
(0.369053 -0.120462 3.91142e-21)
(0.237772 -0.0761268 6.41218e-21)
(0.150122 -0.0478109 1.10493e-23)
(0.107768 -0.0341566 0)
(0.113828 -0.0361325 3.49484e-24)
(0.522535 -0.175328 1.62689e-23)
(0.650078 -0.223003 -1.29926e-20)
(0.747955 -0.26155 1.19165e-20)
(0.811042 -0.289473 -5.27973e-24)
(0.835997 -0.304084 1.01738e-20)
(0.821807 -0.304307 4.95573e-24)
(0.770583 -0.290356 -1.02268e-20)
(0.687327 -0.263533 0)
(0.579305 -0.226066 0)
(0.455043 -0.180802 -1.25132e-20)
(0.323004 -0.130745 -1.03576e-25)
(0.190277 -0.0784874 -1.63859e-20)
(0.0615988 -0.026016 -7.23327e-24)
(1.00015 -0.00224073 0)
(1.0258 0.0121539 -4.32407e-20)
(1.0672 0.0312376 1.21376e-20)
(1.1737 0.114641 2.40872e-21)
(1.36861 0.103441 1.02352e-20)
(1.47605 0.011627 2.31478e-23)
(1.32967 -0.0719711 -8.07068e-23)
(0.913532 -0.109277 -1.26253e-22)
(0.474317 -0.0870819 0)
(0.0719534 -0.0176804 5.32022e-20)
(0.0143411 -0.000288236 -1.78699e-20)
(0.00658189 -0.00894376 -7.32093e-23)
(0.204267 -0.043003 -2.00603e-19)
(0.0155793 -0.00235538 8.63952e-23)
(0.0113441 -0.00677102 -1.5974e-22)
(-0.0108475 -0.00426963 2.53947e-20)
(0.00174704 -4.54226e-05 0)
(-0.00735227 0.00236151 -1.29191e-20)
(0.000278093 0.000263098 -9.20309e-22)
(0.0240811 -0.00746313 -5.16226e-24)
(0.0709593 -0.0222525 2.99775e-24)
(0.0234559 -0.00731071 -1.66077e-21)
(0.069378 -0.0217702 7.6463e-22)
(0.0947568 -0.027433 1.62287e-23)
(0.0813183 -0.0264228 9.86248e-22)
(0.144007 -0.0455144 -1.35485e-21)
(0.232917 -0.0745417 -6.50393e-21)
(0.35645 -0.116308 -2.59612e-23)
(0.229534 -0.0734267 6.68043e-21)
(0.140935 -0.0443908 -1.36684e-21)
(0.0709794 -0.0224435 2.21186e-23)
(0.0745129 -0.0235839 -9.72751e-22)
(0.0618754 -0.0194977 0)
(0.0663552 -0.0209177 7.75259e-22)
(0.505398 -0.169251 -7.24263e-24)
(0.632054 -0.215834 -1.30314e-20)
(0.730993 -0.255407 1.14398e-20)
(0.796063 -0.283881 0)
(0.822814 -0.298983 1.01723e-20)
(0.810256 -0.299748 9.92278e-21)
(0.760576 -0.286362 -2.41218e-24)
(0.678799 -0.260109 1.03668e-20)
(0.572234 -0.223224 1.10375e-20)
(0.449483 -0.178581 0)
(0.319058 -0.12916 1.38008e-20)
(0.187976 -0.0775354 0)
(0.0608273 -0.0256953 0)
(1.00023 -0.00487091 -4.85789e-25)
(1.02414 0.00261864 2.91788e-20)
(1.06712 0.0158961 0)
(1.15983 0.0789184 4.53139e-21)
(1.32519 0.078042 1.03357e-19)
(1.4528 0.00787708 -2.39385e-23)
(1.43017 -0.0650482 -9.74841e-20)
(1.18305 -0.113235 5.84328e-23)
(0.774061 -0.115209 1.42125e-22)
(0.413153 -0.0777733 0)
(0.0655937 -0.0152008 2.00784e-19)
(0.017012 9.44713e-05 -8.29792e-20)
(0.0158199 -0.00791652 1.64346e-20)
(0.00241535 0.00195546 1.17483e-20)
(0.000863292 -0.000211305 2.08459e-20)
(-0.000109599 1.64507e-05 1.40116e-20)
(-0.00128335 -0.00240901 -1.27871e-20)
(0.00299038 1.40581e-05 1.45048e-22)
(0.184309 -0.0381922 0)
(0.000667155 0.0011528 1.60835e-20)
(-0.0095042 0.000894512 1.47996e-20)
(-0.00300331 0.00188134 0)
(0.0229218 -0.00711945 1.07145e-21)
(0.0225193 -0.00700415 1.05047e-21)
(0.0429888 -0.0108961 4.83831e-22)
(0.0280489 -0.00931279 2.91075e-22)
(0.0692545 -0.02167 -7.2861e-24)
(0.0684613 -0.0214058 1.86893e-21)
(0.138493 -0.0436279 0)
(0.2254 -0.0721827 -1.33758e-20)
(0.342622 -0.111822 3.25297e-23)
(0.221821 -0.070999 1.35484e-20)
(0.136509 -0.0430144 -4.11709e-21)
(0.0674924 -0.0210666 -1.90257e-21)
(0.0678216 -0.0211711 1.88699e-21)
(0.0228253 -0.0071571 -4.32129e-24)
(0.0246274 -0.00785644 6.61239e-22)
(0.0199399 -0.00655709 -6.84029e-23)
(0.0214078 -0.00674851 -1.03592e-21)
(0.487399 -0.162144 -2.20702e-23)
(0.614489 -0.209813 -1.25748e-20)
(0.715251 -0.249701 1.66644e-23)
(0.781754 -0.27845 -1.04909e-20)
(0.809931 -0.293965 0)
(0.798899 -0.295252 0)
(0.750727 -0.282422 -9.77483e-21)
(0.670381 -0.256738 -1.01211e-20)
(0.56526 -0.220461 0)
(0.444063 -0.176433 0)
(0.315224 -0.127607 0)
(0.185698 -0.0765982 0)
(0.0600837 -0.0253829 -6.71398e-24)
(1.00026 -0.0073782 0)
(1.02275 -0.00666681 -1.49431e-20)
(1.06626 0.00114108 0)
(1.15001 0.0477537 -4.76762e-21)
(1.29062 0.0532214 -6.23627e-21)
(1.4146 0.000627124 7.88779e-20)
(1.4536 -0.0603747 5.81423e-21)
(1.34591 -0.109597 5.12674e-23)
(1.05272 -0.129638 5.37736e-23)
(0.675821 -0.109863 0)
(0.369212 -0.0696759 -1.50311e-22)
(0.0605814 -0.0136936 4.60603e-20)
(0.0166978 0.000507488 0)
(0.0142956 -0.00699905 0)
(0.00287034 0.00136529 6.86339e-23)
(0.00315435 -0.00108024 1.94483e-20)
(0.00422321 -0.000507453 -1.87201e-20)
(0.0033948 -0.00231846 0)
(0.000269579 0.000321352 0)
(-0.00120481 -0.000214988 -1.63105e-21)
(0.167573 -0.0338277 0)
(-0.00027278 0.000371064 7.0423e-22)
(0.0118841 -0.00302331 -2.75615e-22)
(0.0221962 -0.00689343 -1.08278e-21)
(0.0219494 -0.00680925 1.08759e-21)
(0.0668428 -0.020871 -1.89739e-21)
(0.0665967 -0.0207879 0)
(0.134429 -0.042372 5.52047e-21)
(0.216729 -0.0695481 0)
(0.324177 -0.104863 -3.32504e-23)
(0.210833 -0.0676084 3.43235e-21)
(0.132307 -0.04172 -5.60415e-21)
(0.0658478 -0.0205574 -7.5435e-24)
(0.0660897 -0.0206484 -1.9097e-21)
(0.0216554 -0.00671213 2.19567e-21)
(0.0217691 -0.00674677 1.09719e-21)
(0.469661 -0.156469 1.48215e-23)
(0.598966 -0.20437 -1.24265e-23)
(0.70055 -0.244262 -1.14701e-20)
(0.767906 -0.273165 -2.52718e-24)
(0.797334 -0.289048 -9.90399e-21)
(0.787756 -0.290823 0)
(0.741011 -0.278543 0)
(0.662075 -0.253464 0)
(0.558425 -0.21778 2.51604e-24)
(0.438764 -0.174323 5.53254e-24)
(0.311476 -0.126088 0)
(0.183491 -0.0756831 3.66352e-24)
(0.059371 -0.0250806 1.33475e-23)
(1.00026 -0.00977034 0)
(1.02156 -0.0156759 0)
(1.06498 -0.0132489 7.26903e-21)
(1.14273 0.0198882 0)
(1.26486 0.0291835 -6.68235e-20)
(1.37716 -0.00886171 -7.37855e-21)
(1.43814 -0.0586049 9.27088e-20)
(1.417 -0.103577 0)
(1.25312 -0.132846 -4.75442e-23)
(0.944177 -0.131577 -5.81959e-23)
(0.603701 -0.101689 -1.24476e-22)
(0.334518 -0.062574 1.55976e-22)
(0.0552053 -0.0116383 1.13669e-21)
(0.015165 0.000334366 -5.85088e-22)
(0.0136152 -0.0064826 0)
(-0.000566565 0.00133745 -1.24939e-20)
(0.00318104 -0.000205108 -1.70641e-23)
(0.00193556 -0.0024832 0)
(-0.00129902 0.00118914 1.33425e-20)
(-0.000335158 -5.26976e-05 -1.13654e-20)
(0.000327769 6.03726e-05 -1.03265e-20)
(-5.23903e-05 -0.000572692 0)
(0.152616 -0.0294606 -1.7065e-19)
(0.0214887 -0.00666001 -2.57119e-24)
(0.0213985 -0.00663203 1.11185e-21)
(0.0652355 -0.0203776 -7.57868e-24)
(0.0649884 -0.0202876 1.52524e-23)
(0.129606 -0.0409135 5.5044e-23)
(0.201567 -0.0647925 6.96413e-24)
(0.305159 -0.0990892 -2.06126e-21)
(0.189297 -0.0593502 3.87754e-21)
(0.125697 -0.0397731 -4.26383e-21)
(0.0641694 -0.0200368 1.98081e-21)
(0.0644713 -0.0201533 -7.65043e-24)
(0.0211601 -0.00655786 1.13441e-21)
(0.0212578 -0.00659152 5.47306e-25)
(0.45556 -0.151616 1.43533e-23)
(0.58502 -0.199359 1.26676e-20)
(0.686493 -0.239038 0)
(0.754437 -0.268018 1.02474e-20)
(0.785029 -0.284216 -2.32679e-24)
(0.776797 -0.286464 4.46979e-24)
(0.731416 -0.274779 0)
(0.653903 -0.250292 0)
(0.55174 -0.215156 -2.52271e-24)
(0.433585 -0.17225 -5.55013e-24)
(0.30783 -0.124596 0)
(0.181347 -0.0747867 -3.68409e-24)
(0.0586661 -0.0247867 -1.30459e-23)
(1.00022 -0.0120425 0)
(1.0205 -0.0243958 0)
(1.06347 -0.0274024 -7.50451e-21)
(1.13725 -0.00571515 -1.21575e-25)
(1.24625 0.00589017 2.16402e-20)
(1.34654 -0.0198442 -7.7595e-20)
(1.40975 -0.0593728 0)
(1.42983 -0.0981279 -2.16085e-23)
(1.36404 -0.129571 0)
(1.16244 -0.141534 3.91047e-24)
(0.855951 -0.127011 0)
(0.547596 -0.0931956 1.30412e-22)
(0.305247 -0.0559627 1.47066e-19)
(0.0495922 -0.00933478 1.68234e-19)
(0.0124159 0.00107011 1.24088e-19)
(0.0118784 -0.00503159 -6.31617e-20)
(-0.00125209 0.00163983 -5.82898e-20)
(-0.0019754 -0.000206444 1.27232e-20)
(-0.00174361 0.00123412 1.16228e-20)
(-0.000457588 0.000558362 9.79267e-23)
(-0.00137909 -0.000107652 -8.15289e-23)
(-0.00163019 0.00115697 -9.53383e-23)
(0.139477 -0.0255015 0)
(0.0209989 -0.00650836 -2.14742e-24)
(0.020902 -0.00647709 -6.9819e-26)
(0.0635101 -0.019854 0)
(0.0630605 -0.0196952 0)
(0.118486 -0.0377283 6.95327e-22)
(0.176486 -0.0562568 3.40063e-21)
(0.29414 -0.0951447 4.20486e-21)
(0.171263 -0.0546785 -3.43476e-21)
(0.10032 -0.0307451 -4.12993e-21)
(0.0611649 -0.0191576 0)
(0.0622735 -0.0195122 1.95774e-21)
(0.0206455 -0.0063974 2.46618e-24)
(0.0207613 -0.00643908 0)
(0.443755 -0.147516 -2.17791e-23)
(0.571935 -0.194643 1.28455e-20)
(0.672873 -0.233979 0)
(0.741305 -0.262962 0)
(0.77296 -0.27945 2.33453e-24)
(0.765989 -0.282254 -4.48291e-24)
(0.721988 -0.27116 4.31815e-24)
(0.645905 -0.24719 0)
(0.545191 -0.212567 0)
(0.428524 -0.170209 5.22698e-24)
(0.304248 -0.123123 0)
(0.179243 -0.0739161 0)
(0.0579768 -0.0244979 6.4768e-24)
(1.00012 -0.0141806 -2.44116e-24)
(1.0195 -0.0328171 -1.72835e-24)
(1.06177 -0.0414001 9.45062e-21)
(1.1332 -0.029915 0)
(1.23319 -0.0168573 6.67302e-24)
(1.32365 -0.0318591 0)
(1.38203 -0.0621036 4.16128e-20)
(1.41514 -0.0943496 2.12962e-23)
(1.40576 -0.123885 2.23946e-23)
(1.30295 -0.142573 -9.09387e-20)
(1.07947 -0.141927 9.48228e-23)
(0.783787 -0.119831 -1.08114e-19)
(0.501305 -0.0849037 -2.47478e-19)
(0.279834 -0.0498806 0)
(0.0450475 -0.0071338 -1.40697e-22)
(0.00910711 0.00241611 1.14236e-22)
(0.00916477 -0.00359739 0)
(-0.00348215 0.00228573 -4.65143e-20)
(-0.0031477 0.00072958 0)
(-0.00387258 0.00221242 1.49745e-20)
(-0.0030418 0.000637136 2.29124e-22)
(-0.00243509 0.000178696 0)
(-0.00244217 0.00178949 -1.28092e-20)
(-0.000858258 0.000106962 -1.12651e-21)
(-0.00058285 0.000341662 -8.28455e-21)
(0.126938 -0.022234 -3.72362e-23)
(0.0204746 -0.00634813 1.16503e-21)