/*--------------------------------*- C++ -*----------------------------------*\
| =========                 |                                                 |
| \\      /  F ield         | OpenFOAM: The Open Source CFD Toolbox           |
|  \\    /   O peration     | Version:  v1912                                 |
|   \\  /    A nd           | Website:  www.openfoam.com                      |
|    \\/     M anipulation  |                                                 |
\*---------------------------------------------------------------------------*/
FoamFile
{
    version     2.0;
    format      ascii;
    class       volVectorField;
    location    "290";
    object      U;
}
// * * * * * * * * * * * * * * * * * * * * * * * * * * * * * * * * * * * * * //

dimensions      [0 1 -1 0 0 0 0];


internalField   nonuniform List<vector> 
3673
(
(0.0769575 0.0260192 -7.01583e-22)
(0.231013 0.0765779 7.31985e-25)
(0.0764429 0.0258473 0)
(0.382686 0.12441 0)
(0.229563 0.0761035 -7.32311e-25)
(0.0759543 0.0256826 0)
(0.526949 0.168086 0)
(0.380388 0.123672 0)
(0.228145 0.0756356 0)
(0.0754675 0.0255215 -5.25289e-22)
(0.657124 0.205762 0)
(0.523934 0.167126 0)
(0.378123 0.122941 0)
(0.226743 0.0751781 0)
(0.0749932 0.025363 5.22175e-22)
(0.765574 0.235375 0)
(0.653452 0.204598 5.64781e-25)
(0.520925 0.166172 0)
(0.375899 0.12223 0)
(0.225379 0.074729 -5.04029e-22)
(0.0745212 0.0252049 0)
(0.844855 0.25505 0)
(0.761327 0.234026 2.96289e-22)
(0.649824 0.203455 -5.64256e-25)
(0.517965 0.165234 0)
(0.373684 0.121514 0)
(0.224007 0.0742736 0)
(0.0740471 0.025048 0)
(0.888706 0.26337 -2.95711e-22)
(0.840049 0.253514 -2.77818e-22)
(0.757124 0.232702 0)
(0.646203 0.202318 2.69499e-22)
(0.515013 0.164297 0)
(0.371484 0.120802 -4.49429e-25)
(0.222635 0.0738225 0)
(0.0735803 0.024893 -7.3323e-22)
(0.892893 0.259612 5.59654e-24)
(0.883284 0.26163 5.31601e-25)
(0.835273 0.252007 0)
(0.752937 0.231393 1.57304e-23)
(0.642609 0.20119 0)
(0.512053 0.163359 0)
(0.36928 0.120091 4.49377e-25)
(0.221277 0.0733738 3.72853e-22)
(0.0731098 0.024736 0)
(0.855901 0.243931 2.97131e-22)
(0.886768 0.257648 2.73987e-22)
(0.877889 0.259927 -2.65487e-22)
(0.830525 0.250525 -2.44422e-22)
(0.74874 0.230086 -4.48647e-25)
(0.638989 0.200056 0)
(0.509089 0.162417 0)
(0.367077 0.119377 -3.80762e-25)
(0.219898 0.0729187 0)
(0.0726436 0.0245799 0)
(0.779459 0.217493 6.01257e-25)
(0.848997 0.241731 -2.80144e-22)
(0.880659 0.255727 2.64496e-22)
(0.872529 0.258261 2.50745e-22)
(0.825769 0.249051 0)
(0.744542 0.228779 4.48365e-25)
(0.635352 0.198914 0)
(0.506118 0.161472 0)
(0.364875 0.118664 1.08095e-24)
(0.218541 0.0724695 0)
(0.0721815 0.0244231 0)
(0.668566 0.182409 -3.63467e-24)
(0.771749 0.21506 -2.65043e-22)
(0.842083 0.239585 -2.60604e-22)
(0.874617 0.253871 -2.20342e-24)
(0.867202 0.256621 9.47923e-25)
(0.821015 0.247578 -2.239e-22)
(0.740312 0.227461 0)
(0.631704 0.197766 0)
(0.503147 0.160523 0)
(0.362649 0.117939 -1.02232e-24)
(0.217192 0.0720216 0)
(0.071721 0.0242657 0)
(0.530938 0.141469 2.70666e-24)
(0.660066 0.179768 3.34097e-23)
(0.763931 0.212684 2.78257e-22)
(0.835305 0.237552 -5.14826e-22)
(0.86869 0.252069 1.91571e-24)
(0.861909 0.254989 2.16527e-22)
(0.816247 0.2461 0)
(0.736054 0.226132 0)
(0.628031 0.196609 -3.81173e-22)
(0.500156 0.159566 0)
(0.36046 0.117228 3.4529e-22)
(0.215853 0.071573 3.17891e-22)
(0.0712705 0.0241172 0)
(0.376013 0.0976673 0)
(0.521627 0.138687 2.97031e-22)
(0.651216 0.177142 2.63245e-22)
(0.756397 0.210506 2.74363e-22)
(0.82879 0.235611 -2.43374e-22)
(0.862878 0.250296 -1.67493e-24)
(0.856636 0.253366 0)
(0.811457 0.244618 -7.28709e-25)
(0.731792 0.224804 3.47225e-22)
(0.624366 0.195455 0)
(0.497186 0.158615 -2.92999e-22)
(0.358288 0.116515 -2.58846e-22)
(0.214524 0.07113 0)
(0.0708138 0.0239665 0)
(0.365756 0.0948844 -5.97312e-23)
(0.250571 0.0639678 -2.18181e-24)
(0.253814 0.0648619 -1.41886e-22)
(0.511309 0.135732 -3.09143e-22)
(0.642923 0.174858 2.23215e-24)
(0.749428 0.208488 2.5544e-22)
(0.822566 0.233741 -1.70258e-24)
(0.857173 0.248557 1.67682e-24)
(0.851385 0.251753 1.4559e-24)
(0.806672 0.243138 1.41078e-24)
(0.727512 0.223469 -1.00418e-24)
(0.620692 0.194292 0)
(0.494223 0.15766 0)
(0.356117 0.115802 2.93306e-22)
(0.21321 0.0706915 0)
(0.0703666 0.0238159 0)
(0.352104 0.0912651 6.77716e-23)
(0.238209 0.0606796 9.90054e-23)
(0.245588 0.0628339 0)
(0.167159 0.0421633 2.22413e-24)
(0.169395 0.042658 1.02398e-22)
(0.256176 0.0653423 0)
(0.502235 0.13331 -5.5265e-26)
(0.635731 0.172838 4.01694e-24)
(0.742989 0.206586 2.28436e-22)
(0.816565 0.231935 3.28826e-24)
(0.851556 0.246847 1.8976e-22)
(0.846163 0.25015 -1.82097e-22)
(0.801883 0.241656 -1.00161e-24)
(0.723244 0.222134 3.19928e-25)
(0.617037 0.193133 3.10317e-22)
(0.4913 0.156718 -2.49297e-22)
(0.353985 0.115102 -2.71216e-22)
(0.211896 0.0702534 -2.40308e-22)
(0.0699297 0.0236694 0)
(0.342009 0.088484 4.84015e-24)
(0.219944 0.0562002 -2.45784e-22)
(0.228186 0.0578739 7.89887e-23)
(0.15543 0.0391846 0)
(0.163406 0.0412656 2.37711e-23)
(0.103562 0.0259033 -3.86602e-23)
(0.10438 0.026086 7.9908e-23)
(0.105343 0.0262846 3.29146e-25)
(0.170819 0.0429873 0)
(0.104944 0.0261763 4.10014e-23)
(0.495259 0.131357 2.86672e-22)
(0.629475 0.171023 -2.55404e-22)
(0.73698 0.204811 2.06412e-22)
(0.810769 0.230198 -1.99189e-22)
(0.846029 0.24517 4.18375e-24)
(0.840972 0.24856 0)
(0.797112 0.24018 3.19142e-25)
(0.718989 0.220803 -2.8217e-22)
(0.613407 0.19198 2.90292e-22)
(0.488386 0.155777 2.30536e-22)
(0.351884 0.114411 1.95316e-22)
(0.210626 0.0698274 -2.20269e-22)
(0.0695012 0.0235255 -2.45018e-22)
(0.336163 0.0866745 -3.30292e-22)
(0.211975 0.0537525 1.86852e-24)
(0.214793 0.0546406 0)
(0.131079 0.0331017 1.14015e-22)
(0.141212 0.0352329 -6.71195e-23)
(0.090967 0.0224656 2.38613e-24)
(0.0969566 0.0244906 -1.91794e-24)
(0.102369 0.0257144 0)
(0.100372 0.0251933 -1.77952e-25)
(0.0606673 0.0150665 5.39032e-25)
(0.0611252 0.0151519 -3.66433e-23)
(0.105712 0.026362 -3.29228e-25)
(0.0616175 0.0152585 3.63782e-23)
(0.106007 0.0264406 -4.3762e-23)
(0.0613921 0.0152082 0)
(0.489731 0.129774 -2.44458e-22)
(0.623852 0.169395 -2.29454e-22)
(0.731295 0.203142 0)
(0.805141 0.228518 3.63775e-22)
(0.840585 0.243522 -6.83493e-25)
(0.835821 0.246981 0)
(0.792368 0.238711 1.50637e-22)
(0.714765 0.219477 -2.6399e-22)
(0.609829 0.19084 -2.43298e-25)
(0.485542 0.154853 2.54686e-22)
(0.349797 0.113718 1.79411e-22)
(0.209379 0.0694081 -6.93188e-23)
(0.0690766 0.0233834 0)
(0.332246 0.0855922 2.89281e-22)
(0.208691 0.0527484 -1.69035e-24)
(0.209978 0.0531107 -1.87106e-24)
(0.125433 0.0313051 1.60449e-24)
(0.127095 0.03185 -2.73972e-23)
(0.0621577 0.0156834 3.60031e-23)
(0.0647968 0.01639 -3.9464e-23)
(0.0799105 0.018816 -6.53868e-24)
(0.0702157 0.0179221 5.82327e-25)
(0.0516892 0.0121133 2.20964e-24)
(0.0562739 0.0140812 0)
(0.0599718 0.014941 0)
(0.0587172 0.0146983 -3.36464e-23)
(0.0195862 0.00481926 -2.02628e-25)
(0.0197054 0.00484297 2.02731e-25)
(0.061806 0.0153092 -3.70867e-23)
(0.0198469 0.0048766 -4.48201e-25)
(0.0619712 0.0153436 4.00622e-23)
(0.0197979 0.00486918 -2.73149e-23)
(0.485022 0.128457 -2.24031e-22)
(0.618688 0.167917 1.969e-22)
(0.725881 0.20156 -3.68575e-22)
(0.799672 0.226888 -1.66317e-22)
(0.835216 0.241898 -1.55087e-22)
(0.830711 0.245417 -2.93301e-22)
(0.787655 0.237249 -2.80084e-25)
(0.710585 0.218162 0)
(0.606293 0.189706 -2.23834e-22)
(0.482726 0.153932 0)
(0.347774 0.113048 1.6461e-22)
(0.208154 0.0689953 0)
(0.0686625 0.0232445 8.01139e-23)
(0.329086 0.0848101 3.12633e-22)
(0.206666 0.0522923 1.59681e-24)
(0.207509 0.0524859 1.00328e-22)
(0.123726 0.0308403 2.32974e-23)
(0.124401 0.0310252 2.2382e-23)
(0.0600047 0.0148474 -3.15997e-23)
(0.0602003 0.0149115 -5.19892e-25)
(0.0610451 0.0151907 3.64362e-23)
(0.0604741 0.0150067 -3.30335e-23)
(0.0201041 0.00507173 -2.89955e-23)
(0.0215074 0.00561972 4.18646e-23)
(0.0346815 0.00598359 -1.86847e-24)
(0.0238031 0.00627245 -1.03079e-23)
(0.0169094 0.00433727 -3.63457e-23)
(0.0181168 0.00463745 -2.47604e-23)
(0.019398 0.00478556 -2.44105e-23)
(0.0190232 0.00472752 -2.46354e-23)
(0.0198965 0.00489233 2.10676e-25)
(0.0199431 0.00490057 2.99008e-23)
(0.48083 0.127307 -2.26443e-22)
(0.61386 0.166545 1.96579e-22)
(0.720674 0.20004 3.40981e-22)
(0.794307 0.225293 7.49436e-24)
(0.829912 0.240296 1.47758e-22)
(0.825649 0.243867 0)
(0.782995 0.235801 0)
(0.706465 0.216858 0)
(0.602812 0.188586 2.36994e-22)
(0.479977 0.153031 2.23158e-22)
(0.345796 0.112387 0)
(0.206958 0.0685902 0)
(0.068255 0.0231083 0)
(0.32631 0.0841241 5.47357e-23)
(0.204962 0.0519079 -8.68591e-23)
(0.205697 0.0520867 -5.35434e-24)
(0.122668 0.0306097 0)
(0.123153 0.030723 -9.31141e-23)
(0.0595203 0.0147159 2.90703e-23)
(0.0595889 0.0147454 -3.03289e-23)
(0.0598165 0.014799 3.02825e-23)
(0.059699 0.0147746 -3.12589e-23)
(0.0192547 0.00473321 4.46146e-23)
(0.0193144 0.00475504 -2.24571e-23)
(0.0196061 0.00485431 0)
(0.0193995 0.00477939 4.71019e-23)
(0.0096206 0.0015326 2.54858e-24)
(0.47698 0.126258 -1.62474e-24)
(0.609265 0.165244 -3.46523e-22)
(0.715621 0.198573 1.63917e-22)
(0.789046 0.223733 0)
(0.824673 0.238716 0)
(0.820638 0.242331 0)
(0.77839 0.234365 1.23144e-22)
(0.702401 0.21557 -9.81713e-23)
(0.599407 0.187484 -1.96278e-22)
(0.477292 0.152145 -2.09412e-22)
(0.343859 0.111739 1.91919e-22)
(0.205784 0.0681947 0)
(0.06786 0.0229777 -6.67425e-23)
(0.323749 0.0834739 -4.89348e-23)
(0.203391 0.051527 -8.39294e-23)
(0.204067 0.0517042 -8.1274e-23)
(0.121739 0.0304037 9.92053e-23)
(0.122195 0.0305129 -8.40555e-23)
(0.059131 0.0146289 0)
(0.0591991 0.0146583 -2.66771e-23)
(0.0593885 0.0146938 2.78327e-23)
(0.0593028 0.0146774 2.74285e-23)
(0.01912 0.00469645 -2.28355e-25)
(0.0191356 0.00470754 -2.09382e-23)
(0.0192082 0.0047193 -2.63991e-25)
(0.0191583 0.0047116 2.12461e-23)
(0.473333 0.12527 1.91569e-22)
(0.60485 0.164003 -1.53117e-22)
(0.710683 0.197143 -1.40574e-22)
(0.783866 0.222199 1.32159e-22)
(0.819496 0.237154 1.25924e-22)
(0.815685 0.240808 8.82028e-25)
(0.773848 0.232942 -1.1017e-22)
(0.69842 0.214296 0)
(0.596081 0.186399 1.84154e-22)
(0.474686 0.151282 -1.62732e-22)
(0.341983 0.111109 -1.53684e-25)
(0.204653 0.0678114 0)
(0.067469 0.0228507 6.26863e-23)
(0.321315 0.0828501 8.19348e-25)
(0.201892 0.0511543 6.84588e-24)
(0.202546 0.0513288 7.17605e-23)
(0.120831 0.030184 1.65391e-23)
(0.121271 0.0302969 9.21471e-23)
(0.0587234 0.0145358 -2.3958e-23)
(0.0587966 0.0145668 -2.359e-23)
(0.0589927 0.0146056 8.18426e-25)
(0.0589054 0.0145872 -1.00399e-24)
(0.0190053 0.00466882 1.82466e-23)
(0.0190247 0.00468059 1.95791e-25)
(0.0190871 0.00468862 -2.01031e-23)
(0.0190445 0.00468268 -2.86729e-25)
(0.469838 0.124324 1.75308e-22)
(0.600558 0.162794 1.55943e-22)
(0.705843 0.195742 -1.4137e-22)
(0.778753 0.220685 -1.30409e-22)
(0.814372 0.235604 -3.58602e-24)
(0.810788 0.239297 1.1192e-22)
(0.76938 0.231533 0)
(0.694527 0.213041 0)
(0.592852 0.185336 -1.99045e-22)
(0.472131 0.150426 0)
(0.340137 0.110484 1.53589e-25)
(0.203529 0.0674312 -1.52632e-22)
(0.06707 0.0227153 -6.40395e-23)
(0.318966 0.0822387 3.77755e-23)
(0.200432 0.0507865 -5.99983e-23)
(0.201064 0.0509564 6.32132e-23)
(0.119949 0.0299682 6.364e-23)
(0.120387 0.0300799 -5.1477e-23)
(0.0583046 0.0144332 0)
(0.0583777 0.0144634 -4.20921e-23)
(0.0585788 0.0145079 0)
(0.0584873 0.0144873 -1.01657e-24)
(0.0188764 0.00463822 1.22752e-25)
(0.0189003 0.00465066 1.69771e-23)
(0.0189695 0.0046608 3.53642e-23)
(0.0189249 0.00465395 -2.84319e-25)
(0.466455 0.123405 2.7833e-25)
(0.596357 0.161614 -1.26677e-22)
(0.701084 0.194366 1.19275e-22)
(0.773688 0.219184 -1.21106e-22)
(0.80929 0.234064 -1.12139e-22)
(0.805958 0.237797 -1.03997e-22)
(0.765 0.230139 1.88802e-25)
(0.690723 0.211802 1.81134e-22)
(0.589693 0.184288 0)
(0.469656 0.149595 0)
(0.338348 0.109878 1.23894e-22)
(0.202409 0.0670503 0)
(0.0666828 0.0225845 -6.38158e-26)
(0.31668 0.0816407 -3.16169e-23)
(0.199005 0.0504197 -5.25889e-23)
(0.199628 0.0505901 -6.11849e-23)
(0.119085 0.029755 4.33362e-23)
(0.119516 0.0298637 -8.53881e-23)
(0.0578849 0.0143313 0)
(0.0579623 0.0143617 -1.79356e-23)
(0.0581626 0.0144057 -1.89949e-23)
(0.0580726 0.0143857 -1.95191e-23)
(0.0187409 0.00460462 1.39998e-23)
(0.0187673 0.00461702 2.59658e-25)
(0.0188369 0.00462918 1.52709e-23)
(0.0187917 0.00462219 -3.03951e-23)
(0.463163 0.122509 2.24348e-23)
(0.592228 0.160452 -1.32611e-22)
(0.696361 0.193001 -2.18121e-25)
(0.768666 0.217696 0)
(0.80426 0.232533 1.03854e-22)
(0.801191 0.236305 0)
(0.760709 0.228759 9.33629e-23)
(0.687021 0.210587 -1.80572e-25)
(0.586617 0.183263 0)
(0.467222 0.148775 0)
(0.336558 0.109273 0)
(0.20131 0.0666766 -1.51565e-22)
(0.0663207 0.0224586 0)
(0.314448 0.0810534 1.14781e-22)
(0.197612 0.0500645 5.21764e-23)
(0.198228 0.050231 0)
(0.118242 0.0295415 3.82277e-23)
(0.118663 0.0296496 -1.15895e-23)
(0.057477 0.0142303 0)
(0.057548 0.0142608 1.635e-23)
(0.0577451 0.0143029 1.03864e-24)
(0.0576544 0.014283 3.28257e-23)
(0.0186049 0.00457163 1.2111e-23)
(0.0186324 0.00458394 2.64291e-25)
(0.018702 0.00459617 2.71325e-23)
(0.0186568 0.00458924 0)
(0.459917 0.121623 0)
(0.58815 0.159305 0)
(0.691666 0.191642 1.85171e-26)
(0.763647 0.216201 1.87615e-25)
(0.799257 0.230997 3.86574e-25)
(0.796495 0.234819 -9.07471e-23)
(0.756507 0.227394 0)
(0.683402 0.209388 0)
(0.58361 0.182255 8.7826e-23)
(0.464838 0.14797 0)
(0.334794 0.108672 1.22933e-22)
(0.200216 0.0662947 1.24174e-25)
(0.0659254 0.0223236 -1.07961e-22)
(0.31227 0.080478 0)
(0.196256 0.049715 6.57436e-24)
(0.196857 0.0498787 0)
(0.117415 0.0293342 -9.08245e-24)
(0.11783 0.0294405 -1.98059e-23)
(0.0570705 0.0141292 0)
(0.0571424 0.0141583 8.10668e-25)
(0.0573377 0.014202 1.50022e-23)
(0.0572495 0.0141813 1.36317e-23)
(0.0184753 0.00453952 0)
(0.0184997 0.00455244 0)
(0.0185664 0.00456299 2.3501e-23)
(0.0185198 0.00455629 -2.28838e-23)
(0.456723 0.120751 -9.82493e-23)
(0.584072 0.158156 0)
(0.686959 0.190278 9.09195e-23)
(0.758631 0.2147 -1.87541e-25)
(0.794286 0.229455 0)
(0.791865 0.233334 0)
(0.752393 0.226042 0)
(0.67987 0.20821 -7.97719e-23)
(0.580669 0.181265 0)
(0.462454 0.14716 0)
(0.333047 0.108069 0)
(0.199107 0.06591 1.00448e-22)
(0.0655114 0.0221875 -2.07226e-22)
(0.310101 0.0799042 1.13541e-22)
(0.19492 0.049372 3.29325e-23)
(0.195518 0.0495332 1.46194e-25)
(0.116608 0.0291305 2.88486e-23)
(0.117013 0.029234 -8.21736e-24)
(0.0566701 0.0140317 0)
(0.0567439 0.0140577 1.19391e-23)
(0.0569321 0.0141015 8.84172e-25)
(0.0568606 0.0140854 9.77347e-25)
(0.0183422 0.00450694 0)
(0.0183679 0.00451928 2.53764e-25)
(0.0184357 0.00453122 0)
(0.018392 0.004524 -2.77761e-25)
(0.453524 0.119877 -5.68266e-25)
(0.579974 0.157005 -1.00929e-22)
(0.682205 0.188898 0)
(0.753576 0.213173 0)
(0.789328 0.227895 2.96171e-25)
(0.787298 0.23185 0)
(0.748358 0.224706 0)
(0.676398 0.207048 1.57523e-25)
(0.577745 0.180277 -8.38605e-23)
(0.460098 0.146356 0)
(0.331258 0.107454 1.68597e-22)
(0.197979 0.0655233 1.10121e-22)
(0.0650973 0.0220463 1.01402e-22)
(0.307967 0.0793389 -1.87418e-23)
(0.193606 0.0490349 2.74138e-23)
(0.194198 0.0491941 -3.01139e-23)
(0.115816 0.0289312 -3.09854e-23)
(0.116217 0.0290322 -1.3785e-23)
(0.0562852 0.0139359 0)
(0.0563567 0.0139609 1.00192e-23)
(0.0565389 0.0140032 0)
(0.0564714 0.0139878 9.72495e-25)
(0.0182101 0.00447597 0)
(0.0182491 0.00448909 -7.78681e-24)
(0.0183029 0.00449918 2.96453e-25)
(0.0182626 0.00449232 8.46709e-24)
(0.450303 0.118999 3.64376e-25)
(0.57581 0.155833 0)
(0.677343 0.187475 5.61961e-25)
(0.748459 0.211604 0)
(0.78437 0.22631 -6.72192e-23)
(0.782785 0.230368 7.10859e-23)
(0.744389 0.223386 -1.51263e-25)
(0.672969 0.205898 7.62597e-23)
(0.574828 0.179289 -3.13732e-25)
(0.457722 0.145542 -1.42655e-22)
(0.329471 0.106835 0)
(0.196812 0.0651142 0)
(0.0646783 0.0219049 -2.61299e-22)
(0.305827 0.0787686 -1.5718e-23)
(0.192306 0.0486957 -1.03058e-25)
(0.192892 0.0488557 5.5553e-23)
(0.115036 0.028737 -3.09285e-23)
(0.115431 0.0288342 1.7146e-23)
(0.0559035 0.0138415 0)
(0.0559745 0.0138657 0)
(0.0561546 0.0139067 9.14113e-25)
(0.0560862 0.0138917 9.53933e-25)
(0.0180881 0.00444603 6.04657e-24)
(0.0181256 0.00445868 5.15139e-26)
(0.0181776 0.00446804 6.94467e-24)
(0.0181385 0.00446126 1.37696e-23)
(0.447007 0.118097 0)
(0.571481 0.154613 0)
(0.672316 0.185987 -6.06472e-23)
(0.743235 0.209971 1.26572e-22)
(0.7794 0.224698 -7.12747e-23)
(0.778316 0.228897 -6.87305e-23)
(0.740464 0.222083 -1.45134e-25)
(0.669546 0.204749 7.92194e-23)
(0.571903 0.178294 -8.22247e-23)
(0.455322 0.144711 0)
(0.327638 0.106193 0)
(0.195639 0.0647025 1.34304e-22)
(0.0642559 0.0217594 1.34683e-22)
(0.303635 0.0781847 0)
(0.191029 0.0483602 -1.65554e-23)
(0.19162 0.0485241 2.54709e-23)
(0.114277 0.0285431 -3.84925e-24)
(0.114665 0.0286408 -2.78093e-23)
(0.0555342 0.0137513 0)
(0.0556008 0.013774 6.60044e-24)
(0.055779 0.0138136 7.29418e-24)
(0.0557115 0.0137981 7.10888e-24)
(0.0179636 0.00441565 4.77347e-24)
(0.0180015 0.0044281 0)
(0.0180539 0.00443733 1.15035e-23)
(0.018013 0.00443046 5.76129e-24)
(0.443561 0.117162 -5.45836e-23)
(0.566895 0.153314 6.69598e-23)
(0.667038 0.184389 -6.14081e-23)
(0.737863 0.20826 0)
(0.774425 0.223081 6.90357e-23)
(0.773886 0.227445 0)
(0.73656 0.22079 -1.48153e-22)
(0.666126 0.203597 7.43128e-23)
(0.568953 0.177281 -8.24213e-23)
(0.452878 0.143859 0)
(0.325771 0.105533 0)
(0.194439 0.064276 1.99826e-22)
(0.0638015 0.0216073 2.68878e-23)
(0.301369 0.0775832 5.32065e-23)
(0.189738 0.0480238 1.16297e-23)
(0.190347 0.0481913 0)
(0.113528 0.0283518 1.04414e-23)
(0.113904 0.0284458 -6.43081e-24)
(0.0551673 0.0136583 0)
(0.0552374 0.01368 4.95514e-24)
(0.0554075 0.0137227 5.72231e-24)
(0.0553423 0.0137089 -4.78589e-24)
(0.0178472 0.0043871 3.63199e-24)
(0.0178808 0.00439899 3.20374e-26)
(0.0179336 0.00440799 4.40126e-24)
(0.0178926 0.00440046 4.19195e-24)
(0.439808 0.116147 6.95018e-25)
(0.561866 0.151861 -3.74737e-23)
(0.661384 0.182634 0)
(0.732367 0.206498 4.45494e-23)
(0.769461 0.22148 -1.25764e-25)
(0.769495 0.226017 1.38114e-22)
(0.732666 0.219497 5.79155e-25)
(0.662675 0.202426 1.51303e-22)
(0.565965 0.176248 0)
(0.450381 0.142982 -3.40407e-25)
(0.323861 0.104856 -1.61514e-22)
(0.193199 0.0638374 4.90009e-23)
(0.0633224 0.0214462 2.05826e-22)
(0.298879 0.0769269 2.28095e-24)
(0.188437 0.0476796 0)
(0.189049 0.0478501 2.63394e-23)
(0.11279 0.0281635 -1.07116e-23)
(0.113161 0.0282555 2.01467e-24)
(0.0548099 0.0135704 3.2363e-24)
(0.0548822 0.0135914 3.44638e-24)
(0.0550456 0.0136307 9.68133e-25)
(0.0549838 0.013618 4.06651e-24)
(0.0177258 0.00435554 2.45261e-24)
(0.0177627 0.00436701 0)
(0.0178096 0.0043792 3.16046e-24)
(0.0177798 0.00437594 2.09899e-25)
(0.435488 0.114976 4.27769e-23)
(0.55619 0.150173 -1.62149e-25)
(0.65537 0.180734 -4.78691e-23)
(0.726811 0.204743 4.64573e-23)
(0.764558 0.219927 -1.25949e-22)
(0.765149 0.224605 0)
(0.728767 0.218195 -7.09286e-23)
(0.659195 0.201235 0)
(0.562915 0.175184 0)
(0.447844 0.142083 3.40329e-25)
(0.321913 0.10416 -3.84757e-22)
(0.191908 0.0633784 -1.90971e-22)
(0.0628351 0.0212802 -2.09462e-22)
(0.295896 0.0761703 0)
(0.186996 0.0473042 7.48783e-24)
(0.187721 0.0475021 -1.11745e-23)
(0.112039 0.0279706 -6.41685e-25)
(0.112428 0.0280671 -8.77634e-24)
(0.05447 0.0134841 1.73212e-24)
(0.0545363 0.0135054 -2.02225e-24)
(0.0546955 0.0135441 0)
(0.0546359 0.0135295 -2.59284e-24)
(0.0176092 0.00432778 1.35927e-24)
(0.0176473 0.00433858 0)
(0.0176907 0.00434954 4.47382e-24)
(0.0176629 0.00434679 -2.19869e-24)
(0.430205 0.113509 0)
(0.549647 0.148146 1.61692e-25)
(0.649119 0.178801 -5.02865e-23)
(0.721359 0.203077 6.17133e-23)
(0.759773 0.218417 -9.49365e-25)
(0.760844 0.223196 0)
(0.724856 0.216876 -1.08187e-24)
(0.655668 0.200018 5.93101e-25)
(0.559823 0.174094 0)
(0.44526 0.141159 3.67917e-22)
(0.31993 0.103444 3.96817e-25)
(0.190569 0.0628966 4.43073e-25)
(0.0623362 0.0211127 2.41026e-23)
(0.291872 0.0751336 3.32839e-24)
(0.185175 0.0468632 3.64349e-27)
(0.186165 0.0471144 -3.64085e-27)
(0.111248 0.0277677 -7.54804e-25)
(0.111683 0.027872 1.82133e-25)
(0.0541305 0.0133986 9.34783e-25)
(0.0542015 0.0134209 7.72782e-25)
(0.0543546 0.0134578 -1.31561e-24)
(0.0542978 0.0134447 0)
(0.0175041 0.00430092 0)
(0.0175364 0.00431183 6.33013e-25)
(0.0175797 0.00432302 -1.09027e-24)
(0.017552 0.00431871 -1.05311e-24)
(0.423212 0.111445 2.95682e-23)
(0.54247 0.145956 0)
(0.643041 0.177031 3.57906e-25)
(0.71616 0.201498 0)
(0.755121 0.216934 8.81233e-25)
(0.756573 0.221784 0)
(0.720924 0.21554 5.33731e-25)
(0.652104 0.198775 -5.93011e-25)
(0.556691 0.172978 2.73109e-24)
(0.442649 0.140211 3.76446e-25)
(0.317871 0.102694 0)
(0.189223 0.0624152 -2.47205e-22)
(0.0618236 0.020938 2.29052e-23)
(0.284834 0.0732794 -3.43498e-23)
(0.182071 0.0461362 -5.45673e-24)
(0.183911 0.0466095 7.38425e-26)
(0.110294 0.0275378 -2.00599e-24)
(0.110846 0.027659 1.53149e-24)
(0.053796 0.013316 0)
(0.0538678 0.0133378 9.77107e-25)
(0.0540204 0.0133724 1.37285e-25)
(0.0539649 0.0133583 -3.71367e-25)
(0.0173944 0.00427425 -1.29634e-24)
(0.0174306 0.00428571 -5.8965e-25)
(0.0174701 0.00429541 1.31641e-26)
(0.0174443 0.00429256 -3.87271e-26)
(0.414526 0.108868 -4.57167e-23)
(0.535606 0.144079 0)
(0.637491 0.175421 6.73521e-25)
(0.711255 0.199978 -4.14274e-23)
(0.750589 0.215471 -4.21083e-25)
(0.752333 0.22037 0)
(0.716981 0.214184 0)
(0.648503 0.197504 -2.28823e-22)
(0.553512 0.17183 -1.76161e-22)
(0.439968 0.139231 4.27965e-25)
(0.315795 0.101933 0)
(0.187851 0.0619131 -2.81464e-22)
(0.0612947 0.0207581 3.49687e-22)
(0.272624 0.0699498 2.3209e-23)
(0.174337 0.0440708 1.37375e-24)
(0.179231 0.0455853 7.17993e-24)
(0.108595 0.0271778 0)
(0.109647 0.0273842 -2.52843e-24)
(0.0534348 0.0132268 4.08574e-24)
(0.0535235 0.013252 2.56768e-24)
(0.0536779 0.0132849 0)
(0.0536269 0.0132704 8.42067e-25)
(0.0172927 0.00424941 -1.95821e-24)
(0.017326 0.00426011 -1.50762e-24)
(0.0173642 0.00426866 -1.06202e-24)
(0.0173382 0.00426524 0)
(0.406557 0.106803 -5.75619e-25)
(0.529841 0.142483 -3.70598e-23)
(0.632518 0.173924 1.38307e-23)
(0.706621 0.19852 -5.79002e-25)
(0.746168 0.214029 0)
(0.748125 0.218951 0)
(0.713028 0.21281 6.87356e-23)
(0.644884 0.196211 1.6e-22)
(0.550296 0.170658 3.78213e-25)
(0.437266 0.138227 -4.27873e-25)
(0.313657 0.101137 -2.8291e-22)
(0.186454 0.0614012 -3.22565e-22)
(0.0607498 0.0205681 3.98154e-22)
(0.262732 0.067411 6.42483e-25)
(0.155892 0.0396799 -1.46122e-23)
(0.16533 0.041394 8.68789e-23)
(0.103459 0.025958 -1.14542e-24)
(0.106966 0.0268514 -6.17463e-24)
(0.0528366 0.0130982 0)
(0.0530575 0.0131441 -4.99268e-24)
(0.0533007 0.0131961 -9.51044e-25)
(0.0531974 0.0131659 -4.85931e-24)
(0.0171834 0.00422294 -6.31639e-24)
(0.0172241 0.00423415 -2.73015e-24)
(0.0172619 0.00424284 0)
(0.0172355 0.0042392 1.53565e-25)
(0.400824 0.105211 1.72048e-23)
(0.525071 0.14107 3.35968e-23)
(0.627984 0.172529 0)
(0.702196 0.197114 5.79854e-25)
(0.741843 0.212604 -3.42383e-23)
(0.743952 0.217527 -3.94514e-25)
(0.709074 0.211417 2.52053e-25)
(0.641237 0.19489 0)
(0.547053 0.169454 -3.78061e-25)
(0.434506 0.13719 4.81574e-22)
(0.311527 0.100335 2.8484e-25)
(0.185003 0.0608566 -3.65923e-22)
(0.0601638 0.0203757 0)
(0.257864 0.065808 3.32455e-23)
(0.147578 0.0371615 -7.35777e-24)
(0.150108 0.0379916 -5.22289e-26)
(0.0777132 0.0201049 1.41105e-23)
(0.0919878 0.0225773 -3.60859e-23)
(0.0491618 0.0119948 -8.41499e-25)
(0.0511736 0.0128612 -5.58587e-26)
(0.0525615 0.0130571 3.96499e-26)
(0.0520595 0.0129654 6.52954e-24)
(0.0170229 0.00418295 0)
(0.0170964 0.00419971 -4.39489e-25)
(0.0171587 0.00421886 3.10116e-24)
(0.0171137 0.00420681 -1.84394e-25)
(0.396718 0.103988 2.49967e-24)
(0.52097 0.139833 2.19754e-24)
(0.623802 0.171238 -2.42187e-25)
(0.697955 0.195755 1.62526e-23)
(0.737617 0.211196 5.79132e-25)
(0.739817 0.216096 3.94695e-25)
(0.70513 0.210004 -5.03749e-25)
(0.637572 0.193539 0)
(0.543789 0.168224 -2.12908e-22)
(0.431724 0.136126 2.73328e-25)
(0.309313 0.0994902 -3.40986e-22)
(0.183487 0.0602979 0)
(0.0595533 0.0201712 -1.01424e-21)
(0.255155 0.0650083 4.96302e-24)
(0.14528 0.0363406 -3.76856e-24)
(0.146115 0.0365873 1.48522e-23)
(0.0716174 0.0177405 7.16705e-24)
(0.0727489 0.0182938 -1.87473e-25)
(0.0183971 0.00494529 -2.08109e-24)
(0.0205899 0.00508521 2.28567e-24)
(0.044805 0.0102315 -1.08807e-24)
(0.0301794 0.0050651 0)
(0.0157633 0.00401751 3.35209e-24)
(0.0164806 0.00412085 7.49994e-26)
(0.0169433 0.0041682 4.77977e-24)
(0.0167796 0.00414263 3.65955e-25)
(0.3934 0.103023 -2.46366e-24)
(0.517294 0.138734 7.03928e-24)
(0.619887 0.170022 1.79991e-23)
(0.693874 0.19443 0)
(0.733473 0.209793 -2.71578e-25)
(0.735721 0.214655 0)
(0.701194 0.20857 5.54232e-23)
(0.633905 0.192163 0)
(0.5405 0.16696 0)
(0.428906 0.135035 3.17574e-24)
(0.307064 0.0986249 0)
(0.181932 0.059719 9.78926e-22)
(0.0589419 0.0199606 -5.69915e-22)
(0.253163 0.064535 1.18617e-23)
(0.144166 0.0361202 1.23349e-25)
(0.14461 0.0362045 -1.29358e-23)
(0.0707031 0.017459 6.93492e-26)
(0.0710509 0.0175576 -1.39763e-23)
(0.0167103 0.00410962 4.89713e-24)
(0.016781 0.0041441 5.53616e-24)
(0.0172635 0.00435917 -2.96795e-24)
(0.0168423 0.00421065 -3.51884e-24)
(0.0146794 0.00369672 -4.45424e-26)
(0.00830656 0.00128487 -7.23422e-23)
(0.39058 0.102224 -7.84449e-24)
(0.513969 0.137738 1.91962e-23)
(0.616181 0.168856 0)
(0.689929 0.193132 0)
(0.729411 0.208396 -1.77767e-23)
(0.731667 0.213202 -5.36227e-23)
(0.697267 0.207111 2.57657e-25)
(0.630229 0.190756 0)
(0.537184 0.165663 2.49893e-22)
(0.426027 0.133901 -3.10238e-22)
(0.304754 0.097726 -4.08421e-22)
(0.180331 0.0591129 0)
(0.0582772 0.0197389 -6.48481e-22)
(0.25146 0.0641307 -1.48837e-23)
(0.143301 0.0359548 0)
(0.143663 0.036033 -1.86131e-23)
(0.07029 0.0173864 0)
(0.0704727 0.0174257 -5.17025e-24)
(0.0166463 0.00408808 -4.96048e-24)
(0.016654 0.00409022 -5.27182e-24)
(0.0166887 0.00410345 0)
(0.0166754 0.00409969 5.00707e-24)
(0.388069 0.101512 -1.87144e-23)
(0.51088 0.136806 2.585e-25)
(0.612654 0.167733 -1.41646e-23)
(0.6861 0.191851 2.06172e-23)
(0.725424 0.206997 -1.21562e-23)
(0.727655 0.211733 -1.62565e-25)
(0.69336 0.205627 -5.44843e-23)
(0.626557 0.189316 0)
(0.533822 0.164324 2.7426e-23)
(0.423111 0.132733 0)
(0.30237 0.0967877 0)
(0.178671 0.0584883 0)
(0.0575986 0.0195152 -7.38795e-22)
(0.249965 0.0637532 0)
(0.142508 0.0357703 0)
(0.142845 0.0358572 2.34326e-23)
(0.0699304 0.0173125 -7.02196e-24)
(0.0701118 0.0173598 0)
(0.0165968 0.00407946 0)
(0.0165986 0.0040806 -5.8742e-24)
(0.0166256 0.00408702 1.0496e-23)
(0.0166249 0.00408606 -4.18892e-26)
(0.385791 0.100863 -2.77695e-25)
(0.507961 0.135915 1.57506e-23)
(0.609259 0.166634 2.07703e-23)
(0.682371 0.190577 1.26694e-23)
(0.721506 0.205591 0)
(0.723685 0.210244 8.01378e-23)
(0.689474 0.204114 -5.44957e-23)
(0.622863 0.187839 3.1022e-22)
(0.530439 0.162948 2.68663e-25)
(0.420157 0.131531 -3.74086e-22)
(0.299941 0.0958216 0)
(0.176971 0.0578445 0)
(0.0569013 0.0192836 8.49548e-22)
(0.248592 0.0633935 3.10062e-25)
(0.141755 0.0355821 0)
(0.142069 0.0356672 0)
(0.0695679 0.0172272 -8.00178e-24)
(0.0697498 0.017277 1.0351e-25)
(0.0165197 0.0040589 -2.77941e-25)
(0.0165313 0.00406419 0)
(0.0165665 0.00407562 6.32997e-24)
(0.0165606 0.00407145 6.59728e-24)
(0.38364 0.100243 4.62665e-25)
(0.505181 0.135054 -2.58939e-23)
(0.605989 0.165556 0)
(0.678745 0.189309 2.0281e-26)
(0.717657 0.204173 -2.74907e-23)
(0.719759 0.208733 5.29557e-23)
(0.6856 0.202568 -1.3851e-22)
(0.61916 0.186323 -9.44147e-23)
(0.527047 0.161537 3.27798e-22)
(0.417144 0.130283 0)
(0.297489 0.0948253 0)
(0.175184 0.0571606 -7.79073e-22)
(0.0561598 0.0190499 9.43846e-22)
(0.247291 0.063044 -1.28374e-25)
(0.141043 0.0353982 1.403e-25)
(0.141339 0.035483 -1.40343e-25)
(0.0692245 0.0171439 0)
(0.0693919 0.0171882 0)
(0.0164384 0.00403991 0)
(0.0164505 0.00404494 8.06702e-24)
(0.016487 0.0040549 7.6014e-24)
(0.0164819 0.00405217 7.84763e-24)
(0.381609 0.0996504 -4.62455e-25)
(0.502532 0.134219 0)
(0.602824 0.164486 4.24712e-23)
(0.675205 0.188036 2.63821e-23)
(0.713879 0.202742 3.16406e-26)
(0.715874 0.207195 5.35939e-23)
(0.681744 0.200987 8.86473e-23)
(0.615468 0.184766 0)
(0.523613 0.160073 0)
(0.414101 0.128986 -4.54585e-22)
(0.294902 0.0937672 0)
(0.173319 0.0564711 0)
(0.0553739 0.0187696 1.07689e-21)
(0.246052 0.0627043 2.71672e-26)
(0.14035 0.0352196 -1.60825e-25)
(0.140648 0.0353062 1.60879e-25)
(0.0688813 0.0170594 0)
(0.0690546 0.0171047 0)
(0.0163685 0.00402197 0)
(0.0163704 0.00402566 -9.40306e-24)
(0.0164082 0.004035 -8.82217e-24)
(0.0164002 0.00403219 9.07212e-24)
(0.379672 0.0990762 -8.73253e-23)
(0.499982 0.133396 -1.16677e-22)
(0.599766 0.16342 -2.85246e-23)
(0.671754 0.186754 0)
(0.710163 0.201289 1.38938e-26)
(0.712031 0.205627 0)
(0.677903 0.199363 0)
(0.611755 0.183159 0)
(0.520124 0.158549 3.98492e-22)
(0.410956 0.127635 0)
(0.292236 0.0926722 0)
(0.171351 0.0557623 -9.87875e-22)
(0.0547466 0.0183395 1.2225e-21)
(0.24487 0.06238 1.02411e-22)
(0.139698 0.0350457 -1.71111e-25)
(0.139975 0.035128 3.63408e-25)
(0.0685483 0.0169763 0)
(0.0687154 0.0170234 0)
(0.0162848 0.00400333 1.08569e-23)
(0.0162989 0.00400794 -1.05415e-23)
(0.0163355 0.00401679 -9.92962e-24)
(0.0163288 0.00401385 1.00929e-23)
(0.377835 0.0985232 8.11163e-23)
(0.497542 0.132583 -2.59232e-25)
(0.596805 0.162348 0)
(0.668382 0.185459 0)
(0.70651 0.199814 -1.75042e-23)
(0.708229 0.204024 -1.72207e-23)
(0.674079 0.197697 -6.15388e-23)
(0.608013 0.181499 0)
(0.516607 0.156979 -3.87639e-25)
(0.407721 0.12622 0)
(0.289508 0.0915406 0)
(0.16923 0.0549001 -1.12129e-21)
(0.0552457 0.0179846 1.42391e-21)
(0.243745 0.0620805 2.37986e-25)
(0.139065 0.0348839 4.05022e-25)
(0.139321 0.0349569 -5.97217e-25)
(0.0682299 0.0168944 0)
(0.0683942 0.0169383 -1.2284e-23)
(0.0162107 0.00398381 1.21006e-23)
(0.0162208 0.00398914 -1.18259e-23)
(0.0162589 0.00400091 0)
(0.0162489 0.00399577 0)
(0.376083 0.0979836 1.16776e-22)
(0.495209 0.131768 9.8103e-23)
(0.593949 0.161271 0)
(0.665094 0.184151 1.82418e-23)
(0.702926 0.198315 1.73176e-23)
(0.704469 0.202383 4.43443e-23)
(0.670267 0.195982 0)
(0.604271 0.179783 0)
(0.513007 0.155336 4.1325e-22)
(0.404481 0.124747 0)
(0.286364 0.0902789 0)
(0.169295 0.0538038 6.15846e-23)
(0.0492512 0.0151463 -5.95714e-23)
(0.242684 0.0618124 -1.37589e-22)
(0.138447 0.0347433 0)
(0.138707 0.0348059 5.81197e-23)
(0.0679264 0.0168192 0)