/*--------------------------------*- C++ -*----------------------------------*\
| =========                 |                                                 |
| \\      /  F ield         | OpenFOAM: The Open Source CFD Toolbox           |
|  \\    /   O peration     | Version:  v1912                                 |
|   \\  /    A nd           | Website:  www.openfoam.com                      |
|    \\/     M anipulation  |                                                 |
\*---------------------------------------------------------------------------*/
FoamFile
{
    version     2.0;
    format      ascii;
    class       volVectorField;
    location    "290";
    object      U;
}
// * * * * * * * * * * * * * * * * * * * * * * * * * * * * * * * * * * * * * //

dimensions      [0 1 -1 0 0 0 0];


internalField   nonuniform List<vector> 
3754
(
(0.0489697 -0.0207107 0)
(0.150237 -0.0618808 -1.93386e-23)
(0.0484702 -0.0205065 8.99713e-24)
(0.252699 -0.102046 0)
(0.148735 -0.0612724 9.51176e-24)
(0.0479925 -0.0203046 -9.05095e-24)
(0.352129 -0.1394 6.80034e-21)
(0.250215 -0.10105 7.43727e-24)
(0.147287 -0.0606782 9.17699e-21)
(0.0475292 -0.0201072 0)
(0.442232 -0.171607 -5.98106e-21)
(0.348683 -0.138033 6.53451e-21)
(0.247781 -0.100068 -7.51781e-21)
(0.145853 -0.0600897 -8.50657e-24)
(0.0470643 -0.0199113 0)
(0.515394 -0.195987 5.2006e-24)
(0.437865 -0.169894 -5.75594e-21)
(0.345287 -0.136689 0)
(0.245387 -0.0991093 2.75971e-25)
(0.144434 -0.059506 8.52704e-24)
(0.0466151 -0.0197206 0)
(0.564002 -0.210088 -2.03873e-25)
(0.510197 -0.193976 -5.22937e-21)
(0.433561 -0.168223 -5.28921e-24)
(0.341954 -0.135377 6.05056e-21)
(0.24301 -0.0981498 6.90868e-24)
(0.14305 -0.0589354 0)
(0.0461637 -0.0195294 0)
(0.582075 -0.212288 4.85773e-24)
(0.558093 -0.207834 4.92687e-21)
(0.50509 -0.192024 0)
(0.429344 -0.166587 -5.32377e-21)
(0.338645 -0.134065 5.82446e-24)
(0.240666 -0.0972016 0)
(0.141676 -0.0583691 0)
(0.0457117 -0.0193376 0)
(0.566808 -0.202287 0)
(0.5756 -0.20985 -4.90395e-21)
(0.552299 -0.205653 0)
(0.500077 -0.19011 -9.23853e-24)
(0.425156 -0.164959 1.48856e-23)
(0.335361 -0.132764 0)
(0.238346 -0.0962655 0)
(0.140303 -0.0578019 0)
(0.0452708 -0.0191491 -7.07523e-24)
(0.519368 -0.181268 -5.63331e-24)
(0.559903 -0.199719 4.9859e-21)
(0.569251 -0.207504 0)
(0.546612 -0.203522 -4.56636e-21)
(0.495107 -0.188214 9.24757e-24)
(0.421002 -0.163344 -3.87394e-25)
(0.332117 -0.13148 0)
(0.236045 -0.0953327 0)
(0.138943 -0.0572403 0)
(0.0448424 -0.0189694 7.10935e-24)
(0.444656 -0.151679 0)
(0.512141 -0.17861 0)
(0.553144 -0.197276 -4.81026e-21)
(0.563059 -0.205233 4.47555e-21)
(0.541013 -0.201424 -4.40139e-21)
(0.490189 -0.186335 0)
(0.416895 -0.161744 -9.42317e-24)
(0.328894 -0.130199 0)
(0.233768 -0.0944134 0)
(0.137621 -0.056693 7.04763e-21)
(0.0444105 -0.0187898 0)
(0.350066 -0.116664 3.76852e-21)
(0.437113 -0.148927 -2.31575e-23)
(0.505105 -0.176139 5.11516e-21)
(0.546647 -0.194949 -1.83984e-23)
(0.557022 -0.20301 4.2989e-21)
(0.53549 -0.199352 0)
(0.485325 -0.184474 0)
(0.412814 -0.160155 0)
(0.325718 -0.128938 0)
(0.231521 -0.0934979 -5.73134e-21)
(0.1363 -0.0561506 -6.77941e-21)
(0.0439861 -0.0186103 0)
(0.244142 -0.0794761 -5.34776e-21)
(0.342007 -0.113773 3.60498e-24)
(0.429868 -0.146469 1.12302e-24)
(0.498516 -0.173837 0)
(0.540407 -0.192693 0)
(0.551114 -0.200835 1.66191e-23)
(0.530045 -0.197308 -4.08034e-21)
(0.480502 -0.182632 0)
(0.408785 -0.158584 4.36459e-21)
(0.322555 -0.127679 0)
(0.229298 -0.0926021 5.50716e-21)
(0.135011 -0.0556186 -3.12616e-24)
(0.0435663 -0.0184312 0)
(0.163357 -0.052426 1.8612e-21)
(0.234429 -0.0761672 2.11998e-21)
(0.159209 -0.0510254 -1.84365e-21)
(0.334491 -0.111297 0)
(0.423437 -0.144273 -5.61728e-21)
(0.492361 -0.171654 4.86517e-21)
(0.534394 -0.190522 0)
(0.545328 -0.198705 3.99814e-21)
(0.524675 -0.195296 -7.49046e-24)
(0.475745 -0.180813 -7.95603e-21)
(0.404795 -0.157031 0)
(0.319458 -0.126452 -4.60121e-21)
(0.227118 -0.0917172 1.09221e-25)
(0.133732 -0.05509 3.13144e-24)
(0.0431543 -0.0182549 0)
(0.108306 -0.0343457 9.08842e-25)
(0.152917 -0.0485613 -1.83841e-21)
(0.226188 -0.0734676 -9.40741e-22)
(0.146322 -0.0470269 -1.80226e-21)
(0.104621 -0.0332439 1.23039e-21)
(0.328491 -0.109251 6.55125e-21)
(0.417711 -0.14228 -5.41101e-21)
(0.48657 -0.169603 1.7865e-23)
(0.528573 -0.188422 0)
(0.539665 -0.196624 7.71203e-24)
(0.519391 -0.193315 3.76532e-21)
(0.47106 -0.179025 3.80508e-24)
(0.400875 -0.155503 4.03901e-21)
(0.316403 -0.125234 -2.11768e-24)
(0.224979 -0.0908506 2.52265e-24)
(0.132476 -0.054568 0)
(0.0427711 -0.0180919 0)
(0.0666683 -0.0209979 5.73544e-22)
(0.0970333 -0.0302382 0)
(0.141707 -0.0453203 0)
(0.221153 -0.071627 -2.10566e-21)
(0.139132 -0.0444438 3.48421e-21)
(0.0878357 -0.0280472 4.15563e-22)
(0.0630599 -0.0198917 2.24798e-24)
(0.0653136 -0.0206938 0)
(0.32362 -0.107577 -2.55812e-23)
(0.412521 -0.140477 7.55722e-25)
(0.481066 -0.167661 -6.69349e-25)
(0.522933 -0.186392 0)
(0.534118 -0.194586 0)
(0.514194 -0.191369 0)
(0.466446 -0.17726 0)
(0.397012 -0.153995 1.93045e-24)
(0.313417 -0.124047 2.11935e-24)
(0.222884 -0.0899975 2.31534e-24)
(0.131283 -0.0540705 -5.74368e-21)
(0.0423779 -0.0179269 0)
(0.0389676 -0.012195 0)
(0.0591855 -0.0185516 0)
(0.0524092 -0.0155322 -3.30565e-22)
(0.0834881 -0.0264022 4.07378e-22)
(0.137318 -0.0436587 6.77264e-21)
(0.217732 -0.0704764 1.96696e-21)
(0.136201 -0.0433503 -3.37015e-21)
(0.081776 -0.0257136 -1.97116e-21)
(0.0420274 -0.0134874 -5.35383e-22)
(0.0454253 -0.014417 -1.82775e-23)
(0.036459 -0.0115065 4.86392e-22)
(0.0381568 -0.0120077 -5.26746e-22)
(0.319417 -0.106159 0)
(0.407708 -0.138818 5.18763e-21)
(0.47581 -0.165808 -1.73032e-23)
(0.517447 -0.184419 0)
(0.528685 -0.192593 -3.42884e-24)
(0.509093 -0.189456 -3.48909e-21)
(0.461901 -0.175524 3.52282e-21)
(0.393236 -0.152522 -3.70604e-21)
(0.310495 -0.122881 -4.06145e-21)
(0.220855 -0.0891673 4.65769e-21)
(0.130101 -0.0535806 -5.50441e-21)
(0.0420043 -0.0177696 0)
(0.012567 -0.00390877 0)
(0.0337766 -0.0102171 4.97671e-22)
(0.0230623 -0.00552749 2.43027e-22)
(0.040219 -0.0126427 -5.85071e-22)
(0.0393964 -0.0123654 8.63408e-24)
(0.0808201 -0.025374 -3.88184e-21)
(0.135149 -0.0429595 -3.31955e-21)
(0.214962 -0.0696179 -1.85087e-21)
(0.134391 -0.0428113 -3.23018e-21)
(0.0802169 -0.0251782 3.03695e-21)
(0.038862 -0.0121235 -4.15755e-24)
(0.0390777 -0.0121822 1.62975e-21)
(0.0138926 -0.00452767 3.70227e-22)
(0.0154146 -0.00507134 0)
(0.0116686 -0.00374241 -3.6426e-22)
(0.0123303 -0.00384777 3.72952e-22)
(0.31564 -0.104897 -5.99403e-21)
(0.403163 -0.137256 -4.9839e-21)
(0.470735 -0.164028 -8.02059e-24)
(0.512108 -0.182503 -3.74987e-21)
(0.523362 -0.19064 3.43306e-21)
(0.50407 -0.187579 -3.33489e-21)
(0.457463 -0.173826 3.37681e-21)
(0.389547 -0.15108 1.18278e-23)
(0.307655 -0.121743 0)
(0.218883 -0.0883631 4.46289e-21)
(0.128967 -0.0531073 0)
(0.0416384 -0.0176167 0)
(0.0109348 -0.00354561 -2.30383e-22)
(0.00640877 -0.00148311 -4.87186e-23)
(0.0129203 -0.00406742 3.94109e-22)
(0.0125829 -0.00392846 7.24542e-22)
(0.0386765 -0.0120431 1.05515e-21)
(0.0385737 -0.0120375 4.06749e-24)
(0.0797294 -0.0250302 2.98689e-21)
(0.133522 -0.0424954 0)
(0.212514 -0.0688522 -1.81797e-21)
(0.132901 -0.0423745 -2.93419e-23)
(0.0792922 -0.0249139 7.5135e-22)
(0.0384153 -0.0119762 -4.02963e-24)
(0.0384579 -0.0119757 -4.11306e-26)
(0.0124112 -0.00384976 7.10543e-22)
(0.0124765 -0.00387456 1.76175e-24)
(0.312117 -0.103727 1.17233e-20)
(0.39884 -0.135781 -9.47302e-24)
(0.46583 -0.162306 4.00254e-21)
(0.506887 -0.18063 3.60785e-21)
(0.51814 -0.188729 -1.58171e-24)
(0.499162 -0.185738 1.59626e-24)
(0.453116 -0.17216 6.47624e-21)
(0.385953 -0.149669 3.40113e-21)
(0.304898 -0.120635 0)
(0.216969 -0.087576 0)
(0.127865 -0.0526511 2.40688e-24)
(0.0412704 -0.0174608 -4.97243e-21)
(0.0123602 -0.00383436 7.01255e-22)
(0.0123299 -0.00383069 6.95569e-22)
(0.0382876 -0.0119172 0)
(0.0382086 -0.0119232 1.01082e-21)
(0.0788691 -0.0247906 -1.1349e-23)
(0.132113 -0.042075 3.05671e-21)
(0.210232 -0.0681321 -1.0292e-20)
(0.131512 -0.0419471 -2.93426e-24)
(0.0784759 -0.0246758 2.84961e-21)
(0.0380654 -0.0118816 9.90851e-22)
(0.0381218 -0.0118735 -9.92386e-22)
(0.0122958 -0.0038134 -6.84498e-22)
(0.0122994 -0.00381757 6.88943e-22)
(0.308808 -0.10263 1.12666e-23)
(0.394673 -0.134353 0)
(0.461044 -0.160631 -3.84344e-21)
(0.501783 -0.178803 3.46649e-21)
(0.513025 -0.186852 1.58314e-24)
(0.49435 -0.183933 -6.14576e-21)
(0.448882 -0.170532 -3.09623e-21)
(0.382453 -0.148289 -1.55437e-24)
(0.302215 -0.119555 0)
(0.215122 -0.0868205 0)
(0.126778 -0.0521978 -4.70314e-24)
(0.0409393 -0.0173152 1.07077e-23)
(0.0122567 -0.00379773 6.79124e-22)
(0.0122249 -0.00379564 -6.71091e-22)
(0.0379406 -0.011825 0)
(0.0378771 -0.0118244 3.7974e-24)
(0.0780775 -0.0245543 -2.772e-24)
(0.130752 -0.0416517 2.95523e-21)
(0.208067 -0.0674312 3.36126e-21)
(0.130169 -0.0415293 2.91782e-21)
(0.0776812 -0.0244354 -2.68394e-24)
(0.0376999 -0.0117714 0)
(0.0377783 -0.0117719 9.68709e-22)
(0.0121815 -0.00378313 -8.47033e-25)
(0.0122104 -0.00378506 -6.69674e-22)
(0.305597 -0.101562 -5.5332e-21)
(0.390622 -0.132974 -2.11196e-24)
(0.456382 -0.159 -3.69131e-21)
(0.496769 -0.177004 0)
(0.508005 -0.18501 3.03083e-21)
(0.48965 -0.182166 0)
(0.444755 -0.16894 -2.89354e-24)
(0.379064 -0.14695 -3.10746e-21)
(0.299637 -0.118513 0)
(0.213327 -0.0860808 3.84961e-21)
(0.125729 -0.0517548 9.16129e-21)
(0.0405983 -0.0171755 0)
(0.0121598 -0.00377347 2.58503e-24)
(0.0121379 -0.00376832 6.54043e-22)
(0.037571 -0.0117109 9.54647e-22)
(0.037511 -0.0117136 0)
(0.0772919 -0.0243085 2.68647e-24)
(0.129446 -0.0412362 -2.84996e-21)
(0.205942 -0.0667494 6.36751e-21)
(0.128881 -0.0411114 -2.81501e-21)
(0.0769042 -0.0241974 6.77799e-22)
(0.0373379 -0.011661 0)
(0.0374119 -0.011663 0)
(0.0120649 -0.0037469 6.45519e-22)
(0.0121008 -0.00375084 -1.3007e-21)
(0.302507 -0.100539 0)
(0.386683 -0.131627 2.11546e-24)
(0.451801 -0.157396 -1.78706e-24)
(0.49185 -0.17524 -3.19412e-21)
(0.503084 -0.183201 2.94057e-21)
(0.485059 -0.180432 -2.82783e-21)
(0.440743 -0.167385 2.83214e-21)
(0.375793 -0.145649 0)
(0.297139 -0.117499 -3.24826e-21)
(0.211571 -0.0853557 -3.69122e-21)
(0.124712 -0.0513351 -2.18436e-24)
(0.0402538 -0.0170321 8.19391e-24)
(0.0120373 -0.00373417 -6.38676e-22)
(0.012011 -0.00373047 6.35767e-22)
(0.0372203 -0.0116032 0)
(0.0371523 -0.0115959 0)
(0.0765135 -0.0240651 6.66459e-22)
(0.128175 -0.0408336 -2.73873e-21)
(0.203916 -0.0660905 -1.55982e-21)
(0.127609 -0.0407123 -3.84193e-23)
(0.0761454 -0.0239538 2.51141e-24)
(0.0369707 -0.0115465 0)
(0.0370353 -0.0115464 -9.03205e-22)
(0.0119589 -0.00371405 6.27852e-22)
(0.0119902 -0.00371818 -6.3256e-22)
(0.299489 -0.0995319 0)
(0.382815 -0.130307 4.13885e-21)
(0.447285 -0.155813 3.40588e-21)
(0.487003 -0.1735 -3.00536e-21)
(0.498257 -0.18142 -3.12031e-23)
(0.48058 -0.178733 0)
(0.436867 -0.16587 2.70864e-21)
(0.372628 -0.144383 0)
(0.294703 -0.116508 3.00397e-24)
(0.209865 -0.0846554 0)
(0.1237 -0.0509162 -4.11771e-21)
(0.0399337 -0.0168969 -4.09087e-21)
(0.0119297 -0.00370116 6.22165e-22)
(0.0118959 -0.003691 6.18418e-22)
(0.0368389 -0.0114849 -8.87513e-22)
(0.0367629 -0.0114839 -3.43888e-24)
(0.075786 -0.0238349 -2.51437e-24)
(0.126927 -0.0404346 2.69419e-21)
(0.201921 -0.0654443 1.50466e-21)
(0.126392 -0.0403145 2.61697e-21)
(0.0754112 -0.0237277 2.4937e-21)
(0.0366136 -0.01143 0)
(0.0366817 -0.0114359 3.44176e-24)
(0.0118345 -0.00367511 6.09376e-22)
(0.0118571 -0.00367749 -6.14202e-22)
(0.296518 -0.0985448 -4.79921e-21)
(0.378989 -0.129 0)
(0.442833 -0.154254 0)
(0.482221 -0.171778 2.87911e-21)
(0.493521 -0.179663 -5.34258e-24)
(0.476225 -0.177064 -2.55819e-21)
(0.433103 -0.16439 -1.2866e-24)
(0.369548 -0.143149 0)
(0.292337 -0.115548 -1.46279e-24)
(0.208197 -0.0839724 3.31873e-21)
(0.122716 -0.0505088 7.82587e-21)
(0.0396126 -0.0167605 0)
(0.0118039 -0.00366192 0)
(0.011774 -0.00365807 5.99691e-22)
(0.036475 -0.0113708 0)
(0.0364159 -0.0113695 0)
(0.0750471 -0.0235994 -1.82618e-21)
(0.125722 -0.0400524 0)
(0.199955 -0.0648073 0)
(0.125178 -0.0399326 2.72808e-23)
(0.074691 -0.0234959 1.22047e-21)
(0.0362623 -0.0113252 8.45867e-22)
(0.0363221 -0.0113232 -3.29321e-24)
(0.0117187 -0.00363735 5.91699e-22)
(0.0117566 -0.00364622 -5.95888e-22)
(0.293583 -0.0975674 0)
(0.375207 -0.127705 7.20164e-24)
(0.438406 -0.152699 0)
(0.477491 -0.170066 0)
(0.488871 -0.177921 0)
(0.471975 -0.175424 -1.28206e-24)
(0.429448 -0.162947 2.45454e-21)
(0.366558 -0.141951 0)
(0.29002 -0.114611 -2.75777e-21)
(0.206562 -0.0833041 -3.13852e-21)
(0.121744 -0.0501021 -3.68685e-21)
(0.0392814 -0.016621 -3.65532e-21)
(0.0116772 -0.00362327 5.85658e-22)
(0.0116581 -0.00361894 5.81408e-22)
(0.0361444 -0.0112668 -8.27855e-22)
(0.0360712 -0.0112604 -3.20569e-24)
(0.074333 -0.0233768 -9.21005e-24)
(0.124519 -0.0396706 0)
(0.198019 -0.064179 1.40173e-21)
(0.123997 -0.0395524 -2.45627e-21)
(0.0739786 -0.0232748 -2.31516e-21)
(0.0359142 -0.011213 -8.09554e-22)
(0.035989 -0.0112244 -8.10307e-22)
(0.0116037 -0.00360428 1.71959e-24)
(0.0116356 -0.00360763 -5.78233e-22)
(0.290675 -0.0965947 8.5994e-24)
(0.371428 -0.126412 -7.20846e-24)
(0.433981 -0.15114 1.1635e-23)
(0.472788 -0.168349 -5.10867e-24)
(0.484301 -0.176194 -4.668e-24)
(0.467839 -0.173814 -2.32163e-21)
(0.425889 -0.161539 0)
(0.363632 -0.140782 4.96429e-24)
(0.287756 -0.113696 0)
(0.204937 -0.0826352 2.97287e-21)
(0.120766 -0.0496944 3.5306e-23)
(0.0389502 -0.0164803 -1.35333e-23)
(0.0115835 -0.00359272 5.68354e-22)
(0.0115545 -0.00358522 0)
(0.0357823 -0.0111532 0)
(0.035736 -0.0111535 0)
(0.0736425 -0.0231603 0)
(0.123356 -0.0393017 0)
(0.196102 -0.0635528 1.33831e-21)
(0.122835 -0.0391812 -2.33765e-21)
(0.0732799 -0.0230548 2.243e-21)
(0.0355796 -0.0111102 7.84945e-22)
(0.0356462 -0.0111146 0)
(0.0114985 -0.00357044 1.07973e-24)
(0.0115296 -0.00357907 5.58925e-22)
(0.287758 -0.0956193 -4.3851e-21)
(0.367601 -0.1251 -1.32793e-23)
(0.42951 -0.149554 -2.96753e-21)
(0.468103 -0.166619 -2.58574e-21)
(0.479803 -0.17447 4.66015e-24)
(0.46379 -0.172233 -2.10028e-24)
(0.422406 -0.160166 2.1906e-21)
(0.360768 -0.13964 0)
(0.285499 -0.112782 0)
(0.20331 -0.081965 2.80764e-21)
(0.119785 -0.0492831 3.26373e-21)
(0.0386271 -0.0163405 -3.23817e-21)
(0.0114588 -0.00355423 5.48678e-22)
(0.011441 -0.00354974 -5.46378e-22)
(0.03547 -0.0110537 0)
(0.0354129 -0.0110564 0)
(0.072954 -0.0229451 -8.57038e-24)
(0.122194 -0.0389257 8.8909e-24)
(0.194194 -0.0629298 3.75446e-21)
(0.121677 -0.0388091 -4.52754e-21)
(0.0726067 -0.0228433 5.59201e-22)
(0.0352447 -0.0110043 7.54149e-22)
(0.0353183 -0.0110163 2.95923e-24)
(0.0113915 -0.00353706 3.69046e-24)
(0.0114151 -0.00354143 5.41474e-22)
(0.284795 -0.0946296 -8.27114e-24)
(0.363676 -0.12375 3.30235e-21)
(0.424965 -0.147921 2.76592e-21)
(0.463403 -0.164851 -2.48352e-21)
(0.475362 -0.172758 1.05084e-24)
(0.459817 -0.170686 2.09687e-24)
(0.41899 -0.158825 -3.93008e-24)
(0.357922 -0.138508 8.15872e-24)
(0.283247 -0.111868 0)
(0.201682 -0.0812918 -3.02082e-23)
(0.118799 -0.0488659 -1.16649e-23)
(0.03829 -0.0161976 3.03158e-21)
(0.0113686 -0.00352382 -5.35664e-22)
(0.0113383 -0.00352092 5.28139e-22)
(0.0351283 -0.0109478 -7.48802e-22)
(0.0350801 -0.0109535 2.87329e-24)
(0.0722762 -0.0227271 0)
(0.121063 -0.0385662 2.21955e-21)
(0.192262 -0.0622968 -1.25984e-21)
(0.120547 -0.0384455 2.16514e-21)
(0.0719264 -0.022626 2.0831e-21)
(0.0349229 -0.0109055 0)
(0.0349906 -0.0109145 -7.32127e-22)
(0.0112901 -0.00350412 1.70934e-24)
(0.0113196 -0.00351489 5.23695e-22)
(0.281706 -0.093597 1.52578e-23)
(0.359559 -0.12232 3.25148e-21)
(0.420268 -0.146201 2.65144e-21)
(0.458678 -0.163052 0)
(0.470973 -0.17107 -1.04908e-24)
(0.455915 -0.169181 0)
(0.415611 -0.157504 1.13486e-23)
(0.355079 -0.137374 -1.5837e-23)
(0.280989 -0.11095 -2.20386e-21)
(0.200055 -0.0806154 9.28589e-24)
(0.117798 -0.0484414 7.82317e-25)
(0.0379486 -0.016056 -2.8404e-21)
(0.0112483 -0.00348674 5.13858e-22)
(0.0112254 -0.0034867 5.10639e-22)
(0.0348251 -0.0108523 2.79366e-24)
(0.034766 -0.0108532 -1.41213e-24)
(0.0716189 -0.022522 -2.04958e-21)
(0.119931 -0.038203 2.10032e-21)
(0.190254 -0.0616388 -1.19769e-21)
(0.119408 -0.0380762 0)
(0.0712763 -0.0224226 9.92856e-24)
(0.034604 -0.0108033 0)
(0.0346621 -0.0108056 -1.38552e-24)
(0.0111884 -0.00347363 5.04107e-22)
(0.0112089 -0.00348057 0)
(0.278342 -0.0924744 9.56521e-23)
(0.355143 -0.120763 -3.13279e-21)
(0.415391 -0.144368 -2.62365e-21)
(0.453939 -0.16125 0)
(0.466648 -0.169434 -7.46689e-24)
(0.452068 -0.167708 0)
(0.412248 -0.156188 -7.41914e-24)
(0.352243 -0.136239 7.67926e-24)
(0.278739 -0.110028 2.06288e-21)
(0.1984 -0.0799238 -9.29018e-24)
(0.116796 -0.0480182 2.10261e-23)
(0.0375944 -0.0159085 0)
(0.0111586 -0.00345811 -9.79123e-25)
(0.0111333 -0.00345662 4.92965e-22)
(0.0345076 -0.0107583 0)
(0.0344469 -0.0107541 0)
(0.0709537 -0.0223128 -4.99251e-22)
(0.118809 -0.0378411 2.05539e-21)
(0.188018 -0.0609176 -5.65873e-21)
(0.118247 -0.0376995 1.99615e-21)
(0.070624 -0.0222135 4.89124e-22)
(0.034298 -0.0107064 -1.32115e-24)
(0.0343617 -0.010716 1.32026e-24)
(0.0110752 -0.00343734 -4.86643e-22)
(0.01111 -0.0034459 4.91265e-22)
(0.274564 -0.0912029 3.6759e-21)
(0.350261 -0.118974 2.92995e-21)
(0.410341 -0.14246 -1.22105e-24)
(0.449247 -0.159514 2.09241e-21)
(0.462414 -0.16785 4.03355e-25)
(0.44827 -0.166251 0)
(0.408903 -0.154871 1.75373e-21)
(0.349411 -0.135097 -1.79053e-21)
(0.276466 -0.109092 -7.75282e-24)
(0.196743 -0.0792276 8.05097e-24)
(0.115773 -0.0475853 2.47105e-21)
(0.0372351 -0.0157556 4.57369e-24)
(0.0110531 -0.0034294 4.81367e-22)
(0.0110294 -0.0034256 4.77111e-22)
(0.0341925 -0.0106593 0)
(0.0341483 -0.0106616 6.56599e-22)
(0.0703138 -0.0221065 -1.41224e-21)
(0.117589 -0.0374501 1.93697e-21)
(0.185354 -0.0600584 0)
(0.116929 -0.0372772 -1.94531e-21)
(0.0699635 -0.0220052 0)
(0.0339916 -0.0106117 5.3631e-24)
(0.0340587 -0.010618 -1.2589e-24)
(0.0109899 -0.00340944 -4.70395e-22)
(0.0110112 -0.00341715 4.72985e-22)
(0.269923 -0.0895906 1.79112e-21)
(0.344882 -0.11694 2.90947e-21)
(0.405293 -0.140642 -2.23589e-21)
(0.444713 -0.157866 -7.403e-24)
(0.458283 -0.1663 7.06532e-24)
(0.444509 -0.1648 -1.65239e-21)
(0.405561 -0.15355 -6.58628e-24)
(0.346569 -0.133947 -1.6812e-21)
(0.274176 -0.108144 0)
(0.195068 -0.0785238 -2.00492e-21)
(0.11473 -0.0471411 -2.2871e-21)
(0.0368826 -0.0156056 -1.29385e-23)
(0.0109558 -0.00339901 0)
(0.010941 -0.00339863 0)
(0.0338927 -0.0105654 1.25693e-24)
(0.0338372 -0.0105613 -6.32873e-22)
(0.069632 -0.0218898 -4.50087e-22)
(0.116155 -0.0369986 -1.89993e-21)
(0.181599 -0.0588556 -2.65326e-21)
(0.115196 -0.0367348 1.43433e-23)
(0.0692566 -0.0217814 2.23263e-21)
(0.0336905 -0.0105144 0)
(0.0337595 -0.0105277 0)
(0.0108805 -0.00337666 -9.06613e-22)
(0.0109162 -0.00338507 4.57323e-22)
(0.264078 -0.0873997 -3.3844e-21)
(0.339405 -0.115029 -2.65402e-21)
(0.400532 -0.138972 2.18075e-21)
(0.440383 -0.156281 7.41438e-24)
(0.454247 -0.164776 1.69416e-21)
(0.440781 -0.163355 -1.58622e-21)
(0.402223 -0.152225 1.52889e-21)
(0.343703 -0.132784 5.88937e-24)
(0.271881 -0.107192 -1.65845e-21)
(0.193378 -0.0778098 1.83983e-21)
(0.113698 -0.0466986 2.09093e-21)
(0.036513 -0.0154484 8.3735e-24)
(0.0108593 -0.00336921 4.48893e-22)
(0.0108374 -0.00336576 4.44793e-22)
(0.0335836 -0.0104691 6.12139e-22)
(0.0335344 -0.0104673 -1.18634e-24)
(0.0688749 -0.021643 1.76521e-21)
(0.113868 -0.0363572 1.78714e-21)
(0.174825 -0.0564455 -1.59082e-23)
(0.111993 -0.0357441 -1.39502e-23)
(0.0683404 -0.0214998 4.24014e-22)
(0.0333994 -0.0104238 7.55001e-24)
(0.0334506 -0.0104302 -1.16505e-24)
(0.0107944 -0.00334771 0)
(0.0108237 -0.00335878 4.40749e-22)
(0.257855 -0.0853269 3.11313e-21)
(0.334486 -0.11337 -2.44093e-21)
(0.396177 -0.137416 -1.63416e-23)
(0.436245 -0.15475 -1.74029e-21)
(0.450293 -0.163277 1.56306e-21)
(0.437085 -0.161919 0)
(0.398892 -0.150899 -1.44423e-21)
(0.34085 -0.131618 1.44478e-21)
(0.269576 -0.106229 -1.52693e-21)
(0.191692 -0.0770904 -1.68769e-21)
(0.112646 -0.0462414 -1.89984e-21)
(0.0361308 -0.0152866 0)
(0.0107544 -0.00333662 4.33147e-22)
(0.0107389 -0.00333586 4.29405e-22)
(0.0333111 -0.0103791 -1.16367e-24)
(0.0332425 -0.0103667 0)
(0.0676306 -0.0212998 -4.12385e-22)
(0.108615 -0.0346451 9.22159e-22)
(0.166649 -0.0539253 5.24149e-22)
(0.103072 -0.0325671 1.40237e-23)
(0.0664971 -0.0209818 -5.13947e-23)
(0.0330641 -0.0103206 -5.76038e-22)
(0.0331526 -0.0103354 5.8337e-22)
(0.0107022 -0.00332056 -8.45461e-22)
(0.0107267 -0.00332828 4.25773e-22)
(0.252854 -0.0836539 -3.05328e-21)
(0.330304 -0.111903 0)
(0.392146 -0.135954 0)
(0.432266 -0.153275 -1.27532e-23)
(0.446418 -0.161805 -1.51965e-21)
(0.433429 -0.160493 2.78332e-21)
(0.395583 -0.149572 -5.41634e-24)
(0.338 -0.130446 -8.11278e-24)
(0.267275 -0.105257 -1.41142e-21)
(0.189987 -0.0763555 1.53383e-21)
(0.111565 -0.0457732 1.70547e-21)
(0.035747 -0.015126 2.95181e-24)
(0.0106826 -0.00331217 4.18581e-22)
(0.0106562 -0.00330503 4.15509e-22)
(0.0329278 -0.01027 6.4214e-24)
(0.0327856 -0.0102403 -4.38889e-24)
(0.0642534 -0.0202436 -5.67787e-22)
(0.0967547 -0.0308162 -8.7223e-22)
(0.161825 -0.0521488 3.04943e-21)
(0.0931758 -0.0298002 -8.03003e-22)
(0.0570374 -0.0176363 0)
(0.0322872 -0.0101122 -2.79052e-22)
(0.0326162 -0.010182 4.37789e-24)
(0.010606 -0.00329135 4.09029e-22)
(0.010635 -0.00329777 -4.10093e-22)
(0.24916 -0.0823517 2.30127e-23)
(0.326656 -0.110601 0)
(0.388378 -0.134588 0)
(0.428429 -0.151851 1.57598e-21)
(0.442621 -0.160355 -1.38717e-21)
(0.429814 -0.159074 -3.46557e-25)
(0.392297 -0.148245 -2.79007e-23)
(0.335157 -0.129265 1.22427e-21)
(0.26497 -0.104278 4.72501e-24)
(0.188266 -0.0756124 -2.73403e-21)
(0.110489 -0.0453058 0)
(0.0353484 -0.0149576 -2.95867e-24)
(0.0105713 -0.00327963 2.55231e-24)
(0.0105317 -0.00326926 4.00613e-22)
(0.0317232 -0.0100018 -1.66103e-23)
(0.0305147 -0.00946729 -2.495e-22)
(0.0479796 -0.0154932 -1.4725e-22)
(0.091381 -0.0289297 7.74094e-22)
(0.159202 -0.0511615 -8.47661e-22)
(0.090429 -0.0285925 1.23421e-23)
(0.0449312 -0.0141887 1.11311e-21)
(0.0189354 -0.00444019 0)
(0.0279147 -0.00829708 0)
(0.010379 -0.00322604 5.87459e-22)
(0.0104938 -0.00325171 -3.97371e-22)
(0.246204 -0.0813167 -2.87041e-21)
(0.32336 -0.109432 0)
(0.384823 -0.133301 -6.7741e-24)
(0.424713 -0.150466 0)
(0.438898 -0.158927 0)
(0.426245 -0.157662 1.18742e-21)
(0.389024 -0.146913 1.16747e-21)
(0.332325 -0.128081 0)
(0.262657 -0.103287 1.14259e-21)
(0.18655 -0.0748633 -1.20629e-21)
(0.109392 -0.0448221 1.30997e-21)
(0.034939 -0.0147886 0)
(0.0101875 -0.00319634 -3.8789e-22)
(0.00972131 -0.00311243 -1.77474e-22)
(0.0126968 -0.00398314 2.16311e-22)
(0.0112986 -0.00375791 0)
(0.0441215 -0.0137681 0)
(0.0897177 -0.0283006 -1.23358e-23)
(0.157368 -0.0505798 4.26634e-21)
(0.089277 -0.0282085 1.51946e-21)
(0.0437009 -0.0136138 3.65602e-22)
(0.0103362 -0.00325379 -3.88047e-22)
(0.0106067 -0.00334941 2.01019e-22)
(0.00523547 -0.00117949 0)
(0.00905377 -0.00290753 -1.69762e-22)
(0.243655 -0.0804469 0)
(0.32033 -0.108365 -2.13573e-21)
(0.38143 -0.132068 1.3216e-23)
(0.42111 -0.149118 0)
(0.435247 -0.157517 1.27721e-21)
(0.422717 -0.156258 -1.10087e-21)
(0.385794 -0.145585 -3.92797e-24)
(0.329507 -0.126887 0)
(0.26036 -0.102287 1.00928e-21)
(0.184821 -0.0740983 -1.05244e-21)
(0.108268 -0.0443282 0)
(0.0345191 -0.0146117 0)
(0.0102958 -0.00320022 -3.87675e-22)
(0.0102527 -0.00318736 0)
(0.0434475 -0.013537 1.15966e-23)
(0.0887915 -0.0280463 -1.24394e-25)
(0.155816 -0.0501159 -8.38726e-22)
(0.088454 -0.0279911 -1.45918e-21)
(0.0432508 -0.0134794 0)
(0.0102129 -0.00317459 7.10085e-25)
(0.010224 -0.00316701 3.77346e-22)
(0.241373 -0.0796759 2.50866e-21)
(0.317487 -0.107364 2.0373e-21)
(0.378178 -0.130884 -6.43955e-24)
(0.417603 -0.147797 -1.30992e-21)
(0.431664 -0.156122 -1.19808e-21)
(0.419245 -0.154858 -1.07206e-21)
(0.382586 -0.14425 9.89335e-22)
(0.326708 -0.125686 -9.31303e-22)
(0.258054 -0.101274 -9.01022e-22)
(0.183063 -0.0733171 7.83163e-25)
(0.107134 -0.0438244 8.98246e-22)
(0.0340919 -0.0144303 0)
(0.0101974 -0.00315996 -7.11952e-25)
(0.0101895 -0.00316694 3.62933e-22)
(0.043084 -0.0134384 3.52153e-22)
(0.0880307 -0.0278396 0)
(0.15444 -0.0496872 0)
(0.0877082 -0.0277804 1.39169e-21)
(0.0429179 -0.0133869 -1.32649e-24)
(0.0101586 -0.00315575 3.5478e-22)
(0.0101672 -0.0031505 3.58628e-22)
(0.239258 -0.0789595 -2.38294e-21)
(0.314786 -0.10641 0)
(0.375036 -0.129734 5.76242e-24)
(0.414184 -0.1465 1.22355e-21)
(0.428152 -0.15474 1.05346e-21)
(0.415815 -0.153461 -9.29018e-22)
(0.379413 -0.142912 1.74191e-21)
(0.323921 -0.124475 7.90517e-22)
(0.255747 -0.100249 0)
(0.181293 -0.0725218 -7.22072e-22)
(0.105972 -0.0433032 0)
(0.0336455 -0.014243 0)
(0.0101383 -0.00314317 -6.88647e-25)
(0.0101376 -0.00314947 6.46163e-25)
(0.0427624 -0.0133471 -1.26984e-24)
(0.0872997 -0.0276215 -1.38338e-21)
(0.153156 -0.0492741 1.54821e-21)
(0.0870133 -0.0275608 0)
(0.0425802 -0.0132963 2.60085e-24)
(0.010099 -0.00313506 6.69865e-25)
(0.0101139 -0.00313267 3.4399e-22)
(0.237254 -0.0782793 -9.36996e-24)
(0.312195 -0.105492 -6.82683e-24)
(0.371994 -0.128613 -3.18863e-25)
(0.41085 -0.145221 -1.2211e-21)
(0.424703 -0.153367 0)
(0.41244 -0.152065 -8.50685e-22)
(0.376275 -0.141568 0)
(0.321149 -0.123252 -1.45981e-24)
(0.253435 -0.0992049 0)
(0.179505 -0.0717077 0)
(0.104786 -0.0427675 4.647e-22)
(0.0331785 -0.0140496 -2.31794e-22)
(0.0100759 -0.00312312 3.37372e-22)
(0.0100715 -0.00312996 0)
(0.0424134 -0.0132442 1.27062e-21)
(0.0866145 -0.0274019 -1.29588e-21)
(0.151916 -0.0488737 1.47656e-21)
(0.0863148 -0.0273376 -1.26371e-21)
(0.0422462 -0.0131907 -3.14825e-22)
(0.0100238 -0.00311636 3.2587e-22)
(0.0100403 -0.00311384 3.31721e-22)
(0.235346 -0.0776285 -4.23037e-24)
(0.30971 -0.104605 1.75264e-21)
(0.369037 -0.12751 1.30766e-21)
(0.407597 -0.14396 1.1548e-21)
(0.421323 -0.152 1.74932e-24)
(0.409109 -0.150665 1.47334e-24)
(0.373161 -0.140213 7.18166e-22)
(0.318383 -0.12201 0)
(0.251109 -0.0981388 2.02078e-25)
(0.177687 -0.07087 -3.72946e-22)
(0.103562 -0.0422142 2.36038e-22)
(0.0326979 -0.0138488 8.32152e-26)
(0.00999655 -0.0031004 3.23855e-22)
(0.00999019 -0.00310502 3.211e-22)
(0.0420841 -0.0131373 0)
(0.0859405 -0.0271898 -2.49037e-21)
(0.150734 -0.0484841 7.02813e-22)
(0.0856593 -0.0271307 -1.20801e-21)
(0.0419122 -0.0130823 -1.16443e-24)
(0.00994298 -0.00309047 3.15132e-22)
(0.00995787 -0.00308754 3.15067e-22)
(0.233519 -0.0769992 -2.05239e-21)
(0.307293 -0.103736 1.65805e-21)
(0.366173 -0.126432 -1.23382e-21)
(0.404419 -0.142706 -2.09793e-24)
(0.418005 -0.150635 -1.74928e-24)
(0.405829 -0.149262 -6.8109e-22)
(0.370077 -0.138845 0)
(0.315627 -0.120751 0)
(0.248763 -0.0970481 -2.02219e-25)
(0.175844 -0.0700124 -4.02998e-22)
(0.102302 -0.0416401 0)
(0.0321992 -0.0136431 -3.08551e-22)
(0.00991712 -0.0030751 3.10712e-22)
(0.00990979 -0.00307979 3.07588e-22)
(0.0417571 -0.013035 1.16742e-21)
(0.0852952 -0.0269834 -1.17498e-24)
(0.149604 -0.0481085 -2.17627e-23)
(0.085017 -0.0269234 -1.15059e-21)
(0.0416058 -0.0129922 0)
(0.00987491 -0.00306498 5.85371e-25)
(0.00988876 -0.00306473 -5.9795e-25)
(0.231745 -0.0763863 -1.95288e-21)
(0.304965 -0.102889 0)
(0.363389 -0.125365 1.24781e-21)
(0.401316 -0.141459 0)
(0.414751 -0.14927 0)
(0.402594 -0.14785 0)
(0.367017 -0.13746 5.40492e-22)
(0.312872 -0.119468 -3.95799e-22)
(0.246406 -0.0959317 1.79049e-22)
(0.173953 -0.0691227 -2.97538e-23)
(0.101009 -0.0410511 1.92454e-25)
(0.0316763 -0.013432 -2.21217e-25)
(0.00983917 -0.00304931 2.97142e-22)
(0.00983461 -0.00305632 2.93903e-22)
(0.0414514 -0.0129403 0)
(0.084672 -0.0267825 2.25785e-21)
(0.148503 -0.0477456 6.37421e-22)
(0.0844117 -0.0267221 -1.09578e-21)
(0.0412927 -0.0128941 1.06139e-24)
(0.00980486 -0.00304679 0)
(0.00981106 -0.00304297 2.92037e-22)
(0.23004 -0.0757927 -1.95279e-21)
(0.302707 -0.102054 -1.40248e-21)
(0.360676 -0.124305 2.15714e-24)
(0.39828 -0.140214 1.70287e-24)
(0.411556 -0.147902 0)
(0.399404 -0.146427 -5.1117e-22)
(0.363987 -0.136057 3.59497e-22)
(0.310108 -0.118153 0)
(0.244016 -0.0947817 2.49302e-23)
(0.172022 -0.0682053 0)
(0.0996583 -0.0404431 -5.183e-25)
(0.0311439 -0.0132227 -2.05599e-24)
(0.0097721 -0.00302964 2.85221e-22)
(0.0097579 -0.00303303 2.81744e-22)
(0.0411585 -0.0128477 -1.06333e-21)
(0.0840645 -0.0265868 4.15608e-24)
(0.147448 -0.0473978 2.91177e-21)
(0.0838025 -0.0265309 -1.04685e-21)
(0.0410054 -0.0127978 0)
(0.00972672 -0.00302308 5.34972e-25)
(0.00973477 -0.00301911 2.7881e-22)
(0.228392 -0.0752145 0)
(0.300525 -0.10123 0)
(0.35804 -0.123249 -1.64867e-24)
(0.39532 -0.138975 8.8648e-22)
(0.408424 -0.146531 0)
(0.39626 -0.144988 0)
(0.360967 -0.134625 0)
(0.307334 -0.116805 2.30971e-26)
(0.24158 -0.0935943 0)
(0.170038 -0.0672591 0)
(0.0982518 -0.039827 3.26242e-25)
(0.0306123 -0.0130073 -1.20787e-21)
(0.00970214 -0.00300878 2.71926e-22)
(0.00969822 -0.00301296 2.69297e-22)
(0.0408664 -0.0127554 2.53673e-22)
(0.0834744 -0.0264002 0)
(0.146426 -0.0470685 -5.72439e-22)
(0.0832267 -0.0263464 -9.91788e-22)
(0.0407145 -0.012711 3.95752e-24)
(0.00966109 -0.00300038 0)
(0.00967364 -0.00299761 2.67023e-22)
(0.226812 -0.0746454 1.77577e-21)
(0.298416 -0.100404 0)
(0.355474 -0.122197 -9.54713e-22)
(0.392432 -0.137738 0)
(0.405353 -0.145148 0)
(0.393155 -0.143528 4.59534e-22)
(0.357959 -0.133162 7.30579e-26)
(0.30455 -0.115424 -2.31064e-26)
(0.239113 -0.0923709 2.2683e-22)
(0.167979 -0.0662783 5.83407e-22)
(0.0967838 -0.0392299 0)
(0.0302258 -0.0127098 1.55295e-21)
(0.0096351 -0.00298721 0)
(0.00963177 -0.00299233 2.56974e-25)
(0.040579 -0.0126664 0)
(0.0828965 -0.0262242 9.63379e-25)
(0.145437 -0.0467654 -2.10415e-21)
(0.0826438 -0.026181 9.42695e-22)
(0.0404348 -0.0126233 0)
(0.00958906 -0.00298026 2.51582e-22)
(0.00960302 -0.00297752 2.5539e-22)
(0.225308 -0.0740624 -7.89916e-25)
(0.296363 -0.0995787 0)
(0.352992 -0.121162 0)
(0.389619 -0.136497 0)
(0.402345 -0.143752 -4.52493e-22)
(0.390087 -0.142042 1.33675e-25)
(0.354968 -0.131664 -7.30794e-26)
(0.301742 -0.113997 -1.17188e-22)
(0.236576 -0.0911042 -4.87598e-22)
(0.165874 -0.0652906 0)
(0.0952152 -0.0385771 0)
(0.0306172 -0.0124492 0)
(0.00956688 -0.00296679 0)
(0.00956032 -0.00297075 2.45794e-22)
(0.0402941 -0.0125794 0)
(0.0823219 -0.0260897 9.33255e-22)
(0.144618 -0.0463223 1.03216e-24)
(0.0821045 -0.026105 3.58049e-24)
(0.0401507 -0.0125384 0)