/*--------------------------------*- C++ -*----------------------------------*\
| =========                 |                                                 |
| \\      /  F ield         | OpenFOAM: The Open Source CFD Toolbox           |
|  \\    /   O peration     | Version:  v1912                                 |
|   \\  /    A nd           | Website:  www.openfoam.com                      |
|    \\/     M anipulation  |                                                 |
\*---------------------------------------------------------------------------*/
FoamFile
{
    version     2.0;
    format      ascii;
    class       volScalarField;
    location    "240";
    object      p;
}
// * * * * * * * * * * * * * * * * * * * * * * * * * * * * * * * * * * * * * //

dimensions      [0 2 -2 0 0 0 0];


internalField   nonuniform List<scalar> 
3675
(
0.254029
0.251609
0.260493
0.246927
0.257536
0.278899
0.240293
0.251864
0.274417
0.312194
0.232111
0.243934
0.265977
0.304433
0.36646
0.222828
0.234316
0.254521
0.290198
0.351223
0.453203
0.21289
0.223604
0.241115
0.271646
0.324781
0.420703
0.563246
0.544575
0.202706
0.212348
0.22675
0.251057
0.29252
0.369919
0.5112
0.455997
0.661828
0.633501
0.192637
0.20102
0.212215
0.230241
0.259536
0.309845
0.398336
0.579743
0.52003
0.735346
0.721342
0.659998
0.697236
0.182989
0.190005
0.198089
0.210294
0.228918
0.25639
0.286969
0.364752
0.264642
0.622292
0.553316
0.4641
0.768512
0.749858
0.649872
0.702435
0.17401
0.179613
0.184781
0.19181
0.201614
0.213261
0.212678
0.110013
0.187193
0.223488
0.0421971
0.623437
0.523001
0.272678
0.292129
0.165902
0.170082
0.172571
0.1751
0.177771
0.178182
0.162171
0.0673789
-0.297467
-0.239192
-0.0142436
-0.0062777
-0.239204
-0.218701
0.595966
0.392711
0.21363
0.158826
0.161597
0.161642
0.160303
0.157273
0.149562
0.124805
0.0446644
-0.258941
-0.510395
-0.347968
-0.433743
-0.153148
-0.257886
0.152907
0.154299
0.152112
0.147452
0.139863
0.126339
0.0967365
0.0269293
-0.184561
-0.411076
-0.486611
-0.555582
-0.501043
-0.446349
-0.520962
0.148247
0.148296
0.144061
0.136516
0.125238
0.107522
0.0754449
0.0125845
-0.137791
-0.323714
-0.373142
-0.446544
-0.524766
-0.457661
-0.5201
0.144927
0.143674
0.137542
0.127444
0.113108
0.0922634
0.0589474
0.00175192
-0.110786
-0.254488
-0.327385
-0.345446
-0.393577
-0.410355
-0.424039
-0.464921
-0.483213
0.143014
0.1405
0.132593
0.120186
0.10322
0.0799058
0.0458924
-0.00665864
-0.0954023
-0.209139
-0.28506
-0.321066
-0.329897
-0.359329
-0.373169
-0.397582
-0.44109
-0.42819
0.142562
0.138834
0.129249
0.114703
0.095374
0.0699507
0.0353849
-0.0135818
-0.0868375
-0.178996
-0.251248
-0.293767
-0.31778
-0.316408
-0.333031
-0.342531
-0.363056
-0.381675
-0.404936
-0.401233
0.143619
0.138726
0.127546
0.110973
0.0894246
0.0620354
0.0268073
-0.0195955
-0.0825959
-0.159181
-0.225377
-0.269486
-0.29945
-0.309841
-0.30574
-0.316653
-0.32318
-0.33485
-0.345577
-0.360107
-0.368585
-0.389652
-0.379316
-0.40625
-0.394542
0.146222
0.140222
0.127527
0.109
0.0852778
0.0559078
0.019742
-0.0250674
-0.0812779
-0.146811
-0.206697
-0.250324
-0.281749
-0.298912
-0.301551
-0.297762
-0.305592
-0.310313
-0.317989
-0.324977
-0.333228
-0.338346
-0.350466
-0.343847
-0.360878
-0.369096
-0.389862
-0.379851
0.150395
0.143363
0.12924
0.108814
0.0828957
0.0514025
0.013899
-0.0302452
-0.0820894
-0.139868
-0.194074
-0.236165
-0.26748
-0.287599
-0.295253
-0.294948
-0.291215
-0.297465
-0.301216
-0.306676
-0.31159
-0.317078
-0.320436
-0.327972
-0.323884
-0.33374
-0.338681
-0.350919
-0.344432
0.156151
0.14818
0.132744
0.110478
0.0822953
0.0484422
0.00908913
-0.0353078
-0.0845998
-0.137042
-0.186428
-0.2264
-0.256847
-0.277962
-0.288562
-0.291253
-0.289242
-0.285245
-0.290788
-0.2941
-0.298388
-0.302178
-0.306167
-0.30856
-0.313715
-0.310951
-0.317507
-0.320731
-0.328289
-0.324314
0.163478
0.154694
0.138106
0.114087
0.0835542
0.0470276
0.00520085
-0.0403903
-0.0886235
-0.13755
-0.182987
-0.220539
-0.249619
-0.270603
-0.282697
-0.287387
-0.287077
-0.283695
-0.279203
-0.284768
-0.28794
-0.291631
-0.294877
-0.298089
-0.299975
-0.30383
-0.301784
-0.306558
-0.30885
-0.314014
-0.311333
0.172338
0.162909
0.145397
0.119773
0.086814
0.0472436
0.00219224
-0.0456016
-0.0941291
-0.14099
-0.183251
-0.218251
-0.245579
-0.265722
-0.278276
-0.284091
-0.285027
-0.282484
-0.278082
-0.273368
-0.278572
-0.282028
-0.285616
-0.288605
-0.29142
-0.293083
-0.296289
-0.294598
-0.298467
-0.300268
-0.304125
-0.302148
0.182647
0.172795
0.154688
0.127707
0.0922949
0.0492649
8.47338e-05
-0.051043
-0.10123
-0.147249
-0.186962
-0.219326
-0.244562
-0.263336
-0.275592
-0.281835
-0.28348
-0.281673
-0.277617
-0.272889
-0.269963
-0.274001
-0.275093
-0.279658
-0.282844
-0.285364
-0.286995
-0.289897
-0.288332
-0.291796
-0.293373
-0.296584
-0.294959
0.194266
0.184283
0.166038
0.138097
0.100308
0.0533822
-0.00102027
-0.0568113
-0.110199
-0.156479
-0.194073
-0.22367
-0.246462
-0.263416
-0.274756
-0.280842
-0.282716
-0.281344
-0.277642
-0.272903
-0.269038
-0.264571
-0.269365
-0.272091
-0.275074
-0.274882
-0.279749
-0.28144
-0.284064
-0.282513
-0.285725
-0.287252
-0.290179
-0.288691
0.206979
0.197238
0.179475
0.151188
0.111276
0.0600213
-0.000907202
-0.0629925
-0.121522
-0.169124
-0.204769
-0.231307
-0.251243
-0.265933
-0.275822
-0.281216
-0.28288
-0.281605
-0.278097
-0.273319
-0.268639
-0.263833
-0.258598
-0.263759
-0.266451
-0.269834
-0.272809
-0.275321
-0.276712
-0.277726
-0.27304
-0.280774
-0.281719
-0.284255
-0.282843
0.220476
0.21144
0.194971
0.167243
0.125758
0.0697966
0.000799291
-0.0696518
-0.135985
-0.185974
-0.21947
-0.242392
-0.258934
-0.270888
-0.278824
-0.283031
-0.28406
-0.282539
-0.279008
-0.274151
-0.268906
-0.263543
-0.257899
-0.252752
-0.257998
-0.260779
-0.264264
-0.266967
-0.269599
-0.270844
-0.273699
-0.272462
-0.275894
-0.280061
-0.280743
-0.270572
0.234339
0.22655
0.21241
0.186518
0.144433
0.0836169
0.00473634
-0.0768607
-0.154869
-0.20827
-0.238856
-0.257209
-0.26964
-0.278308
-0.283792
-0.286337
-0.286326
-0.284217
-0.280411
-0.27538
-0.269745
-0.263864
-0.25775
-0.252052
-0.246131
-0.252144
-0.255036
-0.258581
-0.261381
-0.264056
-0.265393
-0.268055
-0.266786
-0.269891
-0.271186
-0.274097
-0.272672
-0.27563
-0.279656
-0.267082
0.248033
0.242072
0.23151
0.209233
0.168032
0.102722
0.0120753
-0.0848267
-0.180359
-0.237891
-0.263889
-0.276163
-0.283524
-0.288255
-0.290757
-0.291171
-0.289722
-0.286699
-0.282356
-0.276999
-0.271023
-0.264722
-0.258181
-0.251861
-0.246097
-0.24079
-0.241496
-0.248798
-0.252962
-0.255684
-0.258336
-0.259752
-0.262534
-0.261162
-0.264383
-0.265731
-0.268421
-0.267111
-0.270187
-0.271467
-0.274288
-0.2729
0.260933
0.257339
0.251692
0.235386
0.197503
0.128601
0.0248084
-0.0941977
-0.216281
-0.277734
-0.295868
-0.299772
-0.300807
-0.300816
-0.29975
-0.297554
-0.294279
-0.290022
-0.284887
-0.279023
-0.272659
-0.265991
-0.259097
-0.25226
-0.245837
-0.240033
-0.241339
-0.234432
-0.251622
-0.249686
-0.252597
-0.254021
-0.256816
-0.255399
-0.258649
-0.260061
-0.262877
-0.261488
-0.264694
-0.266016
-0.268724
-0.267413
0.272377
0.271523
0.271954
0.264342
0.234185
0.164161
0.0450012
-0.106869
-0.269147
-0.332172
-0.33654
-0.328687
-0.321759
-0.3161
-0.310803
-0.305498
-0.300006
-0.294209
-0.288033
-0.281476
-0.274625
-0.267577
-0.26037
-0.253151
-0.246201
-0.239732
-0.233867
-0.235008
-0.240346
-0.244056
-0.228704
-0.248711
-0.25047
-0.246108
-0.252975
-0.25429
-0.257126
-0.2557
-0.258941
-0.26032
-0.263164
-0.261784
0.281736
0.283735
0.29085
0.294487
0.278497
0.216178
0.07524
-0.12765
-0.349909
-0.406916
-0.388083
-0.363694
-0.346737
-0.334236
-0.323942
-0.314994
-0.306899
-0.299263
-0.291807
-0.284374
-0.276913
-0.269426
-0.2619
-0.254383
-0.247044
-0.240082
-0.23367
-0.228022
-0.229539
-0.234438
-0.237319
-0.239914
-0.24173
-0.243438
-0.245068
-0.222988
-0.246924
-0.248847
-0.25394
-0.251588
-0.253159
-0.254494
-0.257381
-0.255966
0.28849
0.293163
0.306757
0.322996
0.327606
0.288153
0.129325
-0.163061
-0.474088
-0.507943
-0.452196
-0.405437
-0.376135
-0.355384
-0.339188
-0.326021
-0.31493
-0.305167
-0.296209
-0.287722
-0.279524
-0.271515
-0.263626
-0.255831
-0.248198
-0.240853
-0.233963
-0.22773
-0.222201
-0.223961
-0.228909
-0.231741
-0.23416
-0.235663
-0.236934
-0.2383
-0.216965
-0.251363
-0.251405
0.292286
0.299206
0.318274
0.346268
0.374846
0.369614
0.232287
-0.209688
-0.643387
-0.636171
-0.526449
-0.45347
-0.409936
-0.379626
-0.356543
-0.338544
-0.324056
-0.311888
-0.301217
-0.291514
-0.282452
-0.273833
-0.265518
-0.257424
-0.24954
-0.241909
-0.234638
-0.227905
-0.221833
-0.216247
-0.218122
-0.223173
-0.226149
-0.228604
-0.230117
-0.231387
-0.232686
-0.210674
0.292955
0.301541
0.324522
0.361446
0.410957
0.454298
0.333664
0.430574
-0.0458471
0.0226045
0.355834
-0.695603
-0.413132
-0.82745
-0.76391
-0.839798
-0.596391
-0.503134
-0.446552
-0.40643
-0.375847
-0.352485
-0.334219
-0.319375
-0.306795
-0.295725
-0.285686
-0.276368
-0.267561
-0.259125
-0.250989
-0.243133
-0.235589
-0.22847
-0.221922
-0.215946
-0.21043
-0.210974
-0.217449
-0.220428
-0.222771
-0.224387
-0.225725
-0.227089
-0.206497
0.290509
0.300133
0.325263
0.36726
0.430037
0.514975
0.504446
0.571256
0.461315
0.202085
0.059111
-0.29897
-0.239545
0.241607
-0.667804
-0.592497
-0.485815
-1.03651
-0.748704
-0.824712
-0.826858
-0.642427
-0.800579
-0.919639
-0.54053
-0.480802
-0.433453
-0.396275
-0.367578
-0.345309
-0.32756
-0.312892
-0.300321
-0.289201
-0.279106
-0.269743
-0.260916
-0.252503
-0.244436
-0.23669
-0.229307
-0.222387
-0.216017
-0.210245
-0.205624
-0.207483
-0.211454
-0.212282
-0.21751
-0.218848
-0.219816
-0.221217
-0.200899
0.285112
0.295188
0.320823
0.364027
0.431369
0.53599
0.614701
0.649709
0.555566
0.638922
0.435433
0.285513
0.0181724
-0.00751922
-0.927616
-0.87948
-0.870666
-0.699229
-0.555865
-0.645617
-0.823589
-0.785677
-0.503617
-0.455676
-0.415494
-0.382944
-0.35701
-0.336317
-0.319439
-0.305253
-0.292964
-0.282022
-0.272047
-0.262784
-0.254061
-0.245771
-0.237849
-0.230279
-0.223103
-0.216401
-0.210277
-0.205047
-0.200157
-0.201656
-0.206542
-0.209309
-0.211563
-0.213467
-0.210487
-0.215693
-0.194893
0.277033
0.287075
0.311928
0.353337
0.417257
0.521805
0.652677
0.624523
0.697674
0.674341
0.763924
0.443286
0.540237
0.72676
0.713291
0.636482
0.41111
0.122017
-0.909214
-0.883303
-0.719593
-0.686625
-0.583953
-0.512083
-0.55012
-0.65959
-0.628604
-0.826689
-0.786235
-0.468166
-0.429713
-0.396622
-0.368469
-0.345316
-0.326304
-0.310455
-0.296932
-0.285088
-0.274455
-0.264714
-0.25565
-0.247115
-0.239014
-0.231292
-0.223942
-0.217001
-0.210557
-0.204813
-0.199586
-0.194269
-0.195608
-0.200687
-0.203524
-0.206057
-0.207437
-0.208861
-0.210099
-0.211317
-0.213698
-0.208023
-0.189238
0.2666
0.276246
0.299452
0.33728
0.393071
0.477476
0.602647
0.753669
0.716259
0.776693
0.814643
0.821438
0.775443
-0.713949
-0.684524
-0.594121
-0.572053
-0.52213
-0.472346
-0.500272
-0.558385
-0.541343
-0.65668
-0.626441
-0.436739
-0.406112
-0.378092
-0.353802
-0.33318
-0.3158
-0.301043
-0.288265
-0.27694
-0.266691
-0.257256
-0.248456
-0.240164
-0.232297
-0.224812
-0.217706
-0.211023
-0.204885
-0.199271
-0.193801
-0.188604
-0.189954
-0.194821
-0.197653
-0.200263
-0.201747
-0.203133
-0.204485
-0.2063
-0.207668
-0.20894
-0.21013
-0.183766
0.254167
0.263168
0.284237
0.317722
0.364208
0.426149
0.496934
0.572397
0.487697
0.78732
0.759355
0.670045
0.721217
0.80747
-0.592454
-0.570155
-0.525915
-0.511131
-0.479698
-0.438656
-0.461572
-0.498423
-0.558496
-0.540411
-0.410665
-0.384275
-0.360571
-0.339436
-0.321012
-0.305182
-0.291502
-0.279472
-0.268692
-0.258866
-0.249781
-0.241284
-0.233268
-0.225663
-0.218436
-0.211589
-0.205177
-0.199223
-0.193535
-0.18813
-0.183133
-0.184458
-0.189159
-0.191943
-0.194414
-0.195882
-0.197251
-0.198654
-0.200516
-0.201987
-0.203308
-0.20464
-0.178374
0.240083
0.248286
0.267004
0.296061
0.333888
0.378425
0.416129
0.333786
0.594993
0.367793
0.389474
0.274142
0.734563
0.625858
-0.563968
-0.524616
-0.515646
-0.478083
-0.444643
-0.411691
-0.430788
-0.460656
-0.492449
-0.503614
-0.555139
-0.538559
-0.386893
-0.364688
-0.344208
-0.32558
-0.309112
-0.294698
-0.282004
-0.270691
-0.260462
-0.251079
-0.242365
-0.234192
-0.22647
-0.219141
-0.212179
-0.20559
-0.199387
-0.193481
-0.18786
-0.182641
-0.177754
-0.179044
-0.183634
-0.186375
-0.188749
-0.190184
-0.191517
-0.192893
-0.194641
-0.196087
-0.197398
-0.198777
-0.173079
0.224672
0.232003
0.248324
0.273264
0.303751
0.335708
0.355523
0.29093
0.0939849
0.121261
0.530918
0.280224
0.103282
0.106255
-0.523018
-0.514045
-0.481232
-0.472177
-0.443222
-0.417112
-0.387029
-0.404178
-0.430173
-0.456514
-0.464047
-0.366315
-0.346999
-0.328886
-0.312435
-0.297661
-0.284454
-0.27265
-0.262022
-0.252336
-0.243397
-0.23506
-0.227218
-0.219797
-0.212746
-0.206043
-0.199676
-0.193596
-0.187787
-0.182338
-0.177257
-0.172469
-0.173729
-0.178215
-0.180913
-0.183224
-0.184632
-0.18594
-0.187287
-0.188965
-0.190374
-0.191647
-0.192993
-0.16789
0.208239
0.214656
0.228612
0.24995
0.274602
0.297702
0.307256
0.259077
0.110836
0.0617956
0.0557322
0.0726871
0.107116
0.0683472
-0.445371
-0.43996
-0.415852
-0.391863
-0.366216
-0.380293
-0.403223
-0.42565
-0.432959
-0.348101
-0.330652
-0.314731
-0.300096
-0.286664
-0.274496
-0.263515
-0.253536
-0.24437
-0.235864
-0.227901
-0.220388
-0.213262
-0.20648
-0.200012
-0.193814
-0.187867
-0.182224
-0.176932
-0.171967
-0.16729
-0.168518
-0.172901
-0.175555
-0.177808
-0.179189
-0.180474
-0.181799
-0.183434
-0.184815
-0.186062
-0.187378
-0.162805
0.191076
0.196509
0.208119
0.226465
0.246764
0.263909
0.267925
0.231829
0.130468
0.0718302
0.0639166
0.0426324
0.053269
0.0714789
0.0441033
-0.441905
-0.438891
-0.418022
-0.411542
-0.39092
-0.370182
-0.347452
-0.360409
-0.379339
-0.399306
-0.405571
-0.424816
-0.431881
-0.331211
-0.315856
-0.301741
-0.288413
-0.276102
-0.264881
-0.254652
-0.24527
-0.236597
-0.228509
-0.220908
-0.213714
-0.206872
-0.200339
-0.19407
-0.188035
-0.182256
-0.17678
-0.17162
-0.16678
-0.162213
-0.16341
-0.167692
-0.1703
-0.172497
-0.173851
-0.175114
-0.176416
-0.17801
-0.179365
-0.18059
-0.181885
-0.157817
0.173288
0.177801
0.186901
0.202936
0.220264
0.233711
0.235276
0.208199
0.139215
0.087951
0.0705757
0.0599216
0.0523282
0.0573151
0.0522783
0.0353218
-0.417031
-0.410912
-0.392903
-0.387119
-0.369406
-0.350737
-0.33068
-0.339292
-0.359824
-0.375615
-0.381692
-0.398679
-0.404719
-0.316059
-0.302549
-0.289527
-0.277305
-0.266024
-0.255637
-0.246074
-0.237246
-0.229039
-0.221348
-0.214091
-0.2072
-0.200624
-0.194313
-0.188231
-0.182374
-0.176767
-0.171438
-0.166415
-0.161699
-0.157227
-0.158402
-0.162584
-0.16515
-0.167291
-0.168619
-0.169859
-0.171139
-0.172691
-0.174019
-0.175223
-0.176496
-0.152916
0.154768
0.158705
0.164821
0.179311
0.194962
0.206467
0.207536
0.187679
0.139916
0.0988412
0.0800591
0.0656645
0.0591892
0.0626432
0.0458401
0.0576908
0.0517708
0.0528456
0.0474194
-0.391971
-0.386627
-0.371137
-0.366166
-0.350033
-0.32897
-0.315483
-0.343778
-0.356657
-0.361511
-0.374886
-0.381848
-0.302713
-0.289989
-0.277989
-0.266833
-0.25642
-0.246747
-0.237795
-0.22948
-0.221705
-0.214388
-0.207456
-0.200848
-0.194514
-0.18841
-0.182517
-0.176837
-0.17139
-0.166206
-0.161317
-0.156706
-0.152318
-0.153496
-0.157575
-0.160103
-0.162187
-0.16349
-0.164708
-0.165965
-0.167477
-0.16878
-0.169962
-0.171212
-0.14809
0.138588
0.138599
0.141739
0.155464
0.170672
0.181609
0.183432
0.169537
0.136385
0.104197
0.0861095
0.0704241
0.0597706
0.058513
0.0607305
0.0564633
0.0539182
0.0538551
0.0487801
0.0495583
-0.371297
-0.365661
-0.351275
-0.345612
-0.332595
-0.314223
-0.324251
-0.302358
-0.341855
-0.356076
-0.360857
-0.372625
-0.289923
-0.278154
-0.267247
-0.256926
-0.247234
-0.238216
-0.229819
-0.221973
-0.214599
-0.20763
-0.201
-0.194653
-0.188544
-0.182642
-0.176934
-0.171422
-0.166126
-0.161083
-0.156314
-0.151797
-0.147482
-0.148724
-0.152651
-0.155154
-0.157182
-0.158462
-0.159659
-0.160895
-0.162366
-0.163644
-0.164806
-0.166034
-0.143232
0.137283
0.115762
0.117864
0.131559
0.147368
0.158745
0.162104
0.153249
0.130522
0.106002
0.0896102
0.0746003
0.0620296
0.055022
0.055832
0.0581402
0.0567958
0.0577402
0.0541933
0.0543313
0.0517308
0.0520021
-0.370107
-0.364939
-0.351038
-0.3482
-0.333527
-0.329539
-0.316458
-0.301496
-0.310291
-0.325825
-0.322511
-0.289415
-0.342797
-0.338217
-0.355491
-0.360124
-0.277883
-0.267304
-0.257125
-0.247486
-0.23847
-0.230039
-0.222139
-0.214721
-0.207719
-0.201073
-0.194721
-0.188616
-0.182722
-0.177014
-0.171481
-0.166128
-0.16098
-0.15607
-0.15141
-0.146984
-0.142732
-0.143817
-0.147865
-0.150316
-0.152259
-0.153525
-0.154705
-0.155925
-0.157356
-0.158611
-0.159752
-0.160958
-0.138697
0.154189
0.0931551
0.0940508
0.108885
0.12561
0.137866
0.14307
0.138531
0.123464
0.105282
0.0912035
0.0777782
0.0649826
0.0563843
0.050423
0.0522782
0.0547357
0.054845
0.056529
0.0554747
0.0557848
0.0556639
0.055753
0.0528052
0.0529121
-0.350375
-0.347106
-0.317058
-0.315026
-0.303772
-0.288528
-0.297141
-0.311616
-0.30815
-0.277219
-0.267072
-0.257051
-0.247487
-0.238533
-0.230116
-0.222192
-0.214744
-0.20772
-0.201062
-0.194712
-0.188617
-0.182739
-0.177048
-0.171524
-0.166157
-0.160959
-0.155952
-0.151167
-0.146619
-0.142307
-0.138277
-0.139125
-0.142938
-0.145552
-0.147449
-0.14871
-0.14984
-0.151046
-0.152432
-0.153669
-0.154794
-0.155983
-0.134661
0.0843762
0.0726367
0.0903708
0.107098
0.11967
0.12636
0.125331
0.116001
0.102912
0.0912521
0.0796372
0.0677713
0.0584849
0.0515166
0.0452241
0.0482146
0.050877
0.0516608
0.0536855
0.0537746
0.0545341
0.0556496
0.0551634
0.0547882
0.0550656
0.054544
0.0548386
-0.31493
-0.314291
-0.30464
-0.301452
-0.290704
-0.27625
-0.284488
-0.298324
-0.294957
-0.311232
-0.307817
-0.266595
-0.256742
-0.247264
-0.23841
-0.230043
-0.222122
-0.214662
-0.207627
-0.200966
-0.19462
-0.188541
-0.182686
-0.177022
-0.171523
-0.166172
-0.160965
-0.155913
-0.151044
-0.146387
-0.141975
-0.137865
-0.134108
-0.135209
-0.138662
-0.14041
-0.142594
-0.143942
-0.145086
-0.14628
-0.147611
-0.148838
-0.149928
-0.151098
-0.130282
0.0577434
0.0783234
0.0942679
0.105628
0.112611
0.113907
0.108738
0.0996431
0.0902494
0.0803542
0.0698007
0.0606991
0.0532994
0.0470561
0.0445483
0.0425949
0.0460386
0.0482412
0.0501845
0.0506246
0.0516532
0.0533374
0.0524732
0.0533747
0.0540962
0.0550427
0.0546749
-0.303953
-0.300946
-0.291535
-0.28849
-0.278154
-0.265879
-0.272825
-0.285672
-0.282513
-0.298032
-0.294708
-0.256227
-0.246837
-0.238136
-0.229837
-0.221931
-0.214469
-0.207437
-0.200782
-0.194447
-0.188385
-0.182557
-0.176925
-0.171461
-0.166142
-0.160957
-0.155903
-0.150996
-0.146264
-0.141751
-0.137522
-0.133613
-0.129789
-0.130745
-0.134378
-0.136582
-0.138361
-0.139404
-0.140552
-0.140668
-0.143559
-0.144214
-0.145199
-0.146296
-0.12591
0.0716237
0.0876571
0.0969681
0.102783
0.104833
0.102243
0.0960734
0.08864
0.0802822
0.0710595
0.0625398
0.0552202
0.0489241
0.0452279
0.0414628
0.0432915
0.0447043
0.0403071
0.0461899
0.0471994
0.0483666
0.0500405
0.0489547
0.0503462
0.0513039
0.0529097
0.0521585
-0.290862
-0.288012
-0.279208
-0.275929
-0.267753
-0.25547
-0.262101
-0.273858
-0.271159
-0.285335
-0.282322
-0.246215
-0.237721
-0.22953
-0.221636
-0.214173
-0.207153
-0.200512
-0.194191
-0.18815
-0.182351
-0.176755
-0.171331
-0.166054
-0.160906
-0.155879
-0.150974
-0.14621
-0.141624
-0.137278
-0.133215
-0.129325
-0.125453
-0.12636
-0.12996
-0.13211
-0.133952
-0.135036
-0.136156
-0.137213
-0.138486
-0.13973
-0.14135
-0.140273
-0.121726
0.0851765
0.0930121
0.0971555
0.0986395
0.0970718
0.0927087
0.0867804
0.079716
0.0717021
0.0639005
0.0568924
0.0506212
0.0460358
0.0420758
0.0380107
0.0398184
0.0413648
0.0429892
0.0448903
0.0446394
0.0370011
0.046885
0.0470004
0.0469405
0.0478992
0.0496495
0.0486951
-0.279244
-0.27526
-0.26847
-0.265744
-0.25714
-0.245406
-0.252103
-0.262828
-0.259174
-0.274158
-0.270955
-0.237159
-0.229134
-0.221262
-0.213799
-0.206795
-0.200165
-0.193856
-0.187838
-0.182068
-0.17651
-0.171128
-0.165898
-0.160797
-0.155812
-0.150937
-0.146178
-0.141559
-0.137129
-0.132932
-0.128935
-0.12503
-0.121272
-0.122174
-0.125654
-0.127761
-0.129576
-0.130663
-0.131727
-0.13279
-0.134068
-0.135161
-0.136218
-0.137302
-0.138526
-0.13962
-0.141082
-0.138816
-0.11767
0.0918218
0.0946874
0.0951602
0.0935339
0.0899472
0.0849692
0.0788889
0.0718891
0.064802
0.0581998
0.052096
0.0470243
0.0426823
0.0385019
0.0349907
0.0367865
0.0382442
0.0394081
0.0409054
0.042051
0.0428449
0.0449699
0.0442664
0.0335269
0.0458802
0.0476285
-0.273848
-0.268004
-0.265337
-0.256337
-0.247199
-0.23645
-0.242205
-0.251549
-0.262817
-0.261133
-0.27351
-0.270482
-0.228624
-0.220814
-0.213367
-0.206387
-0.199765
-0.193459
-0.187456
-0.181713
-0.176191
-0.170853
-0.165671
-0.160621
-0.155687
-0.150858
-0.14613
-0.141516
-0.137043
-0.132751
-0.128646
-0.124675
-0.120855
-0.117222
-0.118107
-0.121479
-0.123543
-0.125287
-0.126355
-0.12739
-0.128444
-0.129696
-0.130785
-0.131821
-0.132895
-0.13417
-0.135249
-0.136315
-0.137377
-0.113712
0.0938408
0.0934887
0.0914102
0.087943
0.0834124
0.0779828
0.0717668
0.0653163
0.0591298
0.0532838
0.0480662
0.0434482
0.0391127
0.0354399
0.0322808
0.033989
0.0353704
0.0364894
0.0379345
0.038869
0.0395217
0.0410002
0.0402617
-0.267573
-0.265026
-0.257278
-0.254647
-0.246679
-0.237975
-0.227937
-0.23364
-0.241546
-0.249901
-0.252404
-0.262452
-0.260406
-0.220275
-0.212871
-0.205948
-0.199342
-0.193025
-0.187019
-0.181295
-0.175806
-0.170508
-0.165373
-0.160376
-0.155497
-0.150722
-0.146041
-0.141457
-0.136981
-0.132641
-0.128455
-0.12441
-0.120511
-0.116809
-0.113277
-0.114137
-0.117414
-0.119433
-0.121117
-0.122161
-0.123168
-0.124201
-0.125402
-0.126467
-0.127479
-0.12854
-0.129793
-0.130867
-0.131926
-0.132992
-0.109857
0.0926058
0.0901093
0.0865298
0.0821463
0.0770954
0.0714444
0.065523
0.0597212
0.0541541
0.0489928
0.0442808
0.0398549
0.0359841
0.0327047
0.0299076
0.0301223
0.0327211
0.0338278
0.035122
0.0359773
0.0366293
0.038096
0.0373578
-0.247307
-0.244999
-0.237582
-0.229377
-0.219598
-0.225109
-0.233187
-0.239846
-0.242866
-0.212288
-0.205476
-0.19891
-0.192577
-0.186554
-0.180833
-0.175366
-0.170102
-0.165009
-0.160063
-0.15524
-0.150522
-0.145896
-0.141359
-0.13691
-0.132565
-0.128337
-0.124231
-0.120258
-0.11647
-0.112871
-0.109428
-0.110277
-0.11345
-0.115425
-0.11706
-0.118079
-0.11906
-0.120069
-0.121229
-0.122266
-0.123251
-0.124285
-0.125491
-0.126539
-0.127577
-0.128627
0.0890832
0.0853583
0.0810419
0.0762176
0.070969
0.0654775
0.0600199
0.0547227
0.0497092
0.0450392
0.0406237
0.0366252
0.0331714
0.030215
0.0277116
0.0289923
0.030132
0.0290077
0.0267726
0.0330313
0.0333047
0.0338863
0.0352547
0.034564
-0.238425
-0.236038
-0.228805
-0.221007
-0.211605
-0.216939
-0.224612
-0.231703
-0.233878
-0.238716
-0.204944
-0.19847
-0.192128
-0.186084
-0.180355
-0.174892
-0.169647
-0.164587
-0.159685
-0.154915
-0.150256
-0.14569
-0.141207
-0.136804
-0.132484
-0.128252
-0.124117
-0.12009
-0.11622
-0.112534
-0.109027
-0.111518
-0.1131
-0.114098
-0.115056
-0.116041
-0.117169
-0.11818
-0.11914
-0.120147
-0.121314
-0.122333
-0.123343
-0.124365
0.0841905
0.0798909
0.0752676
0.0703222
0.0651899
0.0600496
0.0550154
0.0501879
0.0456345
0.0413124
0.0372968
0.0337235
0.0306157
0.0279775
0.0256474
0.0267936
0.0279927
0.0285701
0.0290358
0.029546
0.0298305
0.0299288
0.0359519
0.0328519
0.0322375
-0.237956
-0.235595
-0.229412
-0.227322
-0.220475
-0.213005
-0.204322
-0.209045
-0.216522
-0.22322
-0.225313
-0.231395
-0.233526
-0.19802
-0.191668
-0.185618
-0.179885
-0.174416
-0.169167
-0.16412
-0.159251
-0.154529
-0.149925
-0.145419
-0.140996
-0.136648
-0.132371
-0.128166
-0.124034
-0.119986
-0.116057
-0.112285
-0.108693
-0.111137
-0.112109
-0.113208
-0.114196
-0.115133
-0.116116
-0.117252
-0.118245
-0.119228
-0.120223
0.0786149
0.0741186
0.0694624
0.0646418
0.0598076
0.0550415
0.0504229
0.0460275
0.0418452
0.0379062
0.0342994
0.031074
0.0282657
0.0257794
0.0234898
0.0247339
0.0259436
0.0264175
0.0269612
0.0275024
0.0281062
0.0284842
0.0289102
0.0293433
0.0296174
0.0296715
0.0326768
-0.229071
-0.227052
-0.221075
-0.219055
-0.21257
-0.205496
-0.197226
-0.201869
-0.208587
-0.215166
-0.217182
-0.222953
-0.224995
-0.191212
-0.185142
-0.179432
-0.173964
-0.16869
-0.163629
-0.158774
-0.15409
-0.149535
-0.145086
-0.140723
-0.136435
-0.132213
-0.128052
-0.12395
-0.119912
-0.115957
-0.112124
-0.108446
-0.111218
-0.112183
-0.113289
-0.11426
-0.11522
-0.116189
0.0727776
0.0683183
0.0638248
0.059282
0.0547917
0.0504095
0.0462004
0.0421831
0.0383753
0.0348228
0.0315602
0.0286293
0.0259956
0.0234871
0.0203906
0.0228081
0.0239834
0.0243287
0.0249182
0.0254119
0.0260216
0.0263676
0.0268808
0.0273956
0.0279712
0.0284129
0.0288086
0.0292277
0.0294453
-0.220743
-0.218798
-0.213158
-0.211202
-0.205093
-0.198144
-0.190595
-0.193441
-0.201555
-0.207197
-0.20932
-0.214895
-0.216854
-0.184641
-0.178976
-0.173538
-0.168236
-0.163143
-0.158279
-0.153613
-0.149095
-0.144695
-0.14039
-0.136162
-0.132
-0.127895
-0.123841
-0.119836
-0.11589
-0.112029
-0.108287
-0.1113
-0.112253
0.0669513
0.0626946
0.0584766
0.0542601
0.0501354
0.0461412
0.0423097
0.0386599
0.0352217
0.0320094
0.0290462
0.0263396
0.023807
0.0213185
0.020933
0.0194197
0.0213317
0.022513
0.0231391
0.0233896
0.0240147
0.024294
0.0248342
0.0253064
0.0258754
0.026312
0.0267987
0.0273436
0.0278901
-0.212807
-0.21099
-0.205627
-0.20388
-0.198006
-0.189573
-0.184042
-0.195504
-0.200367
-0.20213
-0.206834
-0.209402
-0.178479
-0.173126
-0.167811
-0.162681
-0.157789
-0.15312
-0.148619
-0.144257
-0.140002
-0.135832
-0.131731
-0.127687
-0.12369
-0.119735
-0.115823
-0.111968
-0.108197
0.0613316
0.0573586
0.0534644
0.0495957
0.0458381
0.0422134
0.0387412
0.0354501
0.0323469
0.0294375
0.026737
0.0242522
0.0220731
0.0211429
0.0197191
0.0204842
0.0207505
0.0205532
0.0181523
0.0209489
0.0221677
0.0226278
0.022991
0.0232874
0.0238339
0.0242451
0.0247572
0.0252584
0.0257909
-0.205727
-0.203662
-0.198486
-0.196795
-0.190862
-0.183307
-0.187531
-0.177881
-0.193126
-0.195409
-0.200089
-0.201866
-0.205822
-0.172692
-0.167397
-0.162242
-0.157324
-0.152637
-0.148133
-0.143787
-0.139568
-0.135449
-0.131407
-0.127424
-0.123489
-0.119593
-0.115732
-0.111911
-0.108145
0.0560197
0.0523745
0.0488108
0.0452931
0.0418878
0.0386125
0.0354878
0.0325254
0.0297256
0.0270979
0.0246724
0.0225682
0.0212533
0.019884
0.0178775
0.0189195
0.0195858
0.0200198
0.020258
0.0207227
0.0209003
0.0227294
0.0156883
0.0232361
0.0222685
0.022516
0.0228241
0.0232247
0.0237401
-0.205233
-0.203324
-0.198238
-0.196538
-0.194001
-0.191435
-0.189726
-0.184373
-0.177199
-0.181228
-0.188189
-0.186444
-0.172189
-0.194993
-0.199818
-0.201553
-0.166956
-0.16181
-0.156881
-0.152184
-0.14766
-0.143305
-0.139101
-0.135021
-0.131032
-0.127109
-0.123236
-0.119403
-0.115602
-0.111832
-0.108097
0.0510765
0.0477528
0.0445272
0.0413408
0.0382728
0.0353291
0.0325246
0.0298623
0.0273491
0.025008
0.0229285
0.0213632
0.0199243
0.0180603
0.0163723
0.0173157
0.0180146
0.0186073
0.0188824
0.0192394
0.0195671
0.0198708
0.0201499
0.0205945
0.0212347
0.0127289
0.0230528
0.0218037
-0.197954
-0.196322
-0.193428
-0.184707
-0.18319
-0.178016
-0.171584
-0.175353
-0.181776
-0.180476
-0.16644
-0.194726
-0.161356
-0.156443
-0.151761
-0.147217
-0.142838
-0.138625
-0.134565
-0.130615
-0.126744
-0.122932
-0.119162
-0.115426
-0.111716
-0.108031
0.0465062
0.0435082
0.0405964
0.0377304
0.0349753
0.0323407
0.0298277
0.027448
0.025216
0.0231854
0.0214917
0.0199673
0.0182197
0.0165681
0.0151037
0.0158831
0.0165371
0.0170568
0.0173571
0.0177291
0.0181428
0.0185771
0.0188476
0.0191725
0.0195122
-0.178271
-0.177345
-0.172488
-0.165799
-0.169559
-0.17586
-0.174367
-0.160854
-0.155972
-0.151348
-0.146807
-0.142399
-0.13816
-0.134098
-0.130169
-0.126339
-0.122579
-0.118871
-0.115199
-0.111554
-0.10793
0.0423174
0.0396227
0.0370094
0.0344395
0.0319769
0.0296204
0.0273827
0.0252723
0.0233196
0.0215913
0.0200157
0.0183537
0.0167466
0.0153138
0.0139374
0.0146168
0.0152222
0.0156414
0.0159142
0.0162556
0.0166447
0.0170239
0.017314
0.0176794
0.0181122
-0.177302
-0.176975
-0.172849
-0.171437
-0.166681
-0.160276
-0.163864
-0.170026
-0.168546
-0.175648
-0.174171
-0.155431
-0.150913
-0.146408
-0.141985
-0.137721
-0.133642
-0.129715
-0.125908
-0.122188
-0.118534
-0.114924
-0.111344
-0.107784
0.0384924
0.0360786
0.0337459
0.0314486
0.0292486
0.0271555
0.0251708
0.0233158
0.0216171
0.0200394
0.0184478
0.0168959
0.0154856
0.0141454
0.0128527
0.0134641
0.0140313
0.0143796
0.0146467
0.0149462
0.0152969
0.0155982
0.0158612
0.0161955
0.0165926
-0.17254
-0.171183
-0.167044
-0.165668
-0.16113
-0.154823
-0.158409
-0.164335
-0.162896
-0.169857
-0.168383
-0.150429
-0.145993
-0.14158
-0.137306
-0.133212
-0.129275
-0.125469
-0.12177
-0.118157
-0.114602
-0.111086
-0.107592
0.0350091
0.0328603
0.0307786
0.0287306
0.0267778
0.0249204
0.0231709
0.0215405
0.0200058
0.0184873
0.0170001
0.0156178
0.0143092
0.013054
0.0118496
0.0123926
0.0129363
0.0132435
0.0134883
0.0137572
0.0140929
0.0143374
0.0145919
0.0148857
0.015236
-0.166744
-0.165428
-0.161463
-0.16012
-0.155673
-0.149898
-0.153023
-0.158855
-0.15746
-0.164162
-0.162734
-0.145526
-0.141161
-0.1369
-0.132806
-0.128862
-0.125044
-0.121343
-0.117752
-0.114241
-0.110784
-0.107354
0.0318492
0.0299361
0.0280893
0.026269
0.0245357
0.0228939
0.0213509
0.0198867
0.018454
0.0170454
0.0157067
0.0144317
0.0132086
0.0120447
0.0109182
0.0113978
0.0119223
0.0121871
0.0124144
0.012678
0.0129765
0.013205
0.0134357
0.0136939
0.0140308
-0.161164
-0.15988
-0.156033
-0.154715
-0.150675
-0.144973
-0.148158
-0.15333
-0.152265
-0.158662
-0.15728
-0.140697
-0.136479
-0.132404
-0.128474
-0.124642
-0.120924
-0.117336
-0.113852
-0.110441
-0.107071
0.0289837
0.0272912
0.0256501
0.0240356
0.0225011
0.0210516
0.0196708
0.0183315
0.0170151
0.0157419
0.0145121
0.013321
0.0121841
0.0110978
0.0100306
0.0104563
0.0109784
0.011201
0.0114246
0.0116695
0.0119504
0.0121518
0.0123629
0.0126165
0.0129118
-0.155757
-0.154708
-0.151022
-0.149774
-0.145709
-0.140153
-0.143179
-0.148532
-0.147265
-0.153149
-0.1523
-0.136021
-0.131982
-0.128094
-0.124264
-0.120528
-0.116926
-0.11345
-0.11007
-0.10675
0.0263929
0.0248906
0.0234413
0.0220105
0.0206525
0.0193612
0.0181143
0.0168953
0.015705
0.0145396
0.0133931