/*--------------------------------*- C++ -*----------------------------------*\
| =========                 |                                                 |
| \\      /  F ield         | OpenFOAM: The Open Source CFD Toolbox           |
|  \\    /   O peration     | Version:  v1912                                 |
|   \\  /    A nd           | Website:  www.openfoam.com                      |
|    \\/     M anipulation  |                                                 |
\*---------------------------------------------------------------------------*/
FoamFile
{
    version     2.0;
    format      ascii;
    class       volScalarField;
    location    "270";
    object      p;
}
// * * * * * * * * * * * * * * * * * * * * * * * * * * * * * * * * * * * * * //

dimensions      [0 2 -2 0 0 0 0];


internalField   nonuniform List<scalar> 
3673
(
0.00168757
0.00193248
0.00153433
0.00217695
0.00176953
0.00138915
0.00239014
0.00200688
0.00161875
0.001256
0.00257939
0.00221746
0.00184835
0.00147938
0.00113588
0.00273391
0.00240757
0.00205317
0.00170798
0.00135497
0.00102028
0.0028421
0.00256291
0.00224204
0.00191134
0.00157595
0.00123396
0.000915446
0.00288906
0.00267255
0.00240053
0.00209318
0.0017704
0.00144812
0.00112425
0.000819205
0.00286754
0.00272543
0.00251602
0.00224888
0.0019511
0.00164134
0.00133571
0.00102478
0.000727685
0.00278036
0.00271607
0.00258216
0.00237077
0.00210607
0.00181855
0.00152447
0.00122998
0.000926699
0.000647872
0.00263771
0.00263689
0.0025925
0.00244664
0.00222317
0.00196831
0.00169517
0.00141365
0.00113046
0.000843031
0.000572245
0.00245916
0.00248816
0.00254352
0.00247485
0.00230011
0.00208376
0.00184058
0.00158201
0.00131169
0.00104045
0.000763271
0.000504354
0.00229625
0.00226139
0.0024424
0.00246085
0.00233353
0.00215411
0.00194873
0.00172
0.00147218
0.00121318
0.000957777
0.000690368
0.000436869
0.00222287
0.00196587
0.00228571
0.00241109
0.00232252
0.00217555
0.00201294
0.00182223
0.0016085
0.00137322
0.0011312
0.000880265
0.000621708
0.000380696
0.00169711
0.00198795
0.00224452
0.00203287
0.00234418
0.00227224
0.00215037
0.00202773
0.00188158
0.00171032
0.0015058
0.00128373
0.00104513
0.00080666
0.00056129
0.00032954
0.00170163
0.00139993
0.00186352
0.00200357
0.00212533
0.0022573
0.00225576
0.00218779
0.00207626
0.00199135
0.00189159
0.00176439
0.00159817
0.00140698
0.00119396
0.000970398
0.000742215
0.000504781
0.000285711
0.00209158
0.00185304
0.00140783
0.00133012
0.0019106
0.00183199
0.00198017
0.0020746
0.00218636
0.00194541
0.00208129
0.00195834
0.00190859
0.00185199
0.00176908
0.001648
0.00149677
0.00131666
0.00111637
0.000901772
0.000683671
0.000458054
0.000247273
0.00191655
0.00183396
0.00188817
0.00181722
0.000955725
0.00114912
0.00182911
0.00193964
0.00175229
0.00180606
0.00187917
0.00205159
0.00199554
0.00217498
0.00190576
0.0018104
0.00178686
0.00176871
0.00172487
0.00165014
0.0015429
0.00140329
0.0012333
0.00104164
0.000840443
0.000631864
0.000415633
0.000214995
0.00164546
0.00165312
0.00166362
0.00166851
0.00184108
0.00184408
0.0017659
0.000310364
0.00144851
0.00255363
0.00204108
0.00182505
0.00184162
0.00174471
0.00181896
0.00201477
0.00193097
0.00210664
0.00187358
0.00163173
0.00164716
0.00163751
0.0016041
0.00154031
0.00144518
0.00131363
0.00115551
0.000976544
0.00077892
0.000586372
0.000379842
0.000190178
0.00146668
0.00147589
0.00149953
0.00151599
0.00155959
0.00155612
0.00153896
0.00166698
0.00166647
0.00177065
0.00207499
-0.00100227
0.00288238
0.00228272
0.00169576
0.00171043
0.00173827
0.00198443
0.00205355
0.00149585
0.00151461
0.00151356
0.00148989
0.00144
0.00135189
0.00123085
0.00108092
0.000909158
0.000734161
0.000546577
0.000351399
0.00017006
0.00132915
0.00131657
0.00135436
0.00136597
0.001424
0.00143158
0.0014369
0.00148169
0.00148215
0.0014916
0.00151556
0.00161304
0.00156659
-0.00351032
0.00136515
0.00138699
0.00139975
0.00138943
0.00134468
0.00126552
0.00115238
0.001012
0.000859762
0.000688092
0.000513085
0.000327423
0.000158378
0.00119722
0.00117663
0.00121703
0.00121472
0.00127401
0.00128018
0.00130263
0.00136508
0.0013461
0.00137701
0.00141197
0.00144414
0.00143503
0.00124032
0.0012781
0.00129846
0.00129319
0.00125556
0.00118279
0.00107883
0.000954435
0.00080871
0.00065307
0.000489029
0.000313525
0.000148575
0.00107586
0.00104441
0.0010852
0.00107776
0.00113473
0.00112833
0.00115638
0.00122069
0.0011932
0.00122785
0.00127496
0.00132686
0.00130548
0.0011327
0.00117403
0.00120022
0.00120288
0.00116969
0.00110343
0.00101177
0.000898322
0.000769208
0.000622315
0.000469011
0.000301881
0.000151384
0.000968544
0.000921641
0.000967008
0.000948265
0.00100016
0.000989745
0.00101668
0.0010775
0.00104885
0.00107678
0.00112462
0.00118003
0.00115307
0.00102517
0.001078
0.00111117
0.00111338
0.00108631
0.00102893
0.000947538
0.000849045
0.000729946
0.000597942
0.000454774
0.000297301
0.000156432
0.000863018
0.000814867
0.000855817
0.000830276
0.000878866
0.000861109
0.000887381
0.000943185
0.000916001
0.000938246
0.000980207
0.00103358
0.00101084
0.000931292
0.00098887
0.00102271
0.00103288
0.00100762
0.000957421
0.000890273
0.000806259
0.000705376
0.000582785
0.000446865
0.000302781
0.000171342
0.000769205
0.000711953
0.000751075
0.000722272
0.000766447
0.000743412
0.000772077
0.00082124
0.00079353
0.000810314
0.000850367
0.000898513
0.000878227
0.000840735
0.000901742
0.000942581
0.000948359
0.00092725
0.000890788
0.000841933
0.00077481
0.00068361
0.000572173
0.000448266
0.000312649
0.000182193
0.000678995
0.000618059
0.000656834
0.000621243
0.000663381
0.000637515
0.000661901
0.000707775
0.000681705
0.000690407
0.000736767
0.000775237
0.000756389
0.000757108
0.000820577
0.000856596
0.00086349
0.000850327
0.000829801
0.000800853
0.000749585
0.000670534
0.00056639
0.000452388
0.000318238
0.000205562
0.000595166
0.000529237
0.000568777
0.000528904
0.00056842
0.000539174
0.000559333
0.000601794
0.000585322
0.000585623
0.000626567
0.000664316
0.000642956
0.000676609
0.000740719
0.000776121
0.00077805
0.000776648
0.000778312
0.000770328
0.000732725
0.000658828
0.000566955
0.000458595
0.000341484
0.000233278
0.000516721
0.000445385
0.000487499
0.000442448
0.000480559
0.000449121
0.000467109
0.000506134
0.000490633
0.000492777
0.000519263
0.000560524
0.000546072
0.000602655
0.000663766
0.000682812
0.00069031
0.000710675
0.00074159
0.000749699
0.000717937
0.000656629
0.000568601
0.000478435
0.000364093
0.000267511
0.000444625
0.000363301
0.000414322
0.00036225
0.000398815
0.000364629
0.000381805
0.00041665
0.000404597
0.000403612
0.000427498
0.000463705
0.000451661
0.000527137
0.000572813
0.000584868
0.000606064
0.000662392
0.000720135
0.000734803
0.000707883
0.000652912
0.00058287
0.000493014
0.000397389
0.000308809
0.000370061
0.000286904
0.000342621
0.000283971
0.000322108
0.000286625
0.000304171
0.000336061
0.000322094
0.000319252
0.000342768
0.000374152
0.000366166
0.000449151
0.000476794
0.000479608
0.000538677
0.000639915
0.000706412
0.000720579
0.000699389
0.000654961
0.000592627
0.000523075
0.000432506
0.000353752
0.000302884
0.000213529
0.00027234
0.00020841
0.000251824
0.00021097
0.00022479
0.000258226
0.00024967
0.00024218
0.000266208
0.000294854
0.000282908
0.000365517
0.000351745
0.000381035
0.000512399
0.000633865
0.00069341
0.000705756
0.000691018
0.000659866
0.000612973
0.000553479
0.000475847
0.000411328
0.000231032
0.000136966
0.000203772
0.000136397
0.000181799
0.000138528
0.000153885
0.000185457
0.000178661
0.000166492
0.000181502
0.000214869
0.000220812
0.000248001
0.000216182
0.00033943
0.000519789
0.000631746
0.000671922
0.00068447
0.000686107
0.000670428
0.000640684
0.000594279
0.000528377
0.000477305
0.000149988
5.57097e-05
0.000136214
6.60752e-05
0.000110996
6.62166e-05
8.72637e-05
0.000119142
0.000105489
9.56816e-05
0.000111711
0.000142213
0.000149637
9.33241e-05
0.000120727
0.000369107
0.000545582
0.000607315
0.000638095
0.000666213
0.000682705
0.000688276
0.000671852
0.000641892
0.000589253
0.000553695
4.47165e-05
-3.4092e-05
7.30885e-05
-1.44168e-05
3.95431e-05
-5.17974e-06
1.77763e-05
4.90285e-05
3.67392e-05
2.39226e-05
4.77987e-05
7.82053e-05
7.49868e-05
-0.000122568
0.000171299
0.00044681
0.000523291
0.000559026
0.000603956
0.000648618
0.000688053
0.00070996
0.000713882
0.000693692
0.000662771
0.000640882
-0.00026687
-0.000130671
5.70002e-06
-9.2482e-05
-3.01118e-05
-8.4101e-05
-5.35922e-05
-1.96467e-05
-3.65431e-05
-4.48355e-05
-2.17664e-05
7.58022e-06
9.16093e-06
-0.000120977
0.000348964
0.000429395
0.000454829
0.000506985
0.000571013
0.000637377
0.000694244
0.000737164
0.000754421
0.000768212
0.000744422
0.000740508
-0.000490657
-0.000457465
-0.000107648
-0.000154357
-0.000105586
-0.000172178
-0.000129399
-8.87238e-05
-0.000117668
-0.000119629
-9.0717e-05
-6.15038e-05
-6.32193e-05
0.000255759
0.000338932
0.0003362
0.000385353
0.000458248
0.000541339
0.000626943
0.000705897
0.000769589
0.000820101
0.00083724
0.000840648
0.000853496
0.000129484
-0.000357071
-0.000797275
-0.000187316
-8.73735e-05
-0.00027846
-0.000202475
-0.000171124
-0.000213758
-0.00020536
-0.00016932
-0.000136119
-0.000138522
0.000251064
0.00020097
0.000246302
0.000321156
0.000410862
0.000513595
0.000621457
0.000725589
0.000816401
0.000879118
0.000932992
0.000944224
0.000974074
0.000116139
-2.76923e-05
-9.1489e-06
-0.000460668
-0.00141331
1.77412e-06
-7.59141e-05
-0.000199029
-0.00027709
-0.000315914
-0.000262013
-0.00021581
-0.000238756
5.80663e-05
9.56637e-05
0.000172053
0.000261042
0.000366967
0.000487062
0.000618429
0.000749337
0.000864589
0.000963863
0.00102258
0.00106431
0.00112078
-8.25486e-05
-0.000128318
-0.000155857
-0.000169491
2.45206e-06
-5.20133e-05
0.00056647
0.000380939
-0.00226475
-0.000134852
-0.000273092
-0.000301197
-0.000336849
-5.76728e-05
2.32132e-05
0.000105381
0.000202028
0.000319522
0.000462771
0.000620057
0.00078046
0.000927324
0.00104582
0.0011419
0.00120217
0.00128051
-0.000193895
-0.000211307
-0.000218801
-0.000243771
-0.000248534
-0.000280831
-0.000319029
-0.000159481
-0.000198803
9.07045e-05
-0.00448549
-0.000124388
-4.75977e-05
3.3508e-05
0.000138564
0.000275155
0.000441409
0.000628433
0.000820198
0.0010001
0.00114728
0.00127132
0.00135449
0.00145518
-0.00026258
-0.000289508
-0.000284898
-0.000295886
-0.000272826
-0.000289823
-0.000303414
-0.000308968
-0.000290114
-0.000192788
-0.000124448
-3.83018e-05
7.8434e-05
0.000230898
0.00042101
0.000639742
0.000867174
0.00107699
0.00126655
0.00141278
0.00152486
0.00165492
-0.000332545
-0.000363432
-0.000351848
-0.00036888
-0.000338099
-0.000339424
-0.000341221
-0.000308679
-0.000313486
-0.000268366
-0.000201119
-0.000112085
1.23893e-05
0.000183994
0.000403854
0.000657896
0.000920964
0.00117499
0.00139367
0.00157767
0.00172043
0.00187262
-0.00040201
-0.00043767
-0.000417276
-0.000440419
-0.000407595
-0.000421829
-0.000411022
-0.000368107
-0.000383809
-0.000347939
-0.000282039
-0.000190225
-5.61275e-05
0.000138496
0.000390906
0.000681427
0.000988419
0.00128789
0.00154109
0.00176556
0.00192787
0.00210808
-0.000479464
-0.000509934
-0.000485034
-0.000508988
-0.000478403
-0.000492363
-0.000482758
-0.000442534
-0.000456993
-0.000426187
-0.000364453
-0.000273898
-0.000125834
9.43359e-05
0.000380113
0.000715818
0.00107231
0.0014061
0.00171201
0.00195628
0.00216995
0.00236717
-0.000555038
-0.000584595
-0.000558498
-0.000579531
-0.000544572
-0.000565494
-0.000547566
-0.000513797
-0.000528498
-0.000510527
-0.000459198
-0.000365743
-0.000198416
4.90054e-05
0.000375775
0.00075701
0.00115552
0.00154279
0.00188752
0.00219289
0.00243643
0.00268904
-0.000635641
-0.000662893
-0.000630731
-0.000652665
-0.00061587
-0.000632073
-0.000618331
-0.000582625
-0.000596953
-0.0006064
-0.00056334
-0.00046236
-0.000274889
7.28417e-06
0.000375104
0.000804412
0.00125687
0.00170142
0.00209914
0.00245578
0.00275545
0.00303834
-0.000724108
-0.00073854
-0.000706334
-0.00072716
-0.000689184
-0.000704458
-0.000688421
-0.000646396
-0.000665663
-0.000713977
-0.000675766
-0.000559586
-0.000347806
-3.19784e-05
0.000379762
0.00086343
0.00138001
0.00187205
0.00234344
0.00273181
0.00329012
0.00126837
-0.000827055
-0.000820667
-0.000782839
-0.000799801
-0.000763601
-0.000776547
-0.000762138
-0.000723809
-0.000739524
-0.000839932
-0.000797178
-0.000657141
-0.000421895
-7.24065e-05
0.000389397
0.000932903
0.00150475
0.00208373
0.00256051
0.00333727
0.00147948
-0.000954903
-0.00091181
-0.000867456
-0.000876653
-0.00083927
-0.000848332
-0.000834611
-0.000796546
-0.000812616
-0.00098378
-0.000906236
-0.000758522
-0.000503163
-0.000112241
0.000406035
0.00100888
0.00166531
0.0022408
0.00312381
0.0015393
-0.0010964
-0.00111561
-0.000974664
-0.000942936
-0.000911651
-0.000930526
-0.000909984
-0.000872949
-0.000890502
-0.00109995
-0.00101725
-0.000867764
-0.000585693
-0.00014714
0.000426618
0.00111096
0.00176308
0.00272455
0.00139562
-0.00123487
-0.00114138
-0.00142724
-0.000921139
-0.000941728
-0.0010146
-0.00099123
-0.000950163
-0.000971183
-0.00120214
-0.00114453
-0.000987082
-0.000668703
-0.000182261
0.000467111
0.00115738
0.00215647
0.00112572
-0.00133074
-0.00131154
-0.00122411
-0.00140495
-0.00156046
-0.00212427
-0.00372256
0.00138778
-0.00113807
-0.00110067
-0.00103689
-0.00106497
-0.00133483
-0.00129046
-0.00111182
-0.000754161
-0.000204288
0.000464194
0.00144284
0.000770959
-0.00145692
-0.00141868
-0.00136081
-0.00135317
-0.0013551
-0.00133945
-0.001364
-0.00137987
-0.00136352
-0.000962657
-0.000687702
-0.00149398
-0.00144576
-0.00123808
-0.000834203
-0.000250799
0.000631762
0.000360727
-0.00161436
-0.00155302
-0.00147947
-0.00145318
-0.00143115
-0.00139709
-0.00137727
-0.00138215
-0.00137631
-0.00137678
-0.00137525
-0.00143871
-0.00144546
-0.00128039
-0.00166832
-0.00160664
-0.00136892
-0.000917424
-0.00020373
-6.51122e-05
-0.00179412
-0.00170839
-0.00162332
-0.00159481
-0.00155597
-0.00151895
-0.00148964
-0.00147275
-0.00144366
-0.00141827
-0.0013968
-0.00140013
-0.00139461
-0.00140669
-0.00141475
-0.00185274
-0.00177758
-0.00148168
-0.00098699
-0.00047204
-0.00199002
-0.00188574
-0.00178678
-0.00174931
-0.00170435
-0.0016672
-0.00162354
-0.00160842
-0.00157535
-0.00153571
-0.00150605
-0.00148563
-0.00145273
-0.00143407
-0.00140848
-0.00205678
-0.00191832
-0.00165529
-0.000826895
-0.00221865
-0.00208121
-0.00197017
-0.00191944
-0.00187417
-0.00182959
-0.00178095
-0.0017596
-0.00172035
-0.00168237
-0.00163911
-0.00161956
-0.00158535
-0.0015496
-0.00151712
-0.0022362
-0.00217823
-0.00110804
-0.00245095
-0.00231638
-0.00218292
-0.00211117
-0.00206355
-0.0020122
-0.00195885
-0.00192737
-0.00188532
-0.00183879
-0.00179776
-0.00176799
-0.00173038
-0.00169108
-0.00165169
-0.00257162
-0.00131293
-0.00290365
-0.00254457
-0.00241475
-0.00233801
-0.00228137
-0.00221868
-0.00216192
-0.00211717
-0.00206705
-0.00201931
-0.00197299
-0.00193341
-0.00189618
-0.00184379
-0.00180604
-0.00145301
-0.00167689
-0.00301988
-0.00272309
-0.0025768
-0.00251309
-0.00245715
-0.0023929
-0.00233547
-0.00227969
-0.00222252
-0.00216908
-0.00211586
-0.00207269
-0.00202324
-0.00197816
-0.00159218
-0.00319686
-0.00298196
-0.00287015
-0.00274175
-0.00265024
-0.00257665
-0.00251204
-0.00245359
-0.00239456
-0.00233185
-0.00227814
-0.00222188
-0.00216809
-0.00136646
-0.00330545
-0.00335301
-0.00310271
-0.00295274
-0.00284952
-0.00274411
-0.0026546
-0.0025612
-0.00250231
-0.00244396
-0.00238787
-0.0013393
-0.00362984
-0.00336727
-0.0030686
-0.00293473
-0.00282186
-0.00272222
-0.00263389
-0.00164432
-0.00393079
-0.00334647
-0.00305259
-0.0685871
-0.0687765
-0.0677458
-0.0692811
-0.0687939
-0.0679335
-0.0671696
-0.0699393
-0.0694415
-0.068637
-0.0680896
-0.0673292
-0.0665458
-0.0701084
-0.0705979
-0.0699665
-0.0683124
-0.0673125
-0.0674617
-0.0666818
-0.0658815
-0.070766
-0.071279
-0.0709892
-0.0713221
-0.0686977
-0.0657225
-0.066027
-0.066805
-0.0660177
-0.0652622
-0.0714524
-0.0720355
-0.0737287
-0.0713829
-0.0726848
-0.069064
-0.0661144
-0.0631473
-0.0647271
-0.0661581
-0.0655178
-0.065385
-0.0646345
-0.072161
-0.0727431
-0.0765193
-0.0741483
-0.0740831
-0.0717485
-0.0728691
-0.0693972
-0.0664673
-0.0635563
-0.063456
-0.0606589
-0.0622012
-0.0648861
-0.0642364
-0.0647736
-0.0639935
-0.0733889
-0.0793912
-0.0769579
-0.0768992
-0.0754736
-0.0745164
-0.0742269
-0.0735397
-0.0720809
-0.0696975
-0.0667879
-0.0639133
-0.0610559
-0.0635925
-0.0629642
-0.0609754
-0.0582328
-0.0597198
-0.0623483
-0.0616955
-0.0641255
-0.063328
-0.074058
-0.0823607
-0.079844
-0.0797816
-0.0783271
-0.0773401
-0.0770488
-0.0763473
-0.0756622
-0.0749415
-0.0748442
-0.0723851
-0.0699805
-0.0670816
-0.0642324
-0.0614109
-0.0586244
-0.0634623
-0.062837
-0.0610469
-0.060363
-0.058521
-0.0558725
-0.0573242
-0.0593898
-0.0622288
-0.061576
-0.0627142
-0.0748167
-0.0854007
-0.0828136
-0.0827421
-0.0812548
-0.0802375
-0.0799395
-0.079222
-0.0785219
-0.0777838
-0.0776779
-0.0768763
-0.0761939
-0.075536
-0.0751471
-0.072672
-0.0702517
-0.0673545
-0.0645223
-0.0617262
-0.0589705
-0.056251
-0.0609006
-0.0601991
-0.0582752
-0.0561529
-0.053562
-0.0549743
-0.0571022
-0.0590115
-0.0596489
-0.062093
-0.0614559
-0.0884108
-0.0858223
-0.0857902
-0.0842475
-0.0832064
-0.0829078
-0.0821746
-0.0814554
-0.0806983
-0.0805823
-0.079765
-0.0790669
-0.0783949
-0.077657
-0.0779862
-0.0754392
-0.0729516
-0.0705181
-0.0676162
-0.0647914
-0.0620132
-0.059277
-0.0565849
-0.0539204
-0.0608104
-0.0602407
-0.0584026
-0.0578098
-0.0559238
-0.0538247
-0.0512853
-0.0526734
-0.0547535
-0.0566409
-0.057236
-0.0915988
-0.0888678
-0.0888212
-0.0872834
-0.0862153
-0.0859481
-0.085188
-0.0844437
-0.0836789
-0.083551
-0.0827349
-0.08202
-0.0813297
-0.0805718
-0.0808976
-0.0782799
-0.0757261
-0.07323
-0.0707809
-0.0678733
-0.065045
-0.0622796
-0.0595582
-0.0568842
-0.0542495
-0.0516372
-0.0560302
-0.0554489
-0.0535841
-0.0515489
-0.0490823
-0.0504171
-0.0524496
-0.0542993
-0.0548848
-0.0946457
-0.0920973
-0.0920527
-0.0904446
-0.0892882
-0.0889198
-0.0881972
-0.0875338
-0.0867205
-0.086569
-0.0857456
-0.0850194
-0.0843224
-0.0835569
-0.0838662
-0.0811953
-0.07857
-0.0760135
-0.0735073
-0.0710322
-0.0681231
-0.0652918
-0.0625313
-0.0598205
-0.0571608
-0.0545493
-0.0519676
-0.0494311
-0.0536934
-0.0531093
-0.0513876
-0.0493269
-0.0468942
-0.0482216
-0.0502245
-0.0519317
-0.0525297
-0.0953526
-0.0953447
-0.0936377
-0.0967149
-0.097467
-0.0925061
-0.0922098
-0.0914317
-0.0906831
-0.0898203
-0.0896588
-0.0872712
-0.0865299
-0.086893
-0.0841682
-0.0814895
-0.0788658
-0.0763014
-0.0737738
-0.0712615
-0.0683577
-0.0655282
-0.0627729
-0.0600713
-0.0574205
-0.0548246
-0.0522697
-0.0497551
-0.0472587
-0.0513424
-0.0510232
-0.0490983
-0.0471379
-0.0447563
-0.0460634
-0.0479968
-0.0497291
-0.0502762
-0.0987007
-0.0958111
-0.0970821
-0.0955344
-0.0947172
-0.0939147
-0.0930583
-0.0990037
-0.098865
-0.0928616
-0.0899959
-0.0872037
-0.0844706
-0.0817907
-0.0791649
-0.0765816
-0.0740196
-0.0714601
-0.0685694
-0.0657487
-0.0630002
-0.0603058
-0.057666
-0.0550793
-0.0525427
-0.0500513
-0.0475832
-0.0451209
-0.050961
-0.0491936
-0.0486481
-0.0469211
-0.0450043
-0.0426746
-0.0439521
-0.0458545
-0.0475752
-0.0481213
-0.0495968
-0.05008
-0.0992109
-0.0961624
-0.0980033
-0.0982404
-0.0972724
-0.0963989
-0.100867
-0.0990239
-0.100624
-0.0932017
-0.0903205
-0.0875206
-0.0847814
-0.0821003
-0.0794596
-0.0768447
-0.0742354
-0.0716246
-0.0687495
-0.0659445
-0.0632074
-0.0605252
-0.0578957
-0.0553201
-0.052795
-0.0503201
-0.0478753
-0.0454443
-0.0430326
-0.049066
-0.0485326
-0.0470289
-0.0464907
-0.0447977
-0.0429183
-0.0406409
-0.0418857
-0.0437509
-0.0454337
-0.0459707
-0.0474564
-0.0479991
-0.0995668
-0.09651
-0.0989436
-0.0980958
-0.0999754
-0.100868
-0.0935381
-0.0906513
-0.0878484
-0.0851058
-0.08241
-0.0797403
-0.0770789
-0.0744189
-0.0717529
-0.0688957
-0.0661064
-0.063385
-0.0607211
-0.0581074
-0.0555438
-0.0530318
-0.0505682
-0.0481418
-0.0457342
-0.043351
-0.0409906
-0.0469053
-0.0463731
-0.044896
-0.0443692
-0.0427146
-0.0408754
-0.0386523
-0.0398606
-0.041687
-0.0433342
-0.0438592
-0.0453126
-0.0458449
-0.0999189
-0.0968509
-0.0998305
-0.0987997
-0.100714
-0.0938776
-0.0909974
-0.0881899
-0.0854337
-0.0827085
-0.0799946
-0.0772818
-0.0745657
-0.0718443
-0.0690059
-0.0662335
-0.0635272
-0.0608849
-0.0582914
-0.0557449
-0.0532464
-0.0507954
-0.0483847
-0.045998
-0.0436364
-0.0413023
-0.0389887
-0.0447715
-0.0442506
-0.0428078
-0.0422921
-0.0406709
-0.038872
-0.036695
-0.0378741
-0.0396616
-0.0412774
-0.0417916
-0.0432132
-0.0437341
-0.100266
-0.0971996
-0.0996749
-0.100543
-0.0942351
-0.0913575
-0.0885366
-0.0857509
-0.0829821
-0.0802171
-0.0774479
-0.0746754
-0.0719055
-0.0690805
-0.0663242
-0.0636336
-0.0610085
-0.0584384
-0.055916
-0.0534378
-0.0510022
-0.0486064
-0.0462389
-0.0438963
-0.0415814
-0.0392921
-0.0370166
-0.0426838
-0.042174
-0.0407614
-0.0402572
-0.0386637
-0.0369025
-0.0347748
-0.035929
-0.0376715
-0.0392624
-0.039765
-0.0411575
-0.0416682
-0.10062
-0.0975689
-0.0946123
-0.0917238
-0.0888756
-0.0860453
-0.0832254
-0.0804025
-0.0775759
-0.0747523
-0.0719361
-0.0691253
-0.0663799
-0.0637037
-0.0610945
-0.0585449
-0.0560487
-0.0535964
-0.0511838
-0.0488072
-0.0464584
-0.0441351
-0.0418376
-0.0395677
-0.0373179
-0.0350902
-0.0406394
-0.0401412
-0.0387562
-0.0382615
-0.0366973
-0.0349811
-0.0328957
-0.03402
-0.0357585
-0.0372814
-0.0377758
-0.039144
-0.0396433
-0.100996
-0.0979594
-0.0949976
-0.0920829
-0.0891916
-0.0863105
-0.0834318
-0.0805495
-0.0776698
-0.0747971
-0.0719497
-0.0691418
-0.0664075
-0.0637397
-0.0611438
-0.0586123
-0.0561376
-0.0537139
-0.0513292
-0.0489772
-0.0466536
-0.0443505
-0.0420723
-0.0398195
-0.0375947
-0.0353913
-0.0332143
-0.038637
-0.0381461
-0.0367763
-0.036284
-0.0348242
-0.0330885
-0.0310402
-0.0321477
-0.0338363
-0.0353554
-0.0358102
-0.0371624
-0.0376566
-0.1014
-0.0983612
-0.0953773
-0.0924198
-0.0894776
-0.0865382
-0.0835988
-0.0806616
-0.0777299
-0.0748217
-0.0719636
-0.0691447
-0.0664095
-0.0637487
-0.0611596
-0.0586417
-0.0561857
-0.053785
-0.0514301
-0.0491097
-0.0468167
-0.0445403
-0.0422844
-0.0400527
-0.037848
-0.0356694
-0.0335127
-0.0313668
-0.0366518
-0.0361449
-0.034947
-0.0343801
-0.0328848
-0.0312259
-0.0292366
-0.0303014
-0.0319473
-0.033434
-0.0339156
-0.0351206
-0.03563
-0.10182
-0.0987606
-0.0957356
-0.0927268
-0.0897255
-0.0867257
-0.08373
-0.0807384
-0.0777685
-0.0748454
-0.0720018
-0.0691519
-0.0663996
-0.0637334
-0.0611491
-0.0586375
-0.0561956
-0.053814
-0.0514839
-0.0491972
-0.0469388
-0.0446969
-0.04247
-0.040264
-0.0380803
-0.035923
-0.0337877
-0.0316661
-0.0295581
-0.0349809
-0.0341934
-0.032969
-0.0324983
-0.0310276
-0.0293936
-0.0274852
-0.0284668
-0.0301087
-0.0315809
-0.0320485
-0.0333154
-0.033763
-0.102239
-0.09914
-0.0960635
-0.0929954
-0.0899327
-0.0868761
-0.0838245
-0.0807919
-0.0778037
-0.0748892
-0.0720887
-0.0691846
-0.0663978
-0.0637087
-0.0611161
-0.0586078
-0.0561718
-0.0538045
-0.0514949
-0.0492351
-0.0470113
-0.0448098
-0.0426213
-0.0404473
-0.0382876
-0.036152
-0.0340386
-0.0319396
-0.0298533
-0.0278089
-0.0349951
-0.034056
-0.0328604
-0.0323994
-0.0311192
-0.0306562
-0.0291963
-0.0275412
-0.0257394
-0.0264924
-0.0282824
-0.0297464
-0.0302089
-0.031483
-0.0319461
-0.0332078
-0.0336439
-0.10264
-0.0994898
-0.0963524
-0.0932222
-0.0901018
-0.086989
-0.0838944
-0.0808409
-0.0778575
-0.0749788
-0.0722411
-0.0692695
-0.0664266
-0.0636944
-0.0610748
-0.0585569
-0.0561234
-0.0537615
-0.0514663
-0.0492276
-0.0470327
-0.0448718
-0.0427258
-0.0405915
-0.0384659
-0.0363577
-0.0342661
-0.0321904
-0.0301252
-0.0280864
-0.0260802
-0.032749
-0.0322956
-0.0310219
-0.0305617
-0.029287
-0.0288311
-0.0273973
-0.0251968
-0.0240537
-0.0264212
-0.0279427
-0.0283873
-0.0296488
-0.0301087
-0.0313751
-0.0318325
-0.10301
-0.0997994
-0.0965988
-0.0934098
-0.0902316
-0.0870761
-0.0839578
-0.0809072
-0.0779575
-0.0751341
-0.0724615
-0.0694237
-0.0665088
-0.0637117
-0.0610459
-0.0585002
-0.0560553
-0.0536949
-0.0514046
-0.0491804
-0.0470087
-0.0448785
-0.0427752
-0.0406865
-0.0386041
-0.0365287
-0.0344659
-0.032415
-0.0303728
-0.0283512
-0.0263539
-0.0243779
-0.0309082
-0.0304552
-0.0291904
-0.0287333
-0.0275189
-0.0271688
-0.0255474
-0.0236612
-0.0246838
-0.0223993
-0.0263484
-0.0278245
-0.0282823
-0.0295397
-0.0299941
-0.103339
-0.100065
-0.0968044
-0.0935569
-0.0903337
-0.0871553
-0.0840376
-0.0810193
-0.0781241
-0.0753611
-0.0727379
-0.0696501
-0.0666611
-0.0637857
-0.0610514
-0.0584581
-0.0559836
-0.0536097
-0.0513197
-0.0491001
-0.0469437
-0.0448376
-0.0427685
-0.0407244
-0.0386907
-0.0366587
-0.0346333
-0.032612
-0.0305956
-0.0285936
-0.0266118
-0.024653
-0.0227114
-0.0290775
-0.0286282
-0.027344
-0.0267069
-0.0256386
-0.0252068
-0.023866
-0.0220417
-0.0230345
-0.0247843
-0.02435
-0.0207655
-0.0265005
-0.0260679
-0.0277295
-0.0281737
-0.103624
-0.100289
-0.0969677
-0.0936745
-0.090426
-0.0872486
-0.084162
-0.081199
-0.0783658
-0.0756494
-0.0730417
-0.0699358
-0.0668862
-0.0639308
-0.0611157
-0.058453
-0.0559285
-0.0535223
-0.0512183
-0.0489978
-0.0468459
-0.0447553
-0.0427124
-0.0407044
-0.0387175
-0.0367363
-0.0347565
-0.0327738
-0.0307909
-0.0288136
-0.0268487
-0.0249076
-0.022985
-0.021067
-0.027289
-0.0268598
-0.0239215
-0.0235142
-0.022206
-0.0204499
-0.0213811
-0.0231158
-0.0226889
-0.0191616
-0.103865
-0.100469
-0.0970992
-0.0937793
-0.0905297
-0.0873831
-0.0843531
-0.0814547
-0.0786753
-0.0759781
-0.0733306
-0.0702555
-0.0671699
-0.0641461
-0.0612508
-0.0585064
-0.0559121
-0.0534547
-0.0511179
-0.0488807
-0.0467268
-0.0446406
-0.0426144
-0.0406333
-0.038684
-0.0367516
-0.0348233
-0.0328896
-0.0309488
-0.0290027
-0.0270636
-0.0251408
-0.0232348
-0.0213429
-0.0194557
-0.0222594
-0.0218618
-0.0205499
-0.0188715
-0.0197862
-0.0214691
-0.0210458
-0.0175833
-0.10406
-0.100615
-0.0972155
-0.0938933
-0.0906741
-0.0875822
-0.0846207
-0.0817796
-0.0790318
-0.0763295
-0.0736054
-0.070584
-0.0674847
-0.0644155
-0.0614547
-0.058633
-0.0559596
-0.0534305
-0.05104
-0.0487661
-0.0465946
-0.0445054
-0.0424831
-0.0405189
-0.0385977
-0.0367049
-0.0348273
-0.0329486
-0.0310587
-0.0291568
-0.0272486
-0.0253485
-0.0234618
-0.0215926
-0.0197319
-0.0178805
-0.0205989
-0.0201708
-0.0190639
-0.0172534
-0.0181476
-0.0197464
-0.0192986
-0.0160219
-0.104219
-0.100742
-0.0973369
-0.0940432
-0.0908812
-0.0878551
-0.0849534
-0.0821482
-0.0794071
-0.0766932
-0.070908
-0.0731274
-0.0744797
-0.067801
-0.0647128
-0.0617142
-0.0588331
-0.0560831
-0.0534714
-0.051008
-0.0486773
-0.0464675
-0.0443591
-0.0423327
-0.040372
-0.038468
-0.0366047
-0.0347681
-0.0329412
-0.0311093
-0.0292609
-0.0273986
-0.0255307
-0.0236659
-0.021819
-0.019982
-0.0181537
-0.0163232
-0.0192305
-0.0185132
-0.0173685
-0.015685
-0.0165887
-0.0181719
-0.0177971
-0.0144863
-0.104357
-0.100872
-0.0974925
-0.0942518
-0.0911586
-0.0881911
-0.0853238
-0.0825194
-0.0797545
-0.0761233
-0.0776866
-0.0680847
-0.0703744
-0.0717904
-0.0733008
-0.0744806
-0.0650085
-0.0620061
-0.0590902
-0.0562795
-0.0535898
-0.0510445
-0.0486374
-0.0463695
-0.0442211
-0.0421723
-0.0402064
-0.0383059
-0.0364603
-0.0346536
-0.0328696
-0.0310928
-0.0293041
-0.0274969
-0.0256727
-0.0238446
-0.0220217
-0.0202071
-0.0184019
-0.0165965
-0.0147886
-0.0193128
-0.0183906
-0.0174286
-0.0170395
-0.0158224
-0.0141562
-0.0150514
-0.0166651
-0.0162708
-0.0180736
-0.0177138
-0.0129794
-0.104493
-0.10103
-0.0977067
-0.0945325
-0.0914979
-0.0885641
-0.0856934
-0.0828492
-0.0791646
-0.0807449
-0.0763307
-0.0778005
-0.0652786
-0.0675512
-0.0689356
-0.070453
-0.0719175
-0.073131
-0.0739164
-0.0753052
-0.0740485
-0.062301
-0.0593802
-0.0565339
-0.0537848
-0.0511603
-0.0486688
-0.0463246
-0.0441148
-0.0420226
-0.0400336
-0.0381262
-0.0362834
-0.0344944
-0.0327422
-0.0310093
-0.0292782
-0.0275337
-0.0257663
-0.0239826
-0.0221942
-0.0204048
-0.0186237
-0.0168434
-0.0150615
-0.0132808
-0.017322
-0.0169398
-0.0158826
-0.0154983
-0.0142938
-0.0126523
-0.0135319
-0.0151217
-0.0147321
-0.0165731
-0.016179
-0.0114958
-0.104657
-0.101244
-0.09799
-0.0948778
-0.0918756
-0.0889377
-0.0860272
-0.082265
-0.0838726
-0.0792951
-0.0808459
-0.0760717
-0.0767882
-0.0782358
-0.0774603
-0.0625726
-0.0647911
-0.0661448
-0.0676447
-0.069033
-0.0701904
-0.0708849
-0.0723334
-0.0716199
-0.0730561
-0.0738385
-0.0733901
-0.0596735
-0.0568206
-0.054037
-0.0513514
-0.0487831
-0.0463532
-0.0440633
-0.0419084
-0.0398742
-0.0379408
-0.0360898
-0.0343037
-0.0325697
-0.030869
-0.0291858
-0.0274997
-0.0257959
-0.0240699
-0.0223241
-0.0205693
-0.0188163
-0.0170622
-0.0153064
-0.0135511
-0.0117984
-0.0157718
-0.015393
-0.0143472
-0.0139692
-0.0127832
-0.0111676
-0.0120317
-0.0135966
-0.0132132
-0.0150256
-0.0146361
-0.0100342
-0.104872
-0.101528
-0.0983378
-0.0952631
-0.0922573
-0.0892819
-0.0854399
-0.0870756
-0.0824046
-0.0839888
-0.079005
-0.079785
-0.0813057
-0.080525
-0.0599427
-0.0621023
-0.0634294
-0.064896
-0.0662572
-0.0673872
-0.0680787
-0.0694599
-0.068767
-0.0702347
-0.0709293
-0.0723474
-0.0716435
-0.0571092
-0.0543201
-0.0516004
-0.0489735
-0.0464641
-0.0440888
-0.0418527
-0.0397521
-0.0377711
-0.0358922
-0.0340973
-0.0323653
-0.0306841
-0.0290346
-0.0273964
-0.0257547
-0.0240917
-0.0224031
-0.0206938
-0.0189749
-0.0172512
-0.0155216
-0.0137921
-0.0120671
-0.0103396
-0.0142358
-0.013863
-0.0128332
-0.0124605
-0.0112911
-0.00970004
-0.010549
-0.0120928
-0.0117144
-0.0135004
-0.0131166
-0.00859052
-0.105156
-0.10188
-0.0987294
-0.095655
-0.0926134
-0.0886856
-0.0903543
-0.0855837
-0.0871998
-0.082108
-0.0829007
-0.0844557
-0.0836603
-0.0573742
-0.0594787
-0.060779
-0.0622075
-0.0635402
-0.0646387
-0.0653196
-0.066676
-0.0659904
-0.0674336
-0.0681216
-0.0695083
-0.0688143
-0.0546047
-0.0518796
-0.0492199
-0.0466514
-0.044198
-0.0418751
-0.0396917
-0.0376427
-0.0357135
-0.0338887
-0.032146
-0.030467
-0.0288373
-0.027235
-0.0256429
-0.0240409
-0.0224163
-0.0207664
-0.0190941
-0.0174038
-0.015702
-0.0139986
-0.0123003
-0.0106052
-0.00889949
-0.0127228
-0.0123549
-0.0113383
-0.0109709
-0.00981444
-0.00824644
-0.00907956
-0.0106068
-0.0102326
-0.0119968
-0.0116177
-0.00716151
-0.105509
-0.102277
-0.0991307
-0.0960235
-0.0920065
-0.093711
-0.0888331
-0.0904846
-0.0852796
-0.0860884
-0.087677
-0.0868648
-0.054865
-0.0569172
-0.0581897
-0.0595817
-0.0608847
-0.0619531
-0.0626198
-0.0639465
-0.0632739
-0.0646822
-0.0653577
-0.0667196