/*--------------------------------*- C++ -*----------------------------------*\
| =========                 |                                                 |
| \\      /  F ield         | OpenFOAM: The Open Source CFD Toolbox           |
|  \\    /   O peration     | Version:  v1912                                 |
|   \\  /    A nd           | Website:  www.openfoam.com                      |
|    \\/     M anipulation  |                                                 |
\*---------------------------------------------------------------------------*/
FoamFile
{
    version     2.0;
    format      ascii;
    class       surfaceScalarField;
    location    "270";
    object      phi;
}
// * * * * * * * * * * * * * * * * * * * * * * * * * * * * * * * * * * * * * //

dimensions      [0 3 -1 0 0 0 0];
oriented        oriented;


internalField   nonuniform List<scalar> 
7191
(
-1.95725e-06
0.00132168
-9.08307e-06
0.00396841
-2.10918e-06
0.00132379
-2.41719e-05
0.00657476
-9.46717e-06
0.00397577
-2.11244e-06
0.0013259
-4.47876e-05
0.00905384
-2.40375e-05
0.00658933
-9.46952e-06
0.00398312
-1.99345e-06
0.00132789
-7.50057e-05
0.0112939
-4.80511e-05
0.00907786
-2.35577e-05
0.00660342
-9.34298e-06
0.00399047
-2.03541e-06
0.00132993
-0.000115692
0.013158
-7.90312e-05
0.0113248
-4.53414e-05
0.00909964
-2.41714e-05
0.00661825
-9.72613e-06
0.00399816
-1.71912e-06
0.00133165
-0.000162029
0.0145186
-0.000119354
0.0131983
-7.89205e-05
0.0113584
-4.63231e-05
0.00912179
-2.17513e-05
0.00663027
-8.08432e-06
0.00400453
-1.59527e-06
0.00133324
-0.000206413
0.0152628
-0.000164946
0.0145642
-0.0001177
0.0132371
-7.32417e-05
0.0113853
-4.13984e-05
0.00914144
-1.95544e-05
0.00664174
-7.26486e-06
0.0040102
-1.49159e-06
0.00133474
-0.000249416
0.0153243
-0.000215247
0.0153131
-0.000162286
0.0146088
-0.000112405
0.0132762
-7.06411e-05
0.0114146
-3.77579e-05
0.00915964
-1.82168e-05
0.00665269
-6.64217e-06
0.00401535
-1.16577e-06
0.0013359
-0.00027977
0.0146636
-0.000258336
0.0153674
-0.000211356
0.0153622
-0.000155786
0.0146522
-0.000100895
0.0133065
-6.1675e-05
0.0114385
-3.3528e-05
0.00917495
-1.55244e-05
0.00666157
-4.57226e-06
0.00401876
-1.17974e-06
0.00133708
-0.000292469
0.0133188
-0.000300654
0.0147059
-0.000258265
0.0154143
-0.000197706
0.0154041
-0.000136943
0.0146882
-9.20074e-05
0.0133368
-5.42563e-05
0.0114592
-2.99133e-05
0.00918934
-1.41709e-05
0.00667117
-5.19835e-06
0.00402278
-8.47194e-07
0.00133793
-0.000285748
0.0113745
-0.000331775
0.0133499
-0.00029745
0.0147451
-0.000237228
0.0154538
-0.000174257
0.0154414
-0.000122469
0.0147187
-7.84023e-05
0.013361
-4.74996e-05
0.0114768
-2.56426e-05
0.00920081
-1.08926e-05
0.00667687
-4.57726e-06
0.00402651
-7.52696e-07
0.00133868
-0.000245913
0.00896313
-0.000352224
0.011395
-0.000326937
0.0133794
-0.000263644
0.0147715
-0.000200961
0.0154805
-0.000148349
0.0154673
-0.000102331
0.0147426
-6.57252e-05
0.0133792
-3.94435e-05
0.0114906
-2.14334e-05
0.00921135
-1.13732e-05
0.00668366
-4.17149e-06
0.00402992
-7.88845e-07
0.00133947
0.00623714
-0.000110077
-5.03352e-05
-0.000357286
0.0089682
-0.000343609
0.0114116
-0.000277028
0.0133928
-0.000216585
0.0147871
-0.000166532
0.0154987
-0.000119511
0.0154845
-8.41252e-05
0.014761
-5.79162e-05
0.0133977
-3.631e-05
0.0115055
-2.06318e-05
0.00922061
-1.02415e-05
0.00668973
-4.01027e-06
0.00403315
-7.73518e-07
0.00134024
0.00622286
-0.00020103
-0.000141976
-0.00211689
0.00207043
-6.36105e-05
-3.26751e-05
-0.00213455
-0.000349463
0.00897405
-0.000269015
0.0114036
-0.00021081
0.013387
-0.000166877
0.0147875
-0.00012942
0.0155086
-0.000101111
0.0155015
-7.35342e-05
0.0147766
-4.77362e-05
0.0134091
-3.02391e-05
0.0115151
-1.74126e-05
0.00922778
-8.68783e-06
0.00669441
-3.88769e-06
0.00403626
-8.41358e-07
0.00134108
0.00620892
-0.000139949
-0.000195573
-0.00203975
0.00201257
-0.000173853
-0.000111296
-0.00139552
0.00135231
-1.55022e-05
-4.9039e-06
-9.11736e-07
-0.00142063
-6.64769e-06
-2.00852e-05
-0.000228154
0.00893319
-0.000183634
0.0113764
-0.000153959
0.0133741
-0.000128589
0.0147867
-0.00010512
0.0155126
-8.05765e-05
0.0155085
-5.74101e-05
0.0147863
-4.22922e-05
0.0134211
-2.76959e-05
0.0115254
-1.87956e-05
0.00923789
-1.02222e-05
0.00670075
-3.43138e-06
0.00403885
-1.08328e-06
0.00134217
0.00612282
-4.18788e-05
-0.000100173
-0.00198854
0.00195782
-0.000109229
-0.000171542
-0.00129764
0.00126364
-8.68961e-05
-5.29564e-05
-1.69769e-05
-3.96502e-05
-0.000438505
0.000428491
-5.48782e-06
-0.000440769
-2.64031e-06
0.000445661
-0.000445805
-7.67653e-07
-3.60428e-06
-6.04786e-08
-1.75604e-06
-0.000125133
0.00887469
-0.000117012
0.0113395
-0.000107424
0.0133529
-9.59391e-05
0.0147775
-7.99448e-05
0.015512
-6.37582e-05
0.0155148
-5.20313e-05
0.0147961
-3.83779e-05
0.0134318
-2.70747e-05
0.0115337
-1.7149e-05
0.00924482
-1.07588e-05
0.00670807
-4.98729e-06
0.00404275
-1.14389e-06
0.00134331
0.00604242
-8.22871e-06
-3.65078e-05
-0.00191208
0.0018945
-2.43023e-05
-5.44291e-05
-0.00123558
0.00118376
-1.70059e-05
-4.04001e-05
-7.99552e-05
-6.35277e-05
-0.000379525
0.000352533
-5.99045e-05
-0.000399305
-3.31766e-05
0.000420698
-9.18388e-06
-1.82569e-05
-0.000257298
0.000252572
-7.61506e-07
-0.000259525
-4.13316e-07
-0.000448347
-1.06184e-06
0.000261006
-0.000261711
-6.21483e-08
-1.87962e-08
-2.75526e-07
-6.70152e-05
0.00882469
-7.46145e-05
0.0113067
-7.60695e-05
0.013333
-7.23478e-05
0.0147699
-6.48335e-05
0.0155131
-5.78729e-05
0.0155207
-4.67125e-05
0.0148044
-3.669e-05
0.0134414
-2.91173e-05
0.0115456
-2.0532e-05
0.00925459
-1.06014e-05
0.00671369
-5.30999e-06
0.00404692
-1.21077e-06
0.00134452
0.00599133
-6.20673e-07
-1.53072e-05
-0.00187053
0.00186773
-5.43079e-06
-1.25379e-05
-0.0011423
0.00112131
-1.75205e-07
-3.13615e-06
-1.03957e-05
-2.56986e-06
-0.000289178
0.000278481
-6.30952e-06
-0.000310918
-1.86602e-05
0.000330963
-5.83848e-05
-4.34824e-05
-0.000207179
0.000168553
-2.12789e-05
-0.000230634
-9.72166e-06
0.000245112
-1.72379e-06
-3.77849e-06
-7.49027e-05
7.41412e-05
-7.5316e-05
-0.000262659
-1.13871e-07
7.55916e-05
-7.56537e-05
-4.48821e-08
-3.72192e-05
0.0087873
-4.88645e-05
0.0112795
-5.41635e-05
0.0133149
-5.4521e-05
0.0147596
-5.40207e-05
0.0155092
-4.89054e-05
0.0155229
-4.30699e-05
0.0148108
-3.79344e-05
0.0134503
-2.94857e-05
0.0115546
-2.03317e-05
0.00926432
-1.36141e-05
0.00672199
-6.15498e-06
0.00405186
-1.53422e-06
0.00134606
0.00596103
9.59727e-07
-7.87733e-06
-0.00185596
0.00185634
-1.00157e-06
-3.53233e-06
-0.00110975
0.00110441
5.49949e-07
-6.37582e-07
-1.20047e-06
2.17053e-07
-0.000265702
0.00026562
-9.2766e-08
-0.000268464
-3.74733e-07
0.000270363
-2.27695e-06
-6.70961e-07
-8.5664e-05
7.93544e-05
-0.000104324
0.000147807
-3.76384e-05
-5.89173e-05
3.76384e-05
-6.86389e-05
7.24174e-05
-7.57676e-05
-2.19861e-05
0.00876042
-3.34091e-05
0.0112587
-4.05026e-05
0.0133008
-4.65984e-05
0.0147521
-4.75018e-05
0.0155078
-4.66001e-05
0.0155264
-4.57976e-05
0.0148186
-4.05657e-05
0.0134613
-3.25415e-05
0.0115668
-2.50732e-05
0.00927578
-1.51029e-05
0.00673094
-6.92129e-06
0.00405725
-1.57214e-06
0.00134763
0.00594238
1.65434e-06
-4.99021e-06
-0.00184987
0.00185146
-6.23668e-07
-1.41246e-06
-0.00110099
0.0010999
4.03386e-07
-3.22595e-07
-3.33866e-07
2.24623e-07
-0.000264091
0.000264581
5.9414e-08
-0.000264785
5.65931e-08
0.000264592
-1.72958e-07
2.47235e-08
-7.60318e-05
7.5939e-05
-7.64065e-05
7.70775e-05
-1.39841e-05
0.00874099
-2.48383e-05
0.0112431
-3.19096e-05
0.0132861
-3.76635e-05
0.0147423
-4.43024e-05
0.0155055
-4.75759e-05
0.0155282
-4.92032e-05
0.0148273
-4.52673e-05
0.0134741
-3.93074e-05
0.011581
-2.84922e-05
0.00928917
-1.69895e-05
0.00674101
-7.7665e-06
0.00406345
-1.93474e-06
0.00134956
0.00593057
9.69122e-07
-3.13909e-06
-0.00184712
0.0018488
-2.79086e-08
-6.538e-07
-0.00109853
0.0010978
2.63792e-07
-1.61083e-07
-1.8803e-07
1.52019e-07
-0.000264099
0.000264469
3.30992e-08
-0.000264502
8.06363e-08
0.000264333
-8.621e-08
5.56987e-08
-7.58474e-05
7.59068e-05
-7.57908e-05
7.57661e-05
-1.01271e-05
0.00872628
-1.71918e-05
0.0112283
-2.7358e-05
0.0132758
-3.54206e-05
0.0147334
-4.36536e-05
0.0155016
-5.32903e-05
0.0155323
-5.56278e-05
0.0148376
-5.4133e-05
0.0134889
-4.51453e-05
0.0115977
-3.39639e-05
0.00930615
-2.04038e-05
0.00675364
-9.33217e-06
0.00407084
-2.03491e-06
0.0013516
0.00592155
7.43861e-07
-1.85601e-06
-0.00184621
0.00184695
2.26509e-07
-5.42589e-07
-0.00109725
0.00109707
2.53099e-07
-9.53677e-08
-1.51717e-07
4.72218e-08
-0.000264242
0.000264495
1.073e-08
-0.000264469
6.57532e-08
0.00026435
-6.84314e-08
3.27233e-08
-7.59569e-05
7.599e-05
-7.58763e-05
7.58206e-05
-7.03483e-06
0.00871612
-1.42236e-05
0.0112152
-2.48851e-05
0.0132653
-3.62203e-05
0.014726
-4.90752e-05
0.0154974
-5.89614e-05
0.0155356
-6.57208e-05
0.0148492
-6.33909e-05
0.0135071
-5.33017e-05
0.011617
-3.58442e-05
0.00932159
-2.07348e-05
0.00676505
-8.87333e-06
0.00407768
-1.84675e-06
0.00135345
0.00591483
1.16554e-06
-1.47406e-06
-0.00184548
0.00184604
1.82564e-07
-3.86917e-07
-0.00109658
0.00109675
1.64482e-07
-1.07801e-07
-8.75803e-08
3.49478e-08
-0.000264287
0.000264532
8.37829e-09
-0.000264453
7.10614e-08
0.000264423
-7.94447e-08
1.68677e-08
-7.60201e-05
7.60308e-05
-7.59543e-05
7.59216e-05
-5.89314e-06
0.00870779
-1.29477e-05
0.0112033
-2.38953e-05
0.013253
-4.19848e-05
0.0147189
-6.07472e-05
0.0154992
-7.54931e-05
0.0155454
-7.93794e-05
0.0148652
-7.30576e-05
0.0135269
-5.86097e-05
0.0116398
-4.10554e-05
0.00934191
-2.288e-05
0.00677905
-8.77914e-06
0.00408461
-1.91641e-06
0.00135536
0.00590913
9.75289e-07
-1.17146e-06
-0.00184478
0.00184571
2.27608e-07
-2.09196e-07
-0.00109642
0.00109649
1.62818e-07
-4.29856e-08
-1.98516e-08
-4.41522e-08
-0.000264369
0.000264531
2.22876e-09
-0.000264545
6.83656e-08
0.000264524
-8.03067e-08
1.41188e-08
-7.60393e-05
7.60476e-05
-7.59682e-05
7.59513e-05
-4.07801e-06
0.00869892
-1.26716e-05
0.011192
-2.83693e-05
0.0132394
-4.71971e-05
0.0147053
-7.07067e-05
0.0154944
-8.9335e-05
0.0155553
-9.72461e-05
0.0148894
-8.67708e-05
0.0135551
-6.63368e-05
0.0116651
-4.33475e-05
0.00936237
-2.23787e-05
0.00679265
-9.4766e-06
0.00409217
-2.49597e-06
0.00135786
0.00590486
8.29079e-07
-6.39381e-07
-0.00184472
0.00184546
2.36392e-07
-1.81773e-07
-0.00109633
0.00109643
1.66534e-07
-3.11492e-08
-1.83842e-08
-3.82573e-08
-0.000264399
0.000264556
5.6267e-09
-0.000264539
9.71164e-08
0.000264591
-7.997e-08
8.59554e-09
-7.60498e-05
7.60521e-05
-7.59815e-05
7.59673e-05
-4.64495e-06
0.0086909
-1.50546e-05
0.0111787
-3.48054e-05
0.013227
-6.483e-05
0.0146995
-9.40324e-05
0.0154991
-0.000112835
0.0155709
-0.000113037
0.0149157
-9.71715e-05
0.0135859
-7.13209e-05
0.011693
-4.457e-05
0.00938457
-2.27195e-05
0.0068059
-7.72089e-06
0.0040974
-7.22124e-07
0.00135858
0.00590011
4.45975e-07
-3.34081e-07
-0.00184481
0.00184537
2.70981e-07
1.41067e-08
-0.0010963
0.0010964
1.65208e-07
-2.19956e-08
-1.1175e-08
-4.84586e-08
-0.00026447
0.00026463
6.19267e-09
-0.000264566
6.54484e-08
0.000264621
-8.34209e-08
1.63203e-08
-7.60778e-05
7.60834e-05
-7.59807e-05
7.59721e-05
-4.69873e-06
0.00868054
-2.02846e-05
0.0111642
-4.73434e-05
0.0132095
-8.45962e-05
0.01469
-0.000118486
0.0155047
-0.000136571
0.0155945
-0.000129899
0.0149484
-0.000106623
0.0136212
-7.49556e-05
0.0117234
-4.1971e-05
0.00940382
-2.13089e-05
0.00681948
-6.69899e-06
0.00410338
-6.5262e-07
0.00135923
0.00589596
-7.43754e-07
1.87097e-07
-0.00184497
0.00184528
1.3945e-07
6.12162e-08
-0.00109646
0.00109657
1.68953e-07
-1.61655e-08
-6.49889e-09
-3.83442e-08
-0.000264541
0.000264713
-6.36774e-09
-0.00026455
-1.33429e-08
0.000264707
-8.78687e-08
1.08587e-07
-7.60818e-05
7.6088e-05
-7.60163e-05
7.6e-05
-7.51726e-06
0.00866777
-2.77151e-05
0.0111446
-6.48038e-05
0.0131897
-0.000113568
0.0146851
-0.000151239
0.0155194
-0.000163413
0.015628
-0.000144788
0.0149866
-0.000110898
0.0136571
-7.2163e-05
0.0117536
-4.10469e-05
0.00942355
-1.74061e-05
0.00683019
-6.19224e-06
0.00410892
-4.01674e-07
0.00135963
0.00588842
-1.03611e-06
1.06292e-06
-0.00184537
0.00184448
1.47158e-07
1.00102e-07
-0.00109666
0.00109665
1.70808e-07
-1.26872e-08
3.64763e-09
-3.24289e-08
-0.000264597
0.000264772
-5.34404e-09
-0.000264602
-1.14564e-08
0.000264752
-4.64097e-08
1.11939e-07
-7.60953e-05
7.6089e-05
-7.61087e-05
7.60001e-05
-1.11655e-05
0.00865122
-4.0553e-05
0.0111203
-9.51974e-05
0.0131713
-0.0001516
0.0146855
-0.000188932
0.0155449
-0.000185632
0.0156688
-0.00015486
0.0150305
-0.000110211
0.0136952
-6.80961e-05
0.0117807
-3.63407e-05
0.00944249
-1.59448e-05
0.00683994
-2.98488e-06
0.0041115
-1.80368e-07
0.00135981
0.00587786
-2.00012e-06
1.39793e-06
-0.00184537
0.00184452
-1.88488e-07
1.73311e-07
-0.00109676
0.00109677
1.65807e-07
-1.98053e-08
3.93159e-09
-2.33741e-08
-0.000264706
0.000264882
-5.25317e-09
-0.000264709
-1.00066e-08
0.000264854
-7.88187e-08
1.12732e-07
-7.6143e-05
7.61377e-05
-7.61545e-05
7.60426e-05
-1.82938e-05
0.00862897
-6.46019e-05
0.0110897
-0.000135489
0.0131552
-0.000199424
0.014696
-0.00022255
0.0155819
-0.000197455
0.0157114
-0.000153528
0.0150738
-0.000102459
0.0137295
-6.09262e-05
0.0118052
-3.09086e-05
0.00945745
-1.06654e-05
0.00684762
-2.72794e-06
0.00411405
1.93097e-07
0.00135962
0.0058621
-3.4453e-06
9.1264e-07
-0.00184545
0.00184386
-4.09313e-07
4.66631e-07
-0.00109697
0.0010966
1.79408e-07
3.07431e-09
-2.73009e-10
-2.96179e-08
-0.000264785
0.000264959
-8.19469e-09
-0.000264827
2.22175e-08
0.00026493
-4.35526e-08
7.9809e-08
-7.61616e-05
7.61563e-05
-7.61716e-05
7.60589e-05
-3.08357e-05
0.0085952
-0.000100862
0.0110551
-0.000191824
0.0131476
-0.000248987
0.0147224
-0.000241248
0.0156256
-0.000199961
0.0157578
-0.000142588
0.015114
-9.26421e-05
0.0137613
-5.17554e-05
0.0118261
-2.28089e-05
0.0094696
-6.46693e-06
0.00685136
7.67589e-07
0.00411347
1.74568e-06
0.00135788
0.00583551
-5.89091e-06
1.63637e-06
-0.00184423
0.00184142
-6.40504e-07
5.44616e-07
-0.00109706
0.00109653
1.08712e-07
7.23023e-09
1.83641e-08
-1.17162e-08
-0.000264915
0.000265092
2.65331e-09
-0.000264921
9.48746e-09
0.000265042
-8.38744e-08
9.1328e-08
-7.62148e-05
7.62066e-05
-7.61926e-05
7.61128e-05
-5.54227e-05
0.00854976
-0.000161312
0.0110246
-0.000260122
0.0131587
-0.000281297
0.0147625
-0.000244867
0.0156706
-0.0001853
0.0158006
-0.000126471
0.0151478
-7.71014e-05
0.0137866
-4.12128e-05
0.0118445
-1.56468e-05
0.00947878
-3.02157e-06
0.00685515
1.66999e-06
0.00411355
2.07783e-06
0.0013558
0.00579233
-1.20548e-05
-1.85632e-07
-0.0018431
0.00183815
-9.47534e-07
-3.95833e-08
-0.00109705
0.00109627
5.05658e-08
8.10494e-08
9.38926e-08
-6.31011e-08
-0.000265075
0.000265185
-1.52217e-09
-0.000265079
1.19043e-08
0.000265188
-7.76431e-08
9.66385e-08
-7.62236e-05
7.62262e-05
-7.62141e-05
7.61227e-05
-0.000104408
0.00849286
-0.000243299
0.0110078
-0.000310904
0.0131884
-0.00028795
0.0148055
-0.000224986
0.0157102
-0.000158732
0.0158328
-0.000103662
0.0151744
-6.14789e-05
0.0138069
-2.86284e-05
0.0118575
-9.30317e-06
0.00948506
1.03597e-06
0.00685579
5.28236e-06
0.00411034
2.47587e-06
0.00135332
0.00572091
-2.77688e-05
-5.21345e-06
-0.00183878
0.0018296
-2.87863e-06
-8.07035e-07
-0.00109618
0.00109514
-3.3209e-11
9.91925e-08
1.77417e-07
-1.26034e-07
-0.000265227
0.000265272
5.69038e-09
-0.000265192
4.5565e-08
0.000265324
-4.52044e-08
6.90751e-08
-7.62571e-05
7.62556e-05
-7.62452e-05
7.61486e-05
-0.000192443
0.008442
-0.000329387
0.0110263
-0.0003227
0.0132231
-0.000255592
0.0148361
-0.000188668
0.0157402
-0.000130653
0.0158598
-8.22528e-05
0.0151951
-4.36795e-05
0.0138219
-1.83746e-05
0.0118666
-2.29801e-06
0.00948839
3.70238e-06
0.00685737
7.33139e-06
0.00410549
2.8569e-06
0.00135047
0.00562561
-7.16472e-05
-2.54993e-05
-0.00182768
0.00180866
-8.75239e-06
-3.29372e-06
-0.00109431
0.00109164
-3.12924e-07
9.79661e-08
1.9263e-07
-1.70406e-07
-0.000265378
0.000265407
-2.97338e-08
-0.000265294
1.53364e-08
0.000265522
-7.26573e-08
1.02632e-07
-7.6325e-05
7.63307e-05
-7.62795e-05
7.62104e-05
-0.0003235
0.00843611
-0.000349323
0.0110529
-0.000275735
0.0132432
-0.000207117
0.0148546
-0.000147328
0.0157568
-9.88844e-05
0.0158764
-5.86329e-05
0.0152101
-2.9159e-05
0.0138327
-8.47189e-06
0.0118727
4.04782e-06
0.00948805
1.08634e-05
0.00685383
7.65905e-06
0.00410068
3.33195e-06
0.00134713
0.00557276
-0.000175075
-9.55797e-05
-0.00179723
0.00175664
-3.10551e-05
-1.40682e-05
-0.00108839
0.00108029
-8.05775e-07
1.58598e-07
4.46517e-07
-4.90759e-07
-0.000265426
0.000265147
-3.42409e-08
-0.000265379
5.17037e-08
0.000265628
-2.7677e-08
7.78413e-08
-7.6376e-05
7.63463e-05
-7.63607e-05
7.62581e-05
-0.000362919
0.00844971
-0.000275498
0.0110526
-0.00020625
0.0132424
-0.000154087
0.0148614
-0.000108407
0.0157664
-7.02377e-05
0.015888
-3.92896e-05
0.0152202
-1.37562e-05
0.013838
2.92404e-06
0.0118738
1.15532e-05
0.00948736
1.20041e-05
0.00684949
9.22088e-06
0.0040948
3.87028e-06
0.00134326
0.0055664
-0.000160804
-0.000195755
-0.00172049
0.00167185
-0.000126438
-5.94286e-05
-0.00106752
0.00104031
-3.59242e-06
-2.5483e-07
1.39612e-07
-1.43822e-06
-0.000265205
0.000264476
-7.66949e-08
-0.000265072
2.49507e-08
0.00026564
-4.70687e-08
7.7934e-08
-7.64482e-05
7.64139e-05
-7.63965e-05
7.63186e-05
-0.000239668
0.00841388
-0.000179097
0.0110255
-0.000139295
0.0132276
-0.000103715
0.0148567
-7.4084e-05
0.0157702
-4.67451e-05
0.0158955
-2.05802e-05
0.015227
-3.55815e-06
0.0138445
1.09018e-05
0.0118745
1.54288e-05
0.00948393
1.95355e-05
0.00683917
1.07612e-05
0.0040879
4.60035e-06
0.00133866
0.00547611
-4.26833e-05
-0.000106696
-0.00164455
0.0016108
-0.000127047
-0.000168456
-0.000993541
0.000918446
-3.70474e-05
-1.42956e-05
-2.10049e-06
-1.05573e-05
-0.00026312
0.000260051
-5.2348e-07
-0.000263306
-6.97269e-08
0.000264717
-1.01246e-07
-2.65418e-08
-7.64697e-05
7.63931e-05
-7.64448e-05
7.63669e-05
-0.000121208
0.00835599
-0.000106587
0.0109928
-8.96172e-05
0.0132135
-6.94637e-05
0.014852
-4.85131e-05
0.015772
-2.47905e-05
0.0158997
-5.96061e-06
0.0152294
8.39612e-06
0.013847
1.81843e-05
0.0118717
2.1655e-05
0.00948181
1.75366e-05
0.0068324
1.52048e-05
0.0040773
6.31759e-06
0.00133234
0.00539192
-5.29671e-06
-3.17149e-05
-0.0015589
0.0015363
-2.00806e-05
-5.48011e-05
-0.000873011
0.00080951
-1.86388e-05
-4.49067e-05
-5.94341e-05
-6.35872e-05
-0.000239249
0.000212163
-9.96185e-06
-0.000249698
-3.84686e-06
0.000258555
-6.04296e-07
-1.69975e-06
-7.61955e-05
7.56721e-05
-7.62653e-05
7.62918e-05
-5.69371e-05
0.00830634
-5.94734e-05
0.0109626
-5.31355e-05
0.0131972
-4.10593e-05
0.0148446
-2.32278e-05
0.0157704
-7.08073e-06
0.0159008
6.08665e-06
0.0152318
2.06968e-05
0.0138445
2.58352e-05
0.0118676
2.83227e-05
0.00947103
2.55901e-05
0.00682201
1.53623e-05
0.00406826
5.77744e-06
0.00132657
0.00534425
1.76473e-06
-1.10358e-05
-0.00151306
0.00151035
-2.59508e-06
-8.47246e-06
-0.000762308
0.000743007
9.82606e-08
-8.77909e-07
-6.35618e-06
-1.2428e-06
-0.000103795
8.51561e-05
-0.000148702
0.000174787
-2.20573e-05
-3.7502e-05
-6.95212e-05
5.95593e-05
-7.3368e-05
7.50678e-05
-2.69798e-05
0.00827385
-3.24048e-05
0.0109419
-2.83823e-05
0.0131845
-1.93214e-05
0.0148407
-8.91005e-06
0.0157723
4.44519e-06
0.0159025
1.71083e-05
0.0152353
2.74409e-05
0.0138429
3.16228e-05
0.0118643
3.28386e-05
0.00946378
2.80044e-05
0.00680937
1.91323e-05
0.0040549
6.59787e-06
0.00131997
0.00531912
3.14814e-06
-5.00058e-06
-0.00150068
0.00150235
1.01097e-07
-1.36355e-06
-0.000734584
0.000731927
1.45953e-07
-8.40219e-08
-1.94631e-07
1.45326e-07
-7.66792e-05
7.67775e-05
-7.75572e-05
7.87999e-05
3.7502e-05
-1.12982e-05
0.00825274
-1.38372e-05
0.0109274
-1.21617e-05
0.0131773
-4.00672e-06
0.0148358
6.78239e-06
0.0157699
1.83747e-05
0.0159012
2.93279e-05
0.0152335
3.54682e-05
0.013839
3.98605e-05
0.0118572
4.12717e-05
0.00945051
3.18683e-05
0.00679664
2.15257e-05
0.00403997
8.51667e-06
0.00131145
0.00530774
2.89679e-06
-2.80589e-06
-0.00149748
0.0015002
4.27594e-07
-1.33279e-07
-0.000730456
0.000730492
9.53435e-08
-3.05189e-08
-1.84968e-08
1.25421e-07
-7.66442e-05
7.67901e-05
-7.67282e-05
7.65829e-05
-3.35259e-06
0.00824225
-3.22044e-06
0.0109184
1.04563e-06
0.0131723
8.7307e-06
0.0148338
1.92882e-05
0.015769
2.85154e-05
0.015902
3.85714e-05
0.0152303
4.41301e-05
0.0138347
4.85433e-05
0.01185
4.36051e-05
0.00943877
3.72914e-05
0.00678087
2.15968e-05
0.00402689
8.07408e-06
0.00130338
0.00530285
2.72406e-06
-1.19128e-06
-0.00149728
0.00149965
5.26616e-07
1.133e-07
-0.0007303
0.000730683
6.37657e-08
-1.96449e-08
-3.06059e-08
8.99873e-08
-7.68665e-05
7.69619e-05
-7.68971e-05
7.67716e-05
1.86408e-06
0.00823717
3.84157e-06
0.0109156
9.48851e-06
0.0131715
1.68426e-05
0.0148363
2.68518e-05
0.0157707
3.8514e-05
0.0159021
4.57265e-05
0.0152288
5.40957e-05
0.0138292
5.5615e-05
0.011838
4.96984e-05
0.00942637
4.08341e-05
0.00676163
2.43973e-05
0.00401057
8.9775e-06
0.0012944
0.00530191
3.06833e-06
-2.62537e-07
-0.00149813
0.00150027
5.84733e-07
3.29008e-07
-0.000730718
0.000731219
5.28254e-08
-2.76568e-08
-4.21534e-09
8.26557e-08
-7.70016e-05
7.70654e-05
-7.70213e-05
7.69313e-05
4.30961e-06
0.0082367
9.11315e-06
0.010916
1.69529e-05
0.0131714
2.63184e-05
0.0148368
3.62406e-05
0.0157729
4.70201e-05
0.0159008
5.63367e-05
0.0152265
6.08917e-05
0.0138239
5.7728e-05
0.0118299
5.51189e-05
0.00941208
4.25337e-05
0.0067435
2.99188e-05
0.00398963
9.3859e-06
0.00128502
0.00530336
2.96127e-06
-1.00449e-07
-0.00149958
0.00150205
5.98004e-07
4.25511e-07
-0.000731471
0.000731945
3.31393e-08
7.75892e-08
2.82816e-08
4.94769e-08
-7.71162e-05
7.7169e-05
-7.71438e-05
7.70612e-05
7.50954e-06
0.00823831
1.44011e-05
0.0109185
2.2563e-05
0.0131752
3.39271e-05
0.0148391
4.61582e-05
0.0157738
5.55764e-05
0.0159015
6.36925e-05
0.0152237
6.93265e-05
0.0138123
7.21097e-05
0.0118129
6.28562e-05
0.00939176
5.28823e-05
0.00672053
3.05633e-05
0.00396845
9.9694e-06
0.00127505
0.00530754
2.50692e-06
8.18704e-07
-0.00150151
0.00150385
6.25114e-07
4.37948e-07
-0.000732284
0.000732862
2.04904e-08
-9.21679e-10
3.12894e-08
5.50411e-08
-7.73243e-05
7.73575e-05
-7.72467e-05
7.71973e-05
9.00151e-06
0.0082437
1.70833e-05
0.010924
2.749e-05
0.0131816
4.08851e-05
0.0148444
5.225e-05
0.0157771
6.49684e-05
0.0159003
7.5329e-05
0.0152177
7.92447e-05
0.0138052
8.1597e-05
0.0117942
7.24691e-05
0.00937217
5.44721e-05
0.00669662
3.43485e-05
0.00394407
1.34554e-05
0.00126159
0.00531287
2.57749e-06
1.09832e-06
-0.00150405
0.00150589
6.72954e-07
6.16152e-07
-0.00073325
0.000733821
2.44677e-08
2.93093e-08
7.29354e-09
4.29241e-08
-7.74429e-05
7.74634e-05
-7.74438e-05
7.73888e-05
1.04314e-05
0.00825036
2.10375e-05
0.0109305
3.3549e-05
0.0131889
4.6758e-05
0.0148499
6.1031e-05
0.0157811
7.45235e-05
0.0159011
8.32325e-05
0.0152137
8.76026e-05
0.0137992
8.47648e-05
0.0117819
8.0192e-05
0.00934645
6.1417e-05
0.00666956
3.78026e-05
0.00391972
2.77092e-05
0.00123388
0.00531971
2.32458e-06
1.26075e-06
-0.00150632
0.00150796
9.39646e-07
6.61959e-07
-0.000734346
0.000734986
2.79767e-08
5.1372e-09
3.33523e-08
5.76991e-08
-7.75429e-05
7.75674e-05
-7.75136e-05
7.74707e-05
1.15457e-05
0.00825985
2.494e-05
0.0109391
4.13602e-05
0.0131943
5.55563e-05
0.0148554
7.18679e-05
0.0157837
8.24286e-05
0.0159019
9.28835e-05
0.0152084
9.79014e-05
0.013786
9.62974e-05
0.0117658
8.60636e-05
0.00932181
6.80752e-05
0.00663928
5.83197e-05
0.00388911
5.46429e-05
0.00532851
1.61187e-06
1.13775e-06
-0.00150847
0.00151024
5.50642e-07
7.54874e-07
-0.000735554
0.000736382
1.05671e-07
6.02225e-09
3.4779e-08
5.90295e-08
-7.76636e-05
7.76915e-05
-7.76584e-05
7.76007e-05
1.30564e-05
0.00827173
2.79985e-05
0.0109525
4.50852e-05
0.0132048
6.33287e-05
0.0148639
7.92062e-05
0.0157869
9.4045e-05
0.0159007
0.000103088
0.0152033
0.000106647
0.0137757
0.000104031
0.0117478
9.14903e-05
0.00929839
8.78251e-05
0.00660978
9.96221e-05
0.00533966
1.1416e-06
7.63619e-07
-0.00151107
0.00151289
-2.03931e-07
3.02088e-07
-0.000737034
0.000737527
3.1112e-08
2.66379e-08
7.18166e-08
3.15471e-08
-7.77914e-05
7.7897e-05
-7.77853e-05
7.77263e-05
1.71774e-05
0.00828255
3.38741e-05
0.0109637
5.12237e-05
0.0132169
6.95728e-05
0.0148735
8.69509e-05
0.015794
0.000102933
0.0159009
0.000112575
0.0151973
0.000119876
0.0137598
0.000116885
0.0117224
0.000114143
0.00927207
0.00012963
0.00535023
5.12535e-06
1.4791e-06
-0.00151499
0.00151807
-1.93598e-06
-1.33932e-06
-0.000737764
0.000737611
-9.11948e-10
-4.99585e-08
1.58446e-08
4.90371e-08
-7.8027e-05
7.80582e-05
-7.80004e-05
7.79689e-05
2.08029e-05
0.00829562
3.69715e-05
0.0109779
5.80024e-05
0.0132285
7.85567e-05
0.0148819
9.83227e-05
0.0157986
0.00011104
0.0159024
0.000123146
0.0151941
0.000128431
0.0137483
0.000134003
0.0117026
0.000151232
0.0053605
5.21712e-06
5.31443e-06
-0.00151608
0.00152038
1.22811e-06
-4.04136e-07
-1.73324e-06
5.20179e-06
-0.000736226
0.000435479
0.000299036
-2.20347e-07
-4.44567e-09
2.30858e-08
2.21353e-08
-7.80731e-05
7.80722e-05
-7.8123e-05
7.8074e-05
2.23594e-05
0.00831024
4.23695e-05
0.0109935
6.3196e-05
0.0132438
8.68446e-05
0.0148934
0.000104701
0.015805
0.000121505
0.015904
0.000130398
0.0151921
0.000143268
0.013739
0.000159927
0.00537378
4.47848e-06
4.60586e-06
-0.00152264
0.00152512
1.50437e-06
1.23717e-06
1.81859e-06
1.23753e-06
-0.000464127
0.000466279
-9.24487e-07
-0.000461465
-3.06613e-06
-0.000456392
-6.80562e-06
-1.57113e-05
0.000280486
2.83854e-06
-7.81129e-05
7.78926e-05
-7.81174e-05
7.80953e-05
2.42536e-05
0.00832835
4.66685e-05
0.0110101
7.13913e-05
0.0132593
9.46422e-05
0.0149035
0.000113768
0.0158127
0.000130149
0.0159043
0.000146348
0.015189
0.000164666
0.00538867
4.52752e-06
4.83682e-06
-0.00152742
0.00153006
1.07534e-06
7.65663e-07
1.28292e-06
1.0178e-06
-0.000469103
0.000469795
8.12226e-07
-0.000468508
6.41612e-07
-0.000467214
5.2473e-07
3.02823e-07
-0.000272548
0.000272138
-5.14772e-07
-0.000274568
-1.04589e-06
-8.87218e-07
8.07311e-05
2.7664e-05
0.00834736
5.14204e-05
0.01103
7.91613e-05
0.0132748
0.000100905
0.0149163
0.000120681
0.0158222
0.000138961
0.0159117
0.00015809
0.00540617
4.95796e-06
5.20103e-06
-0.00153312
0.00153577
8.20048e-07
1.05553e-06
9.99591e-07
7.78119e-07
-0.000471436
0.000471945
5.66558e-07
-0.000471082
4.11665e-07
-0.000470217
4.18395e-07
5.95832e-07
-0.000273342
0.000274008
1.46122e-07
-0.000272861
1.60837e-07
-0.000272441
1.04584e-07
-4.75404e-10
-7.8798e-05
7.82833e-05
-7.98439e-05
3.04946e-05
0.00836828
5.79464e-05
0.0110513
8.43904e-05
0.0132913
0.000106785
0.0149302
0.000127332
0.0158338
0.000141381
0.00542541
5.37166e-06
5.89116e-06
-0.00153912
0.00154217
7.93074e-07
1.11882e-06
8.0441e-07
1.04297e-06
-0.000473525
0.000473973
3.71696e-07
-0.000472845
3.75975e-07
-0.000472307
4.6155e-07
4.15749e-07
-0.000275018
0.000275485
9.9023e-08
-0.000274704
9.76552e-08
-0.000274419
1.34194e-07
1.84607e-07
-7.85482e-05
7.86943e-05
-7.83874e-05
-7.82828e-05
3.50299e-05
0.0083912
6.46369e-05
0.011071
9.02393e-05
0.0133078
0.000110274
0.0149473
0.000117673
0.0054476
6.19702e-06
6.63578e-06
-0.00154593
0.0015492
8.83741e-07
1.21777e-06
8.98648e-07
1.23021e-06
-0.000475645
0.000476035
4.02413e-07
-0.000474859
3.33096e-07
-0.000474436
3.81887e-07
5.79592e-07
-0.000276462
0.000276741
9.22068e-08
-0.000276142
5.63402e-08
-0.000275807
1.26576e-07
9.3813e-08
-7.91108e-05
7.92098e-05
-7.90131e-05
-7.88789e-05
4.05891e-05
0.00841525
7.14802e-05
0.0110898
9.11067e-05
0.013327
9.15873e-05
0.00547306
7.10152e-06
8.03411e-06
-0.00155319
0.00155697
1.28646e-06
1.12689e-06
1.28455e-06
1.36438e-06
-0.000477975
0.000478246
6.13148e-07
-0.000477129
3.71108e-07
-0.000476644
4.14359e-07
6.2119e-07
-0.000277722
0.000278023
1.00656e-07
-0.000277485
9.66274e-08
-0.000277196
9.27319e-08
1.24806e-07
-7.94865e-05
7.95787e-05
-7.94302e-05
-7.93036e-05
4.9315e-05
0.00843741
7.25897e-05
0.0111083
6.49271e-05
0.00550165
1.02366e-05
1.04851e-05
-0.00156223
0.00156642
1.49297e-06
1.42218e-06
1.469e-06
1.30756e-06
-0.000480543
0.000481148
6.81618e-07
-0.000479905
4.8914e-07
-0.000479095
4.74239e-07
5.15537e-07
-0.000279045
0.000279546
1.11542e-07
-0.000278756
8.22423e-08
-0.000278549
2.07202e-07
9.56612e-08
-7.98929e-05
7.99935e-05
-7.97963e-05
-7.97035e-05
5.4031e-05
0.00845597
4.22396e-05
0.00552531
1.58011e-05
1.45655e-05
-0.00157321
0.00157892
2.36534e-06
2.16695e-06
1.95779e-06
1.73086e-06
-0.000483683
0.000484335
8.40702e-07
-0.000482778
5.16602e-07
-0.000481869
5.609e-07
5.85633e-07
-0.000280648
0.000281251
7.8823e-08
-0.000280276
1.17433e-07
-0.000279918
1.16195e-07
1.43683e-07
-8.03786e-05
8.04902e-05
-8.02964e-05
-8.00892e-05
2.81594e-05
1.23513e-05
3.11223e-05
-0.00158734
0.00159435
4.96933e-06
3.82185e-06
3.36937e-06
2.77203e-06
-0.000487769
0.000488816
1.31796e-06
-0.000486559
9.57086e-07
-0.000485346
7.44435e-07
7.2046e-07
-0.000282489
0.000283186
1.43499e-07
-0.00028211
1.38056e-07
-0.000281684
1.34644e-07
1.52446e-07
-8.08675e-05
8.09463e-05
-8.075e-05
-8.06339e-05
-0.00160663
7.84144e-06
1.61049e-05
1.07842e-05
8.0575e-06
-0.00049396
0.000496102
2.82678e-06
-0.000491945
1.80726e-06
-0.00049018
1.6043e-06
1.40828e-06
-0.000285029
0.000286055
2.91495e-07
-0.000284289
2.17363e-07
-0.00028372
1.75391e-07
1.86528e-07
-8.13714e-05
8.15149e-05
-8.12334e-05
-8.10987e-05
-0.000506919
1.12566e-05
-0.000502526
1.1712e-05
-0.000499238
7.49605e-06
4.92156e-06
-0.000289656
0.000291754
7.29234e-07
-0.000288332
4.83298e-07
-0.000287112
3.84577e-07
3.50992e-07
-8.20942e-05
8.23857e-05
-8.18768e-05
-8.17014e-05
-0.000303572
1.53127e-05
-0.000299309
7.44943e-06
-0.000295197
3.38324e-06
1.47862e-06
-8.36045e-05
8.43338e-05
-8.31213e-05
-8.27367e-05
-9.66451e-05
-8.91956e-05
-8.58124e-05
1.92462e-06
-1.92476e-06
7.07141e-06
1.51376e-06
-6.66111e-06
1.14765e-06
-3.07254e-06
5.27985e-06
1.79121e-06
7.75544e-06
1.1876e-06
-7.42996e-06
1.73185e-06
-7.24567e-06
6.37494e-07
-3.71021e-06
9.95293e-07
4.28438e-06
7.97032e-06
1.57586e-06
-1.31439e-06
-4.67644e-07
-8.58302e-07
3.8248e-06
-7.0127e-06
1.43379e-06
-8.04233e-06
3.75673e-07
-4.08602e-06
1.22268e-06
7.74239e-06
3.87069e-07
3.89708e-06
5.00711e-07
1.82864e-06
-1.34018e-06
-0.000232024
-4.61373e-06
0.000237112
-1.57719e-06
5.42352e-06
-1.36283e-06
-7.15627e-06
1.07449e-06
-8.74147e-06
1.48645e-07
-4.23483e-06
8.22264e-07
7.30682e-06
1.1068e-07
3.78616e-06
-2.26172e-06
-0.000229257
-1.29821e-08
-5.21426e-07
9.09468e-07
-0.000982087
2.51461e-06
0.000974949
-3.72824e-06
1.20184e-05
0.000234123
-5.3094e-06
4.11867e-06
-1.25448e-06