/*--------------------------------*- C++ -*----------------------------------*\
| =========                 |                                                 |
| \\      /  F ield         | OpenFOAM: The Open Source CFD Toolbox           |
|  \\    /   O peration     | Version:  v1912                                 |
|   \\  /    A nd           | Website:  www.openfoam.com                      |
|    \\/     M anipulation  |                                                 |
\*---------------------------------------------------------------------------*/
FoamFile
{
    version     2.0;
    format      ascii;
    class       volScalarField;
    location    "320";
    object      p;
}
// * * * * * * * * * * * * * * * * * * * * * * * * * * * * * * * * * * * * * //

dimensions      [0 2 -2 0 0 0 0];


internalField   nonuniform List<scalar> 
3754
(
0.23613
0.232817
0.269784
0.226462
0.262653
0.376228
0.217678
0.249468
0.353776
0.553735
0.538753
0.207257
0.233122
0.311894
0.505629
0.449968
0.664389
0.672735
0.613524
0.64221
0.195927
0.215799
0.264453
0.383819
0.317024
0.514114
0.567337
0.459278
0.50286
0.184256
0.198688
0.221966
0.237883
0.378187
0.426607
0.22004
0.20407
0.376233
0.172664
0.182277
0.187077
0.175777
-0.322677
-0.265565
0.134287
0.122275
-0.203813
-0.222993
0.161458
0.166842
0.158635
0.133663
-0.338896
-0.522421
-0.466504
-0.483568
-0.169211
-0.453625
0.150866
0.152596
0.135153
0.102616
-0.270643
-0.419132
-0.439754
-0.547672
-0.530461
-0.437793
-0.552368
0.141068
0.139694
0.115503
0.0753824
-0.220723
-0.377934
-0.348453
-0.425543
-0.464473
-0.42648
-0.441332
-0.555446
0.132202
0.128229
0.098952
0.0521059
-0.186853
-0.339425
-0.335131
-0.316425
-0.349449
-0.373207
-0.465957
-0.377035
-0.421244
-0.435188
-0.446401
0.124373
0.118248
0.0849941
0.0330277
-0.16315
-0.30765
-0.321079
-0.312669
-0.307093
-0.314436
-0.327706
-0.352729
-0.388393
-0.372082
-0.425324
-0.437375
0.117662
0.109777
0.0732404
0.0175441
-0.147166
-0.281922
-0.307792
-0.306842
-0.305427
-0.296014
-0.305081
-0.311052
-0.314804
-0.329477
-0.348
-0.359811
-0.387832
-0.373578
0.112139
0.102836
0.0633832
0.00504908
-0.137192
-0.262355
-0.296671
-0.300896
-0.302716
-0.295517
-0.285717
-0.292159
-0.299623
-0.305837
-0.312281
-0.31081
-0.320733
-0.334714
-0.326313
-0.348919
-0.359562
0.10786
0.0974421
0.0552038
-0.00491006
-0.131753
-0.24845
-0.288334
-0.29619
-0.299956
-0.294499
-0.284691
-0.286689
-0.274306
-0.298376
-0.300285
-0.304865
-0.307729
-0.314954
-0.310695
-0.309095
-0.323003
-0.334156
-0.327046
0.104879
0.0936046
0.0485521
-0.0127273
-0.129832
-0.239508
-0.282728
-0.293035
-0.29776
-0.293669
-0.284042
-0.273647
-0.275438
-0.2845
-0.290606
-0.26363
-0.293983
-0.298125
-0.301793
-0.299462
-0.305222
-0.307949
-0.317418
-0.310828
-0.308008
0.103247
0.0913401
0.0433225
-0.0187039
-0.130803
-0.235027
-0.279712
-0.291415
-0.296351
-0.293146
-0.283861
-0.273432
-0.263544
-0.263859
-0.273913
-0.278937
-0.283497
-0.286725
-0.289154
-0.292265
-0.297979
-0.257631
-0.297581
-0.302043
-0.299711
-0.305553
-0.308079
-0.317003
-0.310866
0.103016
0.0906686
0.0394524
-0.0230151
-0.134336
-0.234696
-0.279241
-0.291313
-0.295847
-0.292999
-0.283987
-0.273529
-0.26353
-0.256547
-0.258733
-0.26428
-0.265658
-0.273446
-0.276171
-0.277816
-0.280134
-0.296751
-0.24787
-0.297678
-0.302244
-0.300054
0.104242
0.0916118
0.0369411
-0.0257199
-0.140384
-0.238355
-0.281311
-0.292714
-0.296304
-0.293311
-0.284375
-0.273814
-0.263636
-0.255684
-0.247046
-0.248689
-0.257067
-0.261237
-0.26384
-0.266703
-0.262751
-0.270029
-0.237696
0.106986
0.0942023
0.0358525
-0.0268053
-0.149205
-0.246003
-0.285918
-0.295591
-0.297735
-0.294129
-0.28502
-0.274243
-0.263827
-0.255073
-0.246271
-0.236922
-0.238475
-0.246821
-0.25175
-0.256217
-0.258652
-0.260566
-0.262084
-0.263745
-0.267239
-0.26139
-0.228225
0.111312
0.0984723
0.0363289
-0.0262092
-0.161368
-0.257795
-0.293076
-0.299921
-0.300133
-0.295476
-0.285913
-0.274787
-0.264067
-0.254653
-0.245572
-0.2362
-0.227425
-0.229072
-0.236682
-0.241556
-0.245947
-0.24862
-0.25082
-0.253076
-0.256711
-0.258995
-0.260691
-0.262022
-0.218712
0.11728
0.104465
0.0386167
-0.0238738
-0.177776
-0.274034
-0.302804
-0.305687
-0.303482
-0.297363
-0.287053
-0.275431
-0.264329
-0.254358
-0.244946
-0.235526
-0.226698
-0.218221
-0.219194
-0.227311
-0.231933
-0.235835
-0.238402
-0.240562
-0.242873
-0.246438
-0.248941
-0.25095
-0.252961
-0.211217
0.124941
0.112237
0.0431071
-0.0198538
-0.199785
-0.295186
-0.315139
-0.31288
-0.307763
-0.299785
-0.288433
-0.276163
-0.264603
-0.254132
-0.244372
-0.234868
-0.22599
-0.217655
-0.210484
-0.211921
-0.217123
-0.222402
-0.226471
-0.228942
-0.230912
-0.233104
-0.236275
-0.238681
-0.24065
-0.242727
-0.203304
0.134313
0.121874
0.0504193
-0.0143533
-0.229373
-0.321868
-0.330136
-0.321492
-0.312949
-0.302723
-0.290043
-0.276974
-0.264878
-0.253933
-0.243827
-0.234198
-0.225257
-0.216992
-0.209694
-0.202608
-0.203885
-0.210374
-0.214425
-0.215448
-0.219511
-0.221491
-0.223787
-0.22688
-0.22917
-0.230973
-0.232951
-0.19515
0.145382
0.13352
0.0614838
-0.00780448
-0.269409
-0.354807
-0.347857
-0.331524
-0.319009
-0.306141
-0.291859
-0.277851
-0.265146
-0.25373
-0.243283
-0.233504
-0.224479
-0.216225
-0.208836
-0.201808
-0.194534
-0.195691
-0.202182
-0.206221
-0.209542
-0.21165
-0.213574
-0.215904
-0.214866
-0.220774
-0.221694
-0.223614
-0.187464
0.158081
0.14744
0.0773966
-0.00149994
-0.323283
-0.394797
-0.368289
-0.342965
-0.3259
-0.30999
-0.293852
-0.278774
-0.265396
-0.253497
-0.242715
-0.232767
-0.22365
-0.215362
-0.207899
-0.200905
-0.193825
-0.186879
-0.187982
-0.193814
-0.198113
-0.201383
-0.20346
-0.20534
-0.207259
-0.209791
-0.211858
-0.213625
-0.216965
-0.214053
-0.180214
0.172213
0.164247
0.0990454
0.00177183
-0.393286
-0.442172
-0.391163
-0.355719
-0.33354
-0.314201
-0.295979
-0.279719
-0.26561
-0.253214
-0.242099
-0.231975
-0.222759
-0.214417
-0.206886
-0.199899
-0.192996
-0.186204
-0.179647
-0.180698
-0.186463
-0.19018
-0.192179
-0.195105
-0.197225
-0.199162
-0.20166
-0.203652
-0.205412
-0.207241
-0.209969
-0.211915
-0.213616
-0.216702
-0.173238
0.187309
0.18487
0.127807
0.00286089
-0.482092
-0.495038
-0.415637
-0.369405
-0.341735
-0.318662
-0.298186
-0.280656
-0.265769
-0.25286
-0.241414
-0.23111
-0.221798
-0.213396
-0.205805
-0.198808
-0.192042
-0.185418
-0.178998
-0.17269
-0.173737
-0.17924
-0.182837
-0.18674
-0.190275
-0.194862
-0.195429
-0.197314
-0.199136
-0.201853
-0.203728
-0.205563
-0.207294
-0.16643
0.202739
0.208094
0.168722
0.0142403
-0.600361
-0.547929
-0.439829
-0.383088
-0.350044
-0.32317
-0.300389
-0.281546
-0.265848
-0.252414
-0.240641
-0.230158
-0.220755
-0.212299
-0.204661
-0.19765
-0.19098
-0.184517
-0.178258
-0.172097
-0.165993
-0.166855
-0.172307
-0.175792
-0.179514
-0.182956
-0.186044
-0.187869
-0.191439
-0.189399
-0.194278
-0.195417
-0.197452
-0.19918
-0.160156
0.217556
0.230123
0.228041
0.0309001
-0.744569
-0.594094
-0.460234
-0.395236
-0.357642
-0.327376
-0.302458
-0.282337
-0.26582
-0.251855
-0.239759
-0.229103
-0.219616
-0.211117
-0.203451
-0.196434
-0.189835
-0.183509
-0.177412
-0.17143
-0.165507
-0.159808
-0.160465
-0.165386
-0.168941
-0.172567
-0.175879
-0.178821
-0.180604
-0.183915
-0.182147
-0.154665
0.230807
0.252715
0.242852
0.276634
0.179688
0.238855
0.321017
-0.731788
-0.207764
-0.872354
-0.628064
-0.871163
-0.47179
-0.404121
-0.363441
-0.330784
-0.3042
-0.282963
-0.265659
-0.251168
-0.238756
-0.227932
-0.218369
-0.209841
-0.202165
-0.19516
-0.188622
-0.182412
-0.176464
-0.170665
-0.164938
-0.159378
-0.154203
-0.155079
-0.159668
-0.16188
-0.165772
-0.169126
-0.17187
-0.17361
-0.176797
-0.175083
-0.148796
0.241638
0.27271
0.303799
0.330519
0.35197
0.308934
0.0290634
0.0427364
-0.755076
-0.725161
-0.431252
-1.04202
-0.920646
-0.898481
-0.683238
-0.473708
-0.605624
-0.858909
-0.40849
-0.366734
-0.332923
-0.3054
-0.283343
-0.265348
-0.250355
-0.237632
-0.22664
-0.217006
-0.20846
-0.200794
-0.193819
-0.187348
-0.181243
-0.175427
-0.169799
-0.164269
-0.158864
-0.153709
-0.148423
-0.149129
-0.153789
-0.156769
-0.160062
-0.161705
-0.165651
-0.166804
-0.169984
-0.168313
-0.143047
0.249232
0.28668
0.353024
0.371141
0.395272
0.439669
0.381353
0.329683
0.0375739
-0.0338246
0.356227
-0.181056
-0.949289
-0.861903
-0.676513
-0.504812
-0.408497
-0.45482
-0.605868
-0.367796
-0.333721
-0.305948
-0.283426
-0.264889
-0.249445
-0.236415
-0.225243
-0.21553
-0.20697
-0.199327
-0.1924
-0.186008
-0.18001
-0.174319
-0.168846
-0.1635
-0.158261
-0.153179
-0.148014
-0.142721
-0.143361
-0.147898
-0.1508
-0.15393
-0.156854
-0.159439
-0.160932
-0.161652
-0.162459
-0.137582
0.252907
0.295066
0.377806
0.377471
0.473598
0.49992
0.434563
0.477375
0.537865
0.504285
0.412184
0.0729894
-0.863334
-0.712575
-0.649277
-0.499437
-0.405509
-0.367289
-0.458053
-0.577223
-0.628688
-0.333547
-0.305947
-0.283238
-0.26433
-0.248505
-0.235172
-0.223791
-0.21397
-0.20538
-0.197763
-0.190896
-0.184594
-0.17871
-0.173148
-0.167821
-0.162644
-0.157572
-0.152602
-0.147571
-0.14239
-0.137283
-0.137878
-0.142208
-0.145018
-0.148071
-0.150898
-0.15335
-0.15479
-0.157627
-0.156179
-0.15945
-0.16088
-0.160736
-0.162504
-0.132318
0.252357
0.293173
0.445878
0.522313
0.534238
0.567004
0.592844
0.627182
0.611741
0.475447
0.457911
0.579212
0.510342
0.140238
-0.510804
-0.482923
-0.416791
-0.365446
-0.392221
-0.332665
-0.445986
-0.467503
-0.573669
-0.620424
-0.30554
-0.282862
-0.263743
-0.247628
-0.234005
-0.222377
-0.212396
-0.203734
-0.196119
-0.189308
-0.183102
-0.17734
-0.171914
-0.166733
-0.161716
-0.156808
-0.151974
-0.14709
-0.142052
-0.137002
-0.132048
-0.132593
-0.136755
-0.139474
-0.142383
-0.145125
-0.147496
-0.148926
-0.151703
-0.15027
-0.15347
-0.154823
-0.15762
-0.156259
-0.127207
0.247863
0.284243
0.412843
0.626517
0.568885
0.635867
0.63573
0.609884
0.6273
0.627006
0.671733
0.722173
0.698784
0.386452
-0.50299
-0.482818
-0.445249
-0.421067
-0.407202
-0.372969
-0.331243
-0.35465
-0.397692
-0.387794
-0.304729
-0.467149
-0.282318
-0.263172
-0.246883
-0.233017
-0.221116
-0.210914
-0.202113
-0.194446
-0.18766
-0.181538
-0.175898
-0.170614
-0.165585
-0.160729
-0.155982
-0.151297
-0.146573
-0.1417
-0.136746
-0.131816
-0.126961
-0.12747
-0.131494
-0.134136
-0.136924
-0.139573
-0.141823
-0.143208
-0.145907
-0.144505
-0.147607
-0.148953
-0.151717
-0.150361
-0.122232
0.239831
0.270243
0.371752
0.443717
0.70414
0.493726
0.557959
0.407212
0.732192
0.729776
0.718978
-0.44323
-0.375655
-0.366742
-0.337417
-0.303489
-0.322475
-0.358859
-0.349791
-0.386861
-0.281538
-0.462354
-0.262575
-0.24626
-0.23225
-0.2201
-0.209645
-0.200633
-0.192837
-0.186012
-0.179932
-0.174395
-0.169249
-0.164376
-0.159685
-0.155105
-0.150579
-0.146021
-0.141328
-0.13651
-0.131641
-0.126779
-0.122005
-0.12249
-0.126393
-0.128971
-0.131659
-0.134229
-0.136384
-0.137721
-0.140321
-0.138969
-0.141925
-0.143229
-0.145915
-0.144588
-0.117359
0.228687
0.252447
0.330157
0.368268
0.0349052
0.0572691
0.647184
0.0908992
0.0954367
-0.372809
-0.365584
-0.339905
-0.331789
-0.308527
-0.280438
-0.296258
-0.321774
-0.358792
-0.350662
-0.261847
-0.245681
-0.231656
-0.219343
-0.20866
-0.199403
-0.191405
-0.18446
-0.178352
-0.172868
-0.167836
-0.163112
-0.158586
-0.154178
-0.149822
-0.145437
-0.140933
-0.136284
-0.131522
-0.126691
-0.121876
-0.117157
-0.117633
-0.12143
-0.123957
-0.126555
-0.129059
-0.131137
-0.132434
-0.134951
-0.133644
-0.13648
-0.137741
-0.140328
-0.139048
-0.112562
0.214844
0.231913
0.290771
0.309299
0.00694506
-0.0368301
-0.0191079
-0.0330551
-0.0154145
-0.339285
-0.331198
-0.307003
-0.284739
-0.260789
-0.274227
-0.295818
-0.317861
-0.32513
-0.245029
-0.231125
-0.21877
-0.20795
-0.198476
-0.190249
-0.183112
-0.176892
-0.171387
-0.166413
-0.161809
-0.157439
-0.153205
-0.149026
-0.144824
-0.140516
-0.136057
-0.131445
-0.126698
-0.12188
-0.117094
-0.112432
-0.112799
-0.116592
-0.11907
-0.121588
-0.124038
-0.126048
-0.127312
-0.129759
-0.12849
-0.13123
-0.132454
-0.134959
-0.13372
-0.108026
0.198669
0.209454
0.253852
0.261539
0.0256471
-0.00359989
-0.007473
-0.0374944
-0.0387132
-0.00678334
-0.0409115
-0.33737
-0.330741
-0.309197
-0.303512
-0.283446
-0.264466
-0.244104
-0.255081
-0.273797
-0.292297
-0.298304
-0.230536
-0.218264
-0.207426
-0.197822
-0.1894
-0.182051
-0.175655
-0.170043
-0.165052
-0.16051
-0.156265
-0.152192
-0.148192
-0.144181
-0.140075
-0.135819
-0.131391
-0.126781
-0.122021
-0.117205
-0.112461
-0.107951
-0.108205
-0.111764
-0.114252
-0.116758
-0.119142
-0.121093
-0.122333
-0.124721
-0.123481
-0.126139
-0.127333
-0.129769
-0.128564
-0.103802
0.180476
0.185675
0.219218
0.219652
0.0375808
0.00269129
0.00836435
-0.00926877
-0.0154674
-0.0123109
-0.0106028
-0.302705
-0.285175
-0.280036
-0.263443
-0.242797
-0.229785
-0.255143
-0.271045
-0.275728
-0.292013
-0.297434
-0.217708
-0.206969
-0.197341
-0.188808
-0.181288
-0.174702
-0.168927
-0.16384
-0.159286
-0.155106
-0.151161
-0.147329
-0.143506
-0.139607
-0.135565
-0.131342
-0.126911
-0.122273
-0.11749
-0.112684
-0.108035
-0.10369
-0.10402
-0.107408
-0.109422
-0.111937
-0.114381
-0.116262
-0.117487
-0.119813
-0.118592
-0.121183
-0.122354
-0.124732
-0.123555
-0.0994066
0.160526
0.161032
0.18676
0.183036
0.0424003
0.00682587
0.0110884
0.00152092
0.00258276
0.00314581
0.00126768
-0.0134112
-0.0147288
-0.284229
-0.279764
-0.264991
-0.260411
-0.245993
-0.228836
-0.238344
-0.217021
-0.254709
-0.271483
-0.275283
-0.206474
-0.19692
-0.188376
-0.180766
-0.174029
-0.168086
-0.162853
-0.158214
-0.154025
-0.150152
-0.146453
-0.142808
-0.139113
-0.135291
-0.131287
-0.127063
-0.1226
-0.117919
-0.113113
-0.108343
-0.103778
-0.0993452
-0.0995847
-0.103053
-0.105291
-0.107614
-0.109427
-0.111526
-0.1127
-0.115044
-0.113846
-0.116345
-0.117502
-0.119825
-0.118666
-0.0950249
0.139024
0.135883
0.156404
0.151359
0.0437781
0.0101182
0.0131757
0.00270485
-0.00290667
-0.00208081
0.00313447
0.000985117
-0.000992207
-0.00316195
0.00108904
0.00427957
-0.26419
-0.260062
-0.247017
-0.243656
-0.231285
-0.216185
-0.224801
-0.239925
-0.23628
-0.205861
-0.256324
-0.25196
-0.270472
-0.196465
-0.187999
-0.180384
-0.173572
-0.167504
-0.162125
-0.157358
-0.153095
-0.149223
-0.145604
-0.142102
-0.138599
-0.134993
-0.131218
-0.12722
-0.122966
-0.11845
-0.113721
-0.108896
-0.104141
-0.0995008
-0.094997
-0.0951974
-0.098643
-0.100846
-0.10316
-0.105387
-0.107189
-0.108267
-0.10962
-0.109421
-0.112106
-0.112765
-0.115036
-0.113935
-0.0907602
0.116124
0.110572
0.12812
0.123964
0.0429329
0.0129903
0.0149058
0.00423316
-0.00240569
-0.00704859
-0.00467151
-0.00207889
-0.00579166
0.00104769
0.00187923
0.003262
0.000685809
0.00225131
-0.263267
-0.260047
-0.242922
-0.232175
-0.228933
-0.218466
-0.205097
-0.212499
-0.226025
-0.223152
-0.239659
-0.236358
-0.195907
-0.187588
-0.180045
-0.173237
-0.167112
-0.161628
-0.156736
-0.152365
-0.148435
-0.144832
-0.141422
-0.138077
-0.134676
-0.131129
-0.127369
-0.123346
-0.119039
-0.114457
-0.109669
-0.104804
-0.0999588
-0.0952212
-0.0907529
-0.0909274
-0.0943044
-0.0964743
-0.0987701
-0.100937
-0.102716
-0.103807
-0.105984
-0.104886
-0.107233
-0.10835
-0.109377
-0.109898
-0.0865991
0.0922321
0.0855271
0.10203
0.100329
0.0405526
0.0150633
0.015892
0.00566318
-0.00194823
-0.00662193
-0.010804
-0.00880475
-0.00663203
-0.00551993
-0.00453965
-0.00329676
-0.000913558
-0.00829352
0.00266658
0.00157687
0.00274732
0.000327179
-0.231308
-0.228482
-0.219298
-0.21633
-0.20699
-0.195219
-0.201927
-0.212004
-0.225891
-0.223725
-0.187082
-0.179675
-0.172936
-0.166821
-0.161293
-0.156317
-0.151843
-0.147827
-0.144185
-0.140808
-0.137573
-0.134347
-0.131019
-0.1275
-0.123725
-0.119653
-0.115272
-0.110608
-0.105738
-0.100758
-0.095788
-0.0910267
-0.0866084
-0.0867565
-0.0900524
-0.092191
-0.0944423
-0.0965797
-0.0983334
-0.0994246
-0.101558
-0.100468
-0.102784
-0.103851
-0.106027
-0.104941
-0.107279
-0.108292
-0.108726
-0.109794
-0.0825289
0.0686691
0.0614696
0.0785536
0.0802074
0.0373716
0.0163529
0.0161309
0.0066826
-0.00145032
-0.00625514
-0.010588
-0.0153496
-0.0119957
-0.01029
-0.00944297
-0.00873057
-0.00770339
-0.00647549
-0.00565687
-0.0046995
-0.00354619
0.000905199
-0.00887073
0.00224207
0.00120981
0.00224333
-0.218445
-0.215646
-0.206265
-0.196941
-0.186458
-0.192331
-0.201716
-0.210407
-0.213295
-0.223089
-0.179225
-0.172604
-0.166552
-0.16104
-0.156036
-0.151493
-0.147398
-0.143691
-0.140299
-0.13712
-0.134024
-0.130891
-0.127607
-0.124087
-0.120271
-0.116127
-0.111652
-0.106879
-0.101872
-0.096739
-0.0916869
-0.0869271
-0.0825396
-0.0825499
-0.0858813
-0.087989
-0.0901944
-0.0922975
-0.0940116
-0.0950918
-0.0971994
-0.0961156
-0.0984036
-0.0994684
-0.101611
-0.100539
-0.102853
-0.103881
-0.106054
-0.105007
-0.0785422
0.0465201
0.0398616
0.0585046
0.0636337
0.0340268
0.0170873
0.015865
0.0072785
-0.000914691
-0.0057782
-0.0100977
-0.0140862
-0.0130992
-0.015224
-0.0159159
-0.0122241
-0.0117024
-0.011275
-0.0101983
-0.00945107
-0.00886949
-0.00793212
-0.00674056
-0.217775
-0.21569
-0.206979
-0.20452
-0.196267
-0.187973
-0.17866
-0.183908
-0.19199
-0.199777
-0.203215
-0.172197
-0.166245
-0.160797
-0.155818
-0.151253
-0.147112
-0.143345
-0.139915
-0.136745
-0.13373
-0.13075
-0.127683
-0.124418
-0.120872
-0.116992
-0.112752
-0.108156
-0.103231
-0.0980502
-0.0927845
-0.0876749
-0.082901
-0.0785605
-0.0786772
-0.0809149
-0.083782
-0.0860557
-0.0880985
-0.0897726
-0.0908354
-0.0929072
-0.091839
-0.0940813
-0.0951337
-0.0972501
-0.0961874
-0.0984737
-0.0994985
-0.101646
-0.10061
-0.0746624
0.0219166
0.0232883
0.0430265
0.0509012
0.0310314
0.0174588
0.0152998
0.00751993
-0.0004081
-0.00524065
-0.00945407
-0.013043
-0.0129067
-0.0149819
-0.0138732
-0.0136985
-0.0153043
-0.0145273
-0.0194106
-0.0123826
-0.0121894
-0.011971
-0.0115276
-0.0104666
-0.196939
-0.19473
-0.187437
-0.180051
-0.171652
-0.176203
-0.183663
-0.190605
-0.19285
-0.199447
-0.202757
-0.165865
-0.160515
-0.155602
-0.151059
-0.146912
-0.143113
-0.139648
-0.136463
-0.133483
-0.130612
-0.127727
-0.124702
-0.121433
-0.117839
-0.113871
-0.109509
-0.104755
-0.0996449
-0.0942939
-0.0889088
-0.0837335
-0.0789652
-0.0747009
-0.0787404
-0.0748183
-0.0826661
-0.0839412
-0.0856299
-0.0866678
-0.0886953
-0.0876462
-0.0898421
-0.090877
-0.0929562
-0.0919103
-0.0941499
-0.0951622
-0.0972837
-0.0962564
-0.0708952
-0.00736604
0.0149016
0.0330553
0.0422831
0.0287452
0.0175996
0.0145654
0.0074741
-6.22717e-06
-0.00474231
-0.00880847
-0.012245
-0.0128689
-0.0151995
-0.016166
-0.0158289
-0.0148642
-0.019873
-0.0142453
-0.0141493
-0.0139613
-0.0142472
-0.0204604
-0.0121257
-0.196509
-0.19458
-0.188048
-0.186004
-0.179588
-0.170921
-0.165389
-0.175747
-0.182191
-0.184648
-0.190432
-0.192573
-0.160163
-0.155345
-0.150859
-0.146743
-0.142945
-0.139465
-0.136264
-0.133297
-0.130489
-0.127741
-0.124927
-0.121929
-0.118634
-0.11497
-0.110888
-0.106373
-0.101432
-0.0961283
-0.0906084
-0.0851016
-0.0798723
-0.0751277
-0.0709327
-0.0749906
-0.0780373
-0.0801232
-0.0710648
-0.0823614
-0.084469
-0.0830155
-0.0857045
-0.0867053
-0.0887442
-0.087716
-0.08991
-0.0909057
-0.0929893
-0.0919787
-0.0671878
0.015703
0.0282133
0.03752
0.0272664
0.0175754
0.0137494
0.00720911
0.000249162
-0.00435792
-0.00824754
-0.0115801
-0.0127998
-0.0150872
-0.0186367
-0.0184478
-0.0196454
-0.0183968
-0.0163259
-0.015822
-0.0156214
-0.0153827
-0.014811
-0.0196548
-0.187664
-0.185728
-0.180167
-0.178397
-0.172007
-0.164818
-0.169108
-0.159724
-0.175594
-0.181866
-0.184817
-0.155024
-0.150618
-0.146563
-0.142795
-0.139326
-0.136123
-0.133162
-0.130388
-0.127732
-0.125088
-0.122334
-0.11934
-0.116003
-0.112245
-0.108025
-0.103328
-0.0981847
-0.0926827
-0.0869899
-0.081364
-0.0760903
-0.0713679
-0.06722
-0.0712968
-0.0742841
-0.0761426
-0.0776827
-0.078706
-0.0796421
-0.0806418
-0.0673634
-0.0817351
-0.0827817
-0.084163
-0.0846216
-0.0857628
-0.0867319
-0.0887777
-0.0877834
-0.063532
0.0262001
0.0355107
0.026328
0.0173627
0.0128994
0.00678479
0.000345218
-0.00412429
-0.00783271
-0.0110417
-0.0126744
-0.0148563
-0.0176359
-0.0183383
-0.0189793
-0.0199556
-0.0194603
-0.0189856
-0.0167938
-0.0186881
-0.179824
-0.177814
-0.172395
-0.170788
-0.165802
-0.159194
-0.162888
-0.169457
-0.168604
-0.154632
-0.17631
-0.174505
-0.181616
-0.184437
-0.150317
-0.146341
-0.142628
-0.139193
-0.13601
-0.133059
-0.130307
-0.12771
-0.125189
-0.122636
-0.119922
-0.11692
-0.11352
-0.109648
-0.105263
-0.100368
-0.0950124
-0.0893034
-0.0834329
-0.0776934
-0.0723771
-0.0676629
-0.0635564
-0.0676069
-0.0705844
-0.0724275
-0.0739546
-0.0749069
-0.0757284
-0.0766383
-0.0637183
-0.0838958
-0.0846131
-0.059935
0.0348655
0.0254452
0.0168739
0.0120229
0.00623654
0.000275801
-0.00405423
-0.00759439
-0.0106582
-0.0125312
-0.0146178
-0.0171064
-0.017948
-0.0184653
-0.0188932
-0.0192743
-0.0190093
-0.0192423
-0.020087
-0.0196622
-0.0189721
-0.179548
-0.177908
-0.166025
-0.164698
-0.160058
-0.154171
-0.157467
-0.163454
-0.162013
-0.168527
-0.149941
-0.146064
-0.142419
-0.139039
-0.135894
-0.132965
-0.130235
-0.127679
-0.125241
-0.122836
-0.120359
-0.117673
-0.114649
-0.11117
-0.107162
-0.102596
-0.0974892
-0.0919088
-0.0859811
-0.0799351
-0.0740805
-0.0687156
-0.0640079
-0.0599529
-0.063966
-0.0669018
-0.0687307
-0.0702523
-0.0711995
-0.0720214
-0.0729189
-0.0601423
-0.0564068
0.0243742
0.0160212
0.0110972
0.00557606
3.12486e-05
-0.00415229
-0.00753754
-0.0104458
-0.0124218
-0.0143922
-0.0166025
-0.0175495
-0.0179524
-0.0177896
-0.0183033
-0.0192885
-0.0194999
-0.0199533
-0.0189759
-0.0191193
-0.0193374
-0.0202535
-0.0197702
-0.16547
-0.164498
-0.160396
-0.159079
-0.15502
-0.149478
-0.15257
-0.157928
-0.156588
-0.163373
-0.161989
-0.145725
-0.142159
-0.138845
-0.135752
-0.132859
-0.130158
-0.127637
-0.125252
-0.122952
-0.120655
-0.118239
-0.115573
-0.112511
-0.108935
-0.104775
-0.100014
-0.0946818
-0.0888636
-0.0827125
-0.0764851
-0.0705147
-0.0651024
-0.0604165
-0.0564322
-0.0604047
-0.0632744
-0.0650766
-0.0665722
-0.0675084
-0.0683252
-0.0692183
-0.0566246
-0.0529854
0.0149382
0.010072
0.00480008
-0.000392583
-0.00441967
-0.00765427
-0.0104027
-0.0123868
-0.0142175
-0.0161402
-0.0171107
-0.0174984
-0.0174986
-0.018021
-0.0181716
-0.0181095
-0.0183543
-0.0197118
-0.0215061
-0.0186799
-0.0178208
-0.0192868
-0.0194631
-0.160045
-0.158862
-0.155541
-0.153934
-0.150162
-0.145326
-0.148008
-0.153021
-0.151927
-0.15781
-0.156383
-0.141836
-0.138599
-0.135569
-0.132726
-0.130061
-0.127576
-0.125232
-0.123001
-0.120829
-0.11862
-0.116263
-0.113602
-0.110489
-0.106804
-0.102481
-0.0975085
-0.0919358
-0.0858695
-0.0794867
-0.0730771
-0.0669917
-0.0615497
-0.0569096
-0.0530371
-0.0569345
-0.0597181
-0.0614924
-0.062951
-0.0638702
-0.064676
-0.0655566
-0.0531436
-0.0498039
0.00902971
0.00386717
-0.000997635
-0.00484688
-0.00792936
-0.0105156
-0.0124489
-0.0141303
-0.0157851
-0.0167256
-0.0171312
-0.0172687
-0.0177347
-0.0182072
-0.0183767
-0.0182762
-0.0184124
-0.018306
-0.0184073
-0.01852
-0.022965
-0.0176387
-0.0179955
-0.0195728
-0.15565
-0.153578
-0.149736
-0.14594
-0.141447
-0.144051
-0.147757
-0.152873
-0.151378
-0.138294
-0.13534
-0.132554
-0.129933
-0.127489
-0.12518
-0.122999
-0.12091
-0.118848
-0.116727
-0.11441
-0.111745
-0.108572
-0.104767
-0.100265
-0.0950679
-0.0892424
-0.0829161
-0.0762976
-0.0697049
-0.0635213
-0.0580755
-0.053523
-0.0498139
-0.0533761
-0.0562627
-0.0579866
-0.0594006
-0.0603046
-0.0610979
-0.061963
-0.0500132
0.00286501
-0.00180633
-0.00542079
-0.0083393
-0.0107654
-0.012613
-0.0141478
-0.0155654
-0.0164401
-0.0168574
-0.0170759
-0.0175011
-0.0179616
-0.0183604
-0.0185145
-0.0184123
-0.0185676
-0.0184701
-0.0185626
-0.0186097
-0.0185193
-0.0185264
-0.0185795
-0.0184865
-0.0236538
-0.155449
-0.153444
-0.15009
-0.149029
-0.145606
-0.14204
-0.137926
-0.140203
-0.143949
-0.147066
-0.148156
-0.152735
-0.151479
-0.135059
-0.13234
-0.129768
-0.12737
-0.125098
-0.122957
-0.120924
-0.118958
-0.117
-0.11495
-0.11267
-0.109991
-0.106749
-0.102811
-0.0981171
-0.0926823
-0.086591
-0.0799962
-0.0731386
-0.0663736
-0.0601157
-0.0547038
-0.0502688
-0.0502827
-0.0527929
-0.0543492
-0.0559747
-0.0568358
-0.0575817
-0.0584375
-0.00270724
-0.00615475
-0.00886594
-0.0111294
-0.0128729
-0.0142703
-0.0154843
-0.0162705
-0.0166758
-0.0169241
-0.0172966
-0.0177198
-0.0181095
-0.0187237
-0.0186008
-0.0184813
-0.0186826
-0.0186019
-0.0187112
-0.0186958
-0.0185978
-0.0186327
-0.0186544
-0.0186952
-0.0186296
-0.0186492
-0.145802
-0.144783
-0.141698
-0.138459
-0.134732
-0.136793
-0.139993
-0.142896
-0.144663
-0.132083
-0.12956
-0.127214
-0.124982
-0.12288
-0.120889
-0.118985
-0.117134
-0.115267
-0.113283
-0.111028
-0.108329
-0.105006
-0.100925
-0.0960275
-0.0903402
-0.0839724
-0.0771026
-0.0700103
-0.0630919
-0.0567892
-0.0514343
-0.0496324
-0.0512501
-0.0525089
-0.0533788
-0.0539159
-0.0550254
-0.00694441
-0.0095202
-0.0115909
-0.0132145
-0.0144872
-0.0155306
-0.0162204
-0.0165909
-0.0168258
-0.0171292
-0.0174771
-0.0177969
-0.0181401
-0.0171716
-0.0193949
-0.0186614
-0.0186415
-0.0186563
-0.0188426
-0.0187976
-0.0187184
-0.0187752
-0.0187904
-0.0187728
-0.0186767
-0.0187077
-0.141909
-0.141041
-0.138183
-0.135266
-0.131802
-0.133659
-0.136588
-0.139408
-0.140297
-0.142704
-0.14458
-0.129303
-0.127019
-0.12483
-0.122767
-0.120815
-0.118954
-0.11717
-0.115422
-0.113641
-0.111709
-0.109474
-0.106746
-0.103335
-0.0990985
-0.0939836
-0.0880329
-0.0813785
-0.074232
-0.0669151
-0.059865
-0.0535392
-0.04933
-0.0501372
-0.0509079
-0.0516937
-0.0525589
-0.0534031
-0.0536087
-0.01021
-0.0121616
-0.0136295
-0.0147814
-0.0156841
-0.0162811
-0.0166028
-0.0167951
-0.0170139
-0.017264
-0.0174833
-0.0176351
-0.016927
-0.0169891
-0.0173242
-0.0175277
-0.0202661
-0.0185185
-0.0188369
-0.0187713
-0.0187907
-0.0188646
-0.0189215
-0.0188804
-0.0188029
-0.0188456
-0.141729
-0.140962
-0.138413
-0.137582
-0.135084
-0.132274
-0.128967
-0.130857
-0.133477
-0.135998
-0.136817
-0.139313
-0.140164
-0.126785
-0.124642
-0.122621
-0.120706
-0.118881
-0.117143
-0.115467
-0.113814
-0.112104
-0.110221
-0.107999
-0.105233
-0.101723
-0.0973203
-0.0919759
-0.085751
-0.0788032
-0.0713822
-0.0638536
-0.0566887
-0.0494257
-0.0484872
-0.0502129
-0.0509256
-0.0516839
-0.0127578
-0.0141305
-0.0151408
-0.0159217
-0.0164339
-0.0167011
-0.0168372
-0.016964
-0.0171048
-0.0172167
-0.017247
-0.0167258
-0.0166991
-0.0168938
-0.0172264
-0.0173605
-0.0175029
-0.0174129
-0.0184989
-0.0217757
-0.0186202
-0.0180991
-0.0189403
-0.0189034
-0.0188912
-0.0189465
-0.138249
-0.137485
-0.135105
-0.134703
-0.132066
-0.12851
-0.126523
-0.130284
-0.132955
-0.133703
-0.135858
-0.136677
-0.124414
-0.122438
-0.120565
-0.118773
-0.11707
-0.115442
-0.113866
-0.112294
-0.11065
-0.108809
-0.10659
-0.103779
-0.100162
-0.0955817
-0.0899958
-0.0834857
-0.0762404
-0.0685502
-0.0608206
-0.0484907
-0.0146437
-0.0155762
-0.0162283
-0.0166562
-0.0168683
-0.0169461
-0.0169836
-0.0170158
-0.017021
-0.0169586
-0.0165563
-0.0164651
-0.0166126
-0.0166578
-0.0170431
-0.0171662
-0.0174126
-0.0175419
-0.0176672
-0.0177179
-0.0176823
-0.0174582
-0.0225439
-0.0189737
-0.0178516
-0.134802
-0.134904
-0.132283
-0.131694
-0.128936
-0.126254
-0.12766
-0.12414
-0.130281
-0.132853
-0.133384
-0.122217
-0.120392
-0.118635
-0.116964
-0.115371
-0.113842
-0.112351
-0.110855
-0.10927
-0.107463
-0.105242
-0.10238
-0.0986434
-0.0938735
-0.0880331
-0.0812301
-0.0736852
-0.0657285
-0.0160182
-0.016606
-0.0169324
-0.0170851
-0.0171082
-0.0170678
-0.017002
-0.016907
-0.0167622
-0.0164194
-0.016273
-0.0163562
-0.0163643
-0.0162612
-0.0172638
-0.0168548
-0.0172048
-0.0173119
-0.0174861
-0.0175798
-0.017679
-0.0176246
-0.134888
-0.132106
-0.131082
-0.129113
-0.128458
-0.126698
-0.123812
-0.12529
-0.127857
-0.127207
-0.121953
-0.130594
-0.129901
-0.132789
-0.133225
-0.120189
-0.118468
-0.11683
-0.115265
-0.113771
-0.112327
-0.110917
-0.109489
-0.107956
-0.106177
-0.103949
-0.101023
-0.0971583
-0.0921847
-0.0860799
-0.078977
-0.0711287
-0.0169855
-0.017265
-0.0173395
-0.0173083
-0.0172041
-0.0170568
-0.0168744
-0.0166548
-0.0163261
-0.0161274
-0.0161311
-0.0161104
-0.0160222
-0.0159067
-0.0164232
-0.0165873
-0.0175541
-0.0184169
-0.0168215
-0.0172832
-0.0173796
-0.0174421
-0.0173956
-0.131988
-0.131218
-0.126539
-0.1265
-0.124111
-0.121646
-0.12302
-0.125368
-0.124849
-0.119964
-0.118272
-0.116667
-0.115132
-0.113666
-0.112255
-0.110893
-0.109554
-0.108187
-0.106701
-0.104944
-0.102699
-0.0997032
-0.0956995
-0.0905088
-0.0841286
-0.0767156
-0.0175913
-0.0176349
-0.0175372
-0.0173773
-0.0171666
-0.016914
-0.016629
-0.0162854
-0.016031
-0.0159456
-0.0158759
-0.0157832
-0.0157138
-0.0158471
-0.0160689
-0.0161902
-0.0164966
-0.0165968
-0.0166712
-0.0168605
-0.0174798
-0.0157375
-0.0170589
-0.0169607
-0.126522
-0.124226
-0.123679
-0.121935
-0.119728
-0.120903
-0.123204
-0.122655
-0.12523
-0.124842
-0.118043
-0.116476
-0.114971
-0.113536
-0.11215
-0.110819
-0.10953
-0.108256
-0.106945
-0.105499
-0.103758
-0.10149
-0.0984169
-0.0942571
-0.0888364
-0.0821684
-0.0179156
-0.0177993
-0.0175787
-0.0173162
-0.0170101
-0.0166715
-0.0162988
-0.0159862
-0.0158082
-0.0156735
-0.0155475
-0.01548
-0.0155586
-0.0154709
-0.016026
-0.0159046
-0.0161525
-0.0162119
-0.0163135
-0.0163532
-0.0165773
-0.0166802
-0.0167681
-0.0169677
-0.0175608
-0.0166474
-0.12407
-0.123581
-0.122054
-0.121537
-0.119954
-0.117776
-0.119061
-0.121056
-0.120544
-0.123147
-0.12261
-0.116249
-0.114782
-0.113382
-0.112021
-0.110714
-0.109454
-0.108231
-0.107016
-0.105755
-0.104346
-0.102615
-0.100318
-0.0971533
-0.0928223
-0.0871583
-0.0180434
-0.0178107
-0.0174947
-0.0171446
-0.0167655
-0.0163602
-0.015992
-0.0157263
-0.0155154
-0.0153366
-0.0152256
-0.0152074
-0.0149914
-0.0141885
-0.0152187
-0.0161741
-0.0159372
-0.0159844
-0.0160127
-0.0160053
-0.0162197
-0.0163004
-0.0163879
-0.0164365
-0.0166442
-0.016749
-0.0168405
-0.017062
-0.121909
-0.121437
-0.120019
-0.119528
-0.118026
-0.115988
-0.117096
-0.119359
-0.118562
-0.121001
-0.120483
-0.114564
-0.113207
-0.111871
-0.110587
-0.109349
-0.108154
-0.10699
-0.105829
-0.104615
-0.103236
-0.101511
-0.0991766
-0.0959049
-0.0913889
-0.0180239
-0.0177015
-0.0173063
-0.0168937
-0.0164588
-0.0160437
-0.0156997
-0.0154103
-0.0151658
-0.0149891
-0.0148764
-0.0145893
-0.0139609
-0.0138773
-0.0143256
-0.014663
-0.0151671
-0.0153879
-0.0155191
-0.0170593
-0.0151279
-0.016039
-0.0160451