/*--------------------------------*- C++ -*----------------------------------*\
| =========                 |                                                 |
| \\      /  F ield         | OpenFOAM: The Open Source CFD Toolbox           |
|  \\    /   O peration     | Version:  v1912                                 |
|   \\  /    A nd           | Website:  www.openfoam.com                      |
|    \\/     M anipulation  |                                                 |
\*---------------------------------------------------------------------------*/
FoamFile
{
    version     2.0;
    format      ascii;
    class       surfaceScalarField;
    location    "320";
    object      phi;
}
// * * * * * * * * * * * * * * * * * * * * * * * * * * * * * * * * * * * * * //

dimensions      [0 3 -1 0 0 0 0];
oriented        oriented;


internalField   nonuniform List<scalar> 
7354
(
-3.47755e-05
0.00993345
-0.000160002
0.0100949
0.000763372
0.00916973
-0.000365004
0.0102383
0.00121001
0.00964825
0.00285493
0.00313583
0.00317765
-0.000600648
0.0102814
0.00133995
0.0101084
0.00465757
0.00358555
0.00426006
0.00195229
0.00058481
0.000597595
0.00395756
0.000604905
0.000567464
-0.000865595
0.0102955
0.00133447
0.0102868
0.00536025
0.00460167
0.00480401
0.00558055
0.00122968
0.00073288
0.00639641
0.00177684
0.00166736
-0.000597362
0.00118217
-0.00174964
0.00235454
-0.00116549
0.0103131
0.00119895
0.0104311
0.0053323
0.0103148
0.00708786
0.00203461
0.00187561
0.00713758
0.00475429
-0.00308742
0.0043171
-0.00431753
0.00473551
0.00135885
0.00166693
-0.001498
0.0103347
0.000932388
0.0105797
0.00479705
0.0109663
-0.0098084
0.0160609
0.005323
0.00587683
-0.00515719
0.005253
0.00193879
0.00145394
-0.00425786
0.0023117
0.00214505
-0.00166693
0.00302578
-0.00185653
0.010356
0.0005489
0.0107182
0.00403416
0.0113426
0.0139555
0.0130717
0.0059909
-0.0031339
0.00418936
-0.00172335
0.00621558
0.00565215
-0.00447972
0.00216065
-0.0026508
0.00182861
-0.00216065
0.00165491
-0.00223498
0.0103753
7.22729e-05
0.0108327
0.00319959
0.0115528
0.011422
0.0138761
-0.00318954
0.00988526
0.0125916
0.00218541
0.00292025
-0.000371027
-0.000545266
-0.00112893
0.00123419
0.00464802
0.000525972
-0.00262915
0.0103925
-0.000472869
0.0109205
0.00233929
0.011693
0.0089741
0.0140007
0.00896479
0.0147965
-0.00161474
0.00448018
0.0110241
-0.00129796
0.000861602
-0.000110812
0.00224319
-7.3716e-05
-0.00093161
0.000668571
-0.000107987
-0.000242683
0.00389488
0.000283289
-0.00303401
0.0104055
-0.00106542
0.010985
0.00146083
0.011799
0.00676864
0.0138984
0.00746078
0.0155047
0.0047487
0.014528
0.00163061
0.00989136
-9.70474e-05
-0.000400801
-0.000637694
0.00323462
0.000576809
-1.9049e-05
0.00177525
-8.1497e-05
-8.82557e-05
0.000515982
-1.28874e-05
0.000175302
-0.00344818
0.0104172
-0.00169093
0.011031
0.000566951
0.0118789
0.00481659
0.013751
0.00582245
0.0155368
0.00420322
0.0160502
0.00225999
0.0138987
0.000306774
0.00918857
0.000239142
0.000156873
-0.00299459
0.00290616
-8.61013e-06
-0.000160767
0.000156253
0.00164371
-2.28375e-05
-6.39254e-06
-0.000447946
0.000389065
-2.26146e-05
-2.02189e-05
0.000143366
-0.00387032
0.0104271
-0.00233935
0.0110656
-0.00033872
0.0119366
0.00307313
0.0136224
0.00422027
0.0153532
0.00329451
0.0164455
0.00222983
0.0160803
0.000964438
0.013241
-2.03021e-05
0.00886172
0.000113617
0.000233532
-0.0028825
0.00287018
0.000251468
0.000180528
0.0016364
3.99484e-06
-5.28922e-06
0.000368117
-1.88902e-06
0.000362762
-1.03581e-06
-0.000123147
0.000100532
-0.00429711
0.0104338
-0.00300448
0.0110923
-0.00125164
0.0119785
0.00148599
0.0135238
0.00269633
0.0151463
0.00226688
0.0163808
0.00176443
0.0169109
0.00117928
0.0158655
0.000427248
0.0127935
7.58981e-05
0.00876205
-2.75047e-05
5.12793e-05
-0.00286851
0.00288209
0.000100037
0.000235197
-0.00171795
0.00175039
0.000113344
0.000105685
2.91004e-05
6.98793e-05
-0.000357868
0.000362443
-5.7919e-07
-3.94937e-07
9.86435e-05
9.76077e-05
-0.00473077
0.0104417
-0.00368629
0.0111156
-0.00216953
0.0120102
1.11483e-05
0.0134534
0.00124586
0.0149743
0.00121762
0.0161956
0.00109376
0.0170515
0.000981577
0.0171086
0.000655435
0.0156373
0.000301851
0.0125675
9.49756e-05
-6.47031e-05
0.00873178
-0.00289208
0.00272464
0.000139938
4.12856e-05
-0.00180114
0.00185751
8.41706e-06
3.52498e-05
0.000124772
5.96718e-05
-0.000455375
0.000483139
8.558e-05
-0.000420423
7.07336e-05
0.000380807
1.07368e-05
3.0263e-05
-9.72128e-05
9.66337e-05
-0.00516688
0.0104471
-0.00437935
0.0111347
-0.00309134
0.0120374
-0.00138592
0.0134072
-0.00014797
0.0148472
0.000174061
0.0160178
0.000349634
0.0169397
0.000543267
0.0174898
0.000575534
0.0171885
0.000457949
0.0154812
0.000249808
0.0124127
-0.00205033
0.00474677
-1.06147e-05
-2.58846e-05
-4.06179e-06
0.000134628
0.00860121
-0.00189323
-1.21969e-05
-4.96441e-06
7.59128e-06
-2.02731e-06
-0.000570513
0.000575565
3.36495e-06
-0.000550433
1.51694e-05
0.000526319
8.15909e-05
3.5558e-05
-0.000208367
0.000237437
5.65101e-05
-0.000137633
0.00010737
-0.00560754
0.0104537
-0.00508743
0.0111552
-0.00401989
0.0120633
-0.00273829
0.0133898
-0.00150519
0.0147645
-0.00086098
0.0158823
-0.000416328
0.0167838
-5.20204e-06
0.0174882
0.000269693
0.0177956
0.000409495
0.017237
0.000376737
0.0153543
0.000184537
0.0122241
0.00476033
0.000108747
1.23083e-05
-0.000877571
0.000869327
-1.47228e-06
-8.99072e-07
-0.000530232
-2.47964e-07
-1.19089e-06
-0.000371785
-3.59518e-05
0.00025246
0.00838469
-0.000574921
3.24912e-05
-0.000579721
-1.64473e-07
0.000581248
1.90767e-06
-4.99778e-07
-0.000330708
0.000334071
1.6272e-09
-0.000317909
2.37014e-06
0.000290976
2.80514e-05
8.6253e-06
5.65101e-05
-0.00605426
0.0104607
-0.00580862
0.0111748
-0.00495193
0.0120872
-0.00407594
0.0134009
-0.00284212
0.0147267
-0.00189179
0.0157953
-0.00118584
0.0166518
-0.00059229
0.0173709
-0.000150615
0.0179085
0.000176153
0.018029
0.000355464
0.0172582
0.000328231
0.0152106
0.00017972
0.0120084
0.00466234
0.00016855
0.000181894
-0.00088167
0.000962771
2.25539e-05
5.09052e-06
1.17838e-06
-1.21451e-06
-8.92408e-05
8.77685e-05
-9.01399e-05
-9.03879e-05
-9.15788e-05
-0.000336202
-3.09176e-06
5.02268e-05
4.81483e-05
0.0082863
-0.000335644
-7.22759e-07
0.000335709
2.69622e-07
-4.34844e-07
-9.55569e-05
9.55585e-05
-9.31868e-05
8.45615e-05
-0.00650603
0.0104668
-0.00654063
0.0111927
-0.00589186
0.0121148
-0.00543504
0.0134464
-0.00417881
0.0147376
-0.0029208
0.0157558
-0.0019543
0.0165638
-0.00119045
0.0172499
-0.000618071
0.0178383
-0.000170827
0.0182555
0.000168744
0.0182157
0.000334404
0.0172521
0.000323576
0.0150667
0.000195795
0.0118628
0.00468027
-1.98433e-05
5.00548e-05
-0.00101552
0.00108481
2.5588e-05
7.36773e-05
7.10419e-05
5.80976e-05
-9.28228e-05
0.000115377
-8.77323e-05
-8.6554e-05
-9.46706e-05
0.00012564
-7.36201e-05
0.00823425
-9.53933e-05
9.58282e-05
-0.00696607
0.0104761
-0.00728612
0.0112122
-0.00684393
0.0121448
-0.00684424
0.013524
-0.00553172
0.0147993
-0.00395346
0.0157703
-0.00272152
0.016523
-0.00178938
0.0171627
-0.00110076
0.0177326
-0.000564968
0.0182325
-0.000126796
0.018551
0.000186281
0.0183638
0.000336704
0.0172389
0.000306765
0.0149557
0.000210995
0.0117774
0.00465388
-2.93224e-05
-1.79093e-05
-0.00112657
0.0011179
-7.57525e-06
-3.607e-06
-1.36005e-06
9.6526e-06
-0.000247941
0.000266452
7.07616e-06
-0.000197974
2.37103e-05
-0.000173474
4.65415e-05
0.000111883
-6.57943e-05
0.00818814
-0.00743343
0.0104844
-0.00803708
0.011227
-0.00781094
0.0121793
-0.00833904
0.0136396
-0.00691652
0.0149088
-0.00498933
0.0158351
-0.00348463
0.0165334
-0.00238639
0.01712
-0.00158453
0.0176465
-0.000974891
0.0181426
-0.000476361
0.018582
-7.45229e-05
0.0188118
0.000206418
0.0184941
0.000314221
0.0172315
0.00028085
0.0148859
0.000180906
0.0117084
0.00462374
-1.57044e-05
-1.99616e-05
-0.00110599
0.00108703
-5.9567e-06
-4.40039e-06
-3.16834e-06
-2.83313e-06
-0.000271884
0.000266399
-2.09025e-06
-0.000273895
-1.59689e-06
-0.000274496
-7.59644e-07
1.60821e-06
-7.02518e-05
7.73279e-05
-4.65415e-05
6.22477e-06
4.75446e-05
0.00813433
-0.00790805
0.0104936
-0.00878861
0.0112359
-0.0088042
0.0122203
-0.00996496
0.0138052
-0.00835845
0.0150816
-0.00603645
0.015956
-0.00424785
0.0165984
-0.00297848
0.0171255
-0.00206326
0.0175987
-0.00138508
0.0180567
-0.000842963
0.0185092
-0.000393229
0.0189007
-3.23444e-05
0.0190506
0.000197084
0.0186112
0.00027502
0.0172373
0.000235521
0.0148313
9.49626e-05
0.0116197
0.00464545
3.22531e-05
-6.43927e-06
-0.00107134
0.00106316
-4.05622e-06
-3.46976e-06
-1.7933e-06
-2.48905e-06
-0.000258349
0.000254105
-1.71365e-06
-0.000261368
-1.38266e-06
-0.000263725
-8.12296e-07
-1.6017e-07
-7.65795e-05
7.44891e-05
-7.81764e-05
-7.89361e-05
-0.000101378
0.000214309
0.00802137
-0.00838893
0.0105009
-0.00953143
0.0112365
-0.00984015
0.0122718
-0.0117761
0.0140315
-0.00987687
0.0153236
-0.0070987
0.0161438
-0.00501155
0.0167197
-0.00356675
0.0171866
-0.00254103
0.0176033
-0.00179406
0.0180077
-0.0012111
0.0184248
-0.000732776
0.0188487
-0.000333266
0.0192016
-2.57195e-05
0.0192734
0.000162012
0.0187242
0.000224986
0.0172478
0.0001621
0.0147641
1.87695e-05
0.0114995
0.00461187
0.000154299
9.35832e-05
-0.0010588
0.00108774
4.54522e-06
-1.24102e-06
6.54665e-08
-2.14534e-06
-0.000247829
0.000245105
-1.33359e-06
-0.00025021
-1.08903e-06
-0.000251522
-4.8237e-07
9.35241e-08
-7.21339e-05
7.04201e-05
-7.35166e-05
-7.4329e-05
-0.000112128
0.000202531
0.00793095
-0.00886844
0.0105035
-0.0102534
0.0112228
-0.0109512
0.0123476
-0.0138415
0.0143373
-0.0114953
0.0156498
-0.00818271
0.0164077
-0.0057774
0.0169097
-0.00415173
0.0173047
-0.00301378
0.0176594
-0.00219678
0.018006
-0.00157843
0.018375
-0.00107999
0.018772
-0.000660669
0.0191761
-0.000311696
0.0194876
-4.74094e-05
0.0194828
0.000114785
0.0188344
0.000157065
0.0172528
9.69658e-05
0.0146859
-1.21638e-05
0.0113995
0.00459341
6.00954e-05
0.000160886
-0.00112672
0.00115071
6.99096e-05
6.03913e-05
3.91484e-05
1.54548e-05
-0.000242541
0.000246856
2.28471e-07
-0.0002431
-6.84149e-07
-0.000242791
-2.44906e-07
1.68078e-07
-6.89421e-05
6.76084e-05
-7.00312e-05
-7.05136e-05
-3.04544e-05
4.50225e-05
0.00791637
-0.009342
0.0105046
-0.0109487
0.0111988
-0.0121807
0.0124523
-0.0162288
0.0147349
-0.0132212
0.0160632
-0.0092851
0.0167522
-0.00654045
0.0171707
-0.00472939
0.0174873
-0.00348068
0.0177716
-0.00259695
0.0180595
-0.00194226
0.0183699
-0.00142385
0.0187189
-0.000993922
0.0191052
-0.000627276
0.0194917
-0.000322457
0.0197626
-8.64671e-05
0.019684
5.63994e-05
0.0189351
9.4889e-05
0.0172549
4.86642e-05
0.0146251
6.75675e-06
0.0113623
0.00462797
-1.51599e-05
2.56102e-05
-0.00119197
0.00122452
4.2356e-06
2.32944e-05
4.08513e-05
7.87762e-05
-0.000296605
0.000312709
5.3803e-05
-0.000277472
4.12574e-05
-0.00025624
1.7914e-05
6.06962e-06
-6.68472e-05
6.70754e-05
-6.75315e-05
-6.77765e-05
2.72226e-05
-2.95875e-05
0.00791873
-0.00980356
0.0105046
-0.0116116
0.0111675
-0.0135704
0.0125885
-0.018983
0.0152065
-0.0150115
0.0165252
-0.0103588
0.017137
-0.00727112
0.0174829
-0.00528608
0.0177274
-0.00393611
0.0179428
-0.00299289
0.0181675
-0.00230428
0.0184216
-0.00176792
0.0187139
-0.00132928
0.0190542
-0.000954637
0.0194326
-0.000629858
0.019799
-0.000351261
0.0200274
-0.000136413
0.0198768
-3.26668e-06
0.0190332
3.68258e-05
0.0172667
2.53648e-05
0.0146065
2.57479e-05
0.0113638
0.00462854
-2.18007e-05
-8.36365e-06
-0.00124493
0.00124044
-7.35208e-06
-3.31962e-06
-1.04169e-06
6.24308e-06
-0.000370588
0.000373075
1.74664e-06
-0.000356668
9.37362e-06
-0.000339768
2.39497e-05
5.17159e-05
-0.000132316
0.000150892
3.5225e-05
-9.10589e-05
-7.3145e-05
3.01254e-05
-3.86579e-05
0.00792723
-0.0102509
0.0105074
-0.0122329
0.0111259
-0.0151216
0.0127187
-0.0220569
0.0156624
-0.0167156
0.0169106
-0.0112808
0.0174471
-0.00788663
0.0177525
-0.00576989
0.0179667
-0.00435475
0.0181461
-0.00337397
0.0183239
-0.00266088
0.0185241
-0.00211051
0.0187641
-0.00166289
0.0190475
-0.00128247
0.019382
-0.000950172
0.0197529
-0.000653949
0.0201017
-0.000396884
0.0202879
-0.000193436
0.020067
-6.76521e-05
0.0191377
-1.35701e-05
0.0173057
7.16117e-06
0.014625
1.10378e-05
0.0113828
0.0046207
-1.73395e-05
-1.34916e-05
-0.00123522
0.00122441
-9.04875e-06
-1.93349e-06
-1.77264e-06
-1.37666e-06
-0.000375576
0.000371968
-3.74421e-06
-0.000376279
-2.61779e-06
-0.000376764
-5.57888e-07
2.55303e-06
-0.000210958
0.000213075
-3.71548e-07
-0.000203025
1.43924e-06
-0.000185005
5.92903e-06
1.76017e-05
3.52249e-05
-1.74778e-05
-4.1529e-06
0.00794882
-0.0106882
0.0105053
-0.0127973
0.0110718
-0.0167415
0.0127458
-0.0252466
0.0159084
-0.0180167
0.0169635
-0.0118023
0.0174321
-0.0082156
0.0177761
-0.00607346
0.0180561
-0.00466976
0.0182817
-0.00370181
0.0184739
-0.00299348
0.0186565
-0.00244361
0.0188572
-0.00199446
0.0190957
-0.00161239
0.0193774
-0.0012782
0.0197101
-0.000973528
0.0200724
-0.000694494
0.0203993
-0.000449373
0.0205438
-0.000256405
0.0202557
-0.000130202
0.0192543
-5.79762e-05
0.0173708
-2.9977e-05
0.0146661
-4.41627e-05
0.0114095
0.0046338
-4.3205e-06
-1.29523e-05
-0.00122074
0.00121278
-9.38379e-06
-9.83341e-06
-0.000366327
0.000337512
1.97672e-05
-0.000369206
9.46616e-07
-0.000370428
-5.51487e-07
1.62229e-07
-0.000212902
0.000210426
-1.26905e-06
-0.00021477
-7.50684e-07
-0.000215064
-2.65169e-07
5.63099e-07
-6.01947e-05
5.9823e-05
-5.87556e-05
-5.28266e-05
-0.00011079
8.42309e-05
0.00797537
-0.0110961
0.0104499
-0.01326
0.0109681
-0.0181755
0.0125058
-0.0281549
0.0156541
-0.0183646
0.0162563
-0.0115226
0.0166838
-0.00798694
0.0172035
-0.00601375
0.0177164
-0.00476452
0.0181509
-0.00390482
0.0184847
-0.00326197
0.0187424
-0.00274726
0.0189601
-0.00231401
0.0191767
-0.00193889
0.0194222
-0.00160517
0.0197044
-0.00129907
0.0200356
-0.00101372
0.0203917
-0.000748678
0.0206986
-0.000513359
0.0208008
-0.000324836
0.0204504
-0.000189581
0.0193859
-0.000110823
0.0174516
-8.79651e-05
0.0147098
-0.000127481
0.0114262
0.00468582
3.13934e-05
8.24134e-07
-0.00120374
0.00120469
-5.27768e-06
-3.92076e-06
-0.000559701
0.000551632
-7.02663e-07
-6.16536e-07
-0.000232381
2.11131e-07
1.45224e-07
-0.000210665
-1.94806e-06
-0.000209882
1.64488e-07
-0.00021029
-1.4404e-07
2.97092e-07
-5.937e-05
5.81008e-05
-6.01208e-05
-6.0386e-05
-0.000217886
0.000228793
0.00796447
-0.0113963
0.0102572
-0.0136106
0.0108005
-0.0190952
0.0118878
-0.030011
0.0143619
-0.0169228
0.0142123
-0.00995408
0.0146879
-0.00689157
0.0155884
-0.00538232
0.0165721
-0.00448867
0.0174405
-0.00387175
0.0181178
-0.00338679
0.0186095
-0.00296876
0.0189639
-0.00259224
0.0192383
-0.00224827
0.0194861
-0.00192712
0.0197441
-0.00162596
0.0200313
-0.00134026
0.0203621
-0.00106612
0.0207091
-0.000809358
0.0209946
-0.00058032
0.0210563
-0.000391677
0.0206524
-0.000252054
0.0195271
-0.000172768
0.0175364
-0.000162209
0.0147446
-0.000206674
0.011415
0.00471545
0.000133848
6.53207e-05
-0.00120417
0.00122751
8.05607e-06
1.33544e-06
-0.000547908
0.000543741
-5.55129e-07
-5.62097e-07
-1.43602e-07
-5.79274e-08
-5.62098e-05
5.55068e-05
-5.68265e-05
5.66813e-05
-5.64702e-05
-5.84182e-05
-5.82538e-05
-5.83979e-05
-0.000247182
0.000271196
0.00794047
-0.0115553
0.010019
-0.0136093
0.00520838
0.0050476
-0.00877844
0.00568645
0.00534469
-0.0105475
-0.0153973
0.00629229
-0.0142756
0.00525735
-0.00849699
0.0102864
-0.00435024
-0.00678535
0.0110436
-0.00479202
0.0125883
-0.00406721
0.0142733
-0.0037243
0.0158077
-0.00349151
0.0170603
-0.00327377
0.0180048
-0.00303695
0.0186777
-0.00277969
0.0191513
-0.00250871
0.0194987
-0.00222793
0.0197869
-0.00194669
0.0200648
-0.00166795
0.0203589
-0.00139417
0.0206902
-0.00112879
0.0210285
-0.000877994
0.0212923
-0.000650678
0.0213153
-0.000457057
0.0208574
-0.000315807
0.0196702
-0.000240715
0.0176149
-0.000226247
0.0147642
-0.000233667
0.0114015
0.0047145
0.000117658
0.000154493
-0.00125329
0.00128622
0.000100926
3.95401e-05
-0.000545103
0.000553838
-1.33721e-07
-5.44935e-07
-1.34402e-07
1.0534e-07
-5.47426e-05
5.41871e-05
-5.5305e-05
5.53629e-05
-0.000178637
0.00014969
0.00796944
-0.0115942
0.00985388
-0.013181
0.00492857
0.00466206
-0.00849193
0.00492187
-0.00821037
0.00476603
-0.0157807
0.00606988
-0.015641
0.00245551
0.00274946
-0.00989264
0.00426703
-0.00701081
0.00480611
-0.00782559
0.00219445
0.00258137
-0.00515592
-0.00301199
-0.00140981
0.00112591
0.00154242
-0.00143815
0.00593831
-0.000999131
-0.00123719
0.00258821
-0.000895129
-0.00208745
0.00833909
-0.00227362
0.0107947
-0.00253359
0.0130826
-0.00273775
0.0150539
-0.00285172
0.0166382
-0.00286995
0.0178377
-0.00280406
0.0187021
-0.00266425
0.0193068
-0.00246841
0.0197392
-0.00223721
0.0200774
-0.00198475
0.0203816
-0.00172378
0.0206885
-0.00145913
0.0210205
-0.0011988
0.0213493
-0.000948123
0.0215897
-0.000716865
0.0215751
-0.000522029
0.0210637
-0.000381477
0.0198109
-0.000298479
0.0176872
-0.000254317
0.0147848
-0.000200978
0.0114238
0.00477888
1.4946e-05
7.03667e-05
-0.00130792
0.00134351
8.20718e-05
0.000132788
-0.000588377
0.000640763
3.5287e-05
1.32556e-05
6.22657e-07
4.37894e-06
-5.36128e-05
5.34792e-05
-5.41579e-05
5.40526e-05
-9.14476e-05
4.54919e-05
0.00801543
-0.0116183
0.00988815
-0.0123147
0.00453459
0.00445298
-0.00797516
0.00469339
-0.0074365
0.00412338
-0.00961161
0.00233159
0.00215343
-0.00654852
0.00105321
0.00170858
-0.0075872
0.00733741
-0.00777653
0.00289464
0.00226128
-0.00258137
0.00176383
-0.00289464
0.000354019
0.000781553
-0.000229489
0.000573865
0.00108678
0.00158061
-0.000430547
-2.14669e-05
0.00384272
2.96104e-05
0.000930305
-0.000348811
-0.000392968
0.000584629
-0.000654817
0.00672031
-0.00125122
0.00951236
-0.00175632
0.0121012
-0.00215355
0.0143557
-0.00243831
0.0162066
-0.00260258
0.0176363
-0.00265062
0.0186884
-0.0025956
0.019434
-0.00245941
0.0199614
-0.00226573
0.0203584
-0.00203718
0.020695
-0.00178703
0.0210164
-0.00152715
0.0213488
-0.00126797
0.0216692
-0.00101605
0.0218889
-0.000782287
0.0218353
-0.000585258
0.0212674
-0.000434236
0.0199467
-0.000330132
0.017763
-0.000246323
0.0148302
-0.000141951
0.0114743
0.00482314
-1.02196e-05
1.14673e-05
-0.00137912
0.00138862
5.45418e-06
3.47569e-05
-0.000680126
0.000734948
5.53547e-06
2.17162e-05
5.02535e-05
4.31701e-05
-7.17365e-05
0.000107023
-5.84808e-05
5.41019e-05
-3.10517e-05
-4.7681e-06
0.00805129
-0.0116698
0.00999352
-0.0114373
0.00444323
0.00456756
-0.00686602
0.00396413
-0.00619165
0.00377859
-0.00921506
0.00231216
0.00198466
-0.00809167
0.00139198
0.00160803
0.0061761
-0.00589132
0.00204681
0.001781
0.00606795
-0.00501474
-0.00671856
0.000912371
0.00012453
0.000290816
-0.000109912
0.000430457
-5.19927e-06
1.96457e-05
0.000775981
0.000132863
1.60798e-05
0.00317184
0.000686173
0.000119417
0.000161012
-5.38737e-05
-2.54845e-05
-0.000363881
0.00583297
-0.000857037
0.00861307
-0.00135259
0.0113002
-0.00180838
0.0137258
-0.00217497
0.015779
-0.00242755
0.0174132
-0.00255244
0.0186453
-0.0025595
0.0195341
-0.00247031
0.020166
-0.00230735
0.0206285
-0.00209446
0.0210024
-0.00185496
0.0213442
-0.00159893
0.0216798
-0.0013377
0.0219908
-0.00108108
0.0221877
-0.000842877
0.022093
-0.000635994
0.0214692
-0.000470258
0.0200868
-0.000338894
0.0178556
-0.000216011
0.0149042
-9.07803e-05
0.0115341
0.00483572
-1.34017e-05
-3.92999e-06
-0.00139796
0.00139432
-6.58028e-06
2.13057e-06
-0.000764699
0.000772387
-2.21634e-06
-1.3943e-08
4.9535e-06
5.16974e-08
-0.000173231
0.000177837
9.29381e-07
-0.000156368
4.85373e-06
0.000128183
2.90925e-05
1.49856e-05
-3.59518e-07
-2.53584e-05
0.00807702
-0.011698
0.0100061
-0.0105669
0.00912313
-0.00553349
0.00378508
-0.00481868
0.00385274
-0.00673046
0.00131787
0.00128503
-0.00541357
0.00121595
0.00124575
-0.00579454
0.00221538
-0.00546576
0.00165589
0.00486443
-0.00422582
0.000753365
0.0010067
-0.00627014
0.00159839
-0.00410237
1.46184e-05
9.41927e-06
2.90654e-05
0.000225197
2.4268e-05
4.44134e-05
-0.000316868
2.82233e-05
0.000958979
3.19364e-05
-4.92878e-05
0.00285724
2.78456e-06
2.49612e-05
-9.46573e-06
-2.33888e-05
-2.1017e-05
-5.88219e-06
-0.000299591
0.00527552
-0.000683854
0.00794432
-0.00114307
0.0106349
-0.0016049
0.0131557
-0.00200961
0.015361
-0.0023106
0.0171713
-0.00248867
0.0185744
-0.00254406
0.0196078
-0.00249108
0.0203497
-0.00235512
0.0208892
-0.0021588
0.0213063
-0.00192318
0.0216685
-0.00166839
0.0220105
-0.00140326
0.022313
-0.00114038
0.0224852
-0.00089504
0.022352
-0.00067665
0.0216756
-0.000491957
0.0202399
-0.00032935
0.0179689
-0.000180976
0.0149944
-6.03737e-05
0.0115941
0.00483325
-1.34141e-05
-9.48505e-06
-0.0013932
0.00138759
-7.78048e-06
-2.80175e-06
-0.00077501
0.00077164
-2.05854e-06
-1.14776e-06
3.78938e-07
-8.71657e-07
-0.000182203
0.000180775
-7.87335e-07
-0.000182043
-1.72424e-07
0.000181983
8.06452e-07
-7.60636e-09
-4.89317e-05
4.98611e-05
-4.4078e-05
2.90925e-05
6.99912e-06
-3.01887e-05
0.00810016
-0.0117344
0.0100284
-0.00978479
0.00922399
0.0028591
-0.00490345
0.00304554
0.00330329
-0.00396163
0.00115954
0.00117359
0.00145723
0.00129298
-0.00360475
0.000696801
-0.00298635
0.00066663
0.00237227
-0.00175376
0.000597437
0.000631661
-0.00655874
0.00250398
-0.00490284
0.00389614
-0.00314278
-0.00250398
-1.01508e-05
1.10316e-05
2.40135e-05
1.02504e-05
7.25612e-05
-3.86374e-05
-1.1614e-05
2.60987e-06
3.30803e-06
1.52679e-05
0.000910676
-1.62561e-05
9.83055e-05
2.30207e-06
3.89494e-06
-6.96506e-05
0.00262729
-3.94425e-05
3.58903e-06
9.53159e-06
5.88219e-06
-2.6899e-05
-0.000270766
0.00486242
-0.000609373
0.00741061
-0.00103572
0.0100657
-0.00148878
0.0126349
-0.00190336
0.0149538
-0.00223318
0.0169158
-0.00244773
0.0184781
-0.00253899
0.0196557
-0.00251811
0.0205127
-0.002402
0.0211324
-0.00221826
0.0216013
-0.00198952
0.0219896
-0.00173073
0.0223379
-0.00146175
0.0226344
-0.0011939
0.022784
-0.000936954
0.0226123
-0.000704274
0.0218879
-0.000496219
0.0204068
-0.000311442
0.0180994
-0.000156182
0.0150903
-5.14671e-05
0.0116526
0.00482784
-1.21661e-05
-1.26377e-05
-0.00138229
0.001377
-8.13137e-06
-4.1895e-06
-0.00076938
0.000764503
-1.73202e-06
-1.16565e-06
3.6619e-08
-5.75907e-07
-0.00017941
0.000178095
-7.42436e-07
-0.000180295
-2.61677e-07
0.000180981
1.72526e-07
-1.854e-07
-5.04876e-05
4.97004e-05
-5.066e-05
5.06676e-05
-7.96348e-06
-2.02605e-05
0.00812841
-0.0117952
0.0100618
-0.00919061
0.00943423
-0.00346939
0.0077899
0.00344947
-0.00050904
-0.00155882
0.000897563
0.00076634
0.00417478
0.00257798
-0.0011554
0.000561166
-0.000539024
0.000557214
2.87636e-06
0.000945309
0.000756832
-0.00244598
-0.00177934
0.00114768
-0.000550248
-1.58674e-05
-5.61702e-06
-5.42687e-06
-2.59847e-06
-1.50123e-06
4.11117e-06
1.80703e-06
0.000108075
5.11961e-06
3.76971e-07
4.15757e-06
0.000859661
-2.2799e-05
0.000105324
-5.1201e-06
-8.38573e-06
4.10926e-06
8.48424e-06
-4.79267e-07
-8.02271e-05
0.00243674
-1.51269e-06
-0.000273392
0.00452642
-0.000585632
0.00696051
-0.00098581
0.0095627
-0.00141856
0.0121501
-0.00183357
0.0145541
-0.00217898
0.0166471
-0.00241984
0.0183589
-0.00254164
0.0196793
-0.0025448
0.0206555
-0.002449
0.0213631
-0.00227591
0.0218877
-0.00204783
0.0223067
-0.00178923
0.0226654
-0.00151306
0.0229536
-0.00123441
0.0230815
-0.000968354
0.0228764
-0.000717669
0.0221094
-0.000491485
0.0205868
-0.00029642
0.0182396
-0.000148712
0.0151875
-6.50494e-05
0.0117097
0.00483022
-8.52703e-06
-1.41062e-05
-0.00136943
0.00136543
-8.17863e-06
-5.08275e-06
-0.000760942
0.000755676
-1.63462e-06
-1.23472e-06
-1.17174e-07
-5.12256e-07
-0.000176558
0.000175484
-6.56393e-07
-0.000177503
-2.18141e-07
0.000177954
1.78128e-07
-1.23559e-07
-4.94259e-05
4.86837e-05
-4.96875e-05
4.98729e-05
-4.66558e-05
1.22726e-05
0.00816281
-0.0118861
0.0100989
-0.00877474
0.00964594
-0.00290719
0.00887206
-0.00338739
0.00823469
0.00318718
0.00393017
-0.00132495
0.000711424
-0.00147776
0.00237532
-0.000711424
0.000910912
0.000654999
1.09109e-05
0.000568117
1.51269e-06
1.22707e-05
1.33263e-06
1.31187e-05
-4.71909e-07
0.000104106
5.29208e-06
8.21781e-08
-2.3742e-06
0.00080783
-2.60333e-05
0.000104819
-2.35144e-05
1.08361e-05
-2.83704e-06
8.34393e-06
-5.89445e-06
-4.79283e-07
-0.000108476
0.00227181
-0.000294804
0.00423558
-0.000587816
0.0065625
-0.000959106
0.00910322
-0.00137652
0.011693
-0.00178668
0.0141618
-0.00214003
0.0163673
-0.00239903
0.0182163
-0.00254331
0.0196778
-0.00256972
0.0207762
-0.00248945
0.0215767
-0.00232562
0.0221655
-0.00210136
0.0226189
-0.00183872
0.0229911
-0.00155668
0.0232758
-0.00126881
0.023382
-0.000987091
0.0231458
-0.000722864
0.0223408
-0.000483967
0.0207744
-0.000289001
0.0183799
-0.000156353
0.0152788
-9.70555e-05
0.0117601
0.00485211
2.43875e-06
-1.20478e-05
-0.00135676
0.00135568
-7.43581e-06
-5.44058e-06
-0.000751397
0.000746109
-1.57867e-06
-1.3242e-06
-2.78299e-07
-5.35759e-07
-0.000173811
0.000172805
-6.30897e-07
-0.000174823
-2.2262e-07
0.000175212
1.54225e-07
-1.22956e-07
-4.85204e-05
4.78642e-05
-4.87384e-05
4.88619e-05
-0.000111605
8.37879e-05
0.00819069
-0.0120047
0.0101316
-0.00851075
0.00983492
-0.00276385
0.00950258
0.0073454
0.00976133
0.00185933
-0.000540458
0.00227037
-0.000402064
0.00222615
0.00356335
-0.000388994
0.000759447
0.000266005
8.53297e-07
3.81424e-07
9.01007e-06
4.62256e-06
8.55621e-06
5.35329e-07
0.000100524
1.91649e-06
-1.50042e-05
0.00075047
-3.61224e-05
9.57511e-05
-2.12652e-05
3.98116e-07
-1.04345e-05
-3.14725e-06
-1.77612e-06
-2.45568e-06
-8.35053e-06
-0.000144102
0.00212109
-0.000324879
0.00397262
-0.000595235
0.00619861
-0.000949765
0.00867645
-0.00134908
0.0112554
-0.00175049
0.0137723
-0.00210757
0.0160758
-0.00238044
0.0180534
-0.00254232
0.0196504
-0.00258662
0.0208733
-0.00252329
0.0217744
-0.00236697
0.0224311
-0.00214497
0.0229251
-0.00187837
0.0233128
-0.0015882
0.0235952
-0.00129103
0.0236859
-0.000997449
0.0234204
-0.000720289
0.0225771
-0.000477848
0.0209632
-0.000290154
0.0185137
-0.000175525
0.0153573
-0.000141904
0.0117904
0.0048951
3.7855e-05
2.97429e-06
-0.00134809
0.00135431
-3.76891e-06
-4.46151e-06
-0.000741663
0.00073714
-1.48869e-06
-1.42039e-06
-4.4455e-07
-5.49162e-07
-0.000170915
0.000169953
-6.20048e-07
-0.000172007
-2.37007e-07
0.000172405
1.17594e-07
-1.41912e-07
-4.76729e-05
4.70415e-05
-4.78955e-05
4.80185e-05
-0.000176408
0.000188635
0.00817847
-0.012151
0.0101623
-0.0083676
0.00998844
-0.0028168
0.00988788
0.00596615
0.0108818
-0.00161779
0.0047943
0.00881096
0.00103768
0.0016584
-0.000180099
-0.000245622
-0.000141206
0.000498588
0.00298323
0.000124799
-2.11951e-06
-1.61051e-06
-1.1866e-06
-5.81053e-06
-2.0977e-06
-6.12709e-07
8.88563e-05
-8.11311e-06
-2.54669e-05
0.000695007
-6.31856e-05
8.00306e-05
-2.73002e-05
-1.50142e-05
-6.61514e-06
-5.44917e-06
4.57329e-06
-7.72067e-06
2.79714e-06
-0.00018039
0.00197658
-0.000345492
0.00372285
-0.000609339
0.00585818
-0.00094595
0.00827331
-0.00132996
0.0108349
-0.0017223
0.013387
-0.00207866
0.015774
-0.00236062
0.0178717
-0.00253778
0.0196016
-0.0025981
0.0209481
-0.00254579
0.0219532
-0.00239752
0.0226837
-0.00217742
0.0232242
-0.00190917
0.0236337
-0.00161139
0.0239156
-0.00130221
0.0239907
-0.000997316
0.0236975
-0.00071314
0.0228124
-0.000471343
0.0211444
-0.000294254
0.0186325
-0.00019608
0.0154115
-0.000170828
0.0117848
0.00490501
0.000116932
6.18061e-05
-0.00135443
0.0013779
1.44031e-05
2.8684e-06
-0.000733765
0.000732677
-1.15713e-06
-1.51784e-06
-6.22743e-07
-4.64681e-07
-0.000167872
0.000166993
-6.08797e-07
-0.000169038
-2.52743e-07
0.000169425
8.27203e-08
-1.6126e-07
-4.6779e-05
4.61583e-05
-4.70166e-05
4.71585e-05
-0.00017171
0.000207959
0.00814227
-0.0123183
0.0101852
-0.00831458
0.0101093
-0.00297248
0.0101441
0.004562
0.011292
0.00476214
0.010914
-0.000940722
0.00283576
0.00751569
-0.000599773
0.000462805
-5.38889e-05
0.0012657
-1.62217e-05
-0.000377764
0.000197664
-0.000124799
0.00250532
-1.61054e-06
-9.81853e-06
-7.59357e-06
-2.83848e-06
-1.93876e-05
-7.08455e-07
-3.03352e-06
6.81283e-05
-1.35692e-05
-0.000118766
0.000633358
4.04991e-05
-3.55614e-05
-2.83098e-05
-9.61447e-06
-8.76638e-06
1.05732e-05
-1.48089e-05
-2.38057e-06
-2.47029e-06
-0.00019589
0.00182696
-0.0003711
0.00348461
-0.000621482
0.00553372
-0.000944759
0.0078881
-0.00131397
0.0104266
-0.00169486
0.0130032
-0.00205006
0.0154635
-0.00233543
0.0176694
-0.00252433
0.0195278
-0.00259854
0.0210009
-0.00255831
0.022114
-0.00241906
0.0229253
-0.00220092
0.023516
-0.00192822
0.0239506
-0.00162315
0.0242365
-0.00130381
0.0242972
-0.000989857
0.0239742
-0.000702009
0.0230431
-0.000463812
0.021314
-0.000293874
0.0187303
-0.000197352
0.015438
-0.000147867
0.011761
0.0048824
0.000100284
0.000130308
-0.0013943
0.00141699
9.42411e-05
4.54086e-05
-0.000735997
0.000750111
1.40443e-06
-1.10227e-06
-6.99637e-07
2.5712e-07
-0.000164786
0.000164207
-5.74551e-07
-0.000166036
-2.67351e-07
0.000166327
4.35357e-08
-1.74441e-07
-4.58272e-05
4.52186e-05
-4.60799e-05
4.62411e-05
-7.91802e-05
9.05919e-05
0.00813085
-0.0125025
0.0102022
-0.00832258
0.0101932
-0.00318058
0.0103174
0.00329863
0.0114075
0.0042135
0.0118407
0.00340252
0.0103472
0.00161459
0.0064175
-0.000227625
-0.000288767
-0.000242268
0.00214781
0.000143775
0.00104369
-8.6052e-06
-1.16563e-05
0.000127553
-2.83851e-06
-1.57693e-05
2.51189e-07
-1.66313e-05
-2.17219e-06
-3.13296e-05
-4.36222e-06
-6.18925e-06
3.64454e-05
-1.29546e-05
-7.59709e-05
-2.58069e-05
-0.000112437
0.00054988
-3.04488e-05
1.92833e-05
-2.23832e-05
-6.51602e-06
-6.1151e-06
5.3088e-06
-7.68946e-06
-0.000221257
0.00167711
-0.000388321
0.00325144
-0.000633731
0.00522269
-0.000942058
0.00751617
-0.0012966
0.0100283
-0.00166804
0.0126212
-0.00201686
0.0151449
-0.00230657
0.0174516
-0.00250452
0.0194338
-0.00259071
0.0210333
-0.00256209
0.022257
-0.00242878
0.0231532
-0.00221154
0.0237993
-0.00193531
0.0242627
-0.00162251
0.0245552
-0.00129528
0.0246026
-0.000975698
0.0242479
-0.000685121
0.0232644
-0.000446277
0.0214664
-0.000273853
0.0188068
-0.000159575
0.0154497
-6.61932e-05
0.011748
0.00490084
9.59735e-06
6.25639e-05
-0.00142862
0.00144792
8.10003e-05
0.000118695
-0.000779699
0.000810412
4.12783e-05
2.22548e-05
3.38731e-06
1.24348e-05
-0.000162948
0.000164568
-2.10108e-07
-0.000163854
-1.91868e-07
0.000163485
2.62482e-08
-1.08914e-07
-4.48203e-05
4.42463e-05
-4.50877e-05
4.52621e-05
4.04536e-05
-2.9197e-05
0.00811963
-0.0126955
0.010211
-0.00836312
0.0102428
-0.00340833
0.0104209
0.00221818
0.0113979
0.00348623
0.0121347
0.00335807
0.0118851
0.00242517
0.0095366
0.00115518
0.00584047