/*--------------------------------*- C++ -*----------------------------------*\
| =========                 |                                                 |
| \\      /  F ield         | OpenFOAM: The Open Source CFD Toolbox           |
|  \\    /   O peration     | Version:  v1912                                 |
|   \\  /    A nd           | Website:  www.openfoam.com                      |
|    \\/     M anipulation  |                                                 |
\*---------------------------------------------------------------------------*/
FoamFile
{
    version     2.0;
    format      ascii;
    class       volScalarField;
    location    "470";
    object      p;
}
// * * * * * * * * * * * * * * * * * * * * * * * * * * * * * * * * * * * * * //

dimensions      [0 2 -2 0 0 0 0];


internalField   nonuniform List<scalar> 
3673
(
0.15541
0.138568
0.085516
0.139986
0.0943345
0.0587562
0.156298
0.117027
0.0736749
0.0725165
0.174961
0.13998
0.0951531
0.0792336
0.08595
0.192901
0.160217
0.119067
0.0913226
0.0884457
0.0924658
0.210232
0.179457
0.143061
0.109913
0.0950818
0.0936726
0.0943485
0.226848
0.198321
0.166271
0.132684
0.10796
0.0976461
0.0952136
0.092979
0.242458
0.216641
0.188493
0.156695
0.126536
0.106332
0.0976959
0.0938817
0.0893307
0.256759
0.234177
0.209868
0.180659
0.148366
0.120406
0.103335
0.0955656
0.090377
0.084326
0.269425
0.250668
0.230535
0.204417
0.17175
0.138636
0.113171
0.0990482
0.0916895
0.0855134
0.0786544
0.280107
0.265776
0.250444
0.228098
0.196136
0.159552
0.12692
0.105234
0.0938128
0.0866966
0.0799488
0.0727367
0.288449
0.279101
0.269345
0.251758
0.221551
0.18246
0.143625
0.114285
0.0973359
0.0881095
0.0811113
0.0740944
0.0668444
0.294121
0.290195
0.286822
0.275275
0.248187
0.207375
0.162651
0.12567
0.102474
0.0900993
0.0822169
0.0752544
0.0682263
0.0611717
0.296851
0.298588
0.302308
0.298307
0.276191
0.234692
0.183976
0.138819
0.108916
0.0928295
0.0834719
0.0762066
0.0693807
0.0625479
0.0558179
0.296472
0.303828
0.315079
0.320239
0.30554
0.264986
0.20808
0.153471
0.116108
0.0961446
0.0850033
0.0770766
0.0702436
0.0636874
0.0571681
0.0508418
0.292967
0.305539
0.324293
0.340107
0.335924
0.298905
0.235828
0.169677
0.123477
0.0996472
0.086774
0.0779444
0.0708853
0.0645081
0.0582946
0.0521494
0.046246
0.286499
0.303513
0.329071
0.356515
0.366549
0.337081
0.268499
0.187712
0.130416
0.102831
0.0885785
0.0788183
0.0713463
0.0650538
0.0591041
0.0532469
0.0475008
0.0420377
0.277418
0.297777
0.328679
0.367595
0.395786
0.380029
0.307876
0.20809
0.136122
0.105093
0.0901181
0.0796008
0.0716441
0.0653316
0.0596293
0.054047
0.0485655
0.0432355
0.0381982
0.266242
0.288649
0.322782
0.371248
0.420427
0.428082
0.356222
0.231525
0.139443
0.105679
0.0910355
0.0801105
0.0717317
0.0653596
0.0598655
0.0545796
0.0493547
0.0442604
0.0393343
0.0347041
0.253593
0.276725
0.311611
0.365868
0.43507
0.479895
0.416946
0.258503
0.138454
0.103707
0.0908838
0.0801136
0.0715001
0.0651275
0.059824
0.0548265
0.0498964
0.0450304
0.0403131
0.0357785
0.0315366
0.240132
0.262812
0.296032
0.351119
0.434322
0.524916
0.497996
0.289947
0.129309
0.0981385
0.0891668
0.0793145
0.0708034
0.0645803
0.0595076
0.0547932
0.0501697
0.0455779
0.0410613
0.0367137
0.0325518
0.0286659
0.226484
0.247796
0.277441
0.328253
0.415834
0.540011
0.604401
0.33222
0.109171
0.086979
0.0855197
0.0773594
0.0694808
0.0636387
0.0588926
0.0544887
0.0501792
0.0458817
0.0416111
0.0374382
0.0334411
0.0296217
0.0260719
0.213182
0.232503
0.257457
0.30011
0.380278
0.519943
0.627567
0.656491
0.48691
0.718543
0.571773
0.119095
0.271347
0.0912893
0.0705583
0.0707694
0.0793008
0.0740733
0.0673787
0.0622313
0.0579333
0.0539039
0.0499369
0.0459394
0.0419384
0.0379834
0.0341377
0.0304673
0.0269729
0.0237218
0.200646
0.217601
0.23752
0.27028
0.333519
0.460149
0.654266
0.620125
0.756904
0.670698
0.722228
0.594086
0.386967
0.365368
0.100249
0.103139
0.277278
0.059701
0.0528372
0.069944
0.069644
0.0585509
0.0697881
0.0645105
0.0603394
0.0565915
0.0530133
0.0494477
0.0457627
0.0420349
0.0383253
0.0346764
0.03114
0.0277737
0.0245701
0.0216018
0.189186
0.203585
0.218638
0.24159
0.284791
0.376162
0.577422
0.511322
0.768175
0.680302
0.703045
0.78928
0.761014
0.625281
0.529531
0.0654589
0.103846
0.0404515
0.0622588
0.0508375
0.0614983
0.064935
0.0581972
0.055883
0.0614815
0.0580739
0.0548803
0.0518018
0.0487175
0.0453635
0.0419069
0.0384554
0.0350327
0.0316711
0.0284174
0.0253319
0.0224002
0.01968
0.179019
0.190796
0.201389
0.215659
0.240764
0.295149
0.437995
0.341637
0.646043
0.563489
0.817596
0.825412
0.781852
0.732987
0.735483
0.0415566
0.0504522
0.0330431
0.0505915
0.0564825
0.059872
0.0591732
0.0577636
0.0554335
0.0503501
0.0513025
0.0559254
0.0529177
0.050302
0.0477747
0.0447597
0.0415658
0.0383742
0.0351935
0.0320375
0.0289379
0.0259529
0.0231219
0.0204325
0.0179439
0.170286
0.179457
0.18606
0.19313
0.204293
0.223451
0.240955
0.469789
0.364774
0.720481
0.644739
0.453343
0.549536
0.812623
0.781524
0.0439021
0.0456837
0.0526262
0.0526644
0.0568489
0.0574789
0.0545288
0.0552373
0.0560243
0.0531777
0.0532337
0.0473305
0.0479876
0.0511021
0.0485811
0.0467141
0.0439912
0.0410284
0.0380885
0.035157
0.0322238
0.0293123
0.026464
0.0237181
0.0211189
0.0186534
0.0163657
0.163071
0.169702
0.172769
0.174012
0.174981
0.171591
0.138009
0.0344506
-0.03433
0.445309
0.296391
0.212802
0.25255
0.0504212
0.0507933
0.0547266
0.0548814
0.0558514
0.0542
0.0499908
0.0517876
0.0542381
0.0547169
0.0549731
0.0517752
0.0518018
0.0466881
0.0457106
0.0431477
0.040333
0.0376169
0.0349289
0.0322266
0.0295221
0.0268442
0.0242202
0.0216926
0.0193037
0.0170351
0.014935
0.157416
0.161604
0.161547
0.15809
0.151508
0.136115
0.0837743
-0.197731
0.0714023
-0.226005
-0.284691
-0.398977
0.42155
0.134462
0.0310634
0.0535991
0.0539586
0.0549418
0.0544984
0.0531396
0.050422
0.0448364
0.0477881
0.0511625
0.0531779
0.0539039
0.054023
0.054248
0.0448919
0.0423684
0.0395577
0.0370039
0.0345294
0.0320496
0.0295591
0.027074
0.0246073
0.0221851
0.0198535
0.0176542
0.0155674
0.013632
0.153332
0.155193
0.152368
0.145111
0.132935
0.110286
0.0533852
-0.152287
-0.812342
-0.681557
0.0052483
-0.470914
-0.652965
-0.577753
0.0543306
0.0540051
0.0527729
0.0519363
0.0497243
0.0456347
0.0442026
0.0422098
0.0478111
0.0501331
0.0511399
0.0527741
0.0534632
0.0417529
0.0388102
0.0363281
0.0340044
0.0317129
0.0294243
0.0271419
0.0248603
0.0225801
0.0203369
0.0181826
0.0161536
0.0142302
0.0124495
0.150809
0.150468
0.145175
0.134818
0.118535
0.0912147
0.0330867
-0.117699
-0.630136
-1.02027
-0.810418
-0.7346
-0.825692
0.0523428
0.0516189
0.0495688
0.0485004
0.0457844
0.0443453
0.0411355
0.0429486
0.0399164
0.0467736
0.0479272
0.0498525
0.050789
0.0381933
0.0356829
0.0334263
0.0312646
0.0291373
0.0270452
0.0249644
0.0228596
0.020738
0.0186515
0.0166557
0.0147887
0.013016
0.0113711
0.149823
0.147409
0.139899
0.126967
0.107635
0.0774169
0.0202679
-0.0974729
-0.462145
-0.750846
-0.905447
-0.913427
-0.813436
0.0491765
0.0482392
0.0464726
0.0466016
0.0445302
0.0410306
0.037697
0.0394934
0.0426444
0.044261
0.0365992
0.0465132
0.0474585
0.0351355
0.032872
0.0307774
0.0287462
0.0267958
0.0249106
0.0230072
0.0210397
0.0190485
0.017107
0.0152697
0.0135463
0.0119096
0.010386
0.150338
0.145985
0.136471
0.121352
0.0996787
0.0676579
0.0128537
-0.085181
-0.339052
-0.623784
-0.630134
-0.787512
-0.865805
-0.895503
-0.857249
0.0454656
0.0472287
0.0446038
0.0439101
0.0405702
0.0379257
0.0346844
0.0364742
0.039082
0.0417083
0.0424955
0.0331175
0.0324036
0.0303179
0.0283313
0.0264356
0.0247047
0.0230136
0.0212319
0.0193604
0.0174951
0.0157022
0.0140052
0.0124143
0.0108964
0.00949341
0.152309
0.146157
0.134825
0.117806
0.0942455
0.0610314
0.00885253
-0.0760718
-0.259063
-0.496422
-0.584327
-0.543969
-0.633364
-0.686689
-0.772762
-0.810445
-0.869888
0.0406622
0.0399289
0.0376156
0.0350619
0.0319782
0.033684
0.0361765
0.0385445
0.039193
0.0299161
0.0279679
0.0260378
0.0243706
0.0228817
0.0213111
0.0195787
0.0178051
0.0160751
0.0144203
0.0128503
0.0113794
0.00998022
0.00867366
0.155682
0.147881
0.134904
0.116197
0.0910263
0.0569241
0.00709242
-0.0682955
-0.206731
-0.396171
-0.514882
-0.528722
-0.500415
-0.538302
-0.571965
-0.61645
-0.647293
-0.674192
-0.706988
-0.773341
-0.813567
0.0377752
0.0370405
0.0348133
0.0324176
0.0296075
0.0298172
0.0335228
0.0356655
0.0363148
0.0276785
0.0256949
0.0239507
0.0226267
0.0212877
0.0197004
0.0180245
0.0163753
0.0147797
0.0132469
0.0117997
0.0104403
0.00913672
0.00792809
0.160389
0.151107
0.13666
0.116431
0.0898022
0.054911
0.00693461
-0.0612319
-0.171184
-0.322037
-0.441232
-0.491636
-0.491989
-0.460872
-0.488687
-0.510438
-0.529578
-0.546547
-0.560129
-0.582116
-0.614311
-0.64441
-0.67212
-0.701393
0.034945
0.0342562
0.0327289
0.0298309
0.0274123
0.0286923
0.0264584
0.0287009
0.0330001
0.0335802
0.0254804
0.0235039
0.0222679
0.0211901
0.0197365
0.0181494
0.0165898
0.0150699
0.0135933
0.0121802
0.0108405
0.00957791
0.00837038
0.00724302
0.166351
0.155777
0.140051
0.118446
0.0904327
0.0547015
0.00800206
-0.0546881
-0.145967
-0.268058
-0.377664
-0.442436
-0.469374
-0.456718
-0.427339
-0.450162
-0.468208
-0.48686
-0.499489
-0.514217
-0.528658
-0.546678
-0.558233
-0.58048
0.0325486
0.0319351
0.0356589
0.0295277
0.0292448
0.0276931
0.0253481
0.0264939
0.0287352
0.0282701
0.029624
0.0231836
0.0217739
0.0210631
0.019715
0.0181849
0.0167116
0.0152801
0.0138751
0.0125099
0.0112038
0.00996275
0.00879254
0.00766646
0.00661969
0.173468
0.161823
0.145043
0.122214
0.092841
0.0561215
0.0100778
-0.0486006
-0.12729
-0.228565
-0.326567
-0.394875
-0.435491
-0.44436
-0.425435
-0.400499
-0.419522
-0.433311
-0.449264
-0.466613
-0.480918
-0.504023
-0.492035
-0.512932
-0.526817
-0.54334
-0.552062
0.032377
0.0293142
0.0290418
0.0278064
0.0272027
0.025644
0.0231879
0.0244337
0.0266614
0.0261177
0.0286094
0.0281841
0.0293663
0.0210169
0.0209538
0.0196685
0.0181474
0.0167438
0.0154032
0.0140792
0.0127769
0.0115202
0.0103132
0.0091635
0.00807369
0.0070252
0.00604357
0.181613
0.169161
0.151602
0.127731
0.097011
0.059086
0.0130592
-0.0429101
-0.112989
-0.199215
-0.286253
-0.353544
-0.399288
-0.422409
-0.418509
-0.39948
-0.375942
-0.393029
-0.40591
-0.418922
-0.431905
-0.445152
-0.45265
-0.469755
-0.460742
-0.502422
-0.511346
0.0291417
0.028926
0.0276713
0.0270959
0.0257218
0.0251119
0.0236826
0.0200852
0.0225058
0.024618
0.0240281
0.026581
0.0260677
0.0285078
0.0281128
0.0208425
0.0196274
0.0180546
0.0167
0.0154417
0.0142
0.0129707
0.0117747
0.0106169
0.00950144
0.00843058
0.00741518
0.00643179
0.0055174
0.190628
0.177684
0.159689
0.135019
0.102981
0.0635948
0.0169236
-0.0375341
-0.101797
-0.177135
-0.254566
-0.318885
-0.365871
-0.395742
-0.404514
-0.395002
-0.375811
-0.355213
-0.369242
-0.380768
-0.392089
-0.404664
-0.414426
-0.421704
-0.434042
-0.428675
0.0275902
0.0270439
0.0255755
0.0250063
0.0237138
0.023088
0.0210271
0.0206327
0.0191128
0.0228375
0.0222103
0.0245339
0.0239933
0.0264988
0.026012
0.0195893
0.0179212
0.0165968
0.015408
0.0142409
0.0130846
0.0119554
0.0108585
0.00979324
0.00875801
0.00776066
0.00680948
0.00589101
0.00502896
0.200311
0.18725
0.169253
0.14412
0.110846
0.0697251
0.0217122
-0.0323792
-0.0929352
-0.160461
-0.229773
-0.290262
-0.336808
-0.369295
-0.3856
-0.385693
-0.373256
-0.355317
-0.336519
-0.349434
-0.359176
-0.368302
-0.379839
-0.388195
-0.394434
-0.406832
-0.40038
-0.413599
-0.420635
-0.430586
-0.427615
0.0254909
0.0249583
0.0235327
0.0229856
0.0218648
0.0206437
0.0204497
0.0194235
0.0201848
0.0178413
0.0202503
0.022689
0.0223255
0.0244568
0.0239444
0.0177616
0.0164478
0.0153201
0.0142134
0.0131231
0.0120569
0.0110258
0.0100251
0.00904538
0.00808147
0.00714606
0.00625264
0.00538772
0.00458026
0.210413
0.197677
0.180214
0.155083
0.120751
0.0776426
0.0275359
-0.027346
-0.0859254
-0.147961
-0.210589
-0.266901
-0.312119
-0.345374
-0.365494
-0.372286
-0.367229
-0.353745
-0.33717
-0.319802
-0.328402
-0.339803
-0.348859
-0.358412
-0.364598
-0.370655
-0.381821
-0.37606
-0.387575
-0.393589
-0.405848
-0.399757
0.0234389
0.0229229
0.0219659
0.0229365
0.0205993
0.0204224
0.0192869
0.0175785
0.0186213
0.0199574
0.0197196
0.0153714
0.022432
0.0225218
0.0222135
0.0162689
0.0151879
0.0141339
0.0130991
0.012085
0.0111131
0.0101828
0.00927471
0.00836401
0.00745812
0.00657442
0.00573709
0.00492552
0.00416494
0.220629
0.208724
0.192456
0.16796
0.132898
0.0875996
0.0345834
-0.0223276
-0.0804988
-0.138854
-0.196059
-0.248161
-0.291417
-0.324509
-0.346493
-0.357221
-0.357846
-0.349763
-0.336119
-0.320337
-0.318109
-0.304652
-0.332862
-0.339108
-0.345711
-0.350549
-0.360141
-0.355188
-0.363875
-0.370816
-0.380896
-0.375574
0.0215001
0.0227527
0.0209344
0.0202936
0.0192671
0.0189399
0.0177153
0.0160726
0.0170161
0.0185833
0.0183086
0.0198488
0.0195699
0.0124042
0.0150156
0.0140123
0.013027
0.0120563
0.0111266
0.0102567
0.00942892
0.00859474
0.00773726
0.00687705
0.00604867
0.00526193
0.00449809
0.00378188
0.2306
0.220085
0.205795
0.182783
0.147539
0.0999592
0.0431441
-0.0171902
-0.0765448
-0.132702
-0.185509
-0.23353
-0.274355
-0.306623
-0.329412
-0.34242
-0.346667
-0.343212
-0.333456
-0.319828
-0.30523
-0.303408
-0.313419
-0.321738
-0.291552
-0.330961
-0.340353
-0.334713
-0.345137
-0.349901
-0.360305
-0.354688
-0.361625
0.0192121
0.0188728
0.0178435
0.0174295
0.0162369
0.0148046
0.015583
0.0170572
0.0167568
0.0185484
0.0182783
0.0138483
0.0129137
0.0119887
0.0110838
0.0102479
0.0094963
0.00875698
0.00797275
0.00715251
0.00633915
0.00555981
0.00482135
0.00410346
0.00342852
0.239914
0.231373
0.219952
0.199519
0.164964
0.11522
0.0536354
-0.011756
-0.0740976
-0.129356
-0.178526
-0.222607
-0.260665
-0.291563
-0.314414
-0.328747
-0.335246
-0.334993
-0.328888
-0.318176
-0.305072
-0.291916
-0.290701
-0.299488
-0.305655
-0.311685
-0.314996
-0.3187
-0.322675
-0.278636
-0.327345
-0.331909
-0.337284
-0.340119
-0.344559
-0.349176
-0.359123
-0.353973
0.0178129
0.0173797
0.0163444
0.0159551
0.0149221
0.0136393
0.014317
0.0156135
0.0153408
0.017014
0.0167237
0.0127583
0.0118908
0.0110081
0.0101756
0.00947351
0.00883679
0.00815213
0.00738926
0.00660076
0.00583528
0.00510617
0.0044171
0.00373959
0.0031047
0.248127
0.242118
0.234518
0.21803
0.18548
0.13404
0.0666748
-0.00577838
-0.0733447
-0.128931
-0.174929
-0.215115
-0.250134
-0.279204
-0.301501
-0.316471
-0.32442
-0.326267
-0.322885
-0.315062
-0.304054
-0.291801
-0.279151
-0.27776
-0.286367
-0.292984
-0.297357
-0.300818
-0.304218
-0.306268
-0.266466
-0.336202
-0.339463
0.0162921
0.0158947
0.0149963
0.0146457
0.0137319
0.0125559
0.0131652
0.0143463
0.0140794
0.0155603
0.0152973
0.0117508
0.010919
0.0100681
0.00936761
0.00882413
0.00826407
0.00757962
0.0068269
0.00608151
0.00536816
0.00469152
0.00404234
0.00340489
0.00280752
0.254792
0.251768
0.248915
0.238005
0.209343
0.157267
0.0831571
0.00110922
-0.0747185
-0.131835
-0.174767
-0.210901
-0.2426
-0.26944
-0.290654
-0.305671
-0.314503
-0.317774
-0.316276
-0.31074
-0.301945
-0.291099
-0.279261
-0.267134
-0.26551
-0.273741
-0.279946
-0.284195
-0.287557
-0.290677
-0.293857
-0.297029
-0.300439
-0.303487
-0.304156
-0.255846
0.0149351
0.0145849
0.013793
0.0134574
0.0126381
0.0115546
0.012095
0.0131887
0.0129442
0.0142912
0.0140369
0.0108061
0.0099604
0.00920131
0.00871291
0.00830338
0.00772024
0.00701076
0.00628881
0.00559712
0.00493889
0.0043056
0.00369738
0.00309854
0.00253646
0.259505
0.25973
0.262354
0.258852
0.236669
0.185894
0.104434
0.00948362
-0.0790153
-0.13885
-0.178302
-0.209944
-0.237962
-0.262187
-0.281851
-0.296384
-0.305606
-0.309835
-0.309673
-0.305795
-0.298864
-0.289632
-0.278902
-0.267447
-0.256332
-0.255137
-0.262092
-0.267428
-0.271775
-0.274929
-0.277744
-0.280781
-0.28395
-0.287269
-0.290177
-0.293175
-0.245486
0.0137305
0.0133937
0.0126776
0.0123794
0.0116257
0.0106253
0.0111021
0.012116
0.0118893
0.0131357
0.0129053
0.00987423
0.00902382
0.00849533
0.00826671
0.00781379
0.00714863
0.00645012
0.00578425
0.00515097
0.00454129
0.00395177
0.00338295
0.0028179
0.00229121
0.261955
0.265433
0.273845
0.279475
0.267314
0.220983
0.13249
0.020278
-0.0876368
-0.151291
-0.186035
-0.21234
-0.236193
-0.257386
-0.275062
-0.288636
-0.297789
-0.30258
-0.303376
-0.300715
-0.295202
-0.287435
-0.277967
-0.267384
-0.256608
-0.246009
-0.244737
-0.251379
-0.257022
-0.260429
-0.263131
-0.265217
-0.26848
-0.271585
-0.274597
-0.27727
-0.280113
-0.235485
0.0126125
0.0123176
0.011653
0.0113725
0.0106838
0.00974007
0.0101627
0.011128
0.0109049
0.0120642
0.0118535
0.00893738
0.00815548
0.00814958
0.00787196
0.00724393
0.00656152
0.00592108
0.00531711
0.00473844
0.00417781
0.00362938
0.0030946
0.00256327
0.00206506
0.268422
0.282319
0.298063
0.30033
0.264128
0.169844
0.0345797
-0.103082
-0.171176
-0.198742
-0.218304
-0.237332
-0.255011
-0.270257
-0.282435
-0.291098
-0.296078
-0.297515
-0.295768
-0.291333
-0.284743
-0.276458
-0.266875
-0.256655
-0.246362
-0.236113
-0.234686
-0.241385
-0.246418
-0.248485
-0.252118
-0.255022
-0.257744
-0.260228
-0.26342
-0.264567
-0.268507
-0.226425
0.0115858
0.0113115
0.0106976
0.0104331
0.00979199
0.00896736
0.00924456
0.0101962
0.0099714
0.0110809
0.0108698
0.0077391
0.00791473
0.00791169
0.00730233
0.00662378
0.00600471
0.00542924
0.00488594
0.00436282
0.00384716
0.00333419
0.00283056
0.00232955
0.00186244
0.286836
0.312339
0.332631
0.317609
0.220339
0.0522641
-0.130158
-0.201391
-0.217503
-0.228165
-0.241487
-0.255066
-0.267408
-0.277774
-0.285561
-0.290382
-0.292163
-0.291079
-0.287483
-0.281822
-0.274522
-0.265912
-0.256416
-0.246541
-0.236583
-0.226994
-0.225725
-0.231502
-0.236488
-0.240839
-0.245621
-0.250387
-0.252103
-0.254619
-0.257282
-0.259762
-0.262777
-0.263175
-0.217885
0.0106341
0.0103722
0.00979103
0.00952985
0.00898927
0.00750688
0.00849587
0.00929049
0.00904276
0.0101531
0.00994384
0.0074331
0.00796073
0.00732559
0.00664048
0.00603776
0.00548472
0.00497458
0.00449505
0.00402391
0.00354437
0.00306231
0.00259132
0.00211758
0.320141
0.359123
0.377725
0.294628
0.0749149
-0.177014
-0.246817
-0.243455
-0.242417
-0.248825
-0.257579
-0.266487
-0.27463
-0.281185
-0.285526
-0.28737
-0.286716
-0.283766
-0.278856
-0.272356
-0.264585
-0.255849
-0.246517
-0.23691
-0.227452
-0.218408
-0.217205
-0.222919
-0.227264
-0.230861
-0.235972
-0.2392
-0.241702
-0.246568
-0.243942
-0.249685
-0.251743
-0.254314
-0.256855
-0.209538
0.00972053
0.00947324
0.0089169
0.00866102
0.00822795
0.00669205
0.00715936
0.00851513
0.00822272
0.00925351
0.00902501
0.00801957
0.00731336
0.0066105
0.00602933
0.00548731
0.00499834
0.00456396
0.00414729
0.00371453
0.00326893
0.00281821
0.00237045
0.374413
0.428571
0.406021
0.117468
-0.25149
-0.316127
-0.277348
-0.261671
-0.259563
-0.262581
-0.267461
-0.272971
-0.27796
-0.281528
-0.283174
-0.282727
-0.280245
-0.275939
-0.270103
-0.263032
-0.254991
-0.246257
-0.237084
-0.227831
-0.218853
-0.210086
-0.208869
-0.21439
-0.218659
-0.222473
-0.226872
-0.229182
-0.232162
-0.236604
-0.234295
-0.201553
0.00883229
0.00860118
0.008178
0.00788634
0.00557188
0.00794446
0.00743127
0.00792746
0.00812883
0.00844987
0.00819054
0.00726253
0.006529
0.00598981
0.00545039
0.00495919
0.00456245
0.00420661
0.00383329
0.00343539
0.00301816
0.00259282
0.00216899
0.461147
0.463764
0.519022
0.272136
0.372235
0.527718
-0.231813
0.0494936
-0.29017
-0.40356
-0.426346
-0.31975
-0.286041
-0.273934
-0.270056
-0.270277
-0.272746
-0.27586
-0.278386
-0.279598
-0.279151
-0.276962
-0.273124
-0.267843
-0.261365
-0.253928
-0.245766
-0.237081
-0.228134
-0.219264
-0.21058
-0.202142
-0.200881
-0.206221
-0.21029
-0.213903
-0.218095
-0.220996
-0.223172
-0.227709
-0.225327
-0.228079
-0.194202
0.00796873
0.00774752
0.00397654
0.0079027
0.00762185
0.0071179
0.00742533
0.00758452
0.00735969
0.00751097
0.00842682
0.00640373
0.00592705
0.00539307
0.00486876
0.00448704
0.00419645
0.00389112
0.00354987
0.00317848
0.0027863
0.00238675
0.552453
0.571191
0.58749
0.471604
0.230792
0.194526
-0.231941
-0.21146
-0.00701663
-0.503024
-0.340701
-0.438874
-0.365562
-0.439039
-0.313419
-0.291731
-0.279805
-0.274825
-0.273881
-0.274839
-0.27608
-0.276644
-0.276011
-0.273954
-0.270451
-0.265621
-0.259649
-0.252739
-0.245095
-0.236894
-0.228326
-0.219648
-0.211058
-0.202682
-0.194745
-0.193588
-0.198332
-0.20229
-0.205811
-0.209765
-0.212517
-0.21461
-0.218708
-0.216618
-0.220693
-0.222824
-0.227238
-0.224892
-0.187272
0.00141082
0.00731431
0.00735129
0.00698044
0.00624573
0.00668794
0.00723224
0.0071991
0.00584955
0.00532777
0.00475398
0.00433648
0.00411591
0.00388368
0.00360579
0.00328904
0.00294313
0.00258053
0.64132
0.669741
0.629957
0.560931
0.299423
0.279997
0.530475
0.000935865
-0.250614
-0.14591
-0.548213
-0.479146
-0.493706
-0.40281
-0.337842
-0.38601
-0.450157
-0.310138
-0.291219
-0.280811
-0.276274
-0.274828
-0.274571
-0.274299
-0.273315
-0.271244
-0.26795
-0.263468
-0.257923
-0.251475
-0.244296
-0.236548
-0.228379
-0.219977
-0.211535
-0.203221
-0.195267
-0.187733
-0.186492
-0.191141
-0.194779
-0.197889
-0.201861
-0.204463
-0.206478
-0.210372
-0.208352
-0.212253
-0.214296
-0.21837
-0.216352
-0.180465
0.00699061
0.00683736
0.00624781
0.00572332
0.005963
0.00667581
0.00654233
0.00530815
0.00461122
0.00414028
0.00396027
0.00381515
0.00360069
0.00334223
0.00305042
0.00273658
0.667699
0.705002
0.743255
0.729176
0.631019
0.400059
0.220936
-0.513644
-0.51733
-0.512628
-0.416498
-0.36558
-0.322294
-0.351734
-0.390018
-0.457407
-0.475719
-0.302224
-0.287607
-0.279698
-0.275739
-0.273801
-0.272534
-0.271059
-0.268846
-0.265645
-0.261412
-0.256215
-0.250168
-0.243407
-0.236073
-0.228296
-0.220217
-0.211992
-0.20378
-0.195811
-0.188219
-0.180932
-0.179852
-0.182769
-0.187426
-0.19083
-0.194379
-0.196516
-0.198619
-0.202452
-0.200497
-0.204196
-0.206155
-0.210044
-0.2081
-0.173902
0.00629425
0.00609224
0.00565096
0.00539023
0.00542163
0.00594162
0.00582384
0.00442729
0.00397202
0.00372415
0.00369145
0.00354011
0.00333603
0.00309913
0.00284002
0.657477
0.710121
0.776394
0.75765
0.603492
-0.433553
-0.420639
-0.374086
-0.33493
-0.308827
-0.325437
-0.355459
-0.39736
-0.393676
-0.293979
-0.283674
-0.277421
-0.273697
-0.271304
-0.269226
-0.266766
-0.263552
-0.259473
-0.254545
-0.248839
-0.242453
-0.2355
-0.228093
-0.220348
-0.212389
-0.204342
-0.196405
-0.188758
-0.18144
-0.174409
-0.178841
-0.173314
-0.184718
-0.187278
-0.189646
-0.191413
-0.194917
-0.193161
-0.196183
-0.198678
-0.202105
-0.200282
-0.16774
0.00564989
0.00549021
0.00519802
0.00491193
0.00500634
0.0053729
0.00527273
0.00312125
0.00356012
0.00348968
0.00343853
0.00327621
0.00308704
0.00288399
-0.382064
-0.371722
-0.337976
-0.315592
-0.298201
-0.309083
-0.327253
-0.352505
-0.360986
-0.398673
-0.386984
-0.287443
-0.279583
-0.274168
-0.27056
-0.267792
-0.265004
-0.261683
-0.257667
-0.252934
-0.247508
-0.241451
-0.234845
-0.227786
-0.220369
-0.212697
-0.20487
-0.197036
-0.189372
-0.181997
-0.17493
-0.168246
-0.172597
-0.176825
-0.180144
-0.167154
-0.182443
-0.184687
-0.187771
-0.186079
-0.189375
-0.191152
-0.194992
-0.192944
-0.19521
-0.161942
0.005155
0.00502488
0.00479121
-0.000429052
0.00445857
0.00746987
0.00493319
0.00485887
0.00353625
0.00191418
0.00325375
0.0032873
0.00318174
0.00302324
0.00286462
-0.382273
-0.372254
-0.342861
-0.336242
-0.317387
-0.302761
-0.290286
-0.298068
-0.310414
-0.325628
-0.330743
-0.353274
-0.361495
-0.281821
-0.275093
-0.270253
-0.266739
-0.263565
-0.260051
-0.256009
-0.251394
-0.24619
-0.240415
-0.234124
-0.227388
-0.220287
-0.212906
-0.205329
-0.197662
-0.190051
-0.182636
-0.175505
-0.168747
-0.162389
-0.166492
-0.170529
-0.17367
-0.175748
-0.17749
-0.179023
-0.180726
-0.183228
-0.161444
-0.184279
-0.187527
-0.185828
-0.189109
-0.190844
-0.194504
-0.192615
-0.156211
0.00475515
0.0046262
0.00502711
0.00438364
0.00406786
0.00253546
0.0029205
0.00312642
0.00297909
0.00307507
0.0030644
0.0029236
0.00278673
-0.343312
-0.336824
-0.320375
-0.316293
-0.304035
-0.29372
-0.283822
-0.290007
-0.299147
-0.309503
-0.312853
-0.326137
-0.331075
-0.276376
-0.270346
-0.266063
-0.262473
-0.258675
-0.254512
-0.249941
-0.244898
-0.23936
-0.233348
-0.22691
-0.220109
-0.213014
-0.205698
-0.19824
-0.190752
-0.183353
-0.176169
-0.169309
-0.162851
-0.156663
-0.16085
-0.164631
-0.16734
-0.169751
-0.171075
-0.172494
-0.174012
-0.182697
-0.155703
-0.184017
-0.187247
-0.185616
-0.150627
0.00656728
-4.62339e-05
0.00395888
0.00384208
0.00152415
0.0026291
0.00287168
0.00289009
0.00280712
0.00273287
0.00290781
0.00280922
0.00266471
-0.32069
-0.316721
-0.306149
-0.303397
-0.294677
-0.28668
-0.277953
-0.283416
-0.290923
-0.298639
-0.301018
-0.309929
-0.313145
-0.27088
-0.265767
-0.261797
-0.257601
-0.253204
-0.248591
-0.243646
-0.238297
-0.232529
-0.226364
-0.219844
-0.213025
-0.205969
-0.198741
-0.191424
-0.184112
-0.176922
-0.169974
-0.163388
-0.157127
-0.151089
-0.155078
-0.158842
-0.161765
-0.163646
-0.165139
-0.166613
-0.167638
-0.150135
-0.145261
0.00255057
0.00407571
0.00226183
0.00235055
0.00268713
0.00276462
0.00273253
0.00267356
0.00266182
0.0024929
0.00248336
0.00268632
0.00253312
-0.306445
-0.303776
-0.296317
-0.294287
-0.287452
-0.280616
-0.272027
-0.277501
-0.284252
-0.290628
-0.292496
-0.299026
-0.301305
-0.265821
-0.261653
-0.256914
-0.252139
-0.247377
-0.242454
-0.237239
-0.231676
-0.225757
-0.2195
-0.212946
-0.206144
-0.199151
-0.192032
-0.18486
-0.177728
-0.170744
-0.164041
-0.157665
-0.151569
-0.145737
-0.149572
-0.153164
-0.155973
-0.157838
-0.159316
-0.160722
-0.162132
-0.163457
-0.164933
-0.166244
-0.166719
-0.144736
-0.140208
0.00221932
0.00230079
0.00224589
0.00253603
0.00254197
0.00263295
0.00262635
0.00253905
0.00249733
0.00256431
0.00255708
0.00255825
0.00238112
0.00233283
0.00241552
-0.296609
-0.294647
-0.288848
-0.287179
-0.281274
-0.274815
-0.266323
-0.271424
-0.278341
-0.284046
-0.285685
-0.291003
-0.292784
-0.262124
-0.256721
-0.2514
-0.246364
-0.24136
-0.236208
-0.230804
-0.225099
-0.219086
-0.212783
-0.206227
-0.199466
-0.192556
-0.185557
-0.178537
-0.171585
-0.164816
-0.158321
-0.152119
-0.146221
-0.140651
-0.144152
-0.147723
-0.150436
-0.152205
-0.15364
-0.154969
-0.15634
-0.157679
-0.159151
-0.160472
-0.161827
-0.139735
-0.135304
0.00205068
0.0020939
0.00244036
0.0024682
0.00254984
0.0025262
0.00250177
0.00244786
0.002308
0.00228822
0.00239642
0.00246381
0.00250476
0.00249206
0.00248831
0.0022833
0.00220591
-0.28914
-0.287535
-0.282548
-0.281009
-0.275626
-0.268001
-0.263073
-0.266998
-0.272501
-0.278095
-0.279698
-0.284417
-0.285971
-0.257085
-0.251099
-0.245657
-0.240435
-0.235245
-0.229932
-0.224404
-0.21861
-0.212544
-0.206224
-0.19969
-0.192989
-0.186176
-0.179306
-0.172443
-0.165676
-0.159101
-0.152785
-0.146775
-0.141112
-0.135729
-0.13922
-0.142369
-0.145008
-0.146782
-0.148174
-0.149438
-0.150776
-0.152046
-0.153471
-0.154732
-0.156044
-0.134847
-0.1305
0.00235974
0.00240513
0.00248809
0.00246978
0.00243872
0.00239239
0.00232177
0.00225047
0.00219999
0.0022943
0.00235323
0.00240922
0.00244587
0.00243525
0.00243559
-0.282826
-0.281363
-0.276824
-0.275302
-0.267778
-0.265157
-0.257846
-0.262513
-0.268063
-0.272602
-0.274261
-0.278451
-0.279951
-0.251323
-0.245393
-0.239782
-0.234427
-0.229106
-0.223693
-0.218085
-0.212237
-0.206143
-0.199828
-0.193334
-0.18671
-0.180005
-0.17327
-0.166567
-0.159978
-0.153577
-0.147446
-0.14165
-0.136175
-0.130926
-0.134312
-0.137492
-0.140006
-0.141589
-0.142707
-0.144053
-0.145363
-0.146604
-0.147986
-0.149202
-0.150481
-0.13005
-0.125853
0.00243667
0.00242633
0.00238064
0.00234103
0.00226519
0.00220357
0.00211649
0.00209197
0.00216321
0.00224594
0.00229543
0.00236205
0.00239877
-0.277011
-0.275627
-0.270605
-0.265941
-0.26587
-0.259675
-0.252046
-0.257071
-0.262973
-0.268325
-0.269676
-0.273625
-0.274535
-0.245659
-0.239555
-0.233854
-0.228402
-0.223009
-0.217533
-0.211875
-0.205993
-0.199889
-0.193594
-0.187157
-0.180622
-0.174035
-0.16744
-0.160897
-0.154471
-0.148245
-0.14231
-0.136701
-0.131376
-0.126278
-0.129525
-0.132558
-0.135058
-0.136611
-0.137874
-0.139106
-0.140352
-0.141592
-0.142567
-0.144008
-0.145083
-0.125412
-0.121393
0.00233203
0.00229996
0.00220219
0.00215958
0.00206421
0.00198068
0.00204536
0.00210095
0.00220302
0.00225019
-0.27363
-0.263449
-0.266735
-0.265537
-0.260183
-0.254175
-0.246384
-0.251488
-0.257567
-0.26275
-0.263954
-0.268893
-0.273036
-0.239891
-0.233643
-0.22793
-0.222429
-0.216997
-0.21148
-0.205788
-0.199882
-0.193778
-0.18752
-0.181155
-0.174722
-0.168259
-0.161807
-0.155414
-0.149151
-0.143107
-0.137352
-0.131904
-0.126729
-0.121818
-0.124925
-0.127898
-0.13023
-0.131242
-0.132839
-0.134122
-0.135356
-0.136455
-0.137716
-0.138891
-0.140149
-0.14127
-0.14192
-0.12094
-0.117141
0.00214554
0.00212522
0.00200307
0.00193718
0.00200554
0.00205457
-0.259946
-0.267129
-0.26574
-0.261244
-0.260018
-0.25477
-0.248614
-0.239945
-0.245821
-0.252061
-0.257373
-0.258665
-0.263035
-0.264291
-0.268622
-0.27263
-0.23402
-0.227777
-0.222073
-0.216549
-0.211091
-0.205549
-0.199825
-0.193898
-0.187808
-0.181605
-0.175327
-0.169005
-0.162669
-0.156356
-0.150115
-0.144017
-0.138143
-0.132553
-0.127257
-0.122262
-0.11754
-0.120442
-0.123363
-0.125639
-0.127567
-0.129772
-0.13183
-0.132791
-0.133937
-0.13514
-0.136267
-0.137506
-0.138704
-0.139875
-0.116724
-0.112994
0.00195233
0.00190414
-0.267315
-0.265963
-0.261605
-0.260337
-0.255893
-0.254566
-0.249255
-0.242567
-0.234804
-0.235326
-0.246632
-0.251831
-0.253199
-0.257693
-0.258999
-0.263326
-0.264568
-0.228046
-0.22204
-0.216298
-0.21077
-0.205314
-0.199741
-0.193969
-0.188031
-0.18198
-0.175851
-0.169671
-0.163464
-0.157257
-0.151083
-0.144992
-0.139054
-0.133342
-0.127905
-0.122781
-0.117964
-0.113382
-0.116266
-0.11896
-0.121097
-0.123083
-0.125292
-0.126779
-0.12794
-0.13022
-0.129004
-0.13159
-0.132612
-0.133773
-0.134938
-0.112581
-0.108939
-0.261904
-0.260633
-0.256231
-0.254886
-0.250357
-0.248988
-0.243448
-0.235347
-0.228629
-0.24554
-0.246282
-0.247656
-0.252138
-0.253504
-0.257998
-0.259278
-0.222404
-0.216353
-0.210606
-0.205137
-0.199673
-0.19402
-0.188205
-0.182289
-0.1763
-0.170258
-0.164182
-0.158093
-0.152015
-0.14598
-0.140038
-0.134254
-0.128693
-0.123422
-0.118465
-0.113795
-0.109323
-0.1121
-0.114789
-0.116911
-0.118719
-0.120772
-0.122251
-0.123386
-0.125573
-0.124447
-0.108534
-0.105012
-0.256514
-0.255176
-0.250661
-0.249282
-0.244197
-0.239852
-0.237982