/*--------------------------------*- C++ -*----------------------------------*\
| =========                 |                                                 |
| \\      /  F ield         | OpenFOAM: The Open Source CFD Toolbox           |
|  \\    /   O peration     | Version:  v1912                                 |
|   \\  /    A nd           | Website:  www.openfoam.com                      |
|    \\/     M anipulation  |                                                 |
\*---------------------------------------------------------------------------*/
FoamFile
{
    version     2.0;
    format      ascii;
    class       surfaceScalarField;
    location    "470";
    object      phi;
}
// * * * * * * * * * * * * * * * * * * * * * * * * * * * * * * * * * * * * * //

dimensions      [0 3 -1 0 0 0 0];
oriented        oriented;


internalField   nonuniform List<scalar> 
7196
(
0.00510539
0.00490161
0.00622802
0.00888537
0.00245782
0.00244378
0.00618374
0.0100513
0.00446744
0.00687575
0.000925084
0.0015187
0.00595944
0.0102333
0.0052187
0.00930002
0.00258136
0.00521948
0.00029354
0.00122516
0.00577125
0.0101972
0.00526483
0.0101872
0.00373218
0.0081492
0.00128341
0.0042296
7.72144e-05
0.00114794
0.0056265
0.0101557
0.0051023
0.0103597
0.00418494
0.00973441
0.00232315
0.00710946
0.000561993
0.00374482
-7.49304e-08
0.00114801
0.00550158
0.0101359
0.00493436
0.0103237
0.00422164
0.010323
0.00295615
0.0091014
0.00127737
0.00639409
0.000191987
0.00355276
-2.95906e-05
0.0011776
0.00538585
0.0101277
0.00480099
0.0102693
0.00411281
0.0104325
0.00317633
0.0101028
0.00185782
0.00852094
0.000595175
0.0059909
1.13265e-05
0.00351184
-3.85764e-05
0.00121618
0.00527721
0.0101206
0.0046989
0.0102298
0.00398989
0.0103922
0.00316326
0.0104456
0.00214446
0.0098162
0.00100789
0.00810822
0.000188661
0.00581356
-6.89079e-05
0.00354217
-3.64564e-05
0.00125264
0.00517275
0.0101145
0.00461775
0.0102018
0.00389019
0.0103295
0.00306744
0.010488
0.00218782
0.0104022
0.00125211
0.00957199
0.000422083
0.0078748
-2.63177e-05
0.00577097
-9.29615e-05
0.00359868
-2.97651e-05
0.0012824
0.005075
0.0101057
0.00455739
0.0101748
0.00382056
0.0102714
0.00296372
0.0104332
0.00210406
0.0105718
0.00129567
0.0103587
0.000573855
0.00942022
6.79776e-05
0.00778051
-0.000120615
0.00579863
-9.08283e-05
0.00365974
-2.31223e-05
0.00130552
0.00498517
0.0100938
0.00451961
0.0101435
0.00378268
0.0102127
0.00288184
0.0103533
0.001977
0.0105603
0.00119651
0.010671
0.00057673
0.0103558
0.000126784
0.00936141
-0.000112909
0.0077728
-0.000147482
0.00585528
-7.82612e-05
0.00371488
-1.68616e-05
0.00132238
0.00490186
0.0100823
0.00450387
0.0101096
0.00377866
0.0101475
0.00283252
0.010262
0.00184866
0.0104816
0.00102082
0.010736
0.000439895
0.0108078
7.97752e-05
0.0104028
-0.000120491
0.00936899
-0.000187172
0.00781249
-0.000144151
0.00592117
-6.32877e-05
0.00376131
-1.11612e-05
0.00133355
0.00482495
0.0100699
0.00451264
0.0100735
0.00381716
0.0100711
0.00282767
0.0101524
0.00173942
0.0103713
0.00081017
0.0106923
0.000204717
0.0109712
-8.58982e-05
0.0109735
-0.000197477
0.0104798
-0.000233895
0.00941571
-0.000206122
0.00787446
-0.000127131
0.00598501
-4.82063e-05
0.00379835
-6.87755e-06
0.00134042
0.00475244
0.0100575
0.0045455
0.010037
0.00390264
0.00998805
0.00287922
0.0100195
0.00166728
0.0102245
0.000588814
0.0105926
-9.99519e-05
0.010997
-0.000355657
0.0112409
-0.000369503
0.0111455
-0.000328893
0.0105748
-0.000276203
0.0094858
-0.00019781
0.00794514
-0.000106066
0.00604287
-3.45648e-05
0.00382604
-3.25279e-06
0.00134368
0.00468149
0.01005
0.00459735
0.0100057
0.00404102
0.00989867
0.0030072
0.00986008
0.00165723
0.0100296
0.000374283
0.010439
-0.000461792
0.0109545
-0.000713328
0.0113546
-0.000628754
0.0115002
-0.000493135
0.0113097
-0.000382896
0.0106815
-0.00028119
0.00956918
-0.000177124
0.0080162
-8.34971e-05
0.00609181
-2.35909e-05
0.00384638
-1.09075e-06
0.00134477
0.00460855
0.0100459
0.00466372
0.00998359
0.00423045
0.00981622
0.00322701
0.00967886
0.00174076
0.00977655
0.000186142
0.0102177
-0.000883036
0.0108603
-0.00115948
0.0114006
-0.000963153
0.011689
-0.000727475
0.0117345
-0.000543781
0.0114706
-0.000393571
0.0107939
-0.000263816
0.00965587
-0.000151097
0.0080838
-6.47671e-05
0.00613298
-1.48228e-05
0.00386011
8.67766e-07
0.0013439
0.00452989
0.0100497
0.004731
0.00997865
0.00446231
0.00975173
0.00355589
0.00948734
0.00196189
0.00945773
6.1999e-05
0.00990069
-0.00136919
0.0107039
-0.00170887
0.0114097
-0.00136923
0.0118067
-0.00101732
0.0119789
-0.000756775
0.0119475
-0.000549786
0.0116268
-0.000378889
0.0109089
-0.000237863
0.00974263
-0.000125942
0.00814498
-4.8189e-05
0.00616635
-8.10074e-06
0.00386908
2.01548e-06
0.00134189
0.00444112
0.0100608
0.00478734
0.00999332
0.00471847
0.00972249
0.00399499
0.00931263
0.0023773
0.00907193
6.60614e-05
0.00945367
-0.00192845
0.01046
-0.00239487
0.0113899
-0.00184736
0.0118878
-0.00135078
0.0121402
-0.00101419
0.0122363
-0.000750723
0.0121484
-0.00053056
0.0117785
-0.000350478
0.0110215
-0.000209559
0.00982625
-0.000103851
0.00820064
-3.54953e-05
0.00619374
-3.75497e-06
0.00387485
2.63805e-06
0.00133925
0.00433886
0.0100783
0.00481853
0.0100296
0.00496801
0.00974378
0.00451844
0.00919903
0.00304331
0.00864662
0.000319445
0.00881854
-0.0025507
0.0100759
-0.00325479
0.0113199
-0.00240105
0.0119436
-0.00172177
0.0122588
-0.00129896
0.0124249
-0.00098214
0.0124677
-0.000719079
0.012337
-0.000497802
0.0119258
-0.000320953
0.0111329
-0.000183418
0.00990582
-8.5525e-05
0.00825067
-2.55856e-05
0.00621557
1.7171e-07
0.00387732
3.36133e-06
0.00133589
0.00422121
0.0101007
0.00480979
0.010087
0.00518029
0.0098173
0.00507215
0.00919008
0.00395308
0.00828926
0.00107003
0.00789604
-0.00313707
0.00940492
-0.00429163
0.0111128
-0.00299782
0.0119167
-0.00209974
0.0123215
-0.00158761
0.0125474
-0.00122836
0.0126712
-0.000932772
0.0126814
-0.000677432
0.0125166
-0.000462949
0.0120678
-0.000289833
0.0112393
-0.000159057
0.00997935
-6.94136e-05
0.0082945
-1.74356e-05
0.00623318
2.56576e-06
0.00387812
3.60922e-06
0.00133228
0.00408982
0.0101224
0.00475413
0.0101563
0.00532148
0.00994581
0.00558605
0.0093034
0.00500161
0.00814155
0.00261976
0.00673953
-0.00327733
0.0080363
-0.00536135
0.0104746
-0.0034609
0.0115758
-0.00238888
0.0122058
-0.00182606
0.01256
-0.00145316
0.0127722
-0.00114983
0.0128882
-0.000879507
0.0128835
-0.000634982
0.0126886
-0.00042663
0.0122046
-0.000260055
0.0113403
-0.000138506
0.0100484
-5.63482e-05
0.00833341
-1.18026e-05
0.00624755
3.78455e-06
0.00387794
3.71173e-06
0.00132857
0.00394549
0.0101413
0.00465159
0.0102249
0.0053668
0.010111
0.00597881
0.00955305
0.00606916
0.00823585
0.00454131
0.00318157
0.00303842
-0.000256858
0.00289384
-0.00146117
0.00228638
-0.00327789
0.00450574
-0.00237532
0.00382243
-0.0019095
0.0103238
-0.0014006
-0.0023506
0.0115376
-0.0018851
0.0122648
-0.00158375
0.0126906
-0.00132843
0.0129508
-0.00107606
0.0130848
-0.000824637
0.0130731
-0.000590801
0.0128528
-0.000392055
0.0123366
-0.000234964
0.0114368
-0.000121156
0.0101133
-4.69976e-05
0.00836861
-7.67353e-06
0.00625901
5.09836e-06
0.00387655
3.45633e-06
0.00132511
0.00379253
0.010155
0.00450996
0.010283
0.00531619
0.0102756
0.00618564
0.00990416
0.00694463
0.00867758
0.00673346
0.00299327
0.00305043
0.000548553
0.00237616
0.00149761
0.00208937
-0.00325058
0.00286652
-0.000748466
0.000877717
0.000785743
-0.00129186
-0.00114373
0.000573536
0.000897862
-0.00176522
0.00436145
-0.000999281
0.00128217
0.000889895
-0.000681588
-0.000650159
0.00323571
-0.000528338
-0.00092504
0.00958838
-0.000690105
-0.00100192
0.00396277
-0.00156039
0.0112128
-0.00149103
0.0121721
-0.00139127
0.0127534
-0.00122751
0.0131023
-0.00100652
0.0132667
-0.000766868
0.0132492
-0.000545622
0.0130064
-0.000358284
0.0124599
-0.000212978
0.0115286
-0.000106304
0.0101726
-3.95709e-05
0.0084005
-5.46631e-06
0.00626957
5.05383e-06
0.00387496
3.48526e-06
0.00132163
0.0036342
0.0101633
0.00433739
0.0103275
0.0051831
0.010416
0.00620348
0.0102577
0.00742373
0.00942506
0.00858655
0.00327139
0.00355311
0.00256835
0.00192254
0.00352472
0.00105757
0.00103648
0.000399857
0.000401897
0.000539148
-0.00111018
0.00069604
-0.000878151
0.00055371
-0.000946731
0.000499039
0.00107257
-0.000499039
0.000971155
-0.000493915
0.00112593
0.000685548
-0.000289568
0.000289568
-0.000172478
0.00267255
-0.000266286
-0.000324632
0.000922225
0.0035719
-0.000534171
-0.000429145
0.00878792
-0.000330785
0.00323417
-0.00035237
-0.00106198
0.0107838
-0.00123205
0.0120129
-0.00125714
0.012783
-0.00113722
0.013233
-0.000930653
0.0134304
-0.000706972
0.0134105
-0.000501366
0.0131494
-0.000327516
0.0125745
-0.000192564
0.0116149
-9.53744e-05
0.0102284
-3.47127e-05
0.00842975
-3.63521e-06
0.00627826
5.14156e-06
0.0038733
3.03833e-06
0.00131859
0.00347244
0.0101688
0.00414245
0.0103583
0.00498929
0.0105213
0.0060731
0.0105464
0.00752167
0.0101598
0.00950368
0.00407084
0.00443709
0.00459749
0.00219862
0.00540708
0.00274351
0.00102019
0.000271196
0.000251627
0.000779381
-0.00140435
0.00174338
0.000718535
0.000652324
0.000732025
-0.000330128
0.000393021
-0.000393021
0.000360916
-0.000772523
0.000654081
-5.40361e-05
0.00227748
-8.14802e-05
-5.76181e-05
-0.000116584
0.00301918
-0.000214154
-0.000215544
0.0081269
-0.000185413
0.0028449
-0.000156506
0.0020068
-3.81043e-05
-4.35826e-05
-0.000811047
0.0103628
-0.00109139
0.0118471
-0.0011614
0.0128072
-0.00103915
0.0133415
-0.000849625
0.0135731
-0.00064778
0.013557
-0.000459836
0.0132818
-0.000301994
0.0126839
-0.000177273
0.0116968
-8.80395e-05
0.0102817
-3.08709e-05
0.00845699
-3.31885e-06
0.00628672
4.79699e-06
0.00387154
2.8939e-06
0.00131569
0.00330778
0.0101727
0.00393088
0.0103803
0.00475174
0.0105958
0.00583684
0.0107576
0.0073426
0.0107255
0.00963332
0.0100301
0.00601713
0.00346079
0.00643642
0.0040178
0.00489662
-0.0015969
0.000303117
0.000339165
0.0062336
0.000875608
0.000530923
-5.89318e-05
0.000192695
0.0011627
0.000269007
0.000284337
0.000244332
0.000592027
-1.94261e-05
0.000190296
0.000547562
-1.31521e-05
0.00184273
-2.68673e-05
-2.3214e-05
0.00272842
-9.90657e-05
-0.000137978
0.00759848
-0.000144655
0.00262312
-8.01115e-05
0.00172362
-1.80601e-05
-1.93395e-05
-0.000512903
0.000484284
-9.48563e-06
-8.92374e-06
-0.000724156
0.00999556
-0.00103019
0.0117159
-0.0010462
0.0128143
-0.000931378
0.0134232
-0.000766421
0.0136917
-0.000590662
0.0136878
-0.000425039
0.0134048
-0.000281147
0.0127878
-0.000165624
0.0117744
-8.19953e-05
0.0103328
-2.93296e-05
0.008483
-3.31613e-06
0.00629484
4.11956e-06
0.00387032
2.34071e-06
0.00131335
0.00314039
0.0101754
0.00370918
0.0103944
0.0044847
0.0106474
0.00552888
0.0109038
0.00699472
0.0111055
0.00922535
0.0111335
-0.00753853
0.0139929
0.00468352
0.00532871
0.00704606
0.00126194
0.00138639
0.00188962
0.00163571
0.00104916
-0.00074604
0.00138832
-0.00191924
0.00279485
0.000461703
0.00017087
0.000157718
0.000463107
-5.68993e-06
0.000445169
-5.27621e-06
0.00164677
-1.16905e-05
-1.05243e-05
0.00254495
-5.98071e-05
-0.000121476
0.00715372
-0.000157914
0.00245979
-5.94936e-05
0.00158434
-8.76258e-06
-8.92428e-06
-0.000429973
0.000416457
-4.54408e-06
-4.14378e-06
-0.000148794
0.000139308
-0.000749701
0.00971507
-0.000934551
0.0116043
-0.000915304
0.0127982
-0.000819288
0.0134761
-0.000686071
0.0137871
-0.000539866
0.0138026
-0.000395361
0.013519
-0.000264818
0.012887
-0.000156941
0.0118493
-7.81617e-05
0.0103816
-2.79605e-05
0.00850764
-3.5964e-06
0.00630255
3.30506e-06
0.00386935
2.16446e-06
0.00131119
0.00297314
0.0101752
0.0034816
0.010403
0.00419716
0.0106819
0.00517669
0.0109996
0.00655333
0.0113452
0.00858005
0.0117508
0.0127944
0.012332
0.0087467
-0.00415573
-0.0033614
0.00195352
0.00150043
0.00880505
0.00527035
0.00298612
0.00107067
0.00343236
0.000940148
-0.00389722
0.00163111
0.00117085
0.000133618
0.000128342
0.000407238
-2.4707e-06
0.000398981
-2.26774e-06
0.00153702
-6.07697e-06
-6.40183e-06
0.00239271
-5.43934e-05
-0.000162723
0.00680955
-0.000242805
0.00230158
-6.6787e-05
0.00148978
-6.502e-06
-5.75811e-06
-0.000391893
0.000385167
-2.03594e-06
-1.83585e-06
-0.000124198
0.000119654
-0.000747697
0.00952821
-0.00078635
0.0114753
-0.000770545
0.0127495
-0.000713997
0.013504
-0.000618867
0.0138662
-0.000500768
0.013908
-0.000374127
0.0136283
-0.000253454
0.0129835
-0.000151391
0.0119225
-7.49781e-05
0.0104287
-2.73634e-05
0.00853141
-4.13371e-06
0.00630999
2.69796e-06
0.00386882
1.81314e-06
0.00130938
0.00280566
0.0101765
0.00324928
0.0104076
0.0038985
0.0107016
0.00479985
0.0110587
0.00606001
0.0114929
0.00787334
0.0120519
0.0112008
0.0133443
-0.00680722
0.0159267
0.00545672
0.00656084
-0.00318167
0.00145138
-0.00295181
0.00311977
0.00178555
-0.00145138
-0.00178555
0.00182193
0.00154653
0.00107067
0.00201081
0.000117184
0.000114916
0.000380436
-1.34656e-06
0.000375162
-1.12772e-06
0.00144582
-4.60764e-06
-5.81926e-06
0.0022229
-8.40457e-05
-0.000292414
0.00663305
-0.000278791
0.00211762
-0.00013752
0.00139092
-7.23793e-06
-4.65732e-06
-0.000370643
0.000365608
-1.46667e-06
-1.23943e-06
-0.00011308
0.000111044
-0.000577105
0.00931897
-0.000614268
0.0113191
-0.000643463
0.0126789
-0.000628503
0.0135137
-0.000568464
0.0139338
-0.000473087
0.014007
-0.000358574
0.0137335
-0.000243701
0.0130758
-0.000145076
0.0119926
-7.15385e-05
0.0104728
-2.67132e-05
0.00855399
-5.19985e-06
0.00631789
1.79197e-06
0.00386884
1.66398e-06
0.00130771
0.00263838
0.0101763
0.0030165
0.0104093
0.00359272
0.0107133
0.0044074
0.0110941
0.00554224
0.0115765
0.00715378
0.0122125
0.00970455
0.0135481
0.0143001
0.0149709
0.00502671
-0.00200978
-0.00135868
0.00197542
0.00182304
0.00587445
0.0057131
-0.00154653
0.00135868
0.000109698
0.00010857
0.000362051
-1.05026e-06
0.000357265
-1.0337e-06
0.00132215
-4.86915e-06
-1.04036e-05
0.00204454
-0.000219337
-0.000212583
0.00638686
-0.000118323
0.00198807
-0.000222315
0.00122137
-2.64854e-05
-1.02548e-05
-0.000353586
0.000347715
-1.36727e-06
-9.77885e-07
-0.00010733
0.000105864
-0.000379923
0.00908463
-0.000478542
0.0111541
-0.00054754
0.012598
-0.000567405
0.0135126
-0.000534859
0.0139956
-0.000455941
0.0141043
-0.000349091
0.0138388
-0.000236659
0.0131674
-0.000140253
0.0120614
-7.01724e-05
0.0105163
-2.70215e-05
0.00857581
-5.38992e-06
0.00632507
1.21704e-06
0.00386929
1.17175e-06
0.00130654
0.00247061
0.0101768
0.00278282
0.01041
0.00328501
0.010717
0.00401126
0.0111095
0.00502068
0.0116156
0.00643679
0.0122935
0.00844162
0.0134754
0.0120937
0.0157545
-0.00411998
0.0118107
0.0131547
-0.00107792
0.00147304
0.0015803
0.000745126
-0.000981029
0.00404719
0.000104814
0.00010378
0.000343996
-1.14972e-06
0.000335193
-1.60084e-06
0.0011255
-4.07788e-05
-8.26825e-05
0.0018995
-0.000124017
-8.23174e-05
0.00613382
-4.45729e-05
0.0018362
-5.5019e-05
0.00104862
-6.54741e-05
-7.99605e-05
-0.000327234
0.000305959
-5.21022e-06
-2.29599e-06
-0.000102802
0.000101435
-0.000263893
0.00886998
-0.00038899
0.0109956
-0.000485639
0.0125162
-0.000532301
0.0135101
-0.00051763
0.0140573
-0.000444302
0.0141996
-0.000337295
0.0139395
-0.000227411
0.0132545
-0.000134265
0.0121255
-6.76973e-05
0.010557
-2.62507e-05
0.00859667
-6.56126e-06
0.00633285
3.58321e-07
0.0038701
8.954e-07
0.00130565
0.00230459
0.010177
0.00255136
0.0104082
0.00297912
0.0107159
0.00361604
0.0111122
0.00450513
0.011625
0.00573816
0.0123143
0.00738008
0.013355
0.0100795
0.0154896
0.0113585
0.0162067
-0.00200048
0.00701853
0.00953756
-0.00140094
-0.000427065
0.00102634
0.000318061
0.00273683
-0.000389594
-0.00030053
0.000100285
9.86842e-05
0.000277594
-1.24132e-05
0.000222512
-2.76002e-05
0.00095585
-2.45222e-05
-6.72875e-06
0.00178183
-2.7947e-05
-4.33266e-05
0.00594242
-2.91626e-05
0.00175358
-1.63281e-05
0.000904233
-6.32435e-07
-2.76883e-06
-0.000193716
0.000128242
-5.11646e-05
-9.63882e-05
9.1178e-05
-0.000204719
0.00868571
-0.000337311
0.0108473
-0.000455445
0.0124393
-0.000521885
0.0135143
-0.000511123
0.0141241
-0.000433036
0.0142953
-0.000323301
0.0140354
-0.000216378
0.0133367
-0.000127069
0.0121848
-6.4338e-05
0.0105951
-2.6924e-05
0.00861703
-7.48628e-06
0.0063407
-7.6015e-07
0.00387176
8.23293e-07
0.00130482
0.00213851
0.0101771
0.00232088
0.0104075
0.00267372
0.0107136
0.00322295
0.0111089
0.00399945
0.0116179
0.00506855
0.0122946
0.00645024
0.0132441
0.00845077
0.0149838
0.0099981
0.01685
0.00844483
0.0147804
0.00348422
0.00675181
-0.000266144
-0.000432324
0.00167349
-0.000160453
-0.000177143
-0.000122691
0.000759435
0.00019537
0.00053497
-7.60648e-05
7.87648e-05
5.11646e-05
0.00010372
9.69908e-05
0.000877739
-1.03041e-06
-4.22124e-07
0.00172336
-1.31046e-05
-3.18251e-05
0.00579684
-2.73179e-05
0.00170472
-1.05197e-05
0.000862459
-3.48071e-07
-7.00805e-07
-9.42219e-05
9.35895e-05
-0.000171812
0.00852021
-0.000316752
0.0107086
-0.000454929
0.0123724
-0.000526976
0.0135302
-0.000502561
0.0141937
-0.000414733
0.0143867
-0.000305522
0.0141245
-0.000203433
0.013413
-0.000121127
0.0122416
-6.25665e-05
0.0106307
-2.71963e-05
0.00863675
-8.46051e-06
0.0063484
-1.18521e-06
0.00387377
2.00935e-07
0.00130462
0.00197457
0.0101769
0.002093
0.010405
0.00237397
0.0107072
0.00283685
0.0110997
0.00350837
0.0116
0.00443131
0.0122551
0.00560782
0.0131371
0.00715553
0.0145393
0.00853204
0.0164499
0.00832069
0.0169741
0.00556397
0.0127006
0.00148406
0.00515844
4.77448e-05
6.15614e-05
-0.00130154
0.00107135
-9.3185e-06
-2.66369e-05
-2.48328e-05
-3.55412e-05
-0.000396963
0.000275388
-3.88776e-05
-3.91361e-05
0.000119305
9.25591e-05
9.2137e-05
0.000850296
-5.62487e-07
-3.78933e-07
0.00168361
-1.07208e-05
-2.48514e-05
0.00567047
-2.05842e-05
0.00166796
-1.16655e-05
0.000840607
-3.42896e-07
-4.87449e-07
-9.14362e-05
9.10882e-05
-0.000160431
0.00836389
-0.000330316
0.010584
-0.000482237
0.0123277
-0.000533455
0.0135611
-0.000483022
0.0142619
-0.000388662
0.0144699
-0.00028625
0.0142073
-0.000190365
0.0134823
-0.000114975
0.012294
-6.19895e-05
0.0106655
-2.76299e-05
0.00865591
-1.03323e-05
0.00635754
-2.56092e-06
0.00387653
1.88641e-07
0.00130443
0.00181099
0.0101766
0.0018683
0.0104016
0.00207652
0.0107024
0.00245638
0.0110877
0.00303084
0.0115773
0.00382499
0.0122063
0.00483474
0.0130282
0.00608599
0.0142066
0.00724232
0.0158291
0.00751839
0.0172522
0.0063303
0.0162078
0.00342944
0.0107552
0.000711352
0.00448526
-3.95972e-05
1.4226e-06
-0.00102184
0.00100013
2.18818e-05
4.75751e-05
6.13175e-05
4.97538e-05
-0.000195703
0.000187666
-1.28083e-06
-0.000215848
-6.49241e-06
-0.000236614
-4.06689e-06
3.23282e-06
-8.01692e-05
4.12916e-05
9.05257e-05
9.01467e-05
0.000830809
-4.70642e-07
-4.52216e-07
0.00165278
-9.67649e-06
-1.76985e-05
0.00554802
-2.02801e-05
0.00163731
1.73605e-06
-6.84035e-06
0.000820124
-4.81878e-07
-4.97793e-07
-8.96593e-05
8.93164e-05
-0.000177075
0.00821065
-0.000379477
0.0104812
-0.000518268
0.0123125
-0.000515451
0.0135935
-0.000448927
0.0143222
-0.000357355
0.014541
-0.000262315
0.0142793
-0.000177866
0.0135451
-0.000110572
0.0123426
-6.1239e-05
0.0106991
-3.02507e-05
0.00867583
-1.23653e-05
0.00636735
-3.20045e-06
0.00387992
-3.86588e-07
0.00130482
0.00165008
0.0101749
0.0016474
0.0103975
0.00178505
0.0106931
0.00208369
0.0110751
0.00256447
0.0115541
0.00324626
0.012156
0.00411789
0.0129232
0.0051635
0.0139507
0.00615307
0.0152958
0.00657411
0.0167734
0.00617113
0.0174113
0.00460195
0.0150353
0.00208007
0.00938653
0.00031696
0.00414426
3.40536e-05
-1.00078e-05
-0.000987082
0.000978369
-3.08851e-05
-2.00242e-06
1.6469e-05
-0.000243642
0.000251952
1.35721e-05
-0.000224858
2.87907e-05
-0.00020401
4.04696e-05
3.34097e-05
-3.39651e-05
3.26843e-05
-4.04575e-05
-4.45244e-05
8.88458e-05
8.83936e-05
0.000475234
-2.69987e-07
-2.45416e-07
0.000335728
0.00162631
-4.20313e-06
-2.50499e-06
-1.5544e-05
0.00541362
-2.71362e-05
0.00161065
-2.00552e-06
-2.60712e-06
0.000505838
-2.88681e-05
0.000507429
-8.43076e-06
-8.78958e-05
8.74139e-05
-0.000236784
0.00806795
-0.000462987
0.0104259
-0.000510456
0.0123075
-0.000471874
0.0136164
-0.000403613
0.0143685
-0.000322606
0.0146013
-0.0002423
0.0143437
-0.000168463
0.013603
-0.000108853
0.0123902
-6.33268e-05
0.0107322
-3.25042e-05
0.00869597
-1.39843e-05
0.00637813
-4.14197e-06
0.00388367
-4.58223e-07
0.00130528
0.00149022
0.0101749
0.00143015
0.0103922
0.00149822
0.0106843
0.00171561
0.0110612
0.00210862
0.011531
0.00268989
0.0121104
0.00344633
0.0128276
0.00434273
0.013744
0.00521053
0.0148932
0.00568342
0.0161865
0.00560845
0.017336
0.00489666
0.0171166
0.00324706
0.0138683
0.00123842
0.00846507
0.000107252
0.00393459
4.08465e-05
6.15676e-05
-0.000959334
0.00094773
4.56568e-05
9.02764e-06
-0.000234677
0.000356113
-1.4947e-06
-0.000149848
-9.78546e-07
-0.000255325
1.86454e-05
1.30951e-05
-0.000110525
0.000121246
2.85109e-06
-8.94408e-05
7.70682e-06
-6.6094e-05
1.71227e-05
8.71439e-05
8.68985e-05
0.000305066
1.79442e-06
0.00050601
-2.78424e-06
0.000504886
-1.38064e-06
0.00159996
-1.82495e-06
-3.02947e-06
-2.26133e-05
0.00525068
-5.12315e-05
0.00157928
-2.33152e-06
-4.13154e-06
0.000503836
-9.5586e-07
0.000501819
-5.89528e-07
0.000298698
-2.06356e-06
-0.000361452
0.00796642
-0.000482373
0.0103978
-0.0004573
0.0122929
-0.000410123
0.013623
-0.00035502
0.0144009
-0.00029245
0.0146514
-0.000225533
0.0144008
-0.00016407
0.0136583
-0.00010888
0.0124358
-6.61292e-05
0.0107658
-3.53522e-05
0.00871734
-1.57526e-05
0.00638974
-5.25123e-06
0.00388847
-9.10655e-07
0.00130619
0.00133191
0.0101733
0.00121966
0.0103854
0.0012181
0.0106723
0.00135529
0.0110446
0.00166132
0.0115085
0.00215034
0.0120705
0.00280924
0.0127475
0.00359268
0.0135776
0.00437176
0.0145827
0.00487698
0.0156997
0.00495779
0.0168372
0.00466093
0.0175718
0.0037871
0.0165766
0.00224206
0.0128647
0.000732893
0.00783943
3.50238e-05
0.00385092
2.27439e-05
2.59029e-05
-0.000938348
0.00094471
3.44847e-05
7.0949e-05
-0.000363409
0.000385433
1.79018e-05
5.73048e-06
-8.56662e-08
1.81713e-06
-2.98396e-05
2.83449e-05
-0.000130606
-5.96466e-07
-3.08182e-05
3.73416e-06
-2.48295e-05
2.76806e-05
-1.71227e-05
8.86929e-05
0.000296873
-9.58456e-07
0.000295776
-2.84313e-07
0.000500695
-7.00802e-07
0.000498897
-1.23231e-06
0.00156337
-2.01223e-06
-4.68222e-06
-6.49485e-05
0.00509391
-0.000139735
0.00152434
-3.65901e-06
-8.54395e-06
0.000497819
-1.25289e-06
0.000494735
-1.0474e-06
0.000295006
-1.85534e-07
0.000294483
-6.60927e-08
8.66294e-05
-0.000447896
0.00793194
-0.00040695
0.0103475
-0.000372558
0.0122553
-0.000346382
0.0136143
-0.000311687
0.0144201
-0.000267491
0.0146934
-0.000216199
0.0144529
-0.000162427
0.0137118
-0.000112828
0.0124825
-7.04007e-05
0.0108009
-3.85195e-05
0.00874011
-1.7452e-05
0.00640194
-6.16006e-06
0.00389372
-8.82868e-07
0.00130707
0.00117832
0.0101691
0.00101543
0.0103775
0.000945192
0.0106583
0.00100216
0.0110254
0.00122087
0.0114851
0.00162114
0.0120377
0.00219646
0.0126833
0.00289364
0.0134466
0.00360779
0.0143416
0.00413505
0.0153246
0.00432339
0.0163341
0.00421626
0.0172819
0.00379588
0.017563
0.00286988
0.0159488
0.00154433
0.0120532
0.000440355
0.0074341
-4.66097e-05
0.00377978
6.86075e-05
4.91395e-05
-0.000953512
0.000964016
1.22402e-05
1.70997e-05
-0.000409451
0.000433592
9.8166e-07
9.36207e-06
2.58177e-05
2.11132e-05
-3.58068e-05
5.37086e-05
-3.00763e-05
2.82592e-05
-3.14147e-05
8.56709e-05
8.53866e-05
0.000293946
-1.63806e-07
0.000292908
-1.94988e-07
0.000493761
-1.03827e-06
0.000490756
-1.67764e-06
0.00148326
-6.81582e-06
-1.70593e-05
-0.000202635
0.00505138
-0.000202728
0.00140715
-2.04194e-05
-4.31995e-05
0.000488957
-1.86011e-06
0.000482899
-2.48544e-06
0.000291891
-2.35649e-07
0.00029109
-2.46559e-07
8.52011e-05
8.5135e-05
-0.000324898
0.00784989
-0.000292932
0.0102679
-0.000294196
0.0122031
-0.000292279
0.0135949
-0.000279883
0.0144325
-0.000252736
0.0147299
-0.000213696
0.0145042
-0.000166936
0.0137659
-0.000117206
0.0125293
-7.37736e-05
0.0108361
-3.97418e-05
0.0087624
-1.82008e-05
0.00641399
-6.36117e-06
0.0038992
-1.25573e-06
0.00130833
0.00102754
0.0101653
0.00081944
0.0103651
0.000683814
0.0106389
0.000656403
0.011004
0.000784899
0.0114614
0.0010994
0.0120068
0.00159841
0.0126357
0.00222993
0.013347
0.00289968
0.0141547
0.00344121
0.0150354
0.00371774
0.0159303
0.0037287
0.0168216
0.00353025
0.0175475
0.00304506
0.0173878
0.00215954
0.0153336
0.00106693
0.0114266
0.000247975
0.00713951
-7.49916e-05
0.00373958
4.49877e-05
7.02e-05
-0.000971283
0.000976476
6.3414e-05
4.18725e-05
-0.00044906
0.000461625
6.90964e-07
-1.01619e-06
1.80469e-06
-1.73563e-07
-8.86049e-05
8.97699e-05
-1.8341e-07
-8.10611e-05
1.81815e-06
6.63211e-05
1.32051e-05
6.37323e-06
8.49712e-05
8.47762e-05
0.000290234
-1.81918e-07
0.00028887
-3.13802e-07
0.000479501
-3.41753e-06
0.000468972
-6.53107e-06
0.00136025
-5.80903e-05
-9.76493e-05
-0.000134294
0.0049153
-5.45228e-05
0.00131876
-8.75756e-05
-7.36608e-05
0.000458871
-1.03178e-05
0.000435407
-1.97355e-05
0.000287336
-3.25942e-07
0.000285254
-4.03753e-07
8.45406e-05
8.4294e-05
-0.000175391
0.00773235
-0.000205372
0.010179
-0.000235016
0.0121459
-0.000255877
0.0135709
-0.000261323
0.0144411
-0.000249765
0.014766
-0.000218018
0.0145553
-0.000172339
0.013821
-0.000121525
0.012577
-7.64464e-05
0.0108728
-4.23373e-05
0.00878653
-1.96682e-05
0.00642729
-6.97738e-06
0.00390492
-1.04197e-06
0.00130937
0.000881802
0.010158
0.000635599
0.0103491
0.000434139
0.0106148
0.000321389
0.0109739
0.00035411
0.0114348
0.00057833
0.0119825
0.00100496
0.0126003
0.00158562
0.0132801
0.00222572
0.014021
0.0027834
0.0148125
0.00313412
0.015619
0.00324606
0.0164129
0.00316869
0.0171832
0.00291944
0.0176731
0.00242234
0.017125
0.00162275
0.0147777
0.000737766
0.0109368
0.000137577
0.00692694
-6.64077e-05
0.0037604
1.3208e-05
3.23769e-05
-0.000983783
0.000995155
3.36156e-05
6.28924e-05
-0.000483589
0.000498205
2.63266e-05
2.24715e-05
5.89878e-06
1.40101e-05
-9.03703e-05
9.13389e-05
-2.77741e-07
-9.10603e-05
-3.26295e-07
9.0984e-05
5.90551e-07
-2.49903e-07
-2.13964e-05
2.1213e-05
-1.95783e-05
1.32051e-05
8.41121e-05
8.37983e-05
0.000282383
-5.45906e-07
0.000276879
-1.02682e-06
0.000413903
-3.65862e-05
0.000379542
-6.32887e-05
0.00124952
-4.52945e-05
-1.97596e-05
-3.23338e-05
0.0047807
-8.45316e-06
0.00120925
-1.10357e-05
-3.2199e-06
0.000357318
-6.53515e-05
0.000334284
-5.06268e-05
0.000268405
-1.84429e-06
0.000252668
-3.99817e-06
8.34724e-05
8.30687e-05
-0.000101382
0.00762836
-0.000152767
0.0100968
-0.000197787
0.0120878
-0.000235685
0.0135453
-0.0002561
0.0144474
-0.000253486
0.0148015
-0.000226037
0.014609
-0.000178664
0.0138782
-0.000126548
0.0126271
-7.82043e-05
0.0109087
-4.30382e-05
0.0088099
-1.94903e-05
0.00643981
-6.65532e-06
0.00391053
-1.13833e-06
0.00131051
0.000742061
0.0101483
0.000465961
0.0103277
0.000202553
0.0105807
-2.9606e-07
0.0109364
-7.1843e-05
0.0113999
5.5956e-05
0.0119572
0.000409365
0.0125781
0.00094746
0.0132384
0.00157465
0.0139311
0.00215484
0.0146495
0.00256639
0.0153802
0.00276899
0.0160961
0.00278483
0.0167968
0.00266328
0.0174394
0.002399
0.0176964
0.00192196
0.0168258
0.00122341
0.0142921
0.000517718
0.0105567
7.35295e-05
0.006787
-9.01194e-05
8.14526e-05
0.00376907
-0.000999857
0.000949244
6.38207e-05
2.76748e-05
-0.00051686
0.000537193
3.66948e-06
9.61272e-06
2.83713e-05
1.58658e-05
-0.000111685
0.000119762
1.82487e-05
-0.000103629
1.44159e-05
9.50989e-05
2.13871e-06
5.47989e-06
-2.12273e-05
2.09496e-05
-2.15537e-05
2.18036e-05
8.25227e-05
8.14959e-05
0.000226411
-1.03292e-05
0.000185734
-2.26122e-05
0.000309743
-2.07528e-05
0.00029696
-6.97744e-06
0.00118095
-3.36354e-06
-6.698e-07
-1.23135e-05
0.00469552
-3.88949e-06
0.00117328
-9.66623e-07
1.90253e-07
0.000288337
-2.41274e-06
0.000285815
-6.97698e-07
0.000163095
-4.2712e-05
0.000112468
7.96516e-05
7.56535e-05
-6.87369e-05
0.00754433
-0.000122763
0.0100218
-0.000179214
0.0120313
-0.000230023
0.0135192
-0.00026479
0.0144587
-0.000268127
0.0148435
-0.000237829
0.0146681
-0.000185347
0.013937
-0.000128268
0.0126772
-7.85872e-05
0.0109442
-4.1823e-05
0.00883224
-1.92607e-05
0.00645241
-6.32399e-06
0.00391572
-1.02709e-06
0.00131154
0.00060959
0.0101357
0.000314621
0.0102997
-6.18023e-06
0.0105364
-0.000303191
0.0108836
-0.00048883
0.0113534
-0.000473526
0.0119294
-0.000199439
0.012566
0.00030208
0.0132234
0.000931277
0.0138818
0.00154244
0.0145435
0.00201314
0.0152028
0.00229669
0.0158525
0.00239943
0.0164815
0.00236389
0.0170962
0.00222332
0.017615
0.00196724
0.0176512
0.00152729
0.0165219
0.000929518
0.0138803
0.000367812
0.0102624
1.94367e-05
0.00667745
-0.000631323
0.00159637
4.71327e-05
1.85192e-05
-0.000111288
0.000119779
0.00376058
-0.000557705
-9.7977e-06
6.05438e-06
1.10827e-06
-0.00014329
0.000145335
1.62437e-06
-0.000137702
4.02439e-06
0.000130732
1.74019e-05
8.8953e-06
-4.29841e-05
5.09826e-05
1.02502e-05
-2.85682e-05
2.30883e-05
6.53242e-05
4.2712e-05
9.17153e-05
8.47379e-05
0.000282851
-3.98826e-07
0.000282416
-2.35532e-07
0.00116244
-1.10164e-06
-3.78933e-07
-8.15659e-06
0.00463872
-3.78e-06
0.00115932
-6.3632e-07
-1.30761e-07
0.000281596
-1.45921e-07
0.000281657
1.28734e-07
8.23252e-05
8.16275e-05
-5.35036e-05
0.00747507
-0.000108265
0.00995081
-0.000175004
0.0119763
-0.000241272
0.0134957
-0.000283172
0.0144738
-0.000284123
0.0148898
-0.000246325
0.0147291
-0.000187067
0.0139958
-0.000126331
0.0127249
-7.65715e-05
0.010979
-4.1326e-05
0.0088543
-1.86402e-05
0.00646473
-6.16714e-06
0.00392086
-8.91167e-07
0.00131243
0.000485754
0.01012
0.000185841
0.0102645
-0.000184595
0.0104781
-0.000577687
0.0108109
-0.000893163
0.0112879
-0.00101042
0.0118903
-0.000827973
0.0125579
-0.000363433
0.0132315
0.000284293
0.0138704
0.000939411
0.0144848
0.00146978
0.0150869
0.00182738
0.0156721
0.00201059
0.0162414
0.00205373
0.0167917
0.00199139
0.0173281
0.0018544
0.0177279
0.00161447
0.017564
0.00121927
0.0162322
0.000714748
0.0135334
0.000256897
0.010025
-1.86573e-05
0.00658482
0.00162639
3.26314e-05
5.71209e-05
-0.00023407
0.000262905
1.33887e-05
4.9084e-06
-0.000217546
1.66607e-06
3.29109e-07
-9.77055e-05
7.49653e-05
0.00378332
-0.000137198
-2.69039e-07
-3.11141e-07
-8.95648e-05
0.000146921
4.46867e-06
1.08309e-05
-7.34137e-05
7.49408e-05
9.72185e-08
-7.00332e-05
6.43802e-07
6.30847e-05
5.2997e-06
1.94682e-06
1.02502e-05
8.12287e-05
8.09931e-05
0.000280605
-4.89986e-08
0.000280407
-1.8169e-07
0.00115244
-8.23538e-07
-4.53948e-07
-5.95344e-06
0.004595
-3.83322e-06