/*--------------------------------*- C++ -*----------------------------------*\
| =========                 |                                                 |
| \\      /  F ield         | OpenFOAM: The Open Source CFD Toolbox           |
|  \\    /   O peration     | Version:  v1912                                 |
|   \\  /    A nd           | Website:  www.openfoam.com                      |
|    \\/     M anipulation  |                                                 |
\*---------------------------------------------------------------------------*/
FoamFile
{
    version     2.0;
    format      ascii;
    class       volScalarField;
    location    "420";
    object      p;
}
// * * * * * * * * * * * * * * * * * * * * * * * * * * * * * * * * * * * * * //

dimensions      [0 2 -2 0 0 0 0];


internalField   nonuniform List<scalar> 
3754
(
-0.00651763
-0.00649044
-0.00627575
-0.00644546
-0.00624955
-0.00603215
-0.00640583
-0.00620351
-0.00600716
-0.00580323
-0.00637838
-0.00616323
-0.00596473
-0.00577937
-0.00557848
-0.00636952
-0.00613297
-0.00592775
-0.00573632
-0.00555525
-0.00536082
-0.00638822
-0.00611993
-0.00589667
-0.00569632
-0.00551441
-0.00533749
-0.00515312
-0.00644429
-0.0061306
-0.00587825
-0.00566495
-0.00547919
-0.00529752
-0.00513042
-0.00494999
-0.00653963
-0.00617276
-0.00588115
-0.00564763
-0.00545123
-0.00526317
-0.00509053
-0.00492807
-0.00475322
-0.00667583
-0.00625185
-0.00591099
-0.00565075
-0.00543506
-0.00523546
-0.00505535
-0.00488964
-0.00473214
-0.00456414
-0.00684825
-0.00636957
-0.00596979
-0.00567793
-0.00543873
-0.00522232
-0.00502829
-0.00485713
-0.00469429
-0.00454218
-0.00438128
-0.00703863
-0.00652657
-0.00605271
-0.00573049
-0.00546832
-0.00522999
-0.00501608
-0.00483256
-0.00466032
-0.00450559
-0.00436065
-0.00419964
-0.00720262
-0.00673203
-0.00615807
-0.00580905
-0.00552831
-0.00526218
-0.00502513
-0.00482036
-0.00463584
-0.00447627
-0.00432407
-0.0041796
-0.00402559
-0.00728692
-0.00696504
-0.00730685
-0.00628347
-0.00591137
-0.00561811
-0.00532328
-0.00506008
-0.0048288
-0.00462642
-0.00445241
-0.00429084
-0.00414449
-0.00400633
-0.00385364
-0.00733484
-0.00725904
-0.00643819
-0.00689732
-0.00728744
-0.00603451
-0.00573274
-0.00541313
-0.00512313
-0.00486262
-0.00463628
-0.00444049
-0.00426768
-0.00411596
-0.00397158
-0.00383549
-0.00368764
-0.00739864
-0.00748568
-0.00664875
-0.00618564
-0.00650536
-0.00699494
-0.0072888
-0.00728199
-0.00586352
-0.005529
-0.00521399
-0.00492523
-0.00467193
-0.00445007
-0.00425979
-0.00409458
-0.00394176
-0.00380258
-0.00366872
-0.00352885
-0.00742969
-0.00720337
-0.00783541
-0.00670983
-0.00641869
-0.00600627
-0.0062734
-0.00660849
-0.00694703
-0.00703915
-0.00722991
-0.00733363
-0.00566464
-0.00532749
-0.00501603
-0.00473587
-0.00448552
-0.00427023
-0.00408604
-0.00392025
-0.00377557
-0.00363655
-0.00351151
-0.00336769
-0.0074763
-0.00678478
-0.0083787
-0.00684552
-0.00676223
-0.00650085
-0.00619188
-0.00580515
-0.00606313
-0.00636848
-0.00665966
-0.00673572
-0.00691676
-0.00652797
-0.00734576
-0.00740237
-0.00545882
-0.00513119
-0.0048256
-0.00454766
-0.00430544
-0.00409657
-0.00391184
-0.00375575
-0.00361058
-0.00347876
-0.00335049
-0.00321533
-0.00687038
-0.00910971
-0.00687649
-0.00683126
-0.00659886
-0.00652606
-0.00626466
-0.00597419
-0.00560105
-0.00585272
-0.0061451
-0.0063943
-0.00647192
-0.00671534
-0.00677155
-0.00526163
-0.00493478
-0.00463629
-0.00436747
-0.0041302
-0.00392308
-0.00374879
-0.00359241
-0.00345225
-0.00332093
-0.00319822
-0.00306207
-0.00663051
-0.00656689
-0.00635509
-0.0062834
-0.006042
-0.00576543
-0.00540057
-0.00565207
-0.00593258
-0.00617207
-0.00623743
-0.00643855
-0.00649838
-0.00506102
-0.00474887
-0.00445474
-0.00418918
-0.00395851
-0.00376073
-0.00358727
-0.00343574
-0.00329775
-0.00316711
-0.0030462
-0.00291082
-0.00638746
-0.00631798
-0.00612157
-0.00606854
-0.00583111
-0.00555986
-0.00519905
-0.00545245
-0.00572983
-0.00596259
-0.00602255
-0.00620685
-0.00627295
-0.00487644
-0.00456134
-0.00427418
-0.00401974
-0.00379375
-0.00359939
-0.00343208
-0.00328153
-0.00314269
-0.00301757
-0.0028967
-0.00276858
-0.00615452
-0.0061024
-0.00591179
-0.00585802
-0.00562785
-0.00535895
-0.00501016
-0.0052534
-0.00552436
-0.00575975
-0.00581481
-0.00599531
-0.00606
-0.0046828
-0.0043812
-0.0041035
-0.00385142
-0.00363412
-0.00344564
-0.00327942
-0.00312851
-0.00299539
-0.00286921
-0.00275242
-0.00262426
-0.00594844
-0.0058908
-0.00570512
-0.00566016
-0.00543044
-0.00516097
-0.0048147
-0.0050642
-0.0053249
-0.0055524
-0.00561092
-0.00579464
-0.00584925
-0.00450402
-0.0042073
-0.00393428
-0.00369109
-0.00348052
-0.00329592
-0.00312913
-0.00298222
-0.00284773
-0.00272347
-0.00261045
-0.00248335
-0.00573962
-0.0056959
-0.00550961
-0.00545525
-0.00522916
-0.00496696
-0.00463484
-0.00487045
-0.00513261
-0.00535831
-0.00540653
-0.00558812
-0.00564413
-0.00432591
-0.00403715
-0.0037695
-0.00353714
-0.00333189
-0.00314845
-0.00298446
-0.0028362
-0.00270232
-0.00258305
-0.00246909
-0.00234672
-0.00554301
-0.00548742
-0.00530661
-0.0052569
-0.00503728
-0.00478038
-0.00445218
-0.00468798
-0.00494073
-0.00515965
-0.00521413
-0.00539355
-0.00544168
-0.00415378
-0.00386913
-0.00361533
-0.00338942
-0.00318967
-0.00300668
-0.0028388
-0.00268956
-0.00256123
-0.00244216
-0.00233361
-0.00221195
-0.00533861
-0.00529012
-0.00511485
-0.00506533
-0.00484544
-0.00459587
-0.00427927
-0.00450764
-0.0047552
-0.00497456
-0.00501417
-0.00519307
-0.00524896
-0.00398473
-0.00371119
-0.00346603
-0.00324997
-0.00305038
-0.00286199
-0.00269318
-0.00254852
-0.00242083
-0.00230771
-0.00219919
-0.00207935
-0.00514551
-0.00510366
-0.00491924
-0.00487418
-0.00466069
-0.00441711
-0.0041082
-0.00433448
-0.00457492
-0.00478505
-0.00483076
-0.00500683
-0.00504283
-0.00382242
-0.00355884
-0.00332665
-0.0031145
-0.00291086
-0.00271767
-0.00254945
-0.00240817
-0.00228841
-0.00217393
-0.00206684
-0.00194876
-0.00495248
-0.00490875
-0.00473594
-0.00468848
-0.00448012
-0.00424539
-0.00394392
-0.00416257
-0.00439929
-0.00460519
-0.00464543
-0.00481576
-0.00486108
-0.00366559
-0.00341564
-0.00319522
-0.0029836
-0.0027666
-0.00257077
-0.00240858
-0.00227665
-0.00215588
-0.00204301
-0.00193731
-0.00182267
-0.00477262
-0.00471988
-0.00455498
-0.00450698
-0.0043107
-0.00407576
-0.00378348
-0.00399934
-0.00422458
-0.00442565
-0.0044697
-0.00463784
-0.00467159
-0.00351619
-0.0032859
-0.0030746
-0.00284293
-0.00261599
-0.00242616
-0.00227655
-0.00214575
-0.00202622
-0.00191422
-0.00181179
-0.00169605
-0.00459136
-0.00453661
-0.00438204
-0.00433788
-0.00413908
-0.00391377
-0.00363053
-0.00384075
-0.00406031
-0.00425195
-0.00429714
-0.00445738
-0.00449603
-0.00338044
-0.00317008
-0.00294429
-0.00268807
-0.00246378
-0.00229235
-0.00214898
-0.00201794
-0.00189804
-0.00178989
-0.00168516
-0.00157271
-0.00441768
-0.00436513
-0.0042064
-0.00416806
-0.00397555
-0.00375394
-0.00348394
-0.00369198
-0.00390093
-0.00408931
-0.00412582
-0.00428551
-0.00432694
-0.00325797
-0.00306621
-0.00278778
-0.00252229
-0.00232544
-0.00216749
-0.00202332
-0.00189308
-0.00177644
-0.00166394
-0.00156283
-0.00144649
-0.00423692
-0.00419644
-0.00404324
-0.00400123
-0.0038168
-0.00360223
-0.00334398
-0.00354886
-0.0037477
-0.00392802
-0.0039676
-0.00412188
-0.00415282
-0.00318053
-0.00291845
-0.00259814
-0.0023749
-0.00220392
-0.00204678
-0.00190229
-0.00177267
-0.00165301
-0.00154261
-0.00143862
-0.00132204
-0.00407356
-0.00402773
-0.00388179
-0.00384593
-0.0036675
-0.00345553
-0.0032486
-0.00341375
-0.00360098
-0.00377682
-0.00380672
-0.00395848
-0.00399691
-0.00308581
-0.00268971
-0.00243802
-0.00225744
-0.00208886
-0.00192932
-0.00178413
-0.00165337
-0.00153159
-0.00142063
-0.00131399
-0.00119843
-0.00391154
-0.00387324
-0.00373052
-0.00369538
-0.00352472
-0.00332312
-0.0032636
-0.00329036
-0.003462
-0.00362949
-0.00365992
-0.00380876
-0.00383159
-0.00280355
-0.00250855
-0.00232611
-0.00214923
-0.00197494
-0.0018143
-0.00166851
-0.00153346
-0.00141276
-0.00129695
-0.00119223
-0.00107283
-0.00375913
-0.00372001
-0.00358677
-0.00355984
-0.00338568
-0.00328139
-0.00293241
-0.00339898
-0.0032949
-0.00349527
-0.00351669
-0.00365836
-0.00368605
-0.00258596
-0.00240899
-0.00222646
-0.00203856
-0.0018629
-0.00170142
-0.00155263
-0.00141805
-0.00129232
-0.00117758
-0.00106875
-0.000946169
-0.0036156
-0.00358499
-0.00345133
-0.00343154
-0.00323284
-0.00309773
-0.00269167
-0.00289942
-0.00361751
-0.00335889
-0.00337038
-0.00351975
-0.00354609
-0.00249941
-0.00231708
-0.00211748
-0.00192948
-0.00175449
-0.00159133
-0.00144034
-0.00130249
-0.00117549
-0.0010555
-0.000942138
-0.000818282
-0.00348384
-0.00345603
-0.00325544
-0.00319641
-0.00314319
-0.00286527
-0.00260032
-0.00278305
-0.00293933
-0.00397201
-0.00305316
-0.00339317
-0.00342026
-0.00241586
-0.00220796
-0.00201012
-0.00182448
-0.00164859
-0.00148339
-0.00133138
-0.0011874
-0.00105554
-0.000930357
-0.000816952
-0.00068819
-0.00333521
-0.0032406
-0.00287116
-0.00305319
-0.00292662
-0.00274183
-0.002513
-0.00266227
-0.0028578
-0.00300793
-0.00304907
-0.00462981
-0.00309599
-0.00230679
-0.0021005
-0.00190756
-0.00172097
-0.00154497
-0.00137892
-0.00121946
-0.00107373
-0.000934798
-0.000808085
-0.00068793
-0.000552709
-0.00300631
-0.00296071
-0.00279319
-0.00262296
-0.00240513
-0.00255128
-0.00272218
-0.00287617
-0.00292833
-0.0021955
-0.00199853
-0.00180545
-0.00162169
-0.00144476
-0.00127368
-0.00111303
-0.000958448
-0.000816178
-0.000681371
-0.000555108
-0.000415096
-0.0028455
-0.00280728
-0.00266696
-0.00250819
-0.00229355
-0.00244333
-0.00260654
-0.00274097
-0.00277744
-0.00209308
-0.00189673
-0.0017085
-0.00152568
-0.00134653
-0.00117385
-0.00100416
-0.000843667
-0.000693135
-0.000551137
-0.000419818
-0.000272294
-0.00271246
-0.00268352
-0.00255167
-0.00239602
-0.00218918
-0.00233489
-0.00249662
-0.00262986
-0.00266089
-0.0019914
-0.00179961
-0.00161389
-0.00143236
-0.00125274
-0.00107218
-0.000896524
-0.000727425
-0.000567765
-0.000418861
-0.000279562
-0.000125601
-0.00259954
-0.00257042
-0.00244072
-0.00228957
-0.00208521
-0.00223062
-0.00238637
-0.00251647
-0.00254619
-0.00189207
-0.00170535
-0.00152538
-0.001343
-0.00115996
-0.000974196
-0.000789111
-0.000609409
-0.000440281
-0.000281971
-0.000135049
2.89275e-05
-0.00248841
-0.00246102
-0.00233537
-0.00218182
-0.00198491
-0.00212746
-0.00228105
-0.00240727
-0.00243755
-0.00179783
-0.00161883
-0.00143818
-0.00125841
-0.0010704
-0.000875329
-0.00068021
-0.00048959
-0.000309343
-0.000139914
1.58656e-05
0.00018876
-0.00238042
-0.00235515
-0.00222708
-0.00208027
-0.00188845
-0.00202761
-0.00217484
-0.00230764
-0.00232876
-0.0017091
-0.00153269
-0.00136005
-0.00117659
-0.000981373
-0.000777767
-0.000570047
-0.000366422
-0.000172599
6.51123e-06
0.000173713
0.000355445
-0.00227369
-0.00224762
-0.00212574
-0.00198077
-0.00179751
-0.00193115
-0.00207444
-0.00219522
-0.00222265
-0.00162315
-0.00145688
-0.00128383
-0.00109704
-0.0008942
-0.00068006
-0.000458072
-0.00024031
-3.25062e-05
0.000161047
0.000338083
0.00052918
-0.00217167
-0.00214447
-0.00202452
-0.00188665
-0.00170857
-0.00183837
-0.00197817
-0.00209505
-0.00212037
-0.00154646
-0.00138581
-0.00121144
-0.00101847
-0.00080879
-0.0005817
-0.000345995
-0.000109258
0.000114788
0.000322395
0.000512362
0.000707249
-0.00206908
-0.00204375
-0.00192847
-0.00179492
-0.00162855
-0.00174894
-0.00188352
-0.00199944
-0.00202463
-0.00147722
-0.00131936
-0.00114015
-0.000943545
-0.000725478
-0.000484129
-0.000228382
2.76392e-05
0.000270441
0.000492617
0.000697308
0.000903252
-0.00197191
-0.00194736
-0.00183686
-0.00170882
-0.00155826
-0.00166401
-0.00179308
-0.00190228
-0.00192787
-0.00141574
-0.00125267
-0.0010709
-0.000873505
-0.00064321
-0.000384386
-0.000105988
0.000170519
0.000432442
0.000678697
0.000899658
0.00108659
-0.00187865
-0.00185618
-0.00174829
-0.0016268
-0.00149561
-0.00159009
-0.00170526
-0.00181414
-0.0018341
-0.00135415
-0.00118316
-0.00101087
-0.000805714
-0.000562045
-0.00028199
1.90648e-05
0.000321482
0.000615382
0.000868741
0.00118455
0.000448252
-0.00178914
-0.00176878
-0.00166058
-0.00157881
-0.00143434
-0.00164684
-0.00160494
-0.00172986
-0.00174896
-0.00128102
-0.00112785
-0.000954485
-0.000742071
-0.000481125
-0.000176295
0.00015239
0.000491375
0.000784188
0.00120281
0.000540178
-0.00170572
-0.00168646
-0.00154146
-0.00149746
-0.00136466
-0.00146117
-0.00234109
-0.00185022
-0.00164274
-0.00166474
-0.00122421
-0.00107838
-0.000904726
-0.00068004
-0.000397821
-6.72133e-05
0.000300994
0.000638042
0.00111588
0.000570391
-0.00162006
-0.00160308
-0.00084239
-0.00164548
-0.00156691
-0.0014332
-0.0013037
-0.00139915
-0.00153125
-0.0014933
-0.00156672
-0.00117616
-0.00103779
-0.000858619
-0.000620074
-0.000314553
5.58236e-05
0.000426224
0.000943085
0.000512829
-0.00142382
-0.00162892
-0.00158947
-0.00147465
-0.0014477
-0.00136803
-0.00125345
-0.00134063
-0.00143609
-0.00141237
-0.00155446
-0.00152174
-0.0016297
-0.00113933
-0.00100219
-0.000817793
-0.000560241
-0.000220729
0.000157709
0.000688672
0.000396297
-0.00165363
-0.00161558
-0.00149317
-0.00146692
-0.0013992
-0.0013838
-0.00131319
-0.00121481
-0.0012918
-0.00137103
-0.00135603
-0.00145166
-0.00143091
-0.00157616
-0.00154505
-0.00110818
-0.000975729
-0.000778318
-0.000495913
-0.000142524
0.000366287
0.000239504
-0.00150834
-0.00148412
-0.00141411
-0.00140232
-0.00134418
-0.00132982
-0.00126819
-0.00118444
-0.00125133
-0.00132005
-0.0013088
-0.00138606
-0.00137231
-0.00146522
-0.00144721
-0.00108926
-0.000951604
-0.000739566
-0.000438609
5.99666e-06
6.07805e-05
-0.00142905
-0.00141734
-0.00135982
-0.0013456
-0.00129525
-0.0012842
-0.0012326
-0.00116518
-0.00122064
-0.00127784
-0.00126568
-0.00133608
-0.00132439
-0.0014007
-0.00138753
-0.00107505
-0.000933485
-0.000699225
-0.000351994
-0.000120336
-0.00137378
-0.0013601
-0.00131065
-0.00129933
-0.00125575
-0.00124932
-0.00120597
-0.00115414
-0.00120066
-0.00124271
-0.00123424
-0.00129099
-0.00128098
-0.00135088
-0.00133707
-0.00107288
-0.000905709
-0.000668397
-0.000285197
-0.00132766
-0.00131301
-0.00126858
-0.00126374
-0.00122826
-0.00122081
-0.00118904
-0.00116014
-0.00118988
-0.00121907
-0.00121397
-0.00125367
-0.00124833
-0.00130246
-0.00129415
-0.00106025
-0.000919655
-0.000419918
-0.00128178
-0.0012745
-0.00124025
-0.00123363
-0.00120756
-0.00120344
-0.00118608
-0.00116738
-0.00119583
-0.00120529
-0.00119989
-0.00122903
-0.00122598
-0.00126512
-0.00126116
-0.00110904
-0.000521461
-0.00125073
-0.00124488
-0.00121926
-0.00121562
-0.00119657
-0.00120101
-0.00119342
-0.00126762
-0.00120197
-0.00120124
-0.00120512
-0.00121309
-0.00120937
-0.00123957
-0.0012351
-0.000594533
-0.00123113
-0.00122576
-0.0012071
-0.00120811
-0.00120276
-0.00120989
-0.00123511
-0.000707472
-0.00130834
-0.00120884
-0.00121245
-0.00120911
-0.00120937
-0.00122033
-0.00121823
-0.0012155
-0.00121385
-0.00121024
-0.00121453
-0.00122348
-0.00124086
-0.00134599
-0.000661337
-0.00127304
-0.00129706
-0.00121542
-0.00121859
-0.0012166
-0.00121515
-0.00121583
-0.00121726
-0.00123053
-0.0012438
-0.00133166
-0.00140554
-0.00136616
-0.000562891
-0.00127026
-0.00129347
-0.00121835
-0.00122076
-0.00122944
-0.00124155
-0.00131897
-0.00142004
-0.00152241
-0.000578377
-0.001265
-0.00129074
-0.00131844
-0.00141161
-0.00165957
-0.000726597
-0.0961807
-0.0960308
-0.0952063
-0.0952613
-0.0958677
-0.0957105
-0.095149
-0.0951621
-0.0954892
-0.0959433
-0.0959076
-0.0960211
-0.0949421
-0.0952288
-0.0949835
-0.0954644
-0.0962532
-0.0963119
-0.0961105
-0.0962649
-0.0947338
-0.0950304
-0.0947707
-0.0953549
-0.0949723
-0.0970872
-0.0963889
-0.0967381
-0.0963264
-0.096535
-0.0944936
-0.0948009
-0.0945413
-0.0955049
-0.0944465
-0.0945484
-0.0972624
-0.0971931
-0.0965308
-0.0965711
-0.0967961
-0.0967628
-0.0942944
-0.0945945
-0.0943323
-0.0956462
-0.0946166
-0.0935875
-0.094107
-0.0943747
-0.0974271
-0.0970176
-0.096674
-0.0969672
-0.0940892
-0.0941367
-0.0957859
-0.0947688
-0.0937507
-0.0927274
-0.0933183
-0.0936875
-0.0939524
-0.0941729
-0.0975786
-0.0968133
-0.093877
-0.0939197
-0.0959238
-0.0949106
-0.0939041
-0.0928885
-0.0918662
-0.0924009
-0.0928348
-0.0933752
-0.0934174
-0.0935443
-0.0937416
-0.0977206
-0.0969502
-0.0936495
-0.093695
-0.0960616
-0.0950496
-0.0940479
-0.0930446
-0.0920298
-0.0910197
-0.0915429
-0.0919723
-0.0923204
-0.0926962
-0.0927309
-0.0933001
-0.0934985
-0.0978574
-0.0970856
-0.0934652
-0.0962
-0.0951898
-0.0941893
-0.093193
-0.0921903
-0.0911812
-0.0902298
-0.0906849
-0.0911054
-0.0914668
-0.0918924
-0.0921645
-0.0923795
-0.0927725
-0.0925666
-0.0929257
-0.0932695
-0.0979906
-0.0972135
-0.0963318
-0.0953319
-0.094333
-0.0933393
-0.0923446
-0.0913423
-0.0903621
-0.0893225
-0.0898753
-0.0903638
-0.0905774
-0.0910117
-0.0913094
-0.0915237
-0.091934
-0.091727
-0.0981151
-0.0973166
-0.096438
-0.0954682
-0.0944799
-0.0934886
-0.0924977
-0.0915021
-0.0905082
-0.0894925
-0.0884313
-0.0889684
-0.0894245
-0.0897788
-0.0903725
-0.09038
-0.0906138
-0.0910701
-0.0908551
-0.0982153
-0.0973529
-0.0964726
-0.0955771
-0.094621
-0.0936419
-0.0926547
-0.0916629
-0.0906667
-0.0896562
-0.0886123
-0.087534
-0.0880861
-0.0885446
-0.0888901
-0.0893112
-0.0895498
-0.0897326
-0.0901527
-0.0903809
-0.0982522
-0.0972438
-0.0963514
-0.0956085
-0.0947324
-0.0937887
-0.0928157
-0.0918288
-0.0908333
-0.0898241
-0.0887914
-0.0877204
-0.0866128
-0.0871851
-0.0876508
-0.0880118
-0.0884597
-0.0887286
-0.0889612
-0.0893663
-0.0891433
-0.0895449
-0.0896323
-0.0905676
-0.0981528
-0.0968601
-0.0959361
-0.0954728
-0.0947602
-0.0939023
-0.0929687
-0.0919988
-0.0910084
-0.0900015
-0.0889733
-0.0879124
-0.0868082
-0.085659
-0.0862554
-0.0867317
-0.0871081
-0.0875666
-0.0878446
-0.0880739
-0.0885137
-0.0882861
-0.0886925
-0.08892
-0.0893254
-0.0891197
-0.0977959
-0.0960107
-0.0950233
-0.0950206
-0.0946067
-0.093924
-0.0930843
-0.092159
-0.0911886
-0.0901889
-0.0891649
-0.0881105
-0.0870147
-0.0858667
-0.0846823
-0.0852899
-0.0857816
-0.0861742
-0.086645
-0.0869354
-0.0871679
-0.0876166
-0.0873885
-0.0878044
-0.0880282
-0.0884655
-0.0882491
-0.0970025
-0.0944572
-0.0933623
-0.0940359
-0.0941113
-0.0937479
-0.0930984
-0.0922758
-0.0913564
-0.0903809
-0.0893674
-0.0883197
-0.0872307
-0.0860912
-0.0848999
-0.0837086
-0.0842803
-0.0847941
-0.085204
-0.0856942
-0.0859952
-0.0862364
-0.0866982
-0.0864629
-0.086892
-0.0871217
-0.0875672
-0.0873489
-0.0955464
-0.0919683
-0.0907131
-0.0922568
-0.0930456
-0.0932029
-0.092896
-0.092279
-0.0914737
-0.0905568
-0.0895727
-0.0885399
-0.08746
-0.0863284
-0.0851395
-0.0839165
-0.082622
-0.0833135
-0.083803
-0.0841762
-0.0846982
-0.0850255
-0.0852694
-0.0857498
-0.0855101
-0.0859505
-0.086189
-0.0866507
-0.0864196
-0.0932069
-0.0884032
-0.0869331
-0.0894342
-0.0911356
-0.0920464
-0.0922918
-0.0920431
-0.0914631
-0.0906734
-0.0897569
-0.0887598
-0.0877004
-0.0865807
-0.0853987
-0.0841598
-0.0828643
-0.081461
-0.0821544
-0.0827621
-0.0832807
-0.0837184
-0.0839867
-0.0842484
-0.0847646
-0.0845169
-0.084979
-0.0852229
-0.0857011
-0.0854651
-0.0898468
-0.0837865
-0.0820546
-0.0854264
-0.0881258
-0.0899918
-0.0910299
-0.0913702
-0.0911874
-0.0906451
-0.0898712
-0.0889524
-0.0879362
-0.0868436
-0.0856758
-0.0844373
-0.0831321
-0.0817439
-0.0802477
-0.0809899
-0.0816037
-0.0820383
-0.0826256
-0.0829498
-0.0834626
-0.0837343
-0.0834881
-0.0839267
-0.0842054
-0.0847187
-0.0844718
-0.0854839
-0.0783277
-0.0763059
-0.0802784
-0.0838783
-0.0867786
-0.0888143
-0.0899913
-0.0904352
-0.0903217
-0.0898198
-0.0890619
-0.0881371
-0.0870964
-0.0859621
-0.0847391
-0.0834336
-0.0820485
-0.0805584
-0.0790593
-0.0797585
-0.0804007
-0.0808819
-0.0814788
-0.0818261
-0.0821267
-0.0826733
-0.0823676
-0.082719
-0.0836383
-0.0836271
-0.0832082
-0.0803121
-0.0723571
-0.070039
-0.0742381
-0.0784524
-0.0822774
-0.0853829
-0.0875988
-0.0889219
-0.0894772
-0.0894394
-0.0889812
-0.0882384
-0.0873046
-0.0862328
-0.0850498
-0.0837631
-0.0823815
-0.0809051
-0.0793252
-0.0776023
-0.0787299
-0.0792194
-0.0796312
-0.080271
-0.0806638
-0.0809762
-0.0815585
-0.081254
-0.0817876
-0.0820691
-0.0825586
-0.0823202
-0.082669
-0.0839014
-0.0746408
-0.0662471
-0.0636518
-0.0676803
-0.072119
-0.0765665
-0.080616
-0.0839307
-0.0863328
-0.0878128
-0.0884886
-0.0885327
-0.0881208
-0.0873935
-0.0864468
-0.0853383
-0.084099
-0.082742
-0.0812763
-0.0797002
-0.0780021
-0.0771071
-0.0761326
-0.0777082
-0.0790042
-0.0794351
-0.0797471
-0.080365
-0.0800444
-0.0806196
-0.0809222
-0.0815068
-0.0812126
-0.0817433
-0.0820187
-0.0825312
-0.0822884
-0.0688181
-0.0603666
-0.0575379
-0.0610296
-0.0652773
-0.0699407
-0.0746134
-0.0788834
-0.0824105
-0.085008
-0.0866547
-0.0874581
-0.0875911
-0.0872304
-0.0865182
-0.0855558
-0.0844052
-0.0831039
-0.081671
-0.0801124
-0.0784226
-0.0765877
-0.0757233
-0.0766701
-0.0774077
-0.0745649
-0.0779406
-0.0792172
-0.0791385
-0.0793713
-0.0796962
-0.0803167
-0.0800035
-0.0805694
-0.0808618
-0.0814491
-0.081167
-0.0631875
-0.0550634
-0.0520663
-0.0547034
-0.0583796
-0.0628261
-0.0676982
-0.0725842
-0.0770718
-0.080814
-0.0836136
-0.0854335
-0.0863753
-0.0866063
-0.0862993
-0.0856029
-0.0846229
-0.083427
-0.0820593
-0.0805434
-0.0788822
-0.0770719
-0.0750859
-0.0741207
-0.0751732
-0.0759453
-0.0764151
-0.0767871
-0.0771631
-0.0775295
-0.0729256
-0.0778662
-0.0781941
-0.0780536
-0.0789847
-0.0793246
-0.0796442
-0.0802589
-0.0799586
-0.0580748
-0.0506469
-0.0475557
-0.0490909
-0.0518656
-0.0557002
-0.0603237
-0.0653856
-0.0704728
-0.0751723
-0.0791295
-0.0821347
-0.0841392
-0.0852303
-0.0855635
-0.0853162
-0.0846378
-0.0836393
-0.0823971
-0.080959
-0.0793542
-0.077585
-0.0756397
-0.0734991
-0.0724408
-0.0735213
-0.0743592
-0.0748772
-0.0752969
-0.0756671
-0.076026
-0.0712616
-0.0784185
-0.0789557
-0.0537779
-0.0473246
-0.0442041
-0.0445165
-0.046143
-0.0490264
-0.0529931
-0.0577679
-0.0629985
-0.0682729
-0.0731746
-0.0773449
-0.0805615
-0.0827584
-0.0840044
-0.0844515
-0.0842695
-0.0836116
-0.0825972
-0.0813081
-0.0797974
-0.0780987
-0.0762117
-0.0741191
-0.071827
-0.0708663
-0.0717477
-0.072606
-0.0732235
-0.073658
-0.0740634
-0.0744461
-0.0692972
-0.0505089
-0.0451343
-0.0420283
-0.0411665
-0.0415383
-0.0432282
-0.0461924
-0.0502605
-0.0551584
-0.0605349
-0.0659774
-0.0710711
-0.07545
-0.0788804
-0.0812748
-0.0826873
-0.0832553
-0.0831455
-0.0825149
-0.0814871
-0.0801522
-0.0785687
-0.0767686
-0.074752
-0.072498
-0.0699913
-0.0686564
-0.0699218
-0.0711902
-0.0713161
-0.0718297
-0.0723109
-0.0727419
-0.0671745
-0.048327
-0.0439346
-0.0408625
-0.0390316
-0.0382197
-0.0386283
-0.0403559
-0.0433689
-0.0475059
-0.0524967
-0.0579922
-0.0635827
-0.0688538
-0.0734359
-0.0770776
-0.0796761
-0.0812617
-0.0819607
-0.0819332
-0.0813361
-0.0803005
-0.0789225
-0.0772634
-0.0753526
-0.0731911
-0.0707475
-0.0679966
-0.06643
-0.0677428
-0.0688289
-0.0693792
-0.0698932
-0.0710746
-0.0708108
-0.064871
-0.0471161
-0.0434669
-0.040429
-0.0379178
-0.036148
-0.0353718
-0.0357967
-0.037534
-0.0405639
-0.0447351
-0.0497857
-0.055371
-0.0610858
-0.0665175
-0.07129
-0.0751424
-0.0779457
-0.0797139
-0.0805537
-0.0806172
-0.0800637
-0.0790261
-0.0776067
-0.075869
-0.0738375
-0.0715103
-0.068858
-0.0658244
-0.0640234
-0.0654581
-0.0666562
-0.0673415
-0.0679097
-0.0684006
-0.0689276
-0.0693447
-0.0697195
-0.0714437
-0.0623515
-0.0466337
-0.0434479
-0.0404359
-0.037528
-0.0350997
-0.0333841
-0.0326305
-0.0330524
-0.0347724
-0.0377851
-0.0419552
-0.0470303
-0.0526737
-0.0584853
-0.0640561
-0.0690068
-0.0730607
-0.0760727
-0.0780289
-0.0790183
-0.0791857
-0.078684
-0.0776518
-0.0761928
-0.0743703
-0.0722049
-0.0696959
-0.0668042
-0.0634501
-0.0613759
-0.0629317
-0.0642457
-0.0649883
-0.0656158
-0.0661963
-0.066783
-0.0672494
-0.0678178
-0.0683085
-0.0688078
-0.0595842
-0.0466045
-0.0436415
-0.0406446
-0.0375618
-0.0347587
-0.0324121
-0.0307464
-0.0300051
-0.0304057
-0.0320809
-0.0350437
-0.0391757
-0.0442382
-0.0499048
-0.055783
-0.0614682
-0.0665788
-0.0708268
-0.0740429
-0.0761912
-0.0773422
-0.0776227
-0.0771844
-0.0761633
-0.0746643
-0.0727482
-0.0704396
-0.0677237
-0.0645569
-0.0608438
-0.0584566
-0.0601397
-0.0615815
-0.0623958
-0.0630852
-0.0637247
-0.0643676
-0.0648677
-0.0654995
-0.0660668
-0.066637
-0.0565341
-0.0467913
-0.043891
-0.040901
-0.0377816
-0.0348195
-0.0321246
-0.0298614
-0.0282419
-0.0275043
-0.0278651
-0.0294699
-0.0323505
-0.0364077
-0.0414191
-0.0470714
-0.0529828
-0.0587543
-0.0640033
-0.0684299
-0.0718457
-0.074191
-0.0755082
-0.0759141
-0.0755481
-0.0745431
-0.0730009
-0.070985
-0.0685166
-0.0655677
-0.0620823
-0.0579671
-0.0552336
-0.0570531
-0.0586434
-0.059531
-0.0602905
-0.0609987
-0.0616989
-0.0622516
-0.062952
-0.0635728
-0.0642051
-0.0531701
-0.0470317
-0.0448512
-0.043323
-0.041823
-0.0380389
-0.0403556
-0.0350489
-0.0322133
-0.0296299
-0.0274507
-0.0258752
-0.0251316
-0.0254379
-0.0269506
-0.0297195
-0.0336642
-0.0385848
-0.044184
-0.0500919
-0.0559174
-0.0612783
-0.0658663
-0.0694734
-0.0720126
-0.0735047
-0.0740438
-0.0737577
-0.0727705
-0.0711833
-0.069058
-0.0664065
-0.0631924
-0.0593458
-0.0547843
-0.0516761
-0.0536418
-0.0553918
-0.0563631
-0.0571978
-0.0579852
-0.0587573
-0.0593676
-0.0601286
-0.0608283
-0.0615112
-0.0494631
-0.0480062
-0.0464217
-0.0452962
-0.0445365
-0.0438171
-0.0430434
-0.0422475
-0.0415184
-0.0389203
-0.0353051
-0.0375167
-0.0408277
-0.0400857
-0.0324508
-0.0297451
-0.0272761
-0.0251821
-0.0236482
-0.022894
-0.0231351
-0.0245355
-0.0271614
-0.0309595
-0.0357501
-0.0412554
-0.0471204
-0.0529649
-0.0584085
-0.0631356
-0.0669189
-0.0696493
-0.0713166
-0.071995
-0.0717927
-0.0708258
-0.069189
-0.0669357
-0.0640761
-0.0605598
-0.0563071
-0.0512663
-0.0477601
-0.0498799
-0.0518025
-0.0528542
-0.0537838
-0.0546465
-0.0555033
-0.056162
-0.0570141
-0.057782
-0.0585411
-0.045408
-0.0476815
-0.0469344
-0.0461309
-0.0452986
-0.0445618
-0.0438849
-0.043129
-0.0422491
-0.0415419
-0.0393253
-0.0386276
-0.0361458
-0.0327038
-0.0348078
-0.0379667
-0.0372574
-0.0408918
-0.0401665
-0.0299888
-0.0274161
-0.0250639
-0.0230559
-0.0215649
-0.0207961
-0.0209614
-0.0222318
-0.0246916
-0.0283094
-0.0329311
-0.0383008
-0.0440826
-0.0499062
-0.0553988
-0.0602379
-0.0641799
-0.0670911
-0.0689318
-0.0697501
-0.0696328
-0.068684
-0.0669859
-0.0645878
-0.0614861
-0.0576283
-0.0529385
-0.0473828
-0.0435234
-0.045737
-0.0478448
-0.0489915
-0.0500073
-0.0509596
-0.0519056
-0.0526197
-0.0535652
-0.0544115
-0.0552595
-0.0410127
-0.0477098
-0.047008
-0.0462229
-0.0393272
-0.0386501
-0.0365315
-0.0358657
-0.0335028
-0.0302369
-0.0322316
-0.0352351
-0.0345594
-0.0380274
-0.0373334
-0.0276638
-0.0252263
-0.0229919
-0.021073
-0.019624
-0.0188394
-0.0189233
-0.0200511
-0.0223228
-0.0257306
-0.0301475
-0.0353404
-0.0409951
-0.0467571
-0.0522603
-0.0571797
-0.0612571
-0.0643329
-0.0663381
-0.0672915
-0.0672579
-0.0663187
-0.0645467
-0.061977
-0.058599
-0.0543677
-0.0492098
-0.0431212
-0.0390747
-0.0411871
-0.0434893
-0.0447477
-0.0458553
-0.0469001
-0.0479384
-0.0487205
-0.0497458
-0.05069
-0.0516176
-0.0362605
-0.0365336
-0.0358867
-0.0338686
-0.0332352
-0.0309931
-0.0279054
-0.0297898
-0.0326356
-0.0319941
-0.0352921
-0.0346304
-0.0254756
-0.0231739
-0.0210598
-0.01923
-0.017826
-0.017025
-0.0170249
-0.0180014
-0.0200685
-0.0232407
-0.0274177
-0.032393
-0.0378773
-0.0435345
-0.0490077
-0.0539716
-0.0581537
-0.061372
-0.0635263
-0.0646063
-0.0646442
-0.0637042
-0.0618383
-0.0590684
-0.0553882
-0.0507457
-0.0451062
-0.0385165
-0.0341527
-0.0366239
-0.0388121
-0.0400794
-0.0412965
-0.0424549
-0.0435881
-0.0444266
-0.0455564
-0.0465853
-0.0476058
-0.0312189
-0.0338706
-0.0332546
-0.0313387
-0.0307381
-0.0286183
-0.0257093
-0.0274829
-0.0301698
-0.0295631
-0.0326886
-0.0320598
-0.0234228
-0.0212577
-0.0192632
-0.017525
-0.0161667
-0.0153529
-0.0152683
-0.0160893
-0.0179406
-0.0208549
-0.024762
-0.0294814
-0.034753
-0.0402605
-0.04566
-0.0506268
-0.0548784
-0.0582095
-0.0604916
-0.0616773
-0.061775
-0.0608143
-0.05883
-0.0558388
-0.0518203
-0.0467587
-0.0406518
-0.0336249
-0.0288964
-0.0313167
-0.0339732
-0.0355623
-0.0364134
-0.0375557
-0.0387676
-0.0397009
-0.040959
-0.0420976
-0.0432223
-0.0259585
-0.0313405
-0.0307556
-0.0289438
-0.028376
-0.0263787
-0.0236475
-0.0253109
-0.0278387
-0.0272668
-0.0302186
-0.0296233
-0.0215034
-0.0194735
-0.017599
-0.0159524
-0.0146435
-0.013819
-0.0136539
-0.0143207
-0.0159478
-0.0185898
-0.022199
-0.0266298
-0.0316476
-0.0369604
-0.04224
-0.0471649
-0.0514435
-0.0548522
-0.0572304
-0.0585013
-0.0586315
-0.0576273
-0.0555059
-0.0522628
-0.047902
-0.042425
-0.0358935
-0.0285015
-0.0235088
-0.025954
-0.0286062
-0.0299628
-0.0313053
-0.0325599
-0.0339821
-0.0356788
-0.0355351
-0.036964
-0.0383142
-0.020574
-0.0289454
-0.0283918
-0.0266838
-0.0261489
-0.0242734
-0.021718
-0.0232724
-0.0256425
-0.0251053
-0.0278831
-0.0273215
-0.0197142
-0.0178178
-0.0160616
-0.0145073
-0.0132495
-0.0124205
-0.0121811
-0.0126962
-0.0141001
-0.0164581
-0.0197503
-0.023862
-0.0285879
-0.0336634
-0.0387752
-0.0436087
-0.0478684
-0.0513111
-0.0537505
-0.055069
-0.0552069
-0.0541376
-0.05185
-0.0483517
-0.0436462
-0.0377828
-0.0308994
-0.0232245
-0.018049
-0.0204809
-0.0231895
-0.0245649
-0.0259401
-0.0272599
-0.0286012
-0.0295055
-0.0308278
-0.0320069
-0.0331615
-0.0359578
-0.0151975
-0.026685
-0.0261627
-0.0245582
-0.0240558
-0.0223006
-0.0199178
-0.0213652
-0.0235801
-0.0230772
-0.0256826
-0.0251547
-0.0180514
-0.0162852
-0.0146453
-0.0131831
-0.0119794
-0.011151
-0.0108458
-0.0112185
-0.0124006
-0.0144704
-0.0174332
-0.0212021
-0.0256041
-0.0303993
-0.0352952
-0.0399876
-0.0441771
-0.047606
-0.0500605
-0.0513934
-0.0515068
-0.0503423
-0.0478818
-0.0441183
-0.039092
-0.0329086
-0.0257418
-0.0179302
-0.0126294
-0.0149681
-0.0176766
-0.0190303
-0.0204275
-0.0217848
-0.0231514
-0.0240801
-0.0254743
-0.0267896
-0.0281248
-0.0290441
-0.0303658
-0.0316112
-0.0326781
-0.00997775
-0.0245588
-0.0240677
-0.0225654
-0.022095
-0.0204578
-0.0182431
-0.0195864
-0.0216497
-0.0211803
-0.023616
-0.0231213
-0.0165102
-0.0148702
-0.0133439
-0.0119725
-0.0108249
-0.0100049
-0.00964363
-0.00988324
-0.0108514
-0.0126378
-0.0152641
-0.0186735
-0.0227236
-0.0271998
-0.0318347
-0.036334
-0.0404005
-0.043763
-0.0461876
-0.0474922
-0.0475473
-0.0462701
-0.0436211
-0.0396159
-0.0343182
-0.0278739
-0.0205521
-0.012762
-0.00742793